MODEL 1
REMARK VINA RESULT:      -6.6      0.000      0.000
REMARK SMILES COC(=O)C1=C(C)[NH2+]C(C)=C(C(=O)OCCCN2CCC(c3ccccc3)(c3ccccc3)CC2)C1c1cccc([N+](=O)[O-])c1
REMARK SMILES IDX 14 1 12 2 13 3 11 4 5 5 6 6 36 7 8 8 9 9 7 10 10 13 3 14
REMARK SMILES IDX 4 15 2 16 1 17 37 18 38 19 45 20 39 21 41 22 40 23 42 24
REMARK SMILES IDX 43 25 44 26 15 27 16 28 17 29 18 30 19 31 35 32 20 33 34 34
REMARK SMILES IDX 21 35 22 36 23 37 27 38 24 39 26 40 25 41 28 42 29 43 33 44
REMARK SMILES IDX 30 45 32 46 31 47
REMARK H PARENT 8 11 8 12
ROOT
ATOM      1  O   UNL     1      21.224  19.829 -31.728  1.00  0.00    -0.462 OA
ENDROOT
BRANCH   1   2
ATOM      2  C   UNL     1      21.233  19.987 -30.360  1.00  0.00     0.340 C 
ATOM      3  O   UNL     1      20.383  19.256 -29.754  1.00  0.00    -0.246 OA
BRANCH   2   4
ATOM      4  C   UNL     1      22.047  20.847 -29.586  1.00  0.00     0.106 C 
ATOM      5  C   UNL     1      24.168  21.736 -29.651  1.00  0.00     0.106 C 
ATOM      6  C   UNL     1      23.693  22.935 -29.208  1.00  0.00     0.119 C 
ATOM      7  C   UNL     1      23.428  20.622 -29.057  1.00  0.00     0.106 C 
ATOM      8  N   UNL     1      22.453  22.915 -28.415  1.00  0.00    -0.288 N 
ATOM      9  C   UNL     1      21.574  22.058 -29.195  1.00  0.00     0.119 C 
ATOM     10  C   UNL     1      24.296  24.200 -29.628  1.00  0.00     0.112 C 
ATOM     11  H   UNL     1      22.085  23.895 -28.454  1.00  0.00     0.357 HD
ATOM     12  H   UNL     1      22.654  22.570 -27.505  1.00  0.00     0.357 HD
ATOM     13  C   UNL     1      20.224  22.544 -29.529  1.00  0.00     0.112 C 
BRANCH   5  14
ATOM     14  C   UNL     1      25.272  21.739 -30.558  1.00  0.00     0.340 C 
ATOM     15  O   UNL     1      26.482  21.626 -30.140  1.00  0.00    -0.246 OA
BRANCH  14  16
ATOM     16  O   UNL     1      25.137  21.876 -31.952  1.00  0.00    -0.465 OA
ATOM     17  C   UNL     1      25.966  21.146 -32.834  1.00  0.00     0.282 C 
ENDBRANCH  14  16
ENDBRANCH   5  14
BRANCH   7  18
ATOM     18  C   UNL     1      23.912  19.310 -28.877  1.00  0.00    -0.028 A 
ATOM     19  C   UNL     1      23.764  18.730 -27.615  1.00  0.00     0.005 A 
ATOM     20  C   UNL     1      24.549  18.559 -29.819  1.00  0.00     0.090 A 
ATOM     21  C   UNL     1      24.239  17.467 -27.367  1.00  0.00     0.007 A 
ATOM     22  C   UNL     1      25.040  17.264 -29.577  1.00  0.00     0.269 A 
ATOM     23  C   UNL     1      24.878  16.716 -28.330  1.00  0.00     0.085 A 
BRANCH  22  24
ATOM     24  N   UNL     1      25.698  16.511 -30.580  1.00  0.00     0.062 N 
ATOM     25  O   UNL     1      25.156  15.580 -31.203  1.00  0.00    -0.258 OA
ATOM     26  O   UNL     1      26.997  16.813 -30.892  1.00  0.00    -0.258 OA
ENDBRANCH  22  24
ENDBRANCH   7  18
ENDBRANCH   2   4
ENDBRANCH   1   2
BRANCH   1  27
ATOM     27  C   UNL     1      22.377  19.805 -32.550  1.00  0.00     0.234 C 
BRANCH  27  28
ATOM     28  C   UNL     1      22.145  20.378 -33.898  1.00  0.00     0.057 C 
BRANCH  28  29
ATOM     29  C   UNL     1      21.857  21.854 -33.956  1.00  0.00     0.088 C 
BRANCH  29  30
ATOM     30  N   UNL     1      20.536  22.271 -34.082  1.00  0.00    -0.303 NA
ATOM     31  C   UNL     1      19.885  22.322 -35.318  1.00  0.00     0.086 C 
ATOM     32  C   UNL     1      19.941  23.095 -33.107  1.00  0.00     0.086 C 
ATOM     33  C   UNL     1      18.506  21.699 -35.205  1.00  0.00     0.032 C 
ATOM     34  C   UNL     1      18.532  23.500 -33.506  1.00  0.00     0.032 C 
ATOM     35  C   UNL     1      17.812  22.274 -34.019  1.00  0.00     0.023 C 
BRANCH  35  36
ATOM     36  C   UNL     1      17.640  21.341 -32.890  1.00  0.00    -0.037 A 
ATOM     37  C   UNL     1      17.872  19.993 -33.176  1.00  0.00     0.004 A 
ATOM     38  C   UNL     1      17.281  21.654 -31.619  1.00  0.00     0.004 A 
ATOM     39  C   UNL     1      17.744  19.015 -32.214  1.00  0.00     0.000 A 
ATOM     40  C   UNL     1      17.148  20.690 -30.645  1.00  0.00     0.000 A 
ATOM     41  C   UNL     1      17.378  19.341 -30.920  1.00  0.00     0.000 A 
ENDBRANCH  35  36
BRANCH  35  42
ATOM     42  C   UNL     1      16.410  22.623 -34.447  1.00  0.00    -0.037 A 
ATOM     43  C   UNL     1      15.689  21.604 -35.042  1.00  0.00     0.004 A 
ATOM     44  C   UNL     1      15.851  23.855 -34.278  1.00  0.00     0.004 A 
ATOM     45  C   UNL     1      14.393  21.767 -35.488  1.00  0.00     0.000 A 
ATOM     46  C   UNL     1      14.556  24.052 -34.714  1.00  0.00     0.000 A 
ATOM     47  C   UNL     1      13.839  23.029 -35.307  1.00  0.00     0.000 A 
ENDBRANCH  35  42
ENDBRANCH  29  30
ENDBRANCH  28  29
ENDBRANCH  27  28
ENDBRANCH   1  27
TORSDOF 12
ENDMDL
MODEL 2
REMARK VINA RESULT:      -6.5      3.320      8.774
REMARK SMILES COC(=O)C1=C(C)[NH2+]C(C)=C(C(=O)OCCCN2CCC(c3ccccc3)(c3ccccc3)CC2)C1c1cccc([N+](=O)[O-])c1
REMARK SMILES IDX 14 1 12 2 13 3 11 4 5 5 6 6 36 7 8 8 9 9 7 10 10 13 3 14
REMARK SMILES IDX 4 15 2 16 1 17 37 18 38 19 45 20 39 21 41 22 40 23 42 24
REMARK SMILES IDX 43 25 44 26 15 27 16 28 17 29 18 30 19 31 35 32 20 33 34 34
REMARK SMILES IDX 21 35 22 36 23 37 27 38 24 39 26 40 25 41 28 42 29 43 33 44
REMARK SMILES IDX 30 45 32 46 31 47
REMARK H PARENT 8 11 8 12
ROOT
ATOM      1  O   UNL     1      23.139  21.953 -33.141  1.00  0.00    -0.462 OA
ENDROOT
BRANCH   1   2
ATOM      2  C   UNL     1      22.473  21.635 -31.978  1.00  0.00     0.340 C 
ATOM      3  O   UNL     1      22.852  22.312 -30.968  1.00  0.00    -0.246 OA
BRANCH   2   4
ATOM      4  C   UNL     1      21.460  20.665 -31.790  1.00  0.00     0.106 C 
ATOM      5  C   UNL     1      20.187  19.810 -30.076  1.00  0.00     0.106 C 
ATOM      6  C   UNL     1      19.091  19.779 -30.887  1.00  0.00     0.119 C 
ATOM      7  C   UNL     1      21.410  19.523 -30.826  1.00  0.00     0.106 C 
ATOM      8  N   UNL     1      19.332  19.674 -32.335  1.00  0.00    -0.288 N 
ATOM      9  C   UNL     1      20.354  20.680 -32.576  1.00  0.00     0.119 C 
ATOM     10  C   UNL     1      17.744  19.996 -30.363  1.00  0.00     0.112 C 
ATOM     11  H   UNL     1      18.440  19.989 -32.787  1.00  0.00     0.357 HD
ATOM     12  H   UNL     1      19.615  18.746 -32.552  1.00  0.00     0.357 HD
ATOM     13  C   UNL     1      20.139  21.665 -33.651  1.00  0.00     0.112 C 
BRANCH   5  14
ATOM     14  C   UNL     1      19.992  20.078 -28.686  1.00  0.00     0.340 C 
ATOM     15  O   UNL     1      19.782  19.129 -27.844  1.00  0.00    -0.246 OA
BRANCH  14  16
ATOM     16  O   UNL     1      19.996  21.371 -28.131  1.00  0.00    -0.465 OA
ATOM     17  C   UNL     1      20.008  21.557 -26.730  1.00  0.00     0.282 C 
ENDBRANCH  14  16
ENDBRANCH   5  14
BRANCH   7  18
ATOM     18  C   UNL     1      22.602  18.994 -30.293  1.00  0.00    -0.028 A 
ATOM     19  C   UNL     1      23.575  18.548 -31.191  1.00  0.00     0.005 A 
ATOM     20  C   UNL     1      22.885  18.841 -28.968  1.00  0.00     0.090 A 
ATOM     21  C   UNL     1      24.746  17.997 -30.735  1.00  0.00     0.007 A 
ATOM     22  C   UNL     1      24.080  18.278 -28.489  1.00  0.00     0.269 A 
ATOM     23  C   UNL     1      25.021  17.852 -29.392  1.00  0.00     0.085 A 
BRANCH  22  24
ATOM     24  N   UNL     1      24.341  18.135 -27.104  1.00  0.00     0.062 N 
ATOM     25  O   UNL     1      24.003  18.978 -26.253  1.00  0.00    -0.258 OA
ATOM     26  O   UNL     1      24.998  17.017 -26.665  1.00  0.00    -0.258 OA
ENDBRANCH  22  24
ENDBRANCH   7  18
ENDBRANCH   2   4
ENDBRANCH   1   2
BRANCH   1  27
ATOM     27  C   UNL     1      24.298  21.295 -33.619  1.00  0.00     0.234 C 
BRANCH  27  28
ATOM     28  C   UNL     1      23.999  20.218 -34.594  1.00  0.00     0.057 C 
BRANCH  28  29
ATOM     29  C   UNL     1      25.116  19.829 -35.522  1.00  0.00     0.088 C 
BRANCH  29  30
ATOM     30  N   UNL     1      26.323  19.409 -34.973  1.00  0.00    -0.303 NA
ATOM     31  C   UNL     1      27.529  19.486 -35.677  1.00  0.00     0.086 C 
ATOM     32  C   UNL     1      26.353  18.473 -33.921  1.00  0.00     0.086 C 
ATOM     33  C   UNL     1      28.611  20.072 -34.789  1.00  0.00     0.032 C 
ATOM     34  C   UNL     1      27.778  18.095 -33.554  1.00  0.00     0.032 C 
ATOM     35  C   UNL     1      28.602  19.359 -33.481  1.00  0.00     0.023 C 
BRANCH  35  36
ATOM     36  C   UNL     1      28.111  20.158 -32.344  1.00  0.00    -0.037 A 
ATOM     37  C   UNL     1      27.915  21.519 -32.598  1.00  0.00     0.004 A 
ATOM     38  C   UNL     1      27.835  19.714 -31.091  1.00  0.00     0.004 A 
ATOM     39  C   UNL     1      27.462  22.381 -31.622  1.00  0.00     0.000 A 
ATOM     40  C   UNL     1      27.382  20.561 -30.105  1.00  0.00     0.000 A 
ATOM     41  C   UNL     1      27.183  21.921 -30.347  1.00  0.00     0.000 A 
ENDBRANCH  35  36
BRANCH  35  42
ATOM     42  C   UNL     1      30.034  19.039 -33.137  1.00  0.00    -0.037 A 
ATOM     43  C   UNL     1      30.316  17.705 -32.905  1.00  0.00     0.004 A 
ATOM     44  C   UNL     1      31.019  19.977 -33.049  1.00  0.00     0.004 A 
ATOM     45  C   UNL     1      31.579  17.254 -32.579  1.00  0.00     0.000 A 
ATOM     46  C   UNL     1      32.295  19.560 -32.725  1.00  0.00     0.000 A 
ATOM     47  C   UNL     1      32.571  18.224 -32.494  1.00  0.00     0.000 A 
ENDBRANCH  35  42
ENDBRANCH  29  30
ENDBRANCH  28  29
ENDBRANCH  27  28
ENDBRANCH   1  27
TORSDOF 12
ENDMDL
MODEL 3
REMARK VINA RESULT:      -6.4      2.031      3.991
REMARK SMILES COC(=O)C1=C(C)[NH2+]C(C)=C(C(=O)OCCCN2CCC(c3ccccc3)(c3ccccc3)CC2)C1c1cccc([N+](=O)[O-])c1
REMARK SMILES IDX 14 1 12 2 13 3 11 4 5 5 6 6 36 7 8 8 9 9 7 10 10 13 3 14
REMARK SMILES IDX 4 15 2 16 1 17 37 18 38 19 45 20 39 21 41 22 40 23 42 24
REMARK SMILES IDX 43 25 44 26 15 27 16 28 17 29 18 30 19 31 35 32 20 33 34 34
REMARK SMILES IDX 21 35 22 36 23 37 27 38 24 39 26 40 25 41 28 42 29 43 33 44
REMARK SMILES IDX 30 45 32 46 31 47
REMARK H PARENT 8 11 8 12
ROOT
ATOM      1  O   UNL     1      22.165  20.438 -31.982  1.00  0.00    -0.462 OA
ENDROOT
BRANCH   1   2
ATOM      2  C   UNL     1      23.297  19.654 -32.030  1.00  0.00     0.340 C 
ATOM      3  O   UNL     1      23.071  18.449 -32.373  1.00  0.00    -0.246 OA
BRANCH   2   4
ATOM      4  C   UNL     1      24.630  20.028 -31.739  1.00  0.00     0.106 C 
ATOM      5  C   UNL     1      26.647  19.016 -31.294  1.00  0.00     0.106 C 
ATOM      6  C   UNL     1      27.295  19.943 -32.057  1.00  0.00     0.119 C 
ATOM      7  C   UNL     1      25.504  19.608 -30.600  1.00  0.00     0.106 C 
ATOM      8  N   UNL     1      26.650  21.257 -32.208  1.00  0.00    -0.288 N 
ATOM      9  C   UNL     1      25.274  20.916 -32.537  1.00  0.00     0.119 C 
ATOM     10  C   UNL     1      28.496  19.604 -32.818  1.00  0.00     0.112 C 
ATOM     11  H   UNL     1      27.098  21.689 -33.051  1.00  0.00     0.357 HD
ATOM     12  H   UNL     1      26.750  21.769 -31.362  1.00  0.00     0.357 HD
ATOM     13  C   UNL     1      24.653  21.540 -33.718  1.00  0.00     0.112 C 
BRANCH   5  14
ATOM     14  C   UNL     1      27.164  17.685 -31.265  1.00  0.00     0.340 C 
ATOM     15  O   UNL     1      26.658  16.755 -31.994  1.00  0.00    -0.246 OA
BRANCH  14  16
ATOM     16  O   UNL     1      28.235  17.279 -30.447  1.00  0.00    -0.465 OA
ATOM     17  C   UNL     1      29.314  16.540 -30.981  1.00  0.00     0.282 C 
ENDBRANCH  14  16
ENDBRANCH   5  14
BRANCH   7  18
ATOM     18  C   UNL     1      24.928  19.136 -29.403  1.00  0.00    -0.028 A 
ATOM     19  C   UNL     1      24.065  19.992 -28.714  1.00  0.00     0.005 A 
ATOM     20  C   UNL     1      25.165  17.923 -28.828  1.00  0.00     0.090 A 
ATOM     21  C   UNL     1      23.495  19.602 -27.529  1.00  0.00     0.007 A 
ATOM     22  C   UNL     1      24.587  17.513 -27.614  1.00  0.00     0.269 A 
ATOM     23  C   UNL     1      23.739  18.371 -26.961  1.00  0.00     0.085 A 
BRANCH  22  24
ATOM     24  N   UNL     1      24.856  16.244 -27.046  1.00  0.00     0.062 N 
ATOM     25  O   UNL     1      25.673  16.065 -26.125  1.00  0.00    -0.258 OA
ATOM     26  O   UNL     1      24.188  15.148 -27.524  1.00  0.00    -0.258 OA
ENDBRANCH  22  24
ENDBRANCH   7  18
ENDBRANCH   2   4
ENDBRANCH   1   2
BRANCH   1  27
ATOM     27  C   UNL     1      21.438  20.744 -30.805  1.00  0.00     0.234 C 
BRANCH  27  28
ATOM     28  C   UNL     1      20.808  19.554 -30.183  1.00  0.00     0.057 C 
BRANCH  28  29
ATOM     29  C   UNL     1      19.343  19.665 -29.864  1.00  0.00     0.088 C 
BRANCH  29  30
ATOM     30  N   UNL     1      18.466  20.041 -30.877  1.00  0.00    -0.303 NA
ATOM     31  C   UNL     1      17.274  20.722 -30.617  1.00  0.00     0.086 C 
ATOM     32  C   UNL     1      18.465  19.373 -32.117  1.00  0.00     0.086 C 
ATOM     33  C   UNL     1      17.119  21.885 -31.580  1.00  0.00     0.032 C 
ATOM     34  C   UNL     1      17.362  19.890 -33.025  1.00  0.00     0.032 C 
ATOM     35  C   UNL     1      17.366  21.399 -32.966  1.00  0.00     0.023 C 
BRANCH  35  36
ATOM     36  C   UNL     1      18.621  21.877 -33.575  1.00  0.00    -0.037 A 
ATOM     37  C   UNL     1      18.939  21.330 -34.821  1.00  0.00     0.004 A 
ATOM     38  C   UNL     1      19.490  22.780 -33.054  1.00  0.00     0.004 A 
ATOM     39  C   UNL     1      20.084  21.686 -35.499  1.00  0.00     0.000 A 
ATOM     40  C   UNL     1      20.638  23.148 -33.717  1.00  0.00     0.000 A 
ATOM     41  C   UNL     1      20.965  22.608 -34.962  1.00  0.00     0.000 A 
ENDBRANCH  35  36
BRANCH  35  42
ATOM     42  C   UNL     1      16.275  21.967 -33.839  1.00  0.00    -0.037 A 
ATOM     43  C   UNL     1      16.103  23.338 -33.775  1.00  0.00     0.004 A 
ATOM     44  C   UNL     1      15.485  21.210 -34.652  1.00  0.00     0.004 A 
ATOM     45  C   UNL     1      15.147  24.006 -34.513  1.00  0.00     0.000 A 
ATOM     46  C   UNL     1      14.518  21.846 -35.403  1.00  0.00     0.000 A 
ATOM     47  C   UNL     1      14.351  23.218 -35.337  1.00  0.00     0.000 A 
ENDBRANCH  35  42
ENDBRANCH  29  30
ENDBRANCH  28  29
ENDBRANCH  27  28
ENDBRANCH   1  27
TORSDOF 12
ENDMDL
MODEL 4
REMARK VINA RESULT:      -6.3      3.181      9.231
REMARK SMILES COC(=O)C1=C(C)[NH2+]C(C)=C(C(=O)OCCCN2CCC(c3ccccc3)(c3ccccc3)CC2)C1c1cccc([N+](=O)[O-])c1
REMARK SMILES IDX 14 1 12 2 13 3 11 4 5 5 6 6 36 7 8 8 9 9 7 10 10 13 3 14
REMARK SMILES IDX 4 15 2 16 1 17 37 18 38 19 45 20 39 21 41 22 40 23 42 24
REMARK SMILES IDX 43 25 44 26 15 27 16 28 17 29 18 30 19 31 35 32 20 33 34 34
REMARK SMILES IDX 21 35 22 36 23 37 27 38 24 39 26 40 25 41 28 42 29 43 33 44
REMARK SMILES IDX 30 45 32 46 31 47
REMARK H PARENT 8 11 8 12
ROOT
ATOM      1  O   UNL     1      23.887  23.304 -31.569  1.00  0.00    -0.462 OA
ENDROOT
BRANCH   1   2
ATOM      2  C   UNL     1      22.597  23.303 -32.049  1.00  0.00     0.340 C 
ATOM      3  O   UNL     1      21.914  24.316 -31.687  1.00  0.00    -0.246 OA
BRANCH   2   4
ATOM      4  C   UNL     1      21.969  22.330 -32.861  1.00  0.00     0.106 C 
ATOM      5  C   UNL     1      19.871  21.442 -33.180  1.00  0.00     0.106 C 
ATOM      6  C   UNL     1      20.069  21.425 -34.529  1.00  0.00     0.119 C 
ATOM      7  C   UNL     1      21.114  21.170 -32.459  1.00  0.00     0.106 C 
ATOM      8  N   UNL     1      21.460  21.346 -35.002  1.00  0.00    -0.288 N 
ATOM      9  C   UNL     1      22.139  22.358 -34.207  1.00  0.00     0.119 C 
ATOM     10  C   UNL     1      18.966  21.631 -35.468  1.00  0.00     0.112 C 
ATOM     11  H   UNL     1      21.431  21.669 -35.999  1.00  0.00     0.357 HD
ATOM     12  H   UNL     1      21.801  20.423 -34.862  1.00  0.00     0.357 HD
ATOM     13  C   UNL     1      22.967  23.362 -34.897  1.00  0.00     0.112 C 
BRANCH   5  14
ATOM     14  C   UNL     1      18.549  21.684 -32.694  1.00  0.00     0.340 C 
ATOM     15  O   UNL     1      18.146  22.872 -32.414  1.00  0.00    -0.246 OA
BRANCH  14  16
ATOM     16  O   UNL     1      17.600  20.669 -32.470  1.00  0.00    -0.465 OA
ATOM     17  C   UNL     1      17.979  19.308 -32.484  1.00  0.00     0.282 C 
ENDBRANCH  14  16
ENDBRANCH   5  14
BRANCH   7  18
ATOM     18  C   UNL     1      21.217  20.632 -31.160  1.00  0.00    -0.028 A 
ATOM     19  C   UNL     1      22.026  19.507 -30.984  1.00  0.00     0.005 A 
ATOM     20  C   UNL     1      20.564  21.090 -30.054  1.00  0.00     0.090 A 
ATOM     21  C   UNL     1      22.145  18.920 -29.750  1.00  0.00     0.007 A 
ATOM     22  C   UNL     1      20.678  20.496 -28.785  1.00  0.00     0.269 A 
ATOM     23  C   UNL     1      21.483  19.395 -28.638  1.00  0.00     0.085 A 
BRANCH  22  24
ATOM     24  N   UNL     1      19.986  20.999 -27.656  1.00  0.00     0.062 N 
ATOM     25  O   UNL     1      19.169  21.936 -27.715  1.00  0.00    -0.258 OA
ATOM     26  O   UNL     1      20.216  20.433 -26.431  1.00  0.00    -0.258 OA
ENDBRANCH  22  24
ENDBRANCH   7  18
ENDBRANCH   2   4
ENDBRANCH   1   2
BRANCH   1  27
ATOM     27  C   UNL     1      24.765  22.193 -31.598  1.00  0.00     0.234 C 
BRANCH  27  28
ATOM     28  C   UNL     1      25.938  22.398 -32.481  1.00  0.00     0.057 C 
BRANCH  28  29
ATOM     29  C   UNL     1      26.110  21.411 -33.603  1.00  0.00     0.088 C 
BRANCH  29  30
ATOM     30  N   UNL     1      27.000  20.356 -33.432  1.00  0.00    -0.303 NA
ATOM     31  C   UNL     1      28.351  20.560 -33.138  1.00  0.00     0.086 C 
ATOM     32  C   UNL     1      26.739  19.091 -33.994  1.00  0.00     0.086 C 
ATOM     33  C   UNL     1      28.783  19.640 -32.012  1.00  0.00     0.032 C 
ATOM     34  C   UNL     1      27.892  18.129 -33.759  1.00  0.00     0.032 C 
ATOM     35  C   UNL     1      28.329  18.254 -32.319  1.00  0.00     0.023 C 
BRANCH  35  36
ATOM     36  C   UNL     1      27.235  17.758 -31.465  1.00  0.00    -0.037 A 
ATOM     37  C   UNL     1      26.529  16.658 -31.960  1.00  0.00     0.004 A 
ATOM     38  C   UNL     1      26.845  18.255 -30.264  1.00  0.00     0.004 A 
ATOM     39  C   UNL     1      25.480  16.095 -31.265  1.00  0.00     0.000 A 
ATOM     40  C   UNL     1      25.800  17.707 -29.555  1.00  0.00     0.000 A 
ATOM     41  C   UNL     1      25.089  16.608 -30.040  1.00  0.00     0.000 A 
ENDBRANCH  35  36
BRANCH  35  42
ATOM     42  C   UNL     1      29.487  17.332 -32.035  1.00  0.00    -0.037 A 
ATOM     43  C   UNL     1      30.632  17.554 -32.779  1.00  0.00     0.004 A 
ATOM     44  C   UNL     1      29.448  16.330 -31.112  1.00  0.00     0.004 A 
ATOM     45  C   UNL     1      31.775  16.794 -32.634  1.00  0.00     0.000 A 
ATOM     46  C   UNL     1      30.575  15.550 -30.943  1.00  0.00     0.000 A 
ATOM     47  C   UNL     1      31.718  15.777 -31.689  1.00  0.00     0.000 A 
ENDBRANCH  35  42
ENDBRANCH  29  30
ENDBRANCH  28  29
ENDBRANCH  27  28
ENDBRANCH   1  27
TORSDOF 12
ENDMDL
MODEL 5
REMARK VINA RESULT:      -6.3      2.373      5.226
REMARK SMILES COC(=O)C1=C(C)[NH2+]C(C)=C(C(=O)OCCCN2CCC(c3ccccc3)(c3ccccc3)CC2)C1c1cccc([N+](=O)[O-])c1
REMARK SMILES IDX 14 1 12 2 13 3 11 4 5 5 6 6 36 7 8 8 9 9 7 10 10 13 3 14
REMARK SMILES IDX 4 15 2 16 1 17 37 18 38 19 45 20 39 21 41 22 40 23 42 24
REMARK SMILES IDX 43 25 44 26 15 27 16 28 17 29 18 30 19 31 35 32 20 33 34 34
REMARK SMILES IDX 21 35 22 36 23 37 27 38 24 39 26 40 25 41 28 42 29 43 33 44
REMARK SMILES IDX 30 45 32 46 31 47
REMARK H PARENT 8 11 8 12
ROOT
ATOM      1  O   UNL     1      24.362  20.568 -29.094  1.00  0.00    -0.462 OA
ENDROOT
BRANCH   1   2
ATOM      2  C   UNL     1      23.795  19.350 -29.398  1.00  0.00     0.340 C 
ATOM      3  O   UNL     1      22.747  19.090 -28.722  1.00  0.00    -0.246 OA
BRANCH   2   4
ATOM      4  C   UNL     1      24.239  18.390 -30.338  1.00  0.00     0.106 C 
ATOM      5  C   UNL     1      25.539  18.305 -32.234  1.00  0.00     0.106 C 
ATOM      6  C   UNL     1      26.086  17.126 -31.821  1.00  0.00     0.119 C 
ATOM      7  C   UNL     1      24.137  18.408 -31.830  1.00  0.00     0.106 C 
ATOM      8  N   UNL     1      25.281  16.294 -30.913  1.00  0.00    -0.288 N 
ATOM      9  C   UNL     1      24.825  17.244 -29.909  1.00  0.00     0.119 C 
ATOM     10  C   UNL     1      27.469  16.771 -32.139  1.00  0.00     0.112 C 
ATOM     11  H   UNL     1      25.963  15.636 -30.464  1.00  0.00     0.357 HD
ATOM     12  H   UNL     1      24.548  15.864 -31.428  1.00  0.00     0.357 HD
ATOM     13  C   UNL     1      25.026  16.922 -28.486  1.00  0.00     0.112 C 
BRANCH   5  14
ATOM     14  C   UNL     1      26.359  19.207 -32.979  1.00  0.00     0.340 C 
ATOM     15  O   UNL     1      26.542  19.057 -34.242  1.00  0.00    -0.246 OA
BRANCH  14  16
ATOM     16  O   UNL     1      27.034  20.304 -32.409  1.00  0.00    -0.465 OA
ATOM     17  C   UNL     1      27.575  21.323 -33.224  1.00  0.00     0.282 C 
ENDBRANCH  14  16
ENDBRANCH   5  14
BRANCH   7  18
ATOM     18  C   UNL     1      23.149  19.190 -32.462  1.00  0.00    -0.028 A 
ATOM     19  C   UNL     1      21.849  19.132 -31.953  1.00  0.00     0.005 A 
ATOM     20  C   UNL     1      23.337  19.978 -33.558  1.00  0.00     0.090 A 
ATOM     21  C   UNL     1      20.837  19.848 -32.541  1.00  0.00     0.007 A 
ATOM     22  C   UNL     1      22.308  20.715 -34.170  1.00  0.00     0.269 A 
ATOM     23  C   UNL     1      21.041  20.645 -33.647  1.00  0.00     0.085 A 
BRANCH  22  24
ATOM     24  N   UNL     1      22.539  21.525 -35.308  1.00  0.00     0.062 N 
ATOM     25  O   UNL     1      21.710  22.345 -35.745  1.00  0.00    -0.258 OA
ATOM     26  O   UNL     1      23.730  21.411 -35.973  1.00  0.00    -0.258 OA
ENDBRANCH  22  24
ENDBRANCH   7  18
ENDBRANCH   2   4
ENDBRANCH   1   2
BRANCH   1  27
ATOM     27  C   UNL     1      24.542  21.632 -30.012  1.00  0.00     0.234 C 
BRANCH  27  28
ATOM     28  C   UNL     1      23.516  22.695 -29.881  1.00  0.00     0.057 C 
BRANCH  28  29
ATOM     29  C   UNL     1      22.275  22.532 -30.715  1.00  0.00     0.088 C 
BRANCH  29  30
ATOM     30  N   UNL     1      21.040  22.798 -30.133  1.00  0.00    -0.303 NA
ATOM     31  C   UNL     1      20.491  24.083 -30.104  1.00  0.00     0.086 C 
ATOM     32  C   UNL     1      20.505  21.943 -29.149  1.00  0.00     0.086 C 
ATOM     33  C   UNL     1      19.032  24.033 -30.517  1.00  0.00     0.032 C 
ATOM     34  C   UNL     1      19.200  22.486 -28.591  1.00  0.00     0.032 C 
ATOM     35  C   UNL     1      18.348  22.956 -29.747  1.00  0.00     0.023 C 
BRANCH  35  36
ATOM     36  C   UNL     1      17.965  21.775 -30.542  1.00  0.00    -0.037 A 
ATOM     37  C   UNL     1      17.786  21.996 -31.910  1.00  0.00     0.004 A 
ATOM     38  C   UNL     1      17.769  20.512 -30.086  1.00  0.00     0.004 A 
ATOM     39  C   UNL     1      17.425  20.980 -32.768  1.00  0.00     0.000 A 
ATOM     40  C   UNL     1      17.408  19.485 -30.928  1.00  0.00     0.000 A 
ATOM     41  C   UNL     1      17.226  19.694 -32.296  1.00  0.00     0.000 A 
ENDBRANCH  35  36
BRANCH  35  42
ATOM     42  C   UNL     1      17.044  23.524 -29.247  1.00  0.00    -0.037 A 
ATOM     43  C   UNL     1      16.353  24.323 -30.140  1.00  0.00     0.004 A 
ATOM     44  C   UNL     1      16.544  23.289 -28.001  1.00  0.00     0.004 A 
ATOM     45  C   UNL     1      15.145  24.915 -29.831  1.00  0.00     0.000 A 
ATOM     46  C   UNL     1      15.337  23.867 -27.660  1.00  0.00     0.000 A 
ATOM     47  C   UNL     1      14.649  24.664 -28.556  1.00  0.00     0.000 A 
ENDBRANCH  35  42
ENDBRANCH  29  30
ENDBRANCH  28  29
ENDBRANCH  27  28
ENDBRANCH   1  27
TORSDOF 12
ENDMDL
MODEL 6
REMARK VINA RESULT:      -6.2      2.855      5.038
REMARK SMILES COC(=O)C1=C(C)[NH2+]C(C)=C(C(=O)OCCCN2CCC(c3ccccc3)(c3ccccc3)CC2)C1c1cccc([N+](=O)[O-])c1
REMARK SMILES IDX 14 1 12 2 13 3 11 4 5 5 6 6 36 7 8 8 9 9 7 10 10 13 3 14
REMARK SMILES IDX 4 15 2 16 1 17 37 18 38 19 45 20 39 21 41 22 40 23 42 24
REMARK SMILES IDX 43 25 44 26 15 27 16 28 17 29 18 30 19 31 35 32 20 33 34 34
REMARK SMILES IDX 21 35 22 36 23 37 27 38 24 39 26 40 25 41 28 42 29 43 33 44
REMARK SMILES IDX 30 45 32 46 31 47
REMARK H PARENT 8 11 8 12
ROOT
ATOM      1  O   UNL     1      23.977  20.092 -33.061  1.00  0.00    -0.462 OA
ENDROOT
BRANCH   1   2
ATOM      2  C   UNL     1      25.304  20.044 -33.428  1.00  0.00     0.340 C 
ATOM      3  O   UNL     1      25.487  19.732 -34.649  1.00  0.00    -0.246 OA
BRANCH   2   4
ATOM      4  C   UNL     1      26.441  20.284 -32.621  1.00  0.00     0.106 C 
ATOM      5  C   UNL     1      28.493  19.331 -32.204  1.00  0.00     0.106 C 
ATOM      6  C   UNL     1      29.072  20.565 -32.163  1.00  0.00     0.119 C 
ATOM      7  C   UNL     1      27.134  19.366 -31.664  1.00  0.00     0.106 C 
ATOM      8  N   UNL     1      28.209  21.699 -31.796  1.00  0.00    -0.288 N 
ATOM      9  C   UNL     1      27.032  21.505 -32.629  1.00  0.00     0.119 C 
ATOM     10  C   UNL     1      30.447  20.781 -32.611  1.00  0.00     0.112 C 
ATOM     11  H   UNL     1      28.718  22.552 -32.130  1.00  0.00     0.357 HD
ATOM     12  H   UNL     1      28.025  21.667 -30.820  1.00  0.00     0.357 HD
ATOM     13  C   UNL     1      26.547  22.633 -33.443  1.00  0.00     0.112 C 
BRANCH   5  14
ATOM     14  C   UNL     1      29.261  18.241 -32.716  1.00  0.00     0.340 C 
ATOM     15  O   UNL     1      29.225  17.923 -33.961  1.00  0.00    -0.246 OA
BRANCH  14  16
ATOM     16  O   UNL     1      30.093  17.429 -31.921  1.00  0.00    -0.465 OA
ATOM     17  C   UNL     1      29.541  16.496 -31.015  1.00  0.00     0.282 C 
ENDBRANCH  14  16
ENDBRANCH   5  14
BRANCH   7  18
ATOM     18  C   UNL     1      26.440  18.276 -31.100  1.00  0.00    -0.028 A 
ATOM     19  C   UNL     1      26.167  17.182 -31.924  1.00  0.00     0.005 A 
ATOM     20  C   UNL     1      25.972  18.204 -29.822  1.00  0.00     0.090 A 
ATOM     21  C   UNL     1      25.471  16.102 -31.444  1.00  0.00     0.007 A 
ATOM     22  C   UNL     1      25.256  17.104 -29.318  1.00  0.00     0.269 A 
ATOM     23  C   UNL     1      25.007  16.040 -30.147  1.00  0.00     0.085 A 
BRANCH  22  24
ATOM     24  N   UNL     1      24.785  17.063 -27.983  1.00  0.00     0.062 N 
ATOM     25  O   UNL     1      25.424  16.548 -27.047  1.00  0.00    -0.258 OA
ATOM     26  O   UNL     1      23.566  17.614 -27.693  1.00  0.00    -0.258 OA
ENDBRANCH  22  24
ENDBRANCH   7  18
ENDBRANCH   2   4
ENDBRANCH   1   2
BRANCH   1  27
ATOM     27  C   UNL     1      23.475  20.758 -31.917  1.00  0.00     0.234 C 
BRANCH  27  28
ATOM     28  C   UNL     1      22.974  19.830 -30.874  1.00  0.00     0.057 C 
BRANCH  28  29
ATOM     29  C   UNL     1      22.724  20.425 -29.516  1.00  0.00     0.088 C 
BRANCH  29  30
ATOM     30  N   UNL     1      21.504  21.050 -29.275  1.00  0.00    -0.303 NA
ATOM     31  C   UNL     1      21.366  22.440 -29.274  1.00  0.00     0.086 C 
ATOM     32  C   UNL     1      20.480  20.389 -28.568  1.00  0.00     0.086 C 
ATOM     33  C   UNL     1      20.143  22.841 -30.078  1.00  0.00     0.032 C 
ATOM     34  C   UNL     1      19.284  21.298 -28.343  1.00  0.00     0.032 C 
ATOM     35  C   UNL     1      18.983  22.017 -29.638  1.00  0.00     0.023 C 
BRANCH  35  36
ATOM     36  C   UNL     1      18.527  21.016 -30.620  1.00  0.00    -0.037 A 
ATOM     37  C   UNL     1      19.187  21.030 -31.852  1.00  0.00     0.004 A 
ATOM     38  C   UNL     1      17.543  20.097 -30.453  1.00  0.00     0.004 A 
ATOM     39  C   UNL     1      18.859  20.150 -32.861  1.00  0.00     0.000 A 
ATOM     40  C   UNL     1      17.201  19.211 -31.450  1.00  0.00     0.000 A 
ATOM     41  C   UNL     1      17.854  19.216 -32.684  1.00  0.00     0.000 A 
ENDBRANCH  35  36
BRANCH  35  42
ATOM     42  C   UNL     1      17.812  22.950 -29.466  1.00  0.00    -0.037 A 
ATOM     43  C   UNL     1      17.297  23.043 -28.186  1.00  0.00     0.004 A 
ATOM     44  C   UNL     1      17.264  23.673 -30.484  1.00  0.00     0.004 A 
ATOM     45  C   UNL     1      16.226  23.854 -27.869  1.00  0.00     0.000 A 
ATOM     46  C   UNL     1      16.191  24.494 -30.201  1.00  0.00     0.000 A 
ATOM     47  C   UNL     1      15.680  24.584 -28.919  1.00  0.00     0.000 A 
ENDBRANCH  35  42
ENDBRANCH  29  30
ENDBRANCH  28  29
ENDBRANCH  27  28
ENDBRANCH   1  27
TORSDOF 12
ENDMDL
MODEL 7
REMARK VINA RESULT:      -6.2      3.072      9.038
REMARK SMILES COC(=O)C1=C(C)[NH2+]C(C)=C(C(=O)OCCCN2CCC(c3ccccc3)(c3ccccc3)CC2)C1c1cccc([N+](=O)[O-])c1
REMARK SMILES IDX 14 1 12 2 13 3 11 4 5 5 6 6 36 7 8 8 9 9 7 10 10 13 3 14
REMARK SMILES IDX 4 15 2 16 1 17 37 18 38 19 45 20 39 21 41 22 40 23 42 24
REMARK SMILES IDX 43 25 44 26 15 27 16 28 17 29 18 30 19 31 35 32 20 33 34 34
REMARK SMILES IDX 21 35 22 36 23 37 27 38 24 39 26 40 25 41 28 42 29 43 33 44
REMARK SMILES IDX 30 45 32 46 31 47
REMARK H PARENT 8 11 8 12
ROOT
ATOM      1  O   UNL     1      22.575  23.489 -34.226  1.00  0.00    -0.462 OA
ENDROOT
BRANCH   1   2
ATOM      2  C   UNL     1      21.405  23.197 -33.560  1.00  0.00     0.340 C 
ATOM      3  O   UNL     1      21.236  23.878 -32.497  1.00  0.00    -0.246 OA
BRANCH   2   4
ATOM      4  C   UNL     1      20.415  22.250 -33.912  1.00  0.00     0.106 C 
ATOM      5  C   UNL     1      18.709  21.082 -32.902  1.00  0.00     0.106 C 
ATOM      6  C   UNL     1      17.914  21.275 -33.994  1.00  0.00     0.119 C 
ATOM      7  C   UNL     1      20.111  20.924 -33.290  1.00  0.00     0.106 C 
ATOM      8  N   UNL     1      18.587  21.486 -35.285  1.00  0.00    -0.288 N 
ATOM      9  C   UNL     1      19.601  22.481 -34.972  1.00  0.00     0.119 C 
ATOM     10  C   UNL     1      16.464  21.421 -33.869  1.00  0.00     0.112 C 
ATOM     11  H   UNL     1      17.865  21.928 -35.903  1.00  0.00     0.357 HD
ATOM     12  H   UNL     1      18.953  20.621 -35.608  1.00  0.00     0.357 HD
ATOM     13  C   UNL     1      19.691  23.689 -35.812  1.00  0.00     0.112 C 
BRANCH   5  14
ATOM     14  C   UNL     1      18.091  21.041 -31.615  1.00  0.00     0.340 C 
ATOM     15  O   UNL     1      17.387  20.031 -31.242  1.00  0.00    -0.246 OA
BRANCH  14  16
ATOM     16  O   UNL     1      18.183  22.079 -30.669  1.00  0.00    -0.465 OA
ATOM     17  C   UNL     1      17.022  22.621 -30.074  1.00  0.00     0.282 C 
ENDBRANCH  14  16
ENDBRANCH   5  14
BRANCH   7  18
ATOM     18  C   UNL     1      21.101  20.244 -32.552  1.00  0.00    -0.028 A 
ATOM     19  C   UNL     1      22.078  19.545 -33.265  1.00  0.00     0.005 A 
ATOM     20  C   UNL     1      21.175  20.173 -31.193  1.00  0.00     0.090 A 
ATOM     21  C   UNL     1      23.053  18.840 -32.606  1.00  0.00     0.007 A 
ATOM     22  C   UNL     1      22.168  19.454 -30.506  1.00  0.00     0.269 A 
ATOM     23  C   UNL     1      23.119  18.780 -31.230  1.00  0.00     0.085 A 
BRANCH  22  24
ATOM     24  N   UNL     1      22.215  19.403 -29.091  1.00  0.00     0.062 N 
ATOM     25  O   UNL     1      21.304  18.923 -28.393  1.00  0.00    -0.258 OA
ATOM     26  O   UNL     1      23.315  19.903 -28.446  1.00  0.00    -0.258 OA
ENDBRANCH  22  24
ENDBRANCH   7  18
ENDBRANCH   2   4
ENDBRANCH   1   2
BRANCH   1  27
ATOM     27  C   UNL     1      23.836  23.672 -33.609  1.00  0.00     0.234 C 
BRANCH  27  28
ATOM     28  C   UNL     1      24.798  22.585 -33.912  1.00  0.00     0.057 C 
BRANCH  28  29
ATOM     29  C   UNL     1      25.153  21.671 -32.772  1.00  0.00     0.088 C 
BRANCH  29  30
ATOM     30  N   UNL     1      26.225  20.797 -32.927  1.00  0.00    -0.303 NA
ATOM     31  C   UNL     1      27.532  21.151 -32.580  1.00  0.00     0.086 C 
ATOM     32  C   UNL     1      26.164  19.733 -33.849  1.00  0.00     0.086 C 
ATOM     33  C   UNL     1      28.179  20.033 -31.786  1.00  0.00     0.032 C 
ATOM     34  C   UNL     1      27.480  18.978 -33.913  1.00  0.00     0.032 C 
ATOM     35  C   UNL     1      27.964  18.744 -32.502  1.00  0.00     0.023 C 
BRANCH  35  36
ATOM     36  C   UNL     1      27.023  17.820 -31.843  1.00  0.00    -0.037 A 
ATOM     37  C   UNL     1      26.791  18.055 -30.485  1.00  0.00     0.004 A 
ATOM     38  C   UNL     1      26.368  16.777 -32.413  1.00  0.00     0.004 A 
ATOM     39  C   UNL     1      25.935  17.265 -29.748  1.00  0.00     0.000 A 
ATOM     40  C   UNL     1      25.510  15.978 -31.692  1.00  0.00     0.000 A 
ATOM     41  C   UNL     1      25.271  16.203 -30.336  1.00  0.00     0.000 A 
ENDBRANCH  35  36
BRANCH  35  42
ATOM     42  C   UNL     1      29.282  18.011 -32.507  1.00  0.00    -0.037 A 
ATOM     43  C   UNL     1      30.035  18.131 -33.662  1.00  0.00     0.004 A 
ATOM     44  C   UNL     1      29.738  17.265 -31.461  1.00  0.00     0.004 A 
ATOM     45  C   UNL     1      31.262  17.520 -33.820  1.00  0.00     0.000 A 
ATOM     46  C   UNL     1      30.962  16.640 -31.587  1.00  0.00     0.000 A 
ATOM     47  C   UNL     1      31.711  16.764 -32.744  1.00  0.00     0.000 A 
ENDBRANCH  35  42
ENDBRANCH  29  30
ENDBRANCH  28  29
ENDBRANCH  27  28
ENDBRANCH   1  27
TORSDOF 12
ENDMDL
MODEL 8
REMARK VINA RESULT:      -6.0      3.661      6.495
REMARK SMILES COC(=O)C1=C(C)[NH2+]C(C)=C(C(=O)OCCCN2CCC(c3ccccc3)(c3ccccc3)CC2)C1c1cccc([N+](=O)[O-])c1
REMARK SMILES IDX 14 1 12 2 13 3 11 4 5 5 6 6 36 7 8 8 9 9 7 10 10 13 3 14
REMARK SMILES IDX 4 15 2 16 1 17 37 18 38 19 45 20 39 21 41 22 40 23 42 24
REMARK SMILES IDX 43 25 44 26 15 27 16 28 17 29 18 30 19 31 35 32 20 33 34 34
REMARK SMILES IDX 21 35 22 36 23 37 27 38 24 39 26 40 25 41 28 42 29 43 33 44
REMARK SMILES IDX 30 45 32 46 31 47
REMARK H PARENT 8 11 8 12
ROOT
ATOM      1  O   UNL     1      27.967  22.073 -33.651  1.00  0.00    -0.462 OA
ENDROOT
BRANCH   1   2
ATOM      2  C   UNL     1      29.130  21.337 -33.608  1.00  0.00     0.340 C 
ATOM      3  O   UNL     1      29.825  21.538 -32.560  1.00  0.00    -0.246 OA
BRANCH   2   4
ATOM      4  C   UNL     1      29.622  20.426 -34.573  1.00  0.00     0.106 C 
ATOM      5  C   UNL     1      28.803  18.830 -36.013  1.00  0.00     0.106 C 
ATOM      6  C   UNL     1      29.673  19.240 -36.981  1.00  0.00     0.119 C 
ATOM      7  C   UNL     1      29.398  18.951 -34.682  1.00  0.00     0.106 C 
ATOM      8  N   UNL     1      30.915  19.891 -36.535  1.00  0.00    -0.288 N 
ATOM      9  C   UNL     1      30.448  20.861 -35.557  1.00  0.00     0.119 C 
ATOM     10  C   UNL     1      29.325  19.177 -38.400  1.00  0.00     0.112 C 
ATOM     11  H   UNL     1      31.271  20.408 -37.374  1.00  0.00     0.357 HD
ATOM     12  H   UNL     1      31.529  19.204 -36.165  1.00  0.00     0.357 HD
ATOM     13  C   UNL     1      30.886  22.262 -35.685  1.00  0.00     0.112 C 
BRANCH   5  14
ATOM     14  C   UNL     1      27.521  18.347 -36.417  1.00  0.00     0.340 C 
ATOM     15  O   UNL     1      27.354  17.132 -36.802  1.00  0.00    -0.246 OA
BRANCH  14  16
ATOM     16  O   UNL     1      26.359  19.141 -36.442  1.00  0.00    -0.465 OA
ATOM     17  C   UNL     1      25.661  19.364 -37.650  1.00  0.00     0.282 C 
ENDBRANCH  14  16
ENDBRANCH   5  14
BRANCH   7  18
ATOM     18  C   UNL     1      29.035  18.204 -33.543  1.00  0.00    -0.028 A 
ATOM     19  C   UNL     1      30.062  17.698 -32.743  1.00  0.00     0.005 A 
ATOM     20  C   UNL     1      27.763  17.895 -33.164  1.00  0.00     0.090 A 
ATOM     21  C   UNL     1      29.776  16.940 -31.636  1.00  0.00     0.007 A 
ATOM     22  C   UNL     1      27.457  17.118 -32.033  1.00  0.00     0.269 A 
ATOM     23  C   UNL     1      28.484  16.637 -31.262  1.00  0.00     0.085 A 
BRANCH  22  24
ATOM     24  N   UNL     1      26.122  16.816 -31.669  1.00  0.00     0.062 N 
ATOM     25  O   UNL     1      25.192  16.726 -32.490  1.00  0.00    -0.258 OA
ATOM     26  O   UNL     1      25.826  16.609 -30.348  1.00  0.00    -0.258 OA
ENDBRANCH  22  24
ENDBRANCH   7  18
ENDBRANCH   2   4
ENDBRANCH   1   2
BRANCH   1  27
ATOM     27  C   UNL     1      26.674  21.537 -33.869  1.00  0.00     0.234 C 
BRANCH  27  28
ATOM     28  C   UNL     1      25.725  21.837 -32.770  1.00  0.00     0.057 C 
BRANCH  28  29
ATOM     29  C   UNL     1      24.855  20.699 -32.310  1.00  0.00     0.088 C 
BRANCH  29  30
ATOM     30  N   UNL     1      23.483  20.779 -32.527  1.00  0.00    -0.303 NA
ATOM     31  C   UNL     1      22.848  20.076 -33.554  1.00  0.00     0.086 C 
ATOM     32  C   UNL     1      22.742  21.888 -32.073  1.00  0.00     0.086 C 
ATOM     33  C   UNL     1      21.597  19.400 -33.025  1.00  0.00     0.032 C 
ATOM     34  C   UNL     1      21.289  21.802 -32.508  1.00  0.00     0.032 C 
ATOM     35  C   UNL     1      20.800  20.395 -32.254  1.00  0.00     0.023 C 
BRANCH  35  36
ATOM     36  C   UNL     1      20.779  20.176 -30.797  1.00  0.00    -0.037 A 
ATOM     37  C   UNL     1      19.975  21.052 -30.062  1.00  0.00     0.004 A 
ATOM     38  C   UNL     1      21.453  19.223 -30.104  1.00  0.00     0.004 A 
ATOM     39  C   UNL     1      19.867  20.960 -28.691  1.00  0.00     0.000 A 
ATOM     40  C   UNL     1      21.357  19.117 -28.735  1.00  0.00     0.000 A 
ATOM     41  C   UNL     1      20.557  19.986 -27.991  1.00  0.00     0.000 A 
ENDBRANCH  35  36
BRANCH  35  42
ATOM     42  C   UNL     1      19.363  20.248 -32.686  1.00  0.00    -0.037 A 
ATOM     43  C   UNL     1      18.896  21.206 -33.567  1.00  0.00     0.004 A 
ATOM     44  C   UNL     1      18.543  19.247 -32.258  1.00  0.00     0.004 A 
ATOM     45  C   UNL     1      17.605  21.208 -34.054  1.00  0.00     0.000 A 
ATOM     46  C   UNL     1      17.244  19.219 -32.726  1.00  0.00     0.000 A 
ATOM     47  C   UNL     1      16.782  20.180 -33.607  1.00  0.00     0.000 A 
ENDBRANCH  35  42
ENDBRANCH  29  30
ENDBRANCH  28  29
ENDBRANCH  27  28
ENDBRANCH   1  27
TORSDOF 12
ENDMDL
MODEL 9
REMARK VINA RESULT:      -6.0      3.257      8.800
REMARK SMILES COC(=O)C1=C(C)[NH2+]C(C)=C(C(=O)OCCCN2CCC(c3ccccc3)(c3ccccc3)CC2)C1c1cccc([N+](=O)[O-])c1
REMARK SMILES IDX 14 1 12 2 13 3 11 4 5 5 6 6 36 7 8 8 9 9 7 10 10 13 3 14
REMARK SMILES IDX 4 15 2 16 1 17 37 18 38 19 45 20 39 21 41 22 40 23 42 24
REMARK SMILES IDX 43 25 44 26 15 27 16 28 17 29 18 30 19 31 35 32 20 33 34 34
REMARK SMILES IDX 21 35 22 36 23 37 27 38 24 39 26 40 25 41 28 42 29 43 33 44
REMARK SMILES IDX 30 45 32 46 31 47
REMARK H PARENT 8 11 8 12
ROOT
ATOM      1  O   UNL     1      22.670  23.154 -32.974  1.00  0.00    -0.462 OA
ENDROOT
BRANCH   1   2
ATOM      2  C   UNL     1      21.310  23.004 -32.824  1.00  0.00     0.340 C 
ATOM      3  O   UNL     1      20.764  23.931 -32.142  1.00  0.00    -0.246 OA
BRANCH   2   4
ATOM      4  C   UNL     1      20.487  21.965 -33.318  1.00  0.00     0.106 C 
ATOM      5  C   UNL     1      18.960  20.443 -32.515  1.00  0.00     0.106 C 
ATOM      6  C   UNL     1      18.170  20.639 -33.610  1.00  0.00     0.119 C 
ATOM      7  C   UNL     1      20.378  20.545 -32.860  1.00  0.00     0.106 C 
ATOM      8  N   UNL     1      18.832  21.097 -34.841  1.00  0.00    -0.288 N 
ATOM      9  C   UNL     1      19.672  22.191 -34.379  1.00  0.00     0.119 C 
ATOM     10  C   UNL     1      16.713  20.547 -33.529  1.00  0.00     0.112 C 
ATOM     11  H   UNL     1      18.065  21.493 -35.436  1.00  0.00     0.357 HD
ATOM     12  H   UNL     1      19.336  20.340 -35.242  1.00  0.00     0.357 HD
ATOM     13  C   UNL     1      19.593  23.488 -35.075  1.00  0.00     0.112 C 
BRANCH   5  14
ATOM     14  C   UNL     1      18.326  20.160 -31.266  1.00  0.00     0.340 C 
ATOM     15  O   UNL     1      17.730  19.040 -31.057  1.00  0.00    -0.246 OA
BRANCH  14  16
ATOM     16  O   UNL     1      18.285  21.063 -30.187  1.00  0.00    -0.465 OA
ATOM     17  C   UNL     1      17.998  22.430 -30.398  1.00  0.00     0.282 C 
ENDBRANCH  14  16
ENDBRANCH   5  14
BRANCH   7  18
ATOM     18  C   UNL     1      21.444  19.943 -32.162  1.00  0.00    -0.028 A 
ATOM     19  C   UNL     1      22.381  19.220 -32.904  1.00  0.00     0.005 A 
ATOM     20  C   UNL     1      21.629  19.968 -30.812  1.00  0.00     0.090 A 
ATOM     21  C   UNL     1      23.427  18.587 -32.281  1.00  0.00     0.007 A 
ATOM     22  C   UNL     1      22.695  19.323 -30.162  1.00  0.00     0.269 A 
ATOM     23  C   UNL     1      23.605  18.624 -30.915  1.00  0.00     0.085 A 
BRANCH  22  24
ATOM     24  N   UNL     1      22.857  19.371 -28.756  1.00  0.00     0.062 N 
ATOM     25  O   UNL     1      23.151  20.409 -28.135  1.00  0.00    -0.258 OA
ATOM     26  O   UNL     1      22.684  18.223 -28.029  1.00  0.00    -0.258 OA
ENDBRANCH  22  24
ENDBRANCH   7  18
ENDBRANCH   2   4
ENDBRANCH   1   2
BRANCH   1  27
ATOM     27  C   UNL     1      23.629  22.933 -31.955  1.00  0.00     0.234 C 
BRANCH  27  28
ATOM     28  C   UNL     1      24.848  22.242 -32.440  1.00  0.00     0.057 C 
BRANCH  28  29
ATOM     29  C   UNL     1      24.899  21.932 -33.911  1.00  0.00     0.088 C 
BRANCH  29  30
ATOM     30  N   UNL     1      25.910  21.101 -34.383  1.00  0.00    -0.303 NA
ATOM     31  C   UNL     1      27.132  21.600 -34.842  1.00  0.00     0.086 C 
ATOM     32  C   UNL     1      25.618  19.812 -34.869  1.00  0.00     0.086 C 
ATOM     33  C   UNL     1      28.276  20.795 -34.254  1.00  0.00     0.032 C 
ATOM     34  C   UNL     1      26.861  19.130 -35.418  1.00  0.00     0.032 C 
ATOM     35  C   UNL     1      27.992  19.344 -34.439  1.00  0.00     0.023 C 
BRANCH  35  36
ATOM     36  C   UNL     1      27.668  18.614 -33.201  1.00  0.00    -0.037 A 
ATOM     37  C   UNL     1      27.203  17.307 -33.370  1.00  0.00     0.004 A 
ATOM     38  C   UNL     1      27.771  19.076 -31.929  1.00  0.00     0.004 A 
ATOM     39  C   UNL     1      26.862  16.513 -32.296  1.00  0.00     0.000 A 
ATOM     40  C   UNL     1      27.434  18.298 -30.844  1.00  0.00     0.000 A 
ATOM     41  C   UNL     1      26.969  16.991 -31.002  1.00  0.00     0.000 A 
ENDBRANCH  35  36
BRANCH  35  42
ATOM     42  C   UNL     1      29.259  18.702 -34.945  1.00  0.00    -0.037 A 
ATOM     43  C   UNL     1      29.312  18.463 -36.306  1.00  0.00     0.004 A 
ATOM     44  C   UNL     1      30.307  18.363 -34.143  1.00  0.00     0.004 A 
ATOM     45  C   UNL     1      30.403  17.882 -36.920  1.00  0.00     0.000 A 
ATOM     46  C   UNL     1      31.415  17.779 -34.725  1.00  0.00     0.000 A 
ATOM     47  C   UNL     1      31.464  17.542 -36.087  1.00  0.00     0.000 A 
ENDBRANCH  35  42
ENDBRANCH  29  30
ENDBRANCH  28  29
ENDBRANCH  27  28
ENDBRANCH   1  27
TORSDOF 12
ENDMDL
