MODEL 1
REMARK VINA RESULT:      -8.6      0.000      0.000
REMARK SMILES O=C(CCC[NH+]1CCC(O)(c2ccc(Cl)cc2)CC1)c1ccc(F)cc1
REMARK SMILES IDX 4 1 3 2 2 3 1 4 20 5 21 6 26 7 22 8 25 9 23 10 24 11 5 12
REMARK SMILES IDX 6 13 7 14 19 15 8 16 18 17 9 18 10 20 11 22 12 23 17 24
REMARK SMILES IDX 13 25 16 26 14 27 15 28
REMARK H PARENT 6 19 10 21
ROOT
ATOM      1  C   UNL     1      88.180 110.790  84.384  1.00  0.00     0.070 C 
ENDROOT
BRANCH   1   2
ATOM      2  C   UNL     1      88.471 109.396  84.893  1.00  0.00     0.087 C 
BRANCH   2   3
ATOM      3  C   UNL     1      89.897 109.088  85.027  1.00  0.00     0.163 C 
ATOM      4  O   UNL     1      90.490 109.190  86.132  1.00  0.00    -0.294 OA
BRANCH   3   5
ATOM      5  C   UNL     1      90.720 108.640  83.884  1.00  0.00     0.018 A 
ATOM      6  C   UNL     1      90.168 107.863  82.882  1.00  0.00     0.015 A 
ATOM      7  C   UNL     1      92.045 108.983  83.791  1.00  0.00     0.015 A 
ATOM      8  C   UNL     1      90.940 107.450  81.823  1.00  0.00     0.040 A 
ATOM      9  C   UNL     1      92.820 108.576  82.738  1.00  0.00     0.040 A 
ATOM     10  C   UNL     1      92.262 107.807  81.753  1.00  0.00     0.123 A 
ATOM     11  F   UNL     1      93.070 107.416  80.717  1.00  0.00    -0.207 F 
ENDBRANCH   3   5
ENDBRANCH   2   3
ENDBRANCH   1   2
BRANCH   1  12
ATOM     12  C   UNL     1      87.888 110.708  82.925  1.00  0.00     0.262 C 
BRANCH  12  13
ATOM     13  N   UNL     1      88.090 111.976  82.238  1.00  0.00    -0.335 N 
ATOM     14  C   UNL     1      89.474 112.262  82.012  1.00  0.00     0.265 C 
ATOM     15  C   UNL     1      87.363 111.990  81.010  1.00  0.00     0.265 C 
ATOM     16  C   UNL     1      90.128 111.199  81.172  1.00  0.00     0.102 C 
ATOM     17  C   UNL     1      88.139 111.840  79.771  1.00  0.00     0.102 C 
ATOM     18  C   UNL     1      89.439 111.128  79.842  1.00  0.00     0.100 C 
ATOM     19  H   UNL     1      87.740 112.710  82.923  1.00  0.00     0.348 HD
BRANCH  18  20
ATOM     20  O   UNL     1      90.307 111.760  78.920  1.00  0.00    -0.385 OA
ATOM     21  H   UNL     1      89.738 112.108  78.188  1.00  0.00     0.211 HD
ENDBRANCH  18  20
BRANCH  18  22
ATOM     22  C   UNL     1      89.351 109.708  79.347  1.00  0.00    -0.016 A 
ATOM     23  C   UNL     1      90.311 109.160  78.521  1.00  0.00     0.008 A 
ATOM     24  C   UNL     1      88.312 108.869  79.685  1.00  0.00     0.008 A 
ATOM     25  C   UNL     1      90.268 107.869  78.046  1.00  0.00     0.021 A 
ATOM     26  C   UNL     1      88.248 107.570  79.220  1.00  0.00     0.021 A 
ATOM     27  C   UNL     1      89.225 107.071  78.402  1.00  0.00     0.041 A 
ATOM     28  Cl  UNL     1      89.152 105.428  77.812  1.00  0.00    -0.084 Cl
ENDBRANCH  18  22
ENDBRANCH  12  13
ENDBRANCH   1  12
TORSDOF 7
ENDMDL
MODEL 2
REMARK VINA RESULT:      -7.5      3.215      4.950
REMARK SMILES O=C(CCC[NH+]1CCC(O)(c2ccc(Cl)cc2)CC1)c1ccc(F)cc1
REMARK SMILES IDX 4 1 3 2 2 3 1 4 20 5 21 6 26 7 22 8 25 9 23 10 24 11 5 12
REMARK SMILES IDX 6 13 7 14 19 15 8 16 18 17 9 18 10 20 11 22 12 23 17 24
REMARK SMILES IDX 13 25 16 26 14 27 15 28
REMARK H PARENT 6 19 10 21
ROOT
ATOM      1  C   UNL     1      88.057 110.197  80.263  1.00  0.00     0.070 C 
ENDROOT
BRANCH   1   2
ATOM      2  C   UNL     1      88.574 111.583  80.576  1.00  0.00     0.087 C 
BRANCH   2   3
ATOM      3  C   UNL     1      89.749 111.605  81.450  1.00  0.00     0.163 C 
ATOM      4  O   UNL     1      90.668 112.450  81.295  1.00  0.00    -0.294 OA
BRANCH   3   5
ATOM      5  C   UNL     1      89.928 110.645  82.560  1.00  0.00     0.018 A 
ATOM      6  C   UNL     1      91.062 109.855  82.630  1.00  0.00     0.015 A 
ATOM      7  C   UNL     1      88.980 110.516  83.543  1.00  0.00     0.015 A 
ATOM      8  C   UNL     1      91.222 108.965  83.665  1.00  0.00     0.040 A 
ATOM      9  C   UNL     1      89.133 109.631  84.577  1.00  0.00     0.040 A 
ATOM     10  C   UNL     1      90.258 108.856  84.635  1.00  0.00     0.123 A 
ATOM     11  F   UNL     1      90.374 107.980  85.683  1.00  0.00    -0.207 F 
ENDBRANCH   3   5
ENDBRANCH   2   3
ENDBRANCH   1   2
BRANCH   1  12
ATOM     12  C   UNL     1      88.960 109.575  79.254  1.00  0.00     0.262 C 
BRANCH  12  13
ATOM     13  N   UNL     1      89.427 108.254  79.654  1.00  0.00    -0.335 N 
ATOM     14  C   UNL     1      89.047 107.234  78.725  1.00  0.00     0.265 C 
ATOM     15  C   UNL     1      90.842 108.268  79.840  1.00  0.00     0.265 C 
ATOM     16  C   UNL     1      89.606 107.499  77.354  1.00  0.00     0.102 C 
ATOM     17  C   UNL     1      91.659 107.623  78.803  1.00  0.00     0.102 C 
ATOM     18  C   UNL     1      91.103 107.533  77.430  1.00  0.00     0.100 C 
ATOM     19  H   UNL     1      88.903 108.047  80.557  1.00  0.00     0.348 HD
BRANCH  18  20
ATOM     20  O   UNL     1      91.548 106.304  76.884  1.00  0.00    -0.385 OA
ATOM     21  H   UNL     1      90.862 106.021  76.229  1.00  0.00     0.211 HD
ENDBRANCH  18  20
BRANCH  18  22
ATOM     22  C   UNL     1      91.676 108.573  76.502  1.00  0.00    -0.016 A 
ATOM     23  C   UNL     1      91.155 109.848  76.422  1.00  0.00     0.008 A 
ATOM     24  C   UNL     1      92.750 108.319  75.679  1.00  0.00     0.008 A 
ATOM     25  C   UNL     1      91.648 110.826  75.588  1.00  0.00     0.021 A 
ATOM     26  C   UNL     1      93.262 109.284  74.834  1.00  0.00     0.021 A 
ATOM     27  C   UNL     1      92.710 110.536  74.790  1.00  0.00     0.041 A 
ATOM     28  Cl  UNL     1      93.352 111.764  73.725  1.00  0.00    -0.084 Cl
ENDBRANCH  18  22
ENDBRANCH  12  13
ENDBRANCH   1  12
TORSDOF 7
ENDMDL
MODEL 3
REMARK VINA RESULT:      -7.5      3.136      4.831
REMARK SMILES O=C(CCC[NH+]1CCC(O)(c2ccc(Cl)cc2)CC1)c1ccc(F)cc1
REMARK SMILES IDX 4 1 3 2 2 3 1 4 20 5 21 6 26 7 22 8 25 9 23 10 24 11 5 12
REMARK SMILES IDX 6 13 7 14 19 15 8 16 18 17 9 18 10 20 11 22 12 23 17 24
REMARK SMILES IDX 13 25 16 26 14 27 15 28
REMARK H PARENT 6 19 10 21
ROOT
ATOM      1  C   UNL     1      87.625 110.205  80.301  1.00  0.00     0.070 C 
ENDROOT
BRANCH   1   2
ATOM      2  C   UNL     1      87.844 111.694  80.451  1.00  0.00     0.087 C 
BRANCH   2   3
ATOM      3  C   UNL     1      88.380 112.096  81.753  1.00  0.00     0.163 C 
ATOM      4  O   UNL     1      88.422 113.304  82.102  1.00  0.00    -0.294 OA
BRANCH   3   5
ATOM      5  C   UNL     1      88.900 111.118  82.732  1.00  0.00     0.018 A 
ATOM      6  C   UNL     1      88.188 110.828  83.881  1.00  0.00     0.015 A 
ATOM      7  C   UNL     1      90.095 110.477  82.524  1.00  0.00     0.015 A 
ATOM      8  C   UNL     1      88.677 109.918  84.788  1.00  0.00     0.040 A 
ATOM      9  C   UNL     1      90.589 109.569  83.422  1.00  0.00     0.040 A 
ATOM     10  C   UNL     1      89.875 109.291  84.555  1.00  0.00     0.123 A 
ATOM     11  F   UNL     1      90.403 108.378  85.432  1.00  0.00    -0.207 F 
ENDBRANCH   3   5
ENDBRANCH   2   3
ENDBRANCH   1   2
BRANCH   1  12
ATOM     12  C   UNL     1      88.716 109.652  79.449  1.00  0.00     0.262 C 
BRANCH  12  13
ATOM     13  N   UNL     1      89.140 108.323  79.868  1.00  0.00    -0.335 N 
ATOM     14  C   UNL     1      88.744 107.305  78.942  1.00  0.00     0.265 C 
ATOM     15  C   UNL     1      90.551 108.299  80.074  1.00  0.00     0.265 C 
ATOM     16  C   UNL     1      89.330 107.542  77.577  1.00  0.00     0.102 C 
ATOM     17  C   UNL     1      91.365 107.622  79.054  1.00  0.00     0.102 C 
ATOM     18  C   UNL     1      90.826 107.534  77.674  1.00  0.00     0.100 C 
ATOM     19  H   UNL     1      88.598 108.140  80.764  1.00  0.00     0.348 HD
BRANCH  18  20
ATOM     20  O   UNL     1      91.244 106.288  77.147  1.00  0.00    -0.385 OA
ATOM     21  H   UNL     1      91.838 106.490  76.381  1.00  0.00     0.211 HD
ENDBRANCH  18  20
BRANCH  18  22
ATOM     22  C   UNL     1      91.440 108.549  76.746  1.00  0.00    -0.016 A 
ATOM     23  C   UNL     1      92.581 108.279  76.018  1.00  0.00     0.008 A 
ATOM     24  C   UNL     1      90.906 109.805  76.564  1.00  0.00     0.008 A 
ATOM     25  C   UNL     1      93.173 109.177  75.160  1.00  0.00     0.021 A 
ATOM     26  C   UNL     1      91.483 110.723  75.708  1.00  0.00     0.021 A 
ATOM     27  C   UNL     1      92.615 110.408  75.008  1.00  0.00     0.041 A 
ATOM     28  Cl  UNL     1      93.351 111.563  73.922  1.00  0.00    -0.084 Cl
ENDBRANCH  18  22
ENDBRANCH  12  13
ENDBRANCH   1  12
TORSDOF 7
ENDMDL
MODEL 4
REMARK VINA RESULT:      -7.5      0.761      1.255
REMARK SMILES O=C(CCC[NH+]1CCC(O)(c2ccc(Cl)cc2)CC1)c1ccc(F)cc1
REMARK SMILES IDX 4 1 3 2 2 3 1 4 20 5 21 6 26 7 22 8 25 9 23 10 24 11 5 12
REMARK SMILES IDX 6 13 7 14 19 15 8 16 18 17 9 18 10 20 11 22 12 23 17 24
REMARK SMILES IDX 13 25 16 26 14 27 15 28
REMARK H PARENT 6 19 10 21
ROOT
ATOM      1  C   UNL     1      88.730 110.761  84.358  1.00  0.00     0.070 C 
ENDROOT
BRANCH   1   2
ATOM      2  C   UNL     1      88.891 109.483  85.151  1.00  0.00     0.087 C 
BRANCH   2   3
ATOM      3  C   UNL     1      90.258 108.958  85.176  1.00  0.00     0.163 C 
ATOM      4  O   UNL     1      90.896 108.836  86.254  1.00  0.00    -0.294 OA
BRANCH   3   5
ATOM      5  C   UNL     1      90.968 108.539  83.950  1.00  0.00     0.018 A 
ATOM      6  C   UNL     1      92.273 108.937  83.722  1.00  0.00     0.015 A 
ATOM      7  C   UNL     1      90.354 107.749  83.012  1.00  0.00     0.015 A 
ATOM      8  C   UNL     1      92.928 108.545  82.579  1.00  0.00     0.040 A 
ATOM      9  C   UNL     1      90.999 107.353  81.871  1.00  0.00     0.040 A 
ATOM     10  C   UNL     1      92.290 107.754  81.658  1.00  0.00     0.123 A 
ATOM     11  F   UNL     1      92.902 107.340  80.503  1.00  0.00    -0.207 F 
ENDBRANCH   3   5
ENDBRANCH   2   3
ENDBRANCH   1   2
BRANCH   1  12
ATOM     12  C   UNL     1      87.832 110.488  83.201  1.00  0.00     0.262 C 
BRANCH  12  13
ATOM     13  N   UNL     1      87.333 111.705  82.575  1.00  0.00    -0.335 N 
ATOM     14  C   UNL     1      88.388 112.591  82.184  1.00  0.00     0.265 C 
ATOM     15  C   UNL     1      86.505 111.380  81.459  1.00  0.00     0.265 C 
ATOM     16  C   UNL     1      89.319 111.940  81.198  1.00  0.00     0.102 C 
ATOM     17  C   UNL     1      87.072 111.595  80.120  1.00  0.00     0.102 C 
ATOM     18  C   UNL     1      88.548 111.555  79.971  1.00  0.00     0.100 C 
ATOM     19  H   UNL     1      86.795 112.202  83.346  1.00  0.00     0.348 HD
BRANCH  18  20
ATOM     20  O   UNL     1      88.889 112.511  78.983  1.00  0.00    -0.385 OA
ATOM     21  H   UNL     1      89.874 112.479  78.886  1.00  0.00     0.211 HD
ENDBRANCH  18  20
BRANCH  18  22
ATOM     22  C   UNL     1      89.040 110.250  79.402  1.00  0.00    -0.016 A 
ATOM     23  C   UNL     1      90.116 110.186  78.542  1.00  0.00     0.008 A 
ATOM     24  C   UNL     1      88.450 109.042  79.703  1.00  0.00     0.008 A 
ATOM     25  C   UNL     1      90.596 109.015  78.000  1.00  0.00     0.021 A 
ATOM     26  C   UNL     1      88.913 107.855  79.172  1.00  0.00     0.021 A 
ATOM     27  C   UNL     1      89.986 107.843  78.322  1.00  0.00     0.041 A 
ATOM     28  Cl  UNL     1      90.580 106.345  77.647  1.00  0.00    -0.084 Cl
ENDBRANCH  18  22
ENDBRANCH  12  13
ENDBRANCH   1  12
TORSDOF 7
ENDMDL
MODEL 5
REMARK VINA RESULT:      -7.4      4.835      7.186
REMARK SMILES O=C(CCC[NH+]1CCC(O)(c2ccc(Cl)cc2)CC1)c1ccc(F)cc1
REMARK SMILES IDX 4 1 3 2 2 3 1 4 20 5 21 6 26 7 22 8 25 9 23 10 24 11 5 12
REMARK SMILES IDX 6 13 7 14 19 15 8 16 18 17 9 18 10 20 11 22 12 23 17 24
REMARK SMILES IDX 13 25 16 26 14 27 15 28
REMARK H PARENT 6 19 10 21
ROOT
ATOM      1  C   UNL     1      90.656 108.943  77.393  1.00  0.00     0.070 C 
ENDROOT
BRANCH   1   2
ATOM      2  C   UNL     1      90.187 108.881  78.830  1.00  0.00     0.087 C 
BRANCH   2   3
ATOM      3  C   UNL     1      89.810 110.177  79.397  1.00  0.00     0.163 C 
ATOM      4  O   UNL     1      90.020 111.252  78.778  1.00  0.00    -0.294 OA
BRANCH   3   5
ATOM      5  C   UNL     1      89.163 110.305  80.720  1.00  0.00     0.018 A 
ATOM      6  C   UNL     1      87.806 110.553  80.818  1.00  0.00     0.015 A 
ATOM      7  C   UNL     1      89.890 110.180  81.877  1.00  0.00     0.015 A 
ATOM      8  C   UNL     1      87.211 110.671  82.051  1.00  0.00     0.040 A 
ATOM      9  C   UNL     1      89.304 110.296  83.109  1.00  0.00     0.040 A 
ATOM     10  C   UNL     1      87.961 110.541  83.193  1.00  0.00     0.123 A 
ATOM     11  F   UNL     1      87.411 110.653  84.443  1.00  0.00    -0.207 F 
ENDBRANCH   3   5
ENDBRANCH   2   3
ENDBRANCH   1   2
BRANCH   1  12
ATOM     12  C   UNL     1      89.862 107.965  76.596  1.00  0.00     0.262 C 
BRANCH  12  13
ATOM     13  N   UNL     1      90.277 106.586  76.821  1.00  0.00    -0.335 N 
ATOM     14  C   UNL     1      89.546 105.657  76.014  1.00  0.00     0.265 C 
ATOM     15  C   UNL     1      91.680 106.453  76.603  1.00  0.00     0.265 C 
ATOM     16  C   UNL     1      89.730 105.936  74.547  1.00  0.00     0.102 C 
ATOM     17  C   UNL     1      92.105 105.785  75.365  1.00  0.00     0.102 C 
ATOM     18  C   UNL     1      91.185 105.820  74.201  1.00  0.00     0.100 C 
ATOM     19  H   UNL     1      90.003 106.387  77.829  1.00  0.00     0.348 HD
BRANCH  18  20
ATOM     20  O   UNL     1      91.326 104.583  73.526  1.00  0.00    -0.385 OA
ATOM     21  H   UNL     1      90.885 103.900  74.092  1.00  0.00     0.211 HD
ENDBRANCH  18  20
BRANCH  18  22
ATOM     22  C   UNL     1      91.587 106.844  73.173  1.00  0.00    -0.016 A 
ATOM     23  C   UNL     1      91.179 106.761  71.858  1.00  0.00     0.008 A 
ATOM     24  C   UNL     1      92.384 107.926  73.478  1.00  0.00     0.008 A 
ATOM     25  C   UNL     1      91.524 107.675  70.889  1.00  0.00     0.021 A 
ATOM     26  C   UNL     1      92.743 108.855  72.522  1.00  0.00     0.021 A 
ATOM     27  C   UNL     1      92.313 108.729  71.229  1.00  0.00     0.041 A 
ATOM     28  Cl  UNL     1      92.761 109.902  70.014  1.00  0.00    -0.084 Cl
ENDBRANCH  18  22
ENDBRANCH  12  13
ENDBRANCH   1  12
TORSDOF 7
ENDMDL
MODEL 6
REMARK VINA RESULT:      -7.3      4.653      6.743
REMARK SMILES O=C(CCC[NH+]1CCC(O)(c2ccc(Cl)cc2)CC1)c1ccc(F)cc1
REMARK SMILES IDX 4 1 3 2 2 3 1 4 20 5 21 6 26 7 22 8 25 9 23 10 24 11 5 12
REMARK SMILES IDX 6 13 7 14 19 15 8 16 18 17 9 18 10 20 11 22 12 23 17 24
REMARK SMILES IDX 13 25 16 26 14 27 15 28
REMARK H PARENT 6 19 10 21
ROOT
ATOM      1  C   UNL     1      89.548 108.185  78.193  1.00  0.00     0.070 C 
ENDROOT
BRANCH   1   2
ATOM      2  C   UNL     1      90.320 108.731  79.373  1.00  0.00     0.087 C 
BRANCH   2   3
ATOM      3  C   UNL     1      89.497 109.440  80.356  1.00  0.00     0.163 C 
ATOM      4  O   UNL     1      88.523 110.154  80.004  1.00  0.00    -0.294 OA
BRANCH   3   5
ATOM      5  C   UNL     1      89.755 109.361  81.809  1.00  0.00     0.018 A 
ATOM      6  C   UNL     1      88.915 109.996  82.707  1.00  0.00     0.015 A 
ATOM      7  C   UNL     1      90.828 108.661  82.299  1.00  0.00     0.015 A 
ATOM      8  C   UNL     1      89.161 109.919  84.057  1.00  0.00     0.040 A 
ATOM      9  C   UNL     1      91.079 108.580  83.643  1.00  0.00     0.040 A 
ATOM     10  C   UNL     1      90.241 109.211  84.521  1.00  0.00     0.123 A 
ATOM     11  F   UNL     1      90.526 109.109  85.858  1.00  0.00    -0.207 F 
ENDBRANCH   3   5
ENDBRANCH   2   3
ENDBRANCH   1   2
BRANCH   1  12
ATOM     12  C   UNL     1      90.522 107.634  77.208  1.00  0.00     0.262 C 
BRANCH  12  13
ATOM     13  N   UNL     1      90.467 106.180  77.115  1.00  0.00    -0.335 N 
ATOM     14  C   UNL     1      89.386 105.725  76.295  1.00  0.00     0.265 C 
ATOM     15  C   UNL     1      91.713 105.672  76.640  1.00  0.00     0.265 C 
ATOM     16  C   UNL     1      89.499 106.251  74.890  1.00  0.00     0.102 C 
ATOM     17  C   UNL     1      91.755 105.196  75.250  1.00  0.00     0.102 C 
ATOM     18  C   UNL     1      90.784 105.770  74.285  1.00  0.00     0.100 C 
ATOM     19  H   UNL     1      90.250 105.857  78.104  1.00  0.00     0.348 HD
BRANCH  18  20
ATOM     20  O   UNL     1      90.428 104.731  73.391  1.00  0.00    -0.385 OA
ATOM     21  H   UNL     1      89.443 104.644  73.436  1.00  0.00     0.211 HD
ENDBRANCH  18  20
BRANCH  18  22
ATOM     22  C   UNL     1      91.399 106.821  73.398  1.00  0.00    -0.016 A 
ATOM     23  C   UNL     1      91.177 106.851  72.037  1.00  0.00     0.008 A 
ATOM     24  C   UNL     1      92.218 107.815  73.886  1.00  0.00     0.008 A 
ATOM     25  C   UNL     1      91.719 107.792  71.192  1.00  0.00     0.021 A 
ATOM     26  C   UNL     1      92.774 108.770  73.058  1.00  0.00     0.021 A 
ATOM     27  C   UNL     1      92.523 108.758  71.712  1.00  0.00     0.041 A 
ATOM     28  Cl  UNL     1      93.221 109.964  70.658  1.00  0.00    -0.084 Cl
ENDBRANCH  18  22
ENDBRANCH  12  13
ENDBRANCH   1  12
TORSDOF 7
ENDMDL
MODEL 7
REMARK VINA RESULT:      -7.1      4.808      7.198
REMARK SMILES O=C(CCC[NH+]1CCC(O)(c2ccc(Cl)cc2)CC1)c1ccc(F)cc1
REMARK SMILES IDX 4 1 3 2 2 3 1 4 20 5 21 6 26 7 22 8 25 9 23 10 24 11 5 12
REMARK SMILES IDX 6 13 7 14 19 15 8 16 18 17 9 18 10 20 11 22 12 23 17 24
REMARK SMILES IDX 13 25 16 26 14 27 15 28
REMARK H PARENT 6 19 10 21
ROOT
ATOM      1  C   UNL     1      90.541 109.108  77.348  1.00  0.00     0.070 C 
ENDROOT
BRANCH   1   2
ATOM      2  C   UNL     1      89.985 109.142  78.754  1.00  0.00     0.087 C 
BRANCH   2   3
ATOM      3  C   UNL     1      89.806 110.489  79.300  1.00  0.00     0.163 C 
ATOM      4  O   UNL     1      90.062 111.514  78.616  1.00  0.00    -0.294 OA
BRANCH   3   5
ATOM      5  C   UNL     1      89.317 110.729  80.674  1.00  0.00     0.018 A 
ATOM      6  C   UNL     1      89.653 109.864  81.700  1.00  0.00     0.015 A 
ATOM      7  C   UNL     1      88.523 111.809  80.963  1.00  0.00     0.015 A 
ATOM      8  C   UNL     1      89.195 110.092  82.976  1.00  0.00     0.040 A 
ATOM      9  C   UNL     1      88.063 112.043  82.232  1.00  0.00     0.040 A 
ATOM     10  C   UNL     1      88.402 111.180  83.238  1.00  0.00     0.123 A 
ATOM     11  F   UNL     1      87.921 111.446  84.493  1.00  0.00    -0.207 F 
ENDBRANCH   3   5
ENDBRANCH   2   3
ENDBRANCH   1   2
BRANCH   1  12
ATOM     12  C   UNL     1      89.888 107.991  76.610  1.00  0.00     0.262 C 
BRANCH  12  13
ATOM     13  N   UNL     1      90.486 106.695  76.904  1.00  0.00    -0.335 N 
ATOM     14  C   UNL     1      89.889 105.634  76.151  1.00  0.00     0.265 C 
ATOM     15  C   UNL     1      91.895 106.743  76.682  1.00  0.00     0.265 C 
ATOM     16  C   UNL     1      90.032 105.857  74.671  1.00  0.00     0.102 C 
ATOM     17  C   UNL     1      92.406 106.075  75.477  1.00  0.00     0.102 C 
ATOM     18  C   UNL     1      91.489 105.922  74.320  1.00  0.00     0.100 C 
ATOM     19  H   UNL     1      90.244 106.513  77.923  1.00  0.00     0.348 HD
BRANCH  18  20
ATOM     20  O   UNL     1      91.797 104.682  73.710  1.00  0.00    -0.385 OA
ATOM     21  H   UNL     1      92.239 104.129  74.401  1.00  0.00     0.211 HD
ENDBRANCH  18  20
BRANCH  18  22
ATOM     22  C   UNL     1      91.747 106.936  73.237  1.00  0.00    -0.016 A 
ATOM     23  C   UNL     1      92.433 108.108  73.479  1.00  0.00     0.008 A 
ATOM     24  C   UNL     1      91.316 106.760  71.940  1.00  0.00     0.008 A 
ATOM     25  C   UNL     1      92.688 109.060  72.519  1.00  0.00     0.021 A 
ATOM     26  C   UNL     1      91.561 107.701  70.959  1.00  0.00     0.021 A 
ATOM     27  C   UNL     1      92.247 108.849  71.249  1.00  0.00     0.041 A 
ATOM     28  Cl  UNL     1      92.562 110.044  70.014  1.00  0.00    -0.084 Cl
ENDBRANCH  18  22
ENDBRANCH  12  13
ENDBRANCH   1  12
TORSDOF 7
ENDMDL
MODEL 8
REMARK VINA RESULT:      -7.1      4.772      6.907
REMARK SMILES O=C(CCC[NH+]1CCC(O)(c2ccc(Cl)cc2)CC1)c1ccc(F)cc1
REMARK SMILES IDX 4 1 3 2 2 3 1 4 20 5 21 6 26 7 22 8 25 9 23 10 24 11 5 12
REMARK SMILES IDX 6 13 7 14 19 15 8 16 18 17 9 18 10 20 11 22 12 23 17 24
REMARK SMILES IDX 13 25 16 26 14 27 15 28
REMARK H PARENT 6 19 10 21
ROOT
ATOM      1  C   UNL     1      90.838 108.700  77.723  1.00  0.00     0.070 C 
ENDROOT
BRANCH   1   2
ATOM      2  C   UNL     1      90.429 108.257  79.110  1.00  0.00     0.087 C 
BRANCH   2   3
ATOM      3  C   UNL     1      89.853 109.319  79.937  1.00  0.00     0.163 C 
ATOM      4  O   UNL     1      89.262 110.304  79.423  1.00  0.00    -0.294 OA
BRANCH   3   5
ATOM      5  C   UNL     1      89.927 109.302  81.413  1.00  0.00     0.018 A 
ATOM      6  C   UNL     1      89.129 110.144  82.166  1.00  0.00     0.015 A 
ATOM      7  C   UNL     1      90.783 108.454  82.067  1.00  0.00     0.015 A 
ATOM      8  C   UNL     1      89.202 110.123  83.539  1.00  0.00     0.040 A 
ATOM      9  C   UNL     1      90.862 108.427  83.434  1.00  0.00     0.040 A 
ATOM     10  C   UNL     1      90.068 109.265  84.168  1.00  0.00     0.123 A 
ATOM     11  F   UNL     1      90.177 109.211  85.534  1.00  0.00    -0.207 F 
ENDBRANCH   3   5
ENDBRANCH   2   3
ENDBRANCH   1   2
BRANCH   1  12
ATOM     12  C   UNL     1      90.092 107.879  76.727  1.00  0.00     0.262 C 
BRANCH  12  13
ATOM     13  N   UNL     1      90.366 106.454  76.853  1.00  0.00    -0.335 N 
ATOM     14  C   UNL     1      89.494 105.655  76.047  1.00  0.00     0.265 C 
ATOM     15  C   UNL     1      91.732 106.187  76.539  1.00  0.00     0.265 C 
ATOM     16  C   UNL     1      89.621 105.999  74.588  1.00  0.00     0.102 C 
ATOM     17  C   UNL     1      92.009 105.551  75.243  1.00  0.00     0.102 C 
ATOM     18  C   UNL     1      91.032 105.751  74.144  1.00  0.00     0.100 C 
ATOM     19  H   UNL     1      90.132 106.225  77.865  1.00  0.00     0.348 HD
BRANCH  18  20
ATOM     20  O   UNL     1      90.999 104.547  73.398  1.00  0.00    -0.385 OA
ATOM     21  H   UNL     1      90.597 104.769  72.521  1.00  0.00     0.211 HD
ENDBRANCH  18  20
BRANCH  18  22
ATOM     22  C   UNL     1      91.483 106.786  73.147  1.00  0.00    -0.016 A 
ATOM     23  C   UNL     1      92.275 107.855  73.509  1.00  0.00     0.008 A 
ATOM     24  C   UNL     1      91.134 106.732  71.815  1.00  0.00     0.008 A 
ATOM     25  C   UNL     1      92.708 108.821  72.630  1.00  0.00     0.021 A 
ATOM     26  C   UNL     1      91.556 107.690  70.915  1.00  0.00     0.021 A 
ATOM     27  C   UNL     1      92.342 108.734  71.323  1.00  0.00     0.041 A 
ATOM     28  Cl  UNL     1      92.882 109.949  70.190  1.00  0.00    -0.084 Cl
ENDBRANCH  18  22
ENDBRANCH  12  13
ENDBRANCH   1  12
TORSDOF 7
ENDMDL
MODEL 9
REMARK VINA RESULT:      -7.1      1.122      1.554
REMARK SMILES O=C(CCC[NH+]1CCC(O)(c2ccc(Cl)cc2)CC1)c1ccc(F)cc1
REMARK SMILES IDX 4 1 3 2 2 3 1 4 20 5 21 6 26 7 22 8 25 9 23 10 24 11 5 12
REMARK SMILES IDX 6 13 7 14 19 15 8 16 18 17 9 18 10 20 11 22 12 23 17 24
REMARK SMILES IDX 13 25 16 26 14 27 15 28
REMARK H PARENT 6 19 10 21
ROOT
ATOM      1  C   UNL     1      89.055 110.704  83.926  1.00  0.00     0.070 C 
ENDROOT
BRANCH   1   2
ATOM      2  C   UNL     1      89.243 109.933  85.213  1.00  0.00     0.087 C 
BRANCH   2   3
ATOM      3  C   UNL     1      90.436 109.085  85.240  1.00  0.00     0.163 C 
ATOM      4  O   UNL     1      90.973 108.739  86.324  1.00  0.00    -0.294 OA
BRANCH   3   5
ATOM      5  C   UNL     1      91.080 108.585  84.007  1.00  0.00     0.018 A 
ATOM      6  C   UNL     1      90.439 107.655  83.208  1.00  0.00     0.015 A 
ATOM      7  C   UNL     1      92.321 109.028  83.627  1.00  0.00     0.015 A 
ATOM      8  C   UNL     1      91.043 107.194  82.062  1.00  0.00     0.040 A 
ATOM      9  C   UNL     1      92.929 108.573  82.488  1.00  0.00     0.040 A 
ATOM     10  C   UNL     1      92.285 107.654  81.706  1.00  0.00     0.123 A 
ATOM     11  F   UNL     1      92.926 107.221  80.574  1.00  0.00    -0.207 F 
ENDBRANCH   3   5
ENDBRANCH   2   3
ENDBRANCH   1   2
BRANCH   1  12
ATOM     12  C   UNL     1      87.793 110.242  83.280  1.00  0.00     0.262 C 
BRANCH  12  13
ATOM     13  N   UNL     1      86.995 111.341  82.752  1.00  0.00    -0.335 N 
ATOM     14  C   UNL     1      87.790 112.486  82.424  1.00  0.00     0.265 C 
ATOM     15  C   UNL     1      86.245 110.904  81.620  1.00  0.00     0.265 C 
ATOM     16  C   UNL     1      88.828 112.159  81.386  1.00  0.00     0.102 C 
ATOM     17  C   UNL     1      86.708 111.349  80.298  1.00  0.00     0.102 C 
ATOM     18  C   UNL     1      88.144 111.686  80.137  1.00  0.00     0.100 C 
ATOM     19  H   UNL     1      86.371 111.632  83.563  1.00  0.00     0.348 HD
BRANCH  18  20
ATOM     20  O   UNL     1      88.215 112.766  79.223  1.00  0.00    -0.385 OA
ATOM     21  H   UNL     1      87.448 113.358  79.425  1.00  0.00     0.211 HD
ENDBRANCH  18  20
BRANCH  18  22
ATOM     22  C   UNL     1      88.927 110.588  79.467  1.00  0.00    -0.016 A 
ATOM     23  C   UNL     1      88.717 109.256  79.759  1.00  0.00     0.008 A 
ATOM     24  C   UNL     1      89.898 110.841  78.523  1.00  0.00     0.008 A 
ATOM     25  C   UNL     1      89.410 108.224  79.170  1.00  0.00     0.021 A 
ATOM     26  C   UNL     1      90.607 109.821  77.919  1.00  0.00     0.021 A 
ATOM     27  C   UNL     1      90.362 108.514  78.243  1.00  0.00     0.041 A 
ATOM     28  Cl  UNL     1      91.252 107.217  77.482  1.00  0.00    -0.084 Cl
ENDBRANCH  18  22
ENDBRANCH  12  13
ENDBRANCH   1  12
TORSDOF 7
ENDMDL
