MODEL 1
REMARK VINA RESULT:      -6.9      0.000      0.000
REMARK SMILES CCCCCCCC/C=C/CCCCCCCC(=O)OC[C@@H](O)COP(=O)([O-])[O-]
REMARK SMILES IDX 14 1 15 2 16 3 17 4 18 5 19 6 20 7 21 8 22 9 24 10 25 11
REMARK SMILES IDX 26 12 27 13 28 14 29 15 23 16 13 18 12 19 11 20 10 21 9 22
REMARK SMILES IDX 8 23 7 24 6 25 5 26 4 27 3 28 2 29 1 30
REMARK H PARENT 23 17
REMARK INDEX MAP 15 1 14 2 13 3 12 4 11 5 5 6 10 7 9 8 8 9 7 10 6 11 3 12 2 13
REMARK INDEX MAP 1 14 4 15 29 16 68 17 16 18 17 19 18 20 19 21 20 22 21 23
REMARK INDEX MAP 22 24 23 25 24 26 25 27 26 28 27 29 28 30
ROOT
ATOM      1  C   UNL     1     173.911 150.094 153.000  1.00  0.00     0.000 C 
ENDROOT
BRANCH   1   2
ATOM      2  C   UNL     1     174.002 149.998 154.521  1.00  0.00     0.001 C 
BRANCH   2   3
ATOM      3  C   UNL     1     174.527 148.623 154.915  1.00  0.00     0.012 C 
BRANCH   3   4
ATOM      4  C   UNL     1     174.824 148.614 156.412  1.00  0.00     0.123 C 
BRANCH   4   5
ATOM      5  C   UNL     1     174.907 147.166 156.883  1.00  0.00     0.305 C 
ATOM      6  O   UNL     1     175.959 146.652 157.055  1.00  0.00    -0.252 OA
BRANCH   5   7
ATOM      7  O   UNL     1     173.725 146.451 157.087  1.00  0.00    -0.463 OA
BRANCH   7   8
ATOM      8  C   UNL     1     173.311 146.439 158.421  1.00  0.00     0.267 C 
BRANCH   8   9
ATOM      9  C   UNL     1     173.039 145.000 158.844  1.00  0.00     0.178 C 
BRANCH   9  10
ATOM     10  C   UNL     1     173.616 144.761 160.233  1.00  0.00     0.201 C 
BRANCH  10  11
ATOM     11  O   UNL     1     173.798 143.390 160.419  1.00  0.00    -0.348 OA
BRANCH  11  12
ATOM     12  P   UNL     1     175.330 142.854 160.668  1.00  0.00     0.060 P 
ATOM     13  O   UNL     1     175.324 141.347 160.668  1.00  0.00    -0.326 OA
ATOM     14  O   UNL     1     175.826 143.358 162.001  1.00  0.00    -0.790 OA
ATOM     15  O   UNL     1     176.223 143.371 159.567  1.00  0.00    -0.790 OA
ENDBRANCH  11  12
ENDBRANCH  10  11
ENDBRANCH   9  10
BRANCH   9  16
ATOM     16  O   UNL     1     173.644 144.128 157.934  1.00  0.00    -0.387 OA
ATOM     17  H   UNL     1     173.351 143.221 158.111  1.00  0.00     0.211 HD
ENDBRANCH   9  16
ENDBRANCH   8   9
ENDBRANCH   7   8
ENDBRANCH   5   7
ENDBRANCH   4   5
ENDBRANCH   3   4
ENDBRANCH   2   3
ENDBRANCH   1   2
BRANCH   1  18
ATOM     18  C   UNL     1     172.546 150.645 152.594  1.00  0.00     0.000 C 
BRANCH  18  19
ATOM     19  C   UNL     1     171.742 150.943 153.857  1.00  0.00     0.004 C 
BRANCH  19  20
ATOM     20  C   UNL     1     170.513 150.042 153.950  1.00  0.00     0.027 C 
BRANCH  20  21
ATOM     21  C   UNL     1     170.385 149.496 155.368  1.00  0.00    -0.031 C 
ATOM     22  C   UNL     1     171.195 149.924 156.309  1.00  0.00    -0.031 C 
BRANCH  22  23
ATOM     23  C   UNL     1     171.068 149.381 157.727  1.00  0.00     0.027 C 
BRANCH  23  24
ATOM     24  C   UNL     1     172.114 150.044 158.619  1.00  0.00     0.004 C 
BRANCH  24  25
ATOM     25  C   UNL     1     171.615 151.405 159.098  1.00  0.00     0.000 C 
BRANCH  25  26
ATOM     26  C   UNL     1     170.254 151.252 159.772  1.00  0.00     0.000 C 
BRANCH  26  27
ATOM     27  C   UNL     1     169.310 152.360 159.319  1.00  0.00    -0.000 C 
BRANCH  27  28
ATOM     28  C   UNL     1     168.256 151.719 158.426  1.00  0.00    -0.000 C 
BRANCH  28  29
ATOM     29  C   UNL     1     168.392 152.223 156.995  1.00  0.00    -0.003 C 
ATOM     30  C   UNL     1     167.679 151.243 156.071  1.00  0.00     0.004 C 
ENDBRANCH  28  29
ENDBRANCH  27  28
ENDBRANCH  26  27
ENDBRANCH  25  26
ENDBRANCH  24  25
ENDBRANCH  23  24
ENDBRANCH  22  23
ENDBRANCH  20  21
ENDBRANCH  19  20
ENDBRANCH  18  19
ENDBRANCH   1  18
TORSDOF 22
ENDMDL
MODEL 2
REMARK VINA RESULT:      -6.8      1.001      1.798
REMARK SMILES CCCCCCCC/C=C/CCCCCCCC(=O)OC[C@@H](O)COP(=O)([O-])[O-]
REMARK SMILES IDX 14 1 15 2 16 3 17 4 18 5 19 6 20 7 21 8 22 9 24 10 25 11
REMARK SMILES IDX 26 12 27 13 28 14 29 15 23 16 13 18 12 19 11 20 10 21 9 22
REMARK SMILES IDX 8 23 7 24 6 25 5 26 4 27 3 28 2 29 1 30
REMARK H PARENT 23 17
REMARK INDEX MAP 15 1 14 2 13 3 12 4 11 5 5 6 10 7 9 8 8 9 7 10 6 11 3 12 2 13
REMARK INDEX MAP 1 14 4 15 29 16 68 17 16 18 17 19 18 20 19 21 20 22 21 23
REMARK INDEX MAP 22 24 23 25 24 26 25 27 26 28 27 29 28 30
ROOT
ATOM      1  C   UNL     1     174.689 149.589 153.719  1.00  0.00     0.000 C 
ENDROOT
BRANCH   1   2
ATOM      2  C   UNL     1     174.216 150.252 155.009  1.00  0.00     0.001 C 
BRANCH   2   3
ATOM      3  C   UNL     1     174.661 149.418 156.205  1.00  0.00     0.012 C 
BRANCH   3   4
ATOM      4  C   UNL     1     174.680 147.946 155.807  1.00  0.00     0.123 C 
BRANCH   4   5
ATOM      5  C   UNL     1     174.989 147.110 157.043  1.00  0.00     0.305 C 
ATOM      6  O   UNL     1     176.005 147.265 157.632  1.00  0.00    -0.252 OA
BRANCH   5   7
ATOM      7  O   UNL     1     174.067 146.148 157.459  1.00  0.00    -0.463 OA
BRANCH   7   8
ATOM      8  C   UNL     1     174.306 145.674 158.751  1.00  0.00     0.267 C 
BRANCH   8   9
ATOM      9  C   UNL     1     173.439 144.447 159.000  1.00  0.00     0.178 C 
BRANCH   9  10
ATOM     10  C   UNL     1     173.823 143.814 160.331  1.00  0.00     0.201 C 
BRANCH  10  11
ATOM     11  O   UNL     1     174.540 142.642 160.087  1.00  0.00    -0.348 OA
BRANCH  11  12
ATOM     12  P   UNL     1     175.887 142.374 160.988  1.00  0.00     0.060 P 
ATOM     13  O   UNL     1     175.879 143.315 162.165  1.00  0.00    -0.326 OA
ATOM     14  O   UNL     1     177.112 142.628 160.144  1.00  0.00    -0.790 OA
ATOM     15  O   UNL     1     175.889 140.943 161.467  1.00  0.00    -0.790 OA
ENDBRANCH  11  12
ENDBRANCH  10  11
ENDBRANCH   9  10
BRANCH   9  16
ATOM     16  O   UNL     1     173.642 143.521 157.971  1.00  0.00    -0.387 OA
ATOM     17  H   UNL     1     173.447 143.938 157.118  1.00  0.00     0.211 HD
ENDBRANCH   9  16
ENDBRANCH   8   9
ENDBRANCH   7   8
ENDBRANCH   5   7
ENDBRANCH   4   5
ENDBRANCH   3   4
ENDBRANCH   2   3
ENDBRANCH   1   2
BRANCH   1  18
ATOM     18  C   UNL     1     173.527 149.476 152.735  1.00  0.00     0.000 C 
BRANCH  18  19
ATOM     19  C   UNL     1     172.970 150.873 152.473  1.00  0.00     0.004 C 
BRANCH  19  20
ATOM     20  C   UNL     1     171.448 150.890 152.601  1.00  0.00     0.027 C 
BRANCH  20  21
ATOM     21  C   UNL     1     171.017 149.923 153.699  1.00  0.00    -0.031 C 
ATOM     22  C   UNL     1     170.357 150.371 154.742  1.00  0.00    -0.031 C 
BRANCH  22  23
ATOM     23  C   UNL     1     169.924 149.407 155.840  1.00  0.00     0.027 C 
BRANCH  23  24
ATOM     24  C   UNL     1     171.118 148.561 156.271  1.00  0.00     0.004 C 
BRANCH  24  25
ATOM     25  C   UNL     1     171.359 148.709 157.771  1.00  0.00     0.000 C 
BRANCH  25  26
ATOM     26  C   UNL     1     171.582 150.178 158.119  1.00  0.00     0.000 C 
BRANCH  26  27
ATOM     27  C   UNL     1     170.808 150.549 159.378  1.00  0.00    -0.000 C 
BRANCH  27  28
ATOM     28  C   UNL     1     169.644 151.433 158.948  1.00  0.00    -0.000 C 
BRANCH  28  29
ATOM     29  C   UNL     1     170.107 152.465 157.928  1.00  0.00    -0.003 C 
ATOM     30  C   UNL     1     168.937 152.786 157.005  1.00  0.00     0.004 C 
ENDBRANCH  28  29
ENDBRANCH  27  28
ENDBRANCH  26  27
ENDBRANCH  25  26
ENDBRANCH  24  25
ENDBRANCH  23  24
ENDBRANCH  22  23
ENDBRANCH  20  21
ENDBRANCH  19  20
ENDBRANCH  18  19
ENDBRANCH   1  18
TORSDOF 22
ENDMDL
MODEL 3
REMARK VINA RESULT:      -6.8      1.352      4.435
REMARK SMILES CCCCCCCC/C=C/CCCCCCCC(=O)OC[C@@H](O)COP(=O)([O-])[O-]
REMARK SMILES IDX 14 1 15 2 16 3 17 4 18 5 19 6 20 7 21 8 22 9 24 10 25 11
REMARK SMILES IDX 26 12 27 13 28 14 29 15 23 16 13 18 12 19 11 20 10 21 9 22
REMARK SMILES IDX 8 23 7 24 6 25 5 26 4 27 3 28 2 29 1 30
REMARK H PARENT 23 17
REMARK INDEX MAP 15 1 14 2 13 3 12 4 11 5 5 6 10 7 9 8 8 9 7 10 6 11 3 12 2 13
REMARK INDEX MAP 1 14 4 15 29 16 68 17 16 18 17 19 18 20 19 21 20 22 21 23
REMARK INDEX MAP 22 24 23 25 24 26 25 27 26 28 27 29 28 30
ROOT
ATOM      1  C   UNL     1     172.580 150.311 158.485  1.00  0.00     0.000 C 
ENDROOT
BRANCH   1   2
ATOM      2  C   UNL     1     171.732 149.068 158.739  1.00  0.00     0.001 C 
BRANCH   2   3
ATOM      3  C   UNL     1     172.172 147.948 157.805  1.00  0.00     0.012 C 
BRANCH   3   4
ATOM      4  C   UNL     1     173.014 148.541 156.679  1.00  0.00     0.123 C 
BRANCH   4   5
ATOM      5  C   UNL     1     174.447 148.041 156.827  1.00  0.00     0.305 C 
ATOM      6  O   UNL     1     175.358 148.784 156.688  1.00  0.00    -0.252 OA
BRANCH   5   7
ATOM      7  O   UNL     1     174.668 146.691 157.109  1.00  0.00    -0.463 OA
BRANCH   7   8
ATOM      8  C   UNL     1     175.614 146.485 158.115  1.00  0.00     0.267 C 
BRANCH   8   9
ATOM      9  C   UNL     1     176.245 145.110 157.930  1.00  0.00     0.178 C 
BRANCH   9  10
ATOM     10  C   UNL     1     175.579 144.114 158.869  1.00  0.00     0.201 C 
BRANCH  10  11
ATOM     11  O   UNL     1     176.554 143.270 159.402  1.00  0.00    -0.348 OA
BRANCH  11  12
ATOM     12  P   UNL     1     176.252 142.590 160.866  1.00  0.00     0.060 P 
ATOM     13  O   UNL     1     177.551 142.462 161.620  1.00  0.00    -0.326 OA
ATOM     14  O   UNL     1     175.645 141.223 160.667  1.00  0.00    -0.790 OA
ATOM     15  O   UNL     1     175.290 143.464 161.632  1.00  0.00    -0.790 OA
ENDBRANCH  11  12
ENDBRANCH  10  11
ENDBRANCH   9  10
BRANCH   9  16
ATOM     16  O   UNL     1     177.610 145.185 158.225  1.00  0.00    -0.387 OA
ATOM     17  H   UNL     1     178.009 145.916 157.729  1.00  0.00     0.211 HD
ENDBRANCH   9  16
ENDBRANCH   8   9
ENDBRANCH   7   8
ENDBRANCH   5   7
ENDBRANCH   4   5
ENDBRANCH   3   4
ENDBRANCH   2   3
ENDBRANCH   1   2
BRANCH   1  18
ATOM     18  C   UNL     1     171.823 151.559 158.934  1.00  0.00     0.000 C 
BRANCH  18  19
ATOM     19  C   UNL     1     170.614 151.128 159.760  1.00  0.00     0.004 C 
BRANCH  19  20
ATOM     20  C   UNL     1     169.549 152.223 159.786  1.00  0.00     0.027 C 
BRANCH  20  21
ATOM     21  C   UNL     1     168.494 151.935 158.723  1.00  0.00    -0.031 C 
ATOM     22  C   UNL     1     168.850 151.819 157.464  1.00  0.00    -0.031 C 
BRANCH  22  23
ATOM     23  C   UNL     1     167.798 151.530 156.400  1.00  0.00     0.027 C 
BRANCH  23  24
ATOM     24  C   UNL     1     168.419 150.690 155.288  1.00  0.00     0.004 C 
BRANCH  24  25
ATOM     25  C   UNL     1     169.887 150.404 155.597  1.00  0.00     0.000 C 
BRANCH  25  26
ATOM     26  C   UNL     1     170.772 150.992 154.501  1.00  0.00     0.000 C 
BRANCH  26  27
ATOM     27  C   UNL     1     171.538 149.884 153.788  1.00  0.00    -0.000 C 
BRANCH  27  28
ATOM     28  C   UNL     1     172.940 150.411 153.511  1.00  0.00    -0.000 C 
BRANCH  28  29
ATOM     29  C   UNL     1     173.250 150.345 152.021  1.00  0.00    -0.003 C 
ATOM     30  C   UNL     1     172.481 151.460 151.321  1.00  0.00     0.004 C 
ENDBRANCH  28  29
ENDBRANCH  27  28
ENDBRANCH  26  27
ENDBRANCH  25  26
ENDBRANCH  24  25
ENDBRANCH  23  24
ENDBRANCH  22  23
ENDBRANCH  20  21
ENDBRANCH  19  20
ENDBRANCH  18  19
ENDBRANCH   1  18
TORSDOF 22
ENDMDL
MODEL 4
REMARK VINA RESULT:      -6.8      1.680      3.023
REMARK SMILES CCCCCCCC/C=C/CCCCCCCC(=O)OC[C@@H](O)COP(=O)([O-])[O-]
REMARK SMILES IDX 14 1 15 2 16 3 17 4 18 5 19 6 20 7 21 8 22 9 24 10 25 11
REMARK SMILES IDX 26 12 27 13 28 14 29 15 23 16 13 18 12 19 11 20 10 21 9 22
REMARK SMILES IDX 8 23 7 24 6 25 5 26 4 27 3 28 2 29 1 30
REMARK H PARENT 23 17
REMARK INDEX MAP 15 1 14 2 13 3 12 4 11 5 5 6 10 7 9 8 8 9 7 10 6 11 3 12 2 13
REMARK INDEX MAP 1 14 4 15 29 16 68 17 16 18 17 19 18 20 19 21 20 22 21 23
REMARK INDEX MAP 22 24 23 25 24 26 25 27 26 28 27 29 28 30
ROOT
ATOM      1  C   UNL     1     172.879 150.550 153.801  1.00  0.00     0.000 C 
ENDROOT
BRANCH   1   2
ATOM      2  C   UNL     1     173.570 149.568 152.859  1.00  0.00     0.001 C 
BRANCH   2   3
ATOM      3  C   UNL     1     174.270 148.486 153.672  1.00  0.00     0.012 C 
BRANCH   3   4
ATOM      4  C   UNL     1     173.612 148.392 155.045  1.00  0.00     0.123 C 
BRANCH   4   5
ATOM      5  C   UNL     1     174.703 148.216 156.096  1.00  0.00     0.305 C 
ATOM      6  O   UNL     1     175.054 149.136 156.754  1.00  0.00    -0.252 OA
BRANCH   5   7
ATOM      7  O   UNL     1     175.294 146.962 156.256  1.00  0.00    -0.463 OA
BRANCH   7   8
ATOM      8  C   UNL     1     175.779 146.740 157.547  1.00  0.00     0.267 C 
BRANCH   8   9
ATOM      9  C   UNL     1     176.348 145.329 157.629  1.00  0.00     0.178 C 
BRANCH   9  10
ATOM     10  C   UNL     1     175.516 144.500 158.598  1.00  0.00     0.201 C 
BRANCH  10  11
ATOM     11  O   UNL     1     174.245 145.069 158.708  1.00  0.00    -0.348 OA
BRANCH  11  12
ATOM     12  P   UNL     1     173.640 145.289 160.218  1.00  0.00     0.060 P 
ATOM     13  O   UNL     1     174.783 145.326 161.199  1.00  0.00    -0.326 OA
ATOM     14  O   UNL     1     172.718 144.144 160.559  1.00  0.00    -0.790 OA
ATOM     15  O   UNL     1     172.874 146.587 160.263  1.00  0.00    -0.790 OA
ENDBRANCH  11  12
ENDBRANCH  10  11
ENDBRANCH   9  10
BRANCH   9  16
ATOM     16  O   UNL     1     177.668 145.389 158.087  1.00  0.00    -0.387 OA
ATOM     17  H   UNL     1     178.068 144.507 158.039  1.00  0.00     0.211 HD
ENDBRANCH   9  16
ENDBRANCH   8   9
ENDBRANCH   7   8
ENDBRANCH   5   7
ENDBRANCH   4   5
ENDBRANCH   3   4
ENDBRANCH   2   3
ENDBRANCH   1   2
BRANCH   1  18
ATOM     18  C   UNL     1     171.707 151.220 153.087  1.00  0.00     0.000 C 
BRANCH  18  19
ATOM     19  C   UNL     1     170.561 150.217 152.978  1.00  0.00     0.004 C 
BRANCH  19  20
ATOM     20  C   UNL     1     169.913 149.976 154.340  1.00  0.00     0.027 C 
BRANCH  20  21
ATOM     21  C   UNL     1     169.535 151.313 154.970  1.00  0.00    -0.031 C 
ATOM     22  C   UNL     1     168.528 151.376 155.811  1.00  0.00    -0.031 C 
BRANCH  22  23
ATOM     23  C   UNL     1     168.150 152.711 156.443  1.00  0.00     0.027 C 
BRANCH  23  24
ATOM     24  C   UNL     1     167.466 152.460 157.783  1.00  0.00     0.004 C 
BRANCH  24  25
ATOM     25  C   UNL     1     168.326 151.546 158.654  1.00  0.00     0.000 C 
BRANCH  25  26
ATOM     26  C   UNL     1     169.309 152.380 159.470  1.00  0.00     0.000 C 
BRANCH  26  27
ATOM     27  C   UNL     1     170.735 152.139 158.990  1.00  0.00    -0.000 C 
BRANCH  27  28
ATOM     28  C   UNL     1     171.020 150.651 159.151  1.00  0.00    -0.000 C 
BRANCH  28  29
ATOM     29  C   UNL     1     171.808 150.127 157.958  1.00  0.00    -0.003 C 
ATOM     30  C   UNL     1     171.474 148.651 157.773  1.00  0.00     0.004 C 
ENDBRANCH  28  29
ENDBRANCH  27  28
ENDBRANCH  26  27
ENDBRANCH  25  26
ENDBRANCH  24  25
ENDBRANCH  23  24
ENDBRANCH  22  23
ENDBRANCH  20  21
ENDBRANCH  19  20
ENDBRANCH  18  19
ENDBRANCH   1  18
TORSDOF 22
ENDMDL
MODEL 5
REMARK VINA RESULT:      -6.7      1.142      1.667
REMARK SMILES CCCCCCCC/C=C/CCCCCCCC(=O)OC[C@@H](O)COP(=O)([O-])[O-]
REMARK SMILES IDX 14 1 15 2 16 3 17 4 18 5 19 6 20 7 21 8 22 9 24 10 25 11
REMARK SMILES IDX 26 12 27 13 28 14 29 15 23 16 13 18 12 19 11 20 10 21 9 22
REMARK SMILES IDX 8 23 7 24 6 25 5 26 4 27 3 28 2 29 1 30
REMARK H PARENT 23 17
REMARK INDEX MAP 15 1 14 2 13 3 12 4 11 5 5 6 10 7 9 8 8 9 7 10 6 11 3 12 2 13
REMARK INDEX MAP 1 14 4 15 29 16 68 17 16 18 17 19 18 20 19 21 20 22 21 23
REMARK INDEX MAP 22 24 23 25 24 26 25 27 26 28 27 29 28 30
ROOT
ATOM      1  C   UNL     1     172.604 150.815 152.876  1.00  0.00     0.000 C 
ENDROOT
BRANCH   1   2
ATOM      2  C   UNL     1     173.324 149.488 153.102  1.00  0.00     0.001 C 
BRANCH   2   3
ATOM      3  C   UNL     1     174.261 149.612 154.298  1.00  0.00     0.012 C 
BRANCH   3   4
ATOM      4  C   UNL     1     174.409 148.245 154.959  1.00  0.00     0.123 C 
BRANCH   4   5
ATOM      5  C   UNL     1     174.803 148.449 156.417  1.00  0.00     0.305 C 
ATOM      6  O   UNL     1     175.406 149.414 156.745  1.00  0.00    -0.252 OA
BRANCH   5   7
ATOM      7  O   UNL     1     174.462 147.473 157.355  1.00  0.00    -0.463 OA
BRANCH   7   8
ATOM      8  C   UNL     1     175.561 146.756 157.832  1.00  0.00     0.267 C 
BRANCH   8   9
ATOM      9  C   UNL     1     175.227 145.269 157.826  1.00  0.00     0.178 C 
BRANCH   9  10
ATOM     10  C   UNL     1     174.738 144.853 159.207  1.00  0.00     0.201 C 
BRANCH  10  11
ATOM     11  O   UNL     1     174.717 143.459 159.281  1.00  0.00    -0.348 OA
BRANCH  11  12
ATOM     12  P   UNL     1     175.669 142.746 160.413  1.00  0.00     0.060 P 
ATOM     13  O   UNL     1     177.074 142.648 159.875  1.00  0.00    -0.326 OA
ATOM     14  O   UNL     1     175.143 141.362 160.708  1.00  0.00    -0.790 OA
ATOM     15  O   UNL     1     175.651 143.574 161.673  1.00  0.00    -0.790 OA
ENDBRANCH  11  12
ENDBRANCH  10  11
ENDBRANCH   9  10
BRANCH   9  16
ATOM     16  O   UNL     1     176.374 144.539 157.501  1.00  0.00    -0.387 OA
ATOM     17  H   UNL     1     176.432 144.440 156.538  1.00  0.00     0.211 HD
ENDBRANCH   9  16
ENDBRANCH   8   9
ENDBRANCH   7   8
ENDBRANCH   5   7
ENDBRANCH   4   5
ENDBRANCH   3   4
ENDBRANCH   2   3
ENDBRANCH   1   2
BRANCH   1  18
ATOM     18  C   UNL     1     171.488 150.983 153.905  1.00  0.00     0.000 C 
BRANCH  18  19
ATOM     19  C   UNL     1     170.299 150.123 153.484  1.00  0.00     0.004 C 
BRANCH  19  20
ATOM     20  C   UNL     1     169.922 149.134 154.584  1.00  0.00     0.027 C 
BRANCH  20  21
ATOM     21  C   UNL     1     170.960 149.188 155.700  1.00  0.00    -0.031 C 
ATOM     22  C   UNL     1     170.571 149.216 156.954  1.00  0.00    -0.031 C 
BRANCH  22  23
ATOM     23  C   UNL     1     171.607 149.268 158.070  1.00  0.00     0.027 C 
BRANCH  23  24
ATOM     24  C   UNL     1     171.078 150.130 159.212  1.00  0.00     0.004 C 
BRANCH  24  25
ATOM     25  C   UNL     1     171.486 151.588 159.009  1.00  0.00     0.000 C 
BRANCH  25  26
ATOM     26  C   UNL     1     170.243 152.454 158.826  1.00  0.00     0.000 C 
BRANCH  26  27
ATOM     27  C   UNL     1     168.982 151.612 158.982  1.00  0.00    -0.000 C 
BRANCH  27  28
ATOM     28  C   UNL     1     167.908 152.241 158.103  1.00  0.00    -0.000 C 
BRANCH  28  29
ATOM     29  C   UNL     1     168.229 152.023 156.631  1.00  0.00    -0.003 C 
ATOM     30  C   UNL     1     168.302 153.385 155.948  1.00  0.00     0.004 C 
ENDBRANCH  28  29
ENDBRANCH  27  28
ENDBRANCH  26  27
ENDBRANCH  25  26
ENDBRANCH  24  25
ENDBRANCH  23  24
ENDBRANCH  22  23
ENDBRANCH  20  21
ENDBRANCH  19  20
ENDBRANCH  18  19
ENDBRANCH   1  18
TORSDOF 22
ENDMDL
MODEL 6
REMARK VINA RESULT:      -6.7      1.141      1.596
REMARK SMILES CCCCCCCC/C=C/CCCCCCCC(=O)OC[C@@H](O)COP(=O)([O-])[O-]
REMARK SMILES IDX 14 1 15 2 16 3 17 4 18 5 19 6 20 7 21 8 22 9 24 10 25 11
REMARK SMILES IDX 26 12 27 13 28 14 29 15 23 16 13 18 12 19 11 20 10 21 9 22
REMARK SMILES IDX 8 23 7 24 6 25 5 26 4 27 3 28 2 29 1 30
REMARK H PARENT 23 17
REMARK INDEX MAP 15 1 14 2 13 3 12 4 11 5 5 6 10 7 9 8 8 9 7 10 6 11 3 12 2 13
REMARK INDEX MAP 1 14 4 15 29 16 68 17 16 18 17 19 18 20 19 21 20 22 21 23
REMARK INDEX MAP 22 24 23 25 24 26 25 27 26 28 27 29 28 30
ROOT
ATOM      1  C   UNL     1     172.852 151.021 152.418  1.00  0.00     0.000 C 
ENDROOT
BRANCH   1   2
ATOM      2  C   UNL     1     173.663 149.750 152.661  1.00  0.00     0.001 C 
BRANCH   2   3
ATOM      3  C   UNL     1     174.103 149.696 154.119  1.00  0.00     0.012 C 
BRANCH   3   4
ATOM      4  C   UNL     1     174.319 148.241 154.520  1.00  0.00     0.123 C 
BRANCH   4   5
ATOM      5  C   UNL     1     174.803 148.201 155.965  1.00  0.00     0.305 C 
ATOM      6  O   UNL     1     174.962 149.206 156.571  1.00  0.00    -0.252 OA
BRANCH   5   7
ATOM      7  O   UNL     1     175.074 146.965 156.556  1.00  0.00    -0.463 OA
BRANCH   7   8
ATOM      8  C   UNL     1     174.255 146.684 157.650  1.00  0.00     0.267 C 
BRANCH   8   9
ATOM      9  C   UNL     1     175.046 145.874 158.670  1.00  0.00     0.178 C 
BRANCH   9  10
ATOM     10  C   UNL     1     174.844 144.388 158.407  1.00  0.00     0.201 C 
BRANCH  10  11
ATOM     11  O   UNL     1     175.704 143.659 159.231  1.00  0.00    -0.348 OA
BRANCH  11  12
ATOM     12  P   UNL     1     175.070 142.994 160.591  1.00  0.00     0.060 P 
ATOM     13  O   UNL     1     175.348 141.513 160.582  1.00  0.00    -0.326 OA
ATOM     14  O   UNL     1     173.579 143.228 160.614  1.00  0.00    -0.790 OA
ATOM     15  O   UNL     1     175.702 143.634 161.801  1.00  0.00    -0.790 OA
ENDBRANCH  11  12
ENDBRANCH  10  11
ENDBRANCH   9  10
BRANCH   9  16
ATOM     16  O   UNL     1     174.594 146.183 159.957  1.00  0.00    -0.387 OA
ATOM     17  H   UNL     1     174.943 145.533 160.587  1.00  0.00     0.211 HD
ENDBRANCH   9  16
ENDBRANCH   8   9
ENDBRANCH   7   8
ENDBRANCH   5   7
ENDBRANCH   4   5
ENDBRANCH   3   4
ENDBRANCH   2   3
ENDBRANCH   1   2
BRANCH   1  18
ATOM     18  C   UNL     1     171.365 150.681 152.333  1.00  0.00     0.000 C 
BRANCH  18  19
ATOM     19  C   UNL     1     170.792 150.635 153.748  1.00  0.00     0.004 C 
BRANCH  19  20
ATOM     20  C   UNL     1     170.117 149.292 154.021  1.00  0.00     0.027 C 
BRANCH  20  21
ATOM     21  C   UNL     1     170.384 148.871 155.463  1.00  0.00    -0.031 C 
ATOM     22  C   UNL     1     171.294 149.500 156.170  1.00  0.00    -0.031 C 
BRANCH  22  23
ATOM     23  C   UNL     1     171.561 149.081 157.611  1.00  0.00     0.027 C 
BRANCH  23  24
ATOM     24  C   UNL     1     172.007 150.297 158.417  1.00  0.00     0.004 C 
BRANCH  24  25
ATOM     25  C   UNL     1     171.009 150.585 159.537  1.00  0.00     0.000 C 
BRANCH  25  26
ATOM     26  C   UNL     1     169.722 151.156 158.949  1.00  0.00     0.000 C 
BRANCH  26  27
ATOM     27  C   UNL     1     170.010 152.453 158.201  1.00  0.00    -0.000 C 
BRANCH  27  28
ATOM     28  C   UNL     1     168.749 152.816 157.426  1.00  0.00    -0.000 C 
BRANCH  28  29
ATOM     29  C   UNL     1     168.806 152.243 156.017  1.00  0.00    -0.003 C 
ATOM     30  C   UNL     1     167.652 151.260 155.851  1.00  0.00     0.004 C 
ENDBRANCH  28  29
ENDBRANCH  27  28
ENDBRANCH  26  27
ENDBRANCH  25  26
ENDBRANCH  24  25
ENDBRANCH  23  24
ENDBRANCH  22  23
ENDBRANCH  20  21
ENDBRANCH  19  20
ENDBRANCH  18  19
ENDBRANCH   1  18
TORSDOF 22
ENDMDL
MODEL 7
REMARK VINA RESULT:      -6.7      1.335      2.644
REMARK SMILES CCCCCCCC/C=C/CCCCCCCC(=O)OC[C@@H](O)COP(=O)([O-])[O-]
REMARK SMILES IDX 14 1 15 2 16 3 17 4 18 5 19 6 20 7 21 8 22 9 24 10 25 11
REMARK SMILES IDX 26 12 27 13 28 14 29 15 23 16 13 18 12 19 11 20 10 21 9 22
REMARK SMILES IDX 8 23 7 24 6 25 5 26 4 27 3 28 2 29 1 30
REMARK H PARENT 23 17
REMARK INDEX MAP 15 1 14 2 13 3 12 4 11 5 5 6 10 7 9 8 8 9 7 10 6 11 3 12 2 13
REMARK INDEX MAP 1 14 4 15 29 16 68 17 16 18 17 19 18 20 19 21 20 22 21 23
REMARK INDEX MAP 22 24 23 25 24 26 25 27 26 28 27 29 28 30
ROOT
ATOM      1  C   UNL     1     171.216 148.393 155.761  1.00  0.00     0.000 C 
ENDROOT
BRANCH   1   2
ATOM      2  C   UNL     1     172.348 147.713 156.527  1.00  0.00     0.001 C 
BRANCH   2   3
ATOM      3  C   UNL     1     173.604 147.686 155.666  1.00  0.00     0.012 C 
BRANCH   3   4
ATOM      4  C   UNL     1     174.813 148.015 156.537  1.00  0.00     0.123 C 
BRANCH   4   5
ATOM      5  C   UNL     1     175.211 146.763 157.310  1.00  0.00     0.305 C 
ATOM      6  O   UNL     1     176.344 146.571 157.595  1.00  0.00    -0.252 OA
BRANCH   5   7
ATOM      7  O   UNL     1     174.224 145.839 157.659  1.00  0.00    -0.463 OA
BRANCH   7   8
ATOM      8  C   UNL     1     174.409 145.284 158.927  1.00  0.00     0.267 C 
BRANCH   8   9
ATOM      9  C   UNL     1     173.453 144.111 159.102  1.00  0.00     0.178 C 
BRANCH   9  10
ATOM     10  C   UNL     1     173.723 143.429 160.436  1.00  0.00     0.201 C 
BRANCH  10  11
ATOM     11  O   UNL     1     174.354 142.206 160.202  1.00  0.00    -0.348 OA
BRANCH  11  12
ATOM     12  P   UNL     1     175.775 141.925 160.976  1.00  0.00     0.060 P 
ATOM     13  O   UNL     1     176.041 140.441 160.979  1.00  0.00    -0.326 OA
ATOM     14  O   UNL     1     175.676 142.423 162.398  1.00  0.00    -0.790 OA
ATOM     15  O   UNL     1     176.885 142.651 160.260  1.00  0.00    -0.790 OA
ENDBRANCH  11  12
ENDBRANCH  10  11
ENDBRANCH   9  10
BRANCH   9  16
ATOM     16  O   UNL     1     173.651 143.195 158.064  1.00  0.00    -0.387 OA
ATOM     17  H   UNL     1     174.562 142.865 158.093  1.00  0.00     0.211 HD
ENDBRANCH   9  16
ENDBRANCH   8   9
ENDBRANCH   7   8
ENDBRANCH   5   7
ENDBRANCH   4   5
ENDBRANCH   3   4
ENDBRANCH   2   3
ENDBRANCH   1   2
BRANCH   1  18
ATOM     18  C   UNL     1     171.553 148.445 154.272  1.00  0.00     0.000 C 
BRANCH  18  19
ATOM     19  C   UNL     1     170.889 149.677 153.662  1.00  0.00     0.004 C 
BRANCH  19  20
ATOM     20  C   UNL     1     171.255 150.938 154.442  1.00  0.00     0.027 C 
BRANCH  20  21
ATOM     21  C   UNL     1     170.055 151.396 155.266  1.00  0.00    -0.031 C 
ATOM     22  C   UNL     1     168.904 150.775 155.143  1.00  0.00    -0.031 C 
BRANCH  22  23
ATOM     23  C   UNL     1     167.705 151.230 155.967  1.00  0.00     0.027 C 
BRANCH  23  24
ATOM     24  C   UNL     1     168.137 152.338 156.923  1.00  0.00     0.004 C 
BRANCH  24  25
ATOM     25  C   UNL     1     167.788 151.963 158.361  1.00  0.00     0.000 C 
BRANCH  25  26
ATOM     26  C   UNL     1     169.037 152.038 159.235  1.00  0.00     0.000 C 
BRANCH  26  27
ATOM     27  C   UNL     1     170.027 150.948 158.840  1.00  0.00    -0.000 C 
BRANCH  27  28
ATOM     28  C   UNL     1     171.366 151.627 158.580  1.00  0.00    -0.000 C 
BRANCH  28  29
ATOM     29  C   UNL     1     172.502 150.617 158.667  1.00  0.00    -0.003 C 
ATOM     30  C   UNL     1     173.559 150.992 157.634  1.00  0.00     0.004 C 
ENDBRANCH  28  29
ENDBRANCH  27  28
ENDBRANCH  26  27
ENDBRANCH  25  26
ENDBRANCH  24  25
ENDBRANCH  23  24
ENDBRANCH  22  23
ENDBRANCH  20  21
ENDBRANCH  19  20
ENDBRANCH  18  19
ENDBRANCH   1  18
TORSDOF 22
ENDMDL
MODEL 8
REMARK VINA RESULT:      -6.7      1.362      2.496
REMARK SMILES CCCCCCCC/C=C/CCCCCCCC(=O)OC[C@@H](O)COP(=O)([O-])[O-]
REMARK SMILES IDX 14 1 15 2 16 3 17 4 18 5 19 6 20 7 21 8 22 9 24 10 25 11
REMARK SMILES IDX 26 12 27 13 28 14 29 15 23 16 13 18 12 19 11 20 10 21 9 22
REMARK SMILES IDX 8 23 7 24 6 25 5 26 4 27 3 28 2 29 1 30
REMARK H PARENT 23 17
REMARK INDEX MAP 15 1 14 2 13 3 12 4 11 5 5 6 10 7 9 8 8 9 7 10 6 11 3 12 2 13
REMARK INDEX MAP 1 14 4 15 29 16 68 17 16 18 17 19 18 20 19 21 20 22 21 23
REMARK INDEX MAP 22 24 23 25 24 26 25 27 26 28 27 29 28 30
ROOT
ATOM      1  C   UNL     1     173.616 148.752 153.627  1.00  0.00     0.000 C 
ENDROOT
BRANCH   1   2
ATOM      2  C   UNL     1     174.153 149.083 155.018  1.00  0.00     0.001 C 
BRANCH   2   3
ATOM      3  C   UNL     1     174.833 147.854 155.608  1.00  0.00     0.012 C 
BRANCH   3   4
ATOM      4  C   UNL     1     175.202 148.138 157.061  1.00  0.00     0.123 C 
BRANCH   4   5
ATOM      5  C   UNL     1     175.385 146.810 157.787  1.00  0.00     0.305 C 
ATOM      6  O   UNL     1     176.426 146.247 157.750  1.00  0.00    -0.252 OA
BRANCH   5   7
ATOM      7  O   UNL     1     174.304 146.260 158.476  1.00  0.00    -0.463 OA
BRANCH   7   8
ATOM      8  C   UNL     1     174.685 145.477 159.568  1.00  0.00     0.267 C 
BRANCH   8   9
ATOM      9  C   UNL     1     174.314 144.025 159.293  1.00  0.00     0.178 C 
BRANCH   9  10
ATOM     10  C   UNL     1     174.364 143.232 160.592  1.00  0.00     0.201 C 
BRANCH  10  11
ATOM     11  O   UNL     1     175.591 143.461 161.217  1.00  0.00    -0.348 OA
BRANCH  11  12
ATOM     12  P   UNL     1     176.511 142.151 161.584  1.00  0.00     0.060 P 
ATOM     13  O   UNL     1     175.758 141.287 162.563  1.00  0.00    -0.326 OA
ATOM     14  O   UNL     1     177.807 142.609 162.207  1.00  0.00    -0.790 OA
ATOM     15  O   UNL     1     176.801 141.376 160.323  1.00  0.00    -0.790 OA
ENDBRANCH  11  12
ENDBRANCH  10  11
ENDBRANCH   9  10
BRANCH   9  16
ATOM     16  O   UNL     1     175.224 143.480 158.382  1.00  0.00    -0.387 OA
ATOM     17  H   UNL     1     176.127 143.703 158.654  1.00  0.00     0.211 HD
ENDBRANCH   9  16
ENDBRANCH   8   9
ENDBRANCH   7   8
ENDBRANCH   5   7
ENDBRANCH   4   5
ENDBRANCH   3   4
ENDBRANCH   2   3
ENDBRANCH   1   2
BRANCH   1  18
ATOM     18  C   UNL     1     172.226 148.130 153.740  1.00  0.00     0.000 C 
BRANCH  18  19
ATOM     19  C   UNL     1     171.407 148.942 154.741  1.00  0.00     0.004 C 
BRANCH  19  20
ATOM     20  C   UNL     1     170.641 150.062 154.041  1.00  0.00     0.027 C 
BRANCH  20  21
ATOM     21  C   UNL     1     169.615 150.658 155.000  1.00  0.00    -0.031 C 
ATOM     22  C   UNL     1     169.594 151.954 155.212  1.00  0.00    -0.031 C 
BRANCH  22  23
ATOM     23  C   UNL     1     168.569 152.551 156.168  1.00  0.00     0.027 C 
BRANCH  23  24
ATOM     24  C   UNL     1     167.942 151.435 157.000  1.00  0.00     0.004 C 
BRANCH  24  25
ATOM     25  C   UNL     1     168.349 151.574 158.465  1.00  0.00     0.000 C 
BRANCH  25  26
ATOM     26  C   UNL     1     169.640 152.381 158.571  1.00  0.00     0.000 C 
BRANCH  26  27
ATOM     27  C   UNL     1     170.535 151.810 159.665  1.00  0.00    -0.000 C 
BRANCH  27  28
ATOM     28  C   UNL     1     170.784 150.346 159.325  1.00  0.00    -0.000 C 
BRANCH  28  29
ATOM     29  C   UNL     1     171.680 150.227 158.100  1.00  0.00    -0.003 C 
ATOM     30  C   UNL     1     172.984 150.965 158.386  1.00  0.00     0.004 C 
ENDBRANCH  28  29
ENDBRANCH  27  28
ENDBRANCH  26  27
ENDBRANCH  25  26
ENDBRANCH  24  25
ENDBRANCH  23  24
ENDBRANCH  22  23
ENDBRANCH  20  21
ENDBRANCH  19  20
ENDBRANCH  18  19
ENDBRANCH   1  18
TORSDOF 22
ENDMDL
MODEL 9
REMARK VINA RESULT:      -6.6      1.513      2.853
REMARK SMILES CCCCCCCC/C=C/CCCCCCCC(=O)OC[C@@H](O)COP(=O)([O-])[O-]
REMARK SMILES IDX 14 1 15 2 16 3 17 4 18 5 19 6 20 7 21 8 22 9 24 10 25 11
REMARK SMILES IDX 26 12 27 13 28 14 29 15 23 16 13 18 12 19 11 20 10 21 9 22
REMARK SMILES IDX 8 23 7 24 6 25 5 26 4 27 3 28 2 29 1 30
REMARK H PARENT 23 17
REMARK INDEX MAP 15 1 14 2 13 3 12 4 11 5 5 6 10 7 9 8 8 9 7 10 6 11 3 12 2 13
REMARK INDEX MAP 1 14 4 15 29 16 68 17 16 18 17 19 18 20 19 21 20 22 21 23
REMARK INDEX MAP 22 24 23 25 24 26 25 27 26 28 27 29 28 30
ROOT
ATOM      1  C   UNL     1     173.887 149.240 154.447  1.00  0.00     0.000 C 
ENDROOT
BRANCH   1   2
ATOM      2  C   UNL     1     173.878 148.693 155.873  1.00  0.00     0.001 C 
BRANCH   2   3
ATOM      3  C   UNL     1     172.632 147.843 156.086  1.00  0.00     0.012 C 
BRANCH   3   4
ATOM      4  C   UNL     1     172.450 147.591 157.579  1.00  0.00     0.123 C 
BRANCH   4   5
ATOM      5  C   UNL     1     173.008 146.213 157.913  1.00  0.00     0.305 C 
ATOM      6  O   UNL     1     172.454 145.236 157.539  1.00  0.00    -0.252 OA
BRANCH   5   7
ATOM      7  O   UNL     1     174.169 146.120 158.683  1.00  0.00    -0.463 OA
BRANCH   7   8
ATOM      8  C   UNL     1     174.920 144.973 158.415  1.00  0.00     0.267 C 
BRANCH   8   9
ATOM      9  C   UNL     1     174.640 143.931 159.490  1.00  0.00     0.178 C 
BRANCH   9  10
ATOM     10  C   UNL     1     175.954 143.332 159.973  1.00  0.00     0.201 C 
BRANCH  10  11
ATOM     11  O   UNL     1     175.863 143.080 161.343  1.00  0.00    -0.348 OA
BRANCH  11  12
ATOM     12  P   UNL     1     176.346 141.604 161.877  1.00  0.00     0.060 P 
ATOM     13  O   UNL     1     177.848 141.600 162.001  1.00  0.00    -0.326 OA
ATOM     14  O   UNL     1     175.917 140.549 160.886  1.00  0.00    -0.790 OA
ATOM     15  O   UNL     1     175.712 141.328 163.217  1.00  0.00    -0.790 OA
ENDBRANCH  11  12
ENDBRANCH  10  11
ENDBRANCH   9  10
BRANCH   9  16
ATOM     16  O   UNL     1     173.837 142.919 158.955  1.00  0.00    -0.387 OA
ATOM     17  H   UNL     1     174.326 142.451 158.260  1.00  0.00     0.211 HD
ENDBRANCH   9  16
ENDBRANCH   8   9
ENDBRANCH   7   8
ENDBRANCH   5   7
ENDBRANCH   4   5
ENDBRANCH   3   4
ENDBRANCH   2   3
ENDBRANCH   1   2
BRANCH   1  18
ATOM     18  C   UNL     1     173.052 150.516 154.373  1.00  0.00     0.000 C 
BRANCH  18  19
ATOM     19  C   UNL     1     172.104 150.414 153.181  1.00  0.00     0.004 C 
BRANCH  19  20
ATOM     20  C   UNL     1     170.888 149.555 153.520  1.00  0.00     0.027 C 
BRANCH  20  21
ATOM     21  C   UNL     1     170.131 150.178 154.688  1.00  0.00    -0.031 C 
ATOM     22  C   UNL     1     168.837 150.379 154.594  1.00  0.00    -0.031 C 
BRANCH  22  23
ATOM     23  C   UNL     1     168.078 151.000 155.761  1.00  0.00     0.027 C 
BRANCH  23  24
ATOM     24  C   UNL     1     168.657 152.378 156.066  1.00  0.00     0.004 C 
BRANCH  24  25
ATOM     25  C   UNL     1     168.385 152.757 157.520  1.00  0.00     0.000 C 
BRANCH  25  26
ATOM     26  C   UNL     1     169.672 152.652 158.333  1.00  0.00     0.000 C 
BRANCH  26  27
ATOM     27  C   UNL     1     169.644 151.407 159.212  1.00  0.00    -0.000 C 
BRANCH  27  28
ATOM     28  C   UNL     1     170.709 150.456 158.680  1.00  0.00    -0.000 C 
BRANCH  28  29
ATOM     29  C   UNL     1     171.720 151.210 157.827  1.00  0.00    -0.003 C 
ATOM     30  C   UNL     1     173.071 151.165 158.531  1.00  0.00     0.004 C 
ENDBRANCH  28  29
ENDBRANCH  27  28
ENDBRANCH  26  27
ENDBRANCH  25  26
ENDBRANCH  24  25
ENDBRANCH  23  24
ENDBRANCH  22  23
ENDBRANCH  20  21
ENDBRANCH  19  20
ENDBRANCH  18  19
ENDBRANCH   1  18
TORSDOF 22
ENDMDL
