MODEL 1
REMARK VINA RESULT:      -9.6      0.000      0.000
REMARK SMILES COC(=O)c1cn(C[C@H](CC2Cc3ccccc3C2)[C@H](O)c2cc(OC)c(C)c(OC)c2)cc1CC(=O)[O-]
REMARK SMILES IDX 8 1 7 2 5 3 34 4 6 5 33 6 3 7 4 8 2 9 1 10 35 11 36 12 37 13
REMARK SMILES IDX 38 14 9 15 20 16 21 17 22 19 32 20 23 21 29 22 24 23 27 24
REMARK SMILES IDX 28 25 30 26 31 27 25 28 26 29 10 30 11 31 12 32 19 33 13 34
REMARK SMILES IDX 18 35 14 36 17 37 15 38 16 39
REMARK H PARENT 21 18
REMARK INDEX MAP 14 1 13 2 5 3 6 4 12 5 11 6 2 7 1 8 3 9 4 10 7 11 8 12 9 13
REMARK INDEX MAP 10 14 15 15 16 16 17 17 50 18 18 19 19 20 20 21 26 22 21 23
REMARK INDEX MAP 24 24 25 25 27 26 28 27 22 28 23 29 29 30 30 31 31 32 38 33
REMARK INDEX MAP 32 34 37 35 33 36 36 37 34 38 35 39
ROOT
ATOM      1  C   UNL     1     171.867 146.701 160.214  1.00  0.00     0.128 C 
ENDROOT
BRANCH   1   2
ATOM      2  N   UNL     1     172.772 145.894 161.023  1.00  0.00    -0.353 N 
ATOM      3  C   UNL     1     174.244 145.347 162.603  1.00  0.00     0.081 A 
ATOM      4  C   UNL     1     174.100 144.210 161.728  1.00  0.00    -0.010 A 
ATOM      5  C   UNL     1     173.415 146.356 162.147  1.00  0.00     0.101 A 
ATOM      6  C   UNL     1     173.178 144.584 160.763  1.00  0.00     0.090 A 
BRANCH   3   7
ATOM      7  C   UNL     1     175.065 145.514 163.782  1.00  0.00     0.339 C 
ATOM      8  O   UNL     1     175.695 144.655 164.406  1.00  0.00    -0.246 OA
BRANCH   7   9
ATOM      9  O   UNL     1     175.111 146.851 164.141  1.00  0.00    -0.465 OA
ATOM     10  C   UNL     1     176.106 147.344 164.998  1.00  0.00     0.282 C 
ENDBRANCH   7   9
ENDBRANCH   3   7
BRANCH   4  11
ATOM     11  C   UNL     1     174.767 142.887 161.792  1.00  0.00     0.090 C 
BRANCH  11  12
ATOM     12  C   UNL     1     176.195 142.852 161.113  1.00  0.00     0.046 C 
ATOM     13  O   UNL     1     176.222 143.086 159.882  1.00  0.00    -0.550 OA
ATOM     14  O   UNL     1     177.206 142.610 161.825  1.00  0.00    -0.550 OA
ENDBRANCH  11  12
ENDBRANCH   4  11
ENDBRANCH   1   2
BRANCH   1  15
ATOM     15  C   UNL     1     172.489 147.694 159.194  1.00  0.00     0.042 C 
BRANCH  15  16
ATOM     16  C   UNL     1     173.266 146.984 157.993  1.00  0.00     0.149 C 
BRANCH  16  17
ATOM     17  O   UNL     1     174.602 146.695 158.334  1.00  0.00    -0.388 OA
ATOM     18  H   UNL     1     175.113 147.519 158.367  1.00  0.00     0.211 HD
ENDBRANCH  16  17
BRANCH  16  19
ATOM     19  C   UNL     1     173.286 147.866 156.753  1.00  0.00    -0.012 A 
ATOM     20  C   UNL     1     172.188 147.801 155.881  1.00  0.00     0.053 A 
ATOM     21  C   UNL     1     174.361 148.723 156.488  1.00  0.00     0.053 A 
ATOM     22  C   UNL     1     172.154 148.619 154.735  1.00  0.00     0.125 A 
ATOM     23  C   UNL     1     174.340 149.531 155.329  1.00  0.00     0.125 A 
ATOM     24  C   UNL     1     173.242 149.509 154.421  1.00  0.00     0.033 A 
ATOM     25  C   UNL     1     173.216 150.376 153.213  1.00  0.00     0.052 C 
BRANCH  22  26
ATOM     26  O   UNL     1     171.086 148.626 153.844  1.00  0.00    -0.496 OA
ATOM     27  C   UNL     1     169.899 149.287 154.177  1.00  0.00     0.278 C 
ENDBRANCH  22  26
BRANCH  23  28
ATOM     28  O   UNL     1     175.392 150.394 155.055  1.00  0.00    -0.496 OA
ATOM     29  C   UNL     1     175.720 151.356 156.066  1.00  0.00     0.278 C 
ENDBRANCH  23  28
ENDBRANCH  16  19
ENDBRANCH  15  16
BRANCH  15  30
ATOM     30  C   UNL     1     171.463 148.730 158.666  1.00  0.00     0.012 C 
BRANCH  30  31
ATOM     31  C   UNL     1     171.772 150.238 158.895  1.00  0.00    -0.002 C 
ATOM     32  C   UNL     1     171.834 151.096 157.590  1.00  0.00     0.039 C 
ATOM     33  C   UNL     1     170.571 150.851 159.658  1.00  0.00     0.039 C 
ATOM     34  C   UNL     1     170.443 151.600 157.404  1.00  0.00    -0.045 A 
ATOM     35  C   UNL     1     169.689 151.376 158.570  1.00  0.00    -0.045 A 
ATOM     36  C   UNL     1     169.858 152.158 156.266  1.00  0.00     0.004 A 
ATOM     37  C   UNL     1     168.317 151.669 158.599  1.00  0.00     0.004 A 
ATOM     38  C   UNL     1     168.481 152.473 156.288  1.00  0.00     0.000 A 
ATOM     39  C   UNL     1     167.718 152.228 157.433  1.00  0.00     0.000 A 
ENDBRANCH  30  31
ENDBRANCH  15  30
ENDBRANCH   1  15
TORSDOF 13
ENDMDL
MODEL 2
REMARK VINA RESULT:      -9.5      0.481      2.102
REMARK SMILES COC(=O)c1cn(C[C@H](CC2Cc3ccccc3C2)[C@H](O)c2cc(OC)c(C)c(OC)c2)cc1CC(=O)[O-]
REMARK SMILES IDX 8 1 7 2 5 3 34 4 6 5 33 6 3 7 4 8 2 9 1 10 35 11 36 12 37 13
REMARK SMILES IDX 38 14 9 15 20 16 21 17 22 19 32 20 23 21 29 22 24 23 27 24
REMARK SMILES IDX 28 25 30 26 31 27 25 28 26 29 10 30 11 31 12 32 19 33 13 34
REMARK SMILES IDX 18 35 14 36 17 37 15 38 16 39
REMARK H PARENT 21 18
REMARK INDEX MAP 14 1 13 2 5 3 6 4 12 5 11 6 2 7 1 8 3 9 4 10 7 11 8 12 9 13
REMARK INDEX MAP 10 14 15 15 16 16 17 17 50 18 18 19 19 20 20 21 26 22 21 23
REMARK INDEX MAP 24 24 25 25 27 26 28 27 22 28 23 29 29 30 30 31 31 32 38 33
REMARK INDEX MAP 32 34 37 35 33 36 36 37 34 38 35 39
ROOT
ATOM      1  C   UNL     1     171.908 146.529 160.062  1.00  0.00     0.128 C 
ENDROOT
BRANCH   1   2
ATOM      2  N   UNL     1     172.788 145.853 161.007  1.00  0.00    -0.353 N 
ATOM      3  C   UNL     1     174.129 145.530 162.756  1.00  0.00     0.081 A 
ATOM      4  C   UNL     1     174.168 144.335 161.949  1.00  0.00    -0.010 A 
ATOM      5  C   UNL     1     173.273 146.434 162.155  1.00  0.00     0.101 A 
ATOM      6  C   UNL     1     173.322 144.570 160.876  1.00  0.00     0.090 A 
BRANCH   3   7
ATOM      7  C   UNL     1     174.810 145.835 163.994  1.00  0.00     0.339 C 
ATOM      8  O   UNL     1     175.465 145.079 164.717  1.00  0.00    -0.246 OA
BRANCH   7   9
ATOM      9  O   UNL     1     174.677 147.183 164.287  1.00  0.00    -0.465 OA
ATOM     10  C   UNL     1     175.122 147.713 165.506  1.00  0.00     0.282 C 
ENDBRANCH   7   9
ENDBRANCH   3   7
BRANCH   4  11
ATOM     11  C   UNL     1     174.930 143.080 162.165  1.00  0.00     0.090 C 
BRANCH  11  12
ATOM     12  C   UNL     1     175.498 142.435 160.838  1.00  0.00     0.046 C 
ATOM     13  O   UNL     1     175.112 141.270 160.585  1.00  0.00    -0.550 OA
ATOM     14  O   UNL     1     176.281 143.110 160.116  1.00  0.00    -0.550 OA
ENDBRANCH  11  12
ENDBRANCH   4  11
ENDBRANCH   1   2
BRANCH   1  15
ATOM     15  C   UNL     1     172.530 147.602 159.125  1.00  0.00     0.042 C 
BRANCH  15  16
ATOM     16  C   UNL     1     173.349 146.990 157.899  1.00  0.00     0.149 C 
BRANCH  16  17
ATOM     17  O   UNL     1     174.712 146.820 158.215  1.00  0.00    -0.388 OA
ATOM     18  H   UNL     1     174.844 146.969 159.165  1.00  0.00     0.211 HD
ENDBRANCH  16  17
BRANCH  16  19
ATOM     19  C   UNL     1     173.267 147.894 156.678  1.00  0.00    -0.012 A 
ATOM     20  C   UNL     1     174.328 148.782 156.443  1.00  0.00     0.053 A 
ATOM     21  C   UNL     1     172.172 147.841 155.807  1.00  0.00     0.053 A 
ATOM     22  C   UNL     1     174.305 149.619 155.310  1.00  0.00     0.125 A 
ATOM     23  C   UNL     1     172.135 148.693 154.680  1.00  0.00     0.125 A 
ATOM     24  C   UNL     1     173.193 149.602 154.393  1.00  0.00     0.033 A 
ATOM     25  C   UNL     1     173.159 150.481 153.194  1.00  0.00     0.052 C 
BRANCH  22  26
ATOM     26  O   UNL     1     175.334 150.502 155.002  1.00  0.00    -0.496 OA
ATOM     27  C   UNL     1     175.841 151.357 155.986  1.00  0.00     0.278 C 
ENDBRANCH  22  26
BRANCH  23  28
ATOM     28  O   UNL     1     171.062 148.648 153.800  1.00  0.00    -0.496 OA
ATOM     29  C   UNL     1     169.842 149.263 154.236  1.00  0.00     0.278 C 
ENDBRANCH  23  28
ENDBRANCH  16  19
ENDBRANCH  15  16
BRANCH  15  30
ATOM     30  C   UNL     1     171.492 148.648 158.643  1.00  0.00     0.012 C 
BRANCH  30  31
ATOM     31  C   UNL     1     171.791 150.149 158.924  1.00  0.00    -0.002 C 
ATOM     32  C   UNL     1     171.890 151.044 157.648  1.00  0.00     0.039 C 
ATOM     33  C   UNL     1     170.568 150.739 159.670  1.00  0.00     0.039 C 
ATOM     34  C   UNL     1     170.504 151.553 157.436  1.00  0.00    -0.045 A 
ATOM     35  C   UNL     1     169.717 151.295 158.572  1.00  0.00    -0.045 A 
ATOM     36  C   UNL     1     169.952 152.143 156.298  1.00  0.00     0.004 A 
ATOM     37  C   UNL     1     168.344 151.585 158.570  1.00  0.00     0.004 A 
ATOM     38  C   UNL     1     168.574 152.456 156.288  1.00  0.00     0.000 A 
ATOM     39  C   UNL     1     167.778 152.177 157.403  1.00  0.00     0.000 A 
ENDBRANCH  30  31
ENDBRANCH  15  30
ENDBRANCH   1  15
TORSDOF 13
ENDMDL
MODEL 3
REMARK VINA RESULT:      -9.4      0.554      2.195
REMARK SMILES COC(=O)c1cn(C[C@H](CC2Cc3ccccc3C2)[C@H](O)c2cc(OC)c(C)c(OC)c2)cc1CC(=O)[O-]
REMARK SMILES IDX 8 1 7 2 5 3 34 4 6 5 33 6 3 7 4 8 2 9 1 10 35 11 36 12 37 13
REMARK SMILES IDX 38 14 9 15 20 16 21 17 22 19 32 20 23 21 29 22 24 23 27 24
REMARK SMILES IDX 28 25 30 26 31 27 25 28 26 29 10 30 11 31 12 32 19 33 13 34
REMARK SMILES IDX 18 35 14 36 17 37 15 38 16 39
REMARK H PARENT 21 18
REMARK INDEX MAP 14 1 13 2 5 3 6 4 12 5 11 6 2 7 1 8 3 9 4 10 7 11 8 12 9 13
REMARK INDEX MAP 10 14 15 15 16 16 17 17 50 18 18 19 19 20 20 21 26 22 21 23
REMARK INDEX MAP 24 24 25 25 27 26 28 27 22 28 23 29 29 30 30 31 31 32 38 33
REMARK INDEX MAP 32 34 37 35 33 36 36 37 34 38 35 39
ROOT
ATOM      1  C   UNL     1     171.902 146.589 160.007  1.00  0.00     0.128 C 
ENDROOT
BRANCH   1   2
ATOM      2  N   UNL     1     172.810 145.735 160.763  1.00  0.00    -0.353 N 
ATOM      3  C   UNL     1     174.263 145.088 162.323  1.00  0.00     0.081 A 
ATOM      4  C   UNL     1     174.164 144.028 161.351  1.00  0.00    -0.010 A 
ATOM      5  C   UNL     1     173.419 146.113 161.936  1.00  0.00     0.101 A 
ATOM      6  C   UNL     1     173.252 144.462 160.401  1.00  0.00     0.090 A 
BRANCH   3   7
ATOM      7  C   UNL     1     175.057 145.171 163.528  1.00  0.00     0.339 C 
ATOM      8  O   UNL     1     175.472 146.179 164.106  1.00  0.00    -0.246 OA
BRANCH   7   9
ATOM      9  O   UNL     1     175.286 143.900 164.032  1.00  0.00    -0.465 OA
ATOM     10  C   UNL     1     176.368 143.636 164.884  1.00  0.00     0.282 C 
ENDBRANCH   7   9
ENDBRANCH   3   7
BRANCH   4  11
ATOM     11  C   UNL     1     174.862 142.718 161.316  1.00  0.00     0.090 C 
BRANCH  11  12
ATOM     12  C   UNL     1     176.354 142.798 160.799  1.00  0.00     0.046 C 
ATOM     13  O   UNL     1     176.503 143.120 159.597  1.00  0.00    -0.550 OA
ATOM     14  O   UNL     1     177.294 142.552 161.603  1.00  0.00    -0.550 OA
ENDBRANCH  11  12
ENDBRANCH   4  11
ENDBRANCH   1   2
BRANCH   1  15
ATOM     15  C   UNL     1     172.520 147.667 159.075  1.00  0.00     0.042 C 
BRANCH  15  16
ATOM     16  C   UNL     1     173.330 147.063 157.837  1.00  0.00     0.149 C 
BRANCH  16  17
ATOM     17  O   UNL     1     174.698 146.905 158.137  1.00  0.00    -0.388 OA
ATOM     18  H   UNL     1     175.182 147.703 157.870  1.00  0.00     0.211 HD
ENDBRANCH  16  17
BRANCH  16  19
ATOM     19  C   UNL     1     173.225 147.967 156.618  1.00  0.00    -0.012 A 
ATOM     20  C   UNL     1     174.286 148.846 156.356  1.00  0.00     0.053 A 
ATOM     21  C   UNL     1     172.107 147.922 155.775  1.00  0.00     0.053 A 
ATOM     22  C   UNL     1     174.241 149.682 155.223  1.00  0.00     0.125 A 
ATOM     23  C   UNL     1     172.049 148.773 154.648  1.00  0.00     0.125 A 
ATOM     24  C   UNL     1     173.108 149.674 154.335  1.00  0.00     0.033 A 
ATOM     25  C   UNL     1     173.050 150.553 153.136  1.00  0.00     0.052 C 
BRANCH  22  26
ATOM     26  O   UNL     1     175.270 150.557 154.889  1.00  0.00    -0.496 OA
ATOM     27  C   UNL     1     175.860 151.354 155.875  1.00  0.00     0.278 C 
ENDBRANCH  22  26
BRANCH  23  28
ATOM     28  O   UNL     1     170.954 148.736 153.796  1.00  0.00    -0.496 OA
ATOM     29  C   UNL     1     169.735 149.312 154.283  1.00  0.00     0.278 C 
ENDBRANCH  23  28
ENDBRANCH  16  19
ENDBRANCH  15  16
BRANCH  15  30
ATOM     30  C   UNL     1     171.482 148.720 158.607  1.00  0.00     0.012 C 
BRANCH  30  31
ATOM     31  C   UNL     1     171.784 150.217 158.905  1.00  0.00    -0.002 C 
ATOM     32  C   UNL     1     171.886 151.125 157.638  1.00  0.00     0.039 C 
ATOM     33  C   UNL     1     170.561 150.801 159.656  1.00  0.00     0.039 C 
ATOM     34  C   UNL     1     170.501 151.639 157.430  1.00  0.00    -0.045 A 
ATOM     35  C   UNL     1     169.712 151.370 158.563  1.00  0.00    -0.045 A 
ATOM     36  C   UNL     1     169.951 152.241 156.298  1.00  0.00     0.004 A 
ATOM     37  C   UNL     1     168.339 151.663 158.562  1.00  0.00     0.004 A 
ATOM     38  C   UNL     1     168.573 152.558 156.290  1.00  0.00     0.000 A 
ATOM     39  C   UNL     1     167.776 152.268 157.401  1.00  0.00     0.000 A 
ENDBRANCH  30  31
ENDBRANCH  15  30
ENDBRANCH   1  15
TORSDOF 13
ENDMDL
MODEL 4
REMARK VINA RESULT:      -9.3      0.767      3.151
REMARK SMILES COC(=O)c1cn(C[C@H](CC2Cc3ccccc3C2)[C@H](O)c2cc(OC)c(C)c(OC)c2)cc1CC(=O)[O-]
REMARK SMILES IDX 8 1 7 2 5 3 34 4 6 5 33 6 3 7 4 8 2 9 1 10 35 11 36 12 37 13
REMARK SMILES IDX 38 14 9 15 20 16 21 17 22 19 32 20 23 21 29 22 24 23 27 24
REMARK SMILES IDX 28 25 30 26 31 27 25 28 26 29 10 30 11 31 12 32 19 33 13 34
REMARK SMILES IDX 18 35 14 36 17 37 15 38 16 39
REMARK H PARENT 21 18
REMARK INDEX MAP 14 1 13 2 5 3 6 4 12 5 11 6 2 7 1 8 3 9 4 10 7 11 8 12 9 13
REMARK INDEX MAP 10 14 15 15 16 16 17 17 50 18 18 19 19 20 20 21 26 22 21 23
REMARK INDEX MAP 24 24 25 25 27 26 28 27 22 28 23 29 29 30 30 31 31 32 38 33
REMARK INDEX MAP 32 34 37 35 33 36 36 37 34 38 35 39
ROOT
ATOM      1  C   UNL     1     171.974 146.754 160.375  1.00  0.00     0.128 C 
ENDROOT
BRANCH   1   2
ATOM      2  N   UNL     1     172.950 146.089 161.229  1.00  0.00    -0.353 N 
ATOM      3  C   UNL     1     174.348 144.530 161.992  1.00  0.00     0.081 A 
ATOM      4  C   UNL     1     174.250 145.560 162.997  1.00  0.00    -0.010 A 
ATOM      5  C   UNL     1     173.546 144.888 160.923  1.00  0.00     0.101 A 
ATOM      6  C   UNL     1     173.379 146.511 162.489  1.00  0.00     0.090 A 
BRANCH   3   7
ATOM      7  C   UNL     1     175.121 143.308 161.986  1.00  0.00     0.339 C 
ATOM      8  O   UNL     1     175.884 142.887 161.113  1.00  0.00    -0.246 OA
BRANCH   7   9
ATOM      9  O   UNL     1     174.934 142.625 163.177  1.00  0.00    -0.465 OA
ATOM     10  C   UNL     1     175.961 141.862 163.750  1.00  0.00     0.282 C 
ENDBRANCH   7   9
ENDBRANCH   3   7
BRANCH   4  11
ATOM     11  C   UNL     1     174.918 145.646 164.319  1.00  0.00     0.090 C 
BRANCH  11  12
ATOM     12  C   UNL     1     175.289 147.119 164.758  1.00  0.00     0.046 C 
ATOM     13  O   UNL     1     176.451 147.498 164.483  1.00  0.00    -0.550 OA
ATOM     14  O   UNL     1     174.418 147.823 165.337  1.00  0.00    -0.550 OA
ENDBRANCH  11  12
ENDBRANCH   4  11
ENDBRANCH   1   2
BRANCH   1  15
ATOM     15  C   UNL     1     172.501 147.747 159.302  1.00  0.00     0.042 C 
BRANCH  15  16
ATOM     16  C   UNL     1     173.210 147.039 158.059  1.00  0.00     0.149 C 
BRANCH  16  17
ATOM     17  O   UNL     1     174.571 146.778 158.314  1.00  0.00    -0.388 OA
ATOM     18  H   UNL     1     174.646 146.068 158.971  1.00  0.00     0.211 HD
ENDBRANCH  16  17
BRANCH  16  19
ATOM     19  C   UNL     1     173.132 147.908 156.813  1.00  0.00    -0.012 A 
ATOM     20  C   UNL     1     174.191 148.793 156.559  1.00  0.00     0.053 A 
ATOM     21  C   UNL     1     172.041 147.827 155.938  1.00  0.00     0.053 A 
ATOM     22  C   UNL     1     174.171 149.598 155.403  1.00  0.00     0.125 A 
ATOM     23  C   UNL     1     172.008 148.647 154.788  1.00  0.00     0.125 A 
ATOM     24  C   UNL     1     173.065 149.552 154.482  1.00  0.00     0.033 A 
ATOM     25  C   UNL     1     173.034 150.398 153.258  1.00  0.00     0.052 C 
BRANCH  22  26
ATOM     26  O   UNL     1     175.199 150.476 155.076  1.00  0.00    -0.496 OA
ATOM     27  C   UNL     1     175.727 151.330 156.050  1.00  0.00     0.278 C 
ENDBRANCH  22  26
BRANCH  23  28
ATOM     28  O   UNL     1     170.940 148.575 153.904  1.00  0.00    -0.496 OA
ATOM     29  C   UNL     1     169.743 149.270 154.277  1.00  0.00     0.278 C 
ENDBRANCH  23  28
ENDBRANCH  16  19
ENDBRANCH  15  16
BRANCH  15  30
ATOM     30  C   UNL     1     171.416 148.751 158.834  1.00  0.00     0.012 C 
BRANCH  30  31
ATOM     31  C   UNL     1     171.705 150.269 159.018  1.00  0.00    -0.002 C 
ATOM     32  C   UNL     1     171.829 151.075 157.685  1.00  0.00     0.039 C 
ATOM     33  C   UNL     1     170.464 150.903 159.695  1.00  0.00     0.039 C 
ATOM     34  C   UNL     1     170.446 151.562 157.409  1.00  0.00    -0.045 A 
ATOM     35  C   UNL     1     169.636 151.379 158.544  1.00  0.00    -0.045 A 
ATOM     36  C   UNL     1     169.917 152.070 156.222  1.00  0.00     0.004 A 
ATOM     37  C   UNL     1     168.262 151.663 158.492  1.00  0.00     0.004 A 
ATOM     38  C   UNL     1     168.539 152.376 156.161  1.00  0.00     0.000 A 
ATOM     39  C   UNL     1     167.720 152.171 157.276  1.00  0.00     0.000 A 
ENDBRANCH  30  31
ENDBRANCH  15  30
ENDBRANCH   1  15
TORSDOF 13
ENDMDL
MODEL 5
REMARK VINA RESULT:      -9.2      1.767      2.536
REMARK SMILES COC(=O)c1cn(C[C@H](CC2Cc3ccccc3C2)[C@H](O)c2cc(OC)c(C)c(OC)c2)cc1CC(=O)[O-]
REMARK SMILES IDX 8 1 7 2 5 3 34 4 6 5 33 6 3 7 4 8 2 9 1 10 35 11 36 12 37 13
REMARK SMILES IDX 38 14 9 15 20 16 21 17 22 19 32 20 23 21 29 22 24 23 27 24
REMARK SMILES IDX 28 25 30 26 31 27 25 28 26 29 10 30 11 31 12 32 19 33 13 34
REMARK SMILES IDX 18 35 14 36 17 37 15 38 16 39
REMARK H PARENT 21 18
REMARK INDEX MAP 14 1 13 2 5 3 6 4 12 5 11 6 2 7 1 8 3 9 4 10 7 11 8 12 9 13
REMARK INDEX MAP 10 14 15 15 16 16 17 17 50 18 18 19 19 20 20 21 26 22 21 23
REMARK INDEX MAP 24 24 25 25 27 26 28 27 22 28 23 29 29 30 30 31 31 32 38 33
REMARK INDEX MAP 32 34 37 35 33 36 36 37 34 38 35 39
ROOT
ATOM      1  C   UNL     1     172.377 146.885 160.135  1.00  0.00     0.128 C 
ENDROOT
BRANCH   1   2
ATOM      2  N   UNL     1     173.366 145.829 159.954  1.00  0.00    -0.353 N 
ATOM      3  C   UNL     1     175.133 144.730 159.158  1.00  0.00     0.081 A 
ATOM      4  C   UNL     1     174.411 143.829 160.022  1.00  0.00    -0.010 A 
ATOM      5  C   UNL     1     174.471 145.944 159.144  1.00  0.00     0.101 A 
ATOM      6  C   UNL     1     173.325 144.545 160.500  1.00  0.00     0.090 A 
BRANCH   3   7
ATOM      7  C   UNL     1     176.347 144.517 158.402  1.00  0.00     0.339 C 
ATOM      8  O   UNL     1     176.924 143.454 158.159  1.00  0.00    -0.246 OA
BRANCH   7   9
ATOM      9  O   UNL     1     176.811 145.724 157.902  1.00  0.00    -0.465 OA
ATOM     10  C   UNL     1     176.364 146.225 156.672  1.00  0.00     0.282 C 
ENDBRANCH   7   9
ENDBRANCH   3   7
BRANCH   4  11
ATOM     11  C   UNL     1     174.714 142.419 160.372  1.00  0.00     0.090 C 
BRANCH  11  12
ATOM     12  C   UNL     1     176.109 142.220 161.089  1.00  0.00     0.046 C 
ATOM     13  O   UNL     1     176.346 142.988 162.051  1.00  0.00    -0.550 OA
ATOM     14  O   UNL     1     176.886 141.317 160.676  1.00  0.00    -0.550 OA
ENDBRANCH  11  12
ENDBRANCH   4  11
ENDBRANCH   1   2
BRANCH   1  15
ATOM     15  C   UNL     1     172.140 147.871 158.958  1.00  0.00     0.042 C 
BRANCH  15  16
ATOM     16  C   UNL     1     171.742 147.156 157.586  1.00  0.00     0.149 C 
BRANCH  16  17
ATOM     17  O   UNL     1     172.339 145.885 157.468  1.00  0.00    -0.388 OA
ATOM     18  H   UNL     1     173.153 145.959 156.945  1.00  0.00     0.211 HD
ENDBRANCH  16  17
BRANCH  16  19
ATOM     19  C   UNL     1     172.176 147.985 156.388  1.00  0.00    -0.012 A 
ATOM     20  C   UNL     1     171.243 148.200 155.362  1.00  0.00     0.053 A 
ATOM     21  C   UNL     1     173.466 148.526 156.308  1.00  0.00     0.053 A 
ATOM     22  C   UNL     1     171.596 148.984 154.246  1.00  0.00     0.125 A 
ATOM     23  C   UNL     1     173.830 149.296 155.180  1.00  0.00     0.125 A 
ATOM     24  C   UNL     1     172.913 149.552 154.120  1.00  0.00     0.033 A 
ATOM     25  C   UNL     1     173.295 150.381 152.945  1.00  0.00     0.052 C 
BRANCH  22  26
ATOM     26  O   UNL     1     170.712 149.260 153.207  1.00  0.00    -0.496 OA
ATOM     27  C   UNL     1     169.357 149.476 153.479  1.00  0.00     0.278 C 
ENDBRANCH  22  26
BRANCH  23  28
ATOM     28  O   UNL     1     175.100 149.849 155.087  1.00  0.00    -0.496 OA
ATOM     29  C   UNL     1     175.416 150.903 156.007  1.00  0.00     0.278 C 
ENDBRANCH  23  28
ENDBRANCH  16  19
ENDBRANCH  15  16
BRANCH  15  30
ATOM     30  C   UNL     1     171.137 148.998 159.316  1.00  0.00     0.012 C 
BRANCH  30  31
ATOM     31  C   UNL     1     171.607 150.471 159.137  1.00  0.00    -0.002 C 
ATOM     32  C   UNL     1     171.680 150.956 157.654  1.00  0.00     0.039 C 
ATOM     33  C   UNL     1     170.520 151.388 159.752  1.00  0.00     0.039 C 
ATOM     34  C   UNL     1     170.337 151.549 157.386  1.00  0.00    -0.045 A 
ATOM     35  C   UNL     1     169.634 151.714 158.592  1.00  0.00    -0.045 A 
ATOM     36  C   UNL     1     169.746 151.860 156.161  1.00  0.00     0.004 A 
ATOM     37  C   UNL     1     168.301 152.155 158.586  1.00  0.00     0.004 A 
ATOM     38  C   UNL     1     168.411 152.322 156.141  1.00  0.00     0.000 A 
ATOM     39  C   UNL     1     167.695 152.463 157.334  1.00  0.00     0.000 A 
ENDBRANCH  30  31
ENDBRANCH  15  30
ENDBRANCH   1  15
TORSDOF 13
ENDMDL
MODEL 6
REMARK VINA RESULT:      -9.0      1.997      2.808
REMARK SMILES COC(=O)c1cn(C[C@H](CC2Cc3ccccc3C2)[C@H](O)c2cc(OC)c(C)c(OC)c2)cc1CC(=O)[O-]
REMARK SMILES IDX 8 1 7 2 5 3 34 4 6 5 33 6 3 7 4 8 2 9 1 10 35 11 36 12 37 13
REMARK SMILES IDX 38 14 9 15 20 16 21 17 22 19 32 20 23 21 29 22 24 23 27 24
REMARK SMILES IDX 28 25 30 26 31 27 25 28 26 29 10 30 11 31 12 32 19 33 13 34
REMARK SMILES IDX 18 35 14 36 17 37 15 38 16 39
REMARK H PARENT 21 18
REMARK INDEX MAP 14 1 13 2 5 3 6 4 12 5 11 6 2 7 1 8 3 9 4 10 7 11 8 12 9 13
REMARK INDEX MAP 10 14 15 15 16 16 17 17 50 18 18 19 19 20 20 21 26 22 21 23
REMARK INDEX MAP 24 24 25 25 27 26 28 27 22 28 23 29 29 30 30 31 31 32 38 33
REMARK INDEX MAP 32 34 37 35 33 36 36 37 34 38 35 39
ROOT
ATOM      1  C   UNL     1     173.443 146.514 158.123  1.00  0.00     0.128 C 
ENDROOT
BRANCH   1   2
ATOM      2  N   UNL     1     173.256 145.920 159.440  1.00  0.00    -0.353 N 
ATOM      3  C   UNL     1     173.709 145.235 161.511  1.00  0.00     0.081 A 
ATOM      4  C   UNL     1     172.407 144.727 161.158  1.00  0.00    -0.010 A 
ATOM      5  C   UNL     1     174.197 145.963 160.442  1.00  0.00     0.101 A 
ATOM      6  C   UNL     1     172.157 145.173 159.870  1.00  0.00     0.090 A 
BRANCH   3   7
ATOM      7  C   UNL     1     174.463 145.085 162.736  1.00  0.00     0.339 C 
ATOM      8  O   UNL     1     174.291 145.654 163.818  1.00  0.00    -0.246 OA
BRANCH   7   9
ATOM      9  O   UNL     1     175.451 144.127 162.569  1.00  0.00    -0.465 OA
ATOM     10  C   UNL     1     175.249 142.795 162.955  1.00  0.00     0.282 C 
ENDBRANCH   7   9
ENDBRANCH   3   7
BRANCH   4  11
ATOM     11  C   UNL     1     171.475 143.895 161.960  1.00  0.00     0.090 C 
BRANCH  11  12
ATOM     12  C   UNL     1     170.136 144.635 162.362  1.00  0.00     0.046 C 
ATOM     13  O   UNL     1     170.090 145.862 162.108  1.00  0.00    -0.550 OA
ATOM     14  O   UNL     1     169.206 143.971 162.894  1.00  0.00    -0.550 OA
ENDBRANCH  11  12
ENDBRANCH   4  11
ENDBRANCH   1   2
BRANCH   1  15
ATOM     15  C   UNL     1     172.559 147.733 157.740  1.00  0.00     0.042 C 
BRANCH  15  16
ATOM     16  C   UNL     1     171.526 147.437 156.558  1.00  0.00     0.149 C 
BRANCH  16  17
ATOM     17  O   UNL     1     171.613 146.103 156.112  1.00  0.00    -0.388 OA
ATOM     18  H   UNL     1     171.144 146.014 155.267  1.00  0.00     0.211 HD
ENDBRANCH  16  17
BRANCH  16  19
ATOM     19  C   UNL     1     171.784 148.342 155.364  1.00  0.00    -0.012 A 
ATOM     20  C   UNL     1     170.687 148.715 154.571  1.00  0.00     0.053 A 
ATOM     21  C   UNL     1     173.073 148.799 155.062  1.00  0.00     0.053 A 
ATOM     22  C   UNL     1     170.877 149.573 153.470  1.00  0.00     0.125 A 
ATOM     23  C   UNL     1     173.271 149.644 153.947  1.00  0.00     0.125 A 
ATOM     24  C   UNL     1     172.188 150.059 153.120  1.00  0.00     0.033 A 
ATOM     25  C   UNL     1     172.399 150.965 151.960  1.00  0.00     0.052 C 
BRANCH  22  26
ATOM     26  O   UNL     1     169.832 150.004 152.659  1.00  0.00    -0.496 OA
ATOM     27  C   UNL     1     168.932 149.077 152.125  1.00  0.00     0.278 C 
ENDBRANCH  22  26
BRANCH  23  28
ATOM     28  O   UNL     1     174.540 150.114 153.638  1.00  0.00    -0.496 OA
ATOM     29  C   UNL     1     175.349 150.560 154.734  1.00  0.00     0.278 C 
ENDBRANCH  23  28
ENDBRANCH  16  19
ENDBRANCH  15  16
BRANCH  15  30
ATOM     30  C   UNL     1     171.846 148.362 158.965  1.00  0.00     0.012 C 
BRANCH  30  31
ATOM     31  C   UNL     1     172.070 149.878 159.235  1.00  0.00    -0.002 C 
ATOM     32  C   UNL     1     172.353 150.733 157.958  1.00  0.00     0.039 C 
ATOM     33  C   UNL     1     170.734 150.463 159.758  1.00  0.00     0.039 C 
ATOM     34  C   UNL     1     171.009 151.202 157.513  1.00  0.00    -0.045 A 
ATOM     35  C   UNL     1     170.057 150.963 158.521  1.00  0.00    -0.045 A 
ATOM     36  C   UNL     1     170.632 151.740 156.282  1.00  0.00     0.004 A 
ATOM     37  C   UNL     1     168.696 151.221 158.293  1.00  0.00     0.004 A 
ATOM     38  C   UNL     1     169.267 152.021 156.045  1.00  0.00     0.000 A 
ATOM     39  C   UNL     1     168.311 151.760 157.031  1.00  0.00     0.000 A 
ENDBRANCH  30  31
ENDBRANCH  15  30
ENDBRANCH   1  15
TORSDOF 13
ENDMDL
MODEL 7
REMARK VINA RESULT:      -9.0      0.743      2.465
REMARK SMILES COC(=O)c1cn(C[C@H](CC2Cc3ccccc3C2)[C@H](O)c2cc(OC)c(C)c(OC)c2)cc1CC(=O)[O-]
REMARK SMILES IDX 8 1 7 2 5 3 34 4 6 5 33 6 3 7 4 8 2 9 1 10 35 11 36 12 37 13
REMARK SMILES IDX 38 14 9 15 20 16 21 17 22 19 32 20 23 21 29 22 24 23 27 24
REMARK SMILES IDX 28 25 30 26 31 27 25 28 26 29 10 30 11 31 12 32 19 33 13 34
REMARK SMILES IDX 18 35 14 36 17 37 15 38 16 39
REMARK H PARENT 21 18
REMARK INDEX MAP 14 1 13 2 5 3 6 4 12 5 11 6 2 7 1 8 3 9 4 10 7 11 8 12 9 13
REMARK INDEX MAP 10 14 15 15 16 16 17 17 50 18 18 19 19 20 20 21 26 22 21 23
REMARK INDEX MAP 24 24 25 25 27 26 28 27 22 28 23 29 29 30 30 31 31 32 38 33
REMARK INDEX MAP 32 34 37 35 33 36 36 37 34 38 35 39
ROOT
ATOM      1  C   UNL     1     171.976 146.862 160.475  1.00  0.00     0.128 C 
ENDROOT
BRANCH   1   2
ATOM      2  N   UNL     1     172.962 146.010 161.127  1.00  0.00    -0.353 N 
ATOM      3  C   UNL     1     174.214 144.223 161.576  1.00  0.00     0.081 A 
ATOM      4  C   UNL     1     174.424 145.181 162.633  1.00  0.00    -0.010 A 
ATOM      5  C   UNL     1     173.320 144.763 160.670  1.00  0.00     0.101 A 
ATOM      6  C   UNL     1     173.636 146.277 162.320  1.00  0.00     0.090 A 
BRANCH   3   7
ATOM      7  C   UNL     1     174.788 142.909 161.386  1.00  0.00     0.339 C 
ATOM      8  O   UNL     1     175.057 142.335 160.327  1.00  0.00    -0.246 OA
BRANCH   7   9
ATOM      9  O   UNL     1     175.069 142.333 162.615  1.00  0.00    -0.465 OA
ATOM     10  C   UNL     1     176.165 141.476 162.787  1.00  0.00     0.282 C 
ENDBRANCH   7   9
ENDBRANCH   3   7
BRANCH   4  11
ATOM     11  C   UNL     1     175.292 145.079 163.833  1.00  0.00     0.090 C 
BRANCH  11  12
ATOM     12  C   UNL     1     175.112 146.268 164.860  1.00  0.00     0.046 C 
ATOM     13  O   UNL     1     174.720 145.948 166.007  1.00  0.00    -0.550 OA
ATOM     14  O   UNL     1     175.375 147.444 164.488  1.00  0.00    -0.550 OA
ENDBRANCH  11  12
ENDBRANCH   4  11
ENDBRANCH   1   2
BRANCH   1  15
ATOM     15  C   UNL     1     172.466 147.820 159.354  1.00  0.00     0.042 C 
BRANCH  15  16
ATOM     16  C   UNL     1     173.110 147.070 158.099  1.00  0.00     0.149 C 
BRANCH  16  17
ATOM     17  O   UNL     1     174.447 146.697 158.344  1.00  0.00    -0.388 OA
ATOM     18  H   UNL     1     174.488 146.150 159.144  1.00  0.00     0.211 HD
ENDBRANCH  16  17
BRANCH  16  19
ATOM     19  C   UNL     1     173.096 147.956 156.863  1.00  0.00    -0.012 A 
ATOM     20  C   UNL     1     171.969 147.904 156.028  1.00  0.00     0.053 A 
ATOM     21  C   UNL     1     174.169 148.804 156.564  1.00  0.00     0.053 A 
ATOM     22  C   UNL     1     171.903 148.726 154.887  1.00  0.00     0.125 A 
ATOM     23  C   UNL     1     174.116 149.616 155.409  1.00  0.00     0.125 A 
ATOM     24  C   UNL     1     172.988 149.607 154.538  1.00  0.00     0.033 A 
ATOM     25  C   UNL     1     172.928 150.479 153.335  1.00  0.00     0.052 C 
BRANCH  22  26
ATOM     26  O   UNL     1     170.806 148.746 154.032  1.00  0.00    -0.496 OA
ATOM     27  C   UNL     1     169.577 149.244 154.480  1.00  0.00     0.278 C 
ENDBRANCH  22  26
BRANCH  23  28
ATOM     28  O   UNL     1     175.166 150.470 155.101  1.00  0.00    -0.496 OA
ATOM     29  C   UNL     1     175.681 151.273 156.172  1.00  0.00     0.278 C 
ENDBRANCH  23  28
ENDBRANCH  16  19
ENDBRANCH  15  16
BRANCH  15  30
ATOM     30  C   UNL     1     171.375 148.827 158.908  1.00  0.00     0.012 C 
BRANCH  30  31
ATOM     31  C   UNL     1     171.659 150.343 159.115  1.00  0.00    -0.002 C 
ATOM     32  C   UNL     1     171.798 151.166 157.794  1.00  0.00     0.039 C 
ATOM     33  C   UNL     1     170.408 150.966 159.785  1.00  0.00     0.039 C 
ATOM     34  C   UNL     1     170.418 151.654 157.507  1.00  0.00    -0.045 A 
ATOM     35  C   UNL     1     169.594 151.455 158.629  1.00  0.00    -0.045 A 
ATOM     36  C   UNL     1     169.903 152.176 156.320  1.00  0.00     0.004 A 
ATOM     37  C   UNL     1     168.220 151.737 158.564  1.00  0.00     0.004 A 
ATOM     38  C   UNL     1     168.524 152.481 156.246  1.00  0.00     0.000 A 
ATOM     39  C   UNL     1     167.692 152.260 157.348  1.00  0.00     0.000 A 
ENDBRANCH  30  31
ENDBRANCH  15  30
ENDBRANCH   1  15
TORSDOF 13
ENDMDL
MODEL 8
REMARK VINA RESULT:      -8.9      0.765      3.198
REMARK SMILES COC(=O)c1cn(C[C@H](CC2Cc3ccccc3C2)[C@H](O)c2cc(OC)c(C)c(OC)c2)cc1CC(=O)[O-]
REMARK SMILES IDX 8 1 7 2 5 3 34 4 6 5 33 6 3 7 4 8 2 9 1 10 35 11 36 12 37 13
REMARK SMILES IDX 38 14 9 15 20 16 21 17 22 19 32 20 23 21 29 22 24 23 27 24
REMARK SMILES IDX 28 25 30 26 31 27 25 28 26 29 10 30 11 31 12 32 19 33 13 34
REMARK SMILES IDX 18 35 14 36 17 37 15 38 16 39
REMARK H PARENT 21 18
REMARK INDEX MAP 14 1 13 2 5 3 6 4 12 5 11 6 2 7 1 8 3 9 4 10 7 11 8 12 9 13
REMARK INDEX MAP 10 14 15 15 16 16 17 17 50 18 18 19 19 20 20 21 26 22 21 23
REMARK INDEX MAP 24 24 25 25 27 26 28 27 22 28 23 29 29 30 30 31 31 32 38 33
REMARK INDEX MAP 32 34 37 35 33 36 36 37 34 38 35 39
ROOT
ATOM      1  C   UNL     1     172.018 146.877 160.146  1.00  0.00     0.128 C 
ENDROOT
BRANCH   1   2
ATOM      2  N   UNL     1     172.987 145.938 160.696  1.00  0.00    -0.353 N 
ATOM      3  C   UNL     1     174.308 144.151 160.865  1.00  0.00     0.081 A 
ATOM      4  C   UNL     1     174.335 144.836 162.134  1.00  0.00    -0.010 A 
ATOM      5  C   UNL     1     173.480 144.854 160.008  1.00  0.00     0.101 A 
ATOM      6  C   UNL     1     173.508 145.940 161.991  1.00  0.00     0.090 A 
BRANCH   3   7
ATOM      7  C   UNL     1     174.992 142.948 160.445  1.00  0.00     0.339 C 
ATOM      8  O   UNL     1     174.554 141.796 160.393  1.00  0.00    -0.246 OA
BRANCH   7   9
ATOM      9  O   UNL     1     176.279 143.255 160.033  1.00  0.00    -0.465 OA
ATOM     10  C   UNL     1     176.531 143.784 158.759  1.00  0.00     0.282 C 
ENDBRANCH   7   9
ENDBRANCH   3   7
BRANCH   4  11
ATOM     11  C   UNL     1     175.074 144.488 163.373  1.00  0.00     0.090 C 
BRANCH  11  12
ATOM     12  C   UNL     1     175.228 145.689 164.389  1.00  0.00     0.046 C 
ATOM     13  O   UNL     1     174.918 145.445 165.579  1.00  0.00    -0.550 OA
ATOM     14  O   UNL     1     175.653 146.799 163.967  1.00  0.00    -0.550 OA
ENDBRANCH  11  12
ENDBRANCH   4  11
ENDBRANCH   1   2
BRANCH   1  15
ATOM     15  C   UNL     1     172.508 147.882 159.067  1.00  0.00     0.042 C 
BRANCH  15  16
ATOM     16  C   UNL     1     173.182 147.188 157.796  1.00  0.00     0.149 C 
BRANCH  16  17
ATOM     17  O   UNL     1     174.546 146.909 158.016  1.00  0.00    -0.388 OA
ATOM     18  H   UNL     1     174.744 146.992 158.962  1.00  0.00     0.211 HD
ENDBRANCH  16  17
BRANCH  16  19
ATOM     19  C   UNL     1     173.084 148.077 156.567  1.00  0.00    -0.012 A 
ATOM     20  C   UNL     1     174.147 148.956 156.303  1.00  0.00     0.053 A 
ATOM     21  C   UNL     1     171.973 148.022 155.716  1.00  0.00     0.053 A 
ATOM     22  C   UNL     1     174.109 149.780 155.161  1.00  0.00     0.125 A 
ATOM     23  C   UNL     1     171.922 148.861 154.580  1.00  0.00     0.125 A 
ATOM     24  C   UNL     1     172.981 149.760 154.264  1.00  0.00     0.033 A 
ATOM     25  C   UNL     1     172.932 150.626 153.056  1.00  0.00     0.052 C 
BRANCH  22  26
ATOM     26  O   UNL     1     175.138 150.652 154.825  1.00  0.00    -0.496 OA
ATOM     27  C   UNL     1     175.802 151.371 155.824  1.00  0.00     0.278 C 
ENDBRANCH  22  26
BRANCH  23  28
ATOM     28  O   UNL     1     170.833 148.814 153.720  1.00  0.00    -0.496 OA
ATOM     29  C   UNL     1     169.658 149.527 154.125  1.00  0.00     0.278 C 
ENDBRANCH  23  28
ENDBRANCH  16  19
ENDBRANCH  15  16
BRANCH  15  30
ATOM     30  C   UNL     1     171.406 148.886 158.640  1.00  0.00     0.012 C 
BRANCH  30  31
ATOM     31  C   UNL     1     171.656 150.397 158.915  1.00  0.00    -0.002 C 
ATOM     32  C   UNL     1     171.742 151.286 157.633  1.00  0.00     0.039 C 
ATOM     33  C   UNL     1     170.407 150.954 159.642  1.00  0.00     0.039 C 
ATOM     34  C   UNL     1     170.344 151.751 157.402  1.00  0.00    -0.045 A 
ATOM     35  C   UNL     1     169.552 151.476 158.532  1.00  0.00    -0.045 A 
ATOM     36  C   UNL     1     169.787 152.316 156.254  1.00  0.00     0.004 A 
ATOM     37  C   UNL     1     168.171 151.724 158.512  1.00  0.00     0.004 A 
ATOM     38  C   UNL     1     168.400 152.587 156.227  1.00  0.00     0.000 A 
ATOM     39  C   UNL     1     167.600 152.291 157.335  1.00  0.00     0.000 A 
ENDBRANCH  30  31
ENDBRANCH  15  30
ENDBRANCH   1  15
TORSDOF 13
ENDMDL
MODEL 9
REMARK VINA RESULT:      -8.9      2.030      3.655
REMARK SMILES COC(=O)c1cn(C[C@H](CC2Cc3ccccc3C2)[C@H](O)c2cc(OC)c(C)c(OC)c2)cc1CC(=O)[O-]
REMARK SMILES IDX 8 1 7 2 5 3 34 4 6 5 33 6 3 7 4 8 2 9 1 10 35 11 36 12 37 13
REMARK SMILES IDX 38 14 9 15 20 16 21 17 22 19 32 20 23 21 29 22 24 23 27 24
REMARK SMILES IDX 28 25 30 26 31 27 25 28 26 29 10 30 11 31 12 32 19 33 13 34
REMARK SMILES IDX 18 35 14 36 17 37 15 38 16 39
REMARK H PARENT 21 18
REMARK INDEX MAP 14 1 13 2 5 3 6 4 12 5 11 6 2 7 1 8 3 9 4 10 7 11 8 12 9 13
REMARK INDEX MAP 10 14 15 15 16 16 17 17 50 18 18 19 19 20 20 21 26 22 21 23
REMARK INDEX MAP 24 24 25 25 27 26 28 27 22 28 23 29 29 30 30 31 31 32 38 33
REMARK INDEX MAP 32 34 37 35 33 36 36 37 34 38 35 39
ROOT
ATOM      1  C   UNL     1     173.506 147.132 157.955  1.00  0.00     0.128 C 
ENDROOT
BRANCH   1   2
ATOM      2  N   UNL     1     173.297 146.319 159.147  1.00  0.00    -0.353 N 
ATOM      3  C   UNL     1     173.450 144.610 160.568  1.00  0.00     0.081 A 
ATOM      4  C   UNL     1     172.443 145.511 161.073  1.00  0.00    -0.010 A 
ATOM      5  C   UNL     1     173.955 145.137 159.393  1.00  0.00     0.101 A 
ATOM      6  C   UNL     1     172.378 146.559 160.169  1.00  0.00     0.090 A 
BRANCH   3   7
ATOM      7  C   UNL     1     173.936 143.362 161.112  1.00  0.00     0.339 C 
ATOM      8  O   UNL     1     174.124 142.292 160.527  1.00  0.00    -0.246 OA
BRANCH   7   9
ATOM      9  O   UNL     1     174.233 143.515 162.457  1.00  0.00    -0.465 OA
ATOM     10  C   UNL     1     175.481 143.145 162.976  1.00  0.00     0.282 C 
ENDBRANCH   7   9
ENDBRANCH   3   7
BRANCH   4  11
ATOM     11  C   UNL     1     171.615 145.399 162.299  1.00  0.00     0.090 C 
BRANCH  11  12
ATOM     12  C   UNL     1     170.401 144.394 162.167  1.00  0.00     0.046 C 
ATOM     13  O   UNL     1     170.676 143.179 162.312  1.00  0.00    -0.550 OA
ATOM     14  O   UNL     1     169.249 144.851 161.938  1.00  0.00    -0.550 OA
ENDBRANCH  11  12
ENDBRANCH   4  11
ENDBRANCH   1   2
BRANCH   1  15
ATOM     15  C   UNL     1     172.465 148.241 157.638  1.00  0.00     0.042 C 
BRANCH  15  16
ATOM     16  C   UNL     1     171.390 147.822 156.534  1.00  0.00     0.149 C 
BRANCH  16  17
ATOM     17  O   UNL     1     171.525 146.469 156.162  1.00  0.00    -0.388 OA
ATOM     18  H   UNL     1     170.647 146.059 156.112  1.00  0.00     0.211 HD
ENDBRANCH  16  17
BRANCH  16  19
ATOM     19  C   UNL     1     171.536 148.664 155.276  1.00  0.00    -0.012 A 
ATOM     20  C   UNL     1     172.814 149.144 154.949  1.00  0.00     0.053 A 
ATOM     21  C   UNL     1     170.433 148.951 154.461  1.00  0.00     0.053 A 
ATOM     22  C   UNL     1     172.998 149.906 153.779  1.00  0.00     0.125 A 
ATOM     23  C   UNL     1     170.610 149.732 153.297  1.00  0.00     0.125 A 
ATOM     24  C   UNL     1     171.890 150.231 152.917  1.00  0.00     0.033 A 
ATOM     25  C   UNL     1     172.074 151.035 151.680  1.00  0.00     0.052 C 
BRANCH  22  26
ATOM     26  O   UNL     1     174.240 150.389 153.380  1.00  0.00    -0.496 OA
ATOM     27  C   UNL     1     175.395 150.009 154.072  1.00  0.00     0.278 C 
ENDBRANCH  22  26
BRANCH  23  28
ATOM     28  O   UNL     1     169.531 150.018 152.472  1.00  0.00    -0.496 OA
ATOM     29  C   UNL     1     168.689 148.918 152.104  1.00  0.00     0.278 C 
ENDBRANCH  23  28
ENDBRANCH  16  19
ENDBRANCH  15  16
BRANCH  15  30
ATOM     30  C   UNL     1     171.776 148.797 158.911  1.00  0.00     0.012 C 
BRANCH  30  31
ATOM     31  C   UNL     1     171.865 150.328 159.174  1.00  0.00    -0.002 C 
ATOM     32  C   UNL     1     172.045 151.200 157.890  1.00  0.00     0.039 C 
ATOM     33  C   UNL     1     170.490 150.790 159.719  1.00  0.00     0.039 C 
ATOM     34  C   UNL     1     170.656 151.542 157.468  1.00  0.00    -0.045 A 
ATOM     35  C   UNL     1     169.748 151.220 158.493  1.00  0.00    -0.045 A 
ATOM     36  C   UNL     1     170.209 152.039 156.243  1.00  0.00     0.004 A 
ATOM     37  C   UNL     1     168.366 151.351 158.289  1.00  0.00     0.004 A 
ATOM     38  C   UNL     1     168.820 152.192 156.030  1.00  0.00     0.000 A 
ATOM     39  C   UNL     1     167.910 151.848 157.033  1.00  0.00     0.000 A 
ENDBRANCH  30  31
ENDBRANCH  15  30
ENDBRANCH   1  15
TORSDOF 13
ENDMDL
