MODEL 1
REMARK VINA RESULT:      -7.7      0.000      0.000
REMARK SMILES CCCCCCc1ccccc1CCCCC(=O)N[C@H](CO)COP(=O)([O-])[O-]
REMARK SMILES IDX 14 1 15 2 16 3 17 4 19 5 18 6 20 8 23 9 24 10 25 11 26 12
REMARK SMILES IDX 27 13 28 14 21 15 22 16 13 18 12 19 7 20 11 21 8 22 10 23
REMARK SMILES IDX 9 24 6 25 5 26 4 27 3 28 2 29 1 30
REMARK H PARENT 19 7 22 17
REMARK INDEX MAP 18 1 9 2 19 3 10 4 1 5 20 6 29 7 21 8 11 9 24 10 25 11 26 12
REMARK INDEX MAP 27 13 28 14 22 15 23 16 60 17 8 18 17 19 5 20 16 21 6 22 7 23
REMARK INDEX MAP 15 24 4 25 3 26 2 27 14 28 13 29 12 30
ROOT
ATOM      1  C   UNL     1     171.124 149.809 157.868  1.00  0.00     0.005 C 
ENDROOT
BRANCH   1   2
ATOM      2  C   UNL     1     171.710 149.063 159.065  1.00  0.00     0.010 C 
BRANCH   2   3
ATOM      3  C   UNL     1     172.483 147.813 158.758  1.00  0.00     0.100 C 
BRANCH   3   4
ATOM      4  C   UNL     1     172.596 146.805 159.878  1.00  0.00     0.220 C 
ATOM      5  N   UNL     1     173.690 146.053 159.963  1.00  0.00    -0.349 N 
ATOM      6  O   UNL     1     171.686 146.688 160.698  1.00  0.00    -0.275 OA
ATOM      7  H   UNL     1     174.439 146.208 159.343  1.00  0.00     0.163 HD
BRANCH   5   8
ATOM      8  C   UNL     1     173.788 145.003 160.963  1.00  0.00     0.133 C 
BRANCH   8   9
ATOM      9  C   UNL     1     174.552 143.909 160.253  1.00  0.00     0.193 C 
BRANCH   9  10
ATOM     10  O   UNL     1     174.687 142.732 161.070  1.00  0.00    -0.349 OA
BRANCH  10  11
ATOM     11  P   UNL     1     176.153 142.086 161.097  1.00  0.00     0.060 P 
ATOM     12  O   UNL     1     176.636 142.395 162.508  1.00  0.00    -0.326 OA
ATOM     13  O   UNL     1     175.967 140.592 160.841  1.00  0.00    -0.790 OA
ATOM     14  O   UNL     1     176.976 142.758 160.012  1.00  0.00    -0.790 OA
ENDBRANCH  10  11
ENDBRANCH   9  10
ENDBRANCH   8   9
BRANCH   8  15
ATOM     15  C   UNL     1     174.491 145.490 162.222  1.00  0.00     0.183 C 
BRANCH  15  16
ATOM     16  O   UNL     1     173.837 146.554 162.877  1.00  0.00    -0.394 OA
ATOM     17  H   UNL     1     174.468 147.017 163.451  1.00  0.00     0.210 HD
ENDBRANCH  15  16
ENDBRANCH   8  15
ENDBRANCH   5   8
ENDBRANCH   3   4
ENDBRANCH   2   3
ENDBRANCH   1   2
BRANCH   1  18
ATOM     18  C   UNL     1     172.130 150.696 157.186  1.00  0.00     0.036 C 
BRANCH  18  19
ATOM     19  C   UNL     1     172.671 150.223 155.851  1.00  0.00    -0.045 A 
ATOM     20  C   UNL     1     172.014 150.546 154.655  1.00  0.00    -0.045 A 
ATOM     21  C   UNL     1     173.862 149.510 155.773  1.00  0.00     0.004 A 
ATOM     22  C   UNL     1     172.556 150.129 153.440  1.00  0.00     0.004 A 
ATOM     23  C   UNL     1     174.363 149.079 154.563  1.00  0.00     0.000 A 
ATOM     24  C   UNL     1     173.709 149.383 153.397  1.00  0.00     0.000 A 
BRANCH  20  25
ATOM     25  C   UNL     1     170.707 151.320 154.647  1.00  0.00     0.036 C 
BRANCH  25  26
ATOM     26  C   UNL     1     169.505 150.410 154.715  1.00  0.00     0.005 C 
BRANCH  26  27
ATOM     27  C   UNL     1     168.357 150.962 155.541  1.00  0.00     0.000 C 
BRANCH  27  28
ATOM     28  C   UNL     1     168.557 152.368 156.008  1.00  0.00    -0.000 C 
BRANCH  28  29
ATOM     29  C   UNL     1     168.911 152.462 157.461  1.00  0.00    -0.003 C 
ATOM     30  C   UNL     1     167.981 151.739 158.407  1.00  0.00     0.004 C 
ENDBRANCH  28  29
ENDBRANCH  27  28
ENDBRANCH  26  27
ENDBRANCH  25  26
ENDBRANCH  20  25
ENDBRANCH  18  19
ENDBRANCH   1  18
TORSDOF 16
ENDMDL
MODEL 2
REMARK VINA RESULT:      -7.6      1.517      3.693
REMARK SMILES CCCCCCc1ccccc1CCCCC(=O)N[C@H](CO)COP(=O)([O-])[O-]
REMARK SMILES IDX 14 1 15 2 16 3 17 4 19 5 18 6 20 8 23 9 24 10 25 11 26 12
REMARK SMILES IDX 27 13 28 14 21 15 22 16 13 18 12 19 7 20 11 21 8 22 10 23
REMARK SMILES IDX 9 24 6 25 5 26 4 27 3 28 2 29 1 30
REMARK H PARENT 19 7 22 17
REMARK INDEX MAP 18 1 9 2 19 3 10 4 1 5 20 6 29 7 21 8 11 9 24 10 25 11 26 12
REMARK INDEX MAP 27 13 28 14 22 15 23 16 60 17 8 18 17 19 5 20 16 21 6 22 7 23
REMARK INDEX MAP 15 24 4 25 3 26 2 27 14 28 13 29 12 30
ROOT
ATOM      1  C   UNL     1     173.044 149.591 156.644  1.00  0.00     0.005 C 
ENDROOT
BRANCH   1   2
ATOM      2  C   UNL     1     173.755 148.333 156.149  1.00  0.00     0.010 C 
BRANCH   2   3
ATOM      3  C   UNL     1     174.624 147.623 157.146  1.00  0.00     0.100 C 
BRANCH   3   4
ATOM      4  C   UNL     1     173.973 146.503 157.924  1.00  0.00     0.220 C 
ATOM      5  N   UNL     1     174.612 145.987 158.971  1.00  0.00    -0.349 N 
ATOM      6  O   UNL     1     172.867 146.080 157.590  1.00  0.00    -0.275 OA
ATOM      7  H   UNL     1     175.462 146.384 159.269  1.00  0.00     0.163 HD
BRANCH   5   8
ATOM      8  C   UNL     1     174.064 144.843 159.679  1.00  0.00     0.133 C 
BRANCH   8   9
ATOM      9  C   UNL     1     175.219 143.869 159.723  1.00  0.00     0.193 C 
BRANCH   9  10
ATOM     10  O   UNL     1     174.816 142.581 160.224  1.00  0.00    -0.349 OA
BRANCH  10  11
ATOM     11  P   UNL     1     175.885 141.854 161.171  1.00  0.00     0.060 P 
ATOM     12  O   UNL     1     177.178 142.593 160.856  1.00  0.00    -0.326 OA
ATOM     13  O   UNL     1     175.403 142.072 162.604  1.00  0.00    -0.790 OA
ATOM     14  O   UNL     1     175.916 140.384 160.792  1.00  0.00    -0.790 OA
ENDBRANCH  10  11
ENDBRANCH   9  10
ENDBRANCH   8   9
BRANCH   8  15
ATOM     15  C   UNL     1     173.563 145.224 161.065  1.00  0.00     0.183 C 
BRANCH  15  16
ATOM     16  O   UNL     1     173.137 144.132 161.848  1.00  0.00    -0.394 OA
ATOM     17  H   UNL     1     173.063 144.408 162.775  1.00  0.00     0.210 HD
ENDBRANCH  15  16
ENDBRANCH   8  15
ENDBRANCH   5   8
ENDBRANCH   3   4
ENDBRANCH   2   3
ENDBRANCH   1   2
BRANCH   1  18
ATOM     18  C   UNL     1     171.655 149.314 157.151  1.00  0.00     0.036 C 
BRANCH  18  19
ATOM     19  C   UNL     1     170.971 150.425 157.923  1.00  0.00    -0.045 A 
ATOM     20  C   UNL     1     170.213 151.401 157.257  1.00  0.00    -0.045 A 
ATOM     21  C   UNL     1     171.025 150.473 159.311  1.00  0.00     0.004 A 
ATOM     22  C   UNL     1     169.564 152.388 157.997  1.00  0.00     0.004 A 
ATOM     23  C   UNL     1     170.402 151.477 160.021  1.00  0.00     0.000 A 
ATOM     24  C   UNL     1     169.676 152.438 159.365  1.00  0.00     0.000 A 
BRANCH  20  25
ATOM     25  C   UNL     1     170.101 151.427 155.742  1.00  0.00     0.036 C 
BRANCH  25  26
ATOM     26  C   UNL     1     169.121 150.403 155.225  1.00  0.00     0.005 C 
BRANCH  26  27
ATOM     27  C   UNL     1     169.582 149.683 153.970  1.00  0.00     0.000 C 
BRANCH  27  28
ATOM     28  C   UNL     1     170.705 150.360 153.252  1.00  0.00    -0.000 C 
BRANCH  28  29
ATOM     29  C   UNL     1     171.915 149.490 153.097  1.00  0.00    -0.003 C 
ATOM     30  C   UNL     1     173.242 150.214 153.082  1.00  0.00     0.004 C 
ENDBRANCH  28  29
ENDBRANCH  27  28
ENDBRANCH  26  27
ENDBRANCH  25  26
ENDBRANCH  20  25
ENDBRANCH  18  19
ENDBRANCH   1  18
TORSDOF 16
ENDMDL
MODEL 3
REMARK VINA RESULT:      -7.6      1.546      2.187
REMARK SMILES CCCCCCc1ccccc1CCCCC(=O)N[C@H](CO)COP(=O)([O-])[O-]
REMARK SMILES IDX 14 1 15 2 16 3 17 4 19 5 18 6 20 8 23 9 24 10 25 11 26 12
REMARK SMILES IDX 27 13 28 14 21 15 22 16 13 18 12 19 7 20 11 21 8 22 10 23
REMARK SMILES IDX 9 24 6 25 5 26 4 27 3 28 2 29 1 30
REMARK H PARENT 19 7 22 17
REMARK INDEX MAP 18 1 9 2 19 3 10 4 1 5 20 6 29 7 21 8 11 9 24 10 25 11 26 12
REMARK INDEX MAP 27 13 28 14 22 15 23 16 60 17 8 18 17 19 5 20 16 21 6 22 7 23
REMARK INDEX MAP 15 24 4 25 3 26 2 27 14 28 13 29 12 30
ROOT
ATOM      1  C   UNL     1     174.438 148.088 155.361  1.00  0.00     0.005 C 
ENDROOT
BRANCH   1   2
ATOM      2  C   UNL     1     174.848 147.495 156.707  1.00  0.00     0.010 C 
BRANCH   2   3
ATOM      3  C   UNL     1     173.794 147.474 157.776  1.00  0.00     0.100 C 
BRANCH   3   4
ATOM      4  C   UNL     1     173.325 146.111 158.227  1.00  0.00     0.220 C 
ATOM      5  N   UNL     1     173.721 145.649 159.410  1.00  0.00    -0.349 N 
ATOM      6  O   UNL     1     172.585 145.442 157.506  1.00  0.00    -0.275 OA
ATOM      7  H   UNL     1     174.254 146.225 160.006  1.00  0.00     0.163 HD
BRANCH   5   8
ATOM      8  C   UNL     1     173.375 144.303 159.830  1.00  0.00     0.133 C 
BRANCH   8   9
ATOM      9  C   UNL     1     174.708 143.590 159.866  1.00  0.00     0.193 C 
BRANCH   9  10
ATOM     10  O   UNL     1     174.592 142.262 160.410  1.00  0.00    -0.349 OA
BRANCH  10  11
ATOM     11  P   UNL     1     175.861 141.757 161.249  1.00  0.00     0.060 P 
ATOM     12  O   UNL     1     175.410 141.939 162.692  1.00  0.00    -0.326 OA
ATOM     13  O   UNL     1     176.071 140.293 160.866  1.00  0.00    -0.790 OA
ATOM     14  O   UNL     1     177.046 142.627 160.867  1.00  0.00    -0.790 OA
ENDBRANCH  10  11
ENDBRANCH   9  10
ENDBRANCH   8   9
BRANCH   8  15
ATOM     15  C   UNL     1     172.669 144.297 161.179  1.00  0.00     0.183 C 
BRANCH  15  16
ATOM     16  O   UNL     1     171.283 144.553 161.108  1.00  0.00    -0.394 OA
ATOM     17  H   UNL     1     171.127 145.338 160.560  1.00  0.00     0.210 HD
ENDBRANCH  15  16
ENDBRANCH   8  15
ENDBRANCH   5   8
ENDBRANCH   3   4
ENDBRANCH   2   3
ENDBRANCH   1   2
BRANCH   1  18
ATOM     18  C   UNL     1     173.768 149.428 155.495  1.00  0.00     0.036 C 
BRANCH  18  19
ATOM     19  C   UNL     1     173.162 150.023 154.238  1.00  0.00    -0.045 A 
ATOM     20  C   UNL     1     171.964 150.750 154.294  1.00  0.00    -0.045 A 
ATOM     21  C   UNL     1     173.807 149.916 153.012  1.00  0.00     0.004 A 
ATOM     22  C   UNL     1     171.451 151.317 153.129  1.00  0.00     0.004 A 
ATOM     23  C   UNL     1     173.266 150.457 151.865  1.00  0.00     0.000 A 
ATOM     24  C   UNL     1     172.085 151.153 151.921  1.00  0.00     0.000 A 
BRANCH  20  25
ATOM     25  C   UNL     1     171.191 150.915 155.592  1.00  0.00     0.036 C 
BRANCH  25  26
ATOM     26  C   UNL     1     169.745 151.276 155.352  1.00  0.00     0.005 C 
BRANCH  26  27
ATOM     27  C   UNL     1     169.201 152.321 156.310  1.00  0.00     0.000 C 
BRANCH  27  28
ATOM     28  C   UNL     1     167.929 151.927 156.989  1.00  0.00    -0.000 C 
BRANCH  28  29
ATOM     29  C   UNL     1     168.101 151.664 158.455  1.00  0.00    -0.003 C 
ATOM     30  C   UNL     1     169.364 152.218 159.073  1.00  0.00     0.004 C 
ENDBRANCH  28  29
ENDBRANCH  27  28
ENDBRANCH  26  27
ENDBRANCH  25  26
ENDBRANCH  20  25
ENDBRANCH  18  19
ENDBRANCH   1  18
TORSDOF 16
ENDMDL
MODEL 4
REMARK VINA RESULT:      -7.6      1.623      3.653
REMARK SMILES CCCCCCc1ccccc1CCCCC(=O)N[C@H](CO)COP(=O)([O-])[O-]
REMARK SMILES IDX 14 1 15 2 16 3 17 4 19 5 18 6 20 8 23 9 24 10 25 11 26 12
REMARK SMILES IDX 27 13 28 14 21 15 22 16 13 18 12 19 7 20 11 21 8 22 10 23
REMARK SMILES IDX 9 24 6 25 5 26 4 27 3 28 2 29 1 30
REMARK H PARENT 19 7 22 17
REMARK INDEX MAP 18 1 9 2 19 3 10 4 1 5 20 6 29 7 21 8 11 9 24 10 25 11 26 12
REMARK INDEX MAP 27 13 28 14 22 15 23 16 60 17 8 18 17 19 5 20 16 21 6 22 7 23
REMARK INDEX MAP 15 24 4 25 3 26 2 27 14 28 13 29 12 30
ROOT
ATOM      1  C   UNL     1     173.947 150.066 156.848  1.00  0.00     0.005 C 
ENDROOT
BRANCH   1   2
ATOM      2  C   UNL     1     174.043 148.674 156.227  1.00  0.00     0.010 C 
BRANCH   2   3
ATOM      3  C   UNL     1     174.634 147.598 157.092  1.00  0.00     0.100 C 
BRANCH   3   4
ATOM      4  C   UNL     1     173.651 146.708 157.816  1.00  0.00     0.220 C 
ATOM      5  N   UNL     1     173.917 146.334 159.066  1.00  0.00    -0.349 N 
ATOM      6  O   UNL     1     172.621 146.339 157.255  1.00  0.00    -0.275 OA
ATOM      7  H   UNL     1     174.709 146.695 159.526  1.00  0.00     0.163 HD
BRANCH   5   8
ATOM      8  C   UNL     1     173.048 145.397 159.756  1.00  0.00     0.133 C 
BRANCH   8   9
ATOM      9  C   UNL     1     173.814 144.095 159.695  1.00  0.00     0.193 C 
BRANCH   9  10
ATOM     10  O   UNL     1     175.131 144.220 160.263  1.00  0.00    -0.349 OA
BRANCH  10  11
ATOM     11  P   UNL     1     175.796 142.846 160.749  1.00  0.00     0.060 P 
ATOM     12  O   UNL     1     177.087 142.788 159.942  1.00  0.00    -0.326 OA
ATOM     13  O   UNL     1     176.034 142.993 162.250  1.00  0.00    -0.790 OA
ATOM     14  O   UNL     1     174.827 141.722 160.427  1.00  0.00    -0.790 OA
ENDBRANCH  10  11
ENDBRANCH   9  10
ENDBRANCH   8   9
BRANCH   8  15
ATOM     15  C   UNL     1     172.757 145.843 161.182  1.00  0.00     0.183 C 
BRANCH  15  16
ATOM     16  O   UNL     1     173.006 144.857 162.160  1.00  0.00    -0.394 OA
ATOM     17  H   UNL     1     173.274 144.032 161.726  1.00  0.00     0.210 HD
ENDBRANCH  15  16
ENDBRANCH   8  15
ENDBRANCH   5   8
ENDBRANCH   3   4
ENDBRANCH   2   3
ENDBRANCH   1   2
BRANCH   1  18
ATOM     18  C   UNL     1     172.719 150.816 156.408  1.00  0.00     0.036 C 
BRANCH  18  19
ATOM     19  C   UNL     1     171.674 151.106 157.468  1.00  0.00    -0.045 A 
ATOM     20  C   UNL     1     170.349 151.398 157.109  1.00  0.00    -0.045 A 
ATOM     21  C   UNL     1     171.985 151.031 158.820  1.00  0.00     0.004 A 
ATOM     22  C   UNL     1     169.403 151.624 158.106  1.00  0.00     0.004 A 
ATOM     23  C   UNL     1     171.040 151.290 159.790  1.00  0.00     0.000 A 
ATOM     24  C   UNL     1     169.750 151.591 159.435  1.00  0.00     0.000 A 
BRANCH  20  25
ATOM     25  C   UNL     1     169.922 151.503 155.655  1.00  0.00     0.036 C 
BRANCH  25  26
ATOM     26  C   UNL     1     169.307 150.222 155.147  1.00  0.00     0.005 C 
BRANCH  26  27
ATOM     27  C   UNL     1     170.188 149.454 154.177  1.00  0.00     0.000 C 
BRANCH  27  28
ATOM     28  C   UNL     1     170.477 150.182 152.904  1.00  0.00    -0.000 C 
BRANCH  28  29
ATOM     29  C   UNL     1     171.779 150.925 152.934  1.00  0.00    -0.003 C 
ATOM     30  C   UNL     1     172.344 151.305 151.584  1.00  0.00     0.004 C 
ENDBRANCH  28  29
ENDBRANCH  27  28
ENDBRANCH  26  27
ENDBRANCH  25  26
ENDBRANCH  20  25
ENDBRANCH  18  19
ENDBRANCH   1  18
TORSDOF 16
ENDMDL
MODEL 5
REMARK VINA RESULT:      -7.5      1.482      3.638
REMARK SMILES CCCCCCc1ccccc1CCCCC(=O)N[C@H](CO)COP(=O)([O-])[O-]
REMARK SMILES IDX 14 1 15 2 16 3 17 4 19 5 18 6 20 8 23 9 24 10 25 11 26 12
REMARK SMILES IDX 27 13 28 14 21 15 22 16 13 18 12 19 7 20 11 21 8 22 10 23
REMARK SMILES IDX 9 24 6 25 5 26 4 27 3 28 2 29 1 30
REMARK H PARENT 19 7 22 17
REMARK INDEX MAP 18 1 9 2 19 3 10 4 1 5 20 6 29 7 21 8 11 9 24 10 25 11 26 12
REMARK INDEX MAP 27 13 28 14 22 15 23 16 60 17 8 18 17 19 5 20 16 21 6 22 7 23
REMARK INDEX MAP 15 24 4 25 3 26 2 27 14 28 13 29 12 30
ROOT
ATOM      1  C   UNL     1     171.652 147.965 157.930  1.00  0.00     0.005 C 
ENDROOT
BRANCH   1   2
ATOM      2  C   UNL     1     172.487 147.194 158.950  1.00  0.00     0.010 C 
BRANCH   2   3
ATOM      3  C   UNL     1     172.046 147.289 160.382  1.00  0.00     0.100 C 
BRANCH   3   4
ATOM      4  C   UNL     1     172.400 146.119 161.270  1.00  0.00     0.220 C 
ATOM      5  N   UNL     1     173.680 145.797 161.435  1.00  0.00    -0.349 N 
ATOM      6  O   UNL     1     171.512 145.478 161.831  1.00  0.00    -0.275 OA
ATOM      7  H   UNL     1     174.382 146.362 161.038  1.00  0.00     0.163 HD
BRANCH   5   8
ATOM      8  C   UNL     1     174.052 144.617 162.197  1.00  0.00     0.133 C 
BRANCH   8   9
ATOM      9  C   UNL     1     174.879 143.813 161.221  1.00  0.00     0.193 C 
BRANCH   9  10
ATOM     10  O   UNL     1     174.707 142.396 161.411  1.00  0.00    -0.349 OA
BRANCH  10  11
ATOM     11  P   UNL     1     176.059 141.571 161.651  1.00  0.00     0.060 P 
ATOM     12  O   UNL     1     177.143 142.590 161.324  1.00  0.00    -0.326 OA
ATOM     13  O   UNL     1     176.051 141.156 163.121  1.00  0.00    -0.790 OA
ATOM     14  O   UNL     1     176.045 140.375 160.716  1.00  0.00    -0.790 OA
ENDBRANCH  10  11
ENDBRANCH   9  10
ENDBRANCH   8   9
BRANCH   8  15
ATOM     15  C   UNL     1     174.820 144.981 163.460  1.00  0.00     0.183 C 
BRANCH  15  16
ATOM     16  O   UNL     1     175.980 144.208 163.676  1.00  0.00    -0.394 OA
ATOM     17  H   UNL     1     175.730 143.281 163.808  1.00  0.00     0.210 HD
ENDBRANCH  15  16
ENDBRANCH   8  15
ENDBRANCH   5   8
ENDBRANCH   3   4
ENDBRANCH   2   3
ENDBRANCH   1   2
BRANCH   1  18
ATOM     18  C   UNL     1     172.163 149.360 157.694  1.00  0.00     0.036 C 
BRANCH  18  19
ATOM     19  C   UNL     1     171.323 150.501 158.233  1.00  0.00    -0.045 A 
ATOM     20  C   UNL     1     170.695 151.404 157.361  1.00  0.00    -0.045 A 
ATOM     21  C   UNL     1     171.102 150.646 159.597  1.00  0.00     0.004 A 
ATOM     22  C   UNL     1     169.898 152.420 157.885  1.00  0.00     0.004 A 
ATOM     23  C   UNL     1     170.336 151.678 160.096  1.00  0.00     0.000 A 
ATOM     24  C   UNL     1     169.738 152.569 159.241  1.00  0.00     0.000 A 
BRANCH  20  25
ATOM     25  C   UNL     1     170.883 151.321 155.856  1.00  0.00     0.036 C 
BRANCH  25  26
ATOM     26  C   UNL     1     169.649 150.810 155.154  1.00  0.00     0.005 C 
BRANCH  26  27
ATOM     27  C   UNL     1     169.872 149.539 154.356  1.00  0.00     0.000 C 
BRANCH  27  28
ATOM     28  C   UNL     1     171.219 149.445 153.715  1.00  0.00    -0.000 C 
BRANCH  28  29
ATOM     29  C   UNL     1     172.015 148.265 154.184  1.00  0.00    -0.003 C 
ATOM     30  C   UNL     1     173.331 148.042 153.476  1.00  0.00     0.004 C 
ENDBRANCH  28  29
ENDBRANCH  27  28
ENDBRANCH  26  27
ENDBRANCH  25  26
ENDBRANCH  20  25
ENDBRANCH  18  19
ENDBRANCH   1  18
TORSDOF 16
ENDMDL
MODEL 6
REMARK VINA RESULT:      -7.5      1.925      3.008
REMARK SMILES CCCCCCc1ccccc1CCCCC(=O)N[C@H](CO)COP(=O)([O-])[O-]
REMARK SMILES IDX 14 1 15 2 16 3 17 4 19 5 18 6 20 8 23 9 24 10 25 11 26 12
REMARK SMILES IDX 27 13 28 14 21 15 22 16 13 18 12 19 7 20 11 21 8 22 10 23
REMARK SMILES IDX 9 24 6 25 5 26 4 27 3 28 2 29 1 30
REMARK H PARENT 19 7 22 17
REMARK INDEX MAP 18 1 9 2 19 3 10 4 1 5 20 6 29 7 21 8 11 9 24 10 25 11 26 12
REMARK INDEX MAP 27 13 28 14 22 15 23 16 60 17 8 18 17 19 5 20 16 21 6 22 7 23
REMARK INDEX MAP 15 24 4 25 3 26 2 27 14 28 13 29 12 30
ROOT
ATOM      1  C   UNL     1     172.384 149.587 157.865  1.00  0.00     0.005 C 
ENDROOT
BRANCH   1   2
ATOM      2  C   UNL     1     171.323 148.650 157.290  1.00  0.00     0.010 C 
BRANCH   2   3
ATOM      3  C   UNL     1     171.822 147.378 156.669  1.00  0.00     0.100 C 
BRANCH   3   4
ATOM      4  C   UNL     1     173.151 146.866 157.171  1.00  0.00     0.220 C 
ATOM      5  N   UNL     1     173.183 146.115 158.269  1.00  0.00    -0.349 N 
ATOM      6  O   UNL     1     174.188 147.142 156.567  1.00  0.00    -0.275 OA
ATOM      7  H   UNL     1     172.340 145.843 158.700  1.00  0.00     0.163 HD
BRANCH   5   8
ATOM      8  C   UNL     1     174.451 145.692 158.837  1.00  0.00     0.133 C 
BRANCH   8   9
ATOM      9  C   UNL     1     174.258 145.896 160.322  1.00  0.00     0.193 C 
BRANCH   9  10
ATOM     10  O   UNL     1     172.867 145.879 160.691  1.00  0.00    -0.349 OA
BRANCH  10  11
ATOM     11  P   UNL     1     172.515 144.999 161.983  1.00  0.00     0.060 P 
ATOM     12  O   UNL     1     172.911 143.592 161.555  1.00  0.00    -0.326 OA
ATOM     13  O   UNL     1     173.377 145.545 163.120  1.00  0.00    -0.790 OA
ATOM     14  O   UNL     1     171.030 145.155 162.260  1.00  0.00    -0.790 OA
ENDBRANCH  10  11
ENDBRANCH   9  10
ENDBRANCH   8   9
BRANCH   8  15
ATOM     15  C   UNL     1     174.775 144.248 158.479  1.00  0.00     0.183 C 
BRANCH  15  16
ATOM     16  O   UNL     1     175.981 144.085 157.765  1.00  0.00    -0.394 OA
ATOM     17  H   UNL     1     176.227 144.926 157.350  1.00  0.00     0.210 HD
ENDBRANCH  15  16
ENDBRANCH   8  15
ENDBRANCH   5   8
ENDBRANCH   3   4
ENDBRANCH   2   3
ENDBRANCH   1   2
BRANCH   1  18
ATOM     18  C   UNL     1     172.585 150.822 157.030  1.00  0.00     0.036 C 
BRANCH  18  19
ATOM     19  C   UNL     1     172.702 150.627 155.531  1.00  0.00    -0.045 A 
ATOM     20  C   UNL     1     171.653 150.995 154.675  1.00  0.00    -0.045 A 
ATOM     21  C   UNL     1     173.871 150.137 154.962  1.00  0.00     0.004 A 
ATOM     22  C   UNL     1     171.805 150.839 153.299  1.00  0.00     0.004 A 
ATOM     23  C   UNL     1     173.989 149.961 153.600  1.00  0.00     0.000 A 
ATOM     24  C   UNL     1     172.954 150.306 152.767  1.00  0.00     0.000 A 
BRANCH  20  25
ATOM     25  C   UNL     1     170.339 151.537 155.211  1.00  0.00     0.036 C 
BRANCH  25  26
ATOM     26  C   UNL     1     169.189 150.593 154.962  1.00  0.00     0.005 C 
BRANCH  26  27
ATOM     27  C   UNL     1     167.939 150.916 155.760  1.00  0.00     0.000 C 
BRANCH  27  28
ATOM     28  C   UNL     1     168.098 152.053 156.717  1.00  0.00    -0.000 C 
BRANCH  28  29
ATOM     29  C   UNL     1     168.079 151.623 158.152  1.00  0.00    -0.003 C 
ATOM     30  C   UNL     1     169.291 152.013 158.966  1.00  0.00     0.004 C 
ENDBRANCH  28  29
ENDBRANCH  27  28
ENDBRANCH  26  27
ENDBRANCH  25  26
ENDBRANCH  20  25
ENDBRANCH  18  19
ENDBRANCH   1  18
TORSDOF 16
ENDMDL
MODEL 7
REMARK VINA RESULT:      -7.5      3.258      5.427
REMARK SMILES CCCCCCc1ccccc1CCCCC(=O)N[C@H](CO)COP(=O)([O-])[O-]
REMARK SMILES IDX 14 1 15 2 16 3 17 4 19 5 18 6 20 8 23 9 24 10 25 11 26 12
REMARK SMILES IDX 27 13 28 14 21 15 22 16 13 18 12 19 7 20 11 21 8 22 10 23
REMARK SMILES IDX 9 24 6 25 5 26 4 27 3 28 2 29 1 30
REMARK H PARENT 19 7 22 17
REMARK INDEX MAP 18 1 9 2 19 3 10 4 1 5 20 6 29 7 21 8 11 9 24 10 25 11 26 12
REMARK INDEX MAP 27 13 28 14 22 15 23 16 60 17 8 18 17 19 5 20 16 21 6 22 7 23
REMARK INDEX MAP 15 24 4 25 3 26 2 27 14 28 13 29 12 30
ROOT
ATOM      1  C   UNL     1     171.374 149.950 159.664  1.00  0.00     0.005 C 
ENDROOT
BRANCH   1   2
ATOM      2  C   UNL     1     171.569 148.659 158.872  1.00  0.00     0.010 C 
BRANCH   2   3
ATOM      3  C   UNL     1     172.154 147.498 159.622  1.00  0.00     0.100 C 
BRANCH   3   4
ATOM      4  C   UNL     1     172.891 146.470 158.796  1.00  0.00     0.220 C 
ATOM      5  N   UNL     1     174.211 146.574 158.662  1.00  0.00    -0.349 N 
ATOM      6  O   UNL     1     172.274 145.551 158.258  1.00  0.00    -0.275 OA
ATOM      7  H   UNL     1     174.699 147.272 159.155  1.00  0.00     0.163 HD
BRANCH   5   8
ATOM      8  C   UNL     1     174.937 145.666 157.791  1.00  0.00     0.133 C 
BRANCH   8   9
ATOM      9  C   UNL     1     175.885 146.576 157.044  1.00  0.00     0.193 C 
BRANCH   9  10
ATOM     10  O   UNL     1     175.404 146.884 155.722  1.00  0.00    -0.349 OA
BRANCH  10  11
ATOM     11  P   UNL     1     174.415 148.141 155.633  1.00  0.00     0.060 P 
ATOM     12  O   UNL     1     174.877 149.021 156.787  1.00  0.00    -0.326 OA
ATOM     13  O   UNL     1     174.651 148.775 154.264  1.00  0.00    -0.790 OA
ATOM     14  O   UNL     1     172.995 147.626 155.792  1.00  0.00    -0.790 OA
ENDBRANCH  10  11
ENDBRANCH   9  10
ENDBRANCH   8   9
BRANCH   8  15
ATOM     15  C   UNL     1     175.660 144.585 158.582  1.00  0.00     0.183 C 
BRANCH  15  16
ATOM     16  O   UNL     1     176.501 143.762 157.805  1.00  0.00    -0.394 OA
ATOM     17  H   UNL     1     176.927 144.294 157.116  1.00  0.00     0.210 HD
ENDBRANCH  15  16
ENDBRANCH   8  15
ENDBRANCH   5   8
ENDBRANCH   3   4
ENDBRANCH   2   3
ENDBRANCH   1   2
BRANCH   1  18
ATOM     18  C   UNL     1     171.301 151.168 158.783  1.00  0.00     0.036 C 
BRANCH  18  19
ATOM     19  C   UNL     1     169.958 151.481 158.153  1.00  0.00    -0.045 A 
ATOM     20  C   UNL     1     169.734 151.248 156.788  1.00  0.00    -0.045 A 
ATOM     21  C   UNL     1     168.898 151.950 158.920  1.00  0.00     0.004 A 
ATOM     22  C   UNL     1     168.478 151.510 156.245  1.00  0.00     0.004 A 
ATOM     23  C   UNL     1     167.672 152.233 158.356  1.00  0.00     0.000 A 
ATOM     24  C   UNL     1     167.463 152.019 157.018  1.00  0.00     0.000 A 
BRANCH  20  25
ATOM     25  C   UNL     1     170.836 150.739 155.874  1.00  0.00     0.036 C 
BRANCH  25  26
ATOM     26  C   UNL     1     170.516 149.385 155.293  1.00  0.00     0.005 C 
BRANCH  26  27
ATOM     27  C   UNL     1     170.786 149.271 153.803  1.00  0.00     0.000 C 
BRANCH  27  28
ATOM     28  C   UNL     1     170.651 150.558 153.055  1.00  0.00    -0.000 C 
BRANCH  28  29
ATOM     29  C   UNL     1     171.958 151.265 152.858  1.00  0.00    -0.003 C 
ATOM     30  C   UNL     1     172.634 151.027 151.528  1.00  0.00     0.004 C 
ENDBRANCH  28  29
ENDBRANCH  27  28
ENDBRANCH  26  27
ENDBRANCH  25  26
ENDBRANCH  20  25
ENDBRANCH  18  19
ENDBRANCH   1  18
TORSDOF 16
ENDMDL
MODEL 8
REMARK VINA RESULT:      -7.5      1.442      1.744
REMARK SMILES CCCCCCc1ccccc1CCCCC(=O)N[C@H](CO)COP(=O)([O-])[O-]
REMARK SMILES IDX 14 1 15 2 16 3 17 4 19 5 18 6 20 8 23 9 24 10 25 11 26 12
REMARK SMILES IDX 27 13 28 14 21 15 22 16 13 18 12 19 7 20 11 21 8 22 10 23
REMARK SMILES IDX 9 24 6 25 5 26 4 27 3 28 2 29 1 30
REMARK H PARENT 19 7 22 17
REMARK INDEX MAP 18 1 9 2 19 3 10 4 1 5 20 6 29 7 21 8 11 9 24 10 25 11 26 12
REMARK INDEX MAP 27 13 28 14 22 15 23 16 60 17 8 18 17 19 5 20 16 21 6 22 7 23
REMARK INDEX MAP 15 24 4 25 3 26 2 27 14 28 13 29 12 30
ROOT
ATOM      1  C   UNL     1     171.841 149.411 157.026  1.00  0.00     0.005 C 
ENDROOT
BRANCH   1   2
ATOM      2  C   UNL     1     172.266 147.998 156.630  1.00  0.00     0.010 C 
BRANCH   2   3
ATOM      3  C   UNL     1     173.382 147.389 157.428  1.00  0.00     0.100 C 
BRANCH   3   4
ATOM      4  C   UNL     1     173.081 146.073 158.104  1.00  0.00     0.220 C 
ATOM      5  N   UNL     1     173.603 145.827 159.303  1.00  0.00    -0.349 N 
ATOM      6  O   UNL     1     172.360 145.244 157.550  1.00  0.00    -0.275 OA
ATOM      7  H   UNL     1     174.118 146.527 159.765  1.00  0.00     0.163 HD
BRANCH   5   8
ATOM      8  C   UNL     1     173.419 144.533 159.937  1.00  0.00     0.133 C 
BRANCH   8   9
ATOM      9  C   UNL     1     174.833 144.050 160.170  1.00  0.00     0.193 C 
BRANCH   9  10
ATOM     10  O   UNL     1     174.925 142.614 160.117  1.00  0.00    -0.349 OA
BRANCH  10  11
ATOM     11  P   UNL     1     175.853 141.949 161.241  1.00  0.00     0.060 P 
ATOM     12  O   UNL     1     175.786 140.465 160.905  1.00  0.00    -0.326 OA
ATOM     13  O   UNL     1     177.247 142.545 161.052  1.00  0.00    -0.790 OA
ATOM     14  O   UNL     1     175.259 142.294 162.596  1.00  0.00    -0.790 OA
ENDBRANCH  10  11
ENDBRANCH   9  10
ENDBRANCH   8   9
BRANCH   8  15
ATOM     15  C   UNL     1     172.616 144.646 161.225  1.00  0.00     0.183 C 
BRANCH  15  16
ATOM     16  O   UNL     1     172.457 143.427 161.918  1.00  0.00    -0.394 OA
ATOM     17  H   UNL     1     172.154 142.743 161.301  1.00  0.00     0.210 HD
ENDBRANCH  15  16
ENDBRANCH   8  15
ENDBRANCH   5   8
ENDBRANCH   3   4
ENDBRANCH   2   3
ENDBRANCH   1   2
BRANCH   1  18
ATOM     18  C   UNL     1     172.728 150.472 156.433  1.00  0.00     0.036 C 
BRANCH  18  19
ATOM     19  C   UNL     1     172.933 150.439 154.932  1.00  0.00    -0.045 A 
ATOM     20  C   UNL     1     171.956 150.947 154.063  1.00  0.00    -0.045 A 
ATOM     21  C   UNL     1     174.115 149.960 154.380  1.00  0.00     0.004 A 
ATOM     22  C   UNL     1     172.188 150.937 152.689  1.00  0.00     0.004 A 
ATOM     23  C   UNL     1     174.311 149.929 153.016  1.00  0.00     0.000 A 
ATOM     24  C   UNL     1     173.347 150.412 152.169  1.00  0.00     0.000 A 
BRANCH  20  25
ATOM     25  C   UNL     1     170.633 151.488 154.578  1.00  0.00     0.036 C 
BRANCH  25  26
ATOM     26  C   UNL     1     169.511 150.491 154.425  1.00  0.00     0.005 C 
BRANCH  26  27
ATOM     27  C   UNL     1     168.635 150.351 155.657  1.00  0.00     0.000 C 
BRANCH  27  28
ATOM     28  C   UNL     1     167.850 151.578 155.995  1.00  0.00    -0.000 C 
BRANCH  28  29
ATOM     29  C   UNL     1     168.418 152.340 157.154  1.00  0.00    -0.003 C 
ATOM     30  C   UNL     1     168.206 151.713 158.513  1.00  0.00     0.004 C 
ENDBRANCH  28  29
ENDBRANCH  27  28
ENDBRANCH  26  27
ENDBRANCH  25  26
ENDBRANCH  20  25
ENDBRANCH  18  19
ENDBRANCH   1  18
TORSDOF 16
ENDMDL
MODEL 9
REMARK VINA RESULT:      -7.4      1.643      2.463
REMARK SMILES CCCCCCc1ccccc1CCCCC(=O)N[C@H](CO)COP(=O)([O-])[O-]
REMARK SMILES IDX 14 1 15 2 16 3 17 4 19 5 18 6 20 8 23 9 24 10 25 11 26 12
REMARK SMILES IDX 27 13 28 14 21 15 22 16 13 18 12 19 7 20 11 21 8 22 10 23
REMARK SMILES IDX 9 24 6 25 5 26 4 27 3 28 2 29 1 30
REMARK H PARENT 19 7 22 17
REMARK INDEX MAP 18 1 9 2 19 3 10 4 1 5 20 6 29 7 21 8 11 9 24 10 25 11 26 12
REMARK INDEX MAP 27 13 28 14 22 15 23 16 60 17 8 18 17 19 5 20 16 21 6 22 7 23
REMARK INDEX MAP 15 24 4 25 3 26 2 27 14 28 13 29 12 30
ROOT
ATOM      1  C   UNL     1     174.644 148.484 155.900  1.00  0.00     0.005 C 
ENDROOT
BRANCH   1   2
ATOM      2  C   UNL     1     174.272 147.859 157.243  1.00  0.00     0.010 C 
BRANCH   2   3
ATOM      3  C   UNL     1     172.922 147.206 157.324  1.00  0.00     0.100 C 
BRANCH   3   4
ATOM      4  C   UNL     1     172.803 146.032 158.268  1.00  0.00     0.220 C 
ATOM      5  N   UNL     1     172.768 146.257 159.579  1.00  0.00    -0.349 N 
ATOM      6  O   UNL     1     172.738 144.886 157.824  1.00  0.00    -0.275 OA
ATOM      7  H   UNL     1     172.749 147.182 159.916  1.00  0.00     0.163 HD
BRANCH   5   8
ATOM      8  C   UNL     1     172.758 145.149 160.518  1.00  0.00     0.133 C 
BRANCH   8   9
ATOM      9  C   UNL     1     174.138 145.195 161.134  1.00  0.00     0.193 C 
BRANCH   9  10
ATOM     10  O   UNL     1     175.100 144.464 160.352  1.00  0.00    -0.349 OA
BRANCH  10  11
ATOM     11  P   UNL     1     175.332 142.945 160.804  1.00  0.00     0.060 P 
ATOM     12  O   UNL     1     174.253 142.192 160.036  1.00  0.00    -0.326 OA
ATOM     13  O   UNL     1     176.748 142.579 160.364  1.00  0.00    -0.790 OA
ATOM     14  O   UNL     1     175.163 142.879 162.312  1.00  0.00    -0.790 OA
ENDBRANCH  10  11
ENDBRANCH   9  10
ENDBRANCH   8   9
BRANCH   8  15
ATOM     15  C   UNL     1     171.648 145.294 161.549  1.00  0.00     0.183 C 
BRANCH  15  16
ATOM     16  O   UNL     1     171.042 144.077 161.923  1.00  0.00    -0.394 OA
ATOM     17  H   UNL     1     170.181 143.996 161.484  1.00  0.00     0.210 HD
ENDBRANCH  15  16
ENDBRANCH   8  15
ENDBRANCH   5   8
ENDBRANCH   3   4
ENDBRANCH   2   3
ENDBRANCH   1   2
BRANCH   1  18
ATOM     18  C   UNL     1     174.160 149.902 155.764  1.00  0.00     0.036 C 
BRANCH  18  19
ATOM     19  C   UNL     1     173.397 150.251 154.502  1.00  0.00    -0.045 A 
ATOM     20  C   UNL     1     172.123 150.834 154.571  1.00  0.00    -0.045 A 
ATOM     21  C   UNL     1     173.963 150.059 153.246  1.00  0.00     0.004 A 
ATOM     22  C   UNL     1     171.462 151.178 153.393  1.00  0.00     0.004 A 
ATOM     23  C   UNL     1     173.278 150.377 152.093  1.00  0.00     0.000 A 
ATOM     24  C   UNL     1     172.025 150.932 152.165  1.00  0.00     0.000 A 
BRANCH  20  25
ATOM     25  C   UNL     1     171.428 151.078 155.900  1.00  0.00     0.036 C 
BRANCH  25  26
ATOM     26  C   UNL     1     169.979 151.459 155.725  1.00  0.00     0.005 C 
BRANCH  26  27
ATOM     27  C   UNL     1     169.279 151.842 157.016  1.00  0.00     0.000 C 
BRANCH  27  28
ATOM     28  C   UNL     1     170.135 152.607 157.974  1.00  0.00    -0.000 C 
BRANCH  28  29
ATOM     29  C   UNL     1     170.052 152.092 159.379  1.00  0.00    -0.003 C 
ATOM     30  C   UNL     1     170.650 150.723 159.608  1.00  0.00     0.004 C 
ENDBRANCH  28  29
ENDBRANCH  27  28
ENDBRANCH  26  27
ENDBRANCH  25  26
ENDBRANCH  20  25
ENDBRANCH  18  19
ENDBRANCH   1  18
TORSDOF 16
ENDMDL
