MODEL 1
REMARK VINA RESULT:      -6.7      0.000      0.000
REMARK SMILES O=c1cc(-c2ccccc2)oc2cc([O-])c(O)c([O-])c12
REMARK SMILES IDX 1 1 2 2 3 3 4 4 11 5 12 6 13 7 14 8 15 9 16 10 18 11 19 12
REMARK SMILES IDX 20 13 5 14 6 15 10 16 7 17 9 18 8 19 17 20
REMARK H PARENT 17 21
ROOT
ATOM      1  O   UNL     1     113.887   3.587  33.037  1.00  0.00    -0.289 OA
ATOM      2  C   UNL     1     113.697   3.707  34.272  1.00  0.00     0.192 A 
ATOM      3  C   UNL     1     113.044   4.815  34.821  1.00  0.00     0.100 A 
ATOM      4  C   UNL     1     112.828   4.963  36.164  1.00  0.00     0.138 A 
ATOM      5  O   UNL     1     113.276   3.989  36.933  1.00  0.00    -0.456 OA
ATOM      6  C   UNL     1     113.894   2.927  36.484  1.00  0.00     0.137 A 
ATOM      7  C   UNL     1     114.343   1.928  37.356  1.00  0.00     0.043 A 
ATOM      8  C   UNL     1     114.987   0.825  36.874  1.00  0.00    -0.063 A 
ATOM      9  O   UNL     1     115.411  -0.134  37.790  1.00  0.00    -0.870 OA
ATOM     10  C   UNL     1     115.226   0.636  35.529  1.00  0.00     0.100 A 
ATOM     11  C   UNL     1     114.794   1.600  34.664  1.00  0.00    -0.051 A 
ATOM     12  O   UNL     1     115.025   1.425  33.315  1.00  0.00    -0.869 OA
ATOM     13  C   UNL     1     114.134   2.733  35.141  1.00  0.00     0.060 A 
ENDROOT
BRANCH   4  14
ATOM     14  C   UNL     1     112.148   6.122  36.710  1.00  0.00     0.017 A 
ATOM     15  C   UNL     1     112.740   7.329  36.959  1.00  0.00     0.012 A 
ATOM     16  C   UNL     1     110.787   6.018  37.011  1.00  0.00     0.012 A 
ATOM     17  C   UNL     1     112.015   8.406  37.489  1.00  0.00     0.001 A 
ATOM     18  C   UNL     1     110.068   7.073  37.532  1.00  0.00     0.001 A 
ATOM     19  C   UNL     1     110.675   8.284  37.778  1.00  0.00     0.000 A 
ENDBRANCH   4  14
BRANCH  10  20
ATOM     20  O   UNL     1     115.890  -0.514  35.088  1.00  0.00    -0.509 OA
ATOM     21  H   UNL     1     115.832  -1.359  35.659  1.00  0.00     0.293 HD
ENDBRANCH  10  20
TORSDOF 2
ENDMDL
MODEL 2
REMARK VINA RESULT:      -6.2      2.773      7.067
REMARK SMILES O=c1cc(-c2ccccc2)oc2cc([O-])c(O)c([O-])c12
REMARK SMILES IDX 1 1 2 2 3 3 4 4 11 5 12 6 13 7 14 8 15 9 16 10 18 11 19 12
REMARK SMILES IDX 20 13 5 14 6 15 10 16 7 17 9 18 8 19 17 20
REMARK H PARENT 17 21
ROOT
ATOM      1  O   UNL     1     109.778   5.610  37.546  1.00  0.00    -0.289 OA
ATOM      2  C   UNL     1     110.925   5.697  37.045  1.00  0.00     0.192 A 
ATOM      3  C   UNL     1     111.550   4.614  36.418  1.00  0.00     0.100 A 
ATOM      4  C   UNL     1     112.800   4.690  35.867  1.00  0.00     0.138 A 
ATOM      5  O   UNL     1     113.401   5.861  35.957  1.00  0.00    -0.456 OA
ATOM      6  C   UNL     1     112.874   6.912  36.530  1.00  0.00     0.137 A 
ATOM      7  C   UNL     1     113.568   8.127  36.591  1.00  0.00     0.043 A 
ATOM      8  C   UNL     1     113.007   9.217  37.191  1.00  0.00    -0.063 A 
ATOM      9  O   UNL     1     113.745  10.397  37.222  1.00  0.00    -0.870 OA
ATOM     10  C   UNL     1     111.750   9.184  37.759  1.00  0.00     0.100 A 
ATOM     11  C   UNL     1     111.059   8.008  37.708  1.00  0.00    -0.051 A 
ATOM     12  O   UNL     1     109.801   7.959  38.272  1.00  0.00    -0.869 OA
ATOM     13  C   UNL     1     111.619   6.884  37.098  1.00  0.00     0.060 A 
ENDROOT
BRANCH   4  14
ATOM     14  C   UNL     1     113.426   3.552  35.222  1.00  0.00     0.017 A 
ATOM     15  C   UNL     1     113.843   2.421  35.866  1.00  0.00     0.012 A 
ATOM     16  C   UNL     1     113.627   3.595  33.839  1.00  0.00     0.012 A 
ATOM     17  C   UNL     1     114.442   1.360  35.173  1.00  0.00     0.001 A 
ATOM     18  C   UNL     1     114.214   2.555  33.151  1.00  0.00     0.001 A 
ATOM     19  C   UNL     1     114.631   1.421  33.811  1.00  0.00     0.000 A 
ENDBRANCH   4  14
BRANCH  10  20
ATOM     20  O   UNL     1     111.221  10.331  38.362  1.00  0.00    -0.509 OA
ATOM     21  H   UNL     1     110.255  10.306  38.692  1.00  0.00     0.293 HD
ENDBRANCH  10  20
TORSDOF 2
ENDMDL
MODEL 3
REMARK VINA RESULT:      -6.0      1.222      1.233
REMARK SMILES O=c1cc(-c2ccccc2)oc2cc([O-])c(O)c([O-])c12
REMARK SMILES IDX 1 1 2 2 3 3 4 4 11 5 12 6 13 7 14 8 15 9 16 10 18 11 19 12
REMARK SMILES IDX 20 13 5 14 6 15 10 16 7 17 9 18 8 19 17 20
REMARK H PARENT 17 21
ROOT
ATOM      1  O   UNL     1     114.000   3.893  33.404  1.00  0.00    -0.289 OA
ATOM      2  C   UNL     1     113.478   3.958  34.544  1.00  0.00     0.192 A 
ATOM      3  C   UNL     1     113.061   5.170  35.104  1.00  0.00     0.100 A 
ATOM      4  C   UNL     1     112.491   5.261  36.344  1.00  0.00     0.138 A 
ATOM      5  O   UNL     1     112.350   4.126  37.001  1.00  0.00    -0.456 OA
ATOM      6  C   UNL     1     112.719   2.960  36.536  1.00  0.00     0.137 A 
ATOM      7  C   UNL     1     112.540   1.792  37.286  1.00  0.00     0.043 A 
ATOM      8  C   UNL     1     112.929   0.581  36.788  1.00  0.00    -0.063 A 
ATOM      9  O   UNL     1     112.726  -0.545  37.581  1.00  0.00    -0.870 OA
ATOM     10  C   UNL     1     113.508   0.445  35.544  1.00  0.00     0.100 A 
ATOM     11  C   UNL     1     113.689   1.573  34.798  1.00  0.00    -0.051 A 
ATOM     12  O   UNL     1     114.266   1.452  33.551  1.00  0.00    -0.869 OA
ATOM     13  C   UNL     1     113.297   2.818  35.293  1.00  0.00     0.060 A 
ENDROOT
BRANCH   4  14
ATOM     14  C   UNL     1     112.066   6.531  36.904  1.00  0.00     0.017 A 
ATOM     15  C   UNL     1     112.897   7.584  37.169  1.00  0.00     0.012 A 
ATOM     16  C   UNL     1     110.712   6.710  37.201  1.00  0.00     0.012 A 
ATOM     17  C   UNL     1     112.411   8.782  37.711  1.00  0.00     0.001 A 
ATOM     18  C   UNL     1     110.228   7.885  37.734  1.00  0.00     0.001 A 
ATOM     19  C   UNL     1     111.074   8.940  37.997  1.00  0.00     0.000 A 
ENDBRANCH   4  14
BRANCH  10  20
ATOM     20  O   UNL     1     113.888  -0.820  35.081  1.00  0.00    -0.509 OA
ATOM     21  H   UNL     1     113.447  -1.643  35.497  1.00  0.00     0.293 HD
ENDBRANCH  10  20
TORSDOF 2
ENDMDL
MODEL 4
REMARK VINA RESULT:      -5.9     14.057     14.848
REMARK SMILES O=c1cc(-c2ccccc2)oc2cc([O-])c(O)c([O-])c12
REMARK SMILES IDX 1 1 2 2 3 3 4 4 11 5 12 6 13 7 14 8 15 9 16 10 18 11 19 12
REMARK SMILES IDX 20 13 5 14 6 15 10 16 7 17 9 18 8 19 17 20
REMARK H PARENT 17 21
ROOT
ATOM      1  O   UNL     1     127.225   4.811  36.640  1.00  0.00    -0.289 OA
ATOM      2  C   UNL     1     127.419   5.135  37.836  1.00  0.00     0.192 A 
ATOM      3  C   UNL     1     126.698   6.159  38.458  1.00  0.00     0.100 A 
ATOM      4  C   UNL     1     126.896   6.527  39.761  1.00  0.00     0.138 A 
ATOM      5  O   UNL     1     127.822   5.854  40.417  1.00  0.00    -0.456 OA
ATOM      6  C   UNL     1     128.532   4.887  39.896  1.00  0.00     0.137 A 
ATOM      7  C   UNL     1     129.500   4.213  40.650  1.00  0.00     0.043 A 
ATOM      8  C   UNL     1     130.235   3.205  40.093  1.00  0.00    -0.063 A 
ATOM      9  O   UNL     1     131.183   2.572  40.892  1.00  0.00    -0.870 OA
ATOM     10  C   UNL     1     130.067   2.803  38.784  1.00  0.00     0.100 A 
ATOM     11  C   UNL     1     129.127   3.449  38.035  1.00  0.00    -0.051 A 
ATOM     12  O   UNL     1     128.948   3.058  36.724  1.00  0.00    -0.869 OA
ATOM     13  C   UNL     1     128.368   4.481  38.589  1.00  0.00     0.060 A 
ENDROOT
BRANCH   4  14
ATOM     14  C   UNL     1     126.134   7.593  40.384  1.00  0.00     0.017 A 
ATOM     15  C   UNL     1     126.446   8.921  40.310  1.00  0.00     0.012 A 
ATOM     16  C   UNL     1     124.993   7.256  41.118  1.00  0.00     0.012 A 
ATOM     17  C   UNL     1     125.659   9.896  40.940  1.00  0.00     0.001 A 
ATOM     18  C   UNL     1     124.215   8.209  41.740  1.00  0.00     0.001 A 
ATOM     19  C   UNL     1     124.539   9.545  41.659  1.00  0.00     0.000 A 
ENDBRANCH   4  14
BRANCH  10  20
ATOM     20  O   UNL     1     130.847   1.764  38.263  1.00  0.00    -0.509 OA
ATOM     21  H   UNL     1     130.865   0.872  38.762  1.00  0.00     0.293 HD
ENDBRANCH  10  20
TORSDOF 2
ENDMDL
MODEL 5
REMARK VINA RESULT:      -5.9     14.041     14.867
REMARK SMILES O=c1cc(-c2ccccc2)oc2cc([O-])c(O)c([O-])c12
REMARK SMILES IDX 1 1 2 2 3 3 4 4 11 5 12 6 13 7 14 8 15 9 16 10 18 11 19 12
REMARK SMILES IDX 20 13 5 14 6 15 10 16 7 17 9 18 8 19 17 20
REMARK H PARENT 17 21
ROOT
ATOM      1  O   UNL     1     127.243   4.852  36.657  1.00  0.00    -0.289 OA
ATOM      2  C   UNL     1     127.406   5.148  37.865  1.00  0.00     0.192 A 
ATOM      3  C   UNL     1     126.664   6.152  38.494  1.00  0.00     0.100 A 
ATOM      4  C   UNL     1     126.829   6.489  39.810  1.00  0.00     0.138 A 
ATOM      5  O   UNL     1     127.742   5.805  40.472  1.00  0.00    -0.456 OA
ATOM      6  C   UNL     1     128.470   4.855  39.945  1.00  0.00     0.137 A 
ATOM      7  C   UNL     1     129.422   4.167  40.706  1.00  0.00     0.043 A 
ATOM      8  C   UNL     1     130.176   3.177  40.143  1.00  0.00    -0.063 A 
ATOM      9  O   UNL     1     131.108   2.529  40.949  1.00  0.00    -0.870 OA
ATOM     10  C   UNL     1     130.042   2.806  38.821  1.00  0.00     0.100 A 
ATOM     11  C   UNL     1     129.117   3.466  38.065  1.00  0.00    -0.051 A 
ATOM     12  O   UNL     1     128.972   3.105  36.741  1.00  0.00    -0.869 OA
ATOM     13  C   UNL     1     128.340   4.480  38.625  1.00  0.00     0.060 A 
ENDROOT
BRANCH   4  14
ATOM     14  C   UNL     1     126.046   7.536  40.439  1.00  0.00     0.017 A 
ATOM     15  C   UNL     1     124.908   7.329  41.168  1.00  0.00     0.012 A 
ATOM     16  C   UNL     1     126.471   8.861  40.303  1.00  0.00     0.012 A 
ATOM     17  C   UNL     1     124.204   8.394  41.748  1.00  0.00     0.001 A 
ATOM     18  C   UNL     1     125.784   9.913  40.871  1.00  0.00     0.001 A 
ATOM     19  C   UNL     1     124.638   9.692  41.602  1.00  0.00     0.000 A 
ENDBRANCH   4  14
BRANCH  10  20
ATOM     20  O   UNL     1     130.840   1.783  38.295  1.00  0.00    -0.509 OA
ATOM     21  H   UNL     1     131.203   1.072  38.932  1.00  0.00     0.293 HD
ENDBRANCH  10  20
TORSDOF 2
ENDMDL
MODEL 6
REMARK VINA RESULT:      -5.8      1.300      2.851
REMARK SMILES O=c1cc(-c2ccccc2)oc2cc([O-])c(O)c([O-])c12
REMARK SMILES IDX 1 1 2 2 3 3 4 4 11 5 12 6 13 7 14 8 15 9 16 10 18 11 19 12
REMARK SMILES IDX 20 13 5 14 6 15 10 16 7 17 9 18 8 19 17 20
REMARK H PARENT 17 21
ROOT
ATOM      1  O   UNL     1     112.396   1.611  38.367  1.00  0.00    -0.289 OA
ATOM      2  C   UNL     1     112.541   2.561  37.560  1.00  0.00     0.192 A 
ATOM      3  C   UNL     1     112.057   3.846  37.827  1.00  0.00     0.100 A 
ATOM      4  C   UNL     1     112.205   4.894  36.960  1.00  0.00     0.138 A 
ATOM      5  O   UNL     1     112.840   4.629  35.835  1.00  0.00    -0.456 OA
ATOM      6  C   UNL     1     113.318   3.451  35.524  1.00  0.00     0.137 A 
ATOM      7  C   UNL     1     113.984   3.238  34.312  1.00  0.00     0.043 A 
ATOM      8  C   UNL     1     114.477   2.003  33.999  1.00  0.00    -0.063 A 
ATOM      9  O   UNL     1     115.130   1.852  32.779  1.00  0.00    -0.870 OA
ATOM     10  C   UNL     1     114.350   0.920  34.843  1.00  0.00     0.100 A 
ATOM     11  C   UNL     1     113.704   1.110  36.030  1.00  0.00    -0.051 A 
ATOM     12  O   UNL     1     113.568   0.036  36.886  1.00  0.00    -0.869 OA
ATOM     13  C   UNL     1     113.193   2.366  36.365  1.00  0.00     0.060 A 
ENDROOT
BRANCH   4  14
ATOM     14  C   UNL     1     111.693   6.218  37.260  1.00  0.00     0.017 A 
ATOM     15  C   UNL     1     110.369   6.533  37.386  1.00  0.00     0.012 A 
ATOM     16  C   UNL     1     112.605   7.262  37.437  1.00  0.00     0.012 A 
ATOM     17  C   UNL     1     109.950   7.839  37.677  1.00  0.00     0.001 A 
ATOM     18  C   UNL     1     112.200   8.548  37.725  1.00  0.00     0.001 A 
ATOM     19  C   UNL     1     110.864   8.854  37.849  1.00  0.00     0.000 A 
ENDBRANCH   4  14
BRANCH  10  20
ATOM     20  O   UNL     1     114.875  -0.324  34.474  1.00  0.00    -0.509 OA
ATOM     21  H   UNL     1     114.588  -1.150  35.003  1.00  0.00     0.293 HD
ENDBRANCH  10  20
TORSDOF 2
ENDMDL
MODEL 7
REMARK VINA RESULT:      -5.8      1.767      3.444
REMARK SMILES O=c1cc(-c2ccccc2)oc2cc([O-])c(O)c([O-])c12
REMARK SMILES IDX 1 1 2 2 3 3 4 4 11 5 12 6 13 7 14 8 15 9 16 10 18 11 19 12
REMARK SMILES IDX 20 13 5 14 6 15 10 16 7 17 9 18 8 19 17 20
REMARK H PARENT 17 21
ROOT
ATOM      1  O   UNL     1     111.922   3.370  38.375  1.00  0.00    -0.289 OA
ATOM      2  C   UNL     1     112.328   4.212  37.537  1.00  0.00     0.192 A 
ATOM      3  C   UNL     1     112.293   5.588  37.785  1.00  0.00     0.100 A 
ATOM      4  C   UNL     1     112.730   6.520  36.884  1.00  0.00     0.138 A 
ATOM      5  O   UNL     1     113.196   6.049  35.744  1.00  0.00    -0.456 OA
ATOM      6  C   UNL     1     113.257   4.776  35.448  1.00  0.00     0.137 A 
ATOM      7  C   UNL     1     113.764   4.342  34.218  1.00  0.00     0.043 A 
ATOM      8  C   UNL     1     113.821   3.011  33.922  1.00  0.00    -0.063 A 
ATOM      9  O   UNL     1     114.336   2.640  32.682  1.00  0.00    -0.870 OA
ATOM     10  C   UNL     1     113.392   2.038  34.800  1.00  0.00     0.100 A 
ATOM     11  C   UNL     1     112.894   2.443  36.005  1.00  0.00    -0.051 A 
ATOM     12  O   UNL     1     112.461   1.481  36.895  1.00  0.00    -0.869 OA
ATOM     13  C   UNL     1     112.829   3.800  36.323  1.00  0.00     0.060 A 
ENDROOT
BRANCH   4  14
ATOM     14  C   UNL     1     112.683   7.943  37.166  1.00  0.00     0.017 A 
ATOM     15  C   UNL     1     111.724   8.558  37.920  1.00  0.00     0.012 A 
ATOM     16  C   UNL     1     113.685   8.761  36.636  1.00  0.00     0.012 A 
ATOM     17  C   UNL     1     111.746   9.942  38.149  1.00  0.00     0.001 A 
ATOM     18  C   UNL     1     113.713  10.122  36.858  1.00  0.00     0.001 A 
ATOM     19  C   UNL     1     112.740  10.731  37.619  1.00  0.00     0.000 A 
ENDBRANCH   4  14
BRANCH  10  20
ATOM     20  O   UNL     1     113.473   0.686  34.446  1.00  0.00    -0.509 OA
ATOM     21  H   UNL     1     114.341   0.183  34.641  1.00  0.00     0.293 HD
ENDBRANCH  10  20
TORSDOF 2
ENDMDL
MODEL 8
REMARK VINA RESULT:      -5.8      2.847      6.836
REMARK SMILES O=c1cc(-c2ccccc2)oc2cc([O-])c(O)c([O-])c12
REMARK SMILES IDX 1 1 2 2 3 3 4 4 11 5 12 6 13 7 14 8 15 9 16 10 18 11 19 12
REMARK SMILES IDX 20 13 5 14 6 15 10 16 7 17 9 18 8 19 17 20
REMARK H PARENT 17 21
ROOT
ATOM      1  O   UNL     1     113.620   8.427  35.957  1.00  0.00    -0.289 OA
ATOM      2  C   UNL     1     113.131   7.318  36.283  1.00  0.00     0.192 A 
ATOM      3  C   UNL     1     113.515   6.123  35.665  1.00  0.00     0.100 A 
ATOM      4  C   UNL     1     112.993   4.906  36.007  1.00  0.00     0.138 A 
ATOM      5  O   UNL     1     112.090   4.913  36.969  1.00  0.00    -0.456 OA
ATOM      6  C   UNL     1     111.687   5.993  37.587  1.00  0.00     0.137 A 
ATOM      7  C   UNL     1     110.724   5.929  38.601  1.00  0.00     0.043 A 
ATOM      8  C   UNL     1     110.312   7.065  39.238  1.00  0.00    -0.063 A 
ATOM      9  O   UNL     1     109.351   6.939  40.238  1.00  0.00    -0.870 OA
ATOM     10  C   UNL     1     110.811   8.312  38.925  1.00  0.00     0.100 A 
ATOM     11  C   UNL     1     111.752   8.392  37.939  1.00  0.00    -0.051 A 
ATOM     12  O   UNL     1     112.261   9.633  37.614  1.00  0.00    -0.869 OA
ATOM     13  C   UNL     1     112.183   7.241  37.278  1.00  0.00     0.060 A 
ENDROOT
BRANCH   4  14
ATOM     14  C   UNL     1     113.407   3.680  35.351  1.00  0.00     0.017 A 
ATOM     15  C   UNL     1     113.467   2.454  35.953  1.00  0.00     0.012 A 
ATOM     16  C   UNL     1     113.775   3.735  34.004  1.00  0.00     0.012 A 
ATOM     17  C   UNL     1     113.879   1.312  35.252  1.00  0.00     0.001 A 
ATOM     18  C   UNL     1     114.180   2.616  33.308  1.00  0.00     0.001 A 
ATOM     19  C   UNL     1     114.238   1.387  33.925  1.00  0.00     0.000 A 
ENDBRANCH   4  14
BRANCH  10  20
ATOM     20  O   UNL     1     110.354   9.444  39.610  1.00  0.00    -0.509 OA
ATOM     21  H   UNL     1     110.655  10.364  39.283  1.00  0.00     0.293 HD
ENDBRANCH  10  20
TORSDOF 2
ENDMDL
MODEL 9
REMARK VINA RESULT:      -5.8     15.103     16.786
REMARK SMILES O=c1cc(-c2ccccc2)oc2cc([O-])c(O)c([O-])c12
REMARK SMILES IDX 1 1 2 2 3 3 4 4 11 5 12 6 13 7 14 8 15 9 16 10 18 11 19 12
REMARK SMILES IDX 20 13 5 14 6 15 10 16 7 17 9 18 8 19 17 20
REMARK H PARENT 17 21
ROOT
ATOM      1  O   UNL     1     125.737   8.484  38.771  1.00  0.00    -0.289 OA
ATOM      2  C   UNL     1     126.656   7.890  39.387  1.00  0.00     0.192 A 
ATOM      3  C   UNL     1     127.223   6.702  38.915  1.00  0.00     0.100 A 
ATOM      4  C   UNL     1     128.224   6.041  39.572  1.00  0.00     0.138 A 
ATOM      5  O   UNL     1     128.639   6.590  40.697  1.00  0.00    -0.456 OA
ATOM      6  C   UNL     1     128.153   7.698  41.193  1.00  0.00     0.137 A 
ATOM      7  C   UNL     1     128.640   8.228  42.394  1.00  0.00     0.043 A 
ATOM      8  C   UNL     1     128.123   9.386  42.902  1.00  0.00    -0.063 A 
ATOM      9  O   UNL     1     128.647   9.864  44.100  1.00  0.00    -0.870 OA
ATOM     10  C   UNL     1     127.113  10.084  42.272  1.00  0.00     0.100 A 
ATOM     11  C   UNL     1     126.627   9.582  41.100  1.00  0.00    -0.051 A 
ATOM     12  O   UNL     1     125.617  10.269  40.459  1.00  0.00    -0.869 OA
ATOM     13  C   UNL     1     127.144   8.400  40.568  1.00  0.00     0.060 A 
ENDROOT
BRANCH   4  14
ATOM     14  C   UNL     1     128.796   4.809  39.061  1.00  0.00     0.017 A 
ATOM     15  C   UNL     1     128.354   4.144  37.952  1.00  0.00     0.012 A 
ATOM     16  C   UNL     1     129.880   4.245  39.740  1.00  0.00     0.012 A 
ATOM     17  C   UNL     1     128.960   2.955  37.519  1.00  0.00     0.001 A 
ATOM     18  C   UNL     1     130.480   3.077  39.320  1.00  0.00     0.001 A 
ATOM     19  C   UNL     1     130.026   2.415  38.201  1.00  0.00     0.000 A 
ENDBRANCH   4  14
BRANCH  10  20
ATOM     20  O   UNL     1     126.620  11.266  42.836  1.00  0.00    -0.509 OA
ATOM     21  H   UNL     1     127.246  11.828  43.415  1.00  0.00     0.293 HD
ENDBRANCH  10  20
TORSDOF 2
ENDMDL
