MODEL 1
REMARK VINA RESULT:      -7.6      0.000      0.000
REMARK SMILES O=c1cc(-c2ccccc2)oc2cc([O-])c(O)c([O-])c12
REMARK SMILES IDX 1 1 2 2 3 3 4 4 11 5 12 6 13 7 14 8 15 9 16 10 18 11 19 12
REMARK SMILES IDX 20 13 5 14 6 15 10 16 7 17 9 18 8 19 17 20
REMARK H PARENT 17 21
ROOT
ATOM      1  O   UNL     1     118.625  14.758   8.818  1.00  0.00    -0.289 OA
ATOM      2  C   UNL     1     118.841  13.592   9.229  1.00  0.00     0.192 A 
ATOM      3  C   UNL     1     117.816  12.768   9.705  1.00  0.00     0.100 A 
ATOM      4  C   UNL     1     118.032  11.495  10.158  1.00  0.00     0.138 A 
ATOM      5  O   UNL     1     119.281  11.072  10.123  1.00  0.00    -0.456 OA
ATOM      6  C   UNL     1     120.285  11.791   9.691  1.00  0.00     0.137 A 
ATOM      7  C   UNL     1     121.589  11.281   9.680  1.00  0.00     0.043 A 
ATOM      8  C   UNL     1     122.628  12.043   9.227  1.00  0.00    -0.063 A 
ATOM      9  O   UNL     1     123.902  11.481   9.241  1.00  0.00    -0.870 OA
ATOM     10  C   UNL     1     122.455  13.330   8.762  1.00  0.00     0.100 A 
ATOM     11  C   UNL     1     121.190  13.843   8.765  1.00  0.00    -0.051 A 
ATOM     12  O   UNL     1     121.001  15.130   8.303  1.00  0.00    -0.869 OA
ATOM     13  C   UNL     1     120.117  13.078   9.225  1.00  0.00     0.060 A 
ENDROOT
BRANCH   4  14
ATOM     14  C   UNL     1     116.952  10.658  10.647  1.00  0.00     0.017 A 
ATOM     15  C   UNL     1     117.106   9.394  11.143  1.00  0.00     0.012 A 
ATOM     16  C   UNL     1     115.649  11.166  10.617  1.00  0.00     0.012 A 
ATOM     17  C   UNL     1     116.012   8.646  11.598  1.00  0.00     0.001 A 
ATOM     18  C   UNL     1     114.569  10.435  11.063  1.00  0.00     0.001 A 
ATOM     19  C   UNL     1     114.736   9.163  11.561  1.00  0.00     0.000 A 
ENDBRANCH   4  14
BRANCH  10  20
ATOM     20  O   UNL     1     123.554  14.067   8.308  1.00  0.00    -0.509 OA
ATOM     21  H   UNL     1     124.453  13.590   8.210  1.00  0.00     0.293 HD
ENDBRANCH  10  20
TORSDOF 2
ENDMDL
MODEL 2
REMARK VINA RESULT:      -7.6      0.164      1.064
REMARK SMILES O=c1cc(-c2ccccc2)oc2cc([O-])c(O)c([O-])c12
REMARK SMILES IDX 1 1 2 2 3 3 4 4 11 5 12 6 13 7 14 8 15 9 16 10 18 11 19 12
REMARK SMILES IDX 20 13 5 14 6 15 10 16 7 17 9 18 8 19 17 20
REMARK H PARENT 17 21
ROOT
ATOM      1  O   UNL     1     118.496  14.796   8.790  1.00  0.00    -0.289 OA
ATOM      2  C   UNL     1     118.695  13.632   9.215  1.00  0.00     0.192 A 
ATOM      3  C   UNL     1     117.657  12.822   9.684  1.00  0.00     0.100 A 
ATOM      4  C   UNL     1     117.855  11.551  10.151  1.00  0.00     0.138 A 
ATOM      5  O   UNL     1     119.101  11.117  10.137  1.00  0.00    -0.456 OA
ATOM      6  C   UNL     1     120.117  11.823   9.712  1.00  0.00     0.137 A 
ATOM      7  C   UNL     1     121.416  11.301   9.724  1.00  0.00     0.043 A 
ATOM      8  C   UNL     1     122.468  12.048   9.278  1.00  0.00    -0.063 A 
ATOM      9  O   UNL     1     123.736  11.476   9.314  1.00  0.00    -0.870 OA
ATOM     10  C   UNL     1     122.313  13.333   8.799  1.00  0.00     0.100 A 
ATOM     11  C   UNL     1     121.053  13.857   8.780  1.00  0.00    -0.051 A 
ATOM     12  O   UNL     1     120.882  15.141   8.304  1.00  0.00    -0.869 OA
ATOM     13  C   UNL     1     119.967  13.107   9.233  1.00  0.00     0.060 A 
ENDROOT
BRANCH   4  14
ATOM     14  C   UNL     1     116.760  10.729  10.633  1.00  0.00     0.017 A 
ATOM     15  C   UNL     1     115.448  11.109  10.650  1.00  0.00     0.012 A 
ATOM     16  C   UNL     1     117.049   9.451  11.119  1.00  0.00     0.012 A 
ATOM     17  C   UNL     1     114.443  10.258  11.132  1.00  0.00     0.001 A 
ATOM     18  C   UNL     1     116.067   8.609  11.594  1.00  0.00     0.001 A 
ATOM     19  C   UNL     1     114.748   9.002  11.607  1.00  0.00     0.000 A 
ENDBRANCH   4  14
BRANCH  10  20
ATOM     20  O   UNL     1     123.425  14.055   8.353  1.00  0.00    -0.509 OA
ATOM     21  H   UNL     1     123.286  15.016   8.034  1.00  0.00     0.293 HD
ENDBRANCH  10  20
TORSDOF 2
ENDMDL
MODEL 3
REMARK VINA RESULT:      -7.4      1.607      3.242
REMARK SMILES O=c1cc(-c2ccccc2)oc2cc([O-])c(O)c([O-])c12
REMARK SMILES IDX 1 1 2 2 3 3 4 4 11 5 12 6 13 7 14 8 15 9 16 10 18 11 19 12
REMARK SMILES IDX 20 13 5 14 6 15 10 16 7 17 9 18 8 19 17 20
REMARK H PARENT 17 21
ROOT
ATOM      1  O   UNL     1     120.943  12.018   9.553  1.00  0.00    -0.289 OA
ATOM      2  C   UNL     1     119.715  12.271   9.623  1.00  0.00     0.192 A 
ATOM      3  C   UNL     1     118.788  11.338  10.097  1.00  0.00     0.100 A 
ATOM      4  C   UNL     1     117.446  11.595  10.180  1.00  0.00     0.138 A 
ATOM      5  O   UNL     1     117.062  12.793   9.783  1.00  0.00    -0.456 OA
ATOM      6  C   UNL     1     117.876  13.711   9.330  1.00  0.00     0.137 A 
ATOM      7  C   UNL     1     117.401  14.964   8.925  1.00  0.00     0.043 A 
ATOM      8  C   UNL     1     118.262  15.913   8.454  1.00  0.00    -0.063 A 
ATOM      9  O   UNL     1     117.731  17.140   8.066  1.00  0.00    -0.870 OA
ATOM     10  C   UNL     1     119.621  15.695   8.354  1.00  0.00     0.100 A 
ATOM     11  C   UNL     1     120.101  14.479   8.745  1.00  0.00    -0.051 A 
ATOM     12  O   UNL     1     121.458  14.246   8.650  1.00  0.00    -0.869 OA
ATOM     13  C   UNL     1     119.234  13.498   9.228  1.00  0.00     0.060 A 
ENDROOT
BRANCH   4  14
ATOM     14  C   UNL     1     116.503  10.610  10.675  1.00  0.00     0.017 A 
ATOM     15  C   UNL     1     116.840   9.363  11.123  1.00  0.00     0.012 A 
ATOM     16  C   UNL     1     115.146  10.942  10.705  1.00  0.00     0.012 A 
ATOM     17  C   UNL     1     115.870   8.464  11.587  1.00  0.00     0.001 A 
ATOM     18  C   UNL     1     114.187  10.062  11.162  1.00  0.00     0.001 A 
ATOM     19  C   UNL     1     114.537   8.809  11.610  1.00  0.00     0.000 A 
ENDBRANCH   4  14
BRANCH  10  20
ATOM     20  O   UNL     1     120.459  16.703   7.864  1.00  0.00    -0.509 OA
ATOM     21  H   UNL     1     121.165  16.454   7.169  1.00  0.00     0.293 HD
ENDBRANCH  10  20
TORSDOF 2
ENDMDL
MODEL 4
REMARK VINA RESULT:      -6.9      1.273      2.133
REMARK SMILES O=c1cc(-c2ccccc2)oc2cc([O-])c(O)c([O-])c12
REMARK SMILES IDX 1 1 2 2 3 3 4 4 11 5 12 6 13 7 14 8 15 9 16 10 18 11 19 12
REMARK SMILES IDX 20 13 5 14 6 15 10 16 7 17 9 18 8 19 17 20
REMARK H PARENT 17 21
ROOT
ATOM      1  O   UNL     1     116.297  13.665   8.935  1.00  0.00    -0.289 OA
ATOM      2  C   UNL     1     116.738  12.613   9.457  1.00  0.00     0.192 A 
ATOM      3  C   UNL     1     115.892  11.623   9.969  1.00  0.00     0.100 A 
ATOM      4  C   UNL     1     116.355  10.470  10.542  1.00  0.00     0.138 A 
ATOM      5  O   UNL     1     117.666  10.333  10.590  1.00  0.00    -0.456 OA
ATOM      6  C   UNL     1     118.512  11.219  10.130  1.00  0.00     0.137 A 
ATOM      7  C   UNL     1     119.893  11.010  10.212  1.00  0.00     0.043 A 
ATOM      8  C   UNL     1     120.766  11.943   9.728  1.00  0.00    -0.063 A 
ATOM      9  O   UNL     1     122.128  11.680   9.839  1.00  0.00    -0.870 OA
ATOM     10  C   UNL     1     120.343  13.119   9.144  1.00  0.00     0.100 A 
ATOM     11  C   UNL     1     118.998  13.338   9.055  1.00  0.00    -0.051 A 
ATOM     12  O   UNL     1     118.560  14.510   8.472  1.00  0.00    -0.869 OA
ATOM     13  C   UNL     1     118.094  12.395   9.545  1.00  0.00     0.060 A 
ENDROOT
BRANCH   4  14
ATOM     14  C   UNL     1     115.456   9.458  11.066  1.00  0.00     0.017 A 
ATOM     15  C   UNL     1     115.546   8.121  10.798  1.00  0.00     0.012 A 
ATOM     16  C   UNL     1     114.417   9.861  11.910  1.00  0.00     0.012 A 
ATOM     17  C   UNL     1     114.638   7.201  11.343  1.00  0.00     0.001 A 
ATOM     18  C   UNL     1     113.522   8.962  12.449  1.00  0.00     0.001 A 
ATOM     19  C   UNL     1     113.621   7.617  12.172  1.00  0.00     0.000 A 
ENDBRANCH   4  14
BRANCH  10  20
ATOM     20  O   UNL     1     121.279  14.041   8.664  1.00  0.00    -0.509 OA
ATOM     21  H   UNL     1     121.198  15.016   8.959  1.00  0.00     0.293 HD
ENDBRANCH  10  20
TORSDOF 2
ENDMDL
MODEL 5
REMARK VINA RESULT:      -6.9      1.195      2.137
REMARK SMILES O=c1cc(-c2ccccc2)oc2cc([O-])c(O)c([O-])c12
REMARK SMILES IDX 1 1 2 2 3 3 4 4 11 5 12 6 13 7 14 8 15 9 16 10 18 11 19 12
REMARK SMILES IDX 20 13 5 14 6 15 10 16 7 17 9 18 8 19 17 20
REMARK H PARENT 17 21
ROOT
ATOM      1  O   UNL     1     116.471  13.887   8.880  1.00  0.00    -0.289 OA
ATOM      2  C   UNL     1     116.890  12.826   9.403  1.00  0.00     0.192 A 
ATOM      3  C   UNL     1     116.023  11.860   9.925  1.00  0.00     0.100 A 
ATOM      4  C   UNL     1     116.461  10.698  10.499  1.00  0.00     0.138 A 
ATOM      5  O   UNL     1     117.768  10.527  10.537  1.00  0.00    -0.456 OA
ATOM      6  C   UNL     1     118.633  11.390  10.067  1.00  0.00     0.137 A 
ATOM      7  C   UNL     1     120.009  11.146  10.138  1.00  0.00     0.043 A 
ATOM      8  C   UNL     1     120.901  12.055   9.644  1.00  0.00    -0.063 A 
ATOM      9  O   UNL     1     122.258  11.758   9.744  1.00  0.00    -0.870 OA
ATOM     10  C   UNL     1     120.503  13.239   9.058  1.00  0.00     0.100 A 
ATOM     11  C   UNL     1     119.164  13.492   8.980  1.00  0.00    -0.051 A 
ATOM     12  O   UNL     1     118.751  14.672   8.396  1.00  0.00    -0.869 OA
ATOM     13  C   UNL     1     118.240  12.574   9.480  1.00  0.00     0.060 A 
ENDROOT
BRANCH   4  14
ATOM     14  C   UNL     1     115.542   9.711  11.035  1.00  0.00     0.017 A 
ATOM     15  C   UNL     1     114.478   9.994  11.845  1.00  0.00     0.012 A 
ATOM     16  C   UNL     1     115.742   8.366  10.709  1.00  0.00     0.012 A 
ATOM     17  C   UNL     1     113.632   8.984  12.324  1.00  0.00     0.001 A 
ATOM     18  C   UNL     1     114.913   7.368  11.176  1.00  0.00     0.001 A 
ATOM     19  C   UNL     1     113.845   7.665  11.992  1.00  0.00     0.000 A 
ENDBRANCH   4  14
BRANCH  10  20
ATOM     20  O   UNL     1     121.459  14.135   8.567  1.00  0.00    -0.509 OA
ATOM     21  H   UNL     1     121.614  14.178   7.558  1.00  0.00     0.293 HD
ENDBRANCH  10  20
TORSDOF 2
ENDMDL
MODEL 6
REMARK VINA RESULT:      -6.7      3.761      7.717
REMARK SMILES O=c1cc(-c2ccccc2)oc2cc([O-])c(O)c([O-])c12
REMARK SMILES IDX 1 1 2 2 3 3 4 4 11 5 12 6 13 7 14 8 15 9 16 10 18 11 19 12
REMARK SMILES IDX 20 13 5 14 6 15 10 16 7 17 9 18 8 19 17 20
REMARK H PARENT 17 21
ROOT
ATOM      1  O   UNL     1     113.611  10.201  12.697  1.00  0.00    -0.289 OA
ATOM      2  C   UNL     1     114.517   9.880  11.889  1.00  0.00     0.192 A 
ATOM      3  C   UNL     1     115.512  10.778  11.489  1.00  0.00     0.100 A 
ATOM      4  C   UNL     1     116.507  10.447  10.610  1.00  0.00     0.138 A 
ATOM      5  O   UNL     1     116.482   9.212  10.148  1.00  0.00    -0.456 OA
ATOM      6  C   UNL     1     115.581   8.323  10.480  1.00  0.00     0.137 A 
ATOM      7  C   UNL     1     115.614   7.027   9.952  1.00  0.00     0.043 A 
ATOM      8  C   UNL     1     114.667   6.109  10.307  1.00  0.00    -0.063 A 
ATOM      9  O   UNL     1     114.751   4.837   9.748  1.00  0.00    -0.870 OA
ATOM     10  C   UNL     1     113.648   6.401  11.189  1.00  0.00     0.100 A 
ATOM     11  C   UNL     1     113.601   7.660  11.715  1.00  0.00    -0.051 A 
ATOM     12  O   UNL     1     112.587   7.967  12.599  1.00  0.00    -0.869 OA
ATOM     13  C   UNL     1     114.561   8.610  11.361  1.00  0.00     0.060 A 
ENDROOT
BRANCH   4  14
ATOM     14  C   UNL     1     117.528  11.397  10.210  1.00  0.00     0.017 A 
ATOM     15  C   UNL     1     118.858  11.108  10.088  1.00  0.00     0.012 A 
ATOM     16  C   UNL     1     117.142  12.710   9.925  1.00  0.00     0.012 A 
ATOM     17  C   UNL     1     119.787  12.082   9.695  1.00  0.00     0.001 A 
ATOM     18  C   UNL     1     118.051  13.672   9.538  1.00  0.00     0.001 A 
ATOM     19  C   UNL     1     119.389  13.369   9.418  1.00  0.00     0.000 A 
ENDBRANCH   4  14
BRANCH  10  20
ATOM     20  O   UNL     1     112.703   5.423  11.520  1.00  0.00    -0.509 OA
ATOM     21  H   UNL     1     111.864   5.708  12.029  1.00  0.00     0.293 HD
ENDBRANCH  10  20
TORSDOF 2
ENDMDL
MODEL 7
REMARK VINA RESULT:      -6.6      3.804      7.851
REMARK SMILES O=c1cc(-c2ccccc2)oc2cc([O-])c(O)c([O-])c12
REMARK SMILES IDX 1 1 2 2 3 3 4 4 11 5 12 6 13 7 14 8 15 9 16 10 18 11 19 12
REMARK SMILES IDX 20 13 5 14 6 15 10 16 7 17 9 18 8 19 17 20
REMARK H PARENT 17 21
ROOT
ATOM      1  O   UNL     1     113.825  10.042  12.920  1.00  0.00    -0.289 OA
ATOM      2  C   UNL     1     114.631   9.745  12.004  1.00  0.00     0.192 A 
ATOM      3  C   UNL     1     115.595  10.645  11.539  1.00  0.00     0.100 A 
ATOM      4  C   UNL     1     116.481  10.340  10.542  1.00  0.00     0.138 A 
ATOM      5  O   UNL     1     116.381   9.129  10.030  1.00  0.00    -0.456 OA
ATOM      6  C   UNL     1     115.503   8.240  10.419  1.00  0.00     0.137 A 
ATOM      7  C   UNL     1     115.451   6.970   9.832  1.00  0.00     0.043 A 
ATOM      8  C   UNL     1     114.530   6.051  10.247  1.00  0.00    -0.063 A 
ATOM      9  O   UNL     1     114.526   4.805   9.626  1.00  0.00    -0.870 OA
ATOM     10  C   UNL     1     113.619   6.317  11.248  1.00  0.00     0.100 A 
ATOM     11  C   UNL     1     113.656   7.551  11.831  1.00  0.00    -0.051 A 
ATOM     12  O   UNL     1     112.750   7.832  12.834  1.00  0.00    -0.869 OA
ATOM     13  C   UNL     1     114.591   8.501  11.418  1.00  0.00     0.060 A 
ENDROOT
BRANCH   4  14
ATOM     14  C   UNL     1     117.472  11.292  10.076  1.00  0.00     0.017 A 
ATOM     15  C   UNL     1     117.188  12.524   9.556  1.00  0.00     0.012 A 
ATOM     16  C   UNL     1     118.823  10.942  10.157  1.00  0.00     0.012 A 
ATOM     17  C   UNL     1     118.203  13.390   9.126  1.00  0.00     0.001 A 
ATOM     18  C   UNL     1     119.826  11.790   9.737  1.00  0.00     0.001 A 
ATOM     19  C   UNL     1     119.528  13.028   9.214  1.00  0.00     0.000 A 
ENDBRANCH   4  14
BRANCH  10  20
ATOM     20  O   UNL     1     112.696   5.339  11.635  1.00  0.00    -0.509 OA
ATOM     21  H   UNL     1     112.985   4.643  12.325  1.00  0.00     0.293 HD
ENDBRANCH  10  20
TORSDOF 2
ENDMDL
MODEL 8
REMARK VINA RESULT:      -6.5      2.112      4.021
REMARK SMILES O=c1cc(-c2ccccc2)oc2cc([O-])c(O)c([O-])c12
REMARK SMILES IDX 1 1 2 2 3 3 4 4 11 5 12 6 13 7 14 8 15 9 16 10 18 11 19 12
REMARK SMILES IDX 20 13 5 14 6 15 10 16 7 17 9 18 8 19 17 20
REMARK H PARENT 17 21
ROOT
ATOM      1  O   UNL     1     119.488  10.688  10.591  1.00  0.00    -0.289 OA
ATOM      2  C   UNL     1     118.275  10.956  10.415  1.00  0.00     0.192 A 
ATOM      3  C   UNL     1     117.253  10.098  10.836  1.00  0.00     0.100 A 
ATOM      4  C   UNL     1     115.925  10.373  10.652  1.00  0.00     0.138 A 
ATOM      5  O   UNL     1     115.649  11.510  10.044  1.00  0.00    -0.456 OA
ATOM      6  C   UNL     1     116.555  12.356   9.626  1.00  0.00     0.137 A 
ATOM      7  C   UNL     1     116.192  13.548   8.988  1.00  0.00     0.043 A 
ATOM      8  C   UNL     1     117.148  14.422   8.556  1.00  0.00    -0.063 A 
ATOM      9  O   UNL     1     116.726  15.591   7.928  1.00  0.00    -0.870 OA
ATOM     10  C   UNL     1     118.497  14.185   8.721  1.00  0.00     0.100 A 
ATOM     11  C   UNL     1     118.868  13.028   9.342  1.00  0.00    -0.051 A 
ATOM     12  O   UNL     1     120.214  12.776   9.514  1.00  0.00    -0.869 OA
ATOM     13  C   UNL     1     117.904  12.124   9.789  1.00  0.00     0.060 A 
ENDROOT
BRANCH   4  14
ATOM     14  C   UNL     1     114.884   9.466  11.098  1.00  0.00     0.017 A 
ATOM     15  C   UNL     1     113.551   9.621  10.837  1.00  0.00     0.012 A 
ATOM     16  C   UNL     1     115.250   8.347  11.850  1.00  0.00     0.012 A 
ATOM     17  C   UNL     1     112.601   8.700  11.303  1.00  0.00     0.001 A 
ATOM     18  C   UNL     1     114.322   7.438  12.311  1.00  0.00     0.001 A 
ATOM     19  C   UNL     1     112.981   7.604  12.043  1.00  0.00     0.000 A 
ENDBRANCH   4  14
BRANCH  10  20
ATOM     20  O   UNL     1     119.435  15.115   8.259  1.00  0.00    -0.509 OA
ATOM     21  H   UNL     1     119.498  15.285   7.254  1.00  0.00     0.293 HD
ENDBRANCH  10  20
TORSDOF 2
ENDMDL
MODEL 9
REMARK VINA RESULT:      -6.4      1.359      3.073
REMARK SMILES O=c1cc(-c2ccccc2)oc2cc([O-])c(O)c([O-])c12
REMARK SMILES IDX 1 1 2 2 3 3 4 4 11 5 12 6 13 7 14 8 15 9 16 10 18 11 19 12
REMARK SMILES IDX 20 13 5 14 6 15 10 16 7 17 9 18 8 19 17 20
REMARK H PARENT 17 21
ROOT
ATOM      1  O   UNL     1     121.092  11.243  10.300  1.00  0.00    -0.289 OA
ATOM      2  C   UNL     1     119.905  11.622  10.153  1.00  0.00     0.192 A 
ATOM      3  C   UNL     1     118.817  10.843  10.559  1.00  0.00     0.100 A 
ATOM      4  C   UNL     1     117.516  11.240  10.406  1.00  0.00     0.138 A 
ATOM      5  O   UNL     1     117.334  12.419   9.844  1.00  0.00    -0.456 OA
ATOM      6  C   UNL     1     118.306  13.197   9.442  1.00  0.00     0.137 A 
ATOM      7  C   UNL     1     118.042  14.439   8.853  1.00  0.00     0.043 A 
ATOM      8  C   UNL     1     119.066  15.241   8.437  1.00  0.00    -0.063 A 
ATOM      9  O   UNL     1     118.741  16.465   7.859  1.00  0.00    -0.870 OA
ATOM     10  C   UNL     1     120.390  14.880   8.572  1.00  0.00     0.100 A 
ATOM     11  C   UNL     1     120.666  13.672   9.145  1.00  0.00    -0.051 A 
ATOM     12  O   UNL     1     121.986  13.297   9.287  1.00  0.00    -0.869 OA
ATOM     13  C   UNL     1     119.630  12.841   9.575  1.00  0.00     0.060 A 
ENDROOT
BRANCH   4  14
ATOM     14  C   UNL     1     116.404  10.413  10.836  1.00  0.00     0.017 A 
ATOM     15  C   UNL     1     115.085  10.739  10.686  1.00  0.00     0.012 A 
ATOM     16  C   UNL     1     116.681   9.188  11.450  1.00  0.00     0.012 A 
ATOM     17  C   UNL     1     114.064   9.886  11.128  1.00  0.00     0.001 A 
ATOM     18  C   UNL     1     115.682   8.345  11.886  1.00  0.00     0.001 A 
ATOM     19  C   UNL     1     114.357   8.684  11.730  1.00  0.00     0.000 A 
ENDBRANCH   4  14
BRANCH  10  20
ATOM     20  O   UNL     1     121.401  15.740   8.129  1.00  0.00    -0.509 OA
ATOM     21  H   UNL     1     122.217  15.882   8.728  1.00  0.00     0.293 HD
ENDBRANCH  10  20
TORSDOF 2
ENDMDL
