MODEL 1
REMARK VINA RESULT:      -5.2      0.000      0.000
REMARK SMILES O=C(CCC[NH+]1CCC(O)(c2ccc(Cl)cc2)CC1)c1ccc(F)cc1
REMARK SMILES IDX 4 1 3 2 2 3 1 4 20 5 21 6 26 7 22 8 25 9 23 10 24 11 5 12
REMARK SMILES IDX 6 13 7 14 19 15 8 16 18 17 9 18 10 20 11 22 12 23 17 24
REMARK SMILES IDX 13 25 16 26 14 27 15 28
REMARK H PARENT 6 19 10 21
ROOT
ATOM      1  C   UNL     1     117.534  77.053 103.216  1.00  0.00     0.070 C 
ENDROOT
BRANCH   1   2
ATOM      2  C   UNL     1     118.616  75.997 103.180  1.00  0.00     0.087 C 
BRANCH   2   3
ATOM      3  C   UNL     1     119.973  76.530 103.040  1.00  0.00     0.163 C 
ATOM      4  O   UNL     1     120.360  77.069 101.971  1.00  0.00    -0.294 OA
BRANCH   3   5
ATOM      5  C   UNL     1     120.964  76.471 104.135  1.00  0.00     0.018 A 
ATOM      6  C   UNL     1     120.551  76.359 105.450  1.00  0.00     0.015 A 
ATOM      7  C   UNL     1     122.310  76.526 103.874  1.00  0.00     0.015 A 
ATOM      8  C   UNL     1     121.478  76.305 106.464  1.00  0.00     0.040 A 
ATOM      9  C   UNL     1     123.239  76.473 104.879  1.00  0.00     0.040 A 
ATOM     10  C   UNL     1     122.818  76.361 106.176  1.00  0.00     0.123 A 
ATOM     11  F   UNL     1     123.778  76.313 107.154  1.00  0.00    -0.207 F 
ENDBRANCH   3   5
ENDBRANCH   2   3
ENDBRANCH   1   2
BRANCH   1  12
ATOM     12  C   UNL     1     116.738  76.870 104.463  1.00  0.00     0.262 C 
BRANCH  12  13
ATOM     13  N   UNL     1     115.779  77.945 104.682  1.00  0.00    -0.335 N 
ATOM     14  C   UNL     1     115.761  78.392 106.042  1.00  0.00     0.265 C 
ATOM     15  C   UNL     1     116.046  79.030 103.796  1.00  0.00     0.265 C 
ATOM     16  C   UNL     1     117.106  78.909 106.472  1.00  0.00     0.102 C 
ATOM     17  C   UNL     1     116.670  80.229 104.374  1.00  0.00     0.102 C 
ATOM     18  C   UNL     1     117.490  80.068 105.600  1.00  0.00     0.100 C 
ATOM     19  H   UNL     1     114.831  77.498 104.501  1.00  0.00     0.348 HD
BRANCH  18  20
ATOM     20  O   UNL     1     117.291  81.229 106.386  1.00  0.00    -0.385 OA
ATOM     21  H   UNL     1     117.982  81.213 107.094  1.00  0.00     0.211 HD
ENDBRANCH  18  20
BRANCH  18  22
ATOM     22  C   UNL     1     118.969  80.070 105.314  1.00  0.00    -0.016 A 
ATOM     23  C   UNL     1     119.466  80.173 104.031  1.00  0.00     0.008 A 
ATOM     24  C   UNL     1     119.916  79.971 106.309  1.00  0.00     0.008 A 
ATOM     25  C   UNL     1     120.808  80.179 103.727  1.00  0.00     0.021 A 
ATOM     26  C   UNL     1     121.268  79.974 106.028  1.00  0.00     0.021 A 
ATOM     27  C   UNL     1     121.713  80.079 104.738  1.00  0.00     0.041 A 
ATOM     28  Cl  UNL     1     123.422  80.086 104.374  1.00  0.00    -0.084 Cl
ENDBRANCH  18  22
ENDBRANCH  12  13
ENDBRANCH   1  12
TORSDOF 7
ENDMDL
MODEL 2
REMARK VINA RESULT:      -5.2      2.627      3.577
REMARK SMILES O=C(CCC[NH+]1CCC(O)(c2ccc(Cl)cc2)CC1)c1ccc(F)cc1
REMARK SMILES IDX 4 1 3 2 2 3 1 4 20 5 21 6 26 7 22 8 25 9 23 10 24 11 5 12
REMARK SMILES IDX 6 13 7 14 19 15 8 16 18 17 9 18 10 20 11 22 12 23 17 24
REMARK SMILES IDX 13 25 16 26 14 27 15 28
REMARK H PARENT 6 19 10 21
ROOT
ATOM      1  C   UNL     1     114.723  77.725 103.933  1.00  0.00     0.070 C 
ENDROOT
BRANCH   1   2
ATOM      2  C   UNL     1     116.052  77.040 104.158  1.00  0.00     0.087 C 
BRANCH   2   3
ATOM      3  C   UNL     1     116.808  76.771 102.933  1.00  0.00     0.163 C 
ATOM      4  O   UNL     1     116.527  75.796 102.188  1.00  0.00    -0.294 OA
BRANCH   3   5
ATOM      5  C   UNL     1     117.936  77.620 102.496  1.00  0.00     0.018 A 
ATOM      6  C   UNL     1     119.231  77.135 102.522  1.00  0.00     0.015 A 
ATOM      7  C   UNL     1     117.727  78.902 102.057  1.00  0.00     0.015 A 
ATOM      8  C   UNL     1     120.276  77.930 102.114  1.00  0.00     0.040 A 
ATOM      9  C   UNL     1     118.762  79.700 101.649  1.00  0.00     0.040 A 
ATOM     10  C   UNL     1     120.039  79.209 101.679  1.00  0.00     0.123 A 
ATOM     11  F   UNL     1     121.050  80.038 101.266  1.00  0.00    -0.207 F 
ENDBRANCH   3   5
ENDBRANCH   2   3
ENDBRANCH   1   2
BRANCH   1  12
ATOM     12  C   UNL     1     114.278  78.325 105.222  1.00  0.00     0.262 C 
BRANCH  12  13
ATOM     13  N   UNL     1     113.876  79.719 105.085  1.00  0.00    -0.335 N 
ATOM     14  C   UNL     1     114.006  80.448 106.310  1.00  0.00     0.265 C 
ATOM     15  C   UNL     1     114.621  80.345 104.042  1.00  0.00     0.265 C 
ATOM     16  C   UNL     1     115.426  80.448 106.806  1.00  0.00     0.102 C 
ATOM     17  C   UNL     1     115.684  81.277 104.444  1.00  0.00     0.102 C 
ATOM     18  C   UNL     1     116.307  81.092 105.778  1.00  0.00     0.100 C 
ATOM     19  H   UNL     1     112.835  79.678 104.870  1.00  0.00     0.348 HD
BRANCH  18  20
ATOM     20  O   UNL     1     116.606  82.384 106.277  1.00  0.00    -0.385 OA
ATOM     21  H   UNL     1     115.828  82.663 106.822  1.00  0.00     0.211 HD
ENDBRANCH  18  20
BRANCH  18  22
ATOM     22  C   UNL     1     117.649  80.411 105.703  1.00  0.00    -0.016 A 
ATOM     23  C   UNL     1     117.848  79.132 106.179  1.00  0.00     0.008 A 
ATOM     24  C   UNL     1     118.758  81.018 105.155  1.00  0.00     0.008 A 
ATOM     25  C   UNL     1     119.056  78.475 106.129  1.00  0.00     0.021 A 
ATOM     26  C   UNL     1     119.980  80.379 105.095  1.00  0.00     0.021 A 
ATOM     27  C   UNL     1     120.128  79.108 105.581  1.00  0.00     0.041 A 
ATOM     28  Cl  UNL     1     121.671  78.291 105.507  1.00  0.00    -0.084 Cl
ENDBRANCH  18  22
ENDBRANCH  12  13
ENDBRANCH   1  12
TORSDOF 7
ENDMDL
MODEL 3
REMARK VINA RESULT:      -5.1     10.143     11.999
REMARK SMILES O=C(CCC[NH+]1CCC(O)(c2ccc(Cl)cc2)CC1)c1ccc(F)cc1
REMARK SMILES IDX 4 1 3 2 2 3 1 4 20 5 21 6 26 7 22 8 25 9 23 10 24 11 5 12
REMARK SMILES IDX 6 13 7 14 19 15 8 16 18 17 9 18 10 20 11 22 12 23 17 24
REMARK SMILES IDX 13 25 16 26 14 27 15 28
REMARK H PARENT 6 19 10 21
ROOT
ATOM      1  C   UNL     1     118.892  66.540 104.920  1.00  0.00     0.070 C 
ENDROOT
BRANCH   1   2
ATOM      2  C   UNL     1     117.450  66.132 105.124  1.00  0.00     0.087 C 
BRANCH   2   3
ATOM      3  C   UNL     1     116.726  66.943 106.105  1.00  0.00     0.163 C 
ATOM      4  O   UNL     1     115.614  67.465 105.834  1.00  0.00    -0.294 OA
BRANCH   3   5
ATOM      5  C   UNL     1     117.251  67.198 107.463  1.00  0.00     0.018 A 
ATOM      6  C   UNL     1     118.162  68.215 107.685  1.00  0.00     0.015 A 
ATOM      7  C   UNL     1     116.849  66.436 108.531  1.00  0.00     0.015 A 
ATOM      8  C   UNL     1     118.646  68.446 108.951  1.00  0.00     0.040 A 
ATOM      9  C   UNL     1     117.326  66.661 109.794  1.00  0.00     0.040 A 
ATOM     10  C   UNL     1     118.227  67.669 110.001  1.00  0.00     0.123 A 
ATOM     11  F   UNL     1     118.685  67.862 111.279  1.00  0.00    -0.207 F 
ENDBRANCH   3   5
ENDBRANCH   2   3
ENDBRANCH   1   2
BRANCH   1  12
ATOM     12  C   UNL     1     118.915  67.873 104.255  1.00  0.00     0.262 C 
BRANCH  12  13
ATOM     13  N   UNL     1     119.675  67.870 103.012  1.00  0.00    -0.335 N 
ATOM     14  C   UNL     1     120.460  69.055 102.848  1.00  0.00     0.265 C 
ATOM     15  C   UNL     1     120.495  66.705 102.941  1.00  0.00     0.265 C 
ATOM     16  C   UNL     1     121.451  69.221 103.967  1.00  0.00     0.102 C 
ATOM     17  C   UNL     1     121.937  66.886 103.164  1.00  0.00     0.102 C 
ATOM     18  C   UNL     1     122.377  68.042 103.986  1.00  0.00     0.100 C 
ATOM     19  H   UNL     1     118.937  67.891 102.247  1.00  0.00     0.348 HD
BRANCH  18  20
ATOM     20  O   UNL     1     123.599  68.498 103.435  1.00  0.00    -0.385 OA
ATOM     21  H   UNL     1     124.047  69.028 104.141  1.00  0.00     0.211 HD
ENDBRANCH  18  20
BRANCH  18  22
ATOM     22  C   UNL     1     122.735  67.649 105.395  1.00  0.00    -0.016 A 
ATOM     23  C   UNL     1     123.846  66.882 105.681  1.00  0.00     0.008 A 
ATOM     24  C   UNL     1     121.981  68.028 106.484  1.00  0.00     0.008 A 
ATOM     25  C   UNL     1     124.208  66.502 106.953  1.00  0.00     0.021 A 
ATOM     26  C   UNL     1     122.324  67.658 107.769  1.00  0.00     0.021 A 
ATOM     27  C   UNL     1     123.437  66.896 108.003  1.00  0.00     0.041 A 
ATOM     28  Cl  UNL     1     123.880  66.425 109.626  1.00  0.00    -0.084 Cl
ENDBRANCH  18  22
ENDBRANCH  12  13
ENDBRANCH   1  12
TORSDOF 7
ENDMDL
MODEL 4
REMARK VINA RESULT:      -5.1     10.485     12.153
REMARK SMILES O=C(CCC[NH+]1CCC(O)(c2ccc(Cl)cc2)CC1)c1ccc(F)cc1
REMARK SMILES IDX 4 1 3 2 2 3 1 4 20 5 21 6 26 7 22 8 25 9 23 10 24 11 5 12
REMARK SMILES IDX 6 13 7 14 19 15 8 16 18 17 9 18 10 20 11 22 12 23 17 24
REMARK SMILES IDX 13 25 16 26 14 27 15 28
REMARK H PARENT 6 19 10 21
ROOT
ATOM      1  C   UNL     1     117.385  66.915 104.815  1.00  0.00     0.070 C 
ENDROOT
BRANCH   1   2
ATOM      2  C   UNL     1     116.624  66.096 105.834  1.00  0.00     0.087 C 
BRANCH   2   3
ATOM      3  C   UNL     1     116.159  66.859 106.994  1.00  0.00     0.163 C 
ATOM      4  O   UNL     1     114.947  67.170 107.133  1.00  0.00    -0.294 OA
BRANCH   3   5
ATOM      5  C   UNL     1     117.072  67.306 108.066  1.00  0.00     0.018 A 
ATOM      6  C   UNL     1     117.891  68.405 107.878  1.00  0.00     0.015 A 
ATOM      7  C   UNL     1     117.130  66.646 109.267  1.00  0.00     0.015 A 
ATOM      8  C   UNL     1     118.739  68.816 108.880  1.00  0.00     0.040 A 
ATOM      9  C   UNL     1     117.971  67.049 110.269  1.00  0.00     0.040 A 
ATOM     10  C   UNL     1     118.776  68.138 110.071  1.00  0.00     0.123 A 
ATOM     11  F   UNL     1     119.607  68.509 111.096  1.00  0.00    -0.207 F 
ENDBRANCH   3   5
ENDBRANCH   2   3
ENDBRANCH   1   2
BRANCH   1  12
ATOM     12  C   UNL     1     118.792  66.427 104.774  1.00  0.00     0.262 C 
BRANCH  12  13
ATOM     13  N   UNL     1     119.481  66.794 103.543  1.00  0.00    -0.335 N 
ATOM     14  C   UNL     1     119.804  68.187 103.492  1.00  0.00     0.265 C 
ATOM     15  C   UNL     1     120.652  65.996 103.379  1.00  0.00     0.265 C 
ATOM     16  C   UNL     1     120.700  68.590 104.632  1.00  0.00     0.102 C 
ATOM     17  C   UNL     1     121.946  66.646 103.631  1.00  0.00     0.102 C 
ATOM     18  C   UNL     1     121.976  67.807 104.556  1.00  0.00     0.100 C 
ATOM     19  H   UNL     1     118.765  66.624 102.776  1.00  0.00     0.348 HD
BRANCH  18  20
ATOM     20  O   UNL     1     122.953  68.704 104.059  1.00  0.00    -0.385 OA
ATOM     21  H   UNL     1     123.658  68.766 104.752  1.00  0.00     0.211 HD
ENDBRANCH  18  20
BRANCH  18  22
ATOM     22  C   UNL     1     122.478  67.443 105.928  1.00  0.00    -0.016 A 
ATOM     23  C   UNL     1     121.647  67.420 107.029  1.00  0.00     0.008 A 
ATOM     24  C   UNL     1     123.792  67.111 106.172  1.00  0.00     0.008 A 
ATOM     25  C   UNL     1     122.065  67.094 108.299  1.00  0.00     0.021 A 
ATOM     26  C   UNL     1     124.235  66.781 107.438  1.00  0.00     0.021 A 
ATOM     27  C   UNL     1     123.372  66.772 108.500  1.00  0.00     0.041 A 
ATOM     28  Cl  UNL     1     123.923  66.353 110.104  1.00  0.00    -0.084 Cl
ENDBRANCH  18  22
ENDBRANCH  12  13
ENDBRANCH   1  12
TORSDOF 7
ENDMDL
MODEL 5
REMARK VINA RESULT:      -5.1      1.710      4.390
REMARK SMILES O=C(CCC[NH+]1CCC(O)(c2ccc(Cl)cc2)CC1)c1ccc(F)cc1
REMARK SMILES IDX 4 1 3 2 2 3 1 4 20 5 21 6 26 7 22 8 25 9 23 10 24 11 5 12
REMARK SMILES IDX 6 13 7 14 19 15 8 16 18 17 9 18 10 20 11 22 12 23 17 24
REMARK SMILES IDX 13 25 16 26 14 27 15 28
REMARK H PARENT 6 19 10 21
ROOT
ATOM      1  C   UNL     1     115.285  77.908 105.115  1.00  0.00     0.070 C 
ENDROOT
BRANCH   1   2
ATOM      2  C   UNL     1     115.736  78.957 106.107  1.00  0.00     0.087 C 
BRANCH   2   3
ATOM      3  C   UNL     1     116.702  79.918 105.570  1.00  0.00     0.163 C 
ATOM      4  O   UNL     1     116.379  80.747 104.680  1.00  0.00    -0.294 OA
BRANCH   3   5
ATOM      5  C   UNL     1     118.104  79.977 106.036  1.00  0.00     0.018 A 
ATOM      6  C   UNL     1     118.942  80.992 105.614  1.00  0.00     0.015 A 
ATOM      7  C   UNL     1     118.603  79.031 106.895  1.00  0.00     0.015 A 
ATOM      8  C   UNL     1     120.245  81.041 106.051  1.00  0.00     0.040 A 
ATOM      9  C   UNL     1     119.899  79.072 107.335  1.00  0.00     0.040 A 
ATOM     10  C   UNL     1     120.719  80.082 106.910  1.00  0.00     0.123 A 
ATOM     11  F   UNL     1     122.010  80.089 107.370  1.00  0.00    -0.207 F 
ENDBRANCH   3   5
ENDBRANCH   2   3
ENDBRANCH   1   2
BRANCH   1  12
ATOM     12  C   UNL     1     116.460  77.069 104.749  1.00  0.00     0.262 C 
BRANCH  12  13
ATOM     13  N   UNL     1     116.442  76.651 103.353  1.00  0.00    -0.335 N 
ATOM     14  C   UNL     1     116.898  77.680 102.468  1.00  0.00     0.265 C 
ATOM     15  C   UNL     1     117.212  75.461 103.186  1.00  0.00     0.265 C 
ATOM     16  C   UNL     1     118.309  78.095 102.783  1.00  0.00     0.102 C 
ATOM     17  C   UNL     1     118.526  75.599 102.541  1.00  0.00     0.102 C 
ATOM     18  C   UNL     1     119.216  76.910 102.635  1.00  0.00     0.100 C 
ATOM     19  H   UNL     1     115.413  76.500 103.132  1.00  0.00     0.348 HD
BRANCH  18  20
ATOM     20  O   UNL     1     119.908  77.100 101.413  1.00  0.00    -0.385 OA
ATOM     21  H   UNL     1     119.917  78.075 101.243  1.00  0.00     0.211 HD
ENDBRANCH  18  20
BRANCH  18  22
ATOM     22  C   UNL     1     120.304  76.920 103.676  1.00  0.00    -0.016 A 
ATOM     23  C   UNL     1     121.381  77.779 103.601  1.00  0.00     0.008 A 
ATOM     24  C   UNL     1     120.294  76.077 104.765  1.00  0.00     0.008 A 
ATOM     25  C   UNL     1     122.396  77.819 104.530  1.00  0.00     0.021 A 
ATOM     26  C   UNL     1     121.301  76.099 105.710  1.00  0.00     0.021 A 
ATOM     27  C   UNL     1     122.350  76.970 105.592  1.00  0.00     0.041 A 
ATOM     28  Cl  UNL     1     123.627  77.007 106.784  1.00  0.00    -0.084 Cl
ENDBRANCH  18  22
ENDBRANCH  12  13
ENDBRANCH   1  12
TORSDOF 7
ENDMDL
MODEL 6
REMARK VINA RESULT:      -5.0     10.548     13.033
REMARK SMILES O=C(CCC[NH+]1CCC(O)(c2ccc(Cl)cc2)CC1)c1ccc(F)cc1
REMARK SMILES IDX 4 1 3 2 2 3 1 4 20 5 21 6 26 7 22 8 25 9 23 10 24 11 5 12
REMARK SMILES IDX 6 13 7 14 19 15 8 16 18 17 9 18 10 20 11 22 12 23 17 24
REMARK SMILES IDX 13 25 16 26 14 27 15 28
REMARK H PARENT 6 19 10 21
ROOT
ATOM      1  C   UNL     1     122.922  67.245 108.846  1.00  0.00     0.070 C 
ENDROOT
BRANCH   1   2
ATOM      2  C   UNL     1     121.741  67.881 108.147  1.00  0.00     0.087 C 
BRANCH   2   3
ATOM      3  C   UNL     1     120.563  68.063 108.999  1.00  0.00     0.163 C 
ATOM      4  O   UNL     1     120.627  68.700 110.082  1.00  0.00    -0.294 OA
BRANCH   3   5
ATOM      5  C   UNL     1     119.237  67.516 108.643  1.00  0.00     0.018 A 
ATOM      6  C   UNL     1     118.428  66.948 109.611  1.00  0.00     0.015 A 
ATOM      7  C   UNL     1     118.778  67.558 107.351  1.00  0.00     0.015 A 
ATOM      8  C   UNL     1     117.196  66.441 109.273  1.00  0.00     0.040 A 
ATOM      9  C   UNL     1     117.552  67.055 107.007  1.00  0.00     0.040 A 
ATOM     10  C   UNL     1     116.762  66.496 107.973  1.00  0.00     0.123 A 
ATOM     11  F   UNL     1     115.542  66.001 107.590  1.00  0.00    -0.207 F 
ENDBRANCH   3   5
ENDBRANCH   2   3
ENDBRANCH   1   2
BRANCH   1  12
ATOM     12  C   UNL     1     122.985  65.809 108.450  1.00  0.00     0.262 C 
BRANCH  12  13
ATOM     13  N   UNL     1     124.218  65.472 107.749  1.00  0.00    -0.335 N 
ATOM     14  C   UNL     1     124.044  64.393 106.825  1.00  0.00     0.265 C 
ATOM     15  C   UNL     1     124.739  66.625 107.090  1.00  0.00     0.265 C 
ATOM     16  C   UNL     1     123.019  64.725 105.775  1.00  0.00     0.102 C 
ATOM     17  C   UNL     1     124.588  66.686 105.629  1.00  0.00     0.102 C 
ATOM     18  C   UNL     1     123.470  65.933 105.010  1.00  0.00     0.100 C 
ATOM     19  H   UNL     1     124.868  65.113 108.510  1.00  0.00     0.348 HD
BRANCH  18  20
ATOM     20  O   UNL     1     123.937  65.451 103.763  1.00  0.00    -0.385 OA
ATOM     21  H   UNL     1     123.485  64.584 103.607  1.00  0.00     0.211 HD
ENDBRANCH  18  20
BRANCH  18  22
ATOM     22  C   UNL     1     122.305  66.817 104.647  1.00  0.00    -0.016 A 
ATOM     23  C   UNL     1     122.413  68.192 104.611  1.00  0.00     0.008 A 
ATOM     24  C   UNL     1     121.064  66.313 104.328  1.00  0.00     0.008 A 
ATOM     25  C   UNL     1     121.375  69.034 104.285  1.00  0.00     0.021 A 
ATOM     26  C   UNL     1     120.007  67.138 103.998  1.00  0.00     0.021 A 
ATOM     27  C   UNL     1     120.164  68.498 103.977  1.00  0.00     0.041 A 
ATOM     28  Cl  UNL     1     118.833  69.549 103.558  1.00  0.00    -0.084 Cl
ENDBRANCH  18  22
ENDBRANCH  12  13
ENDBRANCH   1  12
TORSDOF 7
ENDMDL
MODEL 7
REMARK VINA RESULT:      -5.0      2.891      4.441
REMARK SMILES O=C(CCC[NH+]1CCC(O)(c2ccc(Cl)cc2)CC1)c1ccc(F)cc1
REMARK SMILES IDX 4 1 3 2 2 3 1 4 20 5 21 6 26 7 22 8 25 9 23 10 24 11 5 12
REMARK SMILES IDX 6 13 7 14 19 15 8 16 18 17 9 18 10 20 11 22 12 23 17 24
REMARK SMILES IDX 13 25 16 26 14 27 15 28
REMARK H PARENT 6 19 10 21
ROOT
ATOM      1  C   UNL     1     119.721  79.608 106.759  1.00  0.00     0.070 C 
ENDROOT
BRANCH   1   2
ATOM      2  C   UNL     1     120.822  78.747 106.181  1.00  0.00     0.087 C 
BRANCH   2   3
ATOM      3  C   UNL     1     120.766  78.593 104.726  1.00  0.00     0.163 C 
ATOM      4  O   UNL     1     120.862  79.584 103.956  1.00  0.00    -0.294 OA
BRANCH   3   5
ATOM      5  C   UNL     1     120.596  77.277 104.075  1.00  0.00     0.018 A 
ATOM      6  C   UNL     1     121.255  76.988 102.893  1.00  0.00     0.015 A 
ATOM      7  C   UNL     1     119.786  76.316 104.623  1.00  0.00     0.015 A 
ATOM      8  C   UNL     1     121.093  75.762 102.293  1.00  0.00     0.040 A 
ATOM      9  C   UNL     1     119.619  75.093 104.031  1.00  0.00     0.040 A 
ATOM     10  C   UNL     1     120.277  74.819 102.863  1.00  0.00     0.123 A 
ATOM     11  F   UNL     1     120.083  73.584 102.298  1.00  0.00    -0.207 F 
ENDBRANCH   3   5
ENDBRANCH   2   3
ENDBRANCH   1   2
BRANCH   1  12
ATOM     12  C   UNL     1     118.419  78.916 106.543  1.00  0.00     0.262 C 
BRANCH  12  13
ATOM     13  N   UNL     1     117.285  79.831 106.563  1.00  0.00    -0.335 N 
ATOM     14  C   UNL     1     117.386  80.849 105.562  1.00  0.00     0.265 C 
ATOM     15  C   UNL     1     116.065  79.103 106.425  1.00  0.00     0.265 C 
ATOM     16  C   UNL     1     117.450  80.260 104.179  1.00  0.00     0.102 C 
ATOM     17  C   UNL     1     115.383  79.180 105.125  1.00  0.00     0.102 C 
ATOM     18  C   UNL     1     116.203  79.468 103.922  1.00  0.00     0.100 C 
ATOM     19  H   UNL     1     117.357  80.325 107.502  1.00  0.00     0.348 HD
BRANCH  18  20
ATOM     20  O   UNL     1     115.408  80.264 103.061  1.00  0.00    -0.385 OA
ATOM     21  H   UNL     1     116.008  80.594 102.346  1.00  0.00     0.211 HD
ENDBRANCH  18  20
BRANCH  18  22
ATOM     22  C   UNL     1     116.497  78.233 103.110  1.00  0.00    -0.016 A 
ATOM     23  C   UNL     1     117.441  78.226 102.105  1.00  0.00     0.008 A 
ATOM     24  C   UNL     1     115.844  77.038 103.319  1.00  0.00     0.008 A 
ATOM     25  C   UNL     1     117.738  77.120 101.341  1.00  0.00     0.021 A 
ATOM     26  C   UNL     1     116.125  75.916 102.565  1.00  0.00     0.021 A 
ATOM     27  C   UNL     1     117.072  75.958 101.577  1.00  0.00     0.041 A 
ATOM     28  Cl  UNL     1     117.436  74.543 100.620  1.00  0.00    -0.084 Cl
ENDBRANCH  18  22
ENDBRANCH  12  13
ENDBRANCH   1  12
TORSDOF 7
ENDMDL
MODEL 8
REMARK VINA RESULT:      -5.0     10.223     11.978
REMARK SMILES O=C(CCC[NH+]1CCC(O)(c2ccc(Cl)cc2)CC1)c1ccc(F)cc1
REMARK SMILES IDX 4 1 3 2 2 3 1 4 20 5 21 6 26 7 22 8 25 9 23 10 24 11 5 12
REMARK SMILES IDX 6 13 7 14 19 15 8 16 18 17 9 18 10 20 11 22 12 23 17 24
REMARK SMILES IDX 13 25 16 26 14 27 15 28
REMARK H PARENT 6 19 10 21
ROOT
ATOM      1  C   UNL     1     117.782  67.054 103.672  1.00  0.00     0.070 C 
ENDROOT
BRANCH   1   2
ATOM      2  C   UNL     1     117.587  66.207 104.910  1.00  0.00     0.087 C 
BRANCH   2   3
ATOM      3  C   UNL     1     116.786  66.846 105.957  1.00  0.00     0.163 C 
ATOM      4  O   UNL     1     115.602  67.214 105.745  1.00  0.00    -0.294 OA
BRANCH   3   5
ATOM      5  C   UNL     1     117.312  67.094 107.315  1.00  0.00     0.018 A 
ATOM      6  C   UNL     1     116.765  66.449 108.409  1.00  0.00     0.015 A 
ATOM      7  C   UNL     1     118.350  67.966 107.522  1.00  0.00     0.015 A 
ATOM      8  C   UNL     1     117.259  66.685 109.670  1.00  0.00     0.040 A 
ATOM      9  C   UNL     1     118.848  68.206 108.775  1.00  0.00     0.040 A 
ATOM     10  C   UNL     1     118.298  67.562 109.850  1.00  0.00     0.123 A 
ATOM     11  F   UNL     1     118.821  67.830 111.088  1.00  0.00    -0.207 F 
ENDBRANCH   3   5
ENDBRANCH   2   3
ENDBRANCH   1   2
BRANCH   1  12
ATOM     12  C   UNL     1     119.039  67.838 103.830  1.00  0.00     0.262 C 
BRANCH  12  13
ATOM     13  N   UNL     1     119.854  67.847 102.622  1.00  0.00    -0.335 N 
ATOM     14  C   UNL     1     120.635  69.040 102.498  1.00  0.00     0.265 C 
ATOM     15  C   UNL     1     120.687  66.689 102.583  1.00  0.00     0.265 C 
ATOM     16  C   UNL     1     121.574  69.209 103.661  1.00  0.00     0.102 C 
ATOM     17  C   UNL     1     122.115  66.882 102.870  1.00  0.00     0.102 C 
ATOM     18  C   UNL     1     122.508  68.037 103.716  1.00  0.00     0.100 C 
ATOM     19  H   UNL     1     119.150  67.865 101.825  1.00  0.00     0.348 HD
BRANCH  18  20
ATOM     20  O   UNL     1     123.750  68.506 103.222  1.00  0.00    -0.385 OA
ATOM     21  H   UNL     1     123.841  68.151 102.302  1.00  0.00     0.211 HD
ENDBRANCH  18  20
BRANCH  18  22
ATOM     22  C   UNL     1     122.807  67.641 105.138  1.00  0.00    -0.016 A 
ATOM     23  C   UNL     1     122.180  68.238 106.211  1.00  0.00     0.008 A 
ATOM     24  C   UNL     1     123.722  66.661 105.456  1.00  0.00     0.008 A 
ATOM     25  C   UNL     1     122.425  67.905 107.524  1.00  0.00     0.021 A 
ATOM     26  C   UNL     1     123.985  66.311 106.766  1.00  0.00     0.021 A 
ATOM     27  C   UNL     1     123.336  66.933 107.798  1.00  0.00     0.041 A 
ATOM     28  Cl  UNL     1     123.660  66.495 109.458  1.00  0.00    -0.084 Cl
ENDBRANCH  18  22
ENDBRANCH  12  13
ENDBRANCH   1  12
TORSDOF 7
ENDMDL
MODEL 9
REMARK VINA RESULT:      -4.9      2.800      4.343
REMARK SMILES O=C(CCC[NH+]1CCC(O)(c2ccc(Cl)cc2)CC1)c1ccc(F)cc1
REMARK SMILES IDX 4 1 3 2 2 3 1 4 20 5 21 6 26 7 22 8 25 9 23 10 24 11 5 12
REMARK SMILES IDX 6 13 7 14 19 15 8 16 18 17 9 18 10 20 11 22 12 23 17 24
REMARK SMILES IDX 13 25 16 26 14 27 15 28
REMARK H PARENT 6 19 10 21
ROOT
ATOM      1  C   UNL     1     119.920  81.390 105.462  1.00  0.00     0.070 C 
ENDROOT
BRANCH   1   2
ATOM      2  C   UNL     1     120.863  80.620 104.564  1.00  0.00     0.087 C 
BRANCH   2   3
ATOM      3  C   UNL     1     121.336  79.355 105.129  1.00  0.00     0.163 C 
ATOM      4  O   UNL     1     122.018  79.321 106.186  1.00  0.00    -0.294 OA
BRANCH   3   5
ATOM      5  C   UNL     1     121.043  78.048 104.502  1.00  0.00     0.018 A 
ATOM      6  C   UNL     1     120.647  76.971 105.275  1.00  0.00     0.015 A 
ATOM      7  C   UNL     1     121.157  77.874 103.147  1.00  0.00     0.015 A 
ATOM      8  C   UNL     1     120.377  75.759 104.685  1.00  0.00     0.040 A 
ATOM      9  C   UNL     1     120.889  76.670 102.552  1.00  0.00     0.040 A 
ATOM     10  C   UNL     1     120.498  75.612 103.327  1.00  0.00     0.123 A 
ATOM     11  F   UNL     1     120.241  74.422 102.696  1.00  0.00    -0.207 F 
ENDBRANCH   3   5
ENDBRANCH   2   3
ENDBRANCH   1   2
BRANCH   1  12
ATOM     12  C   UNL     1     118.521  81.022 105.102  1.00  0.00     0.262 C 
BRANCH  12  13
ATOM     13  N   UNL     1     117.738  80.593 106.253  1.00  0.00    -0.335 N 
ATOM     14  C   UNL     1     116.329  80.708 106.029  1.00  0.00     0.265 C 
ATOM     15  C   UNL     1     118.085  79.257 106.614  1.00  0.00     0.265 C 
ATOM     16  C   UNL     1     115.884  79.873 104.860  1.00  0.00     0.102 C 
ATOM     17  C   UNL     1     117.122  78.200 106.274  1.00  0.00     0.102 C 
ATOM     18  C   UNL     1     116.201  78.433 105.134  1.00  0.00     0.100 C 
ATOM     19  H   UNL     1     117.978  81.293 107.016  1.00  0.00     0.348 HD
BRANCH  18  20
ATOM     20  O   UNL     1     114.968  77.820 105.467  1.00  0.00    -0.385 OA
ATOM     21  H   UNL     1     114.316  78.553 105.603  1.00  0.00     0.211 HD
ENDBRANCH  18  20
BRANCH  18  22
ATOM     22  C   UNL     1     116.636  77.720 103.881  1.00  0.00    -0.016 A 
ATOM     23  C   UNL     1     117.099  78.401 102.774  1.00  0.00     0.008 A 
ATOM     24  C   UNL     1     116.600  76.348 103.759  1.00  0.00     0.008 A 
ATOM     25  C   UNL     1     117.505  77.788 101.611  1.00  0.00     0.021 A 
ATOM     26  C   UNL     1     117.002  75.711 102.602  1.00  0.00     0.021 A 
ATOM     27  C   UNL     1     117.455  76.431 101.530  1.00  0.00     0.041 A 
ATOM     28  Cl  UNL     1     117.968  75.633 100.062  1.00  0.00    -0.084 Cl
ENDBRANCH  18  22
ENDBRANCH  12  13
ENDBRANCH   1  12
TORSDOF 7
ENDMDL
