MODEL 1
REMARK VINA RESULT:      -6.2      0.000      0.000
REMARK SMILES O=c1cc(-c2ccccc2)oc2cc(O)cc(O)c12
REMARK SMILES IDX 1 1 2 2 3 3 4 4 11 5 12 6 13 7 14 8 16 9 17 10 19 11 5 12
REMARK SMILES IDX 6 13 10 14 7 15 9 16 8 17 18 18 15 20
REMARK H PARENT 18 19 15 21
ROOT
ATOM      1  O   UNL     1      17.728  11.134  -0.906  1.00  0.00    -0.289 OA
ATOM      2  C   UNL     1      17.689  12.382  -0.767  1.00  0.00     0.197 A 
ATOM      3  C   UNL     1      16.781  13.018   0.092  1.00  0.00     0.100 A 
ATOM      4  C   UNL     1      16.757  14.385   0.229  1.00  0.00     0.138 A 
ATOM      5  O   UNL     1      17.624  15.063  -0.484  1.00  0.00    -0.456 OA
ATOM      6  C   UNL     1      18.495  14.527  -1.302  1.00  0.00     0.146 A 
ATOM      7  C   UNL     1      19.390  15.302  -2.031  1.00  0.00     0.094 A 
ATOM      8  C   UNL     1      20.316  14.773  -2.897  1.00  0.00     0.123 A 
ATOM      9  C   UNL     1      20.374  13.408  -3.063  1.00  0.00     0.093 A 
ATOM     10  C   UNL     1      19.504  12.604  -2.358  1.00  0.00     0.134 A 
ATOM     11  C   UNL     1      18.567  13.163  -1.481  1.00  0.00     0.107 A 
ENDROOT
BRANCH   4  12
ATOM     12  C   UNL     1      15.811  15.059   1.124  1.00  0.00     0.017 A 
ATOM     13  C   UNL     1      16.144  15.558   2.355  1.00  0.00     0.012 A 
ATOM     14  C   UNL     1      14.497  15.212   0.721  1.00  0.00     0.012 A 
ATOM     15  C   UNL     1      15.208  16.194   3.174  1.00  0.00     0.001 A 
ATOM     16  C   UNL     1      13.545  15.838   1.511  1.00  0.00     0.001 A 
ATOM     17  C   UNL     1      13.902  16.338   2.756  1.00  0.00     0.000 A 
ENDBRANCH   4  12
BRANCH  10  18
ATOM     18  O   UNL     1      19.563  11.241  -2.525  1.00  0.00    -0.507 OA
ATOM     19  H   UNL     1      20.435  10.753  -2.422  1.00  0.00     0.293 HD
ENDBRANCH  10  18
BRANCH   8  20
ATOM     20  O   UNL     1      21.195  15.592  -3.609  1.00  0.00    -0.508 OA
ATOM     21  H   UNL     1      21.249  15.595  -4.618  1.00  0.00     0.293 HD
ENDBRANCH   8  20
TORSDOF 3
ENDMDL
MODEL 2
REMARK VINA RESULT:      -6.1      5.094      6.679
REMARK SMILES O=c1cc(-c2ccccc2)oc2cc(O)cc(O)c12
REMARK SMILES IDX 1 1 2 2 3 3 4 4 11 5 12 6 13 7 14 8 16 9 17 10 19 11 5 12
REMARK SMILES IDX 6 13 10 14 7 15 9 16 8 17 18 18 15 20
REMARK H PARENT 18 19 15 21
ROOT
ATOM      1  O   UNL     1      19.594   9.152   3.403  1.00  0.00    -0.289 OA
ATOM      2  C   UNL     1      18.685   9.131   2.536  1.00  0.00     0.197 A 
ATOM      3  C   UNL     1      17.569   8.286   2.632  1.00  0.00     0.100 A 
ATOM      4  C   UNL     1      16.586   8.280   1.672  1.00  0.00     0.138 A 
ATOM      5  O   UNL     1      16.745   9.102   0.662  1.00  0.00    -0.456 OA
ATOM      6  C   UNL     1      17.764   9.914   0.517  1.00  0.00     0.146 A 
ATOM      7  C   UNL     1      17.875  10.762  -0.578  1.00  0.00     0.094 A 
ATOM      8  C   UNL     1      18.928  11.625  -0.761  1.00  0.00     0.123 A 
ATOM      9  C   UNL     1      19.934  11.662   0.178  1.00  0.00     0.093 A 
ATOM     10  C   UNL     1      19.861  10.836   1.279  1.00  0.00     0.134 A 
ATOM     11  C   UNL     1      18.779   9.964   1.447  1.00  0.00     0.107 A 
ENDROOT
BRANCH   4  12
ATOM     12  C   UNL     1      15.417   7.402   1.763  1.00  0.00     0.017 A 
ATOM     13  C   UNL     1      14.366   7.430   0.884  1.00  0.00     0.012 A 
ATOM     14  C   UNL     1      15.348   6.479   2.791  1.00  0.00     0.012 A 
ATOM     15  C   UNL     1      13.271   6.571   1.011  1.00  0.00     0.001 A 
ATOM     16  C   UNL     1      14.275   5.614   2.944  1.00  0.00     0.001 A 
ATOM     17  C   UNL     1      13.220   5.657   2.042  1.00  0.00     0.000 A 
ENDBRANCH   4  12
BRANCH  10  18
ATOM     18  O   UNL     1      20.866  10.875   2.216  1.00  0.00    -0.507 OA
ATOM     19  H   UNL     1      21.100  11.736   2.676  1.00  0.00     0.293 HD
ENDBRANCH  10  18
BRANCH   8  20
ATOM     20  O   UNL     1      18.997  12.460  -1.879  1.00  0.00    -0.508 OA
ATOM     21  H   UNL     1      19.783  13.067  -2.064  1.00  0.00     0.293 HD
ENDBRANCH   8  20
TORSDOF 3
ENDMDL
MODEL 3
REMARK VINA RESULT:      -5.7      2.905      3.814
REMARK SMILES O=c1cc(-c2ccccc2)oc2cc(O)cc(O)c12
REMARK SMILES IDX 1 1 2 2 3 3 4 4 11 5 12 6 13 7 14 8 16 9 17 10 19 11 5 12
REMARK SMILES IDX 6 13 10 14 7 15 9 16 8 17 18 18 15 20
REMARK H PARENT 18 19 15 21
ROOT
ATOM      1  O   UNL     1      19.050  11.336  -1.984  1.00  0.00    -0.289 OA
ATOM      2  C   UNL     1      18.898  11.689  -0.787  1.00  0.00     0.197 A 
ATOM      3  C   UNL     1      17.914  12.607  -0.390  1.00  0.00     0.100 A 
ATOM      4  C   UNL     1      17.765  12.978   0.925  1.00  0.00     0.138 A 
ATOM      5  O   UNL     1      18.589  12.432   1.787  1.00  0.00    -0.456 OA
ATOM      6  C   UNL     1      19.526  11.570   1.478  1.00  0.00     0.146 A 
ATOM      7  C   UNL     1      20.369  11.027   2.440  1.00  0.00     0.094 A 
ATOM      8  C   UNL     1      21.360  10.121   2.151  1.00  0.00     0.123 A 
ATOM      9  C   UNL     1      21.543   9.723   0.845  1.00  0.00     0.093 A 
ATOM     10  C   UNL     1      20.728  10.239  -0.139  1.00  0.00     0.134 A 
ATOM     11  C   UNL     1      19.723  11.161   0.177  1.00  0.00     0.107 A 
ENDROOT
BRANCH   4  12
ATOM     12  C   UNL     1      16.741  13.936   1.349  1.00  0.00     0.017 A 
ATOM     13  C   UNL     1      16.818  14.684   2.494  1.00  0.00     0.012 A 
ATOM     14  C   UNL     1      15.618  14.113   0.561  1.00  0.00     0.012 A 
ATOM     15  C   UNL     1      15.816  15.587   2.858  1.00  0.00     0.001 A 
ATOM     16  C   UNL     1      14.607  15.001   0.896  1.00  0.00     0.001 A 
ATOM     17  C   UNL     1      14.704  15.751   2.060  1.00  0.00     0.000 A 
ENDBRANCH   4  12
BRANCH  10  18
ATOM     18  O   UNL     1      20.912   9.840  -1.441  1.00  0.00    -0.507 OA
ATOM     19  H   UNL     1      21.042  10.520  -2.168  1.00  0.00     0.293 HD
ENDBRANCH  10  18
BRANCH   8  20
ATOM     20  O   UNL     1      22.184   9.601   3.152  1.00  0.00    -0.508 OA
ATOM     21  H   UNL     1      22.337  10.067   4.034  1.00  0.00     0.293 HD
ENDBRANCH   8  20
TORSDOF 3
ENDMDL
MODEL 4
REMARK VINA RESULT:      -5.7      2.783      3.849
REMARK SMILES O=c1cc(-c2ccccc2)oc2cc(O)cc(O)c12
REMARK SMILES IDX 1 1 2 2 3 3 4 4 11 5 12 6 13 7 14 8 16 9 17 10 19 11 5 12
REMARK SMILES IDX 6 13 10 14 7 15 9 16 8 17 18 18 15 20
REMARK H PARENT 18 19 15 21
ROOT
ATOM      1  O   UNL     1      18.995  11.448  -2.154  1.00  0.00    -0.289 OA
ATOM      2  C   UNL     1      18.834  11.773  -0.951  1.00  0.00     0.197 A 
ATOM      3  C   UNL     1      17.836  12.669  -0.538  1.00  0.00     0.100 A 
ATOM      4  C   UNL     1      17.678  13.011   0.784  1.00  0.00     0.138 A 
ATOM      5  O   UNL     1      18.507  12.458   1.637  1.00  0.00    -0.456 OA
ATOM      6  C   UNL     1      19.457  11.616   1.313  1.00  0.00     0.146 A 
ATOM      7  C   UNL     1      20.303  11.064   2.267  1.00  0.00     0.094 A 
ATOM      8  C   UNL     1      21.308  10.178   1.962  1.00  0.00     0.123 A 
ATOM      9  C   UNL     1      21.500   9.810   0.650  1.00  0.00     0.093 A 
ATOM     10  C   UNL     1      20.682  10.335  -0.326  1.00  0.00     0.134 A 
ATOM     11  C   UNL     1      19.663  11.236   0.005  1.00  0.00     0.107 A 
ENDROOT
BRANCH   4  12
ATOM     12  C   UNL     1      16.639  13.946   1.225  1.00  0.00     0.017 A 
ATOM     13  C   UNL     1      15.512  14.236   0.502  1.00  0.00     0.012 A 
ATOM     14  C   UNL     1      16.784  14.586   2.443  1.00  0.00     0.012 A 
ATOM     15  C   UNL     1      14.548  15.135   0.964  1.00  0.00     0.001 A 
ATOM     16  C   UNL     1      15.845  15.483   2.927  1.00  0.00     0.001 A 
ATOM     17  C   UNL     1      14.708  15.764   2.180  1.00  0.00     0.000 A 
ENDBRANCH   4  12
BRANCH  10  18
ATOM     18  O   UNL     1      20.875   9.966  -1.636  1.00  0.00    -0.507 OA
ATOM     19  H   UNL     1      20.322   9.234  -2.045  1.00  0.00     0.293 HD
ENDBRANCH  10  18
BRANCH   8  20
ATOM     20  O   UNL     1      22.136   9.649   2.955  1.00  0.00    -0.508 OA
ATOM     21  H   UNL     1      23.123   9.852   3.013  1.00  0.00     0.293 HD
ENDBRANCH   8  20
TORSDOF 3
ENDMDL
MODEL 5
REMARK VINA RESULT:      -5.6      0.933      1.438
REMARK SMILES O=c1cc(-c2ccccc2)oc2cc(O)cc(O)c12
REMARK SMILES IDX 1 1 2 2 3 3 4 4 11 5 12 6 13 7 14 8 16 9 17 10 19 11 5 12
REMARK SMILES IDX 6 13 10 14 7 15 9 16 8 17 18 18 15 20
REMARK H PARENT 18 19 15 21
ROOT
ATOM      1  O   UNL     1      17.814  10.600  -0.030  1.00  0.00    -0.289 OA
ATOM      2  C   UNL     1      17.805  11.856  -0.058  1.00  0.00     0.197 A 
ATOM      3  C   UNL     1      16.793  12.618   0.543  1.00  0.00     0.100 A 
ATOM      4  C   UNL     1      16.803  13.991   0.501  1.00  0.00     0.138 A 
ATOM      5  O   UNL     1      17.807  14.552  -0.131  1.00  0.00    -0.456 OA
ATOM      6  C   UNL     1      18.781  13.896  -0.712  1.00  0.00     0.146 A 
ATOM      7  C   UNL     1      19.818  14.550  -1.366  1.00  0.00     0.094 A 
ATOM      8  C   UNL     1      20.854  13.893  -1.984  1.00  0.00     0.123 A 
ATOM      9  C   UNL     1      20.881  12.516  -1.964  1.00  0.00     0.093 A 
ATOM     10  C   UNL     1      19.871  11.830  -1.326  1.00  0.00     0.134 A 
ATOM     11  C   UNL     1      18.823  12.518  -0.701  1.00  0.00     0.107 A 
ENDROOT
BRANCH   4  12
ATOM     12  C   UNL     1      15.750  14.796   1.126  1.00  0.00     0.017 A 
ATOM     13  C   UNL     1      14.502  14.975   0.590  1.00  0.00     0.012 A 
ATOM     14  C   UNL     1      16.008  15.421   2.332  1.00  0.00     0.012 A 
ATOM     15  C   UNL     1      13.528  15.751   1.223  1.00  0.00     0.001 A 
ATOM     16  C   UNL     1      15.063  16.198   2.984  1.00  0.00     0.001 A 
ATOM     17  C   UNL     1      13.803  16.367   2.425  1.00  0.00     0.000 A 
ENDBRANCH   4  12
BRANCH  10  18
ATOM     18  O   UNL     1      19.899  10.456  -1.306  1.00  0.00    -0.507 OA
ATOM     19  H   UNL     1      20.745   9.962  -1.525  1.00  0.00     0.293 HD
ENDBRANCH  10  18
BRANCH   8  20
ATOM     20  O   UNL     1      21.875  14.593  -2.631  1.00  0.00    -0.508 OA
ATOM     21  H   UNL     1      21.858  15.594  -2.760  1.00  0.00     0.293 HD
ENDBRANCH   8  20
TORSDOF 3
ENDMDL
MODEL 6
REMARK VINA RESULT:      -5.6      0.575      1.131
REMARK SMILES O=c1cc(-c2ccccc2)oc2cc(O)cc(O)c12
REMARK SMILES IDX 1 1 2 2 3 3 4 4 11 5 12 6 13 7 14 8 16 9 17 10 19 11 5 12
REMARK SMILES IDX 6 13 10 14 7 15 9 16 8 17 18 18 15 20
REMARK H PARENT 18 19 15 21
ROOT
ATOM      1  O   UNL     1      17.536  11.484  -0.683  1.00  0.00    -0.289 OA
ATOM      2  C   UNL     1      17.575  12.738  -0.608  1.00  0.00     0.197 A 
ATOM      3  C   UNL     1      16.712  13.471   0.220  1.00  0.00     0.100 A 
ATOM      4  C   UNL     1      16.772  14.843   0.286  1.00  0.00     0.138 A 
ATOM      5  O   UNL     1      17.674  15.429  -0.463  1.00  0.00    -0.456 OA
ATOM      6  C   UNL     1      18.506  14.800  -1.255  1.00  0.00     0.146 A 
ATOM      7  C   UNL     1      19.442  15.480  -2.026  1.00  0.00     0.094 A 
ATOM      8  C   UNL     1      20.329  14.852  -2.866  1.00  0.00     0.123 A 
ATOM      9  C   UNL     1      20.302  13.479  -2.962  1.00  0.00     0.093 A 
ATOM     10  C   UNL     1      19.389  12.767  -2.214  1.00  0.00     0.134 A 
ATOM     11  C   UNL     1      18.494  13.426  -1.364  1.00  0.00     0.107 A 
ENDROOT
BRANCH   4  12
ATOM     12  C   UNL     1      15.875  15.617   1.148  1.00  0.00     0.017 A 
ATOM     13  C   UNL     1      14.911  16.472   0.681  1.00  0.00     0.012 A 
ATOM     14  C   UNL     1      15.989  15.493   2.522  1.00  0.00     0.012 A 
ATOM     15  C   UNL     1      14.078  17.190   1.542  1.00  0.00     0.001 A 
ATOM     16  C   UNL     1      15.177  16.193   3.401  1.00  0.00     0.001 A 
ATOM     17  C   UNL     1      14.206  17.055   2.908  1.00  0.00     0.000 A 
ENDBRANCH   4  12
BRANCH  10  18
ATOM     18  O   UNL     1      19.364  11.396  -2.311  1.00  0.00    -0.507 OA
ATOM     19  H   UNL     1      19.612  10.826  -1.522  1.00  0.00     0.293 HD
ENDBRANCH  10  18
BRANCH   8  20
ATOM     20  O   UNL     1      21.252  15.578  -3.622  1.00  0.00    -0.508 OA
ATOM     21  H   UNL     1      21.045  16.483  -4.021  1.00  0.00     0.293 HD
ENDBRANCH   8  20
TORSDOF 3
ENDMDL
MODEL 7
REMARK VINA RESULT:      -5.4      5.224      8.476
REMARK SMILES O=c1cc(-c2ccccc2)oc2cc(O)cc(O)c12
REMARK SMILES IDX 1 1 2 2 3 3 4 4 11 5 12 6 13 7 14 8 16 9 17 10 19 11 5 12
REMARK SMILES IDX 6 13 10 14 7 15 9 16 8 17 18 18 15 20
REMARK H PARENT 18 19 15 21
ROOT
ATOM      1  O   UNL     1      20.274  10.258   2.701  1.00  0.00    -0.289 OA
ATOM      2  C   UNL     1      20.902  10.199   1.614  1.00  0.00     0.197 A 
ATOM      3  C   UNL     1      22.096   9.478   1.470  1.00  0.00     0.100 A 
ATOM      4  C   UNL     1      22.766   9.427   0.270  1.00  0.00     0.138 A 
ATOM      5  O   UNL     1      22.233  10.087  -0.730  1.00  0.00    -0.456 OA
ATOM      6  C   UNL     1      21.121  10.778  -0.657  1.00  0.00     0.146 A 
ATOM      7  C   UNL     1      20.607  11.457  -1.755  1.00  0.00     0.094 A 
ATOM      8  C   UNL     1      19.445  12.189  -1.714  1.00  0.00     0.123 A 
ATOM      9  C   UNL     1      18.744  12.265  -0.532  1.00  0.00     0.093 A 
ATOM     10  C   UNL     1      19.221  11.606   0.580  1.00  0.00     0.134 A 
ATOM     11  C   UNL     1      20.407  10.865   0.518  1.00  0.00     0.107 A 
ENDROOT
BRANCH   4  12
ATOM     12  C   UNL     1      24.014   8.677   0.110  1.00  0.00     0.017 A 
ATOM     13  C   UNL     1      24.176   7.369   0.484  1.00  0.00     0.012 A 
ATOM     14  C   UNL     1      25.110   9.307  -0.452  1.00  0.00     0.012 A 
ATOM     15  C   UNL     1      25.386   6.693   0.311  1.00  0.00     0.001 A 
ATOM     16  C   UNL     1      26.324   8.663  -0.637  1.00  0.00     0.001 A 
ATOM     17  C   UNL     1      26.468   7.337  -0.251  1.00  0.00     0.000 A 
ENDBRANCH   4  12
BRANCH  10  18
ATOM     18  O   UNL     1      18.519  11.683   1.759  1.00  0.00    -0.507 OA
ATOM     19  H   UNL     1      18.192  10.849   2.213  1.00  0.00     0.293 HD
ENDBRANCH  10  18
BRANCH   8  20
ATOM     20  O   UNL     1      18.967  12.856  -2.844  1.00  0.00    -0.508 OA
ATOM     21  H   UNL     1      19.507  12.959  -3.691  1.00  0.00     0.293 HD
ENDBRANCH   8  20
TORSDOF 3
ENDMDL
MODEL 8
REMARK VINA RESULT:      -5.4      2.147      2.285
REMARK SMILES O=c1cc(-c2ccccc2)oc2cc(O)cc(O)c12
REMARK SMILES IDX 1 1 2 2 3 3 4 4 11 5 12 6 13 7 14 8 16 9 17 10 19 11 5 12
REMARK SMILES IDX 6 13 10 14 7 15 9 16 8 17 18 18 15 20
REMARK H PARENT 18 19 15 21
ROOT
ATOM      1  O   UNL     1      17.864   9.834   0.407  1.00  0.00    -0.289 OA
ATOM      2  C   UNL     1      18.074  11.071   0.485  1.00  0.00     0.197 A 
ATOM      3  C   UNL     1      17.088  11.979   0.897  1.00  0.00     0.100 A 
ATOM      4  C   UNL     1      17.340  13.328   0.975  1.00  0.00     0.138 A 
ATOM      5  O   UNL     1      18.547  13.721   0.643  1.00  0.00    -0.456 OA
ATOM      6  C   UNL     1      19.508  12.922   0.251  1.00  0.00     0.146 A 
ATOM      7  C   UNL     1      20.768  13.402  -0.087  1.00  0.00     0.094 A 
ATOM      8  C   UNL     1      21.797  12.592  -0.502  1.00  0.00     0.123 A 
ATOM      9  C   UNL     1      21.586  11.235  -0.593  1.00  0.00     0.093 A 
ATOM     10  C   UNL     1      20.351  10.720  -0.267  1.00  0.00     0.134 A 
ATOM     11  C   UNL     1      19.314  11.561   0.154  1.00  0.00     0.107 A 
ENDROOT
BRANCH   4  12
ATOM     12  C   UNL     1      16.317  14.285   1.405  1.00  0.00     0.017 A 
ATOM     13  C   UNL     1      16.406  15.045   2.542  1.00  0.00     0.012 A 
ATOM     14  C   UNL     1      15.182  14.450   0.630  1.00  0.00     0.012 A 
ATOM     15  C   UNL     1      15.405  15.945   2.912  1.00  0.00     0.001 A 
ATOM     16  C   UNL     1      14.172  15.336   0.971  1.00  0.00     0.001 A 
ATOM     17  C   UNL     1      14.281  16.097   2.128  1.00  0.00     0.000 A 
ENDBRANCH   4  12
BRANCH  10  18
ATOM     18  O   UNL     1      20.142   9.364  -0.359  1.00  0.00    -0.507 OA
ATOM     19  H   UNL     1      20.656   8.814  -1.024  1.00  0.00     0.293 HD
ENDBRANCH  10  18
BRANCH   8  20
ATOM     20  O   UNL     1      23.048  13.120  -0.832  1.00  0.00    -0.508 OA
ATOM     21  H   UNL     1      23.698  13.467  -0.141  1.00  0.00     0.293 HD
ENDBRANCH   8  20
TORSDOF 3
ENDMDL
MODEL 9
REMARK VINA RESULT:      -5.4      2.034      3.047
REMARK SMILES O=c1cc(-c2ccccc2)oc2cc(O)cc(O)c12
REMARK SMILES IDX 1 1 2 2 3 3 4 4 11 5 12 6 13 7 14 8 16 9 17 10 19 11 5 12
REMARK SMILES IDX 6 13 10 14 7 15 9 16 8 17 18 18 15 20
REMARK H PARENT 18 19 15 21
ROOT
ATOM      1  O   UNL     1      18.594  11.966   3.403  1.00  0.00    -0.289 OA
ATOM      2  C   UNL     1      18.003  12.508   2.436  1.00  0.00     0.197 A 
ATOM      3  C   UNL     1      16.977  13.449   2.610  1.00  0.00     0.100 A 
ATOM      4  C   UNL     1      16.344  14.030   1.537  1.00  0.00     0.138 A 
ATOM      5  O   UNL     1      16.747  13.659   0.345  1.00  0.00    -0.456 OA
ATOM      6  C   UNL     1      17.698  12.786   0.119  1.00  0.00     0.146 A 
ATOM      7  C   UNL     1      18.080  12.435  -1.170  1.00  0.00     0.094 A 
ATOM      8  C   UNL     1      19.073  11.526  -1.442  1.00  0.00     0.123 A 
ATOM      9  C   UNL     1      19.732  10.921  -0.396  1.00  0.00     0.093 A 
ATOM     10  C   UNL     1      19.383  11.242   0.898  1.00  0.00     0.134 A 
ATOM     11  C   UNL     1      18.368  12.172   1.154  1.00  0.00     0.107 A 
ENDROOT
BRANCH   4  12
ATOM     12  C   UNL     1      15.271  15.013   1.708  1.00  0.00     0.017 A 
ATOM     13  C   UNL     1      14.236  15.179   0.827  1.00  0.00     0.012 A 
ATOM     14  C   UNL     1      15.284  15.835   2.821  1.00  0.00     0.012 A 
ATOM     15  C   UNL     1      13.234  16.131   1.032  1.00  0.00     0.001 A 
ATOM     16  C   UNL     1      14.304  16.788   3.052  1.00  0.00     0.001 A 
ATOM     17  C   UNL     1      13.262  16.941   2.147  1.00  0.00     0.000 A 
ENDBRANCH   4  12
BRANCH  10  18
ATOM     18  O   UNL     1      20.042  10.638   1.942  1.00  0.00    -0.507 OA
ATOM     19  H   UNL     1      19.758  10.807   2.890  1.00  0.00     0.293 HD
ENDBRANCH  10  18
BRANCH   8  20
ATOM     20  O   UNL     1      19.422  11.203  -2.756  1.00  0.00    -0.508 OA
ATOM     21  H   UNL     1      20.339  10.867  -3.014  1.00  0.00     0.293 HD
ENDBRANCH   8  20
TORSDOF 3
ENDMDL
