MODEL 1
REMARK VINA RESULT:      -3.7      0.000      0.000
REMARK SMILES O=C1NCN(c2ccccc2)C12CC[NH+](CCCC(c1ccc(F)cc1)c1ccc(F)cc1)CC2
REMARK SMILES IDX 17 1 16 2 15 3 1 4 2 5 3 6 12 7 4 8 5 9 13 10 35 11 14 12
REMARK SMILES IDX 34 13 6 16 7 17 11 18 8 19 10 20 9 21 18 22 19 23 20 24
REMARK SMILES IDX 21 25 26 26 22 27 25 28 23 29 24 30 27 31 28 32 33 33 29 34
REMARK SMILES IDX 32 35 30 36 31 37
REMARK H PARENT 3 14 15 15
ROOT
ATOM      1  C   UNL     1      92.621 118.202 126.688  1.00  0.00     0.062 C 
ENDROOT
BRANCH   1   2
ATOM      2  C   UNL     1      92.746 117.300 127.880  1.00  0.00     0.262 C 
BRANCH   2   3
ATOM      3  N   UNL     1      91.810 117.711 128.921  1.00  0.00    -0.335 N 
ATOM      4  O   UNL     1      88.929 117.243 130.303  1.00  0.00    -0.272 OA
ATOM      5  C   UNL     1      89.085 118.334 130.889  1.00  0.00     0.247 C 
ATOM      6  N   UNL     1      88.149 118.901 131.772  1.00  0.00    -0.336 N 
ATOM      7  C   UNL     1      90.293 119.233 130.760  1.00  0.00     0.131 C 
ATOM      8  C   UNL     1      88.867 119.854 132.557  1.00  0.00     0.238 C 
ATOM      9  N   UNL     1      89.931 120.327 131.658  1.00  0.00    -0.339 N 
ATOM     10  C   UNL     1      90.408 119.688 129.319  1.00  0.00     0.100 C 
ATOM     11  C   UNL     1      91.484 118.458 131.199  1.00  0.00     0.100 C 
ATOM     12  C   UNL     1      90.737 118.532 128.402  1.00  0.00     0.265 C 
ATOM     13  C   UNL     1      92.446 118.306 130.067  1.00  0.00     0.265 C 
ATOM     14  H   UNL     1      87.124 118.652 131.822  1.00  0.00     0.165 HD
ATOM     15  H   UNL     1      91.378 116.816 129.240  1.00  0.00     0.348 HD
BRANCH   9  16
ATOM     16  C   UNL     1      90.423 121.654 131.740  1.00  0.00     0.039 A 
ATOM     17  C   UNL     1      89.694 122.645 132.355  1.00  0.00     0.026 A 
ATOM     18  C   UNL     1      91.645 121.954 131.221  1.00  0.00     0.026 A 
ATOM     19  C   UNL     1      90.179 123.952 132.459  1.00  0.00     0.002 A 
ATOM     20  C   UNL     1      92.137 123.227 131.312  1.00  0.00     0.002 A 
ATOM     21  C   UNL     1      91.420 124.222 131.923  1.00  0.00     0.000 A 
ENDBRANCH   9  16
ENDBRANCH   2   3
ENDBRANCH   1   2
BRANCH   1  22
ATOM     22  C   UNL     1      93.865 118.614 126.028  1.00  0.00     0.019 C 
BRANCH  22  23
ATOM     23  C   UNL     1      94.349 117.997 124.801  1.00  0.00     0.049 C 
BRANCH  23  24
ATOM     24  C   UNL     1      93.306 117.740 123.745  1.00  0.00    -0.040 A 
ATOM     25  C   UNL     1      93.533 118.295 122.505  1.00  0.00     0.007 A 
ATOM     26  C   UNL     1      92.169 117.017 123.990  1.00  0.00     0.007 A 
ATOM     27  C   UNL     1      92.618 118.127 121.497  1.00  0.00     0.039 A 
ATOM     28  C   UNL     1      91.259 116.851 122.982  1.00  0.00     0.039 A 
ATOM     29  C   UNL     1      91.467 117.404 121.712  1.00  0.00     0.123 A 
ATOM     30  F   UNL     1      90.568 117.245 120.708  1.00  0.00    -0.207 F 
ENDBRANCH  23  24
BRANCH  23  31
ATOM     31  C   UNL     1      95.598 118.428 124.194  1.00  0.00    -0.040 A 
ATOM     32  C   UNL     1      96.169 119.666 124.288  1.00  0.00     0.007 A 
ATOM     33  C   UNL     1      96.256 117.459 123.424  1.00  0.00     0.007 A 
ATOM     34  C   UNL     1      97.373 119.909 123.616  1.00  0.00     0.039 A 
ATOM     35  C   UNL     1      97.425 117.682 122.770  1.00  0.00     0.039 A 
ATOM     36  C   UNL     1      97.988 118.933 122.872  1.00  0.00     0.123 A 
ATOM     37  F   UNL     1      99.158 119.143 122.212  1.00  0.00    -0.207 F 
ENDBRANCH  23  31
ENDBRANCH  22  23
ENDBRANCH   1  22
TORSDOF 7
ENDMDL
MODEL 2
REMARK VINA RESULT:      -3.4      1.090      1.681
REMARK SMILES O=C1NCN(c2ccccc2)C12CC[NH+](CCCC(c1ccc(F)cc1)c1ccc(F)cc1)CC2
REMARK SMILES IDX 17 1 16 2 15 3 1 4 2 5 3 6 12 7 4 8 5 9 13 10 35 11 14 12
REMARK SMILES IDX 34 13 6 16 7 17 11 18 8 19 10 20 9 21 18 22 19 23 20 24
REMARK SMILES IDX 21 25 26 26 22 27 25 28 23 29 24 30 27 31 28 32 33 33 29 34
REMARK SMILES IDX 32 35 30 36 31 37
REMARK H PARENT 3 14 15 15
ROOT
ATOM      1  C   UNL     1      93.366 118.316 125.847  1.00  0.00     0.062 C 
ENDROOT
BRANCH   1   2
ATOM      2  C   UNL     1      92.262 117.358 126.186  1.00  0.00     0.262 C 
BRANCH   2   3
ATOM      3  N   UNL     1      91.682 117.697 127.480  1.00  0.00    -0.335 N 
ATOM      4  O   UNL     1      89.220 117.287 129.529  1.00  0.00    -0.272 OA
ATOM      5  C   UNL     1      89.650 118.269 130.169  1.00  0.00     0.247 C 
ATOM      6  N   UNL     1      89.047 118.785 131.330  1.00  0.00    -0.336 N 
ATOM      7  C   UNL     1      90.881 119.072 129.819  1.00  0.00     0.131 C 
ATOM      8  C   UNL     1      90.051 119.556 131.992  1.00  0.00     0.238 C 
ATOM      9  N   UNL     1      90.895 120.058 130.897  1.00  0.00    -0.339 N 
ATOM     10  C   UNL     1      90.673 119.711 128.460  1.00  0.00     0.100 C 
ATOM     11  C   UNL     1      92.044 118.146 129.829  1.00  0.00     0.100 C 
ATOM     12  C   UNL     1      90.616 118.671 127.366  1.00  0.00     0.265 C 
ATOM     13  C   UNL     1      92.658 118.072 128.469  1.00  0.00     0.265 C 
ATOM     14  H   UNL     1      88.048 118.619 131.628  1.00  0.00     0.165 HD
ATOM     15  H   UNL     1      91.244 116.807 127.802  1.00  0.00     0.348 HD
BRANCH   9  16
ATOM     16  C   UNL     1      91.544 121.315 130.989  1.00  0.00     0.039 A 
ATOM     17  C   UNL     1      92.809 121.499 130.482  1.00  0.00     0.026 A 
ATOM     18  C   UNL     1      90.902 122.366 131.569  1.00  0.00     0.026 A 
ATOM     19  C   UNL     1      93.451 122.739 130.549  1.00  0.00     0.002 A 
ATOM     20  C   UNL     1      91.513 123.587 131.645  1.00  0.00     0.002 A 
ATOM     21  C   UNL     1      92.773 123.782 131.143  1.00  0.00     0.000 A 
ENDBRANCH   9  16
ENDBRANCH   2   3
ENDBRANCH   1   2
BRANCH   1  22
ATOM     22  C   UNL     1      94.618 117.741 125.341  1.00  0.00     0.019 C 
BRANCH  22  23
ATOM     23  C   UNL     1      94.905 117.602 123.920  1.00  0.00     0.049 C 
BRANCH  23  24
ATOM     24  C   UNL     1      93.704 117.452 123.024  1.00  0.00    -0.040 A 
ATOM     25  C   UNL     1      93.038 118.609 122.685  1.00  0.00     0.007 A 
ATOM     26  C   UNL     1      93.262 116.234 122.578  1.00  0.00     0.007 A 
ATOM     27  C   UNL     1      91.920 118.553 121.892  1.00  0.00     0.039 A 
ATOM     28  C   UNL     1      92.147 116.184 121.787  1.00  0.00     0.039 A 
ATOM     29  C   UNL     1      91.453 117.345 121.427  1.00  0.00     0.123 A 
ATOM     30  F   UNL     1      90.345 117.303 120.644  1.00  0.00    -0.207 F 
ENDBRANCH  23  24
BRANCH  23  31
ATOM     31  C   UNL     1      95.921 118.422 123.282  1.00  0.00    -0.040 A 
ATOM     32  C   UNL     1      96.422 118.270 122.020  1.00  0.00     0.007 A 
ATOM     33  C   UNL     1      96.436 119.461 124.070  1.00  0.00     0.007 A 
ATOM     34  C   UNL     1      97.419 119.148 121.576  1.00  0.00     0.039 A 
ATOM     35  C   UNL     1      97.400 120.319 123.651  1.00  0.00     0.039 A 
ATOM     36  C   UNL     1      97.897 120.153 122.379  1.00  0.00     0.123 A 
ATOM     37  F   UNL     1      98.862 121.020 121.971  1.00  0.00    -0.207 F 
ENDBRANCH  23  31
ENDBRANCH  22  23
ENDBRANCH   1  22
TORSDOF 7
ENDMDL
MODEL 3
REMARK VINA RESULT:      -3.3      0.358      1.177
REMARK SMILES O=C1NCN(c2ccccc2)C12CC[NH+](CCCC(c1ccc(F)cc1)c1ccc(F)cc1)CC2
REMARK SMILES IDX 17 1 16 2 15 3 1 4 2 5 3 6 12 7 4 8 5 9 13 10 35 11 14 12
REMARK SMILES IDX 34 13 6 16 7 17 11 18 8 19 10 20 9 21 18 22 19 23 20 24
REMARK SMILES IDX 21 25 26 26 22 27 25 28 23 29 24 30 27 31 28 32 33 33 29 34
REMARK SMILES IDX 32 35 30 36 31 37
REMARK H PARENT 3 14 15 15
ROOT
ATOM      1  C   UNL     1      92.859 118.291 126.491  1.00  0.00     0.062 C 
ENDROOT
BRANCH   1   2
ATOM      2  C   UNL     1      92.907 117.318 127.632  1.00  0.00     0.262 C 
BRANCH   2   3
ATOM      3  N   UNL     1      91.929 117.687 128.649  1.00  0.00    -0.335 N 
ATOM      4  O   UNL     1      88.980 117.191 129.869  1.00  0.00    -0.272 OA
ATOM      5  C   UNL     1      89.123 118.247 130.520  1.00  0.00     0.247 C 
ATOM      6  N   UNL     1      88.154 118.781 131.388  1.00  0.00    -0.336 N 
ATOM      7  C   UNL     1      90.348 119.133 130.496  1.00  0.00     0.131 C 
ATOM      8  C   UNL     1      88.847 119.680 132.256  1.00  0.00     0.238 C 
ATOM      9  N   UNL     1      89.958 120.183 131.433  1.00  0.00    -0.339 N 
ATOM     10  C   UNL     1      90.536 119.661 129.088  1.00  0.00     0.100 C 
ATOM     11  C   UNL     1      91.506 118.317 130.946  1.00  0.00     0.100 C 
ATOM     12  C   UNL     1      90.892 118.552 128.126  1.00  0.00     0.265 C 
ATOM     13  C   UNL     1      92.519 118.210 129.853  1.00  0.00     0.265 C 
ATOM     14  H   UNL     1      87.125 118.546 131.378  1.00  0.00     0.165 HD
ATOM     15  H   UNL     1      91.470 116.783 128.899  1.00  0.00     0.348 HD
BRANCH   9  16
ATOM     16  C   UNL     1      90.463 121.496 131.609  1.00  0.00     0.039 A 
ATOM     17  C   UNL     1      89.721 122.464 132.244  1.00  0.00     0.026 A 
ATOM     18  C   UNL     1      91.712 121.804 131.162  1.00  0.00     0.026 A 
ATOM     19  C   UNL     1      90.217 123.756 132.441  1.00  0.00     0.002 A 
ATOM     20  C   UNL     1      92.216 123.062 131.344  1.00  0.00     0.002 A 
ATOM     21  C   UNL     1      91.485 124.035 131.976  1.00  0.00     0.000 A 
ENDBRANCH   9  16
ENDBRANCH   2   3
ENDBRANCH   1   2
BRANCH   1  22
ATOM     22  C   UNL     1      94.131 118.614 125.834  1.00  0.00     0.019 C 
BRANCH  22  23
ATOM     23  C   UNL     1      94.584 117.947 124.621  1.00  0.00     0.049 C 
BRANCH  23  24
ATOM     24  C   UNL     1      93.523 117.694 123.582  1.00  0.00    -0.040 A 
ATOM     25  C   UNL     1      92.312 117.226 124.038  1.00  0.00     0.007 A 
ATOM     26  C   UNL     1      93.740 117.888 122.244  1.00  0.00     0.007 A 
ATOM     27  C   UNL     1      91.302 116.948 123.152  1.00  0.00     0.039 A 
ATOM     28  C   UNL     1      92.730 117.611 121.363  1.00  0.00     0.039 A 
ATOM     29  C   UNL     1      91.488 117.134 121.801  1.00  0.00     0.123 A 
ATOM     30  F   UNL     1      90.483 116.855 120.934  1.00  0.00    -0.207 F 
ENDBRANCH  23  24
BRANCH  23  31
ATOM     31  C   UNL     1      95.840 118.320 123.992  1.00  0.00    -0.040 A 
ATOM     32  C   UNL     1      96.701 117.490 123.330  1.00  0.00     0.007 A 
ATOM     33  C   UNL     1      96.189 119.672 124.104  1.00  0.00     0.007 A 
ATOM     34  C   UNL     1      97.883 118.024 122.800  1.00  0.00     0.039 A 
ATOM     35  C   UNL     1      97.331 120.201 123.594  1.00  0.00     0.039 A 
ATOM     36  C   UNL     1      98.189 119.355 122.932  1.00  0.00     0.123 A 
ATOM     37  F   UNL     1      99.329 119.899 122.426  1.00  0.00    -0.207 F 
ENDBRANCH  23  31
ENDBRANCH  22  23
ENDBRANCH   1  22
TORSDOF 7
ENDMDL
MODEL 4
REMARK VINA RESULT:      -3.3      1.123      1.597
REMARK SMILES O=C1NCN(c2ccccc2)C12CC[NH+](CCCC(c1ccc(F)cc1)c1ccc(F)cc1)CC2
REMARK SMILES IDX 17 1 16 2 15 3 1 4 2 5 3 6 12 7 4 8 5 9 13 10 35 11 14 12
REMARK SMILES IDX 34 13 6 16 7 17 11 18 8 19 10 20 9 21 18 22 19 23 20 24
REMARK SMILES IDX 21 25 26 26 22 27 25 28 23 29 24 30 27 31 28 32 33 33 29 34
REMARK SMILES IDX 32 35 30 36 31 37
REMARK H PARENT 3 14 15 15
ROOT
ATOM      1  C   UNL     1      93.628 118.337 125.883  1.00  0.00     0.062 C 
ENDROOT
BRANCH   1   2
ATOM      2  C   UNL     1      92.310 117.624 125.959  1.00  0.00     0.262 C 
BRANCH   2   3
ATOM      3  N   UNL     1      91.711 117.814 127.275  1.00  0.00    -0.335 N 
ATOM      4  O   UNL     1      89.286 117.070 129.274  1.00  0.00    -0.272 OA
ATOM      5  C   UNL     1      89.651 118.021 129.996  1.00  0.00     0.247 C 
ATOM      6  N   UNL     1      89.016 118.397 131.193  1.00  0.00    -0.336 N 
ATOM      7  C   UNL     1      90.825 118.932 129.718  1.00  0.00     0.131 C 
ATOM      8  C   UNL     1      89.968 119.175 131.922  1.00  0.00     0.238 C 
ATOM      9  N   UNL     1      90.774 119.822 130.875  1.00  0.00    -0.339 N 
ATOM     10  C   UNL     1      90.572 119.667 128.417  1.00  0.00     0.100 C 
ATOM     11  C   UNL     1      92.047 118.088 129.655  1.00  0.00     0.100 C 
ATOM     12  C   UNL     1      90.581 118.720 127.240  1.00  0.00     0.265 C 
ATOM     13  C   UNL     1      92.661 118.169 128.296  1.00  0.00     0.265 C 
ATOM     14  H   UNL     1      88.031 118.140 131.473  1.00  0.00     0.165 HD
ATOM     15  H   UNL     1      91.334 116.873 127.520  1.00  0.00     0.348 HD
BRANCH   9  16
ATOM     16  C   UNL     1      91.339 121.108 131.075  1.00  0.00     0.039 A 
ATOM     17  C   UNL     1      90.600 122.130 131.621  1.00  0.00     0.026 A 
ATOM     18  C   UNL     1      92.639 121.333 130.742  1.00  0.00     0.026 A 
ATOM     19  C   UNL     1      91.152 123.396 131.841  1.00  0.00     0.002 A 
ATOM     20  C   UNL     1      93.199 122.563 130.949  1.00  0.00     0.002 A 
ATOM     21  C   UNL     1      92.472 123.590 131.493  1.00  0.00     0.000 A 
ENDBRANCH   9  16
ENDBRANCH   2   3
ENDBRANCH   1   2
BRANCH   1  22
ATOM     22  C   UNL     1      94.741 117.618 125.253  1.00  0.00     0.019 C 
BRANCH  22  23
ATOM     23  C   UNL     1      94.944 117.584 123.811  1.00  0.00     0.049 C 
BRANCH  23  24
ATOM     24  C   UNL     1      93.690 117.537 122.978  1.00  0.00    -0.040 A 
ATOM     25  C   UNL     1      93.280 116.294 122.550  1.00  0.00     0.007 A 
ATOM     26  C   UNL     1      92.992 118.662 122.630  1.00  0.00     0.007 A 
ATOM     27  C   UNL     1      92.160 116.169 121.766  1.00  0.00     0.039 A 
ATOM     28  C   UNL     1      91.875 118.534 121.848  1.00  0.00     0.039 A 
ATOM     29  C   UNL     1      91.437 117.282 121.401  1.00  0.00     0.123 A 
ATOM     30  F   UNL     1      90.332 117.146 120.625  1.00  0.00    -0.207 F 
ENDBRANCH  23  24
BRANCH  23  31
ATOM     31  C   UNL     1      95.947 118.427 123.181  1.00  0.00    -0.040 A 
ATOM     32  C   UNL     1      96.388 118.347 121.890  1.00  0.00     0.007 A 
ATOM     33  C   UNL     1      96.517 119.402 124.009  1.00  0.00     0.007 A 
ATOM     34  C   UNL     1      97.381 119.234 121.458  1.00  0.00     0.039 A 
ATOM     35  C   UNL     1      97.480 120.269 123.602  1.00  0.00     0.039 A 
ATOM     36  C   UNL     1      97.915 120.177 122.300  1.00  0.00     0.123 A 
ATOM     37  F   UNL     1      98.880 121.051 121.905  1.00  0.00    -0.207 F 
ENDBRANCH  23  31
ENDBRANCH  22  23
ENDBRANCH   1  22
TORSDOF 7
ENDMDL
MODEL 5
REMARK VINA RESULT:      -3.1      3.734      8.753
REMARK SMILES O=C1NCN(c2ccccc2)C12CC[NH+](CCCC(c1ccc(F)cc1)c1ccc(F)cc1)CC2
REMARK SMILES IDX 17 1 16 2 15 3 1 4 2 5 3 6 12 7 4 8 5 9 13 10 35 11 14 12
REMARK SMILES IDX 34 13 6 16 7 17 11 18 8 19 10 20 9 21 18 22 19 23 20 24
REMARK SMILES IDX 21 25 26 26 22 27 25 28 23 29 24 30 27 31 28 32 33 33 29 34
REMARK SMILES IDX 32 35 30 36 31 37
REMARK H PARENT 3 14 15 15
ROOT
ATOM      1  C   UNL     1      92.983 121.270 130.815  1.00  0.00     0.062 C 
ENDROOT
BRANCH   1   2
ATOM      2  C   UNL     1      93.709 120.042 130.349  1.00  0.00     0.262 C 
BRANCH   2   3
ATOM      3  N   UNL     1      92.973 119.406 129.262  1.00  0.00    -0.335 N 
ATOM      4  O   UNL     1      90.589 117.395 128.425  1.00  0.00    -0.272 OA
ATOM      5  C   UNL     1      91.062 117.390 127.269  1.00  0.00     0.247 C 
ATOM      6  N   UNL     1      90.526 116.656 126.197  1.00  0.00    -0.336 N 
ATOM      7  C   UNL     1      92.279 118.163 126.817  1.00  0.00     0.131 C 
ATOM      8  C   UNL     1      91.033 117.262 125.006  1.00  0.00     0.238 C 
ATOM      9  N   UNL     1      92.346 117.790 125.406  1.00  0.00    -0.339 N 
ATOM     10  C   UNL     1      93.482 117.673 127.598  1.00  0.00     0.100 C 
ATOM     11  C   UNL     1      92.012 119.607 127.051  1.00  0.00     0.100 C 
ATOM     12  C   UNL     1      93.371 118.028 129.062  1.00  0.00     0.265 C 
ATOM     13  C   UNL     1      92.989 120.160 128.036  1.00  0.00     0.265 C 
ATOM     14  H   UNL     1      89.879 115.826 126.283  1.00  0.00     0.165 HD
ATOM     15  H   UNL     1      91.986 119.389 129.600  1.00  0.00     0.348 HD
BRANCH   9  16
ATOM     16  C   UNL     1      93.421 117.857 124.485  1.00  0.00     0.039 A 
ATOM     17  C   UNL     1      94.726 117.872 124.917  1.00  0.00     0.026 A 
ATOM     18  C   UNL     1      93.164 117.884 123.148  1.00  0.00     0.026 A 
ATOM     19  C   UNL     1      95.795 117.917 124.017  1.00  0.00     0.002 A 
ATOM     20  C   UNL     1      94.195 117.928 122.251  1.00  0.00     0.002 A 
ATOM     21  C   UNL     1      95.500 117.944 122.670  1.00  0.00     0.000 A 
ENDBRANCH   9  16
ENDBRANCH   2   3
ENDBRANCH   1   2
BRANCH   1  22
ATOM     22  C   UNL     1      93.631 122.563 130.566  1.00  0.00     0.019 C 
BRANCH  22  23
ATOM     23  C   UNL     1      92.891 123.751 130.163  1.00  0.00     0.049 C 
BRANCH  23  24
ATOM     24  C   UNL     1      92.761 123.964 128.678  1.00  0.00    -0.040 A 
ATOM     25  C   UNL     1      92.173 125.142 128.273  1.00  0.00     0.007 A 
ATOM     26  C   UNL     1      93.176 123.037 127.759  1.00  0.00     0.007 A 
ATOM     27  C   UNL     1      91.996 125.400 126.937  1.00  0.00     0.039 A 
ATOM     28  C   UNL     1      92.998 123.299 126.428  1.00  0.00     0.039 A 
ATOM     29  C   UNL     1      92.404 124.488 125.990  1.00  0.00     0.123 A 
ATOM     30  F   UNL     1      92.223 124.754 124.671  1.00  0.00    -0.207 F 
ENDBRANCH  23  24
BRANCH  23  31
ATOM     31  C   UNL     1      91.666 124.133 130.846  1.00  0.00    -0.040 A 
ATOM     32  C   UNL     1      90.465 124.432 130.265  1.00  0.00     0.007 A 
ATOM     33  C   UNL     1      91.756 124.210 132.241  1.00  0.00     0.007 A 
ATOM     34  C   UNL     1      89.391 124.801 131.083  1.00  0.00     0.039 A 
ATOM     35  C   UNL     1      90.721 124.565 133.045  1.00  0.00     0.039 A 
ATOM     36  C   UNL     1      89.519 124.865 132.448  1.00  0.00     0.123 A 
ATOM     37  F   UNL     1      88.491 125.219 133.265  1.00  0.00    -0.207 F 
ENDBRANCH  23  31
ENDBRANCH  22  23
ENDBRANCH   1  22
TORSDOF 7
ENDMDL
MODEL 6
REMARK VINA RESULT:      -3.1      0.847      1.474
REMARK SMILES O=C1NCN(c2ccccc2)C12CC[NH+](CCCC(c1ccc(F)cc1)c1ccc(F)cc1)CC2
REMARK SMILES IDX 17 1 16 2 15 3 1 4 2 5 3 6 12 7 4 8 5 9 13 10 35 11 14 12
REMARK SMILES IDX 34 13 6 16 7 17 11 18 8 19 10 20 9 21 18 22 19 23 20 24
REMARK SMILES IDX 21 25 26 26 22 27 25 28 23 29 24 30 27 31 28 32 33 33 29 34
REMARK SMILES IDX 32 35 30 36 31 37
REMARK H PARENT 3 14 15 15
ROOT
ATOM      1  C   UNL     1      93.060 117.984 126.195  1.00  0.00     0.062 C 
ENDROOT
BRANCH   1   2
ATOM      2  C   UNL     1      93.211 117.212 127.472  1.00  0.00     0.262 C 
BRANCH   2   3
ATOM      3  N   UNL     1      92.176 117.604 128.422  1.00  0.00    -0.335 N 
ATOM      4  O   UNL     1      89.116 117.242 129.389  1.00  0.00    -0.272 OA
ATOM      5  C   UNL     1      89.265 118.266 130.087  1.00  0.00     0.247 C 
ATOM      6  N   UNL     1      88.260 118.828 130.894  1.00  0.00    -0.336 N 
ATOM      7  C   UNL     1      90.534 119.080 130.191  1.00  0.00     0.131 C 
ATOM      8  C   UNL     1      88.929 119.657 131.846  1.00  0.00     0.238 C 
ATOM      9  N   UNL     1      90.129 120.121 131.132  1.00  0.00    -0.339 N 
ATOM     10  C   UNL     1      90.864 119.641 128.822  1.00  0.00     0.100 C 
ATOM     11  C   UNL     1      91.605 118.184 130.701  1.00  0.00     0.100 C 
ATOM     12  C   UNL     1      91.234 118.544 127.852  1.00  0.00     0.265 C 
ATOM     13  C   UNL     1      92.695 118.054 129.687  1.00  0.00     0.265 C 
ATOM     14  H   UNL     1      87.223 118.653 130.795  1.00  0.00     0.165 HD
ATOM     15  H   UNL     1      91.650 116.722 128.602  1.00  0.00     0.348 HD
BRANCH   9  16
ATOM     16  C   UNL     1      90.690 121.396 131.394  1.00  0.00     0.039 A 
ATOM     17  C   UNL     1      91.990 121.684 131.052  1.00  0.00     0.026 A 
ATOM     18  C   UNL     1      89.927 122.363 131.975  1.00  0.00     0.026 A 
ATOM     19  C   UNL     1      92.547 122.944 131.287  1.00  0.00     0.002 A 
ATOM     20  C   UNL     1      90.453 123.603 132.214  1.00  0.00     0.002 A 
ATOM     21  C   UNL     1      91.748 123.900 131.876  1.00  0.00     0.000 A 
ENDBRANCH   9  16
ENDBRANCH   2   3
ENDBRANCH   1   2
BRANCH   1  22
ATOM     22  C   UNL     1      94.293 118.403 125.518  1.00  0.00     0.019 C 
BRANCH  22  23
ATOM     23  C   UNL     1      94.648 117.958 124.178  1.00  0.00     0.049 C 
BRANCH  23  24
ATOM     24  C   UNL     1      93.490 117.698 123.250  1.00  0.00    -0.040 A 
ATOM     25  C   UNL     1      93.318 116.398 122.828  1.00  0.00     0.007 A 
ATOM     26  C   UNL     1      92.655 118.692 122.814  1.00  0.00     0.007 A 
ATOM     27  C   UNL     1      92.300 116.084 121.962  1.00  0.00     0.039 A 
ATOM     28  C   UNL     1      91.641 118.374 121.951  1.00  0.00     0.039 A 
ATOM     29  C   UNL     1      91.444 117.061 121.508  1.00  0.00     0.123 A 
ATOM     30  F   UNL     1      90.441 116.738 120.652  1.00  0.00    -0.207 F 
ENDBRANCH  23  24
BRANCH  23  31
ATOM     31  C   UNL     1      95.754 118.569 123.459  1.00  0.00    -0.040 A 
ATOM     32  C   UNL     1      96.208 118.230 122.215  1.00  0.00     0.007 A 
ATOM     33  C   UNL     1      96.416 119.599 124.140  1.00  0.00     0.007 A 
ATOM     34  C   UNL     1      97.306 118.919 121.685  1.00  0.00     0.039 A 
ATOM     35  C   UNL     1      97.480 120.275 123.636  1.00  0.00     0.039 A 
ATOM     36  C   UNL     1      97.928 119.922 122.384  1.00  0.00     0.123 A 
ATOM     37  F   UNL     1      98.994 120.608 121.891  1.00  0.00    -0.207 F 
ENDBRANCH  23  31
ENDBRANCH  22  23
ENDBRANCH   1  22
TORSDOF 7
ENDMDL
MODEL 7
REMARK VINA RESULT:      -3.0      0.370      3.750
REMARK SMILES O=C1NCN(c2ccccc2)C12CC[NH+](CCCC(c1ccc(F)cc1)c1ccc(F)cc1)CC2
REMARK SMILES IDX 17 1 16 2 15 3 1 4 2 5 3 6 12 7 4 8 5 9 13 10 35 11 14 12
REMARK SMILES IDX 34 13 6 16 7 17 11 18 8 19 10 20 9 21 18 22 19 23 20 24
REMARK SMILES IDX 21 25 26 26 22 27 25 28 23 29 24 30 27 31 28 32 33 33 29 34
REMARK SMILES IDX 32 35 30 36 31 37
REMARK H PARENT 3 14 15 15
ROOT
ATOM      1  C   UNL     1      92.928 118.297 127.130  1.00  0.00     0.062 C 
ENDROOT
BRANCH   1   2
ATOM      2  C   UNL     1      92.137 117.172 127.729  1.00  0.00     0.262 C 
BRANCH   2   3
ATOM      3  N   UNL     1      91.413 117.638 128.907  1.00  0.00    -0.335 N 
ATOM      4  O   UNL     1      88.850 117.251 130.832  1.00  0.00    -0.272 OA
ATOM      5  C   UNL     1      89.108 118.370 131.322  1.00  0.00     0.247 C 
ATOM      6  N   UNL     1      88.352 118.984 132.336  1.00  0.00    -0.336 N 
ATOM      7  C   UNL     1      90.264 119.257 130.921  1.00  0.00     0.131 C 
ATOM      8  C   UNL     1      89.200 119.973 132.922  1.00  0.00     0.238 C 
ATOM      9  N   UNL     1      90.071 120.396 131.815  1.00  0.00    -0.339 N 
ATOM     10  C   UNL     1      90.100 119.637 129.463  1.00  0.00     0.100 C 
ATOM     11  C   UNL     1      91.520 118.500 131.164  1.00  0.00     0.100 C 
ATOM     12  C   UNL     1      90.256 118.436 128.560  1.00  0.00     0.265 C 
ATOM     13  C   UNL     1      92.252 118.288 129.879  1.00  0.00     0.265 C 
ATOM     14  H   UNL     1      87.357 118.742 132.593  1.00  0.00     0.165 HD
ATOM     15  H   UNL     1      91.055 116.762 129.346  1.00  0.00     0.348 HD
BRANCH   9  16
ATOM     16  C   UNL     1      90.562 121.724 131.734  1.00  0.00     0.039 A 
ATOM     17  C   UNL     1      91.793 121.994 131.185  1.00  0.00     0.026 A 
ATOM     18  C   UNL     1      89.797 122.755 132.187  1.00  0.00     0.026 A 
ATOM     19  C   UNL     1      92.278 123.301 131.082  1.00  0.00     0.002 A 
ATOM     20  C   UNL     1      90.252 124.041 132.096  1.00  0.00     0.002 A 
ATOM     21  C   UNL     1      91.478 124.322 131.550  1.00  0.00     0.000 A 
ENDBRANCH   9  16
ENDBRANCH   2   3
ENDBRANCH   1   2
BRANCH   1  22
ATOM     22  C   UNL     1      94.014 117.935 126.211  1.00  0.00     0.019 C 
BRANCH  22  23
ATOM     23  C   UNL     1      94.058 118.383 124.826  1.00  0.00     0.049 C 
BRANCH  23  24
ATOM     24  C   UNL     1      95.430 118.454 124.208  1.00  0.00    -0.040 A 
ATOM     25  C   UNL     1      96.067 119.674 124.258  1.00  0.00     0.007 A 
ATOM     26  C   UNL     1      96.022 117.380 123.599  1.00  0.00     0.007 A 
ATOM     27  C   UNL     1      97.310 119.826 123.696  1.00  0.00     0.039 A 
ATOM     28  C   UNL     1      97.262 117.536 123.040  1.00  0.00     0.039 A 
ATOM     29  C   UNL     1      97.931 118.765 123.079  1.00  0.00     0.123 A 
ATOM     30  F   UNL     1      99.160 118.928 122.526  1.00  0.00    -0.207 F 
ENDBRANCH  23  24
BRANCH  23  31
ATOM     31  C   UNL     1      93.084 117.908 123.858  1.00  0.00    -0.040 A 
ATOM     32  C   UNL     1      91.980 117.144 124.116  1.00  0.00     0.007 A 
ATOM     33  C   UNL     1      93.333 118.270 122.528  1.00  0.00     0.007 A 
ATOM     34  C   UNL     1      91.158 116.760 123.050  1.00  0.00     0.039 A 
ATOM     35  C   UNL     1      92.543 117.905 121.486  1.00  0.00     0.039 A 
ATOM     36  C   UNL     1      91.437 117.135 121.760  1.00  0.00     0.123 A 
ATOM     37  F   UNL     1      90.654 116.777 120.706  1.00  0.00    -0.207 F 
ENDBRANCH  23  31
ENDBRANCH  22  23
ENDBRANCH   1  22
TORSDOF 7
ENDMDL
MODEL 8
REMARK VINA RESULT:      -3.0      0.682      1.071
REMARK SMILES O=C1NCN(c2ccccc2)C12CC[NH+](CCCC(c1ccc(F)cc1)c1ccc(F)cc1)CC2
REMARK SMILES IDX 17 1 16 2 15 3 1 4 2 5 3 6 12 7 4 8 5 9 13 10 35 11 14 12
REMARK SMILES IDX 34 13 6 16 7 17 11 18 8 19 10 20 9 21 18 22 19 23 20 24
REMARK SMILES IDX 21 25 26 26 22 27 25 28 23 29 24 30 27 31 28 32 33 33 29 34
REMARK SMILES IDX 32 35 30 36 31 37
REMARK H PARENT 3 14 15 15
ROOT
ATOM      1  C   UNL     1      93.047 117.647 126.857  1.00  0.00     0.062 C 
ENDROOT
BRANCH   1   2
ATOM      2  C   UNL     1      91.548 117.579 126.855  1.00  0.00     0.262 C 
BRANCH   2   3
ATOM      3  N   UNL     1      91.032 117.825 128.196  1.00  0.00    -0.335 N 
ATOM      4  O   UNL     1      88.881 116.996 130.458  1.00  0.00    -0.272 OA
ATOM      5  C   UNL     1      89.174 118.052 131.057  1.00  0.00     0.247 C 
ATOM      6  N   UNL     1      88.590 118.465 132.267  1.00  0.00    -0.336 N 
ATOM      7  C   UNL     1      90.198 119.065 130.598  1.00  0.00     0.131 C 
ATOM      8  C   UNL     1      89.486 119.421 132.838  1.00  0.00     0.238 C 
ATOM      9  N   UNL     1      90.122 120.053 131.671  1.00  0.00    -0.339 N 
ATOM     10  C   UNL     1      89.755 119.631 129.264  1.00  0.00     0.100 C 
ATOM     11  C   UNL     1      91.510 118.372 130.504  1.00  0.00     0.100 C 
ATOM     12  C   UNL     1      89.796 118.581 128.179  1.00  0.00     0.265 C 
ATOM     13  C   UNL     1      92.004 118.391 129.094  1.00  0.00     0.265 C 
ATOM     14  H   UNL     1      87.670 118.121 132.654  1.00  0.00     0.165 HD
ATOM     15  H   UNL     1      90.798 116.874 128.556  1.00  0.00     0.348 HD
BRANCH   9  16
ATOM     16  C   UNL     1      90.531 121.410 131.706  1.00  0.00     0.039 A 
ATOM     17  C   UNL     1      91.749 121.798 131.200  1.00  0.00     0.026 A 
ATOM     18  C   UNL     1      89.699 122.353 132.228  1.00  0.00     0.026 A 
ATOM     19  C   UNL     1      92.153 123.136 131.210  1.00  0.00     0.002 A 
ATOM     20  C   UNL     1      90.075 123.667 132.247  1.00  0.00     0.002 A 
ATOM     21  C   UNL     1      91.287 124.065 131.746  1.00  0.00     0.000 A 
ENDBRANCH   9  16
ENDBRANCH   2   3
ENDBRANCH   1   2
BRANCH   1  22
ATOM     22  C   UNL     1      93.681 118.463 125.815  1.00  0.00     0.019 C 
BRANCH  22  23
ATOM     23  C   UNL     1      94.270 117.890 124.613  1.00  0.00     0.049 C 
BRANCH  23  24
ATOM     24  C   UNL     1      93.309 117.607 123.488  1.00  0.00    -0.040 A 
ATOM     25  C   UNL     1      92.547 118.666 123.046  1.00  0.00     0.007 A 
ATOM     26  C   UNL     1      93.165 116.363 122.936  1.00  0.00     0.007 A 
ATOM     27  C   UNL     1      91.631 118.484 122.041  1.00  0.00     0.039 A 
ATOM     28  C   UNL     1      92.250 116.185 121.933  1.00  0.00     0.039 A 
ATOM     29  C   UNL     1      91.464 117.245 121.465  1.00  0.00     0.123 A 
ATOM     30  F   UNL     1      90.555 117.077 120.472  1.00  0.00    -0.207 F 
ENDBRANCH  23  24
BRANCH  23  31
ATOM     31  C   UNL     1      95.535 118.385 124.095  1.00  0.00    -0.040 A 
ATOM     32  C   UNL     1      96.093 119.610 124.333  1.00  0.00     0.007 A 
ATOM     33  C   UNL     1      96.225 117.503 123.254  1.00  0.00     0.007 A 
ATOM     34  C   UNL     1      97.317 119.925 123.730  1.00  0.00     0.039 A 
ATOM     35  C   UNL     1      97.413 117.796 122.665  1.00  0.00     0.039 A 
ATOM     36  C   UNL     1      97.963 119.032 122.912  1.00  0.00     0.123 A 
ATOM     37  F   UNL     1      99.153 119.312 122.316  1.00  0.00    -0.207 F 
ENDBRANCH  23  31
ENDBRANCH  22  23
ENDBRANCH   1  22
TORSDOF 7
ENDMDL
MODEL 9
REMARK VINA RESULT:      -2.9      3.705      9.729
REMARK SMILES O=C1NCN(c2ccccc2)C12CC[NH+](CCCC(c1ccc(F)cc1)c1ccc(F)cc1)CC2
REMARK SMILES IDX 17 1 16 2 15 3 1 4 2 5 3 6 12 7 4 8 5 9 13 10 35 11 14 12
REMARK SMILES IDX 34 13 6 16 7 17 11 18 8 19 10 20 9 21 18 22 19 23 20 24
REMARK SMILES IDX 21 25 26 26 22 27 25 28 23 29 24 30 27 31 28 32 33 33 29 34
REMARK SMILES IDX 32 35 30 36 31 37
REMARK H PARENT 3 14 15 15
ROOT
ATOM      1  C   UNL     1      92.766 119.843 128.986  1.00  0.00     0.062 C 
ENDROOT
BRANCH   1   2
ATOM      2  C   UNL     1      93.030 118.415 128.610  1.00  0.00     0.262 C 
BRANCH   2   3
ATOM      3  N   UNL     1      92.817 118.224 127.180  1.00  0.00    -0.335 N 
ATOM      4  O   UNL     1      91.119 116.728 124.876  1.00  0.00    -0.272 OA
ATOM      5  C   UNL     1      91.987 117.102 124.060  1.00  0.00     0.247 C 
ATOM      6  N   UNL     1      91.962 116.805 122.686  1.00  0.00    -0.336 N 
ATOM      7  C   UNL     1      93.206 117.930 124.394  1.00  0.00     0.131 C 
ATOM      8  C   UNL     1      92.816 117.762 122.055  1.00  0.00     0.238 C 
ATOM      9  N   UNL     1      93.829 118.063 123.079  1.00  0.00    -0.339 N 
ATOM     10  C   UNL     1      94.072 117.150 125.362  1.00  0.00     0.100 C 
ATOM     11  C   UNL     1      92.735 119.215 124.975  1.00  0.00     0.100 C 
ATOM     12  C   UNL     1      93.389 116.984 126.700  1.00  0.00     0.265 C 
ATOM     13  C   UNL     1      93.217 119.353 126.382  1.00  0.00     0.265 C 
ATOM     14  H   UNL     1      91.412 116.025 122.235  1.00  0.00     0.165 HD
ATOM     15  H   UNL     1      91.782 118.134 127.088  1.00  0.00     0.348 HD
BRANCH   9  16
ATOM     16  C   UNL     1      95.159 118.397 122.718  1.00  0.00     0.039 A 
ATOM     17  C   UNL     1      96.143 118.520 123.671  1.00  0.00     0.026 A 
ATOM     18  C   UNL     1      95.477 118.579 121.407  1.00  0.00     0.026 A 
ATOM     19  C   UNL     1      97.462 118.829 123.324  1.00  0.00     0.002 A 
ATOM     20  C   UNL     1      96.761 118.882 121.047  1.00  0.00     0.002 A 
ATOM     21  C   UNL     1      97.750 119.007 121.988  1.00  0.00     0.000 A 
ENDBRANCH   9  16
ENDBRANCH   2   3
ENDBRANCH   1   2
BRANCH   1  22
ATOM     22  C   UNL     1      92.775 120.170 130.417  1.00  0.00     0.019 C 
BRANCH  22  23
ATOM     23  C   UNL     1      91.568 120.184 131.231  1.00  0.00     0.049 C 
BRANCH  23  24
ATOM     24  C   UNL     1      91.017 121.548 131.557  1.00  0.00    -0.040 A 
ATOM     25  C   UNL     1      91.816 122.626 131.247  1.00  0.00     0.007 A 
ATOM     26  C   UNL     1      89.798 121.729 132.153  1.00  0.00     0.007 A 
ATOM     27  C   UNL     1      91.396 123.900 131.535  1.00  0.00     0.039 A 
ATOM     28  C   UNL     1      89.382 123.002 132.438  1.00  0.00     0.039 A 
ATOM     29  C   UNL     1      90.175 124.114 132.133  1.00  0.00     0.123 A 
ATOM     30  F   UNL     1      89.771 125.379 132.413  1.00  0.00    -0.207 F 
ENDBRANCH  23  24
BRANCH  23  31
ATOM     31  C   UNL     1      90.489 119.242 130.979  1.00  0.00    -0.040 A 
ATOM     32  C   UNL     1      89.904 118.972 129.774  1.00  0.00     0.007 A 
ATOM     33  C   UNL     1      90.007 118.567 132.108  1.00  0.00     0.007 A 
ATOM     34  C   UNL     1      88.858 118.042 129.723  1.00  0.00     0.039 A 
ATOM     35  C   UNL     1      88.995 117.664 132.071  1.00  0.00     0.039 A 
ATOM     36  C   UNL     1      88.414 117.402 130.852  1.00  0.00     0.123 A 
ATOM     37  F   UNL     1      87.401 116.494 130.830  1.00  0.00    -0.207 F 
ENDBRANCH  23  31
ENDBRANCH  22  23
ENDBRANCH   1  22
TORSDOF 7
ENDMDL
