REMARK  Name = /public/home/mengxl/dzy/yeastbridge_re/product/chembl_branch/structures/fpocket_out/P08913_1HLL/P08913_1HLL.pdb
REMARK                            x       y       z     vdW  Elec       q    Type
REMARK                         _______ _______ _______ _____ _____    ______ ____
ATOM      1  N   THR A   1      -9.645  24.053   6.641  0.00  0.00    +0.000 N 
ATOM      2  CA  THR A   1      -9.086  23.381   7.382  0.00  0.00    +0.000 C 
ATOM      3  C   THR A   1      -9.954  22.344   7.960  0.00  0.00    +0.000 C 
ATOM      4  O   THR A   1      -9.599  21.262   8.120  0.00  0.00    +0.000 OA
ATOM      5  CB  THR A   1      -8.533  24.170   8.164  0.00  0.00    +0.000 C 
ATOM      6  OG1 THR A   1      -7.726  24.577   7.834  0.00  0.00    +0.000 OA
ATOM      7  CG2 THR A   1      -8.002  23.891   9.064  0.00  0.00    +0.000 C 
ATOM      8  N   GLY A   2     -11.075  22.712   8.259  0.00  0.00    +0.000 N 
ATOM      9  CA  GLY A   2     -11.996  21.827   8.815  0.00  0.00    +0.000 C 
ATOM     10  C   GLY A   2     -12.804  21.181   7.783  0.00  0.00    +0.000 C 
ATOM     11  O   GLY A   2     -13.554  20.320   8.039  0.00  0.00    +0.000 OA
ATOM     12  N   UNK A   3     -12.623  21.622   6.638  0.00  0.00    +0.000 N 
ATOM     13  C   UNK A   3     -13.326  21.098   5.565  0.00  0.00    +0.000 C 
ATOM     14  C   UNK A   3     -12.568  20.039   4.909  0.00  0.00    +0.000 C 
ATOM     15  O   UNK A   3     -12.859  19.615   3.997  0.00  0.00    +0.000 OA
ATOM     16  C   UNK A   3     -13.640  22.167   4.625  0.00  0.00    +0.000 C 
ATOM     17  O   UNK A   3     -14.597  21.985   3.966  0.00  0.00    +0.000 OA
ATOM     18  N   UNK A   3     -11.612  19.643   5.399  0.00  0.00    +0.000 N 
ATOM     19  C   UNK A   3     -10.811  18.641   4.871  0.00  0.00    +0.000 C 
ATOM     20  C   UNK A   3     -10.882  17.446   5.730  0.00  0.00    +0.000 C 
ATOM     21  O   UNK A   3     -11.268  16.396   5.320  0.00  0.00    +0.000 OA
ATOM     22  C   UNK A   3      -9.458  19.174   4.651  0.00  0.00    +0.000 C 
ATOM     23  C   UNK A   3      -8.562  18.087   4.343  0.00  0.00    +0.000 C 
ATOM     24  N   UNK A   3     -10.504  17.646   6.907  0.00  0.00    +0.000 N 
ATOM     25  C   UNK A   3     -10.520  16.598   7.828  0.00  0.00    +0.000 C 
ATOM     26  C   UNK A   3     -11.755  15.794   7.690  0.00  0.00    +0.000 C 
ATOM     27  O   UNK A   3     -11.722  14.626   7.444  0.00  0.00    +0.000 OA
ATOM     28  C   UNK A   3     -10.337  17.150   9.171  0.00  0.00    +0.000 C 
ATOM     29  C   UNK A   3     -10.599  16.104  10.179  0.00  0.00    +0.000 C 
ATOM     30  C   UNK A   3      -8.999  17.756   9.320  0.00  0.00    +0.000 C 
ATOM     31  N   UNK A   3     -12.815  16.450   7.854  0.00  0.00    +0.000 N 
ATOM     32  C   UNK A   3     -14.058  15.811   7.750  0.00  0.00    +0.000 C 
ATOM     33  C   UNK A   3     -14.070  14.898   6.587  0.00  0.00    +0.000 C 
ATOM     34  O   UNK A   3     -14.369  13.747   6.691  0.00  0.00    +0.000 OA
ATOM     35  C   UNK A   3     -15.118  16.815   7.715  0.00  0.00    +0.000 C 
ATOM     36  C   UNK A   3     -16.392  16.376   8.119  0.00  0.00    +0.000 C 
ATOM     37  N   UNK A   3     -16.694  16.341   9.068  0.00  0.00    +0.000 N 
ATOM     38  C   UNK A   3     -17.436  15.955   7.694  0.00  0.00    +0.000 C 
ATOM     39  C   UNK A   3     -17.870  15.916   9.199  0.00  0.00    +0.000 C 
ATOM     40  N   UNK A   3     -18.327  15.677   8.347  0.00  0.00    +0.000 N 
ATOM     41  N   UNK A   3     -13.742  15.445   5.504  0.00  0.00    +0.000 N 
ATOM     42  C   UNK A   3     -13.711  14.694   4.322  0.00  0.00    +0.000 C 
ATOM     43  C   UNK A   3     -12.856  13.511   4.489  0.00  0.00    +0.000 C 
ATOM     44  O   UNK A   3     -13.278  12.400   4.266  0.00  0.00    +0.000 OA
ATOM     45  C   UNK A   3     -13.314  15.574   3.210  0.00  0.00    +0.000 C 
ATOM     46  N   UNK A   3     -11.670  13.789   4.879  0.00  0.00    +0.000 N 
ATOM     47  C   UNK A   3     -10.753  12.761   5.078  0.00  0.00    +0.000 C 
ATOM     48  C   UNK A   3     -11.368  11.737   5.956  0.00  0.00    +0.000 C 
ATOM     49  O   UNK A   3     -11.039  10.592   5.900  0.00  0.00    +0.000 OA
ATOM     50  C   UNK A   3      -9.489  13.305   5.618  0.00  0.00    +0.000 C 
ATOM     51  S   UNK A   3      -8.263  13.094   4.623  0.00  0.00    +0.000 S 
ATOM     52  N   UNK A   3     -12.250  12.186   6.746  0.00  0.00    +0.000 N 
ATOM     53  C   UNK A   3     -12.915  11.324   7.635  0.00  0.00    +0.000 C 
ATOM     54  C   UNK A   3     -13.920  10.503   6.976  0.00  0.00    +0.000 C 
ATOM     55  O   UNK A   3     -14.505   9.912   7.539  0.00  0.00    +0.000 OA
ATOM     56  C   UNK A   3     -13.467  12.109   8.679  0.00  0.00    +0.000 C 
ATOM     57  N   UNK A   3     -14.091  10.491   5.794  0.00  0.00    +0.000 N 
ATOM     58  C   UNK A   3     -15.016   9.753   5.053  0.00  0.00    +0.000 C 
ATOM     59  C   UNK A   3     -14.323   8.764   4.216  0.00  0.00    +0.000 C 
ATOM     60  O   UNK A   3     -14.632   7.601   4.255  0.00  0.00    +0.000 OA
ATOM     61  C   UNK A   3     -15.860  10.672   4.297  0.00  0.00    +0.000 C 
ATOM     62  C   UNK A   3     -16.685   9.921   3.342  0.00  0.00    +0.000 C 
ATOM     63  N   UNK A   3     -13.399   9.261   3.478  0.00  0.00    +0.000 N 
ATOM     64  C   UNK A   3     -12.659   8.436   2.632  0.00  0.00    +0.000 C 
ATOM     65  H   THR A   1     -10.132  23.474   5.957  0.00  0.00    +0.000 HD
ATOM     66  H   THR A   1      -8.979  24.658   6.161  0.00  0.00    +0.000 HD
ATOM     67  H   THR A   1     -10.322  24.625   7.145  0.00  0.00    +0.000 HD
ATOM     68  H   THR A   1      -7.022  23.911   7.792  0.00  0.00    +0.000 HD
ATOM     69  H   GLY A   2     -11.335  23.649   8.106  0.00  0.00    +0.000 HD
ATOM     70  H   UNK A   3     -11.976  22.349   6.491  0.00  0.00    +0.000 HD
ATOM     71  H   UNK A   3     -15.378  21.930   4.539  0.00  0.00    +0.000 HD
ATOM     72  H   UNK A   3     -11.339  20.042   6.256  0.00  0.00    +0.000 HD
ATOM     73  H   UNK A   3     -10.196  18.540   7.182  0.00  0.00    +0.000 HD
ATOM     74  H   UNK A   3     -12.772  17.413   8.056  0.00  0.00    +0.000 HD
ATOM     75  H   UNK A   3     -16.128  16.612   9.827  0.00  0.00    +0.000 HD
ATOM     76  H   UNK A   3     -19.224  15.327   8.143  0.00  0.00    +0.000 HD
ATOM     77  H   UNK A   3     -13.507  16.401   5.486  0.00  0.00    +0.000 HD
ATOM     78  H   UNK A   3     -11.407  14.724   5.037  0.00  0.00    +0.000 HD
ATOM     79  H   UNK A   3      -8.508  13.749   3.457  0.00  0.00    +0.000 HD
ATOM     80  H   UNK A   3     -12.471  13.145   6.737  0.00  0.00    +0.000 HD
ATOM     81  H   UNK A   3     -13.500  11.081   5.272  0.00  0.00    +0.000 HD
ATOM     82  H   UNK A   3     -13.212  10.227   3.509  0.00  0.00    +0.000 HD
TER 
REMARK  Name = /public/home/mengxl/dzy/yeastbridge_re/product/chembl_branch/structures/fpocket_out/P08913_1HLL/P08913_1HLL.pdb
REMARK                            x       y       z     vdW  Elec       q    Type
REMARK                         _______ _______ _______ _____ _____    ______ ____
ATOM      1  H   UNK     1      -8.032  23.809   9.371  0.00  0.00    +0.000 HD
ATOM      2  H   UNK     1      -7.443  23.809   9.371  0.00  0.00    +0.000 HD
TER 
REMARK  Name = /public/home/mengxl/dzy/yeastbridge_re/product/chembl_branch/structures/fpocket_out/P08913_1HLL/P08913_1HLL.pdb
REMARK                            x       y       z     vdW  Elec       q    Type
REMARK                         _______ _______ _______ _____ _____    ______ ____
ATOM      1  H   UNK     2      -7.778  23.741   9.119  0.00  0.00    +0.000 HD
ATOM      2  H   UNK     2      -7.189  23.741   9.119  0.00  0.00    +0.000 HD
TER 
REMARK  Name = /public/home/mengxl/dzy/yeastbridge_re/product/chembl_branch/structures/fpocket_out/P08913_1HLL/P08913_1HLL.pdb
REMARK                            x       y       z     vdW  Elec       q    Type
REMARK                         _______ _______ _______ _____ _____    ______ ____
ATOM      1  H   UNK     3      -7.819  23.924   9.344  0.00  0.00    +0.000 HD
ATOM      2  H   UNK     3      -7.230  23.924   9.344  0.00  0.00    +0.000 HD
TER 
REMARK  Name = /public/home/mengxl/dzy/yeastbridge_re/product/chembl_branch/structures/fpocket_out/P08913_1HLL/P08913_1HLL.pdb
REMARK                            x       y       z     vdW  Elec       q    Type
REMARK                         _______ _______ _______ _____ _____    ______ ____
ATOM      1  C   UNK     1     -12.836  22.532   9.766  0.00  0.00    +0.000 C 
ATOM      2  O   UNK     1     -13.125  22.340  10.588  0.00  0.00    +0.000 OA
ATOM      3  H   UNK     1     -12.706  22.938  11.226  0.00  0.00    +0.000 HD
TER 
REMARK  Name = /public/home/mengxl/dzy/yeastbridge_re/product/chembl_branch/structures/fpocket_out/P08913_1HLL/P08913_1HLL.pdb
REMARK                            x       y       z     vdW  Elec       q    Type
REMARK                         _______ _______ _______ _____ _____    ______ ____
ATOM      1  H   UNK     4     -13.000  22.436  10.868  0.00  0.00    +0.000 HD
ATOM      2  H   UNK     4     -12.411  22.436  10.868  0.00  0.00    +0.000 HD
TER 
REMARK  Name = /public/home/mengxl/dzy/yeastbridge_re/product/chembl_branch/structures/fpocket_out/P08913_1HLL/P08913_1HLL.pdb
REMARK                            x       y       z     vdW  Elec       q    Type
REMARK                         _______ _______ _______ _____ _____    ______ ____
ATOM      1  H   UNK     5     -14.850  21.970   3.707  0.00  0.00    +0.000 HD
ATOM      2  H   UNK     5     -14.261  21.970   3.707  0.00  0.00    +0.000 HD
TER 
REMARK  Name = /public/home/mengxl/dzy/yeastbridge_re/product/chembl_branch/structures/fpocket_out/P08913_1HLL/P08913_1HLL.pdb
REMARK                            x       y       z     vdW  Elec       q    Type
REMARK                         _______ _______ _______ _____ _____    ______ ____
ATOM      1  C   UNL     6      -9.416  20.220   3.636  0.00  0.00    +0.000 C 
TER 
REMARK  Name = /public/home/mengxl/dzy/yeastbridge_re/product/chembl_branch/structures/fpocket_out/P08913_1HLL/P08913_1HLL.pdb
REMARK                            x       y       z     vdW  Elec       q    Type
REMARK                         _______ _______ _______ _____ _____    ______ ____
ATOM      1  C   UNL     7      -9.138  20.706   3.232  0.00  0.00    +0.000 C 
TER 
REMARK  Name = /public/home/mengxl/dzy/yeastbridge_re/product/chembl_branch/structures/fpocket_out/P08913_1HLL/P08913_1HLL.pdb
REMARK                            x       y       z     vdW  Elec       q    Type
REMARK                         _______ _______ _______ _____ _____    ______ ____
ATOM      1  H   UNK     8      -9.490  20.285   3.322  0.00  0.00    +0.000 HD
ATOM      2  H   UNK    10      -8.933  20.692   3.187  0.00  0.00    +0.000 HD
TER 
REMARK  Name = /public/home/mengxl/dzy/yeastbridge_re/product/chembl_branch/structures/fpocket_out/P08913_1HLL/P08913_1HLL.pdb
REMARK                            x       y       z     vdW  Elec       q    Type
REMARK                         _______ _______ _______ _____ _____    ______ ____
ATOM      1  H   UNK     9      -9.089  21.008   3.151  0.00  0.00    +0.000 HD
ATOM      2  H   UNK     9      -8.500  21.008   3.151  0.00  0.00    +0.000 HD
TER 
REMARK  Name = /public/home/mengxl/dzy/yeastbridge_re/product/chembl_branch/structures/fpocket_out/P08913_1HLL/P08913_1HLL.pdb
REMARK                            x       y       z     vdW  Elec       q    Type
REMARK                         _______ _______ _______ _____ _____    ______ ____
ATOM      1  H   UNK    11      -9.195  20.764   3.072  0.00  0.00    +0.000 HD
ATOM      2  H   UNK    11      -8.606  20.764   3.072  0.00  0.00    +0.000 HD
TER 
REMARK  Name = /public/home/mengxl/dzy/yeastbridge_re/product/chembl_branch/structures/fpocket_out/P08913_1HLL/P08913_1HLL.pdb
REMARK                            x       y       z     vdW  Elec       q    Type
REMARK                         _______ _______ _______ _____ _____    ______ ____
ATOM      1  H   UNK    12     -10.776  15.762  10.247  0.00  0.00    +0.000 HD
ATOM      2  H   UNK    12     -10.187  15.762  10.247  0.00  0.00    +0.000 HD
TER 
REMARK  Name = /public/home/mengxl/dzy/yeastbridge_re/product/chembl_branch/structures/fpocket_out/P08913_1HLL/P08913_1HLL.pdb
REMARK                            x       y       z     vdW  Elec       q    Type
REMARK                         _______ _______ _______ _____ _____    ______ ____
ATOM      1  H   UNK    13      -8.655  17.782   9.500  0.00  0.00    +0.000 HD
ATOM      2  H   UNK    13      -8.066  17.782   9.500  0.00  0.00    +0.000 HD
TER 
REMARK  Name = /public/home/mengxl/dzy/yeastbridge_re/product/chembl_branch/structures/fpocket_out/P08913_1HLL/P08913_1HLL.pdb
REMARK                            x       y       z     vdW  Elec       q    Type
REMARK                         _______ _______ _______ _____ _____    ______ ____
ATOM      1  H   UNK    14      -8.769  18.050   9.375  0.00  0.00    +0.000 HD
ATOM      2  H   UNK    14      -8.180  18.050   9.375  0.00  0.00    +0.000 HD
TER 
REMARK  Name = /public/home/mengxl/dzy/yeastbridge_re/product/chembl_branch/structures/fpocket_out/P08913_1HLL/P08913_1HLL.pdb
REMARK                            x       y       z     vdW  Elec       q    Type
REMARK                         _______ _______ _______ _____ _____    ______ ____
ATOM      1  C   UNK     4     -13.723  15.279   2.006  0.00  0.00    +0.000 C 
ATOM      2  C   UNK     4     -13.189  15.039   1.369  0.00  0.00    +0.000 C 
TER 
REMARK  Name = /public/home/mengxl/dzy/yeastbridge_re/product/chembl_branch/structures/fpocket_out/P08913_1HLL/P08913_1HLL.pdb
REMARK                            x       y       z     vdW  Elec       q    Type
REMARK                         _______ _______ _______ _____ _____    ______ ____
ATOM      1  C   UNL    15     -14.222  15.811   1.331  0.00  0.00    +0.000 C 
TER 
REMARK  Name = /public/home/mengxl/dzy/yeastbridge_re/product/chembl_branch/structures/fpocket_out/P08913_1HLL/P08913_1HLL.pdb
REMARK                            x       y       z     vdW  Elec       q    Type
REMARK                         _______ _______ _______ _____ _____    ______ ____
ATOM      1  H   UNK    16     -14.217  15.723   1.123  0.00  0.00    +0.000 HD
ATOM      2  H   UNK    16     -13.628  15.723   1.123  0.00  0.00    +0.000 HD
TER 
REMARK  Name = /public/home/mengxl/dzy/yeastbridge_re/product/chembl_branch/structures/fpocket_out/P08913_1HLL/P08913_1HLL.pdb
REMARK                            x       y       z     vdW  Elec       q    Type
REMARK                         _______ _______ _______ _____ _____    ______ ____
ATOM      1  H   UNK    17     -14.441  15.950   1.276  0.00  0.00    +0.000 HD
ATOM      2  H   UNK    17     -13.852  15.950   1.276  0.00  0.00    +0.000 HD
TER 
REMARK  Name = /public/home/mengxl/dzy/yeastbridge_re/product/chembl_branch/structures/fpocket_out/P08913_1HLL/P08913_1HLL.pdb
REMARK                            x       y       z     vdW  Elec       q    Type
REMARK                         _______ _______ _______ _____ _____    ______ ____
ATOM      1  H   UNK    18     -13.057  14.931   1.081  0.00  0.00    +0.000 HD
ATOM      2  H   UNK    18     -12.468  14.931   1.081  0.00  0.00    +0.000 HD
TER 
REMARK  Name = /public/home/mengxl/dzy/yeastbridge_re/product/chembl_branch/structures/fpocket_out/P08913_1HLL/P08913_1HLL.pdb
REMARK                            x       y       z     vdW  Elec       q    Type
REMARK                         _______ _______ _______ _____ _____    ______ ____
ATOM      1  H   UNK    19     -13.097  15.025   1.327  0.00  0.00    +0.000 HD
ATOM      2  H   UNK    19     -12.508  15.025   1.327  0.00  0.00    +0.000 HD
TER 
REMARK  Name = /public/home/mengxl/dzy/yeastbridge_re/product/chembl_branch/structures/fpocket_out/P08913_1HLL/P08913_1HLL.pdb
REMARK                            x       y       z     vdW  Elec       q    Type
REMARK                         _______ _______ _______ _____ _____    ______ ____
ATOM      1  H   UNK    20     -13.033  14.991   1.245  0.00  0.00    +0.000 HD
ATOM      2  H   UNK    20     -12.444  14.991   1.245  0.00  0.00    +0.000 HD
TER 
REMARK  Name = /public/home/mengxl/dzy/yeastbridge_re/product/chembl_branch/structures/fpocket_out/P08913_1HLL/P08913_1HLL.pdb
REMARK                            x       y       z     vdW  Elec       q    Type
REMARK                         _______ _______ _______ _____ _____    ______ ____
ATOM      1  H   UNK    21     -13.437  12.285   8.930  0.00  0.00    +0.000 HD
ATOM      2  H   UNK    21     -12.848  12.285   8.930  0.00  0.00    +0.000 HD
TER 
REMARK  Name = /public/home/mengxl/dzy/yeastbridge_re/product/chembl_branch/structures/fpocket_out/P08913_1HLL/P08913_1HLL.pdb
REMARK                            x       y       z     vdW  Elec       q    Type
REMARK                         _______ _______ _______ _____ _____    ______ ____
ATOM      1  H   UNK    22     -13.679  12.197   8.994  0.00  0.00    +0.000 HD
ATOM      2  H   UNK    22     -13.090  12.197   8.994  0.00  0.00    +0.000 HD
TER 
REMARK  Name = /public/home/mengxl/dzy/yeastbridge_re/product/chembl_branch/structures/fpocket_out/P08913_1HLL/P08913_1HLL.pdb
REMARK                            x       y       z     vdW  Elec       q    Type
REMARK                         _______ _______ _______ _____ _____    ______ ____
ATOM      1  C   UNL    23     -16.657  11.506   5.197  0.00  0.00    +0.000 C 
TER 
REMARK  Name = /public/home/mengxl/dzy/yeastbridge_re/product/chembl_branch/structures/fpocket_out/P08913_1HLL/P08913_1HLL.pdb
REMARK                            x       y       z     vdW  Elec       q    Type
REMARK                         _______ _______ _______ _____ _____    ______ ____
ATOM      1  C   UNL    24     -17.261  12.041   5.235  0.00  0.00    +0.000 C 
TER 
REMARK  Name = /public/home/mengxl/dzy/yeastbridge_re/product/chembl_branch/structures/fpocket_out/P08913_1HLL/P08913_1HLL.pdb
REMARK                            x       y       z     vdW  Elec       q    Type
REMARK                         _______ _______ _______ _____ _____    ______ ____
ATOM      1  H   UNK    25     -17.428  12.004   5.343  0.00  0.00    +0.000 HD
ATOM      2  H   UNK    25     -16.839  12.004   5.343  0.00  0.00    +0.000 HD
TER 
REMARK  Name = /public/home/mengxl/dzy/yeastbridge_re/product/chembl_branch/structures/fpocket_out/P08913_1HLL/P08913_1HLL.pdb
REMARK                            x       y       z     vdW  Elec       q    Type
REMARK                         _______ _______ _______ _____ _____    ______ ____
ATOM      1  H   UNK    26     -17.425  12.076   5.001  0.00  0.00    +0.000 HD
ATOM      2  H   UNK    26     -16.836  12.076   5.001  0.00  0.00    +0.000 HD
TER 
REMARK  Name = /public/home/mengxl/dzy/yeastbridge_re/product/chembl_branch/structures/fpocket_out/P08913_1HLL/P08913_1HLL.pdb
REMARK                            x       y       z     vdW  Elec       q    Type
REMARK                         _______ _______ _______ _____ _____    ______ ____
ATOM      1  C   UNK     8     -11.891   7.467   3.429  0.00  0.00    +0.000 C 
ATOM      2  O   UNK     8     -11.553   6.820   3.201  0.00  0.00    +0.000 OA
ATOM      3  N   UNK     8     -11.638   7.397   4.348  0.00  0.00    +0.000 N 
ATOM      4  H   UNK     8     -11.879   6.079   3.736  0.00  0.00    +0.000 HD
ATOM      5  H   UNK     8     -11.954   6.501   4.720  0.00  0.00    +0.000 HD
ATOM      6  H   UNK     8     -12.067   8.156   4.878  0.00  0.00    +0.000 HD
ATOM      7  H   UNK     8     -10.623   7.459   4.427  0.00  0.00    +0.000 HD
TER 
REMARK  Name = /public/home/mengxl/dzy/yeastbridge_re/product/chembl_branch/structures/fpocket_out/P08913_1HLL/P08913_1HLL.pdb
REMARK                            x       y       z     vdW  Elec       q    Type
REMARK                         _______ _______ _______ _____ _____    ______ ____
ATOM      1  C   UNK     9     -11.753   9.249   1.751  0.00  0.00    +0.000 C 
ATOM      2  O   UNK     9     -11.703   9.200   0.893  0.00  0.00    +0.000 OA
ATOM      3  H   UNK     9     -10.876   9.608   0.594  0.00  0.00    +0.000 HD
TER 
REMARK  Name = /public/home/mengxl/dzy/yeastbridge_re/product/chembl_branch/structures/fpocket_out/P08913_1HLL/P08913_1HLL.pdb
REMARK                            x       y       z     vdW  Elec       q    Type
REMARK                         _______ _______ _______ _____ _____    ______ ____
ATOM      1  H   UNK    27     -11.653   9.370   0.600  0.00  0.00    +0.000 HD
ATOM      2  H   UNK    27     -11.064   9.370   0.600  0.00  0.00    +0.000 HD
TER 
REMARK  Name = /public/home/mengxl/dzy/yeastbridge_re/product/chembl_branch/structures/fpocket_out/P08913_1HLL/P08913_1HLL.pdb
REMARK                            x       y       z     vdW  Elec       q    Type
REMARK                         _______ _______ _______ _____ _____    ______ ____
ATOM      1  C   UNK B   0     -10.916   6.519   5.180  0.00  0.00    +0.000 C 
ATOM      2  C   UNK B   0     -11.813   5.462   5.770  0.00  0.00    +0.000 C 
ATOM      3  O   UNK B   0     -11.591   4.348   5.678  0.00  0.00    +0.000 OA
ATOM      4  N   ALA B   1     -12.807   5.851   6.362  0.00  0.00    +0.000 N 
ATOM      5  CA  ALA B   1     -13.739   4.951   6.967  0.00  0.00    +0.000 C 
ATOM      6  C   ALA B   1     -14.111   3.876   5.998  0.00  0.00    +0.000 C 
ATOM      7  O   ALA B   1     -14.109   2.705   6.330  0.00  0.00    +0.000 OA
ATOM      8  CB  ALA B   1     -14.978   5.685   7.350  0.00  0.00    +0.000 C 
ATOM      9  N   UNK B   2     -14.421   4.314   4.818  0.00  0.00    +0.000 N 
ATOM     10  C   UNK B   2     -14.794   3.404   3.799  0.00  0.00    +0.000 C 
ATOM     11  C   UNK B   2     -13.880   2.206   3.789  0.00  0.00    +0.000 C 
ATOM     12  O   UNK B   2     -14.290   1.078   3.718  0.00  0.00    +0.000 OA
ATOM     13  C   UNK B   2     -14.765   4.092   2.462  0.00  0.00    +0.000 C 
ATOM     14  C   UNK B   2     -15.803   3.638   1.619  0.00  0.00    +0.000 C 
ATOM     15  N   ALA B   3     -12.659   2.492   3.861  0.00  0.00    +0.000 N 
ATOM     16  CA  ALA B   3     -11.684   1.453   3.861  0.00  0.00    +0.000 C 
ATOM     17  C   ALA B   3     -11.466   0.892   5.211  0.00  0.00    +0.000 C 
ATOM     18  O   ALA B   3     -10.879   0.152   5.432  0.00  0.00    +0.000 OA
ATOM     19  CB  ALA B   3     -10.452   2.104   3.392  0.00  0.00    +0.000 C 
ATOM     20  N   TRP B   4     -11.950   1.265   6.078  0.00  0.00    +0.000 N 
ATOM     21  CA  TRP B   4     -11.815   0.808   7.401  0.00  0.00    +0.000 C 
ATOM     22  C   TRP B   4     -12.489  -0.514   7.545  0.00  0.00    +0.000 C 
ATOM     23  O   TRP B   4     -11.904  -1.496   7.905  0.00  0.00    +0.000 OA
ATOM     24  CB  TRP B   4     -12.318   1.841   8.319  0.00  0.00    +0.000 C 
ATOM     25  CG  TRP B   4     -12.438   1.374   9.727  0.00  0.00    +0.000 A 
ATOM     26  CD1 TRP B   4     -13.502   1.317  10.456  0.00  0.00    +0.000 A 
ATOM     27  CD2 TRP B   4     -11.409   0.898  10.550  0.00  0.00    +0.000 A 
ATOM     28  NE1 TRP B   4     -13.235   0.841  11.684  0.00  0.00    +0.000 N 
ATOM     29  CE2 TRP B   4     -11.922   0.578  11.743  0.00  0.00    +0.000 A 
ATOM     30  CE3 TRP B   4     -10.088   0.743  10.295  0.00  0.00    +0.000 A 
ATOM     31  CZ2 TRP B   4     -11.183   0.084  12.776  0.00  0.00    +0.000 A 
ATOM     32  CZ3 TRP B   4      -9.363   0.248  11.337  0.00  0.00    +0.000 A 
ATOM     33  CH2 TRP B   4      -9.864  -0.079  12.544  0.00  0.00    +0.000 A 
ATOM     34  N   UNK B   5     -13.712  -0.496   7.256  0.00  0.00    +0.000 N 
ATOM     35  C   UNK B   5     -14.472  -1.681   7.349  0.00  0.00    +0.000 C 
ATOM     36  C   UNK B   5     -13.855  -2.751   6.544  0.00  0.00    +0.000 C 
ATOM     37  O   UNK B   5     -13.756  -3.719   6.885  0.00  0.00    +0.000 OA
ATOM     38  C   UNK B   5     -15.865  -1.427   6.913  0.00  0.00    +0.000 C 
ATOM     39  O   UNK B   5     -16.718  -2.111   7.504  0.00  0.00    +0.000 OA
ATOM     40  N   UNK B   5     -13.457  -2.542   5.491  0.00  0.00    +0.000 N 
ATOM     41  C   UNK B   5     -12.853  -3.477   4.635  0.00  0.00    +0.000 C 
ATOM     42  C   UNK B   5     -11.650  -4.079   5.285  0.00  0.00    +0.000 C 
ATOM     43  O   UNK B   5     -11.551  -5.272   5.452  0.00  0.00    +0.000 OA
ATOM     44  C   UNK B   5     -12.582  -2.831   3.329  0.00  0.00    +0.000 C 
ATOM     45  C   UNK B   5     -11.761  -3.729   2.506  0.00  0.00    +0.000 C 
ATOM     46  N   UNK B   5     -10.767  -3.227   5.634  0.00  0.00    +0.000 N 
ATOM     47  C   UNK B   5      -9.575  -3.660   6.263  0.00  0.00    +0.000 C 
ATOM     48  C   UNK B   5      -9.854  -4.607   7.383  0.00  0.00    +0.000 C 
ATOM     49  O   UNK B   5      -9.241  -5.646   7.500  0.00  0.00    +0.000 OA
ATOM     50  N   UNK B   5     -10.778  -4.215   8.177  0.00  0.00    +0.000 N 
ATOM     51  C   UNK B   5     -11.145  -5.016   9.284  0.00  0.00    +0.000 C 
ATOM     52  H   ALA B   1     -12.973   6.819   6.425  0.00  0.00    +0.000 HD
ATOM     53  H   UNK B   2     -14.397   5.280   4.630  0.00  0.00    +0.000 HD
ATOM     54  H   ALA B   3     -12.376   3.433   3.917  0.00  0.00    +0.000 HD
ATOM     55  H   TRP B   4     -12.566   2.020   5.940  0.00  0.00    +0.000 HD
ATOM     56  H   TRP B   4     -13.887   0.709  12.410  0.00  0.00    +0.000 HD
ATOM     57  H   UNK B   5     -14.138   0.342   6.966  0.00  0.00    +0.000 HD
ATOM     58  H   UNK B   5     -16.563  -3.051   7.321  0.00  0.00    +0.000 HD
ATOM     59  H   UNK B   5     -13.547  -1.621   5.154  0.00  0.00    +0.000 HD
ATOM     60  H   UNK B   5     -10.915  -2.268   5.466  0.00  0.00    +0.000 HD
ATOM     61  H   UNK B   5     -11.233  -3.357   8.018  0.00  0.00    +0.000 HD
TER 
REMARK  Name = /public/home/mengxl/dzy/yeastbridge_re/product/chembl_branch/structures/fpocket_out/P08913_1HLL/P08913_1HLL.pdb
REMARK                            x       y       z     vdW  Elec       q    Type
REMARK                         _______ _______ _______ _____ _____    ______ ____
ATOM      1  C   UNL    28     -10.179   7.300   6.170  0.00  0.00    +0.000 C 
TER 
REMARK  Name = /public/home/mengxl/dzy/yeastbridge_re/product/chembl_branch/structures/fpocket_out/P08913_1HLL/P08913_1HLL.pdb
REMARK                            x       y       z     vdW  Elec       q    Type
REMARK                         _______ _______ _______ _____ _____    ______ ____
ATOM      1  C   UNK    11      -9.521   7.076   6.933  0.00  0.00    +0.000 C 
ATOM      2  C   UNK    11      -9.060   7.462   7.526  0.00  0.00    +0.000 C 
TER 
REMARK  Name = /public/home/mengxl/dzy/yeastbridge_re/product/chembl_branch/structures/fpocket_out/P08913_1HLL/P08913_1HLL.pdb
REMARK                            x       y       z     vdW  Elec       q    Type
REMARK                         _______ _______ _______ _____ _____    ______ ____
ATOM      1  C   UNL    29      -8.685   6.766   7.111  0.00  0.00    +0.000 C 
TER 
REMARK  Name = /public/home/mengxl/dzy/yeastbridge_re/product/chembl_branch/structures/fpocket_out/P08913_1HLL/P08913_1HLL.pdb
REMARK                            x       y       z     vdW  Elec       q    Type
REMARK                         _______ _______ _______ _____ _____    ______ ____
ATOM      1  H   UNK    30      -8.705   6.562   7.167  0.00  0.00    +0.000 HD
ATOM      2  H   UNK    30      -8.116   6.562   7.167  0.00  0.00    +0.000 HD
TER 
REMARK  Name = /public/home/mengxl/dzy/yeastbridge_re/product/chembl_branch/structures/fpocket_out/P08913_1HLL/P08913_1HLL.pdb
REMARK                            x       y       z     vdW  Elec       q    Type
REMARK                         _______ _______ _______ _____ _____    ______ ____
ATOM      1  H   UNK    31      -8.389   6.755   7.034  0.00  0.00    +0.000 HD
ATOM      2  H   UNK    31      -7.800   6.755   7.034  0.00  0.00    +0.000 HD
TER 
REMARK  Name = /public/home/mengxl/dzy/yeastbridge_re/product/chembl_branch/structures/fpocket_out/P08913_1HLL/P08913_1HLL.pdb
REMARK                            x       y       z     vdW  Elec       q    Type
REMARK                         _______ _______ _______ _____ _____    ______ ____
ATOM      1  H   UNK    32      -8.950   7.736   7.452  0.00  0.00    +0.000 HD
ATOM      2  H   UNK    32      -8.361   7.736   7.452  0.00  0.00    +0.000 HD
TER 
REMARK  Name = /public/home/mengxl/dzy/yeastbridge_re/product/chembl_branch/structures/fpocket_out/P08913_1HLL/P08913_1HLL.pdb
REMARK                            x       y       z     vdW  Elec       q    Type
REMARK                         _______ _______ _______ _____ _____    ______ ____
ATOM      1  H   UNK    33      -9.022   7.642   7.820  0.00  0.00    +0.000 HD
ATOM      2  H   UNK    33      -8.433   7.642   7.820  0.00  0.00    +0.000 HD
TER 
REMARK  Name = /public/home/mengxl/dzy/yeastbridge_re/product/chembl_branch/structures/fpocket_out/P08913_1HLL/P08913_1HLL.pdb
REMARK                            x       y       z     vdW  Elec       q    Type
REMARK                         _______ _______ _______ _____ _____    ______ ____
ATOM      1  C   UNK    13     -15.546   5.300   8.543  0.00  0.00    +0.000 C 
ATOM      2  O   UNK    13     -15.620   5.269   8.992  0.00  0.00    +0.000 OA
TER 
REMARK  Name = /public/home/mengxl/dzy/yeastbridge_re/product/chembl_branch/structures/fpocket_out/P08913_1HLL/P08913_1HLL.pdb
REMARK                            x       y       z     vdW  Elec       q    Type
REMARK                         _______ _______ _______ _____ _____    ______ ____
ATOM      1  O   HOH    34     -15.894   5.046   8.979  0.00  0.00    +0.000 OA
ATOM      2  H   HOH    34     -14.924   5.046   8.979  0.00  0.00    +0.000 HD
ATOM      3  H   HOH    34     -16.217   4.903   9.882  0.00  0.00    +0.000 HD
TER 
REMARK  Name = /public/home/mengxl/dzy/yeastbridge_re/product/chembl_branch/structures/fpocket_out/P08913_1HLL/P08913_1HLL.pdb
REMARK                            x       y       z     vdW  Elec       q    Type
REMARK                         _______ _______ _______ _____ _____    ______ ____
ATOM      1  C   UNL    35     -15.623   3.721   0.396  0.00  0.00    +0.000 C 
TER 
REMARK  Name = /public/home/mengxl/dzy/yeastbridge_re/product/chembl_branch/structures/fpocket_out/P08913_1HLL/P08913_1HLL.pdb
REMARK                            x       y       z     vdW  Elec       q    Type
REMARK                         _______ _______ _______ _____ _____    ______ ____
ATOM      1  N   UNL    15     -16.515   3.855  -0.079  0.00  0.00    +0.000 N 
ATOM      2  C   UNL    15     -16.872   3.935  -0.779  0.00  0.00    +0.000 C 
ATOM      3  N   UNL    15     -16.415   3.894  -1.089  0.00  0.00    +0.000 N 
ATOM      4  H   UNL    15     -17.211   3.904   0.665  0.00  0.00    +0.000 HD
ATOM      5  H   UNL    15     -15.834   4.604   0.043  0.00  0.00    +0.000 HD
ATOM      6  H   UNL    15     -16.039   2.954  -0.041  0.00  0.00    +0.000 HD
ATOM      7  H   UNL    15     -15.931   3.023  -0.868  0.00  0.00    +0.000 HD
ATOM      8  H   UNL    15     -15.800   4.684  -0.894  0.00  0.00    +0.000 HD
ATOM      9  H   UNL    15     -16.672   3.899  -2.076  0.00  0.00    +0.000 HD
TER 
REMARK  Name = /public/home/mengxl/dzy/yeastbridge_re/product/chembl_branch/structures/fpocket_out/P08913_1HLL/P08913_1HLL.pdb
REMARK                            x       y       z     vdW  Elec       q    Type
REMARK                         _______ _______ _______ _____ _____    ______ ____
ATOM      1  N   UNL    36     -17.686   4.055  -1.169  0.00  0.00    +0.000 N 
ATOM      2  H   UNL    36     -16.666   4.055  -1.169  0.00  0.00    +0.000 HD
ATOM      3  H   UNL    36     -18.026   4.721  -0.476  0.00  0.00    +0.000 HD
ATOM      4  H   UNL    36     -18.026   3.121  -0.938  0.00  0.00    +0.000 HD
ATOM      5  H   UNL    36     -18.026   4.322  -2.093  0.00  0.00    +0.000 HD
TER 
REMARK  Name = /public/home/mengxl/dzy/yeastbridge_re/product/chembl_branch/structures/fpocket_out/P08913_1HLL/P08913_1HLL.pdb
REMARK                            x       y       z     vdW  Elec       q    Type
REMARK                         _______ _______ _______ _____ _____    ______ ____
ATOM      1  C   UNL    37     -10.570   2.816   2.101  0.00  0.00    +0.000 C 
TER 
REMARK  Name = /public/home/mengxl/dzy/yeastbridge_re/product/chembl_branch/structures/fpocket_out/P08913_1HLL/P08913_1HLL.pdb
REMARK                            x       y       z     vdW  Elec       q    Type
REMARK                         _______ _______ _______ _____ _____    ______ ____
ATOM      1  C   UNK    18     -10.686   2.917   1.387  0.00  0.00    +0.000 C 
ATOM      2  C   UNK    18     -10.562   3.358   1.650  0.00  0.00    +0.000 C 
TER 
REMARK  Name = /public/home/mengxl/dzy/yeastbridge_re/product/chembl_branch/structures/fpocket_out/P08913_1HLL/P08913_1HLL.pdb
REMARK                            x       y       z     vdW  Elec       q    Type
REMARK                         _______ _______ _______ _____ _____    ______ ____
ATOM      1  C   UNK    19     -10.798   3.587   0.172  0.00  0.00    +0.000 C 
ATOM      2  C   UNK    19     -10.673   4.028   0.434  0.00  0.00    +0.000 C 
TER 
REMARK  Name = /public/home/mengxl/dzy/yeastbridge_re/product/chembl_branch/structures/fpocket_out/P08913_1HLL/P08913_1HLL.pdb
REMARK                            x       y       z     vdW  Elec       q    Type
REMARK                         _______ _______ _______ _____ _____    ______ ____
ATOM      1  C   UNK    20     -10.786   4.109  -0.245  0.00  0.00    +0.000 C 
ATOM      2  O   UNK    20     -10.891   4.742  -1.393  0.00  0.00    +0.000 OA
ATOM      3  H   UNK    20     -10.829   5.698  -1.242  0.00  0.00    +0.000 HD
TER 
REMARK  Name = /public/home/mengxl/dzy/yeastbridge_re/product/chembl_branch/structures/fpocket_out/P08913_1HLL/P08913_1HLL.pdb
REMARK                            x       y       z     vdW  Elec       q    Type
REMARK                         _______ _______ _______ _____ _____    ______ ____
ATOM      1  H   UNK    38     -16.923  -2.308   7.611  0.00  0.00    +0.000 HD
ATOM      2  H   UNK    38     -16.334  -2.308   7.611  0.00  0.00    +0.000 HD
TER 
REMARK  Name = /public/home/mengxl/dzy/yeastbridge_re/product/chembl_branch/structures/fpocket_out/P08913_1HLL/P08913_1HLL.pdb
REMARK                            x       y       z     vdW  Elec       q    Type
REMARK                         _______ _______ _______ _____ _____    ______ ____
ATOM      1  C   UNK    21     -13.830  -2.403   2.649  0.00  0.00    +0.000 C 
ATOM      2  C   UNK    21     -13.976  -1.869   1.906  0.00  0.00    +0.000 C 
TER 
REMARK  Name = /public/home/mengxl/dzy/yeastbridge_re/product/chembl_branch/structures/fpocket_out/P08913_1HLL/P08913_1HLL.pdb
REMARK                            x       y       z     vdW  Elec       q    Type
REMARK                         _______ _______ _______ _____ _____    ______ ____
ATOM      1  H   UNK    39     -13.950  -1.736   1.868  0.00  0.00    +0.000 HD
ATOM      2  H   UNK    39     -13.361  -1.736   1.868  0.00  0.00    +0.000 HD
TER 
REMARK  Name = /public/home/mengxl/dzy/yeastbridge_re/product/chembl_branch/structures/fpocket_out/P08913_1HLL/P08913_1HLL.pdb
REMARK                            x       y       z     vdW  Elec       q    Type
REMARK                         _______ _______ _______ _____ _____    ______ ____
ATOM      1  H   UNK    40     -14.021  -1.702   1.761  0.00  0.00    +0.000 HD
ATOM      2  H   UNK    40     -13.432  -1.702   1.761  0.00  0.00    +0.000 HD
TER 
REMARK  Name = /public/home/mengxl/dzy/yeastbridge_re/product/chembl_branch/structures/fpocket_out/P08913_1HLL/P08913_1HLL.pdb
REMARK                            x       y       z     vdW  Elec       q    Type
REMARK                         _______ _______ _______ _____ _____    ______ ____
ATOM      1  H   UNK    41     -14.063  -1.787   1.561  0.00  0.00    +0.000 HD
ATOM      2  H   UNK    41     -13.474  -1.787   1.561  0.00  0.00    +0.000 HD
TER 
REMARK  Name = /public/home/mengxl/dzy/yeastbridge_re/product/chembl_branch/structures/fpocket_out/P08913_1HLL/P08913_1HLL.pdb
REMARK                            x       y       z     vdW  Elec       q    Type
REMARK                         _______ _______ _______ _____ _____    ______ ____
ATOM      1  C   UNK    22      -8.854  -2.444   6.668  0.00  0.00    +0.000 C 
ATOM      2  O   UNK    22      -8.522  -1.835   5.805  0.00  0.00    +0.000 OA
ATOM      3  C   UNK    22      -7.799  -2.609   7.183  0.00  0.00    +0.000 C 
ATOM      4  H   UNK    22      -7.841  -2.318   5.311  0.00  0.00    +0.000 HD
TER 
REMARK  Name = /public/home/mengxl/dzy/yeastbridge_re/product/chembl_branch/structures/fpocket_out/P08913_1HLL/P08913_1HLL.pdb
REMARK                            x       y       z     vdW  Elec       q    Type
REMARK                         _______ _______ _______ _____ _____    ______ ____
ATOM      1  H   UNK    42      -7.477  -2.607   7.218  0.00  0.00    +0.000 HD
ATOM      2  H   UNK    42      -6.888  -2.607   7.218  0.00  0.00    +0.000 HD
TER 
REMARK  Name = /public/home/mengxl/dzy/yeastbridge_re/product/chembl_branch/structures/fpocket_out/P08913_1HLL/P08913_1HLL.pdb
REMARK                            x       y       z     vdW  Elec       q    Type
REMARK                         _______ _______ _______ _____ _____    ______ ____
ATOM      1  H   UNK    43      -7.620  -2.534   7.421  0.00  0.00    +0.000 HD
ATOM      2  H   UNK    43      -7.031  -2.534   7.421  0.00  0.00    +0.000 HD
TER 
REMARK  Name = /public/home/mengxl/dzy/yeastbridge_re/product/chembl_branch/structures/fpocket_out/P08913_1HLL/P08913_1HLL.pdb
REMARK                            x       y       z     vdW  Elec       q    Type
REMARK                         _______ _______ _______ _____ _____    ______ ____
ATOM      1  H   UNK    44      -7.549  -2.805   7.277  0.00  0.00    +0.000 HD
ATOM      2  H   UNK    44      -6.960  -2.805   7.277  0.00  0.00    +0.000 HD
TER 
REMARK  Name = /public/home/mengxl/dzy/yeastbridge_re/product/chembl_branch/structures/fpocket_out/P08913_1HLL/P08913_1HLL.pdb
REMARK                            x       y       z     vdW  Elec       q    Type
REMARK                         _______ _______ _______ _____ _____    ______ ____
ATOM      1  C   UNL    45     -11.577  -6.328   8.859  0.00  0.00    +0.000 C 
ATOM      2  O   UNL    45     -11.601  -6.977   9.385  0.00  0.00    +0.000 OA
ATOM      3  N   UNL    45     -11.909  -6.679   7.911  0.00  0.00    +0.000 N 
ATOM      4  C   UNL    45     -12.339  -7.901   7.409  0.00  0.00    +0.000 C 
ATOM      5  C   UNL    45     -11.304  -8.518   6.621  0.00  0.00    +0.000 C 
ATOM      6  O   UNL    45     -11.416  -9.308   6.249  0.00  0.00    +0.000 OA
ATOM      7  C   UNL    45     -13.545  -7.694   6.634  0.00  0.00    +0.000 C 
ATOM      8  N   UNL    45     -10.320  -8.133   6.392  0.00  0.00    +0.000 N 
ATOM      9  C   UNL    45      -9.265  -8.638   5.655  0.00  0.00    +0.000 C 
ATOM     10  C   UNL    45      -8.307  -9.266   6.448  0.00  0.00    +0.000 C 
ATOM     11  O   UNL    45      -7.978 -10.296   6.328  0.00  0.00    +0.000 OA
ATOM     12  C   UNL    45      -8.681  -7.682   4.840  0.00  0.00    +0.000 C 
ATOM     13  C   UNL    45      -7.471  -8.124   4.527  0.00  0.00    +0.000 C 
ATOM     14  N   UNL    45      -7.888  -8.618   7.241  0.00  0.00    +0.000 N 
ATOM     15  C   UNL    45      -6.974  -9.101   8.054  0.00  0.00    +0.000 C 
ATOM     16  C   UNL    45      -7.470 -10.068   8.763  0.00  0.00    +0.000 C 
ATOM     17  O   UNL    45      -6.854 -10.641   9.290  0.00  0.00    +0.000 OA
ATOM     18  C   UNL    45      -6.585  -8.187   8.807  0.00  0.00    +0.000 C 
ATOM     19  N   UNL    45      -8.578 -10.222   8.754  0.00  0.00    +0.000 N 
ATOM     20  C   UNL    45      -9.163 -11.110   9.389  0.00  0.00    +0.000 C 
ATOM     21  C   UNL    45      -8.864 -12.273   8.872  0.00  0.00    +0.000 C 
ATOM     22  O   UNL    45      -8.676 -13.137   9.470  0.00  0.00    +0.000 OA
ATOM     23  N   UNL    45      -8.830 -12.259   7.764  0.00  0.00    +0.000 N 
ATOM     24  C   UNL    45      -8.557 -13.302   7.159  0.00  0.00    +0.000 C 
ATOM     25  C   UNL    45      -7.544 -13.143   6.293  0.00  0.00    +0.000 C 
ATOM     26  O   UNL    45      -7.765 -13.092   5.299  0.00  0.00    +0.000 OA
ATOM     27  C   UNL    45      -9.661 -13.584   6.518  0.00  0.00    +0.000 C 
ATOM     28  N   UNL    45      -6.454 -13.069   6.703  0.00  0.00    +0.000 N 
ATOM     29  C   UNL    45      -5.406 -12.917   5.978  0.00  0.00    +0.000 C 
ATOM     30  C   UNL    45      -4.375 -13.815   6.261  0.00  0.00    +0.000 C 
ATOM     31  O   UNL    45      -4.040 -14.506   5.598  0.00  0.00    +0.000 OA
ATOM     32  C   UNL    45      -5.030 -11.742   6.019  0.00  0.00    +0.000 C 
ATOM     33  N   UNL    45      -3.901 -13.774   7.246  0.00  0.00    +0.000 N 
ATOM     34  C   UNL    45      -2.915 -14.575   7.625  0.00  0.00    +0.000 C 
ATOM     35  C   UNL    45      -3.293 -15.174   8.672  0.00  0.00    +0.000 C 
ATOM     36  O   UNL    45      -2.791 -15.059   9.533  0.00  0.00    +0.000 OA
ATOM     37  N   UNL    45      -4.176 -15.801   8.564  0.00  0.00    +0.000 N 
ATOM     38  C   UNL    45      -4.627 -16.418   9.492  0.00  0.00    +0.000 C 
ATOM     39  H   UNL    45     -12.506  -7.322   9.432  0.00  0.00    +0.000 HD
ATOM     40  H   UNL    45     -12.695  -6.063   7.706  0.00  0.00    +0.000 HD
ATOM     41  H   UNL    45     -10.973  -6.746   7.511  0.00  0.00    +0.000 HD
ATOM     42  H   UNL    45     -10.140  -7.249   6.786  0.00  0.00    +0.000 HD
ATOM     43  H   UNL    45      -8.197  -7.688   7.337  0.00  0.00    +0.000 HD
ATOM     44  H   UNL    45      -9.123  -9.612   8.206  0.00  0.00    +0.000 HD
ATOM     45  H   UNL    45      -9.014 -11.428   7.269  0.00  0.00    +0.000 HD
ATOM     46  H   UNL    45      -6.329 -13.128   7.678  0.00  0.00    +0.000 HD
ATOM     47  H   UNL    45      -4.226 -13.103   7.889  0.00  0.00    +0.000 HD
ATOM     48  H   UNL    45      -4.616 -15.864   7.686  0.00  0.00    +0.000 HD
TER 
REMARK  Name = /public/home/mengxl/dzy/yeastbridge_re/product/chembl_branch/structures/fpocket_out/P08913_1HLL/P08913_1HLL.pdb
REMARK                            x       y       z     vdW  Elec       q    Type
REMARK                         _______ _______ _______ _____ _____    ______ ____
ATOM      1  C   UNL    46     -12.174  -4.351  10.059  0.00  0.00    +0.000 C 
TER 
REMARK  Name = /public/home/mengxl/dzy/yeastbridge_re/product/chembl_branch/structures/fpocket_out/P08913_1HLL/P08913_1HLL.pdb
REMARK                            x       y       z     vdW  Elec       q    Type
REMARK                         _______ _______ _______ _____ _____    ______ ____
ATOM      1  C   UNL    24     -12.123  -4.358  11.262  0.00  0.00    +0.000 C 
ATOM      2  C   UNL    24     -12.573  -4.377  11.979  0.00  0.00    +0.000 C 
ATOM      3  N   UNL    24     -12.618  -4.386  12.746  0.00  0.00    +0.000 NA
ATOM      4  H   UNL    24     -11.796  -4.370  13.288  0.00  0.00    +0.000 HD
TER 
REMARK  Name = /public/home/mengxl/dzy/yeastbridge_re/product/chembl_branch/structures/fpocket_out/P08913_1HLL/P08913_1HLL.pdb
REMARK                            x       y       z     vdW  Elec       q    Type
REMARK                         _______ _______ _______ _____ _____    ______ ____
ATOM      1  O   HOH    47     -12.859  -4.383  11.843  0.00  0.00    +0.000 OA
ATOM      2  H   HOH    47     -11.889  -4.383  11.843  0.00  0.00    +0.000 HD
ATOM      3  H   HOH    47     -13.182  -4.731  10.997  0.00  0.00    +0.000 HD
TER 
REMARK  Name = /public/home/mengxl/dzy/yeastbridge_re/product/chembl_branch/structures/fpocket_out/P08913_1HLL/P08913_1HLL.pdb
REMARK                            x       y       z     vdW  Elec       q    Type
REMARK                         _______ _______ _______ _____ _____    ______ ____
ATOM      1  H   UNK    48     -12.370  -4.380  12.814  0.00  0.00    +0.000 HD
ATOM      2  H   UNK    48     -11.781  -4.380  12.814  0.00  0.00    +0.000 HD
TER 
REMARK  Name = /public/home/mengxl/dzy/yeastbridge_re/product/chembl_branch/structures/fpocket_out/P08913_1HLL/P08913_1HLL.pdb
REMARK                            x       y       z     vdW  Elec       q    Type
REMARK                         _______ _______ _______ _____ _____    ______ ____
ATOM      1  H   UNK    49     -13.760  -7.550   6.344  0.00  0.00    +0.000 HD
ATOM      2  H   UNK    49     -13.171  -7.550   6.344  0.00  0.00    +0.000 HD
TER 
REMARK  Name = /public/home/mengxl/dzy/yeastbridge_re/product/chembl_branch/structures/fpocket_out/P08913_1HLL/P08913_1HLL.pdb
REMARK                            x       y       z     vdW  Elec       q    Type
REMARK                         _______ _______ _______ _____ _____    ______ ____
ATOM      1  H   UNK    50     -13.871  -7.585   6.604  0.00  0.00    +0.000 HD
ATOM      2  H   UNK    50     -13.282  -7.585   6.604  0.00  0.00    +0.000 HD
TER 
REMARK  Name = /public/home/mengxl/dzy/yeastbridge_re/product/chembl_branch/structures/fpocket_out/P08913_1HLL/P08913_1HLL.pdb
REMARK                            x       y       z     vdW  Elec       q    Type
REMARK                         _______ _______ _______ _____ _____    ______ ____
ATOM      1  C   UNK    25      -9.371  -7.376   3.776  0.00  0.00    +0.000 C 
ATOM      2  C   UNK    25      -9.154  -6.604   3.084  0.00  0.00    +0.000 C 
TER 
REMARK  Name = /public/home/mengxl/dzy/yeastbridge_re/product/chembl_branch/structures/fpocket_out/P08913_1HLL/P08913_1HLL.pdb
REMARK                            x       y       z     vdW  Elec       q    Type
REMARK                         _______ _______ _______ _____ _____    ______ ____
ATOM      1  H   UNK    51      -7.132  -8.113   4.598  0.00  0.00    +0.000 HD
ATOM      2  H   UNK    51      -6.543  -8.113   4.598  0.00  0.00    +0.000 HD
TER 
REMARK  Name = /public/home/mengxl/dzy/yeastbridge_re/product/chembl_branch/structures/fpocket_out/P08913_1HLL/P08913_1HLL.pdb
REMARK                            x       y       z     vdW  Elec       q    Type
REMARK                         _______ _______ _______ _____ _____    ______ ____
ATOM      1  H   UNK    52      -7.274  -8.379   4.459  0.00  0.00    +0.000 HD
ATOM      2  H   UNK    52      -6.685  -8.379   4.459  0.00  0.00    +0.000 HD
TER 
REMARK  Name = /public/home/mengxl/dzy/yeastbridge_re/product/chembl_branch/structures/fpocket_out/P08913_1HLL/P08913_1HLL.pdb
REMARK                            x       y       z     vdW  Elec       q    Type
REMARK                         _______ _______ _______ _____ _____    ______ ____
ATOM      1  H   UNK    53      -8.890  -6.527   2.996  0.00  0.00    +0.000 HD
ATOM      2  H   UNK    55      -9.245  -6.240   2.974  0.00  0.00    +0.000 HD
TER 
REMARK  Name = /public/home/mengxl/dzy/yeastbridge_re/product/chembl_branch/structures/fpocket_out/P08913_1HLL/P08913_1HLL.pdb
REMARK                            x       y       z     vdW  Elec       q    Type
REMARK                         _______ _______ _______ _____ _____    ______ ____
ATOM      1  H   UNK    54      -9.174  -6.496   2.788  0.00  0.00    +0.000 HD
ATOM      2  H   UNK    54      -8.585  -6.496   2.788  0.00  0.00    +0.000 HD
TER 
REMARK  Name = /public/home/mengxl/dzy/yeastbridge_re/product/chembl_branch/structures/fpocket_out/P08913_1HLL/P08913_1HLL.pdb
REMARK                            x       y       z     vdW  Elec       q    Type
REMARK                         _______ _______ _______ _____ _____    ______ ____
ATOM      1  C   UNK    26      -5.451  -8.216   9.085  0.00  0.00    +0.000 C 
ATOM      2  C   UNK    26      -4.926  -7.728   9.321  0.00  0.00    +0.000 C 
TER 
REMARK  Name = /public/home/mengxl/dzy/yeastbridge_re/product/chembl_branch/structures/fpocket_out/P08913_1HLL/P08913_1HLL.pdb
REMARK                            x       y       z     vdW  Elec       q    Type
REMARK                         _______ _______ _______ _____ _____    ______ ____
ATOM      1  O   HOH    56      -4.726  -7.498   9.452  0.00  0.00    +0.000 OA
ATOM      2  H   HOH    56      -3.756  -7.498   9.452  0.00  0.00    +0.000 HD
ATOM      3  H   HOH    56      -5.049  -6.776  10.013  0.00  0.00    +0.000 HD
TER 
REMARK  Name = /public/home/mengxl/dzy/yeastbridge_re/product/chembl_branch/structures/fpocket_out/P08913_1HLL/P08913_1HLL.pdb
REMARK                            x       y       z     vdW  Elec       q    Type
REMARK                         _______ _______ _______ _____ _____    ______ ____
ATOM      1  O   HOH    57      -4.738  -7.596   9.364  0.00  0.00    +0.000 OA
ATOM      2  H   HOH    57      -3.768  -7.596   9.364  0.00  0.00    +0.000 HD
ATOM      3  H   HOH    57      -5.061  -6.683   9.413  0.00  0.00    +0.000 HD
TER 
REMARK  Name = /public/home/mengxl/dzy/yeastbridge_re/product/chembl_branch/structures/fpocket_out/P08913_1HLL/P08913_1HLL.pdb
REMARK                            x       y       z     vdW  Elec       q    Type
REMARK                         _______ _______ _______ _____ _____    ______ ____
ATOM      1  H   UNK    58      -5.239  -8.356   8.865  0.00  0.00    +0.000 HD
ATOM      2  H   UNK    58      -4.650  -8.356   8.865  0.00  0.00    +0.000 HD
TER 
REMARK  Name = /public/home/mengxl/dzy/yeastbridge_re/product/chembl_branch/structures/fpocket_out/P08913_1HLL/P08913_1HLL.pdb
REMARK                            x       y       z     vdW  Elec       q    Type
REMARK                         _______ _______ _______ _____ _____    ______ ____
ATOM      1  C   UNL    59     -10.517 -10.757   9.313  0.00  0.00    +0.000 C 
TER 
REMARK  Name = /public/home/mengxl/dzy/yeastbridge_re/product/chembl_branch/structures/fpocket_out/P08913_1HLL/P08913_1HLL.pdb
REMARK                            x       y       z     vdW  Elec       q    Type
REMARK                         _______ _______ _______ _____ _____    ______ ____
ATOM      1  C   UNL    28     -11.218 -10.765  10.273  0.00  0.00    +0.000 C 
ATOM      2  C   UNL    28     -11.605 -11.055  10.928  0.00  0.00    +0.000 C 
ATOM      3  C   UNL    28     -11.463 -10.483  10.485  0.00  0.00    +0.000 C 
TER 
REMARK  Name = /public/home/mengxl/dzy/yeastbridge_re/product/chembl_branch/structures/fpocket_out/P08913_1HLL/P08913_1HLL.pdb
REMARK                            x       y       z     vdW  Elec       q    Type
REMARK                         _______ _______ _______ _____ _____    ______ ____
ATOM      1  C   UNL    29     -12.265 -11.063  11.831  0.00  0.00    +0.000 C 
ATOM      2  C   UNL    29     -12.122 -10.491  11.388  0.00  0.00    +0.000 C 
ATOM      3  C   UNL    29     -12.490 -10.781  12.017  0.00  0.00    +0.000 C 
TER 
REMARK  Name = /public/home/mengxl/dzy/yeastbridge_re/product/chembl_branch/structures/fpocket_out/P08913_1HLL/P08913_1HLL.pdb
REMARK                            x       y       z     vdW  Elec       q    Type
REMARK                         _______ _______ _______ _____ _____    ______ ____
ATOM      1  O   HOH    60     -13.113 -10.789  12.870  0.00  0.00    +0.000 OA
ATOM      2  H   HOH    60     -12.143 -10.789  12.870  0.00  0.00    +0.000 HD
ATOM      3  H   HOH    60     -13.436  -9.945  13.223  0.00  0.00    +0.000 HD
TER 
REMARK  Name = /public/home/mengxl/dzy/yeastbridge_re/product/chembl_branch/structures/fpocket_out/P08913_1HLL/P08913_1HLL.pdb
REMARK                            x       y       z     vdW  Elec       q    Type
REMARK                         _______ _______ _______ _____ _____    ______ ____
ATOM      1  H   UNK    61     -13.318 -10.821  12.931  0.00  0.00    +0.000 HD
ATOM      2  H   UNK    61     -12.729 -10.821  12.931  0.00  0.00    +0.000 HD
TER 
REMARK  Name = /public/home/mengxl/dzy/yeastbridge_re/product/chembl_branch/structures/fpocket_out/P08913_1HLL/P08913_1HLL.pdb
REMARK                            x       y       z     vdW  Elec       q    Type
REMARK                         _______ _______ _______ _____ _____    ______ ____
ATOM      1  C   UNK    30     -10.273 -14.464   6.984  0.00  0.00    +0.000 C 
ATOM      2  O   UNK    30     -10.338 -15.065   6.669  0.00  0.00    +0.000 OA
ATOM      3  N   UNK    30     -10.718 -14.505   7.751  0.00  0.00    +0.000 N 
ATOM      4  H   UNK    30     -11.277 -15.247   6.510  0.00  0.00    +0.000 HD
ATOM      5  H   UNK    30     -11.700 -14.709   7.564  0.00  0.00    +0.000 HD
ATOM      6  H   UNK    30     -10.643 -13.611   8.236  0.00  0.00    +0.000 HD
ATOM      7  H   UNK    30     -10.323 -15.242   8.334  0.00  0.00    +0.000 HD
TER 
REMARK  Name = /public/home/mengxl/dzy/yeastbridge_re/product/chembl_branch/structures/fpocket_out/P08913_1HLL/P08913_1HLL.pdb
REMARK                            x       y       z     vdW  Elec       q    Type
REMARK                         _______ _______ _______ _____ _____    ______ ____
ATOM      1  C   UNK    31      -4.046 -11.453   5.275  0.00  0.00    +0.000 C 
ATOM      2  C   UNK    31      -4.071 -10.795   4.540  0.00  0.00    +0.000 C 
ATOM      3  C   UNK    31      -3.317 -11.196   5.671  0.00  0.00    +0.000 C 
TER 
REMARK  Name = /public/home/mengxl/dzy/yeastbridge_re/product/chembl_branch/structures/fpocket_out/P08913_1HLL/P08913_1HLL.pdb
REMARK                            x       y       z     vdW  Elec       q    Type
REMARK                         _______ _______ _______ _____ _____    ______ ____
ATOM      1  H   UNK    62      -4.325 -10.528   4.589  0.00  0.00    +0.000 HD
ATOM      2  H   UNK    62      -3.736 -10.528   4.589  0.00  0.00    +0.000 HD
TER 
REMARK  Name = /public/home/mengxl/dzy/yeastbridge_re/product/chembl_branch/structures/fpocket_out/P08913_1HLL/P08913_1HLL.pdb
REMARK                            x       y       z     vdW  Elec       q    Type
REMARK                         _______ _______ _______ _____ _____    ______ ____
ATOM      1  H   UNK    63      -3.086 -11.132   5.501  0.00  0.00    +0.000 HD
ATOM      2  H   UNK    63      -2.497 -11.132   5.501  0.00  0.00    +0.000 HD
TER 
REMARK  Name = /public/home/mengxl/dzy/yeastbridge_re/product/chembl_branch/structures/fpocket_out/P08913_1HLL/P08913_1HLL.pdb
REMARK                            x       y       z     vdW  Elec       q    Type
REMARK                         _______ _______ _______ _____ _____    ______ ____
ATOM      1  H   UNK    64      -3.070 -11.248   5.747  0.00  0.00    +0.000 HD
ATOM      2  H   UNK    64      -2.481 -11.248   5.747  0.00  0.00    +0.000 HD
TER 
REMARK  Name = /public/home/mengxl/dzy/yeastbridge_re/product/chembl_branch/structures/fpocket_out/P08913_1HLL/P08913_1HLL.pdb
REMARK                            x       y       z     vdW  Elec       q    Type
REMARK                         _______ _______ _______ _____ _____    ______ ____
ATOM      1  C   UNK    32      -1.744 -14.034   7.723  0.00  0.00    +0.000 C 
ATOM      2  C   UNK    32      -0.816 -14.441   7.899  0.00  0.00    +0.000 C 
TER 
REMARK  Name = /public/home/mengxl/dzy/yeastbridge_re/product/chembl_branch/structures/fpocket_out/P08913_1HLL/P08913_1HLL.pdb
REMARK                            x       y       z     vdW  Elec       q    Type
REMARK                         _______ _______ _______ _____ _____    ______ ____
ATOM      1  C   UNK    33       0.157 -14.119   8.112  0.00  0.00    +0.000 C 
ATOM      2  C   UNK    33       0.756 -14.501   8.606  0.00  0.00    +0.000 C 
ATOM      3  N   UNK    33       1.592 -14.323   8.737  0.00  0.00    +0.000 N 
ATOM      4  H   UNK    33       2.133 -14.615   7.923  0.00  0.00    +0.000 HD
ATOM      5  H   UNK    33       1.921 -14.824   9.562  0.00  0.00    +0.000 HD
ATOM      6  H   UNK    33       1.708 -13.320   8.880  0.00  0.00    +0.000 HD
TER 
REMARK  Name = /public/home/mengxl/dzy/yeastbridge_re/product/chembl_branch/structures/fpocket_out/P08913_1HLL/P08913_1HLL.pdb
REMARK                            x       y       z     vdW  Elec       q    Type
REMARK                         _______ _______ _______ _____ _____    ______ ____
ATOM      1  H   UNK    65      -0.790 -14.692   8.195  0.00  0.00    +0.000 HD
ATOM      2  H   UNK    65      -0.201 -14.692   8.195  0.00  0.00    +0.000 HD
TER 
REMARK  Name = /public/home/mengxl/dzy/yeastbridge_re/product/chembl_branch/structures/fpocket_out/P08913_1HLL/P08913_1HLL.pdb
REMARK                            x       y       z     vdW  Elec       q    Type
REMARK                         _______ _______ _______ _____ _____    ______ ____
ATOM      1  H   UNK    66       0.287 -13.780   8.256  0.00  0.00    +0.000 HD
ATOM      2  H   UNK    66       0.876 -13.780   8.256  0.00  0.00    +0.000 HD
TER 
REMARK  Name = /public/home/mengxl/dzy/yeastbridge_re/product/chembl_branch/structures/fpocket_out/P08913_1HLL/P08913_1HLL.pdb
REMARK                            x       y       z     vdW  Elec       q    Type
REMARK                         _______ _______ _______ _____ _____    ______ ____
ATOM      1  H   UNK    67       0.668 -14.816   8.487  0.00  0.00    +0.000 HD
ATOM      2  H   UNK    67       1.257 -14.816   8.487  0.00  0.00    +0.000 HD
TER 
REMARK  Name = /public/home/mengxl/dzy/yeastbridge_re/product/chembl_branch/structures/fpocket_out/P08913_1HLL/P08913_1HLL.pdb
REMARK                            x       y       z     vdW  Elec       q    Type
REMARK                         _______ _______ _______ _____ _____    ______ ____
ATOM      1  H   UNK    68       1.691 -14.439   8.898  0.00  0.00    +0.000 HD
ATOM      2  H   UNK    68       2.280 -14.439   8.898  0.00  0.00    +0.000 HD
TER 
REMARK  Name = /public/home/mengxl/dzy/yeastbridge_re/product/chembl_branch/structures/fpocket_out/P08913_1HLL/P08913_1HLL.pdb
REMARK                            x       y       z     vdW  Elec       q    Type
REMARK                         _______ _______ _______ _____ _____    ______ ____
ATOM      1  H   UNK    69       1.696 -14.342   8.606  0.00  0.00    +0.000 HD
ATOM      2  H   UNK    69       2.285 -14.342   8.606  0.00  0.00    +0.000 HD
TER 
REMARK  Name = /public/home/mengxl/dzy/yeastbridge_re/product/chembl_branch/structures/fpocket_out/P08913_1HLL/P08913_1HLL.pdb
REMARK                            x       y       z     vdW  Elec       q    Type
REMARK                         _______ _______ _______ _____ _____    ______ ____
ATOM      1  C   HOH    34      -4.411 -17.588   9.373  0.00  0.00    +0.000 C 
ATOM      2  O   HOH    34      -4.232 -17.860   8.512  0.00  0.00    +0.000 OA
ATOM      3  H   HOH    34      -4.556 -17.192   7.888  0.00  0.00    +0.000 HD
TER 
REMARK  Name = /public/home/mengxl/dzy/yeastbridge_re/product/chembl_branch/structures/fpocket_out/P08913_1HLL/P08913_1HLL.pdb
REMARK                            x       y       z     vdW  Elec       q    Type
REMARK                         _______ _______ _______ _____ _____    ______ ____
ATOM      1  C   UNL    35      -5.938 -16.161   9.656  0.00  0.00    +0.000 C 
ATOM      2  C   UNL    35      -6.243 -16.038  10.401  0.00  0.00    +0.000 C 
TER 
REMARK  Name = /public/home/mengxl/dzy/yeastbridge_re/product/chembl_branch/structures/fpocket_out/P08913_1HLL/P08913_1HLL.pdb
REMARK                            x       y       z     vdW  Elec       q    Type
REMARK                         _______ _______ _______ _____ _____    ______ ____
ATOM      1  C   UNL    70      -7.264 -16.203  10.676  0.00  0.00    +0.000 C 
TER 
REMARK  Name = /public/home/mengxl/dzy/yeastbridge_re/product/chembl_branch/structures/fpocket_out/P08913_1HLL/P08913_1HLL.pdb
REMARK                            x       y       z     vdW  Elec       q    Type
REMARK                         _______ _______ _______ _____ _____    ______ ____
ATOM      1  N   UNL    71      -7.675 -16.471  11.188  0.00  0.00    +0.000 N 
ATOM      2  H   UNL    71      -6.655 -16.471  11.188  0.00  0.00    +0.000 HD
ATOM      3  H   UNL    71      -8.015 -16.271  10.247  0.00  0.00    +0.000 HD
ATOM      4  H   UNL    71      -8.015 -15.756  11.831  0.00  0.00    +0.000 HD
ATOM      5  H   UNL    71      -8.015 -17.385  11.486  0.00  0.00    +0.000 HD
TER 
REMARK  Name = /public/home/mengxl/dzy/yeastbridge_re/product/chembl_branch/structures/fpocket_out/P08913_1HLL/P08913_1HLL.pdb
REMARK                            x       y       z     vdW  Elec       q    Type
REMARK                         _______ _______ _______ _____ _____    ______ ____
ATOM      1  C   UNL    72      -8.122 -16.630  11.394  0.00  0.00    +0.000 C 
TER 
REMARK  Name = /public/home/mengxl/dzy/yeastbridge_re/product/chembl_branch/structures/fpocket_out/P08913_1HLL/P08913_1HLL.pdb
REMARK                            x       y       z     vdW  Elec       q    Type
REMARK                         _______ _______ _______ _____ _____    ______ ____
ATOM      1  N   UNL    73      -8.218 -16.549  11.132  0.00  0.00    +0.000 N 
ATOM      2  H   UNL    73      -7.198 -16.549  11.132  0.00  0.00    +0.000 HD
ATOM      3  H   UNL    73      -8.558 -15.972  11.901  0.00  0.00    +0.000 HD
ATOM      4  H   UNL    73      -8.558 -17.504  11.247  0.00  0.00    +0.000 HD
ATOM      5  H   UNL    73      -8.558 -16.171  10.248  0.00  0.00    +0.000 HD
TER 
REMARK  Name = /public/home/mengxl/dzy/yeastbridge_re/product/chembl_branch/structures/fpocket_out/P08913_1HLL/P08913_1HLL.pdb
REMARK                            x       y       z     vdW  Elec       q    Type
REMARK                         _______ _______ _______ _____ _____    ______ ____
ATOM      1  N   UNL    74      -8.473 -16.869  11.861  0.00  0.00    +0.000 N 
ATOM      2  H   UNL    74      -7.453 -16.869  11.861  0.00  0.00    +0.000 HD
ATOM      3  H   UNL    74      -8.813 -15.919  11.709  0.00  0.00    +0.000 HD
ATOM      4  H   UNL    74      -8.813 -17.212  12.759  0.00  0.00    +0.000 HD
ATOM      5  H   UNL    74      -8.813 -17.475  11.114  0.00  0.00    +0.000 HD
TER 
REMARK  Name = /public/home/mengxl/dzy/yeastbridge_re/product/chembl_branch/structures/fpocket_out/P08913_1HLL/P08913_1HLL.pdb
REMARK                            x       y       z     vdW  Elec       q    Type
REMARK                         _______ _______ _______ _____ _____    ______ ____
ATOM      1  H   UNK    75      -6.147 -15.664  10.482  0.00  0.00    +0.000 HD
ATOM      2  H   UNK    75      -5.558 -15.664  10.482  0.00  0.00    +0.000 HD
TER 
REMARK  Name = /public/home/mengxl/dzy/yeastbridge_re/product/chembl_branch/structures/fpocket_out/P08913_1HLL/P08913_1HLL.pdb
REMARK                            x       y       z     vdW  Elec       q    Type
REMARK                         _______ _______ _______ _____ _____    ______ ____
ATOM      1  H   UNK    76      -7.525 -15.974  10.655  0.00  0.00    +0.000 HD
ATOM      2  H   UNK    76      -6.936 -15.974  10.655  0.00  0.00    +0.000 HD
TER 
REMARK  Name = /public/home/mengxl/dzy/yeastbridge_re/product/chembl_branch/structures/fpocket_out/P08913_1HLL/P08913_1HLL.pdb
REMARK                            x       y       z     vdW  Elec       q    Type
REMARK                         _______ _______ _______ _____ _____    ______ ____
ATOM      1  H   UNK    77      -7.442 -16.350  10.508  0.00  0.00    +0.000 HD
ATOM      2  H   UNK    77      -6.853 -16.350  10.508  0.00  0.00    +0.000 HD
TER 
REMARK  Name = /public/home/mengxl/dzy/yeastbridge_re/product/chembl_branch/structures/fpocket_out/P08913_1HLL/P08913_1HLL.pdb
REMARK                            x       y       z     vdW  Elec       q    Type
REMARK                         _______ _______ _______ _____ _____    ______ ____
ATOM      1  H   UNK    78      -8.402 -16.929  12.057  0.00  0.00    +0.000 HD
ATOM      2  H   UNK    79      -8.807 -16.988  12.015  0.00  0.00    +0.000 HD
TER 
REMARK  Name = /public/home/mengxl/dzy/yeastbridge_re/product/chembl_branch/structures/fpocket_out/P08913_1HLL/P08913_1HLL.pdb
REMARK                            x       y       z     vdW  Elec       q    Type
REMARK                         _______ _______ _______ _____ _____    ______ ____
ATOM      1  N   UNL    80      -4.436 -18.249  10.249  0.00  0.00    +0.000 N 
ATOM      2  H   UNL    80      -3.416 -18.249  10.249  0.00  0.00    +0.000 HD
ATOM      3  H   UNL    80      -4.776 -18.245  11.211  0.00  0.00    +0.000 HD
ATOM      4  H   UNL    80      -4.776 -19.084   9.771  0.00  0.00    +0.000 HD
ATOM      5  H   UNL    80      -4.776 -17.418   9.765  0.00  0.00    +0.000 HD
TER 
REMARK  Name = /public/home/mengxl/dzy/yeastbridge_re/product/chembl_branch/structures/fpocket_out/P08913_1HLL/P08913_1HLL.pdb
REMARK                            x       y       z     vdW  Elec       q    Type
REMARK                         _______ _______ _______ _____ _____    ______ ____
ATOM      1  C   UNK    42      -4.246 -19.384  10.253  0.00  0.00    +0.000 C 
ATOM      2  C   UNK    42      -4.419 -19.333   9.701  0.00  0.00    +0.000 C 
TER 
REMARK  Name = /public/home/mengxl/dzy/yeastbridge_re/product/chembl_branch/structures/fpocket_out/P08913_1HLL/P08913_1HLL.pdb
REMARK                            x       y       z     vdW  Elec       q    Type
REMARK                         _______ _______ _______ _____ _____    ______ ____
ATOM      1  C   UNK    43      -4.339 -19.712  10.246  0.00  0.00    +0.000 C 
ATOM      2  C   UNK    43      -3.988 -19.822  10.409  0.00  0.00    +0.000 C 
TER 
REMARK  Name = /public/home/mengxl/dzy/yeastbridge_re/product/chembl_branch/structures/fpocket_out/P08913_1HLL/P08913_1HLL.pdb
REMARK                            x       y       z     vdW  Elec       q    Type
REMARK                         _______ _______ _______ _____ _____    ______ ____
ATOM      1  O   HOH    81      -4.379 -19.971  10.393  0.00  0.00    +0.000 OA
ATOM      2  H   HOH    81      -3.409 -19.971  10.393  0.00  0.00    +0.000 HD
ATOM      3  H   HOH    81      -4.702 -19.856  11.300  0.00  0.00    +0.000 HD
TER 
REMARK  Name = /public/home/mengxl/dzy/yeastbridge_re/product/chembl_branch/structures/fpocket_out/P08913_1HLL/P08913_1HLL.pdb
REMARK                            x       y       z     vdW  Elec       q    Type
REMARK                         _______ _______ _______ _____ _____    ______ ____
ATOM      1  O   HOH    82      -4.342 -20.144  10.651  0.00  0.00    +0.000 OA
ATOM      2  H   HOH    82      -3.372 -20.144  10.651  0.00  0.00    +0.000 HD
ATOM      3  H   HOH    82      -4.665 -21.029  10.883  0.00  0.00    +0.000 HD
TER 
REMARK  Name = /public/home/mengxl/dzy/yeastbridge_re/product/chembl_branch/structures/fpocket_out/P08913_1HLL/P08913_1HLL.pdb
REMARK                            x       y       z     vdW  Elec       q    Type
REMARK                         _______ _______ _______ _____ _____    ______ ____
ATOM      1  C   UNL    83      -3.802 -20.101  10.889  0.00  0.00    +0.000 C 
TER 
REMARK  Name = /public/home/mengxl/dzy/yeastbridge_re/product/chembl_branch/structures/fpocket_out/P08913_1HLL/P08913_1HLL.pdb
REMARK                            x       y       z     vdW  Elec       q    Type
REMARK                         _______ _______ _______ _____ _____    ______ ____
ATOM      1  H   UNK    84      -3.709 -19.715  10.040  0.00  0.00    +0.000 HD
ATOM      2  H   UNK    84      -3.120 -19.715  10.040  0.00  0.00    +0.000 HD
TER 
REMARK  Name = /public/home/mengxl/dzy/yeastbridge_re/product/chembl_branch/structures/fpocket_out/P08913_1HLL/P08913_1HLL.pdb
REMARK                            x       y       z     vdW  Elec       q    Type
REMARK                         _______ _______ _______ _____ _____    ______ ____
ATOM      1  H   UNK    85      -3.789 -19.964  11.079  0.00  0.00    +0.000 HD
ATOM      2  H   UNK    85      -3.200 -19.964  11.079  0.00  0.00    +0.000 HD
TER 
REMARK  Name = /public/home/mengxl/dzy/yeastbridge_re/product/chembl_branch/structures/fpocket_out/P08913_1HLL/P08913_1HLL.pdb
REMARK                            x       y       z     vdW  Elec       q    Type
REMARK                         _______ _______ _______ _____ _____    ______ ____
ATOM      1  N   UNL    86      -4.370 -19.691  10.068  0.00  0.00    +0.000 N 
ATOM      2  H   UNL    86      -3.350 -19.691  10.068  0.00  0.00    +0.000 HD
ATOM      3  H   UNL    86      -4.710 -20.371  10.748  0.00  0.00    +0.000 HD
ATOM      4  H   UNL    86      -4.710 -19.940   9.139  0.00  0.00    +0.000 HD
ATOM      5  H   UNL    86      -4.710 -18.762  10.317  0.00  0.00    +0.000 HD
TER 
REMARK  Name = /public/home/mengxl/dzy/yeastbridge_re/product/chembl_branch/structures/fpocket_out/P08913_1HLL/P08913_1HLL.pdb
REMARK                            x       y       z     vdW  Elec       q    Type
REMARK                         _______ _______ _______ _____ _____    ______ ____
ATOM      1  C   UNL    87      -4.457 -19.983  10.040  0.00  0.00    +0.000 C 
TER 
REMARK  Name = /public/home/mengxl/dzy/yeastbridge_re/product/chembl_branch/structures/fpocket_out/P08913_1HLL/P08913_1HLL.pdb
REMARK                            x       y       z     vdW  Elec       q    Type
REMARK                         _______ _______ _______ _____ _____    ______ ____
ATOM      1  C   HOH    47      -4.290 -21.184  10.307  0.00  0.00    +0.000 C 
ATOM      2  O   HOH    47      -3.882 -21.911  10.433  0.00  0.00    +0.000 OA
ATOM      3  H   HOH    47      -3.470 -22.198   9.603  0.00  0.00    +0.000 HD
TER 
REMARK  Name = /public/home/mengxl/dzy/yeastbridge_re/product/chembl_branch/structures/fpocket_out/P08913_1HLL/P08913_1HLL.pdb
REMARK                            x       y       z     vdW  Elec       q    Type
REMARK                         _______ _______ _______ _____ _____    ______ ____
ATOM      1  C   UNL    88      -4.532 -19.536   9.764  0.00  0.00    +0.000 C 
TER 
REMARK  Name = /public/home/mengxl/dzy/yeastbridge_re/product/chembl_branch/structures/fpocket_out/P08913_1HLL/P08913_1HLL.pdb
REMARK                            x       y       z     vdW  Elec       q    Type
REMARK                         _______ _______ _______ _____ _____    ______ ____
ATOM      1  C   UNL    89      -4.324 -19.389   9.890  0.00  0.00    +0.000 C 
TER 
REMARK  Name = /public/home/mengxl/dzy/yeastbridge_re/product/chembl_branch/structures/fpocket_out/P08913_1HLL/P08913_1HLL.pdb
REMARK                            x       y       z     vdW  Elec       q    Type
REMARK                         _______ _______ _______ _____ _____    ______ ____
ATOM      1  H   UNK    90      -4.153 -19.968  10.024  0.00  0.00    +0.000 HD
ATOM      2  H   UNK    90      -3.564 -19.968  10.024  0.00  0.00    +0.000 HD
TER 
REMARK  Name = /public/home/mengxl/dzy/yeastbridge_re/product/chembl_branch/structures/fpocket_out/P08913_1HLL/P08913_1HLL.pdb
REMARK                            x       y       z     vdW  Elec       q    Type
REMARK                         _______ _______ _______ _____ _____    ______ ____
ATOM      1  N   UNL    91      -4.614 -21.355  10.385  0.00  0.00    +0.000 N 
ATOM      2  H   UNL    91      -3.594 -21.355  10.385  0.00  0.00    +0.000 HD
ATOM      3  H   UNL    91      -4.954 -22.160  10.911  0.00  0.00    +0.000 HD
ATOM      4  H   UNL    91      -4.954 -21.408   9.425  0.00  0.00    +0.000 HD
ATOM      5  H   UNL    91      -4.954 -20.497  10.820  0.00  0.00    +0.000 HD
TER 
REMARK  Name = /public/home/mengxl/dzy/yeastbridge_re/product/chembl_branch/structures/fpocket_out/P08913_1HLL/P08913_1HLL.pdb
REMARK                            x       y       z     vdW  Elec       q    Type
REMARK                         _______ _______ _______ _____ _____    ______ ____
ATOM      1  C   UNK    51      -4.506 -22.456  10.634  0.00  0.00    +0.000 C 
ATOM      2  C   UNK    51      -4.485 -22.660  11.013  0.00  0.00    +0.000 C 
TER 
REMARK  Name = /public/home/mengxl/dzy/yeastbridge_re/product/chembl_branch/structures/fpocket_out/P08913_1HLL/P08913_1HLL.pdb
REMARK                            x       y       z     vdW  Elec       q    Type
REMARK                         _______ _______ _______ _____ _____    ______ ____
ATOM      1  C   UNK    52      -4.794 -22.614  10.440  0.00  0.00    +0.000 C 
ATOM      2  O   UNK    52      -5.055 -22.087  10.279  0.00  0.00    +0.000 OA
ATOM      3  H   UNK    52      -5.672 -22.242   9.547  0.00  0.00    +0.000 HD
TER 
REMARK  Name = /public/home/mengxl/dzy/yeastbridge_re/product/chembl_branch/structures/fpocket_out/P08913_1HLL/P08913_1HLL.pdb
REMARK                            x       y       z     vdW  Elec       q    Type
REMARK                         _______ _______ _______ _____ _____    ______ ____
ATOM      1  C   UNL    92      -4.228 -23.287  11.198  0.00  0.00    +0.000 C 
TER 
REMARK  Name = /public/home/mengxl/dzy/yeastbridge_re/product/chembl_branch/structures/fpocket_out/P08913_1HLL/P08913_1HLL.pdb
REMARK                            x       y       z     vdW  Elec       q    Type
REMARK                         _______ _______ _______ _____ _____    ______ ____
ATOM      1  C   UNL    93      -4.170 -23.513  11.267  0.00  0.00    +0.000 C 
TER 
REMARK  Name = /public/home/mengxl/dzy/yeastbridge_re/product/chembl_branch/structures/fpocket_out/P08913_1HLL/P08913_1HLL.pdb
REMARK                            x       y       z     vdW  Elec       q    Type
REMARK                         _______ _______ _______ _____ _____    ______ ____
ATOM      1  N   UNK    55      -4.068 -23.812  11.306  0.00  0.00    +0.000 NA
ATOM      2  N   UNK    55      -3.989 -24.171  11.482  0.00  0.00    +0.000 NA
ATOM      3  H   UNK    55      -3.339 -23.295  10.894  0.00  0.00    +0.000 HD
ATOM      4  H   UNK    55      -4.718 -24.688  11.894  0.00  0.00    +0.000 HD
TER 
REMARK  Name = /public/home/mengxl/dzy/yeastbridge_re/product/chembl_branch/structures/fpocket_out/P08913_1HLL/P08913_1HLL.pdb
REMARK                            x       y       z     vdW  Elec       q    Type
REMARK                         _______ _______ _______ _____ _____    ______ ____
ATOM      1  C   UNL    94      -3.984 -24.119  11.408  0.00  0.00    +0.000 C 
TER 
REMARK  Name = /public/home/mengxl/dzy/yeastbridge_re/product/chembl_branch/structures/fpocket_out/P08913_1HLL/P08913_1HLL.pdb
REMARK                            x       y       z     vdW  Elec       q    Type
REMARK                         _______ _______ _______ _____ _____    ______ ____
ATOM      1  N   UNL    95      -3.895 -24.376  11.436  0.00  0.00    +0.000 N 
ATOM      2  H   UNL    95      -2.875 -24.376  11.436  0.00  0.00    +0.000 HD
ATOM      3  H   UNL    95      -4.235 -24.731  10.542  0.00  0.00    +0.000 HD
ATOM      4  H   UNL    95      -4.235 -23.424  11.575  0.00  0.00    +0.000 HD
ATOM      5  H   UNL    95      -4.235 -24.972  12.190  0.00  0.00    +0.000 HD
TER 
REMARK  Name = /public/home/mengxl/dzy/yeastbridge_re/product/chembl_branch/structures/fpocket_out/P08913_1HLL/P08913_1HLL.pdb
REMARK                            x       y       z     vdW  Elec       q    Type
REMARK                         _______ _______ _______ _____ _____    ______ ____
ATOM      1  H   UNK    96      -4.198 -23.297  11.109  0.00  0.00    +0.000 HD
ATOM      2  H   UNK    96      -3.609 -23.297  11.109  0.00  0.00    +0.000 HD
TER 
REMARK  Name = /public/home/mengxl/dzy/yeastbridge_re/product/chembl_branch/structures/fpocket_out/P08913_1HLL/P08913_1HLL.pdb
REMARK                            x       y       z     vdW  Elec       q    Type
REMARK                         _______ _______ _______ _____ _____    ______ ____
ATOM      1  H   UNK    97      -4.109 -23.577  11.373  0.00  0.00    +0.000 HD
ATOM      2  H   UNK    97      -3.520 -23.577  11.373  0.00  0.00    +0.000 HD
TER 
REMARK  Name = /public/home/mengxl/dzy/yeastbridge_re/product/chembl_branch/structures/fpocket_out/P08913_1HLL/P08913_1HLL.pdb
REMARK                            x       y       z     vdW  Elec       q    Type
REMARK                         _______ _______ _______ _____ _____    ______ ____
ATOM      1  H   UNK    98      -4.062 -23.782  11.252  0.00  0.00    +0.000 HD
ATOM      2  H   UNK    98      -3.473 -23.782  11.252  0.00  0.00    +0.000 HD
TER 
REMARK  Name = /public/home/mengxl/dzy/yeastbridge_re/product/chembl_branch/structures/fpocket_out/P08913_1HLL/P08913_1HLL.pdb
REMARK                            x       y       z     vdW  Elec       q    Type
REMARK                         _______ _______ _______ _____ _____    ______ ____
ATOM      1  H   UNK    99      -3.927 -24.401  11.558  0.00  0.00    +0.000 HD
ATOM      2  H   UNK    99      -3.338 -24.401  11.558  0.00  0.00    +0.000 HD
TER 
REMARK  Name = /public/home/mengxl/dzy/yeastbridge_re/product/chembl_branch/structures/fpocket_out/P08913_1HLL/P08913_1HLL.pdb
REMARK                            x       y       z     vdW  Elec       q    Type
REMARK                         _______ _______ _______ _____ _____    ______ ____
ATOM      1  H   UNK   100      -3.892 -24.337  11.380  0.00  0.00    +0.000 HD
ATOM      2  H   UNK   100      -3.303 -24.337  11.380  0.00  0.00    +0.000 HD
TER 
REMARK  Name = /public/home/mengxl/dzy/yeastbridge_re/product/chembl_branch/structures/fpocket_out/P08913_1HLL/P08913_1HLL.pdb
REMARK                            x       y       z     vdW  Elec       q    Type
REMARK                         _______ _______ _______ _____ _____    ______ ____
ATOM      1  N   UNL   101      -4.738 -23.342  10.460  0.00  0.00    +0.000 N 
ATOM      2  H   UNL   101      -3.718 -23.342  10.460  0.00  0.00    +0.000 HD
ATOM      3  H   UNL   101      -5.078 -23.164  11.405  0.00  0.00    +0.000 HD
ATOM      4  H   UNL   101      -5.078 -24.249  10.141  0.00  0.00    +0.000 HD
ATOM      5  H   UNL   101      -5.078 -22.612   9.834  0.00  0.00    +0.000 HD
TER 
REMARK  Name = /public/home/mengxl/dzy/yeastbridge_re/product/chembl_branch/structures/fpocket_out/P08913_1HLL/P08913_1HLL.pdb
REMARK                            x       y       z     vdW  Elec       q    Type
REMARK                         _______ _______ _______ _____ _____    ______ ____
ATOM      1  C   UNL   102      -4.990 -23.576  10.288  0.00  0.00    +0.000 C 
TER 
REMARK  Name = /public/home/mengxl/dzy/yeastbridge_re/product/chembl_branch/structures/fpocket_out/P08913_1HLL/P08913_1HLL.pdb
REMARK                            x       y       z     vdW  Elec       q    Type
REMARK                         _______ _______ _______ _____ _____    ______ ____
ATOM      1  C   UNL   103      -4.924 -24.523  10.597  0.00  0.00    +0.000 C 
TER 
REMARK  Name = /public/home/mengxl/dzy/yeastbridge_re/product/chembl_branch/structures/fpocket_out/P08913_1HLL/P08913_1HLL.pdb
REMARK                            x       y       z     vdW  Elec       q    Type
REMARK                         _______ _______ _______ _____ _____    ______ ____
ATOM      1  O   HOH   104      -4.979 -24.602  10.744  0.00  0.00    +0.000 OA
ATOM      2  H   HOH   104      -4.009 -24.602  10.744  0.00  0.00    +0.000 HD
ATOM      3  H   HOH   104      -5.302 -24.639   9.830  0.00  0.00    +0.000 HD
TER 
REMARK  Name = /public/home/mengxl/dzy/yeastbridge_re/product/chembl_branch/structures/fpocket_out/P08913_1HLL/P08913_1HLL.pdb
REMARK                            x       y       z     vdW  Elec       q    Type
REMARK                         _______ _______ _______ _____ _____    ______ ____
ATOM      1  C   UNL   105      -4.973 -23.659  10.045  0.00  0.00    +0.000 C 
TER 
REMARK  Name = /public/home/mengxl/dzy/yeastbridge_re/product/chembl_branch/structures/fpocket_out/P08913_1HLL/P08913_1HLL.pdb
REMARK                            x       y       z     vdW  Elec       q    Type
REMARK                         _______ _______ _______ _____ _____    ______ ____
ATOM      1  C   UNL   106      -4.925 -23.274   9.815  0.00  0.00    +0.000 C 
TER 
REMARK  Name = /public/home/mengxl/dzy/yeastbridge_re/product/chembl_branch/structures/fpocket_out/P08913_1HLL/P08913_1HLL.pdb
REMARK                            x       y       z     vdW  Elec       q    Type
REMARK                         _______ _______ _______ _____ _____    ______ ____
ATOM      1  C   UNL   107      -4.859 -23.533   9.759  0.00  0.00    +0.000 C 
TER 
REMARK  Name = /public/home/mengxl/dzy/yeastbridge_re/product/chembl_branch/structures/fpocket_out/P08913_1HLL/P08913_1HLL.pdb
REMARK                            x       y       z     vdW  Elec       q    Type
REMARK                         _______ _______ _______ _____ _____    ______ ____
ATOM      1  N   UNL   108      -4.627 -23.374   9.589  0.00  0.00    +0.000 N 
ATOM      2  H   UNL   108      -3.607 -23.374   9.589  0.00  0.00    +0.000 HD
ATOM      3  H   UNL   108      -4.967 -24.335   9.608  0.00  0.00    +0.000 HD
ATOM      4  H   UNL   108      -4.967 -22.910   8.747  0.00  0.00    +0.000 HD
ATOM      5  H   UNL   108      -4.967 -22.877  10.412  0.00  0.00    +0.000 HD
TER 
REMARK  Name = /public/home/mengxl/dzy/yeastbridge_re/product/chembl_branch/structures/fpocket_out/P08913_1HLL/P08913_1HLL.pdb
REMARK                            x       y       z     vdW  Elec       q    Type
REMARK                         _______ _______ _______ _____ _____    ______ ____
ATOM      1  C   UNL   109      -4.585 -23.277   9.267  0.00  0.00    +0.000 C 
TER 
REMARK  Name = /public/home/mengxl/dzy/yeastbridge_re/product/chembl_branch/structures/fpocket_out/P08913_1HLL/P08913_1HLL.pdb
REMARK                            x       y       z     vdW  Elec       q    Type
REMARK                         _______ _______ _______ _____ _____    ______ ____
ATOM      1  N   UNK    66      -4.758 -23.321   9.078  0.00  0.00    +0.000 NA
ATOM      2  N   UNK    66      -4.369 -23.135   9.134  0.00  0.00    +0.000 NA
TER 
REMARK  Name = /public/home/mengxl/dzy/yeastbridge_re/product/chembl_branch/structures/fpocket_out/P08913_1HLL/P08913_1HLL.pdb
REMARK                            x       y       z     vdW  Elec       q    Type
REMARK                         _______ _______ _______ _____ _____    ______ ____
ATOM      1  H   UNK   110      -5.240 -22.978  10.108  0.00  0.00    +0.000 HD
ATOM      2  H   UNK   110      -4.651 -22.978  10.108  0.00  0.00    +0.000 HD
TER 
REMARK  Name = /public/home/mengxl/dzy/yeastbridge_re/product/chembl_branch/structures/fpocket_out/P08913_1HLL/P08913_1HLL.pdb
REMARK                            x       y       z     vdW  Elec       q    Type
REMARK                         _______ _______ _______ _____ _____    ______ ____
ATOM      1  H   UNK   111      -4.757 -23.329   9.780  0.00  0.00    +0.000 HD
ATOM      2  H   UNK   111      -4.168 -23.329   9.780  0.00  0.00    +0.000 HD
TER 
REMARK  Name = /public/home/mengxl/dzy/yeastbridge_re/product/chembl_branch/structures/fpocket_out/P08913_1HLL/P08913_1HLL.pdb
REMARK                            x       y       z     vdW  Elec       q    Type
REMARK                         _______ _______ _______ _____ _____    ______ ____
ATOM      1  H   UNK   112      -4.240 -23.102   9.275  0.00  0.00    +0.000 HD
ATOM      2  H   UNK   112      -3.651 -23.102   9.275  0.00  0.00    +0.000 HD
TER 
