REMARK  Name = /public/home/mengxl/dzy/yeastbridge_re/product/chembl_branch/structures/fpocket_out/P08913_1HOD/P08913_1HOD.pdb
REMARK                            x       y       z     vdW  Elec       q    Type
REMARK                         _______ _______ _______ _____ _____    ______ ____
ATOM      1  N   UNL     1       2.928  24.084   6.966  0.00  0.00    +0.000 N 
ATOM      2  C   UNL     1       3.652  23.139   7.164  0.00  0.00    +0.000 C 
ATOM      3  C   UNL     1       2.994  22.086   7.718  0.00  0.00    +0.000 C 
ATOM      4  O   UNL     1       3.286  21.040   7.554  0.00  0.00    +0.000 OA
ATOM      5  C   UNL     1       4.633  23.655   7.852  0.00  0.00    +0.000 C 
ATOM      6  O   UNL     1       5.294  24.377   7.223  0.00  0.00    +0.000 OA
ATOM      7  C   UNL     1       5.327  22.745   8.122  0.00  0.00    +0.000 C 
ATOM      8  N   UNL     1       2.116  22.398   8.362  0.00  0.00    +0.000 N 
ATOM      9  C   UNL     1       1.413  21.491   8.940  0.00  0.00    +0.000 C 
ATOM     10  C   UNL     1       0.599  20.871   8.008  0.00  0.00    +0.000 C 
ATOM     11  O   UNL     1       0.041  20.044   8.273  0.00  0.00    +0.000 OA
ATOM     12  N   UNL     1       0.556  21.296   6.935  0.00  0.00    +0.000 N 
ATOM     13  C   UNL     1      -0.182  20.793   5.962  0.00  0.00    +0.000 C 
ATOM     14  C   UNL     1       0.532  19.716   5.305  0.00  0.00    +0.000 C 
ATOM     15  O   UNL     1       0.060  19.029   4.651  0.00  0.00    +0.000 OA
ATOM     16  N   UNL     1       1.659  19.603   5.501  0.00  0.00    +0.000 N 
ATOM     17  C   UNL     1       2.442  18.622   4.935  0.00  0.00    +0.000 C 
ATOM     18  C   UNL     1       2.352  17.391   5.707  0.00  0.00    +0.000 C 
ATOM     19  O   UNL     1       2.090  16.372   5.195  0.00  0.00    +0.000 OA
ATOM     20  C   UNL     1       3.765  19.096   4.797  0.00  0.00    +0.000 C 
ATOM     21  C   UNL     1       4.631  18.014   4.416  0.00  0.00    +0.000 C 
ATOM     22  N   UNL     1       2.574  17.526   6.925  0.00  0.00    +0.000 N 
ATOM     23  C   UNL     1       2.521  16.437   7.773  0.00  0.00    +0.000 C 
ATOM     24  C   UNL     1       1.329  15.737   7.538  0.00  0.00    +0.000 C 
ATOM     25  O   UNL     1       1.366  14.627   7.431  0.00  0.00    +0.000 OA
ATOM     26  C   UNL     1       2.674  16.866   9.134  0.00  0.00    +0.000 C 
ATOM     27  C   UNL     1       2.395  15.849  10.017  0.00  0.00    +0.000 C 
ATOM     28  C   UNL     1       3.899  17.348   9.405  0.00  0.00    +0.000 C 
ATOM     29  N   UNL     1       0.300  16.415   7.464  0.00  0.00    +0.000 N 
ATOM     30  C   UNL     1      -0.900  15.872   7.244  0.00  0.00    +0.000 C 
ATOM     31  C   UNL     1      -0.842  14.972   6.106  0.00  0.00    +0.000 C 
ATOM     32  O   UNL     1      -1.129  13.882   6.209  0.00  0.00    +0.000 OA
ATOM     33  C   UNL     1      -1.892  16.923   7.086  0.00  0.00    +0.000 C 
ATOM     34  C   UNL     1      -3.132  16.554   7.305  0.00  0.00    +0.000 C 
ATOM     35  N   UNL     1      -3.628  15.736   7.744  0.00  0.00    +0.000 N 
ATOM     36  C   UNL     1      -3.970  16.899   7.142  0.00  0.00    +0.000 C 
ATOM     37  C   UNL     1      -4.716  15.602   7.837  0.00  0.00    +0.000 C 
ATOM     38  N   UNL     1      -4.926  16.323   7.463  0.00  0.00    +0.000 N 
ATOM     39  N   UNL     1      -0.469  15.460   5.046  0.00  0.00    +0.000 N 
ATOM     40  C   UNL     1      -0.370  14.713   3.890  0.00  0.00    +0.000 C 
ATOM     41  H   UNL     1       2.116  23.783   6.426  0.00  0.00    +0.000 HD
ATOM     42  H   UNL     1       3.437  24.799   6.446  0.00  0.00    +0.000 HD
ATOM     43  H   UNL     1       2.619  24.469   7.859  0.00  0.00    +0.000 HD
ATOM     44  H   UNL     1       5.666  23.898   6.466  0.00  0.00    +0.000 HD
ATOM     45  H   UNL     1       1.895  23.350   8.477  0.00  0.00    +0.000 HD
ATOM     46  H   UNL     1       1.107  22.086   6.732  0.00  0.00    +0.000 HD
ATOM     47  H   UNL     1       2.090  20.246   6.110  0.00  0.00    +0.000 HD
ATOM     48  H   UNL     1       2.789  18.416   7.286  0.00  0.00    +0.000 HD
ATOM     49  H   UNL     1       0.366  17.391   7.571  0.00  0.00    +0.000 HD
ATOM     50  H   UNL     1      -3.061  15.018   8.108  0.00  0.00    +0.000 HD
ATOM     51  H   UNL     1      -5.848  16.635   7.317  0.00  0.00    +0.000 HD
ATOM     52  H   UNL     1      -0.232  16.415   5.018  0.00  0.00    +0.000 HD
TER 
REMARK  Name = /public/home/mengxl/dzy/yeastbridge_re/product/chembl_branch/structures/fpocket_out/P08913_1HOD/P08913_1HOD.pdb
REMARK                            x       y       z     vdW  Elec       q    Type
REMARK                         _______ _______ _______ _____ _____    ______ ____
ATOM      1  H   UNK     2       2.814  24.366   6.917  0.00  0.00    +0.000 HD
ATOM      2  H   UNK     2       3.403  24.366   6.917  0.00  0.00    +0.000 HD
TER 
REMARK  Name = /public/home/mengxl/dzy/yeastbridge_re/product/chembl_branch/structures/fpocket_out/P08913_1HOD/P08913_1HOD.pdb
REMARK                            x       y       z     vdW  Elec       q    Type
REMARK                         _______ _______ _______ _____ _____    ______ ____
ATOM      1  H   UNK     3       5.404  22.536   8.364  0.00  0.00    +0.000 HD
ATOM      2  H   UNK     3       5.993  22.536   8.364  0.00  0.00    +0.000 HD
TER 
REMARK  Name = /public/home/mengxl/dzy/yeastbridge_re/product/chembl_branch/structures/fpocket_out/P08913_1HOD/P08913_1HOD.pdb
REMARK                            x       y       z     vdW  Elec       q    Type
REMARK                         _______ _______ _______ _____ _____    ______ ____
ATOM      1  C   UNL     1       0.684  22.085  10.003  0.00  0.00    +0.000 C 
ATOM      2  O   UNL     1       0.669  21.865  10.720  0.00  0.00    +0.000 OA
ATOM      3  H   UNL     1       0.535  22.637  11.292  0.00  0.00    +0.000 HD
TER 
REMARK  Name = /public/home/mengxl/dzy/yeastbridge_re/product/chembl_branch/structures/fpocket_out/P08913_1HOD/P08913_1HOD.pdb
REMARK                            x       y       z     vdW  Elec       q    Type
REMARK                         _______ _______ _______ _____ _____    ______ ____
ATOM      1  H   UNK     4       0.824  21.585  10.711  0.00  0.00    +0.000 HD
ATOM      2  H   UNK     4       1.413  21.585  10.711  0.00  0.00    +0.000 HD
TER 
REMARK  Name = /public/home/mengxl/dzy/yeastbridge_re/product/chembl_branch/structures/fpocket_out/P08913_1HOD/P08913_1HOD.pdb
REMARK                            x       y       z     vdW  Elec       q    Type
REMARK                         _______ _______ _______ _____ _____    ______ ____
ATOM      1  C   UNK     2      -0.578  21.822   5.046  0.00  0.00    +0.000 C 
ATOM      2  O   UNK     2      -1.630  21.942   4.701  0.00  0.00    +0.000 OA
ATOM      3  H   UNK     2      -1.687  21.728   3.757  0.00  0.00    +0.000 HD
TER 
REMARK  Name = /public/home/mengxl/dzy/yeastbridge_re/product/chembl_branch/structures/fpocket_out/P08913_1HOD/P08913_1HOD.pdb
REMARK                            x       y       z     vdW  Elec       q    Type
REMARK                         _______ _______ _______ _____ _____    ______ ____
ATOM      1  H   UNK     5      -1.862  22.153   4.595  0.00  0.00    +0.000 HD
ATOM      2  H   UNK     5      -1.273  22.153   4.595  0.00  0.00    +0.000 HD
TER 
REMARK  Name = /public/home/mengxl/dzy/yeastbridge_re/product/chembl_branch/structures/fpocket_out/P08913_1HOD/P08913_1HOD.pdb
REMARK                            x       y       z     vdW  Elec       q    Type
REMARK                         _______ _______ _______ _____ _____    ______ ____
ATOM      1  C   UNL     6       3.822  20.218   3.880  0.00  0.00    +0.000 C 
TER 
REMARK  Name = /public/home/mengxl/dzy/yeastbridge_re/product/chembl_branch/structures/fpocket_out/P08913_1HOD/P08913_1HOD.pdb
REMARK                            x       y       z     vdW  Elec       q    Type
REMARK                         _______ _______ _______ _____ _____    ______ ____
ATOM      1  C   UNL     7       4.074  20.492   3.398  0.00  0.00    +0.000 C 
TER 
REMARK  Name = /public/home/mengxl/dzy/yeastbridge_re/product/chembl_branch/structures/fpocket_out/P08913_1HOD/P08913_1HOD.pdb
REMARK                            x       y       z     vdW  Elec       q    Type
REMARK                         _______ _______ _______ _____ _____    ______ ____
ATOM      1  H   UNK     8       4.698  17.709   4.200  0.00  0.00    +0.000 HD
ATOM      2  H   UNK     8       5.287  17.709   4.200  0.00  0.00    +0.000 HD
TER 
REMARK  Name = /public/home/mengxl/dzy/yeastbridge_re/product/chembl_branch/structures/fpocket_out/P08913_1HOD/P08913_1HOD.pdb
REMARK                            x       y       z     vdW  Elec       q    Type
REMARK                         _______ _______ _______ _____ _____    ______ ____
ATOM      1  H   UNK     9       4.960  17.876   4.266  0.00  0.00    +0.000 HD
ATOM      2  H   UNK     9       5.549  17.876   4.266  0.00  0.00    +0.000 HD
TER 
REMARK  Name = /public/home/mengxl/dzy/yeastbridge_re/product/chembl_branch/structures/fpocket_out/P08913_1HOD/P08913_1HOD.pdb
REMARK                            x       y       z     vdW  Elec       q    Type
REMARK                         _______ _______ _______ _____ _____    ______ ____
ATOM      1  H   UNK    10       3.981  20.486   3.237  0.00  0.00    +0.000 HD
ATOM      2  H   UNK    10       4.570  20.486   3.237  0.00  0.00    +0.000 HD
TER 
REMARK  Name = /public/home/mengxl/dzy/yeastbridge_re/product/chembl_branch/structures/fpocket_out/P08913_1HOD/P08913_1HOD.pdb
REMARK                            x       y       z     vdW  Elec       q    Type
REMARK                         _______ _______ _______ _____ _____    ______ ____
ATOM      1  H   UNK    11       2.410  15.748  10.390  0.00  0.00    +0.000 HD
ATOM      2  H   UNK    11       2.999  15.748  10.390  0.00  0.00    +0.000 HD
TER 
REMARK  Name = /public/home/mengxl/dzy/yeastbridge_re/product/chembl_branch/structures/fpocket_out/P08913_1HOD/P08913_1HOD.pdb
REMARK                            x       y       z     vdW  Elec       q    Type
REMARK                         _______ _______ _______ _____ _____    ______ ____
ATOM      1  H   UNK    12       4.035  17.478   9.449  0.00  0.00    +0.000 HD
ATOM      2  H   UNK    12       4.624  17.478   9.449  0.00  0.00    +0.000 HD
TER 
REMARK  Name = /public/home/mengxl/dzy/yeastbridge_re/product/chembl_branch/structures/fpocket_out/P08913_1HOD/P08913_1HOD.pdb
REMARK                            x       y       z     vdW  Elec       q    Type
REMARK                         _______ _______ _______ _____ _____    ______ ____
ATOM      1  H   UNK    13       4.223  17.482   9.454  0.00  0.00    +0.000 HD
ATOM      2  H   UNK    13       4.812  17.482   9.454  0.00  0.00    +0.000 HD
TER 
REMARK  Name = /public/home/mengxl/dzy/yeastbridge_re/product/chembl_branch/structures/fpocket_out/P08913_1HOD/P08913_1HOD.pdb
REMARK                            x       y       z     vdW  Elec       q    Type
REMARK                         _______ _______ _______ _____ _____    ______ ____
ATOM      1  C   UNL    14       0.603  13.618   4.113  0.00  0.00    +0.000 C 
ATOM      2  O   UNL    14       0.584  12.792   3.756  0.00  0.00    +0.000 OA
ATOM      3  N   UNL    14       1.430  13.647   4.702  0.00  0.00    +0.000 N 
ATOM      4  C   UNL    14       2.409  12.667   4.977  0.00  0.00    +0.000 C 
ATOM      5  C   UNL    14       1.787  11.523   5.702  0.00  0.00    +0.000 C 
ATOM      6  O   UNL    14       1.810  10.417   5.243  0.00  0.00    +0.000 OA
ATOM      7  C   UNL    14       3.526  13.235   5.742  0.00  0.00    +0.000 C 
ATOM      8  S   UNL    14       4.823  12.654   5.594  0.00  0.00    +0.000 S 
ATOM      9  N   UNL    14       1.247  11.827   6.823  0.00  0.00    +0.000 N 
ATOM     10  C   UNL    14       0.620  10.837   7.616  0.00  0.00    +0.000 C 
ATOM     11  C   UNL    14      -0.254  10.033   6.756  0.00  0.00    +0.000 C 
ATOM     12  O   UNL    14      -0.118   8.858   6.686  0.00  0.00    +0.000 OA
ATOM     13  C   UNL    14      -0.099  11.486   8.725  0.00  0.00    +0.000 C 
ATOM     14  N   UNL    14      -1.133  10.699   6.122  0.00  0.00    +0.000 N 
ATOM     15  C   UNL    14      -2.030  10.061   5.269  0.00  0.00    +0.000 C 
ATOM     16  C   UNL    14      -1.321   9.107   4.403  0.00  0.00    +0.000 C 
ATOM     17  O   UNL    14      -1.654   7.992   4.324  0.00  0.00    +0.000 OA
ATOM     18  C   UNL    14      -2.815  11.066   4.512  0.00  0.00    +0.000 C 
ATOM     19  C   UNL    14      -3.724  11.755   5.365  0.00  0.00    +0.000 C 
ATOM     20  C   UNL    14      -3.463  10.465   3.396  0.00  0.00    +0.000 C 
ATOM     21  C   UNL    14      -4.141  12.893   4.972  0.00  0.00    +0.000 C 
ATOM     22  N   UNL    14      -0.357   9.581   3.773  0.00  0.00    +0.000 N 
ATOM     23  C   UNL    14       0.401   8.785   2.915  0.00  0.00    +0.000 C 
ATOM     24  C   UNL    14       1.370   7.933   3.661  0.00  0.00    +0.000 C 
ATOM     25  O   UNL    14       2.076   7.480   3.273  0.00  0.00    +0.000 OA
ATOM     26  N   UNL    14       1.373   7.742   4.717  0.00  0.00    +0.000 N 
ATOM     27  C   UNL    14       2.243   6.953   5.520  0.00  0.00    +0.000 C 
ATOM     28  C   UNL    14       1.635   5.616   5.814  0.00  0.00    +0.000 C 
ATOM     29  O   UNL    14       2.155   4.633   5.578  0.00  0.00    +0.000 OA
ATOM     30  C   UNL    14       2.621   7.703   6.721  0.00  0.00    +0.000 C 
ATOM     31  N   UNL    14       0.542   5.622   6.323  0.00  0.00    +0.000 N 
ATOM     32  C   UNL    14      -0.142   4.422   6.651  0.00  0.00    +0.000 C 
ATOM     33  C   UNL    14      -0.260   3.576   5.453  0.00  0.00    +0.000 C 
ATOM     34  O   UNL    14       0.236   2.488   5.414  0.00  0.00    +0.000 OA
ATOM     35  C   UNL    14      -1.436   4.751   7.272  0.00  0.00    +0.000 C 
ATOM     36  C   UNL    14      -1.242   5.455   8.548  0.00  0.00    +0.000 C 
ATOM     37  C   UNL    14      -2.260   3.516   7.437  0.00  0.00    +0.000 C 
ATOM     38  C   UNL    14      -1.860   6.638   8.690  0.00  0.00    +0.000 C 
ATOM     39  N   UNL    14      -0.920   4.110   4.505  0.00  0.00    +0.000 N 
ATOM     40  C   UNL    14      -1.109   3.417   3.309  0.00  0.00    +0.000 C 
ATOM     41  C   UNL    14       0.174   2.875   2.818  0.00  0.00    +0.000 C 
ATOM     42  O   UNL    14       0.211   1.881   2.173  0.00  0.00    +0.000 OA
ATOM     43  N   UNL    14       1.194   3.551   3.143  0.00  0.00    +0.000 N 
ATOM     44  C   UNL    14       2.475   3.149   2.744  0.00  0.00    +0.000 C 
ATOM     45  C   UNL    14       3.251   2.513   3.820  0.00  0.00    +0.000 C 
ATOM     46  O   UNL    14       4.375   2.579   3.855  0.00  0.00    +0.000 OA
ATOM     47  C   UNL    14       3.090   4.391   2.344  0.00  0.00    +0.000 C 
ATOM     48  N   UNL    14       2.620   1.910   4.671  0.00  0.00    +0.000 N 
ATOM     49  C   UNL    14       3.237   1.262   5.745  0.00  0.00    +0.000 C 
ATOM     50  C   UNL    14       2.427   1.379   6.991  0.00  0.00    +0.000 C 
ATOM     51  C   UNL    14       1.969   0.178   7.578  0.00  0.00    +0.000 A 
ATOM     52  C   UNL    14       0.954  -0.471   7.297  0.00  0.00    +0.000 A 
ATOM     53  C   UNL    14       2.555  -0.497   8.564  0.00  0.00    +0.000 A 
ATOM     54  N   UNL    14       0.844  -1.509   8.027  0.00  0.00    +0.000 N 
ATOM     55  C   UNL    14       1.848  -1.526   8.822  0.00  0.00    +0.000 A 
ATOM     56  C   UNL    14       3.647  -0.246   9.217  0.00  0.00    +0.000 A 
ATOM     57  C   UNL    14       2.155  -2.385   9.735  0.00  0.00    +0.000 A 
ATOM     58  C   UNL    14       3.940  -1.114  10.126  0.00  0.00    +0.000 A 
ATOM     59  C   UNL    14       3.238  -2.154  10.397  0.00  0.00    +0.000 A 
ATOM     60  H   UNL    14       0.557  12.133   4.467  0.00  0.00    +0.000 HD
ATOM     61  H   UNL    14       1.065  13.892   5.622  0.00  0.00    +0.000 HD
ATOM     62  H   UNL    14       2.002  14.223   4.084  0.00  0.00    +0.000 HD
ATOM     63  H   UNL    14       4.806  11.380   6.069  0.00  0.00    +0.000 HD
ATOM     64  H   UNL    14       1.268  12.760   7.136  0.00  0.00    +0.000 HD
ATOM     65  H   UNL    14      -1.180  11.676   6.236  0.00  0.00    +0.000 HD
ATOM     66  H   UNL    14      -0.127  10.532   3.882  0.00  0.00    +0.000 HD
ATOM     67  H   UNL    14       0.651   8.189   5.215  0.00  0.00    +0.000 HD
ATOM     68  H   UNL    14       0.111   6.485   6.517  0.00  0.00    +0.000 HD
ATOM     69  H   UNL    14      -1.297   5.013   4.616  0.00  0.00    +0.000 HD
ATOM     70  H   UNL    14       1.086   4.368   3.682  0.00  0.00    +0.000 HD
ATOM     71  H   UNL    14       1.639   1.878   4.599  0.00  0.00    +0.000 HD
ATOM     72  H   UNL    14       0.120  -2.175   7.987  0.00  0.00    +0.000 HD
TER 
REMARK  Name = /public/home/mengxl/dzy/yeastbridge_re/product/chembl_branch/structures/fpocket_out/P08913_1HOD/P08913_1HOD.pdb
REMARK                            x       y       z     vdW  Elec       q    Type
REMARK                         _______ _______ _______ _____ _____    ______ ____
ATOM      1  C   UNL    15      -0.089  15.597   2.731  0.00  0.00    +0.000 C 
TER 
REMARK  Name = /public/home/mengxl/dzy/yeastbridge_re/product/chembl_branch/structures/fpocket_out/P08913_1HOD/P08913_1HOD.pdb
REMARK                            x       y       z     vdW  Elec       q    Type
REMARK                         _______ _______ _______ _____ _____    ______ ____
ATOM      1  C   UNL    16      -0.188  16.403   2.375  0.00  0.00    +0.000 C 
TER 
REMARK  Name = /public/home/mengxl/dzy/yeastbridge_re/product/chembl_branch/structures/fpocket_out/P08913_1HOD/P08913_1HOD.pdb
REMARK                            x       y       z     vdW  Elec       q    Type
REMARK                         _______ _______ _______ _____ _____    ______ ____
ATOM      1  C   UNL    17       0.354  16.662   1.396  0.00  0.00    +0.000 C 
TER 
REMARK  Name = /public/home/mengxl/dzy/yeastbridge_re/product/chembl_branch/structures/fpocket_out/P08913_1HOD/P08913_1HOD.pdb
REMARK                            x       y       z     vdW  Elec       q    Type
REMARK                         _______ _______ _______ _____ _____    ______ ____
ATOM      1  C   UNL    18      -0.930  16.714   2.115  0.00  0.00    +0.000 C 
TER 
REMARK  Name = /public/home/mengxl/dzy/yeastbridge_re/product/chembl_branch/structures/fpocket_out/P08913_1HOD/P08913_1HOD.pdb
REMARK                            x       y       z     vdW  Elec       q    Type
REMARK                         _______ _______ _______ _____ _____    ______ ____
ATOM      1  H   UNK    19       0.441  16.842   1.247  0.00  0.00    +0.000 HD
ATOM      2  H   UNK    19       1.030  16.842   1.247  0.00  0.00    +0.000 HD
TER 
REMARK  Name = /public/home/mengxl/dzy/yeastbridge_re/product/chembl_branch/structures/fpocket_out/P08913_1HOD/P08913_1HOD.pdb
REMARK                            x       y       z     vdW  Elec       q    Type
REMARK                         _______ _______ _______ _____ _____    ______ ____
ATOM      1  H   UNK    20       0.576  16.607   1.275  0.00  0.00    +0.000 HD
ATOM      2  H   UNK    20       1.165  16.607   1.275  0.00  0.00    +0.000 HD
TER 
REMARK  Name = /public/home/mengxl/dzy/yeastbridge_re/product/chembl_branch/structures/fpocket_out/P08913_1HOD/P08913_1HOD.pdb
REMARK                            x       y       z     vdW  Elec       q    Type
REMARK                         _______ _______ _______ _____ _____    ______ ____
ATOM      1  H   UNK    21       4.982  12.682   5.549  0.00  0.00    +0.000 HD
ATOM      2  H   UNK    21       5.571  12.682   5.549  0.00  0.00    +0.000 HD
TER 
REMARK  Name = /public/home/mengxl/dzy/yeastbridge_re/product/chembl_branch/structures/fpocket_out/P08913_1HOD/P08913_1HOD.pdb
REMARK                            x       y       z     vdW  Elec       q    Type
REMARK                         _______ _______ _______ _____ _____    ______ ____
ATOM      1  H   UNK    22      -0.340  11.438   9.034  0.00  0.00    +0.000 HD
ATOM      2  H   UNK    22       0.249  11.438   9.034  0.00  0.00    +0.000 HD
TER 
REMARK  Name = /public/home/mengxl/dzy/yeastbridge_re/product/chembl_branch/structures/fpocket_out/P08913_1HOD/P08913_1HOD.pdb
REMARK                            x       y       z     vdW  Elec       q    Type
REMARK                         _______ _______ _______ _____ _____    ______ ____
ATOM      1  H   UNK    23      -0.057  11.700   9.050  0.00  0.00    +0.000 HD
ATOM      2  H   UNK    23       0.532  11.700   9.050  0.00  0.00    +0.000 HD
TER 
REMARK  Name = /public/home/mengxl/dzy/yeastbridge_re/product/chembl_branch/structures/fpocket_out/P08913_1HOD/P08913_1HOD.pdb
REMARK                            x       y       z     vdW  Elec       q    Type
REMARK                         _______ _______ _______ _____ _____    ______ ____
ATOM      1  H   UNK    24      -4.187  13.160   5.085  0.00  0.00    +0.000 HD
ATOM      2  H   UNK    24      -3.598  13.160   5.085  0.00  0.00    +0.000 HD
TER 
REMARK  Name = /public/home/mengxl/dzy/yeastbridge_re/product/chembl_branch/structures/fpocket_out/P08913_1HOD/P08913_1HOD.pdb
REMARK                            x       y       z     vdW  Elec       q    Type
REMARK                         _______ _______ _______ _____ _____    ______ ____
ATOM      1  H   UNK    25      -4.139  13.209   4.753  0.00  0.00    +0.000 HD
ATOM      2  H   UNK    25      -3.550  13.209   4.753  0.00  0.00    +0.000 HD
TER 
REMARK  Name = /public/home/mengxl/dzy/yeastbridge_re/product/chembl_branch/structures/fpocket_out/P08913_1HOD/P08913_1HOD.pdb
REMARK                            x       y       z     vdW  Elec       q    Type
REMARK                         _______ _______ _______ _____ _____    ______ ____
ATOM      1  H   UNK    26      -4.395  13.120   4.798  0.00  0.00    +0.000 HD
ATOM      2  H   UNK    26      -3.806  13.120   4.798  0.00  0.00    +0.000 HD
TER 
REMARK  Name = /public/home/mengxl/dzy/yeastbridge_re/product/chembl_branch/structures/fpocket_out/P08913_1HOD/P08913_1HOD.pdb
REMARK                            x       y       z     vdW  Elec       q    Type
REMARK                         _______ _______ _______ _____ _____    ______ ____
ATOM      1  C   UNK     9       1.086   9.631   1.945  0.00  0.00    +0.000 C 
ATOM      2  O   UNK     9       0.819   9.440   0.856  0.00  0.00    +0.000 OA
ATOM      3  H   UNK     9       0.889   8.491   0.668  0.00  0.00    +0.000 HD
TER 
REMARK  Name = /public/home/mengxl/dzy/yeastbridge_re/product/chembl_branch/structures/fpocket_out/P08913_1HOD/P08913_1HOD.pdb
REMARK                            x       y       z     vdW  Elec       q    Type
REMARK                         _______ _______ _______ _____ _____    ______ ____
ATOM      1  H   UNK    27       0.827   9.220   0.625  0.00  0.00    +0.000 HD
ATOM      2  H   UNK    27       1.416   9.220   0.625  0.00  0.00    +0.000 HD
TER 
REMARK  Name = /public/home/mengxl/dzy/yeastbridge_re/product/chembl_branch/structures/fpocket_out/P08913_1HOD/P08913_1HOD.pdb
REMARK                            x       y       z     vdW  Elec       q    Type
REMARK                         _______ _______ _______ _____ _____    ______ ____
ATOM      1  C   UNK    10       3.693   7.205   7.477  0.00  0.00    +0.000 C 
ATOM      2  C   UNK    10       4.547   7.480   7.509  0.00  0.00    +0.000 C 
ATOM      3  C   UNK    10       3.693   7.157   8.327  0.00  0.00    +0.000 C 
TER 
REMARK  Name = /public/home/mengxl/dzy/yeastbridge_re/product/chembl_branch/structures/fpocket_out/P08913_1HOD/P08913_1HOD.pdb
REMARK                            x       y       z     vdW  Elec       q    Type
REMARK                         _______ _______ _______ _____ _____    ______ ____
ATOM      1  H   UNK    28       4.696   7.699   7.579  0.00  0.00    +0.000 HD
ATOM      2  H   UNK    28       5.285   7.699   7.579  0.00  0.00    +0.000 HD
TER 
REMARK  Name = /public/home/mengxl/dzy/yeastbridge_re/product/chembl_branch/structures/fpocket_out/P08913_1HOD/P08913_1HOD.pdb
REMARK                            x       y       z     vdW  Elec       q    Type
REMARK                         _______ _______ _______ _____ _____    ______ ____
ATOM      1  H   UNK    29       4.667   7.455   7.746  0.00  0.00    +0.000 HD
ATOM      2  H   UNK    29       5.256   7.455   7.746  0.00  0.00    +0.000 HD
TER 
REMARK  Name = /public/home/mengxl/dzy/yeastbridge_re/product/chembl_branch/structures/fpocket_out/P08913_1HOD/P08913_1HOD.pdb
REMARK                            x       y       z     vdW  Elec       q    Type
REMARK                         _______ _______ _______ _____ _____    ______ ____
ATOM      1  H   UNK    30       3.754   7.007   8.625  0.00  0.00    +0.000 HD
ATOM      2  H   UNK    30       4.343   7.007   8.625  0.00  0.00    +0.000 HD
TER 
REMARK  Name = /public/home/mengxl/dzy/yeastbridge_re/product/chembl_branch/structures/fpocket_out/P08913_1HOD/P08913_1HOD.pdb
REMARK                            x       y       z     vdW  Elec       q    Type
REMARK                         _______ _______ _______ _____ _____    ______ ____
ATOM      1  H   UNK    31       3.809   7.316   8.452  0.00  0.00    +0.000 HD
ATOM      2  H   UNK    31       4.398   7.316   8.452  0.00  0.00    +0.000 HD
TER 
REMARK  Name = /public/home/mengxl/dzy/yeastbridge_re/product/chembl_branch/structures/fpocket_out/P08913_1HOD/P08913_1HOD.pdb
REMARK                            x       y       z     vdW  Elec       q    Type
REMARK                         _______ _______ _______ _____ _____    ______ ____
ATOM      1  H   UNK    32       3.518   7.116   8.508  0.00  0.00    +0.000 HD
ATOM      2  H   UNK    32       4.107   7.116   8.508  0.00  0.00    +0.000 HD
TER 
REMARK  Name = /public/home/mengxl/dzy/yeastbridge_re/product/chembl_branch/structures/fpocket_out/P08913_1HOD/P08913_1HOD.pdb
REMARK                            x       y       z     vdW  Elec       q    Type
REMARK                         _______ _______ _______ _____ _____    ______ ____
ATOM      1  C   UNL    33      -1.710   4.327   2.278  0.00  0.00    +0.000 C 
TER 
REMARK  Name = /public/home/mengxl/dzy/yeastbridge_re/product/chembl_branch/structures/fpocket_out/P08913_1HOD/P08913_1HOD.pdb
REMARK                            x       y       z     vdW  Elec       q    Type
REMARK                         _______ _______ _______ _____ _____    ______ ____
ATOM      1  C   UNK    12      -2.743   3.878   1.744  0.00  0.00    +0.000 C 
ATOM      2  C   UNK    12      -3.333   4.144   1.154  0.00  0.00    +0.000 C 
TER 
REMARK  Name = /public/home/mengxl/dzy/yeastbridge_re/product/chembl_branch/structures/fpocket_out/P08913_1HOD/P08913_1HOD.pdb
REMARK                            x       y       z     vdW  Elec       q    Type
REMARK                         _______ _______ _______ _____ _____    ______ ____
ATOM      1  N   UNL    34      -4.052   3.833   0.693  0.00  0.00    +0.000 N 
ATOM      2  H   UNL    34      -3.032   3.833   0.693  0.00  0.00    +0.000 HD
ATOM      3  H   UNL    34      -4.392   4.656   0.196  0.00  0.00    +0.000 HD
ATOM      4  H   UNL    34      -4.392   3.851   1.654  0.00  0.00    +0.000 HD
ATOM      5  H   UNL    34      -4.392   2.991   0.228  0.00  0.00    +0.000 HD
TER 
REMARK  Name = /public/home/mengxl/dzy/yeastbridge_re/product/chembl_branch/structures/fpocket_out/P08913_1HOD/P08913_1HOD.pdb
REMARK                            x       y       z     vdW  Elec       q    Type
REMARK                         _______ _______ _______ _____ _____    ______ ____
ATOM      1  C   UNL    35      -4.725   3.626   0.238  0.00  0.00    +0.000 C 
TER 
REMARK  Name = /public/home/mengxl/dzy/yeastbridge_re/product/chembl_branch/structures/fpocket_out/P08913_1HOD/P08913_1HOD.pdb
REMARK                            x       y       z     vdW  Elec       q    Type
REMARK                         _______ _______ _______ _____ _____    ______ ____
ATOM      1  N   UNL    36      -4.775   3.697   0.178  0.00  0.00    +0.000 N 
ATOM      2  H   UNL    36      -3.755   3.697   0.178  0.00  0.00    +0.000 HD
ATOM      3  H   UNL    36      -5.115   4.342   0.891  0.00  0.00    +0.000 HD
ATOM      4  H   UNL    36      -5.115   2.757   0.380  0.00  0.00    +0.000 HD
ATOM      5  H   UNL    36      -5.115   3.992  -0.737  0.00  0.00    +0.000 HD
TER 
REMARK  Name = /public/home/mengxl/dzy/yeastbridge_re/product/chembl_branch/structures/fpocket_out/P08913_1HOD/P08913_1HOD.pdb
REMARK                            x       y       z     vdW  Elec       q    Type
REMARK                         _______ _______ _______ _____ _____    ______ ____
ATOM      1  N   UNL    37      -5.348   3.349  -0.159  0.00  0.00    +0.000 N 
ATOM      2  H   UNL    37      -4.328   3.349  -0.159  0.00  0.00    +0.000 HD
ATOM      3  H   UNL    37      -5.688   3.908   0.623  0.00  0.00    +0.000 HD
ATOM      4  H   UNL    37      -5.688   2.392  -0.066  0.00  0.00    +0.000 HD
ATOM      5  H   UNL    37      -5.688   3.747  -1.035  0.00  0.00    +0.000 HD
TER 
REMARK  Name = /public/home/mengxl/dzy/yeastbridge_re/product/chembl_branch/structures/fpocket_out/P08913_1HOD/P08913_1HOD.pdb
REMARK                            x       y       z     vdW  Elec       q    Type
REMARK                         _______ _______ _______ _____ _____    ______ ____
ATOM      1  H   UNK    38      -2.702   3.515   1.583  0.00  0.00    +0.000 HD
ATOM      2  H   UNK    38      -2.113   3.515   1.583  0.00  0.00    +0.000 HD
TER 
REMARK  Name = /public/home/mengxl/dzy/yeastbridge_re/product/chembl_branch/structures/fpocket_out/P08913_1HOD/P08913_1HOD.pdb
REMARK                            x       y       z     vdW  Elec       q    Type
REMARK                         _______ _______ _______ _____ _____    ______ ____
ATOM      1  H   UNK    39      -3.368   4.424   1.231  0.00  0.00    +0.000 HD
ATOM      2  H   UNK    39      -2.779   4.424   1.231  0.00  0.00    +0.000 HD
TER 
REMARK  Name = /public/home/mengxl/dzy/yeastbridge_re/product/chembl_branch/structures/fpocket_out/P08913_1HOD/P08913_1HOD.pdb
REMARK                            x       y       z     vdW  Elec       q    Type
REMARK                         _______ _______ _______ _____ _____    ______ ____
ATOM      1  H   UNK    40      -3.185   4.299   0.992  0.00  0.00    +0.000 HD
ATOM      2  H   UNK    40      -2.596   4.299   0.992  0.00  0.00    +0.000 HD
TER 
REMARK  Name = /public/home/mengxl/dzy/yeastbridge_re/product/chembl_branch/structures/fpocket_out/P08913_1HOD/P08913_1HOD.pdb
REMARK                            x       y       z     vdW  Elec       q    Type
REMARK                         _______ _______ _______ _____ _____    ______ ____
ATOM      1  H   UNK    41      -5.311   3.296  -0.115  0.00  0.00    +0.000 HD
ATOM      2  H   UNK    41      -4.722   3.296  -0.115  0.00  0.00    +0.000 HD
TER 
REMARK  Name = /public/home/mengxl/dzy/yeastbridge_re/product/chembl_branch/structures/fpocket_out/P08913_1HOD/P08913_1HOD.pdb
REMARK                            x       y       z     vdW  Elec       q    Type
REMARK                         _______ _______ _______ _____ _____    ______ ____
ATOM      1  C   UNL    42       2.739   4.877   1.059  0.00  0.00    +0.000 C 
TER 
REMARK  Name = /public/home/mengxl/dzy/yeastbridge_re/product/chembl_branch/structures/fpocket_out/P08913_1HOD/P08913_1HOD.pdb
REMARK                            x       y       z     vdW  Elec       q    Type
REMARK                         _______ _______ _______ _____ _____    ______ ____
ATOM      1  C   UNL    43       2.489   4.982   0.453  0.00  0.00    +0.000 C 
TER 
REMARK  Name = /public/home/mengxl/dzy/yeastbridge_re/product/chembl_branch/structures/fpocket_out/P08913_1HOD/P08913_1HOD.pdb
REMARK                            x       y       z     vdW  Elec       q    Type
REMARK                         _______ _______ _______ _____ _____    ______ ____
ATOM      1  C   UNL    44       2.672   5.211   0.505  0.00  0.00    +0.000 C 
TER 
REMARK  Name = /public/home/mengxl/dzy/yeastbridge_re/product/chembl_branch/structures/fpocket_out/P08913_1HOD/P08913_1HOD.pdb
REMARK                            x       y       z     vdW  Elec       q    Type
REMARK                         _______ _______ _______ _____ _____    ______ ____
ATOM      1  C   UNL    45       2.159   5.440  -0.757  0.00  0.00    +0.000 C 
TER 
REMARK  Name = /public/home/mengxl/dzy/yeastbridge_re/product/chembl_branch/structures/fpocket_out/P08913_1HOD/P08913_1HOD.pdb
REMARK                            x       y       z     vdW  Elec       q    Type
REMARK                         _______ _______ _______ _____ _____    ______ ____
ATOM      1  C   UNL    46       2.341   5.668  -0.706  0.00  0.00    +0.000 C 
TER 
REMARK  Name = /public/home/mengxl/dzy/yeastbridge_re/product/chembl_branch/structures/fpocket_out/P08913_1HOD/P08913_1HOD.pdb
REMARK                            x       y       z     vdW  Elec       q    Type
REMARK                         _______ _______ _______ _____ _____    ______ ____
ATOM      1  C   UNK    22       2.101   5.760  -1.277  0.00  0.00    +0.000 C 
ATOM      2  O   UNK    22       1.789   6.192  -2.419  0.00  0.00    +0.000 OA
TER 
REMARK  Name = /public/home/mengxl/dzy/yeastbridge_re/product/chembl_branch/structures/fpocket_out/P08913_1HOD/P08913_1HOD.pdb
REMARK                            x       y       z     vdW  Elec       q    Type
REMARK                         _______ _______ _______ _____ _____    ______ ____
ATOM      1  H   UNK    47       1.703   6.431  -2.703  0.00  0.00    +0.000 HD
ATOM      2  H   UNK    47       2.292   6.431  -2.703  0.00  0.00    +0.000 HD
TER 
REMARK  Name = /public/home/mengxl/dzy/yeastbridge_re/product/chembl_branch/structures/fpocket_out/P08913_1HOD/P08913_1HOD.pdb
REMARK                            x       y       z     vdW  Elec       q    Type
REMARK                         _______ _______ _______ _____ _____    ______ ____
ATOM      1  C   UNK    23       3.508  -0.132   5.307  0.00  0.00    +0.000 C 
ATOM      2  O   UNK    23       4.013  -0.461   5.010  0.00  0.00    +0.000 OA
ATOM      3  N   UNK    23       3.159  -0.912   5.282  0.00  0.00    +0.000 N 
ATOM      4  H   UNK    23       3.678  -0.935   4.233  0.00  0.00    +0.000 HD
ATOM      5  H   UNK    23       3.193  -1.269   4.327  0.00  0.00    +0.000 HD
ATOM      6  H   UNK    23       2.188  -0.860   5.592  0.00  0.00    +0.000 HD
ATOM      7  H   UNK    23       3.679  -1.537   5.897  0.00  0.00    +0.000 HD
TER 
REMARK  Name = /public/home/mengxl/dzy/yeastbridge_re/product/chembl_branch/structures/fpocket_out/P08913_1HOD/P08913_1HOD.pdb
REMARK                            x       y       z     vdW  Elec       q    Type
REMARK                         _______ _______ _______ _____ _____    ______ ____
ATOM      1  C   UNL    48       3.358  -2.263   4.886  0.00  0.00    +0.000 C 
ATOM      2  C   UNL    48       4.281  -2.333   3.718  0.00  0.00    +0.000 C 
ATOM      3  O   UNL    48       3.983  -2.893   2.747  0.00  0.00    +0.000 OA
ATOM      4  C   UNL    48       2.063  -2.901   4.544  0.00  0.00    +0.000 C 
ATOM      5  O   UNL    48       2.081  -4.204   4.696  0.00  0.00    +0.000 OA
ATOM      6  N   UNL    48       5.384  -1.758   3.851  0.00  0.00    +0.000 N 
ATOM      7  C   UNL    48       6.353  -1.749   2.819  0.00  0.00    +0.000 C 
ATOM      8  C   UNL    48       7.711  -1.629   3.411  0.00  0.00    +0.000 C 
ATOM      9  O   UNL    48       8.628  -2.326   3.030  0.00  0.00    +0.000 OA
ATOM     10  N   UNL    48       7.797  -0.739   4.334  0.00  0.00    +0.000 N 
ATOM     11  C   UNL    48       9.028  -0.519   4.983  0.00  0.00    +0.000 C 
ATOM     12  C   UNL    48       9.606  -1.780   5.498  0.00  0.00    +0.000 C 
ATOM     13  O   UNL    48      10.762  -2.065   5.379  0.00  0.00    +0.000 OA
ATOM     14  N   UNL    48       8.776  -2.502   6.060  0.00  0.00    +0.000 N 
ATOM     15  C   UNL    48       9.190  -3.726   6.594  0.00  0.00    +0.000 C 
ATOM     16  C   UNL    48      10.035  -4.479   5.651  0.00  0.00    +0.000 C 
ATOM     17  O   UNL    48      10.934  -5.183   5.999  0.00  0.00    +0.000 OA
ATOM     18  N   UNL    48       9.717  -4.306   4.477  0.00  0.00    +0.000 N 
ATOM     19  C   UNL    48      10.436  -4.961   3.481  0.00  0.00    +0.000 C 
ATOM     20  C   UNL    48       9.519  -5.625   2.623  0.00  0.00    +0.000 C 
ATOM     21  H   UNL    48       2.256  -4.419   5.626  0.00  0.00    +0.000 HD
ATOM     22  H   UNL    48       5.584  -1.298   4.698  0.00  0.00    +0.000 HD
ATOM     23  H   UNL    48       7.005  -0.212   4.587  0.00  0.00    +0.000 HD
ATOM     24  H   UNL    48       7.836  -2.219   6.131  0.00  0.00    +0.000 HD
ATOM     25  H   UNL    48       8.966  -3.714   4.244  0.00  0.00    +0.000 HD
TER 
REMARK  Name = /public/home/mengxl/dzy/yeastbridge_re/product/chembl_branch/structures/fpocket_out/P08913_1HOD/P08913_1HOD.pdb
REMARK                            x       y       z     vdW  Elec       q    Type
REMARK                         _______ _______ _______ _____ _____    ______ ____
ATOM      1  C   UNK    24       6.018  -0.688   1.834  0.00  0.00    +0.000 C 
ATOM      2  C   UNK    24       6.925   0.192   1.740  0.00  0.00    +0.000 C 
TER 
REMARK  Name = /public/home/mengxl/dzy/yeastbridge_re/product/chembl_branch/structures/fpocket_out/P08913_1HOD/P08913_1HOD.pdb
REMARK                            x       y       z     vdW  Elec       q    Type
REMARK                         _______ _______ _______ _____ _____    ______ ____
ATOM      1  C   UNL    49       5.763  -1.179   0.701  0.00  0.00    +0.000 C 
TER 
REMARK  Name = /public/home/mengxl/dzy/yeastbridge_re/product/chembl_branch/structures/fpocket_out/P08913_1HOD/P08913_1HOD.pdb
REMARK                            x       y       z     vdW  Elec       q    Type
REMARK                         _______ _______ _______ _____ _____    ______ ____
ATOM      1  C   UNL    50       5.412  -1.203   0.127  0.00  0.00    +0.000 C 
TER 
REMARK  Name = /public/home/mengxl/dzy/yeastbridge_re/product/chembl_branch/structures/fpocket_out/P08913_1HOD/P08913_1HOD.pdb
REMARK                            x       y       z     vdW  Elec       q    Type
REMARK                         _______ _______ _______ _____ _____    ______ ____
ATOM      1  H   UNK    51       5.716  -1.414   0.645  0.00  0.00    +0.000 HD
ATOM      2  H   UNK    56       5.205  -1.143   0.074  0.00  0.00    +0.000 HD
TER 
REMARK  Name = /public/home/mengxl/dzy/yeastbridge_re/product/chembl_branch/structures/fpocket_out/P08913_1HOD/P08913_1HOD.pdb
REMARK                            x       y       z     vdW  Elec       q    Type
REMARK                         _______ _______ _______ _____ _____    ______ ____
ATOM      1  H   UNK    52       7.165   0.388   1.505  0.00  0.00    +0.000 HD
ATOM      2  H   UNK    52       7.754   0.388   1.505  0.00  0.00    +0.000 HD
TER 
REMARK  Name = /public/home/mengxl/dzy/yeastbridge_re/product/chembl_branch/structures/fpocket_out/P08913_1HOD/P08913_1HOD.pdb
REMARK                            x       y       z     vdW  Elec       q    Type
REMARK                         _______ _______ _______ _____ _____    ______ ____
ATOM      1  H   UNK    53       6.968   0.542   1.755  0.00  0.00    +0.000 HD
ATOM      2  H   UNK    53       7.557   0.542   1.755  0.00  0.00    +0.000 HD
TER 
REMARK  Name = /public/home/mengxl/dzy/yeastbridge_re/product/chembl_branch/structures/fpocket_out/P08913_1HOD/P08913_1HOD.pdb
REMARK                            x       y       z     vdW  Elec       q    Type
REMARK                         _______ _______ _______ _____ _____    ______ ____
ATOM      1  H   UNK    54       5.346  -1.159  -0.134  0.00  0.00    +0.000 HD
ATOM      2  H   UNK    54       5.935  -1.159  -0.134  0.00  0.00    +0.000 HD
TER 
REMARK  Name = /public/home/mengxl/dzy/yeastbridge_re/product/chembl_branch/structures/fpocket_out/P08913_1HOD/P08913_1HOD.pdb
REMARK                            x       y       z     vdW  Elec       q    Type
REMARK                         _______ _______ _______ _____ _____    ______ ____
ATOM      1  H   UNK    55       5.435  -1.325   0.031  0.00  0.00    +0.000 HD
ATOM      2  H   UNK    55       6.024  -1.325   0.031  0.00  0.00    +0.000 HD
TER 
REMARK  Name = /public/home/mengxl/dzy/yeastbridge_re/product/chembl_branch/structures/fpocket_out/P08913_1HOD/P08913_1HOD.pdb
REMARK                            x       y       z     vdW  Elec       q    Type
REMARK                         _______ _______ _______ _____ _____    ______ ____
ATOM      1  C   UNK    27       8.776   0.492   6.020  0.00  0.00    +0.000 C 
ATOM      2  O   UNK    27       9.084   1.288   5.678  0.00  0.00    +0.000 OA
ATOM      3  C   UNK    27       9.324   0.473   6.943  0.00  0.00    +0.000 C 
ATOM      4  H   UNK    27      10.052   1.264   5.624  0.00  0.00    +0.000 HD
TER 
REMARK  Name = /public/home/mengxl/dzy/yeastbridge_re/product/chembl_branch/structures/fpocket_out/P08913_1HOD/P08913_1HOD.pdb
REMARK                            x       y       z     vdW  Elec       q    Type
REMARK                         _______ _______ _______ _____ _____    ______ ____
ATOM      1  H   UNK    57       9.011   1.437   5.403  0.00  0.00    +0.000 HD
ATOM      2  H   UNK    57       9.600   1.437   5.403  0.00  0.00    +0.000 HD
TER 
REMARK  Name = /public/home/mengxl/dzy/yeastbridge_re/product/chembl_branch/structures/fpocket_out/P08913_1HOD/P08913_1HOD.pdb
REMARK                            x       y       z     vdW  Elec       q    Type
REMARK                         _______ _______ _______ _____ _____    ______ ____
ATOM      1  H   UNK    58       9.476   0.458   6.996  0.00  0.00    +0.000 HD
ATOM      2  H   UNK    58      10.065   0.458   6.996  0.00  0.00    +0.000 HD
TER 
REMARK  Name = /public/home/mengxl/dzy/yeastbridge_re/product/chembl_branch/structures/fpocket_out/P08913_1HOD/P08913_1HOD.pdb
REMARK                            x       y       z     vdW  Elec       q    Type
REMARK                         _______ _______ _______ _____ _____    ______ ____
ATOM      1  H   UNK    59       9.476   0.488   7.222  0.00  0.00    +0.000 HD
ATOM      2  H   UNK    59      10.065   0.488   7.222  0.00  0.00    +0.000 HD
TER 
REMARK  Name = /public/home/mengxl/dzy/yeastbridge_re/product/chembl_branch/structures/fpocket_out/P08913_1HOD/P08913_1HOD.pdb
REMARK                            x       y       z     vdW  Elec       q    Type
REMARK                         _______ _______ _______ _____ _____    ______ ____
ATOM      1  H   UNK    60       9.412   0.459   7.270  0.00  0.00    +0.000 HD
ATOM      2  H   UNK    60      10.001   0.459   7.270  0.00  0.00    +0.000 HD
TER 
REMARK  Name = /public/home/mengxl/dzy/yeastbridge_re/product/chembl_branch/structures/fpocket_out/P08913_1HOD/P08913_1HOD.pdb
REMARK                            x       y       z     vdW  Elec       q    Type
REMARK                         _______ _______ _______ _____ _____    ______ ____
ATOM      1  C   UNL    61       8.015  -4.475   6.994  0.00  0.00    +0.000 C 
TER 
REMARK  Name = /public/home/mengxl/dzy/yeastbridge_re/product/chembl_branch/structures/fpocket_out/P08913_1HOD/P08913_1HOD.pdb
REMARK                            x       y       z     vdW  Elec       q    Type
REMARK                         _______ _______ _______ _____ _____    ______ ____
ATOM      1  C   UNL    62       7.738  -4.487   8.145  0.00  0.00    +0.000 C 
TER 
REMARK  Name = /public/home/mengxl/dzy/yeastbridge_re/product/chembl_branch/structures/fpocket_out/P08913_1HOD/P08913_1HOD.pdb
REMARK                            x       y       z     vdW  Elec       q    Type
REMARK                         _______ _______ _______ _____ _____    ______ ____
ATOM      1  C   UNL    63       7.453  -4.981   8.637  0.00  0.00    +0.000 C 
TER 
REMARK  Name = /public/home/mengxl/dzy/yeastbridge_re/product/chembl_branch/structures/fpocket_out/P08913_1HOD/P08913_1HOD.pdb
REMARK                            x       y       z     vdW  Elec       q    Type
REMARK                         _______ _______ _______ _____ _____    ______ ____
ATOM      1  O   UNK    31       7.526  -5.184   8.720  0.00  0.00    +0.000 OA
ATOM      2  N   UNK    31       7.125  -5.161   8.956  0.00  0.00    +0.000 NA
ATOM      3  H   UNK    31       7.111  -4.789   9.867  0.00  0.00    +0.000 HD
TER 
REMARK  Name = /public/home/mengxl/dzy/yeastbridge_re/product/chembl_branch/structures/fpocket_out/P08913_1HOD/P08913_1HOD.pdb
REMARK                            x       y       z     vdW  Elec       q    Type
REMARK                         _______ _______ _______ _____ _____    ______ ____
ATOM      1  C   UNL    64      11.231  -4.040   2.772  0.00  0.00    +0.000 C 
ATOM      2  O   UNL    64      11.286  -4.002   1.975  0.00  0.00    +0.000 OA
ATOM      3  N   UNL    64      11.826  -3.322   3.087  0.00  0.00    +0.000 N 
ATOM      4  C   UNL    64      12.616  -2.404   2.489  0.00  0.00    +0.000 C 
ATOM      5  C   UNL    64      13.927  -2.745   2.778  0.00  0.00    +0.000 C 
ATOM      6  O   UNL    64      14.653  -2.942   1.964  0.00  0.00    +0.000 OA
ATOM      7  C   UNL    64      12.254  -1.082   2.813  0.00  0.00    +0.000 C 
ATOM      8  C   UNL    64      11.459  -0.547   1.876  0.00  0.00    +0.000 C 
ATOM      9  C   UNL    64      13.331  -0.295   2.999  0.00  0.00    +0.000 C 
ATOM     10  C   UNL    64      10.987   0.676   2.137  0.00  0.00    +0.000 C 
ATOM     11  N   UNL    64      14.190  -2.804   3.939  0.00  0.00    +0.000 N 
ATOM     12  C   UNL    64      15.401  -3.118   4.345  0.00  0.00    +0.000 C 
ATOM     13  C   UNL    64      15.688  -4.507   4.377  0.00  0.00    +0.000 C 
ATOM     14  O   UNL    64      16.535  -4.913   3.896  0.00  0.00    +0.000 OA
ATOM     15  N   UNL    64      14.966  -5.197   4.947  0.00  0.00    +0.000 N 
ATOM     16  C   UNL    64      15.133  -6.531   5.048  0.00  0.00    +0.000 C 
ATOM     17  C   UNL    64      15.398  -6.997   3.872  0.00  0.00    +0.000 C 
ATOM     18  O   UNL    64      16.223  -7.746   3.780  0.00  0.00    +0.000 OA
ATOM     19  C   UNL    64      13.969  -7.016   5.462  0.00  0.00    +0.000 C 
ATOM     20  N   UNL    64      14.684  -6.533   3.002  0.00  0.00    +0.000 N 
ATOM     21  C   UNL    64      14.832  -6.892   1.836  0.00  0.00    +0.000 C 
ATOM     22  C   UNL    64      15.961  -6.574   1.415  0.00  0.00    +0.000 C 
ATOM     23  O   UNL    64      16.427  -7.219   0.951  0.00  0.00    +0.000 OA
ATOM     24  C   UNL    64      13.975  -6.285   0.932  0.00  0.00    +0.000 C 
ATOM     25  C   UNL    64      13.667  -7.119  -0.006  0.00  0.00    +0.000 C 
ATOM     26  O   UNL    64      14.240  -7.210  -0.880  0.00  0.00    +0.000 OA
ATOM     27  N   UNL    64      12.731  -7.722   0.224  0.00  0.00    +0.000 N 
ATOM     28  N   UNL    64      16.369  -5.579   1.590  0.00  0.00    +0.000 N 
ATOM     29  C   UNL    64      17.435  -5.167   1.234  0.00  0.00    +0.000 C 
ATOM     30  C   UNL    64      17.648  -4.062   1.440  0.00  0.00    +0.000 C 
ATOM     31  H   UNL    64      12.212  -4.112   1.709  0.00  0.00    +0.000 HD
ATOM     32  H   UNL    64      11.204  -2.748   3.656  0.00  0.00    +0.000 HD
ATOM     33  H   UNL    64      12.592  -3.947   3.337  0.00  0.00    +0.000 HD
ATOM     34  H   UNL    64      13.490  -2.615   4.605  0.00  0.00    +0.000 HD
ATOM     35  H   UNL    64      14.183  -4.791   5.385  0.00  0.00    +0.000 HD
ATOM     36  H   UNL    64      13.991  -5.873   3.232  0.00  0.00    +0.000 HD
ATOM     37  H   UNL    64      12.404  -8.389  -0.422  0.00  0.00    +0.000 HD
ATOM     38  H   UNL    64      12.248  -7.578   1.070  0.00  0.00    +0.000 HD
ATOM     39  H   UNL    64      15.801  -4.953   2.094  0.00  0.00    +0.000 HD
TER 
REMARK  Name = /public/home/mengxl/dzy/yeastbridge_re/product/chembl_branch/structures/fpocket_out/P08913_1HOD/P08913_1HOD.pdb
REMARK                            x       y       z     vdW  Elec       q    Type
REMARK                         _______ _______ _______ _____ _____    ______ ____
ATOM      1  H   UNK    65       9.303  -5.747   2.462  0.00  0.00    +0.000 HD
ATOM      2  H   UNK    65       9.892  -5.747   2.462  0.00  0.00    +0.000 HD
TER 
REMARK  Name = /public/home/mengxl/dzy/yeastbridge_re/product/chembl_branch/structures/fpocket_out/P08913_1HOD/P08913_1HOD.pdb
REMARK                            x       y       z     vdW  Elec       q    Type
REMARK                         _______ _______ _______ _____ _____    ______ ____
ATOM      1  H   UNK    66       9.392  -5.766   2.497  0.00  0.00    +0.000 HD
ATOM      2  H   UNK    66       9.981  -5.766   2.497  0.00  0.00    +0.000 HD
TER 
REMARK  Name = /public/home/mengxl/dzy/yeastbridge_re/product/chembl_branch/structures/fpocket_out/P08913_1HOD/P08913_1HOD.pdb
REMARK                            x       y       z     vdW  Elec       q    Type
REMARK                         _______ _______ _______ _____ _____    ______ ____
ATOM      1  H   UNK    67      13.545  -0.012   2.893  0.00  0.00    +0.000 HD
ATOM      2  H   UNK    67      14.134  -0.012   2.893  0.00  0.00    +0.000 HD
TER 
REMARK  Name = /public/home/mengxl/dzy/yeastbridge_re/product/chembl_branch/structures/fpocket_out/P08913_1HOD/P08913_1HOD.pdb
REMARK                            x       y       z     vdW  Elec       q    Type
REMARK                         _______ _______ _______ _____ _____    ______ ____
ATOM      1  H   UNK    68      13.405  -0.076   3.174  0.00  0.00    +0.000 HD
ATOM      2  H   UNK    68      13.994  -0.076   3.174  0.00  0.00    +0.000 HD
TER 
REMARK  Name = /public/home/mengxl/dzy/yeastbridge_re/product/chembl_branch/structures/fpocket_out/P08913_1HOD/P08913_1HOD.pdb
REMARK                            x       y       z     vdW  Elec       q    Type
REMARK                         _______ _______ _______ _____ _____    ______ ____
ATOM      1  H   UNK    69      10.750   0.973   2.147  0.00  0.00    +0.000 HD
ATOM      2  H   UNK    69      11.339   0.973   2.147  0.00  0.00    +0.000 HD
TER 
REMARK  Name = /public/home/mengxl/dzy/yeastbridge_re/product/chembl_branch/structures/fpocket_out/P08913_1HOD/P08913_1HOD.pdb
REMARK                            x       y       z     vdW  Elec       q    Type
REMARK                         _______ _______ _______ _____ _____    ______ ____
ATOM      1  H   UNK    70      10.926   0.961   2.304  0.00  0.00    +0.000 HD
ATOM      2  H   UNK    70      11.515   0.961   2.304  0.00  0.00    +0.000 HD
TER 
REMARK  Name = /public/home/mengxl/dzy/yeastbridge_re/product/chembl_branch/structures/fpocket_out/P08913_1HOD/P08913_1HOD.pdb
REMARK                            x       y       z     vdW  Elec       q    Type
REMARK                         _______ _______ _______ _____ _____    ______ ____
ATOM      1  H   UNK    71      10.949   0.965   2.145  0.00  0.00    +0.000 HD
ATOM      2  H   UNK    71      11.538   0.965   2.145  0.00  0.00    +0.000 HD
TER 
REMARK  Name = /public/home/mengxl/dzy/yeastbridge_re/product/chembl_branch/structures/fpocket_out/P08913_1HOD/P08913_1HOD.pdb
REMARK                            x       y       z     vdW  Elec       q    Type
REMARK                         _______ _______ _______ _____ _____    ______ ____
ATOM      1  C   UNK    32      15.626  -2.663   5.540  0.00  0.00    +0.000 C 
ATOM      2  C   UNK    32      16.349  -2.301   5.679  0.00  0.00    +0.000 C 
ATOM      3  C   UNK    32      16.671  -2.000   6.271  0.00  0.00    +0.000 C 
TER 
REMARK  Name = /public/home/mengxl/dzy/yeastbridge_re/product/chembl_branch/structures/fpocket_out/P08913_1HOD/P08913_1HOD.pdb
REMARK                            x       y       z     vdW  Elec       q    Type
REMARK                         _______ _______ _______ _____ _____    ______ ____
ATOM      1  O   UNL    33      16.612  -1.995   6.394  0.00  0.00    +0.000 OA
ATOM      2  O   UNL    33      16.970  -1.783   6.588  0.00  0.00    +0.000 OA
ATOM      3  H   UNL    33      16.929  -2.733   5.850  0.00  0.00    +0.000 HD
ATOM      4  H   UNL    33      16.653  -1.045   7.132  0.00  0.00    +0.000 HD
TER 
REMARK  Name = /public/home/mengxl/dzy/yeastbridge_re/product/chembl_branch/structures/fpocket_out/P08913_1HOD/P08913_1HOD.pdb
REMARK                            x       y       z     vdW  Elec       q    Type
REMARK                         _______ _______ _______ _____ _____    ______ ____
ATOM      1  H   UNK    72      16.431  -2.145   5.390  0.00  0.00    +0.000 HD
ATOM      2  H   UNK    72      17.020  -2.145   5.390  0.00  0.00    +0.000 HD
TER 
REMARK  Name = /public/home/mengxl/dzy/yeastbridge_re/product/chembl_branch/structures/fpocket_out/P08913_1HOD/P08913_1HOD.pdb
REMARK                            x       y       z     vdW  Elec       q    Type
REMARK                         _______ _______ _______ _____ _____    ______ ____
ATOM      1  C   UNL    34      14.036  -7.555   6.634  0.00  0.00    +0.000 C 
ATOM      2  C   UNL    34      14.036  -7.472   7.329  0.00  0.00    +0.000 C 
ATOM      3  C   UNL    34      14.095  -8.123   6.997  0.00  0.00    +0.000 C 
TER 
REMARK  Name = /public/home/mengxl/dzy/yeastbridge_re/product/chembl_branch/structures/fpocket_out/P08913_1HOD/P08913_1HOD.pdb
REMARK                            x       y       z     vdW  Elec       q    Type
REMARK                         _______ _______ _______ _____ _____    ______ ____
ATOM      1  C   UNL    35      14.099  -7.979   8.432  0.00  0.00    +0.000 C 
ATOM      2  C   UNL    35      14.158  -8.630   8.101  0.00  0.00    +0.000 C 
ATOM      3  C   UNL    35      14.157  -8.533   8.764  0.00  0.00    +0.000 C 
TER 
REMARK  Name = /public/home/mengxl/dzy/yeastbridge_re/product/chembl_branch/structures/fpocket_out/P08913_1HOD/P08913_1HOD.pdb
REMARK                            x       y       z     vdW  Elec       q    Type
REMARK                         _______ _______ _______ _____ _____    ______ ____
ATOM      1  O   HOH    73      14.216  -9.012   9.806  0.00  0.00    +0.000 OA
ATOM      2  H   HOH    73      15.186  -9.012   9.806  0.00  0.00    +0.000 HD
ATOM      3  H   HOH    73      13.893  -8.248  10.308  0.00  0.00    +0.000 HD
TER 
REMARK  Name = /public/home/mengxl/dzy/yeastbridge_re/product/chembl_branch/structures/fpocket_out/P08913_1HOD/P08913_1HOD.pdb
REMARK                            x       y       z     vdW  Elec       q    Type
REMARK                         _______ _______ _______ _____ _____    ______ ____
ATOM      1  C   UNL    36      18.257  -5.869   1.720  0.00  0.00    +0.000 C 
ATOM      2  O   UNL    36      18.852  -5.918   1.529  0.00  0.00    +0.000 OA
ATOM      3  N   UNL    36      18.264  -6.394   2.339  0.00  0.00    +0.000 N 
ATOM      4  H   UNL    36      19.050  -6.845   1.321  0.00  0.00    +0.000 HD
ATOM      5  H   UNL    36      18.572  -7.308   2.006  0.00  0.00    +0.000 HD
ATOM      6  H   UNL    36      17.325  -6.473   2.729  0.00  0.00    +0.000 HD
ATOM      7  H   UNL    36      18.904  -6.061   3.060  0.00  0.00    +0.000 HD
TER 
REMARK  Name = /public/home/mengxl/dzy/yeastbridge_re/product/chembl_branch/structures/fpocket_out/P08913_1HOD/P08913_1HOD.pdb
REMARK                            x       y       z     vdW  Elec       q    Type
REMARK                         _______ _______ _______ _____ _____    ______ ____
ATOM      1  C   UNL    37      18.098  -3.340   0.807  0.00  0.00    +0.000 C 
ATOM      2  C   UNL    37      18.593  -3.277   0.580  0.00  0.00    +0.000 C 
TER 
REMARK  Name = /public/home/mengxl/dzy/yeastbridge_re/product/chembl_branch/structures/fpocket_out/P08913_1HOD/P08913_1HOD.pdb
REMARK                            x       y       z     vdW  Elec       q    Type
REMARK                         _______ _______ _______ _____ _____    ______ ____
ATOM      1  C   UNL    74      18.148  -2.663   0.665  0.00  0.00    +0.000 C 
TER 
REMARK  Name = /public/home/mengxl/dzy/yeastbridge_re/product/chembl_branch/structures/fpocket_out/P08913_1HOD/P08913_1HOD.pdb
REMARK                            x       y       z     vdW  Elec       q    Type
REMARK                         _______ _______ _______ _____ _____    ______ ____
ATOM      1  H   UNK    75      17.991  -2.404   0.419  0.00  0.00    +0.000 HD
ATOM      2  H   UNK    75      18.580  -2.404   0.419  0.00  0.00    +0.000 HD
TER 
REMARK  Name = /public/home/mengxl/dzy/yeastbridge_re/product/chembl_branch/structures/fpocket_out/P08913_1HOD/P08913_1HOD.pdb
REMARK                            x       y       z     vdW  Elec       q    Type
REMARK                         _______ _______ _______ _____ _____    ______ ____
ATOM      1  H   UNK    76      18.093  -2.431   0.883  0.00  0.00    +0.000 HD
ATOM      2  H   UNK    77      18.396  -2.673   0.592  0.00  0.00    +0.000 HD
TER 
REMARK  Name = /public/home/mengxl/dzy/yeastbridge_re/product/chembl_branch/structures/fpocket_out/P08913_1HOD/P08913_1HOD.pdb
REMARK                            x       y       z     vdW  Elec       q    Type
REMARK                         _______ _______ _______ _____ _____    ______ ____
ATOM      1  H   UNK    78      18.726  -3.516   0.549  0.00  0.00    +0.000 HD
ATOM      2  H   UNK    78      19.315  -3.516   0.549  0.00  0.00    +0.000 HD
TER 
REMARK  Name = /public/home/mengxl/dzy/yeastbridge_re/product/chembl_branch/structures/fpocket_out/P08913_1HOD/P08913_1HOD.pdb
REMARK                            x       y       z     vdW  Elec       q    Type
REMARK                         _______ _______ _______ _____ _____    ______ ____
ATOM      1  H   UNK    79      18.705  -3.302   0.715  0.00  0.00    +0.000 HD
ATOM      2  H   UNK    79      19.294  -3.302   0.715  0.00  0.00    +0.000 HD
TER 
REMARK  Name = /public/home/mengxl/dzy/yeastbridge_re/product/chembl_branch/structures/fpocket_out/P08913_1HOD/P08913_1HOD.pdb
REMARK                            x       y       z     vdW  Elec       q    Type
REMARK                         _______ _______ _______ _____ _____    ______ ____
ATOM      1  C   UNL    80      19.003  -7.091   2.855  0.00  0.00    +0.000 C 
ATOM      2  C   UNL    80      19.403  -6.575   3.505  0.00  0.00    +0.000 C 
ATOM      3  C   UNL    80      20.185  -6.788   3.894  0.00  0.00    +0.000 C 
ATOM      4  C   UNL    80      20.310  -6.592   4.646  0.00  0.00    +0.000 C 
ATOM      5  C   UNL    80      20.862  -6.590   4.931  0.00  0.00    +0.000 C 
TER 
REMARK  Name = /public/home/mengxl/dzy/yeastbridge_re/product/chembl_branch/structures/fpocket_out/P08913_1HOD/P08913_1HOD.pdb
REMARK                            x       y       z     vdW  Elec       q    Type
REMARK                         _______ _______ _______ _____ _____    ______ ____
ATOM      1  C   UNK    39      18.717  -8.164   3.332  0.00  0.00    +0.000 C 
ATOM      2  O   UNK    39      18.477  -8.383   3.749  0.00  0.00    +0.000 OA
ATOM      3  N   UNK    39      18.752  -8.803   3.254  0.00  0.00    +0.000 NA
ATOM      4  H   UNK    39      19.618  -9.321   3.402  0.00  0.00    +0.000 HD
TER 
REMARK  Name = /public/home/mengxl/dzy/yeastbridge_re/product/chembl_branch/structures/fpocket_out/P08913_1HOD/P08913_1HOD.pdb
REMARK                            x       y       z     vdW  Elec       q    Type
REMARK                         _______ _______ _______ _____ _____    ______ ____
ATOM      1  N   UNL    81      20.942  -6.467   5.235  0.00  0.00    +0.000 N 
ATOM      2  H   UNL    81      21.962  -6.467   5.235  0.00  0.00    +0.000 HD
ATOM      3  H   UNL    81      20.602  -5.992   4.399  0.00  0.00    +0.000 HD
ATOM      4  H   UNL    81      20.602  -5.981   6.065  0.00  0.00    +0.000 HD
ATOM      5  H   UNL    81      20.602  -7.429   5.241  0.00  0.00    +0.000 HD
TER 
REMARK  Name = /public/home/mengxl/dzy/yeastbridge_re/product/chembl_branch/structures/fpocket_out/P08913_1HOD/P08913_1HOD.pdb
REMARK                            x       y       z     vdW  Elec       q    Type
REMARK                         _______ _______ _______ _____ _____    ______ ____
ATOM      1  H   UNK    82      21.024  -6.396   4.955  0.00  0.00    +0.000 HD
ATOM      2  H   UNK    82      21.613  -6.396   4.955  0.00  0.00    +0.000 HD
TER 
REMARK  Name = /public/home/mengxl/dzy/yeastbridge_re/product/chembl_branch/structures/fpocket_out/P08913_1HOD/P08913_1HOD.pdb
REMARK                            x       y       z     vdW  Elec       q    Type
REMARK                         _______ _______ _______ _____ _____    ______ ____
ATOM      1  H   UNK    83      20.963  -6.394   5.134  0.00  0.00    +0.000 HD
ATOM      2  H   UNK    83      21.552  -6.394   5.134  0.00  0.00    +0.000 HD
TER 
REMARK  Name = /public/home/mengxl/dzy/yeastbridge_re/product/chembl_branch/structures/fpocket_out/P08913_1HOD/P08913_1HOD.pdb
REMARK                            x       y       z     vdW  Elec       q    Type
REMARK                         _______ _______ _______ _____ _____    ______ ____
ATOM      1  C   UNL    84      18.500  -9.848   3.673  0.00  0.00    +0.000 C 
ATOM      2  C   UNL    84      19.200 -10.439   3.871  0.00  0.00    +0.000 C 
ATOM      3  O   UNL    84      19.688 -10.407   3.355  0.00  0.00    +0.000 OA
ATOM      4  C   UNL    84      17.926 -10.348   3.218  0.00  0.00    +0.000 C 
ATOM      5  N   UNL    84      19.226 -10.966   4.618  0.00  0.00    +0.000 N 
ATOM      6  H   UNL    84      19.991 -11.567   4.770  0.00  0.00    +0.000 HD
ATOM      7  H   UNL    84      18.489 -10.932   5.270  0.00  0.00    +0.000 HD
TER 
REMARK  Name = /public/home/mengxl/dzy/yeastbridge_re/product/chembl_branch/structures/fpocket_out/P08913_1HOD/P08913_1HOD.pdb
REMARK                            x       y       z     vdW  Elec       q    Type
REMARK                         _______ _______ _______ _____ _____    ______ ____
ATOM      1  C   UNL    85      17.618 -11.011   3.357  0.00  0.00    +0.000 C 
TER 
REMARK  Name = /public/home/mengxl/dzy/yeastbridge_re/product/chembl_branch/structures/fpocket_out/P08913_1HOD/P08913_1HOD.pdb
REMARK                            x       y       z     vdW  Elec       q    Type
REMARK                         _______ _______ _______ _____ _____    ______ ____
ATOM      1  C   UNL    86      17.112 -11.311   2.913  0.00  0.00    +0.000 C 
TER 
REMARK  Name = /public/home/mengxl/dzy/yeastbridge_re/product/chembl_branch/structures/fpocket_out/P08913_1HOD/P08913_1HOD.pdb
REMARK                            x       y       z     vdW  Elec       q    Type
REMARK                         _______ _______ _______ _____ _____    ______ ____
ATOM      1  N   UNL    87      16.749 -11.780   2.527  0.00  0.00    +0.000 N 
ATOM      2  C   UNL    87      16.775 -11.989   1.868  0.00  0.00    +0.000 C 
ATOM      3  N   UNL    87      17.147 -11.771   1.518  0.00  0.00    +0.000 NA
ATOM      4  N   UNL    87      16.430 -12.415   1.559  0.00  0.00    +0.000 N 
ATOM      5  H   UNL    87      17.374 -11.092   2.850  0.00  0.00    +0.000 HD
ATOM      6  H   UNL    87      16.087 -12.171   3.142  0.00  0.00    +0.000 HD
ATOM      7  H   UNL    87      17.178 -12.073   0.582  0.00  0.00    +0.000 HD
ATOM      8  H   UNL    87      17.775 -11.082   1.834  0.00  0.00    +0.000 HD
ATOM      9  H   UNL    87      16.694 -11.718   2.391  0.00  0.00    +0.000 HD
ATOM     10  H   UNL    87      16.604 -12.592   0.606  0.00  0.00    +0.000 HD
ATOM     11  H   UNL    87      15.716 -12.905   2.028  0.00  0.00    +0.000 HD
TER 
REMARK  Name = /public/home/mengxl/dzy/yeastbridge_re/product/chembl_branch/structures/fpocket_out/P08913_1HOD/P08913_1HOD.pdb
REMARK                            x       y       z     vdW  Elec       q    Type
REMARK                         _______ _______ _______ _____ _____    ______ ____
ATOM      1  H   UNK    88      18.052 -10.468   2.909  0.00  0.00    +0.000 HD
ATOM      2  H   UNK    88      18.641 -10.468   2.909  0.00  0.00    +0.000 HD
TER 
REMARK  Name = /public/home/mengxl/dzy/yeastbridge_re/product/chembl_branch/structures/fpocket_out/P08913_1HOD/P08913_1HOD.pdb
REMARK                            x       y       z     vdW  Elec       q    Type
REMARK                         _______ _______ _______ _____ _____    ______ ____
ATOM      1  C   UNL    43      19.858 -11.565   4.890  0.00  0.00    +0.000 C 
ATOM      2  C   UNL    43      20.535 -11.246   4.966  0.00  0.00    +0.000 C 
ATOM      3  O   UNL    43      20.547 -11.733   4.897  0.00  0.00    +0.000 OA
TER 
REMARK  Name = /public/home/mengxl/dzy/yeastbridge_re/product/chembl_branch/structures/fpocket_out/P08913_1HOD/P08913_1HOD.pdb
REMARK                            x       y       z     vdW  Elec       q    Type
REMARK                         _______ _______ _______ _____ _____    ______ ____
ATOM      1  C   UNL    89      19.787 -12.225   5.578  0.00  0.00    +0.000 C 
ATOM      2  O   UNL    89      19.734 -12.304   6.003  0.00  0.00    +0.000 OA
ATOM      3  N   UNL    89      19.790 -12.695   5.668  0.00  0.00    +0.000 N 
ATOM      4  C   UNL    89      19.751 -13.256   5.460  0.00  0.00    +0.000 C 
ATOM      5  C   UNL    89      19.852 -12.619   5.176  0.00  0.00    +0.000 C 
TER 
REMARK  Name = /public/home/mengxl/dzy/yeastbridge_re/product/chembl_branch/structures/fpocket_out/P08913_1HOD/P08913_1HOD.pdb
REMARK                            x       y       z     vdW  Elec       q    Type
REMARK                         _______ _______ _______ _____ _____    ______ ____
ATOM      1  C   UNL    90      20.928 -11.177   5.527  0.00  0.00    +0.000 C 
TER 
REMARK  Name = /public/home/mengxl/dzy/yeastbridge_re/product/chembl_branch/structures/fpocket_out/P08913_1HOD/P08913_1HOD.pdb
REMARK                            x       y       z     vdW  Elec       q    Type
REMARK                         _______ _______ _______ _____ _____    ______ ____
ATOM      1  H   UNK    91      21.189 -11.308   5.680  0.00  0.00    +0.000 HD
ATOM      2  H   UNK    91      21.778 -11.308   5.680  0.00  0.00    +0.000 HD
TER 
REMARK  Name = /public/home/mengxl/dzy/yeastbridge_re/product/chembl_branch/structures/fpocket_out/P08913_1HOD/P08913_1HOD.pdb
REMARK                            x       y       z     vdW  Elec       q    Type
REMARK                         _______ _______ _______ _____ _____    ______ ____
ATOM      1  H   UNK    92      20.987 -10.901   5.449  0.00  0.00    +0.000 HD
ATOM      2  H   UNK    93      20.886 -11.275   5.853  0.00  0.00    +0.000 HD
TER 
REMARK  Name = /public/home/mengxl/dzy/yeastbridge_re/product/chembl_branch/structures/fpocket_out/P08913_1HOD/P08913_1HOD.pdb
REMARK                            x       y       z     vdW  Elec       q    Type
REMARK                         _______ _______ _______ _____ _____    ______ ____
ATOM      1  C   UNL    45      19.727 -13.347   6.296  0.00  0.00    +0.000 C 
ATOM      2  C   UNL    45      19.599 -13.672   6.090  0.00  0.00    +0.000 C 
TER 
REMARK  Name = /public/home/mengxl/dzy/yeastbridge_re/product/chembl_branch/structures/fpocket_out/P08913_1HOD/P08913_1HOD.pdb
REMARK                            x       y       z     vdW  Elec       q    Type
REMARK                         _______ _______ _______ _____ _____    ______ ____
ATOM      1  C   UNL    46      20.165 -13.664   6.978  0.00  0.00    +0.000 C 
ATOM      2  N   UNL    46      20.148 -13.868   7.611  0.00  0.00    +0.000 NA
TER 
REMARK  Name = /public/home/mengxl/dzy/yeastbridge_re/product/chembl_branch/structures/fpocket_out/P08913_1HOD/P08913_1HOD.pdb
REMARK                            x       y       z     vdW  Elec       q    Type
REMARK                         _______ _______ _______ _____ _____    ______ ____
ATOM      1  O   HOH    94      20.500 -13.715   6.917  0.00  0.00    +0.000 OA
ATOM      2  H   HOH    94      21.470 -13.715   6.917  0.00  0.00    +0.000 HD
ATOM      3  H   HOH    94      20.177 -12.801   6.954  0.00  0.00    +0.000 HD
TER 
REMARK  Name = /public/home/mengxl/dzy/yeastbridge_re/product/chembl_branch/structures/fpocket_out/P08913_1HOD/P08913_1HOD.pdb
REMARK                            x       y       z     vdW  Elec       q    Type
REMARK                         _______ _______ _______ _____ _____    ______ ____
ATOM      1  H   UNK    95      19.478 -13.354   6.402  0.00  0.00    +0.000 HD
ATOM      2  H   UNK    95      20.067 -13.354   6.402  0.00  0.00    +0.000 HD
TER 
REMARK  Name = /public/home/mengxl/dzy/yeastbridge_re/product/chembl_branch/structures/fpocket_out/P08913_1HOD/P08913_1HOD.pdb
REMARK                            x       y       z     vdW  Elec       q    Type
REMARK                         _______ _______ _______ _____ _____    ______ ____
ATOM      1  H   UNK    96      20.202 -12.506   5.177  0.00  0.00    +0.000 HD
ATOM      2  H   UNK    96      20.791 -12.506   5.177  0.00  0.00    +0.000 HD
TER 
REMARK  Name = /public/home/mengxl/dzy/yeastbridge_re/product/chembl_branch/structures/fpocket_out/P08913_1HOD/P08913_1HOD.pdb
REMARK                            x       y       z     vdW  Elec       q    Type
REMARK                         _______ _______ _______ _____ _____    ______ ____
ATOM      1  C   UNL    97      20.539 -14.179   8.303  0.00  0.00    +0.000 C 
ATOM      2  C   UNL    97      20.555 -14.648   8.618  0.00  0.00    +0.000 C 
ATOM      3  N   UNL    97      20.975 -15.028   8.817  0.00  0.00    +0.000 NA
ATOM      4  C   UNL    97      21.042 -15.498   9.124  0.00  0.00    +0.000 C 
ATOM      5  O   UNL    97      21.357 -15.782   9.352  0.00  0.00    +0.000 OA
ATOM      6  C   UNL    97      21.069 -16.237   9.271  0.00  0.00    +0.000 C 
TER 
REMARK  Name = /public/home/mengxl/dzy/yeastbridge_re/product/chembl_branch/structures/fpocket_out/P08913_1HOD/P08913_1HOD.pdb
REMARK                            x       y       z     vdW  Elec       q    Type
REMARK                         _______ _______ _______ _____ _____    ______ ____
ATOM      1  O   UNK    47      20.196 -14.656   8.671  0.00  0.00    +0.000 OA
ATOM      2  C   UNK    47      20.463 -14.031   8.575  0.00  0.00    +0.000 C 
ATOM      3  H   UNK    47      19.857 -14.996   7.828  0.00  0.00    +0.000 HD
TER 
REMARK  Name = /public/home/mengxl/dzy/yeastbridge_re/product/chembl_branch/structures/fpocket_out/P08913_1HOD/P08913_1HOD.pdb
REMARK                            x       y       z     vdW  Elec       q    Type
REMARK                         _______ _______ _______ _____ _____    ______ ____
ATOM      1  C   UNL    48      20.875 -14.016   9.079  0.00  0.00    +0.000 C 
ATOM      2  C   UNL    48      20.829 -13.803   9.483  0.00  0.00    +0.000 C 
TER 
REMARK  Name = /public/home/mengxl/dzy/yeastbridge_re/product/chembl_branch/structures/fpocket_out/P08913_1HOD/P08913_1HOD.pdb
REMARK                            x       y       z     vdW  Elec       q    Type
REMARK                         _______ _______ _______ _____ _____    ______ ____
ATOM      1  N   UNL    49      21.211 -13.862  10.031  0.00  0.00    +0.000 NA
ATOM      2  N   UNL    49      20.942 -14.167   9.945  0.00  0.00    +0.000 NA
ATOM      3  H   UNL    49      21.933 -14.012  10.683  0.00  0.00    +0.000 HD
ATOM      4  H   UNL    49      20.220 -14.017   9.293  0.00  0.00    +0.000 HD
TER 
REMARK  Name = /public/home/mengxl/dzy/yeastbridge_re/product/chembl_branch/structures/fpocket_out/P08913_1HOD/P08913_1HOD.pdb
REMARK                            x       y       z     vdW  Elec       q    Type
REMARK                         _______ _______ _______ _____ _____    ______ ____
ATOM      1  C   UNL    98      21.255 -14.035  10.239  0.00  0.00    +0.000 C 
TER 
REMARK  Name = /public/home/mengxl/dzy/yeastbridge_re/product/chembl_branch/structures/fpocket_out/P08913_1HOD/P08913_1HOD.pdb
REMARK                            x       y       z     vdW  Elec       q    Type
REMARK                         _______ _______ _______ _____ _____    ______ ____
ATOM      1  N   UNL    99      21.613 -14.075  10.741  0.00  0.00    +0.000 N 
ATOM      2  H   UNL    99      22.633 -14.075  10.741  0.00  0.00    +0.000 HD
ATOM      3  H   UNL    99      21.273 -14.763  11.413  0.00  0.00    +0.000 HD
ATOM      4  H   UNL    99      21.273 -14.313   9.809  0.00  0.00    +0.000 HD
ATOM      5  H   UNL    99      21.273 -13.149  11.001  0.00  0.00    +0.000 HD
TER 
REMARK  Name = /public/home/mengxl/dzy/yeastbridge_re/product/chembl_branch/structures/fpocket_out/P08913_1HOD/P08913_1HOD.pdb
REMARK                            x       y       z     vdW  Elec       q    Type
REMARK                         _______ _______ _______ _____ _____    ______ ____
ATOM      1  H   UNK   100      19.875 -13.825   7.655  0.00  0.00    +0.000 HD
ATOM      2  H   UNK   100      20.464 -13.825   7.655  0.00  0.00    +0.000 HD
TER 
REMARK  Name = /public/home/mengxl/dzy/yeastbridge_re/product/chembl_branch/structures/fpocket_out/P08913_1HOD/P08913_1HOD.pdb
REMARK                            x       y       z     vdW  Elec       q    Type
REMARK                         _______ _______ _______ _____ _____    ______ ____
ATOM      1  H   UNK   101      20.606 -14.030   9.473  0.00  0.00    +0.000 HD
ATOM      2  H   UNK   101      21.195 -14.030   9.473  0.00  0.00    +0.000 HD
TER 
REMARK  Name = /public/home/mengxl/dzy/yeastbridge_re/product/chembl_branch/structures/fpocket_out/P08913_1HOD/P08913_1HOD.pdb
REMARK                            x       y       z     vdW  Elec       q    Type
REMARK                         _______ _______ _______ _____ _____    ______ ____
ATOM      1  H   UNK   102      21.846 -13.976  10.960  0.00  0.00    +0.000 HD
ATOM      2  H   UNK   102      22.435 -13.976  10.960  0.00  0.00    +0.000 HD
TER 
REMARK  Name = /public/home/mengxl/dzy/yeastbridge_re/product/chembl_branch/structures/fpocket_out/P08913_1HOD/P08913_1HOD.pdb
REMARK                            x       y       z     vdW  Elec       q    Type
REMARK                         _______ _______ _______ _____ _____    ______ ____
ATOM      1  H   UNK   103      21.646 -14.204  10.896  0.00  0.00    +0.000 HD
ATOM      2  H   UNK   103      22.235 -14.204  10.896  0.00  0.00    +0.000 HD
TER 
REMARK  Name = /public/home/mengxl/dzy/yeastbridge_re/product/chembl_branch/structures/fpocket_out/P08913_1HOD/P08913_1HOD.pdb
REMARK                            x       y       z     vdW  Elec       q    Type
REMARK                         _______ _______ _______ _____ _____    ______ ____
ATOM      1  C   UNL   104      21.289 -15.744   9.315  0.00  0.00    +0.000 C 
TER 
REMARK  Name = /public/home/mengxl/dzy/yeastbridge_re/product/chembl_branch/structures/fpocket_out/P08913_1HOD/P08913_1HOD.pdb
REMARK                            x       y       z     vdW  Elec       q    Type
REMARK                         _______ _______ _______ _____ _____    ______ ____
ATOM      1  C   UNL   105      21.158 -15.676   9.191  0.00  0.00    +0.000 C 
TER 
REMARK  Name = /public/home/mengxl/dzy/yeastbridge_re/product/chembl_branch/structures/fpocket_out/P08913_1HOD/P08913_1HOD.pdb
REMARK                            x       y       z     vdW  Elec       q    Type
REMARK                         _______ _______ _______ _____ _____    ______ ____
ATOM      1  C   UNK    54      21.130 -16.338   9.254  0.00  0.00    +0.000 C 
ATOM      2  N   UNK    54      21.119 -16.792   9.555  0.00  0.00    +0.000 N 
ATOM      3  H   UNK    54      20.688 -17.545   9.019  0.00  0.00    +0.000 HD
ATOM      4  H   UNK    54      20.577 -16.625  10.403  0.00  0.00    +0.000 HD
ATOM      5  H   UNK    54      22.071 -17.056   9.807  0.00  0.00    +0.000 HD
TER 
REMARK  Name = /public/home/mengxl/dzy/yeastbridge_re/product/chembl_branch/structures/fpocket_out/P08913_1HOD/P08913_1HOD.pdb
REMARK                            x       y       z     vdW  Elec       q    Type
REMARK                         _______ _______ _______ _____ _____    ______ ____
ATOM      1  C   UNK    55      20.833 -16.971   9.633  0.00  0.00    +0.000 C 
ATOM      2  N   UNK    55      20.532 -16.736   9.432  0.00  0.00    +0.000 NA
ATOM      3  N   UNK    55      20.847 -17.386   9.911  0.00  0.00    +0.000 N 
ATOM      4  H   UNK    55      19.587 -17.008   9.472  0.00  0.00    +0.000 HD
ATOM      5  H   UNK    55      20.015 -17.873  10.111  0.00  0.00    +0.000 HD
ATOM      6  H   UNK    55      21.707 -17.717  10.259  0.00  0.00    +0.000 HD
TER 
REMARK  Name = /public/home/mengxl/dzy/yeastbridge_re/product/chembl_branch/structures/fpocket_out/P08913_1HOD/P08913_1HOD.pdb
REMARK                            x       y       z     vdW  Elec       q    Type
REMARK                         _______ _______ _______ _____ _____    ______ ____
ATOM      1  H   UNK   106      21.265 -15.019   8.771  0.00  0.00    +0.000 HD
ATOM      2  H   UNK   106      21.854 -15.019   8.771  0.00  0.00    +0.000 HD
TER 
REMARK  Name = /public/home/mengxl/dzy/yeastbridge_re/product/chembl_branch/structures/fpocket_out/P08913_1HOD/P08913_1HOD.pdb
REMARK                            x       y       z     vdW  Elec       q    Type
REMARK                         _______ _______ _______ _____ _____    ______ ____
ATOM      1  H   UNK   107      21.266 -15.604   9.067  0.00  0.00    +0.000 HD
ATOM      2  H   UNK   107      21.855 -15.604   9.067  0.00  0.00    +0.000 HD
TER 
REMARK  Name = /public/home/mengxl/dzy/yeastbridge_re/product/chembl_branch/structures/fpocket_out/P08913_1HOD/P08913_1HOD.pdb
REMARK                            x       y       z     vdW  Elec       q    Type
REMARK                         _______ _______ _______ _____ _____    ______ ____
ATOM      1  H   UNK   108      21.201 -15.462   9.305  0.00  0.00    +0.000 HD
ATOM      2  H   UNK   108      21.790 -15.462   9.305  0.00  0.00    +0.000 HD
TER 
REMARK  Name = /public/home/mengxl/dzy/yeastbridge_re/product/chembl_branch/structures/fpocket_out/P08913_1HOD/P08913_1HOD.pdb
REMARK                            x       y       z     vdW  Elec       q    Type
REMARK                         _______ _______ _______ _____ _____    ______ ____
ATOM      1  H   UNK   109      21.240 -16.463   9.127  0.00  0.00    +0.000 HD
ATOM      2  H   UNK   109      21.829 -16.463   9.127  0.00  0.00    +0.000 HD
TER 
REMARK  Name = /public/home/mengxl/dzy/yeastbridge_re/product/chembl_branch/structures/fpocket_out/P08913_1HOD/P08913_1HOD.pdb
REMARK                            x       y       z     vdW  Elec       q    Type
REMARK                         _______ _______ _______ _____ _____    ______ ____
ATOM      1  H   UNK   110      21.396 -16.298   9.087  0.00  0.00    +0.000 HD
ATOM      2  H   UNK   110      21.985 -16.298   9.087  0.00  0.00    +0.000 HD
TER 
REMARK  Name = /public/home/mengxl/dzy/yeastbridge_re/product/chembl_branch/structures/fpocket_out/P08913_1HOD/P08913_1HOD.pdb
REMARK                            x       y       z     vdW  Elec       q    Type
REMARK                         _______ _______ _______ _____ _____    ______ ____
ATOM      1  H   UNK   111      20.318 -16.870   9.490  0.00  0.00    +0.000 HD
ATOM      2  H   UNK   111      20.907 -16.870   9.490  0.00  0.00    +0.000 HD
TER 
REMARK  Name = /public/home/mengxl/dzy/yeastbridge_re/product/chembl_branch/structures/fpocket_out/P08913_1HOD/P08913_1HOD.pdb
REMARK                            x       y       z     vdW  Elec       q    Type
REMARK                         _______ _______ _______ _____ _____    ______ ____
ATOM      1  H   UNK   112      21.072 -17.561  10.061  0.00  0.00    +0.000 HD
ATOM      2  H   UNK   113      20.633 -17.519   9.969  0.00  0.00    +0.000 HD
TER 
