REMARK  Name = /public/home/mengxl/dzy/yeastbridge_re/product/chembl_branch/structures/fpocket_out/P20309_2CSA/P20309_2CSA.pdb
REMARK                            x       y       z     vdW  Elec       q    Type
REMARK                         _______ _______ _______ _____ _____    ______ ____
ATOM      1  N   SER A   1       5.451  -4.629   4.432  0.00  0.00    +0.000 NA
ATOM      2  CA  SER A   1       6.162  -5.629   3.593  0.00  0.00    +0.000 C 
ATOM      3  C   SER A   1       7.029  -4.948   2.539  0.00  0.00    +0.000 C 
ATOM      4  O   SER A   1       6.518  -4.359   1.587  0.00  0.00    +0.000 OA
ATOM      5  CB  SER A   1       5.123  -6.529   2.921  0.00  0.00    +0.000 C 
ATOM      6  OG  SER A   1       4.125  -6.933   3.843  0.00  0.00    +0.000 OA
ATOM      7  N   GLY A   2       8.343  -5.033   2.717  0.00  0.00    +0.000 N 
ATOM      8  CA  GLY A   2       9.260  -4.421   1.773  0.00  0.00    +0.000 C 
ATOM      9  C   GLY A   2       9.245  -2.907   1.849  0.00  0.00    +0.000 C 
ATOM     10  O   GLY A   2      10.059  -2.306   2.550  0.00  0.00    +0.000 OA
ATOM     11  N   THR A   3       8.316  -2.289   1.125  0.00  0.00    +0.000 N 
ATOM     12  CA  THR A   3       8.196  -0.835   1.112  0.00  0.00    +0.000 C 
ATOM     13  C   THR A   3       9.446  -0.191   0.519  0.00  0.00    +0.000 C 
ATOM     14  O   THR A   3      10.566  -0.496   0.927  0.00  0.00    +0.000 OA
ATOM     15  CB  THR A   3       7.958  -0.307   2.528  0.00  0.00    +0.000 C 
ATOM     16  OG1 THR A   3       7.284  -1.272   3.316  0.00  0.00    +0.000 OA
ATOM     17  CG2 THR A   3       7.141   0.966   2.562  0.00  0.00    +0.000 C 
ATOM     18  N   GLU A   4       9.244   0.701  -0.444  0.00  0.00    +0.000 N 
ATOM     19  CA  GLU A   4      10.354   1.389  -1.094  0.00  0.00    +0.000 C 
ATOM     20  C   GLU A   4       9.934   2.779  -1.561  0.00  0.00    +0.000 C 
ATOM     21  O   GLU A   4      10.639   3.762  -1.330  0.00  0.00    +0.000 OA
ATOM     22  CB  GLU A   4      10.864   0.571  -2.282  0.00  0.00    +0.000 C 
ATOM     23  CG  GLU A   4       9.766   0.148  -3.244  0.00  0.00    +0.000 C 
ATOM     24  CD  GLU A   4       9.650   1.073  -4.439  0.00  0.00    +0.000 C 
ATOM     25  OE2 GLU A   4      10.127   2.224  -4.348  0.00  0.00    +0.000 OA
ATOM     26  OE1 GLU A   4       9.080   0.648  -5.466  0.00  0.00    +0.000 OA
ATOM     27  N   ALA A   5       8.781   2.853  -2.219  0.00  0.00    +0.000 N 
ATOM     28  CA  ALA A   5       8.267   4.122  -2.719  0.00  0.00    +0.000 C 
ATOM     29  C   ALA A   5       8.064   5.118  -1.581  0.00  0.00    +0.000 C 
ATOM     30  O   ALA A   5       8.536   4.905  -0.465  0.00  0.00    +0.000 OA
ATOM     31  CB  ALA A   5       6.963   3.902  -3.471  0.00  0.00    +0.000 C 
ATOM     32  N   GLU A   6       7.358   6.207  -1.872  0.00  0.00    +0.000 N 
ATOM     33  CA  GLU A   6       7.093   7.236  -0.873  0.00  0.00    +0.000 C 
ATOM     34  C   GLU A   6       6.362   6.652   0.332  0.00  0.00    +0.000 C 
ATOM     35  O   GLU A   6       6.516   7.132   1.456  0.00  0.00    +0.000 OA
ATOM     36  CB  GLU A   6       6.266   8.369  -1.485  0.00  0.00    +0.000 C 
ATOM     37  CG  GLU A   6       7.038   9.212  -2.486  0.00  0.00    +0.000 C 
ATOM     38  CD  GLU A   6       8.177   9.981  -1.846  0.00  0.00    +0.000 C 
ATOM     39  OE2 GLU A   6       7.933  11.101  -1.351  0.00  0.00    +0.000 OA
ATOM     40  OE1 GLU A   6       9.313   9.463  -1.840  0.00  0.00    +0.000 OA
ATOM     41  N   THR A   7       5.567   5.614   0.091  0.00  0.00    +0.000 N 
ATOM     42  CA  THR A   7       4.814   4.965   1.158  0.00  0.00    +0.000 C 
ATOM     43  C   THR A   7       4.132   3.700   0.651  0.00  0.00    +0.000 C 
ATOM     44  O   THR A   7       4.120   2.673   1.330  0.00  0.00    +0.000 OA
ATOM     45  CB  THR A   7       3.771   5.926   1.732  0.00  0.00    +0.000 C 
ATOM     46  OG1 THR A   7       2.891   5.245   2.608  0.00  0.00    +0.000 OA
ATOM     47  CG2 THR A   7       2.931   6.601   0.670  0.00  0.00    +0.000 C 
ATOM     48  N   GLU A   8       3.565   3.782  -0.547  0.00  0.00    +0.000 N 
ATOM     49  CA  GLU A   8       2.880   2.644  -1.149  0.00  0.00    +0.000 C 
ATOM     50  C   GLU A   8       1.721   2.179  -0.272  0.00  0.00    +0.000 C 
ATOM     51  O   GLU A   8       1.385   0.995  -0.248  0.00  0.00    +0.000 OA
ATOM     52  CB  GLU A   8       3.860   1.491  -1.373  0.00  0.00    +0.000 C 
ATOM     53  CG  GLU A   8       3.501   0.609  -2.557  0.00  0.00    +0.000 C 
ATOM     54  CD  GLU A   8       4.624  -0.335  -2.942  0.00  0.00    +0.000 C 
ATOM     55  OE2 GLU A   8       5.035  -1.148  -2.088  0.00  0.00    +0.000 OA
ATOM     56  OE1 GLU A   8       5.092  -0.261  -4.098  0.00  0.00    +0.000 OA
ATOM     57  N   ASN A   9       1.116   3.119   0.447  0.00  0.00    +0.000 N 
ATOM     58  CA  ASN A   9      -0.005   2.805   1.325  0.00  0.00    +0.000 C 
ATOM     59  C   ASN A   9      -0.612   4.076   1.908  0.00  0.00    +0.000 C 
ATOM     60  O   ASN A   9      -0.085   4.647   2.864  0.00  0.00    +0.000 OA
ATOM     61  CB  ASN A   9       0.449   1.878   2.455  0.00  0.00    +0.000 C 
ATOM     62  CG  ASN A   9      -0.699   1.444   3.344  0.00  0.00    +0.000 C 
ATOM     63  OD1 ASN A   9      -1.366   2.271   3.965  0.00  0.00    +0.000 OA
ATOM     64  ND2 ASN A   9      -0.936   0.139   3.409  0.00  0.00    +0.000 N 
ATOM     65  N   PHE A  10      -1.724   4.516   1.327  0.00  0.00    +0.000 N 
ATOM     66  CA  PHE A  10      -2.403   5.721   1.789  0.00  0.00    +0.000 C 
ATOM     67  C   PHE A  10      -3.910   5.608   1.584  0.00  0.00    +0.000 C 
ATOM     68  O   PHE A  10      -4.690   5.816   2.514  0.00  0.00    +0.000 OA
ATOM     69  CB  PHE A  10      -1.867   6.949   1.051  0.00  0.00    +0.000 C 
ATOM     70  CG  PHE A  10      -1.754   6.755  -0.435  0.00  0.00    +0.000 A 
ATOM     71  CD2 PHE A  10      -0.700   6.035  -0.974  0.00  0.00    +0.000 A 
ATOM     72  CD1 PHE A  10      -2.701   7.292  -1.291  0.00  0.00    +0.000 A 
ATOM     73  CE2 PHE A  10      -0.593   5.854  -2.340  0.00  0.00    +0.000 A 
ATOM     74  CE1 PHE A  10      -2.600   7.116  -2.658  0.00  0.00    +0.000 A 
ATOM     75  CZ  PHE A  10      -1.544   6.396  -3.183  0.00  0.00    +0.000 A 
ATOM     76  N   VAL A  11      -4.313   5.277   0.362  0.00  0.00    +0.000 N 
ATOM     77  CA  VAL A  11      -5.727   5.136   0.036  0.00  0.00    +0.000 C 
ATOM     78  C   VAL A  11      -5.935   4.127  -1.088  0.00  0.00    +0.000 C 
ATOM     79  O   VAL A  11      -6.797   3.254  -1.002  0.00  0.00    +0.000 OA
ATOM     80  CB  VAL A  11      -6.346   6.484  -0.380  0.00  0.00    +0.000 C 
ATOM     81  CG1 VAL A  11      -7.855   6.359  -0.521  0.00  0.00    +0.000 C 
ATOM     82  CG2 VAL A  11      -5.985   7.568   0.624  0.00  0.00    +0.000 C 
ATOM     83  N   HIS A  12      -5.138   4.257  -2.141  0.00  0.00    +0.000 N 
ATOM     84  CA  HIS A  12      -5.231   3.359  -3.286  0.00  0.00    +0.000 C 
ATOM     85  C   HIS A  12      -4.527   2.033  -3.002  0.00  0.00    +0.000 C 
ATOM     86  O   HIS A  12      -5.152   0.972  -3.029  0.00  0.00    +0.000 OA
ATOM     87  CB  HIS A  12      -4.625   4.018  -4.528  0.00  0.00    +0.000 C 
ATOM     88  CG  HIS A  12      -5.642   4.657  -5.421  0.00  0.00    +0.000 C 
ATOM     89  ND1 HIS A  12      -6.749   3.989  -5.902  0.00  0.00    +0.000 N 
ATOM     90  CD2 HIS A  12      -5.718   5.914  -5.921  0.00  0.00    +0.000 C 
ATOM     91  CE1 HIS A  12      -7.459   4.806  -6.660  0.00  0.00    +0.000 C 
ATOM     92  NE2 HIS A  12      -6.855   5.979  -6.687  0.00  0.00    +0.000 N 
ATOM     93  N   PRO A  13      -3.212   2.074  -2.726  0.00  0.00    +0.000 N 
ATOM     94  CA  PRO A  13      -2.427   0.870  -2.439  0.00  0.00    +0.000 C 
ATOM     95  C   PRO A  13      -2.669   0.329  -1.031  0.00  0.00    +0.000 C 
ATOM     96  O   PRO A  13      -2.171  -0.740  -0.677  0.00  0.00    +0.000 OA
ATOM     97  CB  PRO A  13      -0.986   1.354  -2.585  0.00  0.00    +0.000 C 
ATOM     98  CG  PRO A  13      -1.037   2.798  -2.226  0.00  0.00    +0.000 C 
ATOM     99  CD  PRO A  13      -2.386   3.297  -2.674  0.00  0.00    +0.000 C 
ATOM    100  N   THR A  14      -3.432   1.069  -0.231  0.00  0.00    +0.000 N 
ATOM    101  CA  THR A  14      -3.732   0.655   1.135  0.00  0.00    +0.000 C 
ATOM    102  C   THR A  14      -4.404  -0.715   1.156  0.00  0.00    +0.000 C 
ATOM    103  O   THR A  14      -5.546  -0.864   0.721  0.00  0.00    +0.000 OA
ATOM    104  CB  THR A  14      -4.631   1.688   1.818  0.00  0.00    +0.000 C 
ATOM    105  OG1 THR A  14      -4.817   1.364   3.185  0.00  0.00    +0.000 OA
ATOM    106  CG2 THR A  14      -6.000   1.805   1.184  0.00  0.00    +0.000 C 
ATOM    107  N   GLY A  15      -3.688  -1.713   1.663  0.00  0.00    +0.000 N 
ATOM    108  CA  GLY A  15      -4.231  -3.056   1.731  0.00  0.00    +0.000 C 
ATOM    109  C   GLY A  15      -3.158  -4.122   1.627  0.00  0.00    +0.000 C 
ATOM    110  O   GLY A  15      -2.224  -3.997   0.834  0.00  0.00    +0.000 OA
ATOM    111  N   SER A  16      -3.290  -5.172   2.431  0.00  0.00    +0.000 N 
ATOM    112  CA  SER A  16      -2.323  -6.265   2.426  0.00  0.00    +0.000 C 
ATOM    113  C   SER A  16      -2.927  -7.523   1.811  0.00  0.00    +0.000 C 
ATOM    114  O   SER A  16      -2.224  -8.322   1.193  0.00  0.00    +0.000 OA
ATOM    115  CB  SER A  16      -1.847  -6.558   3.850  0.00  0.00    +0.000 C 
ATOM    116  OG  SER A  16      -0.710  -5.779   4.179  0.00  0.00    +0.000 OA
ATOM    117  N   SER A  17      -4.234  -7.692   1.984  0.00  0.00    +0.000 N 
ATOM    118  CA  SER A  17      -4.932  -8.853   1.445  0.00  0.00    +0.000 C 
ATOM    119  C   SER A  17      -4.806  -8.907  -0.074  0.00  0.00    +0.000 C 
ATOM    120  O   SER A  17      -4.056  -9.720  -0.616  0.00  0.00    +0.000 OA
ATOM    121  CB  SER A  17      -6.408  -8.817   1.845  0.00  0.00    +0.000 C 
ATOM    122  OG  SER A  17      -6.616  -9.464   3.088  0.00  0.00    +0.000 OA
ATOM    123  N   ARG A  18      -5.544  -8.037  -0.756  0.00  0.00    +0.000 N 
ATOM    124  CA  ARG A  18      -5.514  -7.986  -2.213  0.00  0.00    +0.000 C 
ATOM    125  C   ARG A  18      -4.805  -6.727  -2.699  0.00  0.00    +0.000 C 
ATOM    126  O   ARG A  18      -3.703  -6.794  -3.243  0.00  0.00    +0.000 OA
ATOM    127  CB  ARG A  18      -6.936  -8.034  -2.775  0.00  0.00    +0.000 C 
ATOM    128  CG  ARG A  18      -6.991  -8.022  -4.294  0.00  0.00    +0.000 C 
ATOM    129  CD  ARG A  18      -7.115  -9.428  -4.858  0.00  0.00    +0.000 C 
ATOM    130  NE  ARG A  18      -8.298 -10.119  -4.350  0.00  0.00    +0.000 N 
ATOM    131  CZ  ARG A  18      -8.703 -11.311  -4.782  0.00  0.00    +0.000 C 
ATOM    132  NH1 ARG A  18      -8.024 -11.947  -5.728  0.00  0.00    +0.000 NA
ATOM    133  NH2 ARG A  18      -9.790 -11.869  -4.266  0.00  0.00    +0.000 N 
ATOM    134  N   SER A  19      -5.444  -5.579  -2.499  0.00  0.00    +0.000 N 
ATOM    135  CA  SER A  19      -4.874  -4.303  -2.917  0.00  0.00    +0.000 C 
ATOM    136  C   SER A  19      -4.645  -4.278  -4.424  0.00  0.00    +0.000 C 
ATOM    137  O   SER A  19      -5.053  -3.336  -5.100  0.00  0.00    +0.000 OA
ATOM    138  CB  SER A  19      -3.556  -4.046  -2.184  0.00  0.00    +0.000 C 
ATOM    139  OG  SER A  19      -3.769  -3.306  -0.995  0.00  0.00    +0.000 OA
ATOM    140  H   SER A   1       6.132  -4.021   4.887  0.00  0.00    +0.000 HD
ATOM    141  H   SER A   1       4.899  -5.111   5.141  0.00  0.00    +0.000 HD
ATOM    142  H   SER A   1       4.834  -4.068   3.844  0.00  0.00    +0.000 HD
ATOM    143  H   SER A   1       4.588  -4.237   4.809  0.00  0.00    +0.000 HD
ATOM    144  H   SER A   1       4.535  -7.435   4.564  0.00  0.00    +0.000 HD
ATOM    145  H   GLY A   2       8.698  -5.516   3.498  0.00  0.00    +0.000 HD
ATOM    146  H   THR A   3       7.693  -2.826   0.584  0.00  0.00    +0.000 HD
ATOM    147  H   THR A   3       6.407  -1.442   2.939  0.00  0.00    +0.000 HD
ATOM    148  H   GLU A   4       8.323   0.903  -0.726  0.00  0.00    +0.000 HD
ATOM    149  H   ALA A   5       8.262   2.031  -2.372  0.00  0.00    +0.000 HD
ATOM    150  H   GLU A   6       7.006   6.321  -2.784  0.00  0.00    +0.000 HD
ATOM    151  H   THR A   7       5.485   5.275  -0.830  0.00  0.00    +0.000 HD
ATOM    152  H   THR A   7       2.398   4.573   2.112  0.00  0.00    +0.000 HD
ATOM    153  H   GLU A   8       3.608   4.632  -1.041  0.00  0.00    +0.000 HD
ATOM    154  H   ASN A   9       1.432   4.049   0.385  0.00  0.00    +0.000 HD
ATOM    155  H   ASN A   9      -0.378  -0.489   2.896  0.00  0.00    +0.000 HD
ATOM    156  H   ASN A   9      -1.670  -0.201   3.971  0.00  0.00    +0.000 HD
ATOM    157  H   PHE A  10      -2.098   4.016   0.566  0.00  0.00    +0.000 HD
ATOM    158  H   VAL A  11      -3.640   5.123  -0.340  0.00  0.00    +0.000 HD
ATOM    159  H   HIS A  12      -4.467   4.978  -2.149  0.00  0.00    +0.000 HD
ATOM    160  H   HIS A  12      -6.975   3.050  -5.710  0.00  0.00    +0.000 HD
ATOM    161  H   HIS A  12      -7.169   6.773  -7.177  0.00  0.00    +0.000 HD
ATOM    162  H   THR A  14      -3.803   1.916  -0.569  0.00  0.00    +0.000 HD
ATOM    163  H   THR A  14      -5.278   0.514   3.256  0.00  0.00    +0.000 HD
ATOM    164  H   GLY A  15      -2.778  -1.539   1.996  0.00  0.00    +0.000 HD
ATOM    165  H   SER A  16      -4.059  -5.213   3.045  0.00  0.00    +0.000 HD
ATOM    166  H   SER A  16       0.015  -5.992   3.571  0.00  0.00    +0.000 HD
ATOM    167  H   SER A  17      -4.743  -7.017   2.488  0.00  0.00    +0.000 HD
ATOM    168  H   SER A  17      -6.347 -10.393   3.018  0.00  0.00    +0.000 HD
ATOM    169  H   ARG A  18      -6.125  -7.412  -0.265  0.00  0.00    +0.000 HD
ATOM    170  H   ARG A  18      -8.827  -9.677  -3.647  0.00  0.00    +0.000 HD
ATOM    171  H   ARG A  18      -7.216 -11.537  -6.114  0.00  0.00    +0.000 HD
ATOM    172  H   ARG A  18      -8.328 -12.829  -6.044  0.00  0.00    +0.000 HD
ATOM    173  H   ARG A  18      -7.144 -12.330  -5.948  0.00  0.00    +0.000 HD
ATOM    174  H   ARG A  18     -10.090 -12.751  -4.585  0.00  0.00    +0.000 HD
ATOM    175  H   ARG A  18     -10.297 -11.401  -3.564  0.00  0.00    +0.000 HD
ATOM    176  H   SER A  19      -6.324  -5.590  -2.058  0.00  0.00    +0.000 HD
ATOM    177  H   SER A  19      -4.162  -2.447  -1.215  0.00  0.00    +0.000 HD
TER 
