MODEL 1
REMARK VINA RESULT:      -6.9      0.000      0.000
REMARK SMILES O=C(CCC[NH+]1CCC(O)(c2ccc(Cl)cc2)CC1)c1ccc(F)cc1
REMARK SMILES IDX 4 1 3 2 2 3 1 4 20 5 21 6 26 7 22 8 25 9 23 10 24 11 5 12
REMARK SMILES IDX 6 13 7 14 19 15 8 16 18 17 9 18 10 20 11 22 12 23 17 24
REMARK SMILES IDX 13 25 16 26 14 27 15 28
REMARK H PARENT 6 19 10 21
ROOT
ATOM      1  C   UNL     1      28.541  21.199 -21.002  1.00  0.00     0.070 C 
ENDROOT
BRANCH   1   2
ATOM      2  C   UNL     1      28.872  20.815 -19.577  1.00  0.00     0.087 C 
BRANCH   2   3
ATOM      3  C   UNL     1      28.427  19.473 -19.195  1.00  0.00     0.163 C 
ATOM      4  O   UNL     1      29.242  18.599 -18.802  1.00  0.00    -0.294 OA
BRANCH   3   5
ATOM      5  C   UNL     1      27.008  19.065 -19.246  1.00  0.00     0.018 A 
ATOM      6  C   UNL     1      26.639  17.882 -19.860  1.00  0.00     0.015 A 
ATOM      7  C   UNL     1      26.028  19.846 -18.688  1.00  0.00     0.015 A 
ATOM      8  C   UNL     1      25.317  17.508 -19.904  1.00  0.00     0.040 A 
ATOM      9  C   UNL     1      24.709  19.480 -18.728  1.00  0.00     0.040 A 
ATOM     10  C   UNL     1      24.356  18.307 -19.338  1.00  0.00     0.123 A 
ATOM     11  F   UNL     1      23.026  17.976 -19.360  1.00  0.00    -0.207 F 
ENDBRANCH   3   5
ENDBRANCH   2   3
ENDBRANCH   1   2
BRANCH   1  12
ATOM     12  C   UNL     1      29.789  21.671 -21.665  1.00  0.00     0.262 C 
BRANCH  12  13
ATOM     13  N   UNL     1      29.540  22.281 -22.966  1.00  0.00    -0.335 N 
ATOM     14  C   UNL     1      30.652  22.140 -23.857  1.00  0.00     0.265 C 
ATOM     15  C   UNL     1      28.355  21.736 -23.544  1.00  0.00     0.265 C 
ATOM     16  C   UNL     1      30.982  20.694 -24.106  1.00  0.00     0.102 C 
ATOM     17  C   UNL     1      28.527  20.785 -24.652  1.00  0.00     0.102 C 
ATOM     18  C   UNL     1      29.795  20.017 -24.723  1.00  0.00     0.100 C 
ATOM     19  H   UNL     1      29.450  23.320 -22.761  1.00  0.00     0.348 HD
BRANCH  18  20
ATOM     20  O   UNL     1      30.106  19.861 -26.096  1.00  0.00    -0.385 OA
ATOM     21  H   UNL     1      29.562  20.526 -26.587  1.00  0.00     0.211 HD
ENDBRANCH  18  20
BRANCH  18  22
ATOM     22  C   UNL     1      29.647  18.605 -24.220  1.00  0.00    -0.016 A 
ATOM     23  C   UNL     1      30.417  17.570 -24.706  1.00  0.00     0.008 A 
ATOM     24  C   UNL     1      28.737  18.258 -23.246  1.00  0.00     0.008 A 
ATOM     25  C   UNL     1      30.313  16.267 -24.274  1.00  0.00     0.021 A 
ATOM     26  C   UNL     1      28.614  16.958 -22.796  1.00  0.00     0.021 A 
ATOM     27  C   UNL     1      29.402  15.964 -23.311  1.00  0.00     0.041 A 
ATOM     28  Cl  UNL     1      29.255  14.317 -22.746  1.00  0.00    -0.084 Cl
ENDBRANCH  18  22
ENDBRANCH  12  13
ENDBRANCH   1  12
TORSDOF 7
ENDMDL
MODEL 2
REMARK VINA RESULT:      -6.9      3.532      5.605
REMARK SMILES O=C(CCC[NH+]1CCC(O)(c2ccc(Cl)cc2)CC1)c1ccc(F)cc1
REMARK SMILES IDX 4 1 3 2 2 3 1 4 20 5 21 6 26 7 22 8 25 9 23 10 24 11 5 12
REMARK SMILES IDX 6 13 7 14 19 15 8 16 18 17 9 18 10 20 11 22 12 23 17 24
REMARK SMILES IDX 13 25 16 26 14 27 15 28
REMARK H PARENT 6 19 10 21
ROOT
ATOM      1  C   UNL     1      24.100  17.058 -19.392  1.00  0.00     0.070 C 
ENDROOT
BRANCH   1   2
ATOM      2  C   UNL     1      24.893  18.335 -19.232  1.00  0.00     0.087 C 
BRANCH   2   3
ATOM      3  C   UNL     1      26.338  18.174 -19.413  1.00  0.00     0.163 C 
ATOM      4  O   UNL     1      26.904  17.067 -19.223  1.00  0.00    -0.294 OA
BRANCH   3   5
ATOM      5  C   UNL     1      27.213  19.291 -19.828  1.00  0.00     0.018 A 
ATOM      6  C   UNL     1      28.470  19.443 -19.270  1.00  0.00     0.015 A 
ATOM      7  C   UNL     1      26.802  20.198 -20.771  1.00  0.00     0.015 A 
ATOM      8  C   UNL     1      29.279  20.483 -19.660  1.00  0.00     0.040 A 
ATOM      9  C   UNL     1      27.603  21.237 -21.164  1.00  0.00     0.040 A 
ATOM     10  C   UNL     1      28.844  21.377 -20.606  1.00  0.00     0.123 A 
ATOM     11  F   UNL     1      29.615  22.430 -21.023  1.00  0.00    -0.207 F 
ENDBRANCH   3   5
ENDBRANCH   2   3
ENDBRANCH   1   2
BRANCH   1  12
ATOM     12  C   UNL     1      23.783  16.878 -20.838  1.00  0.00     0.262 C 
BRANCH  12  13
ATOM     13  N   UNL     1      23.804  15.481 -21.250  1.00  0.00    -0.335 N 
ATOM     14  C   UNL     1      23.431  15.309 -22.621  1.00  0.00     0.265 C 
ATOM     15  C   UNL     1      25.090  14.915 -21.000  1.00  0.00     0.265 C 
ATOM     16  C   UNL     1      24.358  16.052 -23.543  1.00  0.00     0.102 C 
ATOM     17  C   UNL     1      25.958  14.686 -22.164  1.00  0.00     0.102 C 
ATOM     18  C   UNL     1      25.753  15.531 -23.366  1.00  0.00     0.100 C 
ATOM     19  H   UNL     1      23.041  15.020 -20.671  1.00  0.00     0.348 HD
BRANCH  18  20
ATOM     20  O   UNL     1      26.009  14.714 -24.494  1.00  0.00    -0.385 OA
ATOM     21  H   UNL     1      25.513  13.870 -24.350  1.00  0.00     0.211 HD
ENDBRANCH  18  20
BRANCH  18  22
ATOM     22  C   UNL     1      26.769  16.638 -23.478  1.00  0.00    -0.016 A 
ATOM     23  C   UNL     1      27.878  16.699 -22.660  1.00  0.00     0.008 A 
ATOM     24  C   UNL     1      26.657  17.655 -24.401  1.00  0.00     0.008 A 
ATOM     25  C   UNL     1      28.829  17.691 -22.730  1.00  0.00     0.021 A 
ATOM     26  C   UNL     1      27.598  18.662 -24.489  1.00  0.00     0.021 A 
ATOM     27  C   UNL     1      28.683  18.679 -23.654  1.00  0.00     0.041 A 
ATOM     28  Cl  UNL     1      29.879  19.947 -23.761  1.00  0.00    -0.084 Cl
ENDBRANCH  18  22
ENDBRANCH  12  13
ENDBRANCH   1  12
TORSDOF 7
ENDMDL
MODEL 3
REMARK VINA RESULT:      -6.7      4.474      7.832
REMARK SMILES O=C(CCC[NH+]1CCC(O)(c2ccc(Cl)cc2)CC1)c1ccc(F)cc1
REMARK SMILES IDX 4 1 3 2 2 3 1 4 20 5 21 6 26 7 22 8 25 9 23 10 24 11 5 12
REMARK SMILES IDX 6 13 7 14 19 15 8 16 18 17 9 18 10 20 11 22 12 23 17 24
REMARK SMILES IDX 13 25 16 26 14 27 15 28
REMARK H PARENT 6 19 10 21
ROOT
ATOM      1  C   UNL     1      27.229  14.993 -21.740  1.00  0.00     0.070 C 
ENDROOT
BRANCH   1   2
ATOM      2  C   UNL     1      28.579  15.648 -21.552  1.00  0.00     0.087 C 
BRANCH   2   3
ATOM      3  C   UNL     1      29.718  14.777 -21.851  1.00  0.00     0.163 C 
ATOM      4  O   UNL     1      30.183  13.985 -20.992  1.00  0.00    -0.294 OA
BRANCH   3   5
ATOM      5  C   UNL     1      30.387  14.773 -23.169  1.00  0.00     0.018 A 
ATOM      6  C   UNL     1      30.602  15.957 -23.852  1.00  0.00     0.015 A 
ATOM      7  C   UNL     1      30.809  13.601 -23.744  1.00  0.00     0.015 A 
ATOM      8  C   UNL     1      31.224  15.946 -25.078  1.00  0.00     0.040 A 
ATOM      9  C   UNL     1      31.430  13.582 -24.964  1.00  0.00     0.040 A 
ATOM     10  C   UNL     1      31.636  14.760 -25.630  1.00  0.00     0.123 A 
ATOM     11  F   UNL     1      32.259  14.700 -26.850  1.00  0.00    -0.207 F 
ENDBRANCH   3   5
ENDBRANCH   2   3
ENDBRANCH   1   2
BRANCH   1  12
ATOM     12  C   UNL     1      26.682  14.648 -20.397  1.00  0.00     0.262 C 
BRANCH  12  13
ATOM     13  N   UNL     1      25.226  14.672 -20.359  1.00  0.00    -0.335 N 
ATOM     14  C   UNL     1      24.718  15.023 -19.067  1.00  0.00     0.265 C 
ATOM     15  C   UNL     1      24.722  15.556 -21.359  1.00  0.00     0.265 C 
ATOM     16  C   UNL     1      25.190  16.386 -18.640  1.00  0.00     0.102 C 
ATOM     17  C   UNL     1      24.194  16.850 -20.903  1.00  0.00     0.102 C 
ATOM     18  C   UNL     1      24.711  17.407 -19.628  1.00  0.00     0.100 C 
ATOM     19  H   UNL     1      24.937  13.663 -20.529  1.00  0.00     0.348 HD
BRANCH  18  20
ATOM     20  O   UNL     1      23.631  18.076 -19.003  1.00  0.00    -0.385 OA
ATOM     21  H   UNL     1      22.808  17.781 -19.466  1.00  0.00     0.211 HD
ENDBRANCH  18  20
BRANCH  18  22
ATOM     22  C   UNL     1      25.737  18.488 -19.841  1.00  0.00    -0.016 A 
ATOM     23  C   UNL     1      25.925  19.508 -18.932  1.00  0.00     0.008 A 
ATOM     24  C   UNL     1      26.552  18.528 -20.952  1.00  0.00     0.008 A 
ATOM     25  C   UNL     1      26.851  20.515 -19.089  1.00  0.00     0.021 A 
ATOM     26  C   UNL     1      27.487  19.527 -21.131  1.00  0.00     0.021 A 
ATOM     27  C   UNL     1      27.636  20.519 -20.199  1.00  0.00     0.041 A 
ATOM     28  Cl  UNL     1      28.819  21.787 -20.417  1.00  0.00    -0.084 Cl
ENDBRANCH  18  22
ENDBRANCH  12  13
ENDBRANCH   1  12
TORSDOF 7
ENDMDL
MODEL 4
REMARK VINA RESULT:      -6.7      0.904      1.604
REMARK SMILES O=C(CCC[NH+]1CCC(O)(c2ccc(Cl)cc2)CC1)c1ccc(F)cc1
REMARK SMILES IDX 4 1 3 2 2 3 1 4 20 5 21 6 26 7 22 8 25 9 23 10 24 11 5 12
REMARK SMILES IDX 6 13 7 14 19 15 8 16 18 17 9 18 10 20 11 22 12 23 17 24
REMARK SMILES IDX 13 25 16 26 14 27 15 28
REMARK H PARENT 6 19 10 21
ROOT
ATOM      1  C   UNL     1      28.995  20.521 -21.754  1.00  0.00     0.070 C 
ENDROOT
BRANCH   1   2
ATOM      2  C   UNL     1      29.138  21.016 -20.332  1.00  0.00     0.087 C 
BRANCH   2   3
ATOM      3  C   UNL     1      28.733  20.046 -19.313  1.00  0.00     0.163 C 
ATOM      4  O   UNL     1      29.542  19.632 -18.442  1.00  0.00    -0.294 OA
BRANCH   3   5
ATOM      5  C   UNL     1      27.363  19.497 -19.241  1.00  0.00     0.018 A 
ATOM      6  C   UNL     1      26.327  20.257 -18.727  1.00  0.00     0.015 A 
ATOM      7  C   UNL     1      27.086  18.228 -19.682  1.00  0.00     0.015 A 
ATOM      8  C   UNL     1      25.055  19.740 -18.663  1.00  0.00     0.040 A 
ATOM      9  C   UNL     1      25.821  17.706 -19.622  1.00  0.00     0.040 A 
ATOM     10  C   UNL     1      24.806  18.467 -19.111  1.00  0.00     0.123 A 
ATOM     11  F   UNL     1      23.554  17.910 -19.065  1.00  0.00    -0.207 F 
ENDBRANCH   3   5
ENDBRANCH   2   3
ENDBRANCH   1   2
BRANCH   1  12
ATOM     12  C   UNL     1      29.912  21.313 -22.623  1.00  0.00     0.262 C 
BRANCH  12  13
ATOM     13  N   UNL     1      29.337  21.606 -23.929  1.00  0.00    -0.335 N 
ATOM     14  C   UNL     1      30.264  21.386 -24.997  1.00  0.00     0.265 C 
ATOM     15  C   UNL     1      28.147  20.843 -24.125  1.00  0.00     0.265 C 
ATOM     16  C   UNL     1      30.733  19.957 -25.035  1.00  0.00     0.102 C 
ATOM     17  C   UNL     1      28.230  19.699 -25.044  1.00  0.00     0.102 C 
ATOM     18  C   UNL     1      29.552  19.056 -25.242  1.00  0.00     0.100 C 
ATOM     19  H   UNL     1      29.146  22.652 -23.908  1.00  0.00     0.348 HD
BRANCH  18  20
ATOM     20  O   UNL     1      29.612  18.642 -26.596  1.00  0.00    -0.385 OA
ATOM     21  H   UNL     1      28.680  18.629 -26.928  1.00  0.00     0.211 HD
ENDBRANCH  18  20
BRANCH  18  22
ATOM     22  C   UNL     1      29.698  17.775 -24.463  1.00  0.00    -0.016 A 
ATOM     23  C   UNL     1      28.800  17.410 -23.481  1.00  0.00     0.008 A 
ATOM     24  C   UNL     1      30.731  16.890 -24.678  1.00  0.00     0.008 A 
ATOM     25  C   UNL     1      28.897  16.251 -22.746  1.00  0.00     0.021 A 
ATOM     26  C   UNL     1      30.849  15.721 -23.953  1.00  0.00     0.021 A 
ATOM     27  C   UNL     1      29.932  15.402 -22.989  1.00  0.00     0.041 A 
ATOM     28  Cl  UNL     1      30.073  13.924 -22.068  1.00  0.00    -0.084 Cl
ENDBRANCH  18  22
ENDBRANCH  12  13
ENDBRANCH   1  12
TORSDOF 7
ENDMDL
MODEL 5
REMARK VINA RESULT:      -6.7      3.930      6.419
REMARK SMILES O=C(CCC[NH+]1CCC(O)(c2ccc(Cl)cc2)CC1)c1ccc(F)cc1
REMARK SMILES IDX 4 1 3 2 2 3 1 4 20 5 21 6 26 7 22 8 25 9 23 10 24 11 5 12
REMARK SMILES IDX 6 13 7 14 19 15 8 16 18 17 9 18 10 20 11 22 12 23 17 24
REMARK SMILES IDX 13 25 16 26 14 27 15 28
REMARK H PARENT 6 19 10 21
ROOT
ATOM      1  C   UNL     1      25.053  19.145 -18.689  1.00  0.00     0.070 C 
ENDROOT
BRANCH   1   2
ATOM      2  C   UNL     1      25.459  20.300 -19.578  1.00  0.00     0.087 C 
BRANCH   2   3
ATOM      3  C   UNL     1      26.858  20.707 -19.437  1.00  0.00     0.163 C 
ATOM      4  O   UNL     1      27.416  20.761 -18.310  1.00  0.00    -0.294 OA
BRANCH   3   5
ATOM      5  C   UNL     1      27.697  21.076 -20.597  1.00  0.00     0.018 A 
ATOM      6  C   UNL     1      28.971  21.581 -20.410  1.00  0.00     0.015 A 
ATOM      7  C   UNL     1      27.235  20.925 -21.879  1.00  0.00     0.015 A 
ATOM      8  C   UNL     1      29.745  21.922 -21.493  1.00  0.00     0.040 A 
ATOM      9  C   UNL     1      28.000  21.262 -22.963  1.00  0.00     0.040 A 
ATOM     10  C   UNL     1      29.259  21.762 -22.766  1.00  0.00     0.123 A 
ATOM     11  F   UNL     1      29.994  22.090 -23.875  1.00  0.00    -0.207 F 
ENDBRANCH   3   5
ENDBRANCH   2   3
ENDBRANCH   1   2
BRANCH   1  12
ATOM     12  C   UNL     1      25.118  17.890 -19.489  1.00  0.00     0.262 C 
BRANCH  12  13
ATOM     13  N   UNL     1      26.348  17.142 -19.266  1.00  0.00    -0.335 N 
ATOM     14  C   UNL     1      26.106  15.836 -18.733  1.00  0.00     0.265 C 
ATOM     15  C   UNL     1      27.102  17.063 -20.475  1.00  0.00     0.265 C 
ATOM     16  C   UNL     1      25.253  15.011 -19.658  1.00  0.00     0.102 C 
ATOM     17  C   UNL     1      27.109  15.772 -21.177  1.00  0.00     0.102 C 
ATOM     18  C   UNL     1      25.956  14.859 -20.973  1.00  0.00     0.100 C 
ATOM     19  H   UNL     1      26.858  17.685 -18.507  1.00  0.00     0.348 HD
BRANCH  18  20
ATOM     20  O   UNL     1      26.467  13.538 -20.991  1.00  0.00    -0.385 OA
ATOM     21  H   UNL     1      27.451  13.615 -20.910  1.00  0.00     0.211 HD
ENDBRANCH  18  20
BRANCH  18  22
ATOM     22  C   UNL     1      24.982  14.890 -22.122  1.00  0.00    -0.016 A 
ATOM     23  C   UNL     1      23.857  15.688 -22.106  1.00  0.00     0.008 A 
ATOM     24  C   UNL     1      25.151  14.126 -23.256  1.00  0.00     0.008 A 
ATOM     25  C   UNL     1      22.943  15.744 -23.134  1.00  0.00     0.021 A 
ATOM     26  C   UNL     1      24.247  14.166 -24.299  1.00  0.00     0.021 A 
ATOM     27  C   UNL     1      23.144  14.975 -24.237  1.00  0.00     0.041 A 
ATOM     28  Cl  UNL     1      21.997  15.033 -25.554  1.00  0.00    -0.084 Cl
ENDBRANCH  18  22
ENDBRANCH  12  13
ENDBRANCH   1  12
TORSDOF 7
ENDMDL
MODEL 6
REMARK VINA RESULT:      -6.7      3.608      5.695
REMARK SMILES O=C(CCC[NH+]1CCC(O)(c2ccc(Cl)cc2)CC1)c1ccc(F)cc1
REMARK SMILES IDX 4 1 3 2 2 3 1 4 20 5 21 6 26 7 22 8 25 9 23 10 24 11 5 12
REMARK SMILES IDX 6 13 7 14 19 15 8 16 18 17 9 18 10 20 11 22 12 23 17 24
REMARK SMILES IDX 13 25 16 26 14 27 15 28
REMARK H PARENT 6 19 10 21
ROOT
ATOM      1  C   UNL     1      24.289  17.054 -19.374  1.00  0.00     0.070 C 
ENDROOT
BRANCH   1   2
ATOM      2  C   UNL     1      25.688  17.579 -19.144  1.00  0.00     0.087 C 
BRANCH   2   3
ATOM      3  C   UNL     1      25.779  19.039 -19.068  1.00  0.00     0.163 C 
ATOM      4  O   UNL     1      24.852  19.730 -18.571  1.00  0.00    -0.294 OA
BRANCH   3   5
ATOM      5  C   UNL     1      26.954  19.786 -19.565  1.00  0.00     0.018 A 
ATOM      6  C   UNL     1      26.812  20.738 -20.559  1.00  0.00     0.015 A 
ATOM      7  C   UNL     1      28.205  19.555 -19.054  1.00  0.00     0.015 A 
ATOM      8  C   UNL     1      27.909  21.429 -21.016  1.00  0.00     0.040 A 
ATOM      9  C   UNL     1      29.302  20.240 -19.504  1.00  0.00     0.040 A 
ATOM     10  C   UNL     1      29.150  21.179 -20.487  1.00  0.00     0.123 A 
ATOM     11  F   UNL     1      30.271  21.842 -20.914  1.00  0.00    -0.207 F 
ENDBRANCH   3   5
ENDBRANCH   2   3
ENDBRANCH   1   2
BRANCH   1  12
ATOM     12  C   UNL     1      24.127  16.765 -20.827  1.00  0.00     0.262 C 
BRANCH  12  13
ATOM     13  N   UNL     1      24.104  15.337 -21.119  1.00  0.00    -0.335 N 
ATOM     14  C   UNL     1      23.707  15.060 -22.466  1.00  0.00     0.265 C 
ATOM     15  C   UNL     1      25.376  14.757 -20.836  1.00  0.00     0.265 C 
ATOM     16  C   UNL     1      24.642  15.695 -23.459  1.00  0.00     0.102 C 
ATOM     17  C   UNL     1      26.221  14.404 -21.985  1.00  0.00     0.102 C 
ATOM     18  C   UNL     1      26.024  15.150 -23.253  1.00  0.00     0.100 C 
ATOM     19  H   UNL     1      23.335  14.950 -20.494  1.00  0.00     0.348 HD
BRANCH  18  20
ATOM     20  O   UNL     1      26.241  14.232 -24.310  1.00  0.00    -0.385 OA
ATOM     21  H   UNL     1      26.022  13.335 -23.954  1.00  0.00     0.211 HD
ENDBRANCH  18  20
BRANCH  18  22
ATOM     22  C   UNL     1      27.069  16.212 -23.471  1.00  0.00    -0.016 A 
ATOM     23  C   UNL     1      27.353  17.167 -22.516  1.00  0.00     0.008 A 
ATOM     24  C   UNL     1      27.806  16.299 -24.632  1.00  0.00     0.008 A 
ATOM     25  C   UNL     1      28.299  18.153 -22.676  1.00  0.00     0.021 A 
ATOM     26  C   UNL     1      28.760  17.281 -24.815  1.00  0.00     0.021 A 
ATOM     27  C   UNL     1      29.006  18.206 -23.837  1.00  0.00     0.041 A 
ATOM     28  Cl  UNL     1      30.213  19.449 -24.059  1.00  0.00    -0.084 Cl
ENDBRANCH  18  22
ENDBRANCH  12  13
ENDBRANCH   1  12
TORSDOF 7
ENDMDL
MODEL 7
REMARK VINA RESULT:      -6.6      3.541      5.679
REMARK SMILES O=C(CCC[NH+]1CCC(O)(c2ccc(Cl)cc2)CC1)c1ccc(F)cc1
REMARK SMILES IDX 4 1 3 2 2 3 1 4 20 5 21 6 26 7 22 8 25 9 23 10 24 11 5 12
REMARK SMILES IDX 6 13 7 14 19 15 8 16 18 17 9 18 10 20 11 22 12 23 17 24
REMARK SMILES IDX 13 25 16 26 14 27 15 28
REMARK H PARENT 6 19 10 21
ROOT
ATOM      1  C   UNL     1      24.970  17.146 -19.406  1.00  0.00     0.070 C 
ENDROOT
BRANCH   1   2
ATOM      2  C   UNL     1      25.503  18.552 -19.566  1.00  0.00     0.087 C 
BRANCH   2   3
ATOM      3  C   UNL     1      26.959  18.633 -19.700  1.00  0.00     0.163 C 
ATOM      4  O   UNL     1      27.711  17.722 -19.266  1.00  0.00    -0.294 OA
BRANCH   3   5
ATOM      5  C   UNL     1      27.632  19.778 -20.349  1.00  0.00     0.018 A 
ATOM      6  C   UNL     1      28.875  20.201 -19.913  1.00  0.00     0.015 A 
ATOM      7  C   UNL     1      27.044  20.445 -21.393  1.00  0.00     0.015 A 
ATOM      8  C   UNL     1      29.496  21.266 -20.521  1.00  0.00     0.040 A 
ATOM      9  C   UNL     1      27.656  21.507 -22.003  1.00  0.00     0.040 A 
ATOM     10  C   UNL     1      28.885  21.916 -21.563  1.00  0.00     0.123 A 
ATOM     11  F   UNL     1      29.465  22.984 -22.197  1.00  0.00    -0.207 F 
ENDBRANCH   3   5
ENDBRANCH   2   3
ENDBRANCH   1   2
BRANCH   1  12
ATOM     12  C   UNL     1      24.049  16.859 -20.542  1.00  0.00     0.262 C 
BRANCH  12  13
ATOM     13  N   UNL     1      24.002  15.444 -20.887  1.00  0.00    -0.335 N 
ATOM     14  C   UNL     1      23.561  15.222 -22.230  1.00  0.00     0.265 C 
ATOM     15  C   UNL     1      25.277  14.842 -20.666  1.00  0.00     0.265 C 
ATOM     16  C   UNL     1      24.470  15.886 -23.228  1.00  0.00     0.102 C 
ATOM     17  C   UNL     1      26.082  14.527 -21.855  1.00  0.00     0.102 C 
ATOM     18  C   UNL     1      25.852  15.322 -23.087  1.00  0.00     0.100 C 
ATOM     19  H   UNL     1      23.250  15.039 -20.253  1.00  0.00     0.348 HD
BRANCH  18  20
ATOM     20  O   UNL     1      26.027  14.443 -24.184  1.00  0.00    -0.385 OA
ATOM     21  H   UNL     1      25.149  14.376 -24.635  1.00  0.00     0.211 HD
ENDBRANCH  18  20
BRANCH  18  22
ATOM     22  C   UNL     1      26.900  16.383 -23.297  1.00  0.00    -0.016 A 
ATOM     23  C   UNL     1      26.737  17.401 -24.213  1.00  0.00     0.008 A 
ATOM     24  C   UNL     1      28.084  16.404 -22.593  1.00  0.00     0.008 A 
ATOM     25  C   UNL     1      27.670  18.388 -24.436  1.00  0.00     0.021 A 
ATOM     26  C   UNL     1      29.035  17.384 -22.800  1.00  0.00     0.021 A 
ATOM     27  C   UNL     1      28.826  18.375 -23.721  1.00  0.00     0.041 A 
ATOM     28  Cl  UNL     1      30.023  19.620 -23.987  1.00  0.00    -0.084 Cl
ENDBRANCH  18  22
ENDBRANCH  12  13
ENDBRANCH   1  12
TORSDOF 7
ENDMDL
MODEL 8
REMARK VINA RESULT:      -6.6      4.509      7.739
REMARK SMILES O=C(CCC[NH+]1CCC(O)(c2ccc(Cl)cc2)CC1)c1ccc(F)cc1
REMARK SMILES IDX 4 1 3 2 2 3 1 4 20 5 21 6 26 7 22 8 25 9 23 10 24 11 5 12
REMARK SMILES IDX 6 13 7 14 19 15 8 16 18 17 9 18 10 20 11 22 12 23 17 24
REMARK SMILES IDX 13 25 16 26 14 27 15 28
REMARK H PARENT 6 19 10 21
ROOT
ATOM      1  C   UNL     1      27.563  15.034 -21.496  1.00  0.00     0.070 C 
ENDROOT
BRANCH   1   2
ATOM      2  C   UNL     1      28.984  15.469 -21.213  1.00  0.00     0.087 C 
BRANCH   2   3
ATOM      3  C   UNL     1      30.007  14.549 -21.714  1.00  0.00     0.163 C 
ATOM      4  O   UNL     1      30.596  13.742 -20.949  1.00  0.00    -0.294 OA
BRANCH   3   5
ATOM      5  C   UNL     1      30.408  14.509 -23.136  1.00  0.00     0.018 A 
ATOM      6  C   UNL     1      31.300  15.438 -23.641  1.00  0.00     0.015 A 
ATOM      7  C   UNL     1      29.909  13.554 -23.984  1.00  0.00     0.015 A 
ATOM      8  C   UNL     1      31.668  15.395 -24.964  1.00  0.00     0.040 A 
ATOM      9  C   UNL     1      30.272  13.504 -25.304  1.00  0.00     0.040 A 
ATOM     10  C   UNL     1      31.155  14.429 -25.791  1.00  0.00     0.123 A 
ATOM     11  F   UNL     1      31.492  14.349 -27.118  1.00  0.00    -0.207 F 
ENDBRANCH   3   5
ENDBRANCH   2   3
ENDBRANCH   1   2
BRANCH   1  12
ATOM     12  C   UNL     1      26.911  14.685 -20.203  1.00  0.00     0.262 C 
BRANCH  12  13
ATOM     13  N   UNL     1      25.457  14.660 -20.293  1.00  0.00    -0.335 N 
ATOM     14  C   UNL     1      24.826  15.040 -19.066  1.00  0.00     0.265 C 
ATOM     15  C   UNL     1      25.017  15.491 -21.367  1.00  0.00     0.265 C 
ATOM     16  C   UNL     1      25.215  16.432 -18.651  1.00  0.00     0.102 C 
ATOM     17  C   UNL     1      24.410  16.781 -21.010  1.00  0.00     0.102 C 
ATOM     18  C   UNL     1      24.794  17.400 -19.717  1.00  0.00     0.100 C 
ATOM     19  H   UNL     1      25.216  13.637 -20.450  1.00  0.00     0.348 HD
BRANCH  18  20
ATOM     20  O   UNL     1      23.643  18.055 -19.214  1.00  0.00    -0.385 OA
ATOM     21  H   UNL     1      23.963  18.851 -18.722  1.00  0.00     0.211 HD
ENDBRANCH  18  20
BRANCH  18  22
ATOM     22  C   UNL     1      25.802  18.508 -19.879  1.00  0.00    -0.016 A 
ATOM     23  C   UNL     1      26.685  18.544 -20.939  1.00  0.00     0.008 A 
ATOM     24  C   UNL     1      25.907  19.551 -18.985  1.00  0.00     0.008 A 
ATOM     25  C   UNL     1      27.620  19.537 -21.124  1.00  0.00     0.021 A 
ATOM     26  C   UNL     1      26.838  20.557 -19.150  1.00  0.00     0.021 A 
ATOM     27  C   UNL     1      27.692  20.550 -20.219  1.00  0.00     0.041 A 
ATOM     28  Cl  UNL     1      28.871  21.821 -20.436  1.00  0.00    -0.084 Cl
ENDBRANCH  18  22
ENDBRANCH  12  13
ENDBRANCH   1  12
TORSDOF 7
ENDMDL
MODEL 9
REMARK VINA RESULT:      -6.6      1.360      1.835
REMARK SMILES O=C(CCC[NH+]1CCC(O)(c2ccc(Cl)cc2)CC1)c1ccc(F)cc1
REMARK SMILES IDX 4 1 3 2 2 3 1 4 20 5 21 6 26 7 22 8 25 9 23 10 24 11 5 12
REMARK SMILES IDX 6 13 7 14 19 15 8 16 18 17 9 18 10 20 11 22 12 23 17 24
REMARK SMILES IDX 13 25 16 26 14 27 15 28
REMARK H PARENT 6 19 10 21
ROOT
ATOM      1  C   UNL     1      28.525  20.707 -21.637  1.00  0.00     0.070 C 
ENDROOT
BRANCH   1   2
ATOM      2  C   UNL     1      29.022  20.840 -20.214  1.00  0.00     0.087 C 
BRANCH   2   3
ATOM      3  C   UNL     1      28.577  19.770 -19.318  1.00  0.00     0.163 C 
ATOM      4  O   UNL     1      29.388  19.152 -18.581  1.00  0.00    -0.294 OA
BRANCH   3   5
ATOM      5  C   UNL     1      27.163  19.353 -19.223  1.00  0.00     0.018 A 
ATOM      6  C   UNL     1      26.769  18.100 -19.658  1.00  0.00     0.015 A 
ATOM      7  C   UNL     1      26.211  20.194 -18.705  1.00  0.00     0.015 A 
ATOM      8  C   UNL     1      25.451  17.719 -19.567  1.00  0.00     0.040 A 
ATOM      9  C   UNL     1      24.897  19.821 -18.611  1.00  0.00     0.040 A 
ATOM     10  C   UNL     1      24.520  18.579 -19.044  1.00  0.00     0.123 A 
ATOM     11  F   UNL     1      23.195  18.243 -18.936  1.00  0.00    -0.207 F 
ENDBRANCH   3   5
ENDBRANCH   2   3
ENDBRANCH   1   2
BRANCH   1  12
ATOM     12  C   UNL     1      29.683  20.886 -22.558  1.00  0.00     0.262 C 
BRANCH  12  13
ATOM     13  N   UNL     1      29.275  21.204 -23.920  1.00  0.00    -0.335 N 
ATOM     14  C   UNL     1      30.001  20.453 -24.898  1.00  0.00     0.265 C 
ATOM     15  C   UNL     1      27.870  21.007 -24.071  1.00  0.00     0.265 C 
ATOM     16  C   UNL     1      29.806  18.973 -24.717  1.00  0.00     0.102 C 
ATOM     17  C   UNL     1      27.437  19.818 -24.820  1.00  0.00     0.102 C 
ATOM     18  C   UNL     1      28.349  18.647 -24.859  1.00  0.00     0.100 C 
ATOM     19  H   UNL     1      29.556  22.221 -24.053  1.00  0.00     0.348 HD
BRANCH  18  20
ATOM     20  O   UNL     1      28.206  18.056 -26.139  1.00  0.00    -0.385 OA
ATOM     21  H   UNL     1      27.276  18.233 -26.430  1.00  0.00     0.211 HD
ENDBRANCH  18  20
BRANCH  18  22
ATOM     22  C   UNL     1      27.935  17.557 -23.905  1.00  0.00    -0.016 A 
ATOM     23  C   UNL     1      26.625  17.140 -23.794  1.00  0.00     0.008 A 
ATOM     24  C   UNL     1      28.834  16.910 -23.086  1.00  0.00     0.008 A 
ATOM     25  C   UNL     1      26.206  16.149 -22.936  1.00  0.00     0.021 A 
ATOM     26  C   UNL     1      28.437  15.914 -22.217  1.00  0.00     0.021 A 
ATOM     27  C   UNL     1      27.124  15.534 -22.143  1.00  0.00     0.041 A 
ATOM     28  Cl  UNL     1      26.614  14.272 -21.047  1.00  0.00    -0.084 Cl
ENDBRANCH  18  22
ENDBRANCH  12  13
ENDBRANCH   1  12
TORSDOF 7
ENDMDL
