MODEL 1
REMARK VINA RESULT:      -5.0      0.000      0.000
REMARK SMILES C[NH+](Cc1ccc(C(C)(C)C)cc1)Cc1cccc2ccccc12
REMARK SMILES IDX 3 1 2 2 1 3 14 5 15 6 16 7 24 8 17 9 23 10 19 11 18 12 22 13
REMARK SMILES IDX 20 14 21 15 4 16 5 17 13 18 6 19 12 20 7 21 8 22 9 23 10 24
REMARK SMILES IDX 11 25
REMARK H PARENT 2 4
ROOT
ATOM      1  C   UNL     1     -13.315 -27.287  45.673  1.00  0.00     0.299 C 
ENDROOT
BRANCH   1   2
ATOM      2  N   UNL     1     -13.951 -28.022  46.747  1.00  0.00    -0.330 N 
ATOM      3  C   UNL     1     -13.118 -29.171  47.114  1.00  0.00     0.333 C 
ATOM      4  H   UNL     1     -13.906 -27.395  47.571  1.00  0.00     0.348 HD
BRANCH   2   5
ATOM      5  C   UNL     1     -15.294 -28.399  46.482  1.00  0.00     0.299 C 
BRANCH   5   6
ATOM      6  C   UNL     1     -16.228 -28.358  47.628  1.00  0.00     0.014 A 
ATOM      7  C   UNL     1     -16.355 -29.456  48.478  1.00  0.00     0.010 A 
ATOM      8  C   UNL     1     -17.030 -27.280  47.898  1.00  0.00    -0.010 A 
ATOM      9  C   UNL     1     -17.230 -29.460  49.523  1.00  0.00     0.001 A 
ATOM     10  C   UNL     1     -16.971 -26.144  47.125  1.00  0.00     0.009 A 
ATOM     11  C   UNL     1     -17.940 -27.251  48.963  1.00  0.00    -0.018 A 
ATOM     12  C   UNL     1     -18.018 -28.366  49.765  1.00  0.00     0.009 A 
ATOM     13  C   UNL     1     -17.777 -25.025  47.389  1.00  0.00     0.001 A 
ATOM     14  C   UNL     1     -18.742 -26.179  49.251  1.00  0.00     0.009 A 
ATOM     15  C   UNL     1     -18.656 -25.049  48.448  1.00  0.00     0.001 A 
ENDBRANCH   5   6
ENDBRANCH   2   5
ENDBRANCH   1   2
BRANCH   1  16
ATOM     16  C   UNL     1     -13.866 -25.899  45.533  1.00  0.00     0.006 A 
ATOM     17  C   UNL     1     -14.524 -25.502  44.388  1.00  0.00     0.010 A 
ATOM     18  C   UNL     1     -13.738 -24.966  46.542  1.00  0.00     0.010 A 
ATOM     19  C   UNL     1     -15.035 -24.228  44.254  1.00  0.00     0.005 A 
ATOM     20  C   UNL     1     -14.250 -23.682  46.415  1.00  0.00     0.005 A 
ATOM     21  C   UNL     1     -14.906 -23.291  45.271  1.00  0.00    -0.043 A 
BRANCH  21  22
ATOM     22  C   UNL     1     -15.473 -21.925  45.087  1.00  0.00    -0.013 C 
ATOM     23  C   UNL     1     -14.333 -20.947  44.968  1.00  0.00     0.016 C 
ATOM     24  C   UNL     1     -16.280 -21.859  43.808  1.00  0.00     0.016 C 
ATOM     25  C   UNL     1     -16.378 -21.530  46.218  1.00  0.00     0.016 C 
ENDBRANCH  21  22
ENDBRANCH   1  16
TORSDOF 5
ENDMDL
MODEL 2
REMARK VINA RESULT:      -4.9      2.242      4.998
REMARK SMILES C[NH+](Cc1ccc(C(C)(C)C)cc1)Cc1cccc2ccccc12
REMARK SMILES IDX 3 1 2 2 1 3 14 5 15 6 16 7 24 8 17 9 23 10 19 11 18 12 22 13
REMARK SMILES IDX 20 14 21 15 4 16 5 17 13 18 6 19 12 20 7 21 8 22 9 23 10 24
REMARK SMILES IDX 11 25
REMARK H PARENT 2 4
ROOT
ATOM      1  C   UNL     1     -14.443 -23.995  46.842  1.00  0.00     0.299 C 
ENDROOT
BRANCH   1   2
ATOM      2  N   UNL     1     -14.685 -25.416  46.697  1.00  0.00    -0.330 N 
ATOM      3  C   UNL     1     -15.905 -25.780  47.424  1.00  0.00     0.333 C 
ATOM      4  H   UNL     1     -14.927 -25.551  45.699  1.00  0.00     0.348 HD
BRANCH   2   5
ATOM      5  C   UNL     1     -13.584 -26.235  47.058  1.00  0.00     0.299 C 
BRANCH   5   6
ATOM      6  C   UNL     1     -13.154 -27.239  46.060  1.00  0.00     0.014 A 
ATOM      7  C   UNL     1     -12.855 -26.856  44.753  1.00  0.00     0.010 A 
ATOM      8  C   UNL     1     -13.058 -28.576  46.342  1.00  0.00    -0.010 A 
ATOM      9  C   UNL     1     -12.488 -27.762  43.804  1.00  0.00     0.001 A 
ATOM     10  C   UNL     1     -13.320 -29.054  47.605  1.00  0.00     0.009 A 
ATOM     11  C   UNL     1     -12.683 -29.534  45.390  1.00  0.00    -0.018 A 
ATOM     12  C   UNL     1     -12.402 -29.092  44.118  1.00  0.00     0.009 A 
ATOM     13  C   UNL     1     -13.219 -30.419  47.918  1.00  0.00     0.001 A 
ATOM     14  C   UNL     1     -12.574 -30.873  45.658  1.00  0.00     0.009 A 
ATOM     15  C   UNL     1     -12.848 -31.318  46.944  1.00  0.00     0.001 A 
ENDBRANCH   5   6
ENDBRANCH   2   5
ENDBRANCH   1   2
BRANCH   1  16
ATOM     16  C   UNL     1     -14.604 -23.258  45.546  1.00  0.00     0.006 A 
ATOM     17  C   UNL     1     -14.999 -23.910  44.396  1.00  0.00     0.010 A 
ATOM     18  C   UNL     1     -14.368 -21.902  45.452  1.00  0.00     0.010 A 
ATOM     19  C   UNL     1     -15.153 -23.237  43.201  1.00  0.00     0.005 A 
ATOM     20  C   UNL     1     -14.521 -21.217  44.254  1.00  0.00     0.005 A 
ATOM     21  C   UNL     1     -14.915 -21.872  43.110  1.00  0.00    -0.043 A 
BRANCH  21  22
ATOM     22  C   UNL     1     -15.094 -21.182  41.800  1.00  0.00    -0.013 C 
ATOM     23  C   UNL     1     -14.016 -20.137  41.661  1.00  0.00     0.016 C 
ATOM     24  C   UNL     1     -14.939 -22.168  40.662  1.00  0.00     0.016 C 
ATOM     25  C   UNL     1     -16.449 -20.549  41.674  1.00  0.00     0.016 C 
ENDBRANCH  21  22
ENDBRANCH   1  16
TORSDOF 5
ENDMDL
MODEL 3
REMARK VINA RESULT:      -4.9      1.832      4.256
REMARK SMILES C[NH+](Cc1ccc(C(C)(C)C)cc1)Cc1cccc2ccccc12
REMARK SMILES IDX 3 1 2 2 1 3 14 5 15 6 16 7 24 8 17 9 23 10 19 11 18 12 22 13
REMARK SMILES IDX 20 14 21 15 4 16 5 17 13 18 6 19 12 20 7 21 8 22 9 23 10 24
REMARK SMILES IDX 11 25
REMARK H PARENT 2 4
ROOT
ATOM      1  C   UNL     1     -19.287 -23.795  47.251  1.00  0.00     0.299 C 
ENDROOT
BRANCH   1   2
ATOM      2  N   UNL     1     -19.074 -25.176  47.632  1.00  0.00    -0.330 N 
ATOM      3  C   UNL     1     -20.280 -25.695  48.285  1.00  0.00     0.333 C 
ATOM      4  H   UNL     1     -19.016 -25.700  46.740  1.00  0.00     0.348 HD
BRANCH   2   5
ATOM      5  C   UNL     1     -17.909 -25.393  48.413  1.00  0.00     0.299 C 
BRANCH   5   6
ATOM      6  C   UNL     1     -16.938 -26.378  47.889  1.00  0.00     0.014 A 
ATOM      7  C   UNL     1     -17.228 -27.742  47.914  1.00  0.00     0.010 A 
ATOM      8  C   UNL     1     -15.712 -26.024  47.390  1.00  0.00    -0.010 A 
ATOM      9  C   UNL     1     -16.341 -28.675  47.467  1.00  0.00     0.001 A 
ATOM     10  C   UNL     1     -15.335 -24.703  47.311  1.00  0.00     0.009 A 
ATOM     11  C   UNL     1     -14.777 -26.957  46.923  1.00  0.00    -0.018 A 
ATOM     12  C   UNL     1     -15.123 -28.288  46.975  1.00  0.00     0.009 A 
ATOM     13  C   UNL     1     -14.088 -24.317  46.795  1.00  0.00     0.001 A 
ATOM     14  C   UNL     1     -13.551 -26.618  46.413  1.00  0.00     0.009 A 
ATOM     15  C   UNL     1     -13.205 -25.275  46.350  1.00  0.00     0.001 A 
ENDBRANCH   5   6
ENDBRANCH   2   5
ENDBRANCH   1   2
BRANCH   1  16
ATOM     16  C   UNL     1     -18.310 -23.337  46.210  1.00  0.00     0.006 A 
ATOM     17  C   UNL     1     -17.645 -22.135  46.331  1.00  0.00     0.010 A 
ATOM     18  C   UNL     1     -18.035 -24.099  45.092  1.00  0.00     0.010 A 
ATOM     19  C   UNL     1     -16.743 -21.710  45.378  1.00  0.00     0.005 A 
ATOM     20  C   UNL     1     -17.128 -23.679  44.129  1.00  0.00     0.005 A 
ATOM     21  C   UNL     1     -16.468 -22.479  44.255  1.00  0.00    -0.043 A 
BRANCH  21  22
ATOM     22  C   UNL     1     -15.485 -21.983  43.250  1.00  0.00    -0.013 C 
ATOM     23  C   UNL     1     -14.887 -23.172  42.541  1.00  0.00     0.016 C 
ATOM     24  C   UNL     1     -16.180 -21.124  42.215  1.00  0.00     0.016 C 
ATOM     25  C   UNL     1     -14.401 -21.155  43.877  1.00  0.00     0.016 C 
ENDBRANCH  21  22
ENDBRANCH   1  16
TORSDOF 5
ENDMDL
MODEL 4
REMARK VINA RESULT:      -4.9      3.100      6.177
REMARK SMILES C[NH+](Cc1ccc(C(C)(C)C)cc1)Cc1cccc2ccccc12
REMARK SMILES IDX 3 1 2 2 1 3 14 5 15 6 16 7 24 8 17 9 23 10 19 11 18 12 22 13
REMARK SMILES IDX 20 14 21 15 4 16 5 17 13 18 6 19 12 20 7 21 8 22 9 23 10 24
REMARK SMILES IDX 11 25
REMARK H PARENT 2 4
ROOT
ATOM      1  C   UNL     1     -18.828 -22.076  42.904  1.00  0.00     0.299 C 
ENDROOT
BRANCH   1   2
ATOM      2  N   UNL     1     -18.688 -22.918  44.074  1.00  0.00    -0.330 N 
ATOM      3  C   UNL     1     -19.962 -23.591  44.347  1.00  0.00     0.333 C 
ATOM      4  H   UNL     1     -18.048 -23.681  43.786  1.00  0.00     0.348 HD
BRANCH   2   5
ATOM      5  C   UNL     1     -18.182 -22.248  45.218  1.00  0.00     0.299 C 
BRANCH   5   6
ATOM      6  C   UNL     1     -16.751 -22.462  45.527  1.00  0.00     0.014 A 
ATOM      7  C   UNL     1     -15.801 -21.499  45.187  1.00  0.00     0.010 A 
ATOM      8  C   UNL     1     -16.279 -23.602  46.121  1.00  0.00    -0.010 A 
ATOM      9  C   UNL     1     -14.473 -21.681  45.430  1.00  0.00     0.001 A 
ATOM     10  C   UNL     1     -17.136 -24.607  46.506  1.00  0.00     0.009 A 
ATOM     11  C   UNL     1     -14.921 -23.821  46.385  1.00  0.00    -0.018 A 
ATOM     12  C   UNL     1     -14.033 -22.833  46.025  1.00  0.00     0.009 A 
ATOM     13  C   UNL     1     -16.675 -25.780  47.124  1.00  0.00     0.001 A 
ATOM     14  C   UNL     1     -14.433 -24.952  46.986  1.00  0.00     0.009 A 
ATOM     15  C   UNL     1     -15.329 -25.945  47.360  1.00  0.00     0.001 A 
ENDBRANCH   5   6
ENDBRANCH   2   5
ENDBRANCH   1   2
BRANCH   1  16
ATOM     16  C   UNL     1     -17.513 -21.827  42.225  1.00  0.00     0.006 A 
ATOM     17  C   UNL     1     -17.098 -20.548  41.918  1.00  0.00     0.010 A 
ATOM     18  C   UNL     1     -16.669 -22.864  41.883  1.00  0.00     0.010 A 
ATOM     19  C   UNL     1     -15.888 -20.312  41.297  1.00  0.00     0.005 A 
ATOM     20  C   UNL     1     -15.451 -22.634  41.258  1.00  0.00     0.005 A 
ATOM     21  C   UNL     1     -15.041 -21.357  40.955  1.00  0.00    -0.043 A 
BRANCH  21  22
ATOM     22  C   UNL     1     -13.743 -21.059  40.285  1.00  0.00    -0.013 C 
ATOM     23  C   UNL     1     -12.890 -22.301  40.323  1.00  0.00     0.016 C 
ATOM     24  C   UNL     1     -13.971 -20.693  38.834  1.00  0.00     0.016 C 
ATOM     25  C   UNL     1     -13.020 -19.915  40.935  1.00  0.00     0.016 C 
ENDBRANCH  21  22
ENDBRANCH   1  16
TORSDOF 5
ENDMDL
MODEL 5
REMARK VINA RESULT:      -4.9      3.177      5.545
REMARK SMILES C[NH+](Cc1ccc(C(C)(C)C)cc1)Cc1cccc2ccccc12
REMARK SMILES IDX 3 1 2 2 1 3 14 5 15 6 16 7 24 8 17 9 23 10 19 11 18 12 22 13
REMARK SMILES IDX 20 14 21 15 4 16 5 17 13 18 6 19 12 20 7 21 8 22 9 23 10 24
REMARK SMILES IDX 11 25
REMARK H PARENT 2 4
ROOT
ATOM      1  C   UNL     1     -16.988 -21.805  46.001  1.00  0.00     0.299 C 
ENDROOT
BRANCH   1   2
ATOM      2  N   UNL     1     -17.995 -22.843  45.927  1.00  0.00    -0.330 N 
ATOM      3  C   UNL     1     -19.259 -22.337  46.470  1.00  0.00     0.333 C 
ATOM      4  H   UNL     1     -18.179 -22.972  44.916  1.00  0.00     0.348 HD
BRANCH   2   5
ATOM      5  C   UNL     1     -17.611 -24.072  46.525  1.00  0.00     0.299 C 
BRANCH   5   6
ATOM      6  C   UNL     1     -16.256 -24.567  46.201  1.00  0.00     0.014 A 
ATOM      7  C   UNL     1     -15.253 -24.575  47.169  1.00  0.00     0.010 A 
ATOM      8  C   UNL     1     -15.902 -25.007  44.952  1.00  0.00    -0.010 A 
ATOM      9  C   UNL     1     -13.987 -24.995  46.892  1.00  0.00     0.001 A 
ATOM     10  C   UNL     1     -16.822 -25.051  43.930  1.00  0.00     0.009 A 
ATOM     11  C   UNL     1     -14.611 -25.446  44.633  1.00  0.00    -0.018 A 
ATOM     12  C   UNL     1     -13.666 -25.429  45.634  1.00  0.00     0.009 A 
ATOM     13  C   UNL     1     -16.483 -25.506  42.646  1.00  0.00     0.001 A 
ATOM     14  C   UNL     1     -14.243 -25.897  43.393  1.00  0.00     0.009 A 
ATOM     15  C   UNL     1     -15.199 -25.926  42.386  1.00  0.00     0.001 A 
ENDBRANCH   5   6
ENDBRANCH   2   5
ENDBRANCH   1   2
BRANCH   1  16
ATOM     16  C   UNL     1     -16.262 -21.626  44.700  1.00  0.00     0.006 A 
ATOM     17  C   UNL     1     -14.888 -21.509  44.658  1.00  0.00     0.010 A 
ATOM     18  C   UNL     1     -16.936 -21.574  43.498  1.00  0.00     0.010 A 
ATOM     19  C   UNL     1     -14.214 -21.348  43.465  1.00  0.00     0.005 A 
ATOM     20  C   UNL     1     -16.265 -21.413  42.293  1.00  0.00     0.005 A 
ATOM     21  C   UNL     1     -14.895 -21.297  42.256  1.00  0.00    -0.043 A 
BRANCH  21  22
ATOM     22  C   UNL     1     -14.129 -21.122  40.989  1.00  0.00    -0.013 C 
ATOM     23  C   UNL     1     -15.103 -20.812  39.882  1.00  0.00     0.016 C 
ATOM     24  C   UNL     1     -13.172 -19.956  41.110  1.00  0.00     0.016 C 
ATOM     25  C   UNL     1     -13.323 -22.341  40.643  1.00  0.00     0.016 C 
ENDBRANCH  21  22
ENDBRANCH   1  16
TORSDOF 5
ENDMDL
MODEL 6
REMARK VINA RESULT:      -4.9      2.210      5.124
REMARK SMILES C[NH+](Cc1ccc(C(C)(C)C)cc1)Cc1cccc2ccccc12
REMARK SMILES IDX 3 1 2 2 1 3 14 5 15 6 16 7 24 8 17 9 23 10 19 11 18 12 22 13
REMARK SMILES IDX 20 14 21 15 4 16 5 17 13 18 6 19 12 20 7 21 8 22 9 23 10 24
REMARK SMILES IDX 11 25
REMARK H PARENT 2 4
ROOT
ATOM      1  C   UNL     1     -14.500 -24.044  46.853  1.00  0.00     0.299 C 
ENDROOT
BRANCH   1   2
ATOM      2  N   UNL     1     -14.741 -25.468  46.734  1.00  0.00    -0.330 N 
ATOM      3  C   UNL     1     -15.950 -25.823  47.483  1.00  0.00     0.333 C 
ATOM      4  H   UNL     1     -14.996 -25.619  45.741  1.00  0.00     0.348 HD
BRANCH   2   5
ATOM      5  C   UNL     1     -13.632 -26.279  47.092  1.00  0.00     0.299 C 
BRANCH   5   6
ATOM      6  C   UNL     1     -13.183 -27.263  46.084  1.00  0.00     0.014 A 
ATOM      7  C   UNL     1     -12.875 -26.858  44.786  1.00  0.00     0.010 A 
ATOM      8  C   UNL     1     -13.075 -28.603  46.347  1.00  0.00    -0.010 A 
ATOM      9  C   UNL     1     -12.489 -27.745  43.827  1.00  0.00     0.001 A 
ATOM     10  C   UNL     1     -13.345 -29.102  47.600  1.00  0.00     0.009 A 
ATOM     11  C   UNL     1     -12.682 -29.542  45.385  1.00  0.00    -0.018 A 
ATOM     12  C   UNL     1     -12.392 -29.079  44.122  1.00  0.00     0.009 A 
ATOM     13  C   UNL     1     -13.232 -30.470  47.894  1.00  0.00     0.001 A 
ATOM     14  C   UNL     1     -12.561 -30.884  45.634  1.00  0.00     0.009 A 
ATOM     15  C   UNL     1     -12.842 -31.352  46.911  1.00  0.00     0.001 A 
ENDBRANCH   5   6
ENDBRANCH   2   5
ENDBRANCH   1   2
BRANCH   1  16
ATOM     16  C   UNL     1     -14.643 -23.334  45.539  1.00  0.00     0.006 A 
ATOM     17  C   UNL     1     -14.377 -21.985  45.423  1.00  0.00     0.010 A 
ATOM     18  C   UNL     1     -15.042 -23.999  44.398  1.00  0.00     0.010 A 
ATOM     19  C   UNL     1     -14.502 -21.327  44.217  1.00  0.00     0.005 A 
ATOM     20  C   UNL     1     -15.171 -23.344  43.181  1.00  0.00     0.005 A 
ATOM     21  C   UNL     1     -14.904 -21.999  43.070  1.00  0.00    -0.043 A 
BRANCH  21  22
ATOM     22  C   UNL     1     -15.027 -21.250  41.786  1.00  0.00    -0.013 C 
ATOM     23  C   UNL     1     -16.401 -20.633  41.724  1.00  0.00     0.016 C 
ATOM     24  C   UNL     1     -14.010 -20.131  41.731  1.00  0.00     0.016 C 
ATOM     25  C   UNL     1     -14.801 -22.132  40.592  1.00  0.00     0.016 C 
ENDBRANCH  21  22
ENDBRANCH   1  16
TORSDOF 5
ENDMDL
MODEL 7
REMARK VINA RESULT:      -4.9      3.197      5.434
REMARK SMILES C[NH+](Cc1ccc(C(C)(C)C)cc1)Cc1cccc2ccccc12
REMARK SMILES IDX 3 1 2 2 1 3 14 5 15 6 16 7 24 8 17 9 23 10 19 11 18 12 22 13
REMARK SMILES IDX 20 14 21 15 4 16 5 17 13 18 6 19 12 20 7 21 8 22 9 23 10 24
REMARK SMILES IDX 11 25
REMARK H PARENT 2 4
ROOT
ATOM      1  C   UNL     1     -17.178 -21.834  45.975  1.00  0.00     0.299 C 
ENDROOT
BRANCH   1   2
ATOM      2  N   UNL     1     -18.082 -22.964  45.907  1.00  0.00    -0.330 N 
ATOM      3  C   UNL     1     -19.406 -22.560  46.390  1.00  0.00     0.333 C 
ATOM      4  H   UNL     1     -18.217 -23.143  44.896  1.00  0.00     0.348 HD
BRANCH   2   5
ATOM      5  C   UNL     1     -17.607 -24.131  46.561  1.00  0.00     0.299 C 
BRANCH   5   6
ATOM      6  C   UNL     1     -16.234 -24.563  46.223  1.00  0.00     0.014 A 
ATOM      7  C   UNL     1     -15.210 -24.471  47.165  1.00  0.00     0.010 A 
ATOM      8  C   UNL     1     -15.885 -25.037  44.986  1.00  0.00    -0.010 A 
ATOM      9  C   UNL     1     -13.928 -24.831  46.873  1.00  0.00     0.001 A 
ATOM     10  C   UNL     1     -16.824 -25.178  43.991  1.00  0.00     0.009 A 
ATOM     11  C   UNL     1     -14.578 -25.416  44.653  1.00  0.00    -0.018 A 
ATOM     12  C   UNL     1     -13.612 -25.301  45.627  1.00  0.00     0.009 A 
ATOM     13  C   UNL     1     -16.490 -25.670  42.719  1.00  0.00     0.001 A 
ATOM     14  C   UNL     1     -14.214 -25.900  43.424  1.00  0.00     0.009 A 
ATOM     15  C   UNL     1     -15.189 -26.028  42.444  1.00  0.00     0.001 A 
ENDBRANCH   5   6
ENDBRANCH   2   5
ENDBRANCH   1   2
BRANCH   1  16
ATOM     16  C   UNL     1     -16.388 -21.663  44.712  1.00  0.00     0.006 A 
ATOM     17  C   UNL     1     -16.995 -21.721  43.475  1.00  0.00     0.010 A 
ATOM     18  C   UNL     1     -15.026 -21.439  44.736  1.00  0.00     0.010 A 
ATOM     19  C   UNL     1     -16.274 -21.561  42.309  1.00  0.00     0.005 A 
ATOM     20  C   UNL     1     -14.294 -21.276  43.568  1.00  0.00     0.005 A 
ATOM     21  C   UNL     1     -14.904 -21.335  42.337  1.00  0.00    -0.043 A 
BRANCH  21  22
ATOM     22  C   UNL     1     -14.163 -21.167  41.054  1.00  0.00    -0.013 C 
ATOM     23  C   UNL     1     -13.196 -20.021  41.209  1.00  0.00     0.016 C 
ATOM     24  C   UNL     1     -13.363 -22.413  40.742  1.00  0.00     0.016 C 
ATOM     25  C   UNL     1     -15.085 -20.914  39.896  1.00  0.00     0.016 C 
ENDBRANCH  21  22
ENDBRANCH   1  16
TORSDOF 5
ENDMDL
MODEL 8
REMARK VINA RESULT:      -4.8      3.426      5.623
REMARK SMILES C[NH+](Cc1ccc(C(C)(C)C)cc1)Cc1cccc2ccccc12
REMARK SMILES IDX 3 1 2 2 1 3 14 5 15 6 16 7 24 8 17 9 23 10 19 11 18 12 22 13
REMARK SMILES IDX 20 14 21 15 4 16 5 17 13 18 6 19 12 20 7 21 8 22 9 23 10 24
REMARK SMILES IDX 11 25
REMARK H PARENT 2 4
ROOT
ATOM      1  C   UNL     1     -13.309 -26.513  41.233  1.00  0.00     0.299 C 
ENDROOT
BRANCH   1   2
ATOM      2  N   UNL     1     -13.158 -26.438  42.671  1.00  0.00    -0.330 N 
ATOM      3  C   UNL     1     -12.401 -27.601  43.145  1.00  0.00     0.333 C 
ATOM      4  H   UNL     1     -12.528 -25.632  42.838  1.00  0.00     0.348 HD
BRANCH   2   5
ATOM      5  C   UNL     1     -14.378 -26.271  43.378  1.00  0.00     0.299 C 
BRANCH   5   6
ATOM      6  C   UNL     1     -14.331 -25.408  44.579  1.00  0.00     0.014 A 
ATOM      7  C   UNL     1     -13.879 -25.913  45.797  1.00  0.00     0.010 A 
ATOM      8  C   UNL     1     -14.748 -24.103  44.575  1.00  0.00    -0.010 A 
ATOM      9  C   UNL     1     -13.854 -25.151  46.927  1.00  0.00     0.001 A 
ATOM     10  C   UNL     1     -15.201 -23.508  43.420  1.00  0.00     0.009 A 
ATOM     11  C   UNL     1     -14.736 -23.293  45.718  1.00  0.00    -0.018 A 
ATOM     12  C   UNL     1     -14.279 -23.850  46.890  1.00  0.00     0.009 A 
ATOM     13  C   UNL     1     -15.625 -22.170  43.392  1.00  0.00     0.001 A 
ATOM     14  C   UNL     1     -15.142 -21.985  45.729  1.00  0.00     0.009 A 
ATOM     15  C   UNL     1     -15.593 -21.418  44.544  1.00  0.00     0.001 A 
ENDBRANCH   5   6
ENDBRANCH   2   5
ENDBRANCH   1   2
BRANCH   1  16
ATOM     16  C   UNL     1     -13.770 -25.214  40.642  1.00  0.00     0.006 A 
ATOM     17  C   UNL     1     -12.962 -24.096  40.654  1.00  0.00     0.010 A 
ATOM     18  C   UNL     1     -15.016 -25.085  40.064  1.00  0.00     0.010 A 
ATOM     19  C   UNL     1     -13.379 -22.899  40.110  1.00  0.00     0.005 A 
ATOM     20  C   UNL     1     -15.442 -23.884  39.513  1.00  0.00     0.005 A 
ATOM     21  C   UNL     1     -14.633 -22.772  39.527  1.00  0.00    -0.043 A 
BRANCH  21  22
ATOM     22  C   UNL     1     -15.044 -21.461  38.950  1.00  0.00    -0.013 C 
ATOM     23  C   UNL     1     -15.704 -20.648  40.034  1.00  0.00     0.016 C 
ATOM     24  C   UNL     1     -13.831 -20.696  38.466  1.00  0.00     0.016 C 
ATOM     25  C   UNL     1     -15.976 -21.623  37.784  1.00  0.00     0.016 C 
ENDBRANCH  21  22
ENDBRANCH   1  16
TORSDOF 5
ENDMDL
MODEL 9
REMARK VINA RESULT:      -4.8      3.403      5.519
REMARK SMILES C[NH+](Cc1ccc(C(C)(C)C)cc1)Cc1cccc2ccccc12
REMARK SMILES IDX 3 1 2 2 1 3 14 5 15 6 16 7 24 8 17 9 23 10 19 11 18 12 22 13
REMARK SMILES IDX 20 14 21 15 4 16 5 17 13 18 6 19 12 20 7 21 8 22 9 23 10 24
REMARK SMILES IDX 11 25
REMARK H PARENT 2 4
ROOT
ATOM      1  C   UNL     1     -13.287 -26.373  41.150  1.00  0.00     0.299 C 
ENDROOT
BRANCH   1   2
ATOM      2  N   UNL     1     -13.176 -26.365  42.594  1.00  0.00    -0.330 N 
ATOM      3  C   UNL     1     -12.491 -27.583  43.038  1.00  0.00     0.333 C 
ATOM      4  H   UNL     1     -12.512 -25.600  42.812  1.00  0.00     0.348 HD
BRANCH   2   5
ATOM      5  C   UNL     1     -14.406 -26.166  43.274  1.00  0.00     0.299 C 
BRANCH   5   6
ATOM      6  C   UNL     1     -14.351 -25.363  44.514  1.00  0.00     0.014 A 
ATOM      7  C   UNL     1     -13.939 -25.940  45.715  1.00  0.00     0.010 A 
ATOM      8  C   UNL     1     -14.724 -24.046  44.566  1.00  0.00    -0.010 A 
ATOM      9  C   UNL     1     -13.909 -25.234  46.880  1.00  0.00     0.001 A 
ATOM     10  C   UNL     1     -15.135 -23.381  43.434  1.00  0.00     0.009 A 
ATOM     11  C   UNL     1     -14.705 -23.291  45.746  1.00  0.00    -0.018 A 
ATOM     12  C   UNL     1     -14.288 -23.918  46.898  1.00  0.00     0.009 A 
ATOM     13  C   UNL     1     -15.513 -22.030  43.462  1.00  0.00     0.001 A 
ATOM     14  C   UNL     1     -15.066 -21.971  45.813  1.00  0.00     0.009 A 
ATOM     15  C   UNL     1     -15.476 -21.334  44.649  1.00  0.00     0.001 A 
ENDBRANCH   5   6
ENDBRANCH   2   5
ENDBRANCH   1   2
BRANCH   1  16
ATOM     16  C   UNL     1     -13.762 -25.056  40.611  1.00  0.00     0.006 A 
ATOM     17  C   UNL     1     -15.019 -24.919  40.060  1.00  0.00     0.010 A 
ATOM     18  C   UNL     1     -12.963 -23.931  40.647  1.00  0.00     0.010 A 
ATOM     19  C   UNL     1     -15.462 -23.710  39.566  1.00  0.00     0.005 A 
ATOM     20  C   UNL     1     -13.402 -22.711  40.152  1.00  0.00     0.005 A 
ATOM     21  C   UNL     1     -14.656 -22.580  39.603  1.00  0.00    -0.043 A 
BRANCH  21  22
ATOM     22  C   UNL     1     -15.174 -21.292  39.059  1.00  0.00    -0.013 C 
ATOM     23  C   UNL     1     -14.004 -20.473  38.577  1.00  0.00     0.016 C 
ATOM     24  C   UNL     1     -16.083 -21.549  37.876  1.00  0.00     0.016 C 
ATOM     25  C   UNL     1     -15.960 -20.521  40.080  1.00  0.00     0.016 C 
ENDBRANCH  21  22
ENDBRANCH   1  16
TORSDOF 5
ENDMDL
