MODEL 1
REMARK VINA RESULT:      -8.4      0.000      0.000
REMARK SMILES O=C1NCN(c2ccccc2)C12CC[NH+](CCCC(c1ccc(F)cc1)c1ccc(F)cc1)CC2
REMARK SMILES IDX 17 1 16 2 15 3 1 4 2 5 3 6 12 7 4 8 5 9 13 10 35 11 14 12
REMARK SMILES IDX 34 13 6 16 7 17 11 18 8 19 10 20 9 21 18 22 19 23 20 24
REMARK SMILES IDX 21 25 26 26 22 27 25 28 23 29 24 30 27 31 28 32 33 33 29 34
REMARK SMILES IDX 32 35 30 36 31 37
REMARK H PARENT 3 14 15 15
ROOT
ATOM      1  C   UNL     1     -42.660  -7.062 138.136  1.00  0.00     0.062 C 
ENDROOT
BRANCH   1   2
ATOM      2  C   UNL     1     -43.661  -5.946 138.078  1.00  0.00     0.262 C 
BRANCH   2   3
ATOM      3  N   UNL     1     -43.885  -5.542 136.695  1.00  0.00    -0.335 N 
ATOM      4  O   UNL     1     -44.622  -6.476 133.692  1.00  0.00    -0.272 OA
ATOM      5  C   UNL     1     -44.247  -5.351 133.301  1.00  0.00     0.247 C 
ATOM      6  N   UNL     1     -44.252  -4.937 131.957  1.00  0.00    -0.336 N 
ATOM      7  C   UNL     1     -43.727  -4.243 134.187  1.00  0.00     0.131 C 
ATOM      8  C   UNL     1     -44.211  -3.509 131.979  1.00  0.00     0.238 C 
ATOM      9  N   UNL     1     -43.463  -3.193 133.206  1.00  0.00    -0.339 N 
ATOM     10  C   UNL     1     -42.461  -4.721 134.870  1.00  0.00     0.100 C 
ATOM     11  C   UNL     1     -44.796  -3.905 135.164  1.00  0.00     0.100 C 
ATOM     12  C   UNL     1     -42.751  -5.838 135.845  1.00  0.00     0.265 C 
ATOM     13  C   UNL     1     -44.329  -4.180 136.556  1.00  0.00     0.265 C 
ATOM     14  H   UNL     1     -44.281  -5.577 131.117  1.00  0.00     0.165 HD
ATOM     15  H   UNL     1     -44.668  -6.154 136.376  1.00  0.00     0.348 HD
BRANCH   9  16
ATOM     16  C   UNL     1     -42.643  -2.040 133.288  1.00  0.00     0.039 A 
ATOM     17  C   UNL     1     -41.664  -1.797 132.353  1.00  0.00     0.026 A 
ATOM     18  C   UNL     1     -42.837  -1.143 134.293  1.00  0.00     0.026 A 
ATOM     19  C   UNL     1     -40.863  -0.653 132.412  1.00  0.00     0.002 A 
ATOM     20  C   UNL     1     -42.065  -0.017 134.369  1.00  0.00     0.002 A 
ATOM     21  C   UNL     1     -41.086   0.235 133.443  1.00  0.00     0.000 A 
ENDBRANCH   9  16
ENDBRANCH   2   3
ENDBRANCH   1   2
BRANCH   1  22
ATOM     22  C   UNL     1     -43.099  -8.322 138.748  1.00  0.00     0.019 C 
BRANCH  22  23
ATOM     23  C   UNL     1     -42.452  -8.897 139.919  1.00  0.00     0.049 C 
BRANCH  23  24
ATOM     24  C   UNL     1     -42.074  -7.919 141.001  1.00  0.00    -0.040 A 
ATOM     25  C   UNL     1     -40.936  -7.173 140.787  1.00  0.00     0.007 A 
ATOM     26  C   UNL     1     -42.796  -7.781 142.156  1.00  0.00     0.007 A 
ATOM     27  C   UNL     1     -40.512  -6.277 141.736  1.00  0.00     0.039 A 
ATOM     28  C   UNL     1     -42.369  -6.885 143.100  1.00  0.00     0.039 A 
ATOM     29  C   UNL     1     -41.217  -6.114 142.907  1.00  0.00     0.123 A 
ATOM     30  F   UNL     1     -40.787  -5.226 143.839  1.00  0.00    -0.207 F 
ENDBRANCH  23  24
BRANCH  23  31
ATOM     31  C   UNL     1     -42.931 -10.142 140.498  1.00  0.00    -0.040 A 
ATOM     32  C   UNL     1     -44.158 -10.364 141.059  1.00  0.00     0.007 A 
ATOM     33  C   UNL     1     -42.016 -11.202 140.481  1.00  0.00     0.007 A 
ATOM     34  C   UNL     1     -44.440 -11.629 141.588  1.00  0.00     0.039 A 
ATOM     35  C   UNL     1     -42.279 -12.433 140.989  1.00  0.00     0.039 A 
ATOM     36  C   UNL     1     -43.517 -12.643 141.552  1.00  0.00     0.123 A 
ATOM     37  F   UNL     1     -43.767 -13.881 142.057  1.00  0.00    -0.207 F 
ENDBRANCH  23  31
ENDBRANCH  22  23
ENDBRANCH   1  22
TORSDOF 7
ENDMDL
MODEL 2
REMARK VINA RESULT:      -8.0      1.351      4.188
REMARK SMILES O=C1NCN(c2ccccc2)C12CC[NH+](CCCC(c1ccc(F)cc1)c1ccc(F)cc1)CC2
REMARK SMILES IDX 17 1 16 2 15 3 1 4 2 5 3 6 12 7 4 8 5 9 13 10 35 11 14 12
REMARK SMILES IDX 34 13 6 16 7 17 11 18 8 19 10 20 9 21 18 22 19 23 20 24
REMARK SMILES IDX 21 25 26 26 22 27 25 28 23 29 24 30 27 31 28 32 33 33 29 34
REMARK SMILES IDX 32 35 30 36 31 37
REMARK H PARENT 3 14 15 15
ROOT
ATOM      1  C   UNL     1     -43.530  -9.215 137.537  1.00  0.00     0.062 C 
ENDROOT
BRANCH   1   2
ATOM      2  C   UNL     1     -44.841  -8.524 137.304  1.00  0.00     0.262 C 
BRANCH   2   3
ATOM      3  N   UNL     1     -44.849  -7.891 135.990  1.00  0.00    -0.335 N 
ATOM      4  O   UNL     1     -44.819  -8.309 132.788  1.00  0.00    -0.272 OA
ATOM      5  C   UNL     1     -44.559  -7.093 132.679  1.00  0.00     0.247 C 
ATOM      6  N   UNL     1     -44.364  -6.431 131.454  1.00  0.00    -0.336 N 
ATOM      7  C   UNL     1     -44.408  -6.122 133.827  1.00  0.00     0.131 C 
ATOM      8  C   UNL     1     -44.557  -5.040 131.717  1.00  0.00     0.238 C 
ATOM      9  N   UNL     1     -44.127  -4.878 133.114  1.00  0.00    -0.339 N 
ATOM     10  C   UNL     1     -43.242  -6.566 134.688  1.00  0.00     0.100 C 
ATOM     11  C   UNL     1     -45.689  -6.111 134.583  1.00  0.00     0.100 C 
ATOM     12  C   UNL     1     -43.536  -7.877 135.379  1.00  0.00     0.265 C 
ATOM     13  C   UNL     1     -45.468  -6.591 135.980  1.00  0.00     0.265 C 
ATOM     14  H   UNL     1     -44.125  -6.895 130.536  1.00  0.00     0.165 HD
ATOM     15  H   UNL     1     -45.445  -8.520 135.410  1.00  0.00     0.348 HD
BRANCH   9  16
ATOM     16  C   UNL     1     -43.533  -3.672 133.564  1.00  0.00     0.039 A 
ATOM     17  C   UNL     1     -44.250  -2.762 134.305  1.00  0.00     0.026 A 
ATOM     18  C   UNL     1     -42.228  -3.414 133.278  1.00  0.00     0.026 A 
ATOM     19  C   UNL     1     -43.669  -1.578 134.771  1.00  0.00     0.002 A 
ATOM     20  C   UNL     1     -41.641  -2.262 133.724  1.00  0.00     0.002 A 
ATOM     21  C   UNL     1     -42.345  -1.348 134.464  1.00  0.00     0.000 A 
ENDBRANCH   9  16
ENDBRANCH   2   3
ENDBRANCH   1   2
BRANCH   1  22
ATOM     22  C   UNL     1     -42.687  -8.700 138.622  1.00  0.00     0.019 C 
BRANCH  22  23
ATOM     23  C   UNL     1     -43.039  -8.836 140.029  1.00  0.00     0.049 C 
BRANCH  23  24
ATOM     24  C   UNL     1     -43.127 -10.248 140.545  1.00  0.00    -0.040 A 
ATOM     25  C   UNL     1     -44.314 -10.614 141.141  1.00  0.00     0.007 A 
ATOM     26  C   UNL     1     -42.085 -11.132 140.459  1.00  0.00     0.007 A 
ATOM     27  C   UNL     1     -44.464 -11.876 141.658  1.00  0.00     0.039 A 
ATOM     28  C   UNL     1     -42.240 -12.390 140.976  1.00  0.00     0.039 A 
ATOM     29  C   UNL     1     -43.435 -12.787 141.586  1.00  0.00     0.123 A 
ATOM     30  F   UNL     1     -43.596 -14.033 142.101  1.00  0.00    -0.207 F 
ENDBRANCH  23  24
BRANCH  23  31
ATOM     31  C   UNL     1     -42.455  -7.959 141.030  1.00  0.00    -0.040 A 
ATOM     32  C   UNL     1     -42.915  -7.747 142.300  1.00  0.00     0.007 A 
ATOM     33  C   UNL     1     -41.313  -7.258 140.621  1.00  0.00     0.007 A 
ATOM     34  C   UNL     1     -42.232  -6.846 143.126  1.00  0.00     0.039 A 
ATOM     35  C   UNL     1     -40.641  -6.384 141.413  1.00  0.00     0.039 A 
ATOM     36  C   UNL     1     -41.116  -6.179 142.688  1.00  0.00     0.123 A 
ATOM     37  F   UNL     1     -40.433  -5.300 143.470  1.00  0.00    -0.207 F 
ENDBRANCH  23  31
ENDBRANCH  22  23
ENDBRANCH   1  22
TORSDOF 7
ENDMDL
MODEL 3
REMARK VINA RESULT:      -7.9      3.395      6.973
REMARK SMILES O=C1NCN(c2ccccc2)C12CC[NH+](CCCC(c1ccc(F)cc1)c1ccc(F)cc1)CC2
REMARK SMILES IDX 17 1 16 2 15 3 1 4 2 5 3 6 12 7 4 8 5 9 13 10 35 11 14 12
REMARK SMILES IDX 34 13 6 16 7 17 11 18 8 19 10 20 9 21 18 22 19 23 20 24
REMARK SMILES IDX 21 25 26 26 22 27 25 28 23 29 24 30 27 31 28 32 33 33 29 34
REMARK SMILES IDX 32 35 30 36 31 37
REMARK H PARENT 3 14 15 15
ROOT
ATOM      1  C   UNL     1     -43.303  -5.921 136.723  1.00  0.00     0.062 C 
ENDROOT
BRANCH   1   2
ATOM      2  C   UNL     1     -42.760  -5.642 135.353  1.00  0.00     0.262 C 
BRANCH   2   3
ATOM      3  N   UNL     1     -43.133  -6.714 134.437  1.00  0.00    -0.335 N 
ATOM      4  O   UNL     1     -44.894  -7.589 131.875  1.00  0.00    -0.272 OA
ATOM      5  C   UNL     1     -44.643  -8.776 132.166  1.00  0.00     0.247 C 
ATOM      6  N   UNL     1     -45.116  -9.887 131.446  1.00  0.00    -0.336 N 
ATOM      7  C   UNL     1     -43.795  -9.232 133.332  1.00  0.00     0.131 C 
ATOM      8  C   UNL     1     -44.263 -10.980 131.791  1.00  0.00     0.238 C 
ATOM      9  N   UNL     1     -43.844 -10.683 133.169  1.00  0.00    -0.339 N 
ATOM     10  C   UNL     1     -44.454  -8.777 134.618  1.00  0.00     0.100 C 
ATOM     11  C   UNL     1     -42.439  -8.648 133.161  1.00  0.00     0.100 C 
ATOM     12  C   UNL     1     -44.434  -7.271 134.743  1.00  0.00     0.265 C 
ATOM     13  C   UNL     1     -42.125  -7.731 134.297  1.00  0.00     0.265 C 
ATOM     14  H   UNL     1     -45.941  -9.885 130.786  1.00  0.00     0.165 HD
ATOM     15  H   UNL     1     -43.220  -6.238 133.512  1.00  0.00     0.348 HD
BRANCH   9  16
ATOM     16  C   UNL     1     -43.580 -11.724 134.095  1.00  0.00     0.039 A 
ATOM     17  C   UNL     1     -44.604 -12.435 134.675  1.00  0.00     0.026 A 
ATOM     18  C   UNL     1     -42.293 -12.044 134.402  1.00  0.00     0.026 A 
ATOM     19  C   UNL     1     -44.354 -13.477 135.573  1.00  0.00     0.002 A 
ATOM     20  C   UNL     1     -42.027 -13.059 135.279  1.00  0.00     0.002 A 
ATOM     21  C   UNL     1     -43.039 -13.775 135.863  1.00  0.00     0.000 A 
ENDBRANCH   9  16
ENDBRANCH   2   3
ENDBRANCH   1   2
BRANCH   1  22
ATOM     22  C   UNL     1     -42.426  -6.640 137.655  1.00  0.00     0.019 C 
BRANCH  22  23
ATOM     23  C   UNL     1     -42.901  -7.200 138.913  1.00  0.00     0.049 C 
BRANCH  23  24
ATOM     24  C   UNL     1     -42.957  -8.704 138.977  1.00  0.00    -0.040 A 
ATOM     25  C   UNL     1     -42.560  -9.286 140.161  1.00  0.00     0.007 A 
ATOM     26  C   UNL     1     -43.353  -9.473 137.917  1.00  0.00     0.007 A 
ATOM     27  C   UNL     1     -42.559 -10.652 140.290  1.00  0.00     0.039 A 
ATOM     28  C   UNL     1     -43.351 -10.836 138.050  1.00  0.00     0.039 A 
ATOM     29  C   UNL     1     -42.953 -11.452 139.242  1.00  0.00     0.123 A 
ATOM     30  F   UNL     1     -42.947 -12.802 139.382  1.00  0.00    -0.207 F 
ENDBRANCH  23  24
BRANCH  23  31
ATOM     31  C   UNL     1     -42.465  -6.648 140.185  1.00  0.00    -0.040 A 
ATOM     32  C   UNL     1     -43.261  -6.118 141.163  1.00  0.00     0.007 A 
ATOM     33  C   UNL     1     -41.081  -6.657 140.400  1.00  0.00     0.007 A 
ATOM     34  C   UNL     1     -42.661  -5.611 142.322  1.00  0.00     0.039 A 
ATOM     35  C   UNL     1     -40.488  -6.171 141.521  1.00  0.00     0.039 A 
ATOM     36  C   UNL     1     -41.300  -5.639 142.496  1.00  0.00     0.123 A 
ATOM     37  F   UNL     1     -40.693  -5.155 143.613  1.00  0.00    -0.207 F 
ENDBRANCH  23  31
ENDBRANCH  22  23
ENDBRANCH   1  22
TORSDOF 7
ENDMDL
MODEL 4
REMARK VINA RESULT:      -7.9      1.370      1.675
REMARK SMILES O=C1NCN(c2ccccc2)C12CC[NH+](CCCC(c1ccc(F)cc1)c1ccc(F)cc1)CC2
REMARK SMILES IDX 17 1 16 2 15 3 1 4 2 5 3 6 12 7 4 8 5 9 13 10 35 11 14 12
REMARK SMILES IDX 34 13 6 16 7 17 11 18 8 19 10 20 9 21 18 22 19 23 20 24
REMARK SMILES IDX 21 25 26 26 22 27 25 28 23 29 24 30 27 31 28 32 33 33 29 34
REMARK SMILES IDX 32 35 30 36 31 37
REMARK H PARENT 3 14 15 15
ROOT
ATOM      1  C   UNL     1     -43.639  -7.583 138.020  1.00  0.00     0.062 C 
ENDROOT
BRANCH   1   2
ATOM      2  C   UNL     1     -43.493  -8.454 136.807  1.00  0.00     0.262 C 
BRANCH   2   3
ATOM      3  N   UNL     1     -43.846  -7.706 135.606  1.00  0.00    -0.335 N 
ATOM      4  O   UNL     1     -44.554  -7.826 132.457  1.00  0.00    -0.272 OA
ATOM      5  C   UNL     1     -44.392  -6.589 132.421  1.00  0.00     0.247 C 
ATOM      6  N   UNL     1     -44.528  -5.805 131.262  1.00  0.00    -0.336 N 
ATOM      7  C   UNL     1     -44.024  -5.718 133.601  1.00  0.00     0.131 C 
ATOM      8  C   UNL     1     -44.726  -4.462 131.709  1.00  0.00     0.238 C 
ATOM      9  N   UNL     1     -43.985  -4.397 132.978  1.00  0.00    -0.339 N 
ATOM     10  C   UNL     1     -42.666  -6.149 134.117  1.00  0.00     0.100 C 
ATOM     11  C   UNL     1     -45.088  -5.874 134.628  1.00  0.00     0.100 C 
ATOM     12  C   UNL     1     -42.718  -7.537 134.713  1.00  0.00     0.265 C 
ATOM     13  C   UNL     1     -44.517  -6.461 135.877  1.00  0.00     0.265 C 
ATOM     14  H   UNL     1     -44.489  -6.164 130.270  1.00  0.00     0.165 HD
ATOM     15  H   UNL     1     -44.529  -8.323 135.115  1.00  0.00     0.348 HD
BRANCH   9  16
ATOM     16  C   UNL     1     -43.367  -3.195 133.405  1.00  0.00     0.039 A 
ATOM     17  C   UNL     1     -42.209  -2.745 132.816  1.00  0.00     0.026 A 
ATOM     18  C   UNL     1     -43.935  -2.459 134.399  1.00  0.00     0.026 A 
ATOM     19  C   UNL     1     -41.601  -1.550 133.215  1.00  0.00     0.002 A 
ATOM     20  C   UNL     1     -43.357  -1.287 134.804  1.00  0.00     0.002 A 
ATOM     21  C   UNL     1     -42.203  -0.829 134.224  1.00  0.00     0.000 A 
ENDBRANCH   9  16
ENDBRANCH   2   3
ENDBRANCH   1   2
BRANCH   1  22
ATOM     22  C   UNL     1     -42.418  -7.276 138.773  1.00  0.00     0.019 C 
BRANCH  22  23
ATOM     23  C   UNL     1     -42.127  -7.858 140.076  1.00  0.00     0.049 C 
BRANCH  23  24
ATOM     24  C   UNL     1     -41.770  -6.877 141.162  1.00  0.00    -0.040 A 
ATOM     25  C   UNL     1     -42.282  -5.604 141.037  1.00  0.00     0.007 A 
ATOM     26  C   UNL     1     -40.959  -7.204 142.216  1.00  0.00     0.007 A 
ATOM     27  C   UNL     1     -41.984  -4.646 141.973  1.00  0.00     0.039 A 
ATOM     28  C   UNL     1     -40.664  -6.246 143.148  1.00  0.00     0.039 A 
ATOM     29  C   UNL     1     -41.172  -4.945 143.044  1.00  0.00     0.123 A 
ATOM     30  F   UNL     1     -40.884  -3.989 143.963  1.00  0.00    -0.207 F 
ENDBRANCH  23  24
BRANCH  23  31
ATOM     31  C   UNL     1     -42.941  -8.938 140.608  1.00  0.00    -0.040 A 
ATOM     32  C   UNL     1     -44.082  -8.814 141.350  1.00  0.00     0.007 A 
ATOM     33  C   UNL     1     -42.477 -10.231 140.331  1.00  0.00     0.007 A 
ATOM     34  C   UNL     1     -44.729  -9.972 141.797  1.00  0.00     0.039 A 
ATOM     35  C   UNL     1     -43.096 -11.362 140.757  1.00  0.00     0.039 A 
ATOM     36  C   UNL     1     -44.243 -11.222 141.504  1.00  0.00     0.123 A 
ATOM     37  F   UNL     1     -44.852 -12.363 141.924  1.00  0.00    -0.207 F 
ENDBRANCH  23  31
ENDBRANCH  22  23
ENDBRANCH   1  22
TORSDOF 7
ENDMDL
MODEL 5
REMARK VINA RESULT:      -7.9      1.415      1.987
REMARK SMILES O=C1NCN(c2ccccc2)C12CC[NH+](CCCC(c1ccc(F)cc1)c1ccc(F)cc1)CC2
REMARK SMILES IDX 17 1 16 2 15 3 1 4 2 5 3 6 12 7 4 8 5 9 13 10 35 11 14 12
REMARK SMILES IDX 34 13 6 16 7 17 11 18 8 19 10 20 9 21 18 22 19 23 20 24
REMARK SMILES IDX 21 25 26 26 22 27 25 28 23 29 24 30 27 31 28 32 33 33 29 34
REMARK SMILES IDX 32 35 30 36 31 37
REMARK H PARENT 3 14 15 15
ROOT
ATOM      1  C   UNL     1     -43.236  -8.348 137.352  1.00  0.00     0.062 C 
ENDROOT
BRANCH   1   2
ATOM      2  C   UNL     1     -44.673  -8.165 136.959  1.00  0.00     0.262 C 
BRANCH   2   3
ATOM      3  N   UNL     1     -44.759  -7.478 135.676  1.00  0.00    -0.335 N 
ATOM      4  O   UNL     1     -44.981  -7.765 132.467  1.00  0.00    -0.272 OA
ATOM      5  C   UNL     1     -44.693  -6.552 132.386  1.00  0.00     0.247 C 
ATOM      6  N   UNL     1     -44.571  -5.846 131.176  1.00  0.00    -0.336 N 
ATOM      7  C   UNL     1     -44.428  -5.634 133.557  1.00  0.00     0.131 C 
ATOM      8  C   UNL     1     -44.702  -4.462 131.507  1.00  0.00     0.238 C 
ATOM      9  N   UNL     1     -44.164  -4.370 132.873  1.00  0.00    -0.339 N 
ATOM     10  C   UNL     1     -43.215  -6.145 134.308  1.00  0.00     0.100 C 
ATOM     11  C   UNL     1     -45.648  -5.621 134.406  1.00  0.00     0.100 C 
ATOM     12  C   UNL     1     -43.496  -7.475 134.968  1.00  0.00     0.265 C 
ATOM     13  C   UNL     1     -45.338  -6.163 135.763  1.00  0.00     0.265 C 
ATOM     14  H   UNL     1     -44.414  -6.278 130.226  1.00  0.00     0.165 HD
ATOM     15  H   UNL     1     -45.416  -8.067 135.118  1.00  0.00     0.348 HD
BRANCH   9  16
ATOM     16  C   UNL     1     -43.503  -3.199 133.323  1.00  0.00     0.039 A 
ATOM     17  C   UNL     1     -44.075  -2.380 134.267  1.00  0.00     0.026 A 
ATOM     18  C   UNL     1     -42.272  -2.888 132.833  1.00  0.00     0.026 A 
ATOM     19  C   UNL     1     -43.424  -1.234 134.734  1.00  0.00     0.002 A 
ATOM     20  C   UNL     1     -41.618  -1.772 133.275  1.00  0.00     0.002 A 
ATOM     21  C   UNL     1     -42.179  -0.947 134.216  1.00  0.00     0.000 A 
ENDBRANCH   9  16
ENDBRANCH   2   3
ENDBRANCH   1   2
BRANCH   1  22
ATOM     22  C   UNL     1     -42.724  -7.493 138.429  1.00  0.00     0.019 C 
BRANCH  22  23
ATOM     23  C   UNL     1     -42.244  -8.023 139.698  1.00  0.00     0.049 C 
BRANCH  23  24
ATOM     24  C   UNL     1     -41.895  -6.996 140.743  1.00  0.00    -0.040 A 
ATOM     25  C   UNL     1     -40.946  -7.359 141.672  1.00  0.00     0.007 A 
ATOM     26  C   UNL     1     -42.497  -5.768 140.801  1.00  0.00     0.007 A 
ATOM     27  C   UNL     1     -40.590  -6.488 142.671  1.00  0.00     0.039 A 
ATOM     28  C   UNL     1     -42.139  -4.901 141.798  1.00  0.00     0.039 A 
ATOM     29  C   UNL     1     -41.177  -5.246 142.754  1.00  0.00     0.123 A 
ATOM     30  F   UNL     1     -40.817  -4.393 143.747  1.00  0.00    -0.207 F 
ENDBRANCH  23  24
BRANCH  23  31
ATOM     31  C   UNL     1     -42.877  -9.181 140.308  1.00  0.00    -0.040 A 
ATOM     32  C   UNL     1     -42.390 -10.458 140.340  1.00  0.00     0.007 A 
ATOM     33  C   UNL     1     -44.123  -8.940 140.902  1.00  0.00     0.007 A 
ATOM     34  C   UNL     1     -43.150 -11.457 140.959  1.00  0.00     0.039 A 
ATOM     35  C   UNL     1     -44.869  -9.900 141.506  1.00  0.00     0.039 A 
ATOM     36  C   UNL     1     -44.367 -11.181 141.531  1.00  0.00     0.123 A 
ATOM     37  F   UNL     1     -45.124 -12.132 142.139  1.00  0.00    -0.207 F 
ENDBRANCH  23  31
ENDBRANCH  22  23
ENDBRANCH   1  22
TORSDOF 7
ENDMDL
MODEL 6
REMARK VINA RESULT:      -7.8      3.522      8.585
REMARK SMILES O=C1NCN(c2ccccc2)C12CC[NH+](CCCC(c1ccc(F)cc1)c1ccc(F)cc1)CC2
REMARK SMILES IDX 17 1 16 2 15 3 1 4 2 5 3 6 12 7 4 8 5 9 13 10 35 11 14 12
REMARK SMILES IDX 34 13 6 16 7 17 11 18 8 19 10 20 9 21 18 22 19 23 20 24
REMARK SMILES IDX 21 25 26 26 22 27 25 28 23 29 24 30 27 31 28 32 33 33 29 34
REMARK SMILES IDX 32 35 30 36 31 37
REMARK H PARENT 3 14 15 15
ROOT
ATOM      1  C   UNL     1     -43.491  -8.813 134.948  1.00  0.00     0.062 C 
ENDROOT
BRANCH   1   2
ATOM      2  C   UNL     1     -44.882  -9.259 135.291  1.00  0.00     0.262 C 
BRANCH   2   3
ATOM      3  N   UNL     1     -44.913  -9.814 136.640  1.00  0.00    -0.335 N 
ATOM      4  O   UNL     1     -46.490 -11.666 138.764  1.00  0.00    -0.272 OA
ATOM      5  C   UNL     1     -45.757 -11.188 139.654  1.00  0.00     0.247 C 
ATOM      6  N   UNL     1     -45.840 -11.526 141.016  1.00  0.00    -0.336 N 
ATOM      7  C   UNL     1     -44.660 -10.171 139.434  1.00  0.00     0.131 C 
ATOM      8  C   UNL     1     -44.589 -11.153 141.597  1.00  0.00     0.238 C 
ATOM      9  N   UNL     1     -44.153 -10.000 140.794  1.00  0.00    -0.339 N 
ATOM     10  C   UNL     1     -45.280  -8.900 138.889  1.00  0.00     0.100 C 
ATOM     11  C   UNL     1     -43.676 -10.763 138.490  1.00  0.00     0.100 C 
ATOM     12  C   UNL     1     -45.840  -9.111 137.502  1.00  0.00     0.265 C 
ATOM     13  C   UNL     1     -43.611  -9.952 137.237  1.00  0.00     0.265 C 
ATOM     14  H   UNL     1     -46.673 -11.969 141.490  1.00  0.00     0.165 HD
ATOM     15  H   UNL     1     -45.295 -10.776 136.508  1.00  0.00     0.348 HD
BRANCH   9  16
ATOM     16  C   UNL     1     -43.386  -8.954 141.367  1.00  0.00     0.039 A 
ATOM     17  C   UNL     1     -42.117  -8.676 140.918  1.00  0.00     0.026 A 
ATOM     18  C   UNL     1     -43.919  -8.196 142.365  1.00  0.00     0.026 A 
ATOM     19  C   UNL     1     -41.360  -7.634 141.463  1.00  0.00     0.002 A 
ATOM     20  C   UNL     1     -43.195  -7.172 142.911  1.00  0.00     0.002 A 
ATOM     21  C   UNL     1     -41.929  -6.886 142.471  1.00  0.00     0.000 A 
ENDBRANCH   9  16
ENDBRANCH   2   3
ENDBRANCH   1   2
BRANCH   1  22
ATOM     22  C   UNL     1     -43.349  -7.497 134.314  1.00  0.00     0.019 C 
BRANCH  22  23
ATOM     23  C   UNL     1     -42.907  -6.314 135.040  1.00  0.00     0.049 C 
BRANCH  23  24
ATOM     24  C   UNL     1     -42.807  -5.050 134.227  1.00  0.00    -0.040 A 
ATOM     25  C   UNL     1     -41.697  -4.264 134.442  1.00  0.00     0.007 A 
ATOM     26  C   UNL     1     -43.771  -4.670 133.332  1.00  0.00     0.007 A 
ATOM     27  C   UNL     1     -41.545  -3.084 133.758  1.00  0.00     0.039 A 
ATOM     28  C   UNL     1     -43.616  -3.493 132.651  1.00  0.00     0.039 A 
ATOM     29  C   UNL     1     -42.497  -2.676 132.851  1.00  0.00     0.123 A 
ATOM     30  F   UNL     1     -42.336  -1.507 132.181  1.00  0.00    -0.207 F 
ENDBRANCH  23  24
BRANCH  23  31
ATOM     31  C   UNL     1     -43.410  -6.028 136.373  1.00  0.00    -0.040 A 
ATOM     32  C   UNL     1     -44.616  -5.469 136.690  1.00  0.00     0.007 A 
ATOM     33  C   UNL     1     -42.543  -6.354 137.424  1.00  0.00     0.007 A 
ATOM     34  C   UNL     1     -44.927  -5.247 138.037  1.00  0.00     0.039 A 
ATOM     35  C   UNL     1     -42.833  -6.145 138.734  1.00  0.00     0.039 A 
ATOM     36  C   UNL     1     -44.049  -5.580 139.039  1.00  0.00     0.123 A 
ATOM     37  F   UNL     1     -44.327  -5.377 140.354  1.00  0.00    -0.207 F 
ENDBRANCH  23  31
ENDBRANCH  22  23
ENDBRANCH   1  22
TORSDOF 7
ENDMDL
MODEL 7
REMARK VINA RESULT:      -7.7      3.539      8.669
REMARK SMILES O=C1NCN(c2ccccc2)C12CC[NH+](CCCC(c1ccc(F)cc1)c1ccc(F)cc1)CC2
REMARK SMILES IDX 17 1 16 2 15 3 1 4 2 5 3 6 12 7 4 8 5 9 13 10 35 11 14 12
REMARK SMILES IDX 34 13 6 16 7 17 11 18 8 19 10 20 9 21 18 22 19 23 20 24
REMARK SMILES IDX 21 25 26 26 22 27 25 28 23 29 24 30 27 31 28 32 33 33 29 34
REMARK SMILES IDX 32 35 30 36 31 37
REMARK H PARENT 3 14 15 15
ROOT
ATOM      1  C   UNL     1     -43.368  -8.928 135.295  1.00  0.00     0.062 C 
ENDROOT
BRANCH   1   2
ATOM      2  C   UNL     1     -44.630  -9.719 135.473  1.00  0.00     0.262 C 
BRANCH   2   3
ATOM      3  N   UNL     1     -44.804 -10.079 136.876  1.00  0.00    -0.335 N 
ATOM      4  O   UNL     1     -46.689 -11.477 139.093  1.00  0.00    -0.272 OA
ATOM      5  C   UNL     1     -45.974 -10.947 139.968  1.00  0.00     0.247 C 
ATOM      6  N   UNL     1     -46.180 -11.087 141.352  1.00  0.00    -0.336 N 
ATOM      7  C   UNL     1     -44.773 -10.068 139.704  1.00  0.00     0.131 C 
ATOM      8  C   UNL     1     -44.940 -10.746 141.976  1.00  0.00     0.238 C 
ATOM      9  N   UNL     1     -44.343  -9.757 141.065  1.00  0.00    -0.339 N 
ATOM     10  C   UNL     1     -45.229  -8.835 138.951  1.00  0.00     0.100 C 
ATOM     11  C   UNL     1     -43.790 -10.868 138.926  1.00  0.00     0.100 C 
ATOM     12  C   UNL     1     -45.714  -9.186 137.563  1.00  0.00     0.265 C 
ATOM     13  C   UNL     1     -43.564 -10.245 137.587  1.00  0.00     0.265 C 
ATOM     14  H   UNL     1     -47.082 -11.386 141.812  1.00  0.00     0.165 HD
ATOM     15  H   UNL     1     -45.267 -11.013 136.842  1.00  0.00     0.348 HD
BRANCH   9  16
ATOM     16  C   UNL     1     -43.519  -8.713 141.556  1.00  0.00     0.039 A 
ATOM     17  C   UNL     1     -44.008  -7.778 142.438  1.00  0.00     0.026 A 
ATOM     18  C   UNL     1     -42.216  -8.642 141.168  1.00  0.00     0.026 A 
ATOM     19  C   UNL     1     -43.199  -6.756 142.944  1.00  0.00     0.002 A 
ATOM     20  C   UNL     1     -41.408  -7.650 141.651  1.00  0.00     0.002 A 
ATOM     21  C   UNL     1     -41.885  -6.713 142.530  1.00  0.00     0.000 A 
ENDBRANCH   9  16
ENDBRANCH   2   3
ENDBRANCH   1   2
BRANCH   1  22
ATOM     22  C   UNL     1     -43.503  -7.560 134.782  1.00  0.00     0.019 C 
BRANCH  22  23
ATOM     23  C   UNL     1     -42.871  -6.412 135.417  1.00  0.00     0.049 C 
BRANCH  23  24
ATOM     24  C   UNL     1     -42.729  -5.186 134.553  1.00  0.00    -0.040 A 
ATOM     25  C   UNL     1     -43.715  -4.974 133.615  1.00  0.00     0.007 A 
ATOM     26  C   UNL     1     -41.668  -4.326 134.660  1.00  0.00     0.007 A 
ATOM     27  C   UNL     1     -43.645  -3.893 132.774  1.00  0.00     0.039 A 
ATOM     28  C   UNL     1     -41.602  -3.248 133.819  1.00  0.00     0.039 A 
ATOM     29  C   UNL     1     -42.592  -3.010 132.858  1.00  0.00     0.123 A 
ATOM     30  F   UNL     1     -42.533  -1.944 132.020  1.00  0.00    -0.207 F 
ENDBRANCH  23  24
BRANCH  23  31
ATOM     31  C   UNL     1     -43.201  -6.041 136.783  1.00  0.00    -0.040 A 
ATOM     32  C   UNL     1     -42.509  -6.381 137.912  1.00  0.00     0.007 A 
ATOM     33  C   UNL     1     -44.360  -5.270 136.932  1.00  0.00     0.007 A 
ATOM     34  C   UNL     1     -42.988  -5.948 139.155  1.00  0.00     0.039 A 
ATOM     35  C   UNL     1     -44.834  -4.843 138.131  1.00  0.00     0.039 A 
ATOM     36  C   UNL     1     -44.130  -5.193 139.259  1.00  0.00     0.123 A 
ATOM     37  F   UNL     1     -44.615  -4.759 140.453  1.00  0.00    -0.207 F 
ENDBRANCH  23  31
ENDBRANCH  22  23
ENDBRANCH   1  22
TORSDOF 7
ENDMDL
MODEL 8
REMARK VINA RESULT:      -7.7      1.225      1.754
REMARK SMILES O=C1NCN(c2ccccc2)C12CC[NH+](CCCC(c1ccc(F)cc1)c1ccc(F)cc1)CC2
REMARK SMILES IDX 17 1 16 2 15 3 1 4 2 5 3 6 12 7 4 8 5 9 13 10 35 11 14 12
REMARK SMILES IDX 34 13 6 16 7 17 11 18 8 19 10 20 9 21 18 22 19 23 20 24
REMARK SMILES IDX 21 25 26 26 22 27 25 28 23 29 24 30 27 31 28 32 33 33 29 34
REMARK SMILES IDX 32 35 30 36 31 37
REMARK H PARENT 3 14 15 15
ROOT
ATOM      1  C   UNL     1     -42.852  -6.606 137.368  1.00  0.00     0.062 C 
ENDROOT
BRANCH   1   2
ATOM      2  C   UNL     1     -43.820  -5.464 137.464  1.00  0.00     0.262 C 
BRANCH   2   3
ATOM      3  N   UNL     1     -44.060  -4.897 136.142  1.00  0.00    -0.335 N 
ATOM      4  O   UNL     1     -45.055  -5.423 133.115  1.00  0.00    -0.272 OA
ATOM      5  C   UNL     1     -44.563  -4.316 132.811  1.00  0.00     0.247 C 
ATOM      6  N   UNL     1     -44.583  -3.768 131.516  1.00  0.00    -0.336 N 
ATOM      7  C   UNL     1     -43.866  -3.374 133.766  1.00  0.00     0.131 C 
ATOM      8  C   UNL     1     -44.364  -2.365 131.673  1.00  0.00     0.238 C 
ATOM      9  N   UNL     1     -43.523  -2.268 132.876  1.00  0.00    -0.339 N 
ATOM     10  C   UNL     1     -42.637  -4.067 134.320  1.00  0.00     0.100 C 
ATOM     11  C   UNL     1     -44.835  -3.014 134.835  1.00  0.00     0.100 C 
ATOM     12  C   UNL     1     -43.015  -5.236 135.200  1.00  0.00     0.265 C 
ATOM     13  C   UNL     1     -44.337  -3.484 136.162  1.00  0.00     0.265 C 
ATOM     14  H   UNL     1     -44.733  -4.310 130.622  1.00  0.00     0.165 HD
ATOM     15  H   UNL     1     -44.928  -5.375 135.815  1.00  0.00     0.348 HD
BRANCH   9  16
ATOM     16  C   UNL     1     -42.563  -1.234 133.017  1.00  0.00     0.039 A 
ATOM     17  C   UNL     1     -42.583  -0.390 134.102  1.00  0.00     0.026 A 
ATOM     18  C   UNL     1     -41.589  -1.084 132.078  1.00  0.00     0.026 A 
ATOM     19  C   UNL     1     -41.629   0.619 134.262  1.00  0.00     0.002 A 
ATOM     20  C   UNL     1     -40.646  -0.103 132.215  1.00  0.00     0.002 A 
ATOM     21  C   UNL     1     -40.657   0.744 133.292  1.00  0.00     0.000 A 
ENDBRANCH   9  16
ENDBRANCH   2   3
ENDBRANCH   1   2
BRANCH   1  22
ATOM     22  C   UNL     1     -43.278  -7.893 137.930  1.00  0.00     0.019 C 
BRANCH  22  23
ATOM     23  C   UNL     1     -42.576  -8.546 139.027  1.00  0.00     0.049 C 
BRANCH  23  24
ATOM     24  C   UNL     1     -42.491  -7.757 140.308  1.00  0.00    -0.040 A 
ATOM     25  C   UNL     1     -43.675  -7.532 140.973  1.00  0.00     0.007 A 
ATOM     26  C   UNL     1     -41.311  -7.259 140.790  1.00  0.00     0.007 A 
ATOM     27  C   UNL     1     -43.685  -6.801 142.135  1.00  0.00     0.039 A 
ATOM     28  C   UNL     1     -41.324  -6.531 141.949  1.00  0.00     0.039 A 
ATOM     29  C   UNL     1     -42.514  -6.288 142.645  1.00  0.00     0.123 A 
ATOM     30  F   UNL     1     -42.536  -5.566 143.795  1.00  0.00    -0.207 F 
ENDBRANCH  23  24
BRANCH  23  31
ATOM     31  C   UNL     1     -42.783  -9.958 139.307  1.00  0.00    -0.040 A 
ATOM     32  C   UNL     1     -42.409 -10.631 140.436  1.00  0.00     0.007 A 
ATOM     33  C   UNL     1     -43.418 -10.684 138.291  1.00  0.00     0.007 A 
ATOM     34  C   UNL     1     -42.674 -12.003 140.525  1.00  0.00     0.039 A 
ATOM     35  C   UNL     1     -43.682 -12.013 138.366  1.00  0.00     0.039 A 
ATOM     36  C   UNL     1     -43.299 -12.679 139.507  1.00  0.00     0.123 A 
ATOM     37  F   UNL     1     -43.569 -14.011 139.569  1.00  0.00    -0.207 F 
ENDBRANCH  23  31
ENDBRANCH  22  23
ENDBRANCH   1  22
TORSDOF 7
ENDMDL
MODEL 9
REMARK VINA RESULT:      -7.7      3.290      5.202
REMARK SMILES O=C1NCN(c2ccccc2)C12CC[NH+](CCCC(c1ccc(F)cc1)c1ccc(F)cc1)CC2
REMARK SMILES IDX 17 1 16 2 15 3 1 4 2 5 3 6 12 7 4 8 5 9 13 10 35 11 14 12
REMARK SMILES IDX 34 13 6 16 7 17 11 18 8 19 10 20 9 21 18 22 19 23 20 24
REMARK SMILES IDX 21 25 26 26 22 27 25 28 23 29 24 30 27 31 28 32 33 33 29 34
REMARK SMILES IDX 32 35 30 36 31 37
REMARK H PARENT 3 14 15 15
ROOT
ATOM      1  C   UNL     1     -43.308  -7.298 137.936  1.00  0.00     0.062 C 
ENDROOT
BRANCH   1   2
ATOM      2  C   UNL     1     -44.378  -6.705 137.068  1.00  0.00     0.262 C 
BRANCH   2   3
ATOM      3  N   UNL     1     -44.111  -7.003 135.665  1.00  0.00    -0.335 N 
ATOM      4  O   UNL     1     -44.849  -6.386 132.583  1.00  0.00    -0.272 OA
ATOM      5  C   UNL     1     -44.209  -7.412 132.273  1.00  0.00     0.247 C 
ATOM      6  N   UNL     1     -44.054  -7.883 130.957  1.00  0.00    -0.336 N 
ATOM      7  C   UNL     1     -43.492  -8.324 133.242  1.00  0.00     0.131 C 
ATOM      8  C   UNL     1     -42.920  -8.753 130.975  1.00  0.00     0.238 C 
ATOM      9  N   UNL     1     -42.928  -9.319 132.333  1.00  0.00    -0.339 N 
ATOM     10  C   UNL     1     -44.512  -8.924 134.188  1.00  0.00     0.100 C 
ATOM     11  C   UNL     1     -42.473  -7.512 133.959  1.00  0.00     0.100 C 
ATOM     12  C   UNL     1     -45.116  -7.870 135.087  1.00  0.00     0.265 C 
ATOM     13  C   UNL     1     -42.775  -7.480 135.421  1.00  0.00     0.265 C 
ATOM     14  H   UNL     1     -44.667  -7.627 130.137  1.00  0.00     0.165 HD
ATOM     15  H   UNL     1     -44.199  -6.079 135.189  1.00  0.00     0.348 HD
BRANCH   9  16
ATOM     16  C   UNL     1     -42.456 -10.633 132.582  1.00  0.00     0.039 A 
ATOM     17  C   UNL     1     -42.261 -11.524 131.553  1.00  0.00     0.026 A 
ATOM     18  C   UNL     1     -42.168 -11.016 133.856  1.00  0.00     0.026 A 
ATOM     19  C   UNL     1     -41.776 -12.815 131.785  1.00  0.00     0.002 A 
ATOM     20  C   UNL     1     -41.693 -12.274 134.104  1.00  0.00     0.002 A 
ATOM     21  C   UNL     1     -41.495 -13.171 133.086  1.00  0.00     0.000 A 
ENDBRANCH   9  16
ENDBRANCH   2   3
ENDBRANCH   1   2
BRANCH   1  22
ATOM     22  C   UNL     1     -43.713  -8.360 138.864  1.00  0.00     0.019 C 
BRANCH  22  23
ATOM     23  C   UNL     1     -42.802  -8.948 139.836  1.00  0.00     0.049 C 
BRANCH  23  24
ATOM     24  C   UNL     1     -42.200  -7.988 140.830  1.00  0.00    -0.040 A 
ATOM     25  C   UNL     1     -42.877  -7.826 142.018  1.00  0.00     0.007 A 
ATOM     26  C   UNL     1     -41.055  -7.283 140.574  1.00  0.00     0.007 A 
ATOM     27  C   UNL     1     -42.406  -6.951 142.965  1.00  0.00     0.039 A 
ATOM     28  C   UNL     1     -40.588  -6.412 141.521  1.00  0.00     0.039 A 
ATOM     29  C   UNL     1     -41.257  -6.229 142.738  1.00  0.00     0.123 A 
ATOM     30  F   UNL     1     -40.801  -5.366 143.681  1.00  0.00    -0.207 F 
ENDBRANCH  23  24
BRANCH  23  31
ATOM     31  C   UNL     1     -43.111 -10.218 140.473  1.00  0.00    -0.040 A 
ATOM     32  C   UNL     1     -44.278 -10.556 141.099  1.00  0.00     0.007 A 
ATOM     33  C   UNL     1     -42.084 -11.170 140.442  1.00  0.00     0.007 A 
ATOM     34  C   UNL     1     -44.392 -11.827 141.677  1.00  0.00     0.039 A 
ATOM     35  C   UNL     1     -42.183 -12.405 140.997  1.00  0.00     0.039 A 
ATOM     36  C   UNL     1     -43.362 -12.732 141.625  1.00  0.00     0.123 A 
ATOM     37  F   UNL     1     -43.448 -13.973 142.177  1.00  0.00    -0.207 F 
ENDBRANCH  23  31
ENDBRANCH  22  23
ENDBRANCH   1  22
TORSDOF 7
ENDMDL
