MODEL 1
REMARK VINA RESULT:      -3.6      0.000      0.000
REMARK SMILES O=C1c2c([O-])ccc(O)c2C(=O)c2c(NCC[NH2+]CCO)ccc(NCCNCCO)c21
REMARK SMILES IDX 1 1 2 2 3 3 4 4 5 5 6 6 7 7 8 8 10 9 11 10 12 11 13 12 14 13
REMARK SMILES IDX 22 14 23 15 24 16 32 17 25 18 26 20 27 21 28 22 29 24 30 25
REMARK SMILES IDX 31 26 9 28 15 30 16 32 17 33 18 34 19 37 20 38 21 39
REMARK H PARENT 25 19 28 23 31 27 9 29 15 31 18 35 18 36 21 40
ROOT
ATOM      1  O   UNL     1     165.793  27.357 581.866  1.00  0.00    -0.288 OA
ATOM      2  C   UNL     1     165.794  26.135 581.579  1.00  0.00     0.196 C 
ATOM      3  C   UNL     1     164.612  25.583 580.876  1.00  0.00     0.030 A 
ATOM      4  C   UNL     1     163.578  26.450 580.579  1.00  0.00    -0.097 A 
ATOM      5  O   UNL     1     163.680  27.789 580.942  1.00  0.00    -0.872 OA
ATOM      6  C   UNL     1     162.469  25.960 579.925  1.00  0.00    -0.004 A 
ATOM      7  C   UNL     1     162.395  24.639 579.579  1.00  0.00     0.046 A 
ATOM      8  C   UNL     1     163.414  23.758 579.867  1.00  0.00     0.127 A 
ATOM      9  C   UNL     1     164.532  24.266 580.528  1.00  0.00     0.075 A 
ATOM     10  C   UNL     1     165.643  23.365 580.856  1.00  0.00     0.200 C 
ATOM     11  O   UNL     1     165.484  22.173 580.498  1.00  0.00    -0.288 OA
ATOM     12  C   UNL     1     166.815  23.884 581.546  1.00  0.00     0.059 A 
ATOM     13  C   UNL     1     167.819  23.000 581.828  1.00  0.00     0.046 A 
ATOM     14  C   UNL     1     168.936  23.539 582.499  1.00  0.00     0.028 A 
ATOM     15  C   UNL     1     169.006  24.853 582.840  1.00  0.00     0.028 A 
ATOM     16  C   UNL     1     167.975  25.762 582.551  1.00  0.00     0.046 A 
ATOM     17  C   UNL     1     166.882  25.255 581.899  1.00  0.00     0.059 A 
ENDROOT
BRANCH  16  18
ATOM     18  N   UNL     1     168.171  27.125 582.924  1.00  0.00    -0.383 N 
ATOM     19  H   UNL     1     167.667  27.547 583.691  1.00  0.00     0.160 HD
BRANCH  18  20
ATOM     20  C   UNL     1     169.103  27.986 582.220  1.00  0.00     0.128 C 
BRANCH  20  21
ATOM     21  C   UNL     1     169.298  27.652 580.784  1.00  0.00     0.102 C 
BRANCH  21  22
ATOM     22  N   UNL     1     169.732  28.822 580.009  1.00  0.00    -0.313 NA
ATOM     23  H   UNL     1     169.456  29.664 580.571  1.00  0.00     0.122 HD
BRANCH  22  24
ATOM     24  C   UNL     1     168.916  28.851 578.805  1.00  0.00     0.109 C 
BRANCH  24  25
ATOM     25  C   UNL     1     169.596  28.131 577.665  1.00  0.00     0.171 C 
BRANCH  25  26
ATOM     26  O   UNL     1     168.805  27.101 577.163  1.00  0.00    -0.395 OA
ATOM     27  H   UNL     1     168.192  27.499 576.485  1.00  0.00     0.210 HD
ENDBRANCH  25  26
ENDBRANCH  24  25
ENDBRANCH  22  24
ENDBRANCH  21  22
ENDBRANCH  20  21
ENDBRANCH  18  20
ENDBRANCH  16  18
BRANCH   8  28
ATOM     28  O   UNL     1     163.335  22.405 579.510  1.00  0.00    -0.507 OA
ATOM     29  H   UNL     1     162.969  21.703 580.156  1.00  0.00     0.293 HD
ENDBRANCH   8  28
BRANCH  13  30
ATOM     30  N   UNL     1     167.832  21.625 581.512  1.00  0.00    -0.379 N 
ATOM     31  H   UNL     1     167.799  21.234 580.583  1.00  0.00     0.160 HD
BRANCH  30  32
ATOM     32  C   UNL     1     167.897  20.615 582.587  1.00  0.00     0.174 C 
BRANCH  32  33
ATOM     33  C   UNL     1     166.864  20.828 583.632  1.00  0.00     0.281 C 
BRANCH  33  34
ATOM     34  N   UNL     1     165.729  19.962 583.542  1.00  0.00    -0.343 N 
ATOM     35  H   UNL     1     165.783  19.281 582.750  1.00  0.00     0.346 HD
ATOM     36  H   UNL     1     165.701  19.381 584.415  1.00  0.00     0.346 HD
BRANCH  34  37
ATOM     37  C   UNL     1     164.468  20.658 583.469  1.00  0.00     0.289 C 
BRANCH  37  38
ATOM     38  C   UNL     1     163.429  19.882 582.690  1.00  0.00     0.217 C 
BRANCH  38  39
ATOM     39  O   UNL     1     163.416  20.343 581.385  1.00  0.00    -0.391 OA
ATOM     40  H   UNL     1     163.205  21.321 581.424  1.00  0.00     0.210 HD
ENDBRANCH  38  39
ENDBRANCH  37  38
ENDBRANCH  34  37
ENDBRANCH  33  34
ENDBRANCH  32  33
ENDBRANCH  30  32
ENDBRANCH  13  30
TORSDOF 15
ENDMDL
MODEL 2
REMARK VINA RESULT:      -3.4      2.996      7.098
REMARK SMILES O=C1c2c([O-])ccc(O)c2C(=O)c2c(NCC[NH2+]CCO)ccc(NCCNCCO)c21
REMARK SMILES IDX 1 1 2 2 3 3 4 4 5 5 6 6 7 7 8 8 10 9 11 10 12 11 13 12 14 13
REMARK SMILES IDX 22 14 23 15 24 16 32 17 25 18 26 20 27 21 28 22 29 24 30 25
REMARK SMILES IDX 31 26 9 28 15 30 16 32 17 33 18 34 19 37 20 38 21 39
REMARK H PARENT 25 19 28 23 31 27 9 29 15 31 18 35 18 36 21 40
ROOT
ATOM      1  O   UNL     1     166.129  23.397 581.809  1.00  0.00    -0.288 OA
ATOM      2  C   UNL     1     167.075  24.217 581.893  1.00  0.00     0.196 C 
ATOM      3  C   UNL     1     166.807  25.631 581.538  1.00  0.00     0.030 A 
ATOM      4  C   UNL     1     165.526  25.960 581.138  1.00  0.00    -0.097 A 
ATOM      5  O   UNL     1     164.549  24.972 581.082  1.00  0.00    -0.872 OA
ATOM      6  C   UNL     1     165.252  27.269 580.804  1.00  0.00    -0.004 A 
ATOM      7  C   UNL     1     166.232  28.220 580.868  1.00  0.00     0.046 A 
ATOM      8  C   UNL     1     167.515  27.913 581.264  1.00  0.00     0.127 A 
ATOM      9  C   UNL     1     167.779  26.585 581.600  1.00  0.00     0.075 A 
ATOM     10  C   UNL     1     169.132  26.210 582.028  1.00  0.00     0.200 C 
ATOM     11  O   UNL     1     169.961  27.150 582.056  1.00  0.00    -0.288 OA
ATOM     12  C   UNL     1     169.420  24.827 582.381  1.00  0.00     0.059 A 
ATOM     13  C   UNL     1     170.698  24.533 582.770  1.00  0.00     0.046 A 
ATOM     14  C   UNL     1     170.939  23.184 583.102  1.00  0.00     0.028 A 
ATOM     15  C   UNL     1     169.962  22.240 583.038  1.00  0.00     0.028 A 
ATOM     16  C   UNL     1     168.650  22.541 582.638  1.00  0.00     0.046 A 
ATOM     17  C   UNL     1     168.397  23.848 582.312  1.00  0.00     0.059 A 
ENDROOT
BRANCH  16  18
ATOM     18  N   UNL     1     167.697  21.480 582.642  1.00  0.00    -0.383 N 
ATOM     19  H   UNL     1     167.398  21.027 581.790  1.00  0.00     0.160 HD
BRANCH  18  20
ATOM     20  C   UNL     1     167.097  20.992 583.870  1.00  0.00     0.128 C 
BRANCH  20  21
ATOM     21  C   UNL     1     165.843  20.216 583.686  1.00  0.00     0.102 C 
BRANCH  21  22
ATOM     22  N   UNL     1     164.695  21.095 583.423  1.00  0.00    -0.313 NA
ATOM     23  H   UNL     1     164.037  20.966 584.230  1.00  0.00     0.122 HD
BRANCH  22  24
ATOM     24  C   UNL     1     164.016  20.556 582.254  1.00  0.00     0.109 C 
BRANCH  24  25
ATOM     25  C   UNL     1     163.306  21.643 581.484  1.00  0.00     0.171 C 
BRANCH  25  26
ATOM     26  O   UNL     1     164.036  22.040 580.366  1.00  0.00    -0.395 OA
ATOM     27  H   UNL     1     164.959  22.255 580.674  1.00  0.00     0.210 HD
ENDBRANCH  25  26
ENDBRANCH  24  25
ENDBRANCH  22  24
ENDBRANCH  21  22
ENDBRANCH  20  21
ENDBRANCH  18  20
ENDBRANCH  16  18
BRANCH   8  28
ATOM     28  O   UNL     1     168.516  28.891 581.329  1.00  0.00    -0.507 OA
ATOM     29  H   UNL     1     169.155  29.054 580.550  1.00  0.00     0.293 HD
ENDBRANCH   8  28
BRANCH  13  30
ATOM     30  N   UNL     1     171.770  25.444 582.867  1.00  0.00    -0.379 N 
ATOM     31  H   UNL     1     171.822  26.344 582.414  1.00  0.00     0.160 HD
BRANCH  30  32
ATOM     32  C   UNL     1     172.955  25.114 583.685  1.00  0.00     0.174 C 
BRANCH  32  33
ATOM     33  C   UNL     1     174.075  24.573 582.874  1.00  0.00     0.281 C 
BRANCH  33  34
ATOM     34  N   UNL     1     174.330  25.277 581.656  1.00  0.00    -0.343 N 
ATOM     35  H   UNL     1     174.988  24.780 581.014  1.00  0.00     0.346 HD
ATOM     36  H   UNL     1     173.422  25.348 581.133  1.00  0.00     0.346 HD
BRANCH  34  37
ATOM     37  C   UNL     1     174.801  26.627 581.848  1.00  0.00     0.289 C 
BRANCH  37  38
ATOM     38  C   UNL     1     175.289  27.252 580.561  1.00  0.00     0.217 C 
BRANCH  38  39
ATOM     39  O   UNL     1     175.101  26.349 579.529  1.00  0.00    -0.391 OA
ATOM     40  H   UNL     1     174.566  25.589 579.901  1.00  0.00     0.210 HD
ENDBRANCH  38  39
ENDBRANCH  37  38
ENDBRANCH  34  37
ENDBRANCH  33  34
ENDBRANCH  32  33
ENDBRANCH  30  32
ENDBRANCH  13  30
TORSDOF 15
ENDMDL
MODEL 3
REMARK VINA RESULT:      -3.4      2.424      3.732
REMARK SMILES O=C1c2c([O-])ccc(O)c2C(=O)c2c(NCC[NH2+]CCO)ccc(NCCNCCO)c21
REMARK SMILES IDX 1 1 2 2 3 3 4 4 5 5 6 6 7 7 8 8 10 9 11 10 12 11 13 12 14 13
REMARK SMILES IDX 22 14 23 15 24 16 32 17 25 18 26 20 27 21 28 22 29 24 30 25
REMARK SMILES IDX 31 26 9 28 15 30 16 32 17 33 18 34 19 37 20 38 21 39
REMARK H PARENT 25 19 28 23 31 27 9 29 15 31 18 35 18 36 21 40
ROOT
ATOM      1  O   UNL     1     168.043  25.296 582.750  1.00  0.00    -0.288 OA
ATOM      2  C   UNL     1     167.019  24.699 582.338  1.00  0.00     0.196 C 
ATOM      3  C   UNL     1     165.932  25.510 581.742  1.00  0.00     0.030 A 
ATOM      4  C   UNL     1     166.114  26.878 581.675  1.00  0.00    -0.097 A 
ATOM      5  O   UNL     1     167.292  27.438 582.160  1.00  0.00    -0.872 OA
ATOM      6  C   UNL     1     165.118  27.653 581.123  1.00  0.00    -0.004 A 
ATOM      7  C   UNL     1     163.971  27.076 580.654  1.00  0.00     0.046 A 
ATOM      8  C   UNL     1     163.768  25.715 580.711  1.00  0.00     0.127 A 
ATOM      9  C   UNL     1     164.785  24.941 581.271  1.00  0.00     0.075 A 
ATOM     10  C   UNL     1     164.615  23.486 581.355  1.00  0.00     0.200 C 
ATOM     11  O   UNL     1     163.531  23.050 580.898  1.00  0.00    -0.288 OA
ATOM     12  C   UNL     1     165.669  22.667 581.937  1.00  0.00     0.059 A 
ATOM     13  C   UNL     1     165.457  21.318 581.991  1.00  0.00     0.046 A 
ATOM     14  C   UNL     1     166.499  20.559 582.564  1.00  0.00     0.028 A 
ATOM     15  C   UNL     1     167.638  21.136 583.029  1.00  0.00     0.028 A 
ATOM     16  C   UNL     1     167.857  22.523 582.974  1.00  0.00     0.046 A 
ATOM     17  C   UNL     1     166.855  23.276 582.420  1.00  0.00     0.059 A 
ENDROOT
BRANCH  16  18
ATOM     18  N   UNL     1     169.105  23.015 583.458  1.00  0.00    -0.383 N 
ATOM     19  H   UNL     1     169.157  23.738 584.162  1.00  0.00     0.160 HD
BRANCH  18  20
ATOM     20  C   UNL     1     170.373  22.510 582.965  1.00  0.00     0.128 C 
BRANCH  20  21
ATOM     21  C   UNL     1     171.182  23.496 582.201  1.00  0.00     0.102 C 
BRANCH  21  22
ATOM     22  N   UNL     1     171.044  24.852 582.749  1.00  0.00    -0.313 NA
ATOM     23  H   UNL     1     170.108  25.201 582.431  1.00  0.00     0.122 HD
BRANCH  22  24
ATOM     24  C   UNL     1     172.036  25.677 582.076  1.00  0.00     0.109 C 
BRANCH  24  25
ATOM     25  C   UNL     1     171.380  26.749 581.239  1.00  0.00     0.171 C 
BRANCH  25  26
ATOM     26  O   UNL     1     169.991  26.684 581.320  1.00  0.00    -0.395 OA
ATOM     27  H   UNL     1     169.629  27.498 580.872  1.00  0.00     0.210 HD
ENDBRANCH  25  26
ENDBRANCH  24  25
ENDBRANCH  22  24
ENDBRANCH  21  22
ENDBRANCH  20  21
ENDBRANCH  18  20
ENDBRANCH  16  18
BRANCH   8  28
ATOM     28  O   UNL     1     162.592  25.128 580.229  1.00  0.00    -0.507 OA
ATOM     29  H   UNL     1     162.416  25.028 579.228  1.00  0.00     0.293 HD
ENDBRANCH   8  28
BRANCH  13  30
ATOM     30  N   UNL     1     164.311  20.635 581.534  1.00  0.00    -0.379 N 
ATOM     31  H   UNL     1     163.877  20.750 580.630  1.00  0.00     0.160 HD
BRANCH  30  32
ATOM     32  C   UNL     1     163.633  19.652 582.403  1.00  0.00     0.174 C 
BRANCH  32  33
ATOM     33  C   UNL     1     162.269  19.312 581.924  1.00  0.00     0.281 C 
BRANCH  33  34
ATOM     34  N   UNL     1     161.696  18.146 582.521  1.00  0.00    -0.343 N 
ATOM     35  H   UNL     1     161.506  18.248 583.544  1.00  0.00     0.346 HD
ATOM     36  H   UNL     1     160.760  17.987 582.073  1.00  0.00     0.346 HD
BRANCH  34  37
ATOM     37  C   UNL     1     162.464  16.943 582.310  1.00  0.00     0.289 C 
BRANCH  37  38
ATOM     38  C   UNL     1     161.955  16.137 581.136  1.00  0.00     0.217 C 
BRANCH  38  39
ATOM     39  O   UNL     1     162.971  15.310 580.691  1.00  0.00    -0.391 OA
ATOM     40  H   UNL     1     163.344  15.727 579.861  1.00  0.00     0.210 HD
ENDBRANCH  38  39
ENDBRANCH  37  38
ENDBRANCH  34  37
ENDBRANCH  33  34
ENDBRANCH  32  33
ENDBRANCH  30  32
ENDBRANCH  13  30
TORSDOF 15
ENDMDL
MODEL 4
REMARK VINA RESULT:      -3.3      5.779      8.625
REMARK SMILES O=C1c2c([O-])ccc(O)c2C(=O)c2c(NCC[NH2+]CCO)ccc(NCCNCCO)c21
REMARK SMILES IDX 1 1 2 2 3 3 4 4 5 5 6 6 7 7 8 8 10 9 11 10 12 11 13 12 14 13
REMARK SMILES IDX 22 14 23 15 24 16 32 17 25 18 26 20 27 21 28 22 29 24 30 25
REMARK SMILES IDX 31 26 9 28 15 30 16 32 17 33 18 34 19 37 20 38 21 39
REMARK H PARENT 25 19 28 23 31 27 9 29 15 31 18 35 18 36 21 40
ROOT
ATOM      1  O   UNL     1     176.194  26.979 581.220  1.00  0.00    -0.288 OA
ATOM      2  C   UNL     1     174.942  26.905 581.172  1.00  0.00     0.196 C 
ATOM      3  C   UNL     1     174.245  27.580 580.053  1.00  0.00     0.030 A 
ATOM      4  C   UNL     1     175.020  28.251 579.125  1.00  0.00    -0.097 A 
ATOM      5  O   UNL     1     176.403  28.269 579.272  1.00  0.00    -0.872 OA
ATOM      6  C   UNL     1     174.395  28.885 578.074  1.00  0.00    -0.004 A 
ATOM      7  C   UNL     1     173.033  28.851 577.955  1.00  0.00     0.046 A 
ATOM      8  C   UNL     1     172.242  28.189 578.868  1.00  0.00     0.127 A 
ATOM      9  C   UNL     1     172.887  27.550 579.927  1.00  0.00     0.075 A 
ATOM     10  C   UNL     1     172.087  26.831 580.925  1.00  0.00     0.200 C 
ATOM     11  O   UNL     1     170.848  26.855 580.731  1.00  0.00    -0.288 OA
ATOM     12  C   UNL     1     172.748  26.160 582.035  1.00  0.00     0.059 A 
ATOM     13  C   UNL     1     171.953  25.509 582.937  1.00  0.00     0.046 A 
ATOM     14  C   UNL     1     172.630  24.873 583.998  1.00  0.00     0.028 A 
ATOM     15  C   UNL     1     173.984  24.908 584.114  1.00  0.00     0.028 A 
ATOM     16  C   UNL     1     174.801  25.578 583.188  1.00  0.00     0.046 A 
ATOM     17  C   UNL     1     174.161  26.201 582.149  1.00  0.00     0.059 A 
ENDROOT
BRANCH  16  18
ATOM     18  N   UNL     1     176.212  25.519 583.388  1.00  0.00    -0.383 N 
ATOM     19  H   UNL     1     176.862  25.524 582.614  1.00  0.00     0.160 HD
BRANCH  18  20
ATOM     20  C   UNL     1     176.798  25.444 584.714  1.00  0.00     0.128 C 
BRANCH  20  21
ATOM     21  C   UNL     1     177.646  24.247 584.954  1.00  0.00     0.102 C 
BRANCH  21  22
ATOM     22  N   UNL     1     177.910  23.511 583.711  1.00  0.00    -0.313 NA
ATOM     23  H   UNL     1     177.136  23.767 583.050  1.00  0.00     0.122 HD
BRANCH  22  24
ATOM     24  C   UNL     1     177.733  22.099 584.016  1.00  0.00     0.109 C 
BRANCH  24  25
ATOM     25  C   UNL     1     176.571  21.884 584.955  1.00  0.00     0.171 C 
BRANCH  25  26
ATOM     26  O   UNL     1     176.261  20.532 585.087  1.00  0.00    -0.395 OA
ATOM     27  H   UNL     1     175.979  20.382 586.031  1.00  0.00     0.210 HD
ENDBRANCH  25  26
ENDBRANCH  24  25
ENDBRANCH  22  24
ENDBRANCH  21  22
ENDBRANCH  20  21
ENDBRANCH  18  20
ENDBRANCH  16  18
BRANCH   8  28
ATOM     28  O   UNL     1     170.848  28.156 578.742  1.00  0.00    -0.507 OA
ATOM     29  H   UNL     1     170.235  28.323 579.542  1.00  0.00     0.293 HD
ENDBRANCH   8  28
BRANCH  13  30
ATOM     30  N   UNL     1     170.547  25.419 582.896  1.00  0.00    -0.379 N 
ATOM     31  H   UNL     1     169.905  26.196 582.932  1.00  0.00     0.160 HD
BRANCH  30  32
ATOM     32  C   UNL     1     169.888  24.101 582.794  1.00  0.00     0.174 C 
BRANCH  32  33
ATOM     33  C   UNL     1     168.759  23.952 583.747  1.00  0.00     0.281 C 
BRANCH  33  34
ATOM     34  N   UNL     1     167.781  22.978 583.375  1.00  0.00    -0.343 N 
ATOM     35  H   UNL     1     167.633  22.235 584.095  1.00  0.00     0.346 HD
ATOM     36  H   UNL     1     166.859  23.471 583.282  1.00  0.00     0.346 HD
BRANCH  34  37
ATOM     37  C   UNL     1     168.040  22.346 582.104  1.00  0.00     0.289 C 
BRANCH  37  38
ATOM     38  C   UNL     1     166.944  22.614 581.097  1.00  0.00     0.217 C 
BRANCH  38  39
ATOM     39  O   UNL     1     166.472  21.402 580.622  1.00  0.00    -0.391 OA
ATOM     40  H   UNL     1     166.005  20.953 581.385  1.00  0.00     0.210 HD
ENDBRANCH  38  39
ENDBRANCH  37  38
ENDBRANCH  34  37
ENDBRANCH  33  34
ENDBRANCH  32  33
ENDBRANCH  30  32
ENDBRANCH  13  30
TORSDOF 15
ENDMDL
MODEL 5
REMARK VINA RESULT:      -3.2      2.409      7.238
REMARK SMILES O=C1c2c([O-])ccc(O)c2C(=O)c2c(NCC[NH2+]CCO)ccc(NCCNCCO)c21
REMARK SMILES IDX 1 1 2 2 3 3 4 4 5 5 6 6 7 7 8 8 10 9 11 10 12 11 13 12 14 13
REMARK SMILES IDX 22 14 23 15 24 16 32 17 25 18 26 20 27 21 28 22 29 24 30 25
REMARK SMILES IDX 31 26 9 28 15 30 16 32 17 33 18 34 19 37 20 38 21 39
REMARK H PARENT 25 19 28 23 31 27 9 29 15 31 18 35 18 36 21 40
ROOT
ATOM      1  O   UNL     1     163.253  22.934 581.013  1.00  0.00    -0.288 OA
ATOM      2  C   UNL     1     164.427  23.343 581.186  1.00  0.00     0.196 C 
ATOM      3  C   UNL     1     164.684  24.797 581.067  1.00  0.00     0.030 A 
ATOM      4  C   UNL     1     163.611  25.617 580.773  1.00  0.00    -0.097 A 
ATOM      5  O   UNL     1     162.347  25.058 580.603  1.00  0.00    -0.872 OA
ATOM      6  C   UNL     1     163.824  26.973 580.659  1.00  0.00    -0.004 A 
ATOM      7  C   UNL     1     165.075  27.495 580.832  1.00  0.00     0.046 A 
ATOM      8  C   UNL     1     166.159  26.696 581.125  1.00  0.00     0.127 A 
ATOM      9  C   UNL     1     165.930  25.325 581.238  1.00  0.00     0.075 A 
ATOM     10  C   UNL     1     167.053  24.433 581.550  1.00  0.00     0.200 C 
ATOM     11  O   UNL     1     168.161  25.004 581.691  1.00  0.00    -0.288 OA
ATOM     12  C   UNL     1     166.827  23.000 581.671  1.00  0.00     0.059 A 
ATOM     13  C   UNL     1     167.910  22.217 581.960  1.00  0.00     0.046 A 
ATOM     14  C   UNL     1     167.651  20.835 582.067  1.00  0.00     0.028 A 
ATOM     15  C   UNL     1     166.405  20.319 581.895  1.00  0.00     0.028 A 
ATOM     16  C   UNL     1     165.292  21.123 581.598  1.00  0.00     0.046 A 
ATOM     17  C   UNL     1     165.525  22.470 581.490  1.00  0.00     0.059 A 
ENDROOT
BRANCH  16  18
ATOM     18  N   UNL     1     164.025  20.480 581.475  1.00  0.00    -0.383 N 
ATOM     19  H   UNL     1     163.583  20.339 580.577  1.00  0.00     0.160 HD
BRANCH  18  20
ATOM     20  C   UNL     1     163.294  19.995 582.631  1.00  0.00     0.128 C 
BRANCH  20  21
ATOM     21  C   UNL     1     163.366  18.525 582.842  1.00  0.00     0.102 C 
BRANCH  21  22
ATOM     22  N   UNL     1     164.215  18.181 583.990  1.00  0.00    -0.313 NA
ATOM     23  H   UNL     1     165.198  18.409 583.705  1.00  0.00     0.122 HD
BRANCH  22  24
ATOM     24  C   UNL     1     164.157  16.734 584.134  1.00  0.00     0.109 C 
BRANCH  24  25
ATOM     25  C   UNL     1     163.138  16.131 583.198  1.00  0.00     0.171 C 
BRANCH  25  26
ATOM     26  O   UNL     1     162.338  15.193 583.846  1.00  0.00    -0.395 OA
ATOM     27  H   UNL     1     162.655  14.289 583.568  1.00  0.00     0.210 HD
ENDBRANCH  25  26
ENDBRANCH  24  25
ENDBRANCH  22  24
ENDBRANCH  21  22
ENDBRANCH  20  21
ENDBRANCH  18  20
ENDBRANCH  16  18
BRANCH   8  28
ATOM     28  O   UNL     1     167.440  27.234 581.302  1.00  0.00    -0.507 OA
ATOM     29  H   UNL     1     167.618  27.980 581.977  1.00  0.00     0.293 HD
ENDBRANCH   8  28
BRANCH  13  30
ATOM     30  N   UNL     1     169.233  22.663 582.155  1.00  0.00    -0.379 N 
ATOM     31  H   UNL     1     169.794  23.159 581.479  1.00  0.00     0.160 HD
BRANCH  30  32
ATOM     32  C   UNL     1     169.921  22.414 583.438  1.00  0.00     0.174 C 
BRANCH  32  33
ATOM     33  C   UNL     1     170.946  23.443 583.744  1.00  0.00     0.281 C 
BRANCH  33  34
ATOM     34  N   UNL     1     170.771  24.688 583.063  1.00  0.00    -0.343 N 
ATOM     35  H   UNL     1     169.952  24.699 582.413  1.00  0.00     0.346 HD
ATOM     36  H   UNL     1     170.571  25.422 583.786  1.00  0.00     0.346 HD
BRANCH  34  37
ATOM     37  C   UNL     1     171.940  25.129 582.342  1.00  0.00     0.289 C 
BRANCH  37  38
ATOM     38  C   UNL     1     171.658  26.335 581.475  1.00  0.00     0.217 C 
BRANCH  38  39
ATOM     39  O   UNL     1     170.346  26.728 581.675  1.00  0.00    -0.391 OA
ATOM     40  H   UNL     1     170.347  27.362 582.449  1.00  0.00     0.210 HD
ENDBRANCH  38  39
ENDBRANCH  37  38
ENDBRANCH  34  37
ENDBRANCH  33  34
ENDBRANCH  32  33
ENDBRANCH  30  32
ENDBRANCH  13  30
TORSDOF 15
ENDMDL
MODEL 6
REMARK VINA RESULT:      -3.1      3.317      5.507
REMARK SMILES O=C1c2c([O-])ccc(O)c2C(=O)c2c(NCC[NH2+]CCO)ccc(NCCNCCO)c21
REMARK SMILES IDX 1 1 2 2 3 3 4 4 5 5 6 6 7 7 8 8 10 9 11 10 12 11 13 12 14 13
REMARK SMILES IDX 22 14 23 15 24 16 32 17 25 18 26 20 27 21 28 22 29 24 30 25
REMARK SMILES IDX 31 26 9 28 15 30 16 32 17 33 18 34 19 37 20 38 21 39
REMARK H PARENT 25 19 28 23 31 27 9 29 15 31 18 35 18 36 21 40
ROOT
ATOM      1  O   UNL     1     170.610  24.148 583.890  1.00  0.00    -0.288 OA
ATOM      2  C   UNL     1     169.595  24.222 583.156  1.00  0.00     0.196 C 
ATOM      3  C   UNL     1     168.954  22.958 582.722  1.00  0.00     0.030 A 
ATOM      4  C   UNL     1     169.515  21.772 583.155  1.00  0.00    -0.097 A 
ATOM      5  O   UNL     1     170.643  21.803 583.970  1.00  0.00    -0.872 OA
ATOM      6  C   UNL     1     168.936  20.584 582.766  1.00  0.00    -0.004 A 
ATOM      7  C   UNL     1     167.828  20.582 581.966  1.00  0.00     0.046 A 
ATOM      8  C   UNL     1     167.253  21.753 581.523  1.00  0.00     0.127 A 
ATOM      9  C   UNL     1     167.848  22.949 581.924  1.00  0.00     0.075 A 
ATOM     10  C   UNL     1     167.271  24.222 581.477  1.00  0.00     0.200 C 
ATOM     11  O   UNL     1     166.257  24.120 580.747  1.00  0.00    -0.288 OA
ATOM     12  C   UNL     1     167.883  25.478 581.890  1.00  0.00     0.059 A 
ATOM     13  C   UNL     1     167.306  26.633 581.442  1.00  0.00     0.046 A 
ATOM     14  C   UNL     1     167.928  27.827 581.860  1.00  0.00     0.028 A 
ATOM     15  C   UNL     1     169.029  27.825 582.657  1.00  0.00     0.028 A 
ATOM     16  C   UNL     1     169.624  26.639 583.117  1.00  0.00     0.046 A 
ATOM     17  C   UNL     1     169.032  25.468 582.720  1.00  0.00     0.059 A 
ENDROOT
BRANCH  16  18
ATOM     18  N   UNL     1     170.755  26.756 583.978  1.00  0.00    -0.383 N 
ATOM     19  H   UNL     1     170.689  26.592 584.973  1.00  0.00     0.160 HD
BRANCH  18  20
ATOM     20  C   UNL     1     172.067  27.123 583.476  1.00  0.00     0.128 C 
BRANCH  20  21
ATOM     21  C   UNL     1     172.319  26.748 582.060  1.00  0.00     0.102 C 
BRANCH  21  22
ATOM     22  N   UNL     1     173.402  25.763 581.944  1.00  0.00    -0.313 NA
ATOM     23  H   UNL     1     173.693  25.532 582.925  1.00  0.00     0.122 HD
BRANCH  22  24
ATOM     24  C   UNL     1     174.531  26.452 581.337  1.00  0.00     0.109 C 
BRANCH  24  25
ATOM     25  C   UNL     1     175.605  26.746 582.357  1.00  0.00     0.171 C 
BRANCH  25  26
ATOM     26  O   UNL     1     176.024  28.073 582.294  1.00  0.00    -0.395 OA
ATOM     27  H   UNL     1     176.180  28.381 583.229  1.00  0.00     0.210 HD
ENDBRANCH  25  26
ENDBRANCH  24  25
ENDBRANCH  22  24
ENDBRANCH  21  22
ENDBRANCH  20  21
ENDBRANCH  18  20
ENDBRANCH  16  18
BRANCH   8  28
ATOM     28  O   UNL     1     166.117  21.748 580.703  1.00  0.00    -0.507 OA
ATOM     29  H   UNL     1     166.189  21.623 579.691  1.00  0.00     0.293 HD
ENDBRANCH   8  28
BRANCH  13  30
ATOM     30  N   UNL     1     166.167  26.730 580.617  1.00  0.00    -0.379 N 
ATOM     31  H   UNL     1     166.007  26.210 579.767  1.00  0.00     0.160 HD
BRANCH  30  32
ATOM     32  C   UNL     1     165.072  27.658 580.966  1.00  0.00     0.174 C 
BRANCH  32  33
ATOM     33  C   UNL     1     164.178  27.115 582.019  1.00  0.00     0.281 C 
BRANCH  33  34
ATOM     34  N   UNL     1     163.980  25.699 581.969  1.00  0.00    -0.343 N 
ATOM     35  H   UNL     1     164.552  25.222 581.236  1.00  0.00     0.346 HD
ATOM     36  H   UNL     1     164.303  25.300 582.885  1.00  0.00     0.346 HD
BRANCH  34  37
ATOM     37  C   UNL     1     162.601  25.307 581.812  1.00  0.00     0.289 C 
BRANCH  37  38
ATOM     38  C   UNL     1     162.435  24.189 580.807  1.00  0.00     0.217 C 
BRANCH  38  39
ATOM     39  O   UNL     1     163.484  24.244 579.905  1.00  0.00    -0.391 OA
ATOM     40  H   UNL     1     163.648  23.307 579.592  1.00  0.00     0.210 HD
ENDBRANCH  38  39
ENDBRANCH  37  38
ENDBRANCH  34  37
ENDBRANCH  33  34
ENDBRANCH  32  33
ENDBRANCH  30  32
ENDBRANCH  13  30
TORSDOF 15
ENDMDL
MODEL 7
REMARK VINA RESULT:      -3.1      3.505      5.759
REMARK SMILES O=C1c2c([O-])ccc(O)c2C(=O)c2c(NCC[NH2+]CCO)ccc(NCCNCCO)c21
REMARK SMILES IDX 1 1 2 2 3 3 4 4 5 5 6 6 7 7 8 8 10 9 11 10 12 11 13 12 14 13
REMARK SMILES IDX 22 14 23 15 24 16 32 17 25 18 26 20 27 21 28 22 29 24 30 25
REMARK SMILES IDX 31 26 9 28 15 30 16 32 17 33 18 34 19 37 20 38 21 39
REMARK H PARENT 25 19 28 23 31 27 9 29 15 31 18 35 18 36 21 40
ROOT
ATOM      1  O   UNL     1     170.197  23.298 583.627  1.00  0.00    -0.288 OA
ATOM      2  C   UNL     1     169.273  23.734 582.898  1.00  0.00     0.196 C 
ATOM      3  C   UNL     1     168.350  22.753 582.281  1.00  0.00     0.030 A 
ATOM      4  C   UNL     1     168.563  21.415 582.548  1.00  0.00    -0.097 A 
ATOM      5  O   UNL     1     169.618  21.039 583.373  1.00  0.00    -0.872 OA
ATOM      6  C   UNL     1     167.717  20.484 581.986  1.00  0.00    -0.004 A 
ATOM      7  C   UNL     1     166.687  20.881 581.179  1.00  0.00     0.046 A 
ATOM      8  C   UNL     1     166.457  22.210 580.899  1.00  0.00     0.127 A 
ATOM      9  C   UNL     1     167.321  23.142 581.475  1.00  0.00     0.075 A 
ATOM     10  C   UNL     1     167.116  24.571 581.206  1.00  0.00     0.200 C 
ATOM     11  O   UNL     1     166.147  24.837 580.456  1.00  0.00    -0.288 OA
ATOM     12  C   UNL     1     168.010  25.554 581.801  1.00  0.00     0.059 A 
ATOM     13  C   UNL     1     167.774  26.870 581.515  1.00  0.00     0.046 A 
ATOM     14  C   UNL     1     168.662  27.791 582.107  1.00  0.00     0.028 A 
ATOM     15  C   UNL     1     169.684  27.393 582.910  1.00  0.00     0.028 A 
ATOM     16  C   UNL     1     169.928  26.041 583.204  1.00  0.00     0.046 A 
ATOM     17  C   UNL     1     169.074  25.131 582.637  1.00  0.00     0.059 A 
ENDROOT
BRANCH  16  18
ATOM     18  N   UNL     1     171.006  25.740 584.087  1.00  0.00    -0.383 N 
ATOM     19  H   UNL     1     170.850  25.380 585.018  1.00  0.00     0.160 HD
BRANCH  18  20
ATOM     20  C   UNL     1     172.392  25.939 583.702  1.00  0.00     0.128 C 
BRANCH  20  21
ATOM     21  C   UNL     1     173.156  26.864 584.580  1.00  0.00     0.102 C 
BRANCH  21  22
ATOM     22  N   UNL     1     174.531  26.396 584.797  1.00  0.00    -0.313 NA
ATOM     23  H   UNL     1     174.692  26.432 585.833  1.00  0.00     0.122 HD
BRANCH  22  24
ATOM     24  C   UNL     1     175.410  27.397 584.214  1.00  0.00     0.109 C 
BRANCH  24  25
ATOM     25  C   UNL     1     175.913  26.962 582.858  1.00  0.00     0.171 C 
BRANCH  25  26
ATOM     26  O   UNL     1     176.014  25.575 582.770  1.00  0.00    -0.395 OA
ATOM     27  H   UNL     1     176.955  25.360 582.520  1.00  0.00     0.210 HD
ENDBRANCH  25  26
ENDBRANCH  24  25
ENDBRANCH  22  24
ENDBRANCH  21  22
ENDBRANCH  20  21
ENDBRANCH  18  20
ENDBRANCH  16  18
BRANCH   8  28
ATOM     28  O   UNL     1     165.401  22.613 580.072  1.00  0.00    -0.507 OA
ATOM     29  H   UNL     1     165.530  23.321 579.347  1.00  0.00     0.293 HD
ENDBRANCH   8  28
BRANCH  13  30
ATOM     30  N   UNL     1     166.742  27.373 580.697  1.00  0.00    -0.379 N 
ATOM     31  H   UNL     1     166.567  27.110 579.738  1.00  0.00     0.160 HD
BRANCH  30  32
ATOM     32  C   UNL     1     165.796  28.377 581.225  1.00  0.00     0.174 C 
BRANCH  32  33
ATOM     33  C   UNL     1     164.385  27.922 581.159  1.00  0.00     0.281 C 
BRANCH  33  34
ATOM     34  N   UNL     1     164.130  26.660 581.782  1.00  0.00    -0.343 N 
ATOM     35  H   UNL     1     164.819  25.918 581.523  1.00  0.00     0.346 HD
ATOM     36  H   UNL     1     164.230  26.790 582.819  1.00  0.00     0.346 HD
BRANCH  34  37
ATOM     37  C   UNL     1     162.798  26.154 581.556  1.00  0.00     0.289 C 
BRANCH  37  38
ATOM     38  C   UNL     1     162.607  25.657 580.141  1.00  0.00     0.217 C 
BRANCH  38  39
ATOM     39  O   UNL     1     163.279  24.456 579.998  1.00  0.00    -0.391 OA
ATOM     40  H   UNL     1     162.588  23.731 580.017  1.00  0.00     0.210 HD
ENDBRANCH  38  39
ENDBRANCH  37  38
ENDBRANCH  34  37
ENDBRANCH  33  34
ENDBRANCH  32  33
ENDBRANCH  30  32
ENDBRANCH  13  30
TORSDOF 15
ENDMDL
MODEL 8
REMARK VINA RESULT:      -3.0      2.011      6.640
REMARK SMILES O=C1c2c([O-])ccc(O)c2C(=O)c2c(NCC[NH2+]CCO)ccc(NCCNCCO)c21
REMARK SMILES IDX 1 1 2 2 3 3 4 4 5 5 6 6 7 7 8 8 10 9 11 10 12 11 13 12 14 13
REMARK SMILES IDX 22 14 23 15 24 16 32 17 25 18 26 20 27 21 28 22 29 24 30 25
REMARK SMILES IDX 31 26 9 28 15 30 16 32 17 33 18 34 19 37 20 38 21 39
REMARK H PARENT 25 19 28 23 31 27 9 29 15 31 18 35 18 36 21 40
ROOT
ATOM      1  O   UNL     1     164.656  22.497 580.545  1.00  0.00    -0.288 OA
ATOM      2  C   UNL     1     165.096  23.625 580.878  1.00  0.00     0.196 C 
ATOM      3  C   UNL     1     164.226  24.805 580.659  1.00  0.00     0.030 A 
ATOM      4  C   UNL     1     162.979  24.589 580.103  1.00  0.00    -0.097 A 
ATOM      5  O   UNL     1     162.590  23.295 579.773  1.00  0.00    -0.872 OA
ATOM      6  C   UNL     1     162.152  25.670 579.892  1.00  0.00    -0.004 A 
ATOM      7  C   UNL     1     162.560  26.931 580.226  1.00  0.00     0.046 A 
ATOM      8  C   UNL     1     163.798  27.168 580.781  1.00  0.00     0.127 A 
ATOM      9  C   UNL     1     164.626  26.066 580.990  1.00  0.00     0.075 A 
ATOM     10  C   UNL     1     165.955  26.268 581.579  1.00  0.00     0.200 C 
ATOM     11  O   UNL     1     166.240  27.459 581.853  1.00  0.00    -0.288 OA
ATOM     12  C   UNL     1     166.829  25.125 581.803  1.00  0.00     0.059 A 
ATOM     13  C   UNL     1     168.056  25.373 582.352  1.00  0.00     0.046 A 
ATOM     14  C   UNL     1     168.874  24.242 582.551  1.00  0.00     0.028 A 
ATOM     15  C   UNL     1     168.465  22.989 582.219  1.00  0.00     0.028 A 
ATOM     16  C   UNL     1     167.204  22.733 581.654  1.00  0.00     0.046 A 
ATOM     17  C   UNL     1     166.395  23.822 581.454  1.00  0.00     0.059 A 
ENDROOT
BRANCH  16  18
ATOM     18  N   UNL     1     166.865  21.376 581.378  1.00  0.00    -0.383 N 
ATOM     19  H   UNL     1     166.703  21.047 580.437  1.00  0.00     0.160 HD
BRANCH  18  20
ATOM     20  C   UNL     1     166.729  20.389 582.434  1.00  0.00     0.128 C 
BRANCH  20  21
ATOM     21  C   UNL     1     165.643  20.667 583.410  1.00  0.00     0.102 C 
BRANCH  21  22
ATOM     22  N   UNL     1     164.553  19.687 583.304  1.00  0.00    -0.313 NA
ATOM     23  H   UNL     1     164.546  19.366 582.305  1.00  0.00     0.122 HD
BRANCH  22  24
ATOM     24  C   UNL     1     163.312  20.420 583.504  1.00  0.00     0.109 C 
BRANCH  24  25
ATOM     25  C   UNL     1     162.318  20.122 582.407  1.00  0.00     0.171 C 
BRANCH  25  26
ATOM     26  O   UNL     1     162.650  20.776 581.223  1.00  0.00    -0.395 OA
ATOM     27  H   UNL     1     163.304  20.200 580.738  1.00  0.00     0.210 HD
ENDBRANCH  25  26
ENDBRANCH  24  25
ENDBRANCH  22  24
ENDBRANCH  21  22
ENDBRANCH  20  21
ENDBRANCH  18  20
ENDBRANCH  16  18
BRANCH   8  28
ATOM     28  O   UNL     1     164.213  28.462 581.123  1.00  0.00    -0.507 OA
ATOM     29  H   UNL     1     163.726  29.008 581.835  1.00  0.00     0.293 HD
ENDBRANCH   8  28
BRANCH  13  30
ATOM     30  N   UNL     1     168.562  26.634 582.728  1.00  0.00    -0.379 N 
ATOM     31  H   UNL     1     168.087  27.312 583.305  1.00  0.00     0.160 HD
BRANCH  30  32
ATOM     32  C   UNL     1     169.899  27.067 582.271  1.00  0.00     0.174 C 
BRANCH  32  33
ATOM     33  C   UNL     1     170.845  27.280 583.395  1.00  0.00     0.281 C 
BRANCH  33  34
ATOM     34  N   UNL     1     172.205  26.942 583.109  1.00  0.00    -0.343 N 
ATOM     35  H   UNL     1     172.798  27.766 582.860  1.00  0.00     0.346 HD
ATOM     36  H   UNL     1     172.625  26.544 583.985  1.00  0.00     0.346 HD
BRANCH  34  37
ATOM     37  C   UNL     1     172.354  25.937 582.085  1.00  0.00     0.289 C 
BRANCH  37  38
ATOM     38  C   UNL     1     173.209  24.777 582.542  1.00  0.00     0.217 C 
BRANCH  38  39
ATOM     39  O   UNL     1     174.396  24.791 581.829  1.00  0.00    -0.391 OA
ATOM     40  H   UNL     1     175.094  24.383 582.419  1.00  0.00     0.210 HD
ENDBRANCH  38  39
ENDBRANCH  37  38
ENDBRANCH  34  37
ENDBRANCH  33  34
ENDBRANCH  32  33
ENDBRANCH  30  32
ENDBRANCH  13  30
TORSDOF 15
ENDMDL
MODEL 9
REMARK VINA RESULT:      -2.9     12.037     14.791
REMARK SMILES O=C1c2c([O-])ccc(O)c2C(=O)c2c(NCC[NH2+]CCO)ccc(NCCNCCO)c21
REMARK SMILES IDX 1 1 2 2 3 3 4 4 5 5 6 6 7 7 8 8 10 9 11 10 12 11 13 12 14 13
REMARK SMILES IDX 22 14 23 15 24 16 32 17 25 18 26 20 27 21 28 22 29 24 30 25
REMARK SMILES IDX 31 26 9 28 15 30 16 32 17 33 18 34 19 37 20 38 21 39
REMARK H PARENT 25 19 28 23 31 27 9 29 15 31 18 35 18 36 21 40
ROOT
ATOM      1  O   UNL     1     182.903  24.423 579.484  1.00  0.00    -0.288 OA
ATOM      2  C   UNL     1     182.226  23.946 580.428  1.00  0.00     0.196 C 
ATOM      3  C   UNL     1     182.165  22.472 580.567  1.00  0.00     0.030 A 
ATOM      4  C   UNL     1     182.861  21.711 579.648  1.00  0.00    -0.097 A 
ATOM      5  O   UNL     1     183.583  22.343 578.640  1.00  0.00    -0.872 OA
ATOM      6  C   UNL     1     182.821  20.339 579.758  1.00  0.00    -0.004 A 
ATOM      7  C   UNL     1     182.104  19.744 580.758  1.00  0.00     0.046 A 
ATOM      8  C   UNL     1     181.403  20.484 581.685  1.00  0.00     0.127 A 
ATOM      9  C   UNL     1     181.452  21.872 581.563  1.00  0.00     0.075 A 
ATOM     10  C   UNL     1     180.721  22.703 582.527  1.00  0.00     0.200 C 
ATOM     11  O   UNL     1     180.093  22.068 583.408  1.00  0.00    -0.288 OA
ATOM     12  C   UNL     1     180.765  24.154 582.410  1.00  0.00     0.059 A 
ATOM     13  C   UNL     1     180.063  24.878 583.334  1.00  0.00     0.046 A 
ATOM     14  C   UNL     1     180.128  26.279 583.187  1.00  0.00     0.028 A 
ATOM     15  C   UNL     1     180.843  26.867 582.191  1.00  0.00     0.028 A 
ATOM     16  C   UNL     1     181.563  26.124 581.242  1.00  0.00     0.046 A 
ATOM     17  C   UNL     1     181.512  24.760 581.369  1.00  0.00     0.059 A 
ENDROOT
BRANCH  16  18
ATOM     18  N   UNL     1     182.308  26.846 580.263  1.00  0.00    -0.383 N 
ATOM     19  H   UNL     1     183.315  26.790 580.209  1.00  0.00     0.160 HD
BRANCH  18  20
ATOM     20  C   UNL     1     181.662  27.707 579.289  1.00  0.00     0.128 C 
BRANCH  20  21
ATOM     21  C   UNL     1     181.581  27.144 577.915  1.00  0.00     0.102 C 
BRANCH  21  22
ATOM     22  N   UNL     1     180.525  27.790 577.125  1.00  0.00    -0.313 NA
ATOM     23  H   UNL     1     179.760  27.078 577.024  1.00  0.00     0.122 HD
BRANCH  22  24
ATOM     24  C   UNL     1     181.068  27.995 575.791  1.00  0.00     0.109 C 
BRANCH  24  25
ATOM     25  C   UNL     1     180.590  26.928 574.835  1.00  0.00     0.171 C 
BRANCH  25  26
ATOM     26  O   UNL     1     181.394  25.792 574.890  1.00  0.00    -0.395 OA
ATOM     27  H   UNL     1     180.789  25.002 574.946  1.00  0.00     0.210 HD
ENDBRANCH  25  26
ENDBRANCH  24  25
ENDBRANCH  22  24
ENDBRANCH  21  22
ENDBRANCH  20  21
ENDBRANCH  18  20
ENDBRANCH  16  18
BRANCH   8  28
ATOM     28  O   UNL     1     180.669  19.871 582.709  1.00  0.00    -0.507 OA
ATOM     29  H   UNL     1     180.740  18.869 582.891  1.00  0.00     0.293 HD
ENDBRANCH   8  28
BRANCH  13  30
ATOM     30  N   UNL     1     179.298  24.356 584.397  1.00  0.00    -0.379 N 
ATOM     31  H   UNL     1     179.596  23.638 585.041  1.00  0.00     0.160 HD
BRANCH  30  32
ATOM     32  C   UNL     1     177.930  24.855 584.646  1.00  0.00     0.174 C 
BRANCH  32  33
ATOM     33  C   UNL     1     176.894  23.816 584.424  1.00  0.00     0.281 C 
BRANCH  33  34
ATOM     34  N   UNL     1     176.120  23.983 583.233  1.00  0.00    -0.343 N 
ATOM     35  H   UNL     1     176.621  24.503 582.477  1.00  0.00     0.346 HD
ATOM     36  H   UNL     1     175.927  23.028 582.841  1.00  0.00     0.346 HD
BRANCH  34  37
ATOM     37  C   UNL     1     174.837  24.606 583.453  1.00  0.00     0.289 C 
BRANCH  37  38
ATOM     38  C   UNL     1     174.123  24.035 584.657  1.00  0.00     0.217 C 
BRANCH  38  39
ATOM     39  O   UNL     1     172.946  23.442 584.236  1.00  0.00    -0.391 OA
ATOM     40  H   UNL     1     173.110  23.092 583.312  1.00  0.00     0.210 HD
ENDBRANCH  38  39
ENDBRANCH  37  38
ENDBRANCH  34  37
ENDBRANCH  33  34
ENDBRANCH  32  33
ENDBRANCH  30  32
ENDBRANCH  13  30
TORSDOF 15
ENDMDL
