MODEL 1
REMARK VINA RESULT:      -6.9      0.000      0.000
REMARK SMILES O=c1cc(-c2ccccc2)oc2cc(O)cc(O)c12
REMARK SMILES IDX 1 1 2 2 3 3 4 4 11 5 12 6 13 7 14 8 16 9 17 10 19 11 5 12
REMARK SMILES IDX 6 13 10 14 7 15 9 16 8 17 18 18 15 20
REMARK H PARENT 18 19 15 21
ROOT
ATOM      1  O   UNL     1       8.895  47.324   9.944  1.00  0.00    -0.289 OA
ATOM      2  C   UNL     1       7.948  47.910  10.526  1.00  0.00     0.197 A 
ATOM      3  C   UNL     1       6.617  47.482  10.423  1.00  0.00     0.100 A 
ATOM      4  C   UNL     1       5.597  48.139  11.069  1.00  0.00     0.138 A 
ATOM      5  O   UNL     1       5.932  49.185  11.785  1.00  0.00    -0.456 OA
ATOM      6  C   UNL     1       7.156  49.633  11.920  1.00  0.00     0.146 A 
ATOM      7  C   UNL     1       7.446  50.750  12.695  1.00  0.00     0.094 A 
ATOM      8  C   UNL     1       8.717  51.245  12.858  1.00  0.00     0.123 A 
ATOM      9  C   UNL     1       9.767  50.617  12.228  1.00  0.00     0.093 A 
ATOM     10  C   UNL     1       9.521  49.506  11.450  1.00  0.00     0.134 A 
ATOM     11  C   UNL     1       8.219  49.016  11.297  1.00  0.00     0.107 A 
ENDROOT
BRANCH   4  12
ATOM     12  C   UNL     1       4.203  47.699  10.966  1.00  0.00     0.017 A 
ATOM     13  C   UNL     1       3.472  47.215  12.019  1.00  0.00     0.012 A 
ATOM     14  C   UNL     1       3.564  47.768   9.741  1.00  0.00     0.012 A 
ATOM     15  C   UNL     1       2.144  46.807  11.874  1.00  0.00     0.001 A 
ATOM     16  C   UNL     1       2.248  47.371   9.566  1.00  0.00     0.001 A 
ATOM     17  C   UNL     1       1.523  46.884  10.645  1.00  0.00     0.000 A 
ENDBRANCH   4  12
BRANCH  10  18
ATOM     18  O   UNL     1      10.571  48.879  10.822  1.00  0.00    -0.507 OA
ATOM     19  H   UNL     1      10.548  47.889  10.660  1.00  0.00     0.293 HD
ENDBRANCH  10  18
BRANCH   8  20
ATOM     20  O   UNL     1       8.962  52.372  13.647  1.00  0.00    -0.508 OA
ATOM     21  H   UNL     1       8.723  53.309  13.356  1.00  0.00     0.293 HD
ENDBRANCH   8  20
TORSDOF 3
ENDMDL
MODEL 2
REMARK VINA RESULT:      -6.9      0.075      1.085
REMARK SMILES O=c1cc(-c2ccccc2)oc2cc(O)cc(O)c12
REMARK SMILES IDX 1 1 2 2 3 3 4 4 11 5 12 6 13 7 14 8 16 9 17 10 19 11 5 12
REMARK SMILES IDX 6 13 10 14 7 15 9 16 8 17 18 18 15 20
REMARK H PARENT 18 19 15 21
ROOT
ATOM      1  O   UNL     1       8.875  47.290   9.937  1.00  0.00    -0.289 OA
ATOM      2  C   UNL     1       7.926  47.884  10.508  1.00  0.00     0.197 A 
ATOM      3  C   UNL     1       6.592  47.469  10.383  1.00  0.00     0.100 A 
ATOM      4  C   UNL     1       5.569  48.135  11.017  1.00  0.00     0.138 A 
ATOM      5  O   UNL     1       5.905  49.175  11.741  1.00  0.00    -0.456 OA
ATOM      6  C   UNL     1       7.131  49.611  11.895  1.00  0.00     0.146 A 
ATOM      7  C   UNL     1       7.421  50.722  12.678  1.00  0.00     0.094 A 
ATOM      8  C   UNL     1       8.694  51.204  12.862  1.00  0.00     0.123 A 
ATOM      9  C   UNL     1       9.747  50.567  12.245  1.00  0.00     0.093 A 
ATOM     10  C   UNL     1       9.501  49.461  11.460  1.00  0.00     0.134 A 
ATOM     11  C   UNL     1       8.196  48.985  11.285  1.00  0.00     0.107 A 
ENDROOT
BRANCH   4  12
ATOM     12  C   UNL     1       4.173  47.709  10.892  1.00  0.00     0.017 A 
ATOM     13  C   UNL     1       3.463  47.739   9.721  1.00  0.00     0.012 A 
ATOM     14  C   UNL     1       3.510  47.243  12.014  1.00  0.00     0.012 A 
ATOM     15  C   UNL     1       2.131  47.323   9.651  1.00  0.00     0.001 A 
ATOM     16  C   UNL     1       2.189  46.823  11.976  1.00  0.00     0.001 A 
ATOM     17  C   UNL     1       1.486  46.861  10.778  1.00  0.00     0.000 A 
ENDBRANCH   4  12
BRANCH  10  18
ATOM     18  O   UNL     1      10.553  48.826  10.845  1.00  0.00    -0.507 OA
ATOM     19  H   UNL     1      10.408  47.964  10.350  1.00  0.00     0.293 HD
ENDBRANCH  10  18
BRANCH   8  20
ATOM     20  O   UNL     1       8.938  52.326  13.658  1.00  0.00    -0.508 OA
ATOM     21  H   UNL     1       8.200  52.891  14.052  1.00  0.00     0.293 HD
ENDBRANCH   8  20
TORSDOF 3
ENDMDL
MODEL 3
REMARK VINA RESULT:      -6.8      1.077      1.828
REMARK SMILES O=c1cc(-c2ccccc2)oc2cc(O)cc(O)c12
REMARK SMILES IDX 1 1 2 2 3 3 4 4 11 5 12 6 13 7 14 8 16 9 17 10 19 11 5 12
REMARK SMILES IDX 6 13 10 14 7 15 9 16 8 17 18 18 15 20
REMARK H PARENT 18 19 15 21
ROOT
ATOM      1  O   UNL     1      10.012  48.526  10.977  1.00  0.00    -0.289 OA
ATOM      2  C   UNL     1       8.883  49.024  11.215  1.00  0.00     0.197 A 
ATOM      3  C   UNL     1       7.688  48.426  10.789  1.00  0.00     0.100 A 
ATOM      4  C   UNL     1       6.464  48.988  11.061  1.00  0.00     0.138 A 
ATOM      5  O   UNL     1       6.470  50.111  11.738  1.00  0.00    -0.456 OA
ATOM      6  C   UNL     1       7.552  50.718  12.163  1.00  0.00     0.146 A 
ATOM      7  C   UNL     1       7.491  51.908  12.878  1.00  0.00     0.094 A 
ATOM      8  C   UNL     1       8.604  52.569  13.338  1.00  0.00     0.123 A 
ATOM      9  C   UNL     1       9.850  52.039  13.087  1.00  0.00     0.093 A 
ATOM     10  C   UNL     1       9.952  50.860  12.381  1.00  0.00     0.134 A 
ATOM     11  C   UNL     1       8.806  50.201  11.921  1.00  0.00     0.107 A 
ENDROOT
BRANCH   4  12
ATOM     12  C   UNL     1       5.210  48.371  10.619  1.00  0.00     0.017 A 
ATOM     13  C   UNL     1       4.806  48.307   9.312  1.00  0.00     0.012 A 
ATOM     14  C   UNL     1       4.368  47.810  11.563  1.00  0.00     0.012 A 
ATOM     15  C   UNL     1       3.601  47.707   8.938  1.00  0.00     0.001 A 
ATOM     16  C   UNL     1       3.166  47.209  11.222  1.00  0.00     0.001 A 
ATOM     17  C   UNL     1       2.774  47.153   9.891  1.00  0.00     0.000 A 
ENDBRANCH   4  12
BRANCH  10  18
ATOM     18  O   UNL     1      11.196  50.332  12.132  1.00  0.00    -0.507 OA
ATOM     19  H   UNL     1      11.367  49.807  11.293  1.00  0.00     0.293 HD
ENDBRANCH  10  18
BRANCH   8  20
ATOM     20  O   UNL     1       8.495  53.765  14.052  1.00  0.00    -0.508 OA
ATOM     21  H   UNL     1       9.296  54.306  14.343  1.00  0.00     0.293 HD
ENDBRANCH   8  20
TORSDOF 3
ENDMDL
MODEL 4
REMARK VINA RESULT:      -6.7      1.841      2.157
REMARK SMILES O=c1cc(-c2ccccc2)oc2cc(O)cc(O)c12
REMARK SMILES IDX 1 1 2 2 3 3 4 4 11 5 12 6 13 7 14 8 16 9 17 10 19 11 5 12
REMARK SMILES IDX 6 13 10 14 7 15 9 16 8 17 18 18 15 20
REMARK H PARENT 18 19 15 21
ROOT
ATOM      1  O   UNL     1      10.251  48.504  11.064  1.00  0.00    -0.289 OA
ATOM      2  C   UNL     1       9.144  49.099  11.102  1.00  0.00     0.197 A 
ATOM      3  C   UNL     1       8.007  48.621  10.436  1.00  0.00     0.100 A 
ATOM      4  C   UNL     1       6.806  49.288  10.492  1.00  0.00     0.138 A 
ATOM      5  O   UNL     1       6.780  50.393  11.198  1.00  0.00    -0.456 OA
ATOM      6  C   UNL     1       7.808  50.889  11.842  1.00  0.00     0.146 A 
ATOM      7  C   UNL     1       7.715  52.066  12.575  1.00  0.00     0.094 A 
ATOM      8  C   UNL     1       8.771  52.613  13.261  1.00  0.00     0.123 A 
ATOM      9  C   UNL     1       9.992  51.976  13.231  1.00  0.00     0.093 A 
ATOM     10  C   UNL     1      10.125  50.807  12.515  1.00  0.00     0.134 A 
ATOM     11  C   UNL     1       9.036  50.265  11.822  1.00  0.00     0.107 A 
ENDROOT
BRANCH   4  12
ATOM     12  C   UNL     1       5.612  48.797   9.799  1.00  0.00     0.017 A 
ATOM     13  C   UNL     1       5.497  47.540   9.266  1.00  0.00     0.012 A 
ATOM     14  C   UNL     1       4.520  49.636   9.663  1.00  0.00     0.012 A 
ATOM     15  C   UNL     1       4.338  47.115   8.614  1.00  0.00     0.001 A 
ATOM     16  C   UNL     1       3.356  49.243   9.021  1.00  0.00     0.001 A 
ATOM     17  C   UNL     1       3.259  47.965   8.488  1.00  0.00     0.000 A 
ENDBRANCH   4  12
BRANCH  10  18
ATOM     18  O   UNL     1      11.344  50.171  12.486  1.00  0.00    -0.507 OA
ATOM     19  H   UNL     1      12.174  50.675  12.231  1.00  0.00     0.293 HD
ENDBRANCH  10  18
BRANCH   8  20
ATOM     20  O   UNL     1       8.631  53.800  13.985  1.00  0.00    -0.508 OA
ATOM     21  H   UNL     1       8.288  54.656  13.574  1.00  0.00     0.293 HD
ENDBRANCH   8  20
TORSDOF 3
ENDMDL
MODEL 5
REMARK VINA RESULT:      -6.7      1.132      1.575
REMARK SMILES O=c1cc(-c2ccccc2)oc2cc(O)cc(O)c12
REMARK SMILES IDX 1 1 2 2 3 3 4 4 11 5 12 6 13 7 14 8 16 9 17 10 19 11 5 12
REMARK SMILES IDX 6 13 10 14 7 15 9 16 8 17 18 18 15 20
REMARK H PARENT 18 19 15 21
ROOT
ATOM      1  O   UNL     1      10.113  48.475  11.030  1.00  0.00    -0.289 OA
ATOM      2  C   UNL     1       8.984  48.985  11.240  1.00  0.00     0.197 A 
ATOM      3  C   UNL     1       7.794  48.397  10.787  1.00  0.00     0.100 A 
ATOM      4  C   UNL     1       6.569  48.972  11.029  1.00  0.00     0.138 A 
ATOM      5  O   UNL     1       6.571  50.098  11.703  1.00  0.00    -0.456 OA
ATOM      6  C   UNL     1       7.648  50.695  12.152  1.00  0.00     0.146 A 
ATOM      7  C   UNL     1       7.583  51.888  12.861  1.00  0.00     0.094 A 
ATOM      8  C   UNL     1       8.691  52.540  13.345  1.00  0.00     0.123 A 
ATOM      9  C   UNL     1       9.937  51.997  13.124  1.00  0.00     0.093 A 
ATOM     10  C   UNL     1      10.044  50.814  12.425  1.00  0.00     0.134 A 
ATOM     11  C   UNL     1       8.902  50.165  11.940  1.00  0.00     0.107 A 
ENDROOT
BRANCH   4  12
ATOM     12  C   UNL     1       5.320  48.366  10.560  1.00  0.00     0.017 A 
ATOM     13  C   UNL     1       4.286  48.006  11.383  1.00  0.00     0.012 A 
ATOM     14  C   UNL     1       5.153  48.133   9.207  1.00  0.00     0.012 A 
ATOM     15  C   UNL     1       3.113  47.431  10.890  1.00  0.00     0.001 A 
ATOM     16  C   UNL     1       4.000  47.564   8.687  1.00  0.00     0.001 A 
ATOM     17  C   UNL     1       2.963  47.206   9.538  1.00  0.00     0.000 A 
ENDBRANCH   4  12
BRANCH  10  18
ATOM     18  O   UNL     1      11.288  50.273  12.206  1.00  0.00    -0.507 OA
ATOM     19  H   UNL     1      11.381  49.348  11.827  1.00  0.00     0.293 HD
ENDBRANCH  10  18
BRANCH   8  20
ATOM     20  O   UNL     1       8.577  53.739  14.053  1.00  0.00    -0.508 OA
ATOM     21  H   UNL     1       7.799  54.373  13.938  1.00  0.00     0.293 HD
ENDBRANCH   8  20
TORSDOF 3
ENDMDL
MODEL 6
REMARK VINA RESULT:      -6.5      2.900      7.088
REMARK SMILES O=c1cc(-c2ccccc2)oc2cc(O)cc(O)c12
REMARK SMILES IDX 1 1 2 2 3 3 4 4 11 5 12 6 13 7 14 8 16 9 17 10 19 11 5 12
REMARK SMILES IDX 6 13 10 14 7 15 9 16 8 17 18 18 15 20
REMARK H PARENT 18 19 15 21
ROOT
ATOM      1  O   UNL     1       2.685  46.381  12.443  1.00  0.00    -0.289 OA
ATOM      2  C   UNL     1       3.204  46.967  11.460  1.00  0.00     0.197 A 
ATOM      3  C   UNL     1       4.487  47.531  11.508  1.00  0.00     0.100 A 
ATOM      4  C   UNL     1       5.035  48.168  10.420  1.00  0.00     0.138 A 
ATOM      5  O   UNL     1       4.297  48.221   9.337  1.00  0.00    -0.456 OA
ATOM      6  C   UNL     1       3.094  47.713   9.230  1.00  0.00     0.146 A 
ATOM      7  C   UNL     1       2.362  47.803   8.052  1.00  0.00     0.094 A 
ATOM      8  C   UNL     1       1.099  47.282   7.907  1.00  0.00     0.123 A 
ATOM      9  C   UNL     1       0.514  46.636   8.973  1.00  0.00     0.093 A 
ATOM     10  C   UNL     1       1.207  46.527  10.159  1.00  0.00     0.134 A 
ATOM     11  C   UNL     1       2.493  47.064  10.287  1.00  0.00     0.107 A 
ENDROOT
BRANCH   4  12
ATOM     12  C   UNL     1       6.375  48.761  10.461  1.00  0.00     0.017 A 
ATOM     13  C   UNL     1       6.628  50.096  10.288  1.00  0.00     0.012 A 
ATOM     14  C   UNL     1       7.466  47.941  10.687  1.00  0.00     0.012 A 
ATOM     15  C   UNL     1       7.923  50.616  10.336  1.00  0.00     0.001 A 
ATOM     16  C   UNL     1       8.763  48.428  10.740  1.00  0.00     0.001 A 
ATOM     17  C   UNL     1       8.999  49.784  10.563  1.00  0.00     0.000 A 
ENDBRANCH   4  12
BRANCH  10  18
ATOM     18  O   UNL     1       0.622  45.882  11.222  1.00  0.00    -0.507 OA
ATOM     19  H   UNL     1       0.059  45.063  11.073  1.00  0.00     0.293 HD
ENDBRANCH  10  18
BRANCH   8  20
ATOM     20  O   UNL     1       0.401  47.396   6.702  1.00  0.00    -0.508 OA
ATOM     21  H   UNL     1       0.420  48.230   6.133  1.00  0.00     0.293 HD
ENDBRANCH   8  20
TORSDOF 3
ENDMDL
MODEL 7
REMARK VINA RESULT:      -6.4      2.807      6.960
REMARK SMILES O=c1cc(-c2ccccc2)oc2cc(O)cc(O)c12
REMARK SMILES IDX 1 1 2 2 3 3 4 4 11 5 12 6 13 7 14 8 16 9 17 10 19 11 5 12
REMARK SMILES IDX 6 13 10 14 7 15 9 16 8 17 18 18 15 20
REMARK H PARENT 18 19 15 21
ROOT
ATOM      1  O   UNL     1       2.938  46.413  12.441  1.00  0.00    -0.289 OA
ATOM      2  C   UNL     1       3.450  47.024  11.470  1.00  0.00     0.197 A 
ATOM      3  C   UNL     1       4.730  47.596  11.528  1.00  0.00     0.100 A 
ATOM      4  C   UNL     1       5.270  48.260  10.453  1.00  0.00     0.138 A 
ATOM      5  O   UNL     1       4.530  48.332   9.373  1.00  0.00    -0.456 OA
ATOM      6  C   UNL     1       3.330  47.818   9.258  1.00  0.00     0.146 A 
ATOM      7  C   UNL     1       2.595  47.928   8.083  1.00  0.00     0.094 A 
ATOM      8  C   UNL     1       1.335  47.402   7.929  1.00  0.00     0.123 A 
ATOM      9  C   UNL     1       0.757  46.730   8.982  1.00  0.00     0.093 A 
ATOM     10  C   UNL     1       1.453  46.599  10.164  1.00  0.00     0.134 A 
ATOM     11  C   UNL     1       2.736  47.142  10.301  1.00  0.00     0.107 A 
ENDROOT
BRANCH   4  12
ATOM     12  C   UNL     1       6.606  48.861  10.503  1.00  0.00     0.017 A 
ATOM     13  C   UNL     1       7.757  48.153  10.729  1.00  0.00     0.012 A 
ATOM     14  C   UNL     1       6.737  50.225  10.313  1.00  0.00     0.012 A 
ATOM     15  C   UNL     1       9.010  48.770  10.769  1.00  0.00     0.001 A 
ATOM     16  C   UNL     1       7.966  50.865  10.347  1.00  0.00     0.001 A 
ATOM     17  C   UNL     1       9.122  50.130  10.577  1.00  0.00     0.000 A 
ENDBRANCH   4  12
BRANCH  10  18
ATOM     18  O   UNL     1       0.875  45.927  11.214  1.00  0.00    -0.507 OA
ATOM     19  H   UNL     1       0.053  45.368  11.070  1.00  0.00     0.293 HD
ENDBRANCH  10  18
BRANCH   8  20
ATOM     20  O   UNL     1       0.633  47.538   6.729  1.00  0.00    -0.508 OA
ATOM     21  H   UNL     1       1.077  47.792   5.858  1.00  0.00     0.293 HD
ENDBRANCH   8  20
TORSDOF 3
ENDMDL
MODEL 8
REMARK VINA RESULT:      -6.3      2.688      5.856
REMARK SMILES O=c1cc(-c2ccccc2)oc2cc(O)cc(O)c12
REMARK SMILES IDX 1 1 2 2 3 3 4 4 11 5 12 6 13 7 14 8 16 9 17 10 19 11 5 12
REMARK SMILES IDX 6 13 10 14 7 15 9 16 8 17 18 18 15 20
REMARK H PARENT 18 19 15 21
ROOT
ATOM      1  O   UNL     1      10.771  50.764  12.216  1.00  0.00    -0.289 OA
ATOM      2  C   UNL     1       9.543  50.769  12.484  1.00  0.00     0.197 A 
ATOM      3  C   UNL     1       8.961  51.716  13.340  1.00  0.00     0.100 A 
ATOM      4  C   UNL     1       7.615  51.702  13.619  1.00  0.00     0.138 A 
ATOM      5  O   UNL     1       6.905  50.760  13.045  1.00  0.00    -0.456 OA
ATOM      6  C   UNL     1       7.391  49.849  12.238  1.00  0.00     0.146 A 
ATOM      7  C   UNL     1       6.584  48.876  11.661  1.00  0.00     0.094 A 
ATOM      8  C   UNL     1       7.060  47.907  10.811  1.00  0.00     0.123 A 
ATOM      9  C   UNL     1       8.402  47.886  10.506  1.00  0.00     0.093 A 
ATOM     10  C   UNL     1       9.236  48.834  11.058  1.00  0.00     0.134 A 
ATOM     11  C   UNL     1       8.731  49.813  11.922  1.00  0.00     0.107 A 
ENDROOT
BRANCH   4  12
ATOM     12  C   UNL     1       6.998  52.687  14.511  1.00  0.00     0.017 A 
ATOM     13  C   UNL     1       6.957  54.032  14.258  1.00  0.00     0.012 A 
ATOM     14  C   UNL     1       6.413  52.254  15.688  1.00  0.00     0.012 A 
ATOM     15  C   UNL     1       6.356  54.934  15.139  1.00  0.00     0.001 A 
ATOM     16  C   UNL     1       5.810  53.124  16.583  1.00  0.00     0.001 A 
ATOM     17  C   UNL     1       5.778  54.485  16.307  1.00  0.00     0.000 A 
ENDBRANCH   4  12
BRANCH  10  18
ATOM     18  O   UNL     1      10.575  48.811  10.751  1.00  0.00    -0.507 OA
ATOM     19  H   UNL     1      11.003  49.588  10.281  1.00  0.00     0.293 HD
ENDBRANCH  10  18
BRANCH   8  20
ATOM     20  O   UNL     1       6.211  46.948  10.255  1.00  0.00    -0.508 OA
ATOM     21  H   UNL     1       6.522  46.261   9.583  1.00  0.00     0.293 HD
ENDBRANCH   8  20
TORSDOF 3
ENDMDL
MODEL 9
REMARK VINA RESULT:      -6.3      2.672      5.794
REMARK SMILES O=c1cc(-c2ccccc2)oc2cc(O)cc(O)c12
REMARK SMILES IDX 1 1 2 2 3 3 4 4 11 5 12 6 13 7 14 8 16 9 17 10 19 11 5 12
REMARK SMILES IDX 6 13 10 14 7 15 9 16 8 17 18 18 15 20
REMARK H PARENT 18 19 15 21
ROOT
ATOM      1  O   UNL     1      10.774  50.721  12.162  1.00  0.00    -0.289 OA
ATOM      2  C   UNL     1       9.548  50.736  12.438  1.00  0.00     0.197 A 
ATOM      3  C   UNL     1       8.979  51.687  13.298  1.00  0.00     0.100 A 
ATOM      4  C   UNL     1       7.634  51.684  13.585  1.00  0.00     0.138 A 
ATOM      5  O   UNL     1       6.913  50.747  13.016  1.00  0.00    -0.456 OA
ATOM      6  C   UNL     1       7.387  49.833  12.206  1.00  0.00     0.146 A 
ATOM      7  C   UNL     1       6.569  48.865  11.634  1.00  0.00     0.094 A 
ATOM      8  C   UNL     1       7.032  47.894  10.781  1.00  0.00     0.123 A 
ATOM      9  C   UNL     1       8.372  47.861  10.467  1.00  0.00     0.093 A 
ATOM     10  C   UNL     1       9.217  48.803  11.014  1.00  0.00     0.134 A 
ATOM     11  C   UNL     1       8.725  49.786  11.881  1.00  0.00     0.107 A 
ENDROOT
BRANCH   4  12
ATOM     12  C   UNL     1       7.030  52.673  14.482  1.00  0.00     0.017 A 
ATOM     13  C   UNL     1       6.444  52.364  15.681  1.00  0.00     0.012 A 
ATOM     14  C   UNL     1       7.042  54.007  14.116  1.00  0.00     0.012 A 
ATOM     15  C   UNL     1       5.881  53.342  16.504  1.00  0.00     0.001 A 
ATOM     16  C   UNL     1       6.491  55.000  14.911  1.00  0.00     0.001 A 
ATOM     17  C   UNL     1       5.901  54.667  16.123  1.00  0.00     0.000 A 
ENDBRANCH   4  12
BRANCH  10  18
ATOM     18  O   UNL     1      10.554  48.769  10.699  1.00  0.00    -0.507 OA
ATOM     19  H   UNL     1      11.245  48.686  11.422  1.00  0.00     0.293 HD
ENDBRANCH  10  18
BRANCH   8  20
ATOM     20  O   UNL     1       6.172  46.941  10.230  1.00  0.00    -0.508 OA
ATOM     21  H   UNL     1       6.440  45.979  10.082  1.00  0.00     0.293 HD
ENDBRANCH   8  20
TORSDOF 3
ENDMDL
