MODEL 1
REMARK VINA RESULT:      -7.4      0.000      0.000
REMARK SMILES O=c1c([O-])c(-c2ccccc2)oc2cc([O-])cc([O-])c12
REMARK SMILES IDX 1 1 2 2 3 3 4 4 5 5 12 6 13 7 14 8 15 9 16 10 17 11 18 12
REMARK SMILES IDX 19 13 20 14 6 15 7 16 11 17 8 18 10 19 9 20
REMARK H PARENT
ROOT
ATOM      1  O   UNL     1       9.422  48.052  10.749  1.00  0.00    -0.290 OA
ATOM      2  C   UNL     1       8.372  48.618  11.120  1.00  0.00     0.184 A 
ATOM      3  C   UNL     1       7.159  48.029  10.705  1.00  0.00    -0.014 A 
ATOM      4  O   UNL     1       7.185  46.898   9.937  1.00  0.00    -0.867 OA
ATOM      5  C   UNL     1       5.995  48.624  11.094  1.00  0.00     0.130 A 
ATOM      6  O   UNL     1       6.056  49.739  11.850  1.00  0.00    -0.457 OA
ATOM      7  C   UNL     1       7.152  50.280  12.231  1.00  0.00     0.137 A 
ATOM      8  C   UNL     1       7.146  51.412  13.000  1.00  0.00     0.039 A 
ATOM      9  C   UNL     1       8.307  52.020  13.427  1.00  0.00    -0.106 A 
ATOM     10  O   UNL     1       8.268  53.174  14.209  1.00  0.00    -0.872 OA
ATOM     11  C   UNL     1       9.532  51.458  13.061  1.00  0.00    -0.016 A 
ATOM     12  C   UNL     1       9.573  50.324  12.292  1.00  0.00    -0.094 A 
ATOM     13  O   UNL     1      10.787  49.777  11.936  1.00  0.00    -0.872 OA
ATOM     14  C   UNL     1       8.389  49.757  11.893  1.00  0.00     0.056 A 
ENDROOT
BRANCH   5  15
ATOM     15  C   UNL     1       4.686  48.113  10.730  1.00  0.00     0.017 A 
ATOM     16  C   UNL     1       4.076  48.174   9.517  1.00  0.00     0.012 A 
ATOM     17  C   UNL     1       3.936  47.472  11.730  1.00  0.00     0.012 A 
ATOM     18  C   UNL     1       2.816  47.651   9.270  1.00  0.00     0.001 A 
ATOM     19  C   UNL     1       2.684  46.948  11.502  1.00  0.00     0.001 A 
ATOM     20  C   UNL     1       2.102  47.031  10.258  1.00  0.00     0.000 A 
ENDBRANCH   5  15
TORSDOF 1
ENDMDL
MODEL 2
REMARK VINA RESULT:      -7.2      0.291      1.072
REMARK SMILES O=c1c([O-])c(-c2ccccc2)oc2cc([O-])cc([O-])c12
REMARK SMILES IDX 1 1 2 2 3 3 4 4 5 5 12 6 13 7 14 8 15 9 16 10 17 11 18 12
REMARK SMILES IDX 19 13 20 14 6 15 7 16 11 17 8 18 10 19 9 20
REMARK H PARENT
ROOT
ATOM      1  O   UNL     1       9.546  48.134  10.828  1.00  0.00    -0.290 OA
ATOM      2  C   UNL     1       8.490  48.707  11.167  1.00  0.00     0.184 A 
ATOM      3  C   UNL     1       7.285  48.114  10.735  1.00  0.00    -0.014 A 
ATOM      4  O   UNL     1       7.325  46.970   9.986  1.00  0.00    -0.867 OA
ATOM      5  C   UNL     1       6.114  48.716  11.091  1.00  0.00     0.130 A 
ATOM      6  O   UNL     1       6.161  49.842  11.831  1.00  0.00    -0.457 OA
ATOM      7  C   UNL     1       7.249  50.388  12.226  1.00  0.00     0.137 A 
ATOM      8  C   UNL     1       7.230  51.531  12.977  1.00  0.00     0.039 A 
ATOM      9  C   UNL     1       8.382  52.144  13.419  1.00  0.00    -0.106 A 
ATOM     10  O   UNL     1       8.328  53.311  14.183  1.00  0.00    -0.872 OA
ATOM     11  C   UNL     1       9.614  51.575  13.089  1.00  0.00    -0.016 A 
ATOM     12  C   UNL     1       9.669  50.429  12.338  1.00  0.00    -0.094 A 
ATOM     13  O   UNL     1      10.889  49.875  12.017  1.00  0.00    -0.872 OA
ATOM     14  C   UNL     1       8.493  49.857  11.923  1.00  0.00     0.056 A 
ENDROOT
BRANCH   5  15
ATOM     15  C   UNL     1       4.812  48.201  10.706  1.00  0.00     0.017 A 
ATOM     16  C   UNL     1       3.970  47.432  11.445  1.00  0.00     0.012 A 
ATOM     17  C   UNL     1       4.338  48.522   9.423  1.00  0.00     0.012 A 
ATOM     18  C   UNL     1       2.738  46.990  10.984  1.00  0.00     0.001 A 
ATOM     19  C   UNL     1       3.120  48.091   8.951  1.00  0.00     0.001 A 
ATOM     20  C   UNL     1       2.296  47.313   9.731  1.00  0.00     0.000 A 
ENDBRANCH   5  15
TORSDOF 1
ENDMDL
MODEL 3
REMARK VINA RESULT:      -6.5      1.150      1.580
REMARK SMILES O=c1c([O-])c(-c2ccccc2)oc2cc([O-])cc([O-])c12
REMARK SMILES IDX 1 1 2 2 3 3 4 4 5 5 12 6 13 7 14 8 15 9 16 10 17 11 18 12
REMARK SMILES IDX 19 13 20 14 6 15 7 16 11 17 8 18 10 19 9 20
REMARK H PARENT
ROOT
ATOM      1  O   UNL     1       8.420  47.449  10.130  1.00  0.00    -0.290 OA
ATOM      2  C   UNL     1       7.670  48.235  10.745  1.00  0.00     0.184 A 
ATOM      3  C   UNL     1       6.283  48.014  10.614  1.00  0.00    -0.014 A 
ATOM      4  O   UNL     1       5.833  46.979   9.842  1.00  0.00    -0.867 OA
ATOM      5  C   UNL     1       5.437  48.856  11.275  1.00  0.00     0.130 A 
ATOM      6  O   UNL     1       5.962  49.854  12.015  1.00  0.00    -0.457 OA
ATOM      7  C   UNL     1       7.219  50.062  12.139  1.00  0.00     0.137 A 
ATOM      8  C   UNL     1       7.688  51.092  12.907  1.00  0.00     0.039 A 
ATOM      9  C   UNL     1       9.034  51.344  13.062  1.00  0.00    -0.106 A 
ATOM     10  O   UNL     1       9.481  52.404  13.852  1.00  0.00    -0.872 OA
ATOM     11  C   UNL     1       9.951  50.516  12.411  1.00  0.00    -0.016 A 
ATOM     12  C   UNL     1       9.514  49.475  11.634  1.00  0.00    -0.094 A 
ATOM     13  O   UNL     1      10.427  48.663  10.995  1.00  0.00    -0.872 OA
ATOM     14  C   UNL     1       8.163  49.266  11.512  1.00  0.00     0.056 A 
ENDROOT
BRANCH   5  15
ATOM     15  C   UNL     1       3.992  48.731  11.217  1.00  0.00     0.017 A 
ATOM     16  C   UNL     1       3.191  47.961  11.999  1.00  0.00     0.012 A 
ATOM     17  C   UNL     1       3.312  49.486  10.247  1.00  0.00     0.012 A 
ATOM     18  C   UNL     1       1.812  47.913  11.864  1.00  0.00     0.001 A 
ATOM     19  C   UNL     1       1.944  49.450  10.100  1.00  0.00     0.001 A 
ATOM     20  C   UNL     1       1.169  48.656  10.913  1.00  0.00     0.000 A 
ENDBRANCH   5  15
TORSDOF 1
ENDMDL
MODEL 4
REMARK VINA RESULT:      -6.5      2.166      5.590
REMARK SMILES O=c1c([O-])c(-c2ccccc2)oc2cc([O-])cc([O-])c12
REMARK SMILES IDX 1 1 2 2 3 3 4 4 5 5 12 6 13 7 14 8 15 9 16 10 17 11 18 12
REMARK SMILES IDX 19 13 20 14 6 15 7 16 11 17 8 18 10 19 9 20
REMARK H PARENT
ROOT
ATOM      1  O   UNL     1      10.668  50.412  12.514  1.00  0.00    -0.290 OA
ATOM      2  C   UNL     1       9.420  50.462  12.536  1.00  0.00     0.184 A 
ATOM      3  C   UNL     1       8.844  51.467  13.341  1.00  0.00    -0.014 A 
ATOM      4  O   UNL     1       9.653  52.318  14.042  1.00  0.00    -0.867 OA
ATOM      5  C   UNL     1       7.483  51.547  13.385  1.00  0.00     0.130 A 
ATOM      6  O   UNL     1       6.756  50.669  12.665  1.00  0.00    -0.457 OA
ATOM      7  C   UNL     1       7.271  49.753  11.932  1.00  0.00     0.137 A 
ATOM      8  C   UNL     1       6.478  48.892  11.223  1.00  0.00     0.039 A 
ATOM      9  C   UNL     1       6.999  47.896  10.426  1.00  0.00    -0.106 A 
ATOM     10  O   UNL     1       6.163  47.034   9.715  1.00  0.00    -0.872 OA
ATOM     11  C   UNL     1       8.386  47.764  10.338  1.00  0.00    -0.016 A 
ATOM     12  C   UNL     1       9.209  48.609  11.035  1.00  0.00    -0.094 A 
ATOM     13  O   UNL     1      10.577  48.470  10.943  1.00  0.00    -0.872 OA
ATOM     14  C   UNL     1       8.641  49.585  11.815  1.00  0.00     0.056 A 
ENDROOT
BRANCH   5  15
ATOM     15  C   UNL     1       6.775  52.537  14.176  1.00  0.00     0.017 A 
ATOM     16  C   UNL     1       6.362  53.772  13.790  1.00  0.00     0.012 A 
ATOM     17  C   UNL     1       6.462  52.205  15.506  1.00  0.00     0.012 A 
ATOM     18  C   UNL     1       5.687  54.648  14.626  1.00  0.00     0.001 A 
ATOM     19  C   UNL     1       5.793  53.062  16.349  1.00  0.00     0.001 A 
ATOM     20  C   UNL     1       5.393  54.306  15.917  1.00  0.00     0.000 A 
ENDBRANCH   5  15
TORSDOF 1
ENDMDL
MODEL 5
REMARK VINA RESULT:      -6.5      1.397      1.580
REMARK SMILES O=c1c([O-])c(-c2ccccc2)oc2cc([O-])cc([O-])c12
REMARK SMILES IDX 1 1 2 2 3 3 4 4 5 5 12 6 13 7 14 8 15 9 16 10 17 11 18 12
REMARK SMILES IDX 19 13 20 14 6 15 7 16 11 17 8 18 10 19 9 20
REMARK H PARENT
ROOT
ATOM      1  O   UNL     1       9.955  48.385  11.211  1.00  0.00    -0.290 OA
ATOM      2  C   UNL     1       8.921  49.084  11.216  1.00  0.00     0.184 A 
ATOM      3  C   UNL     1       7.825  48.593  10.477  1.00  0.00    -0.014 A 
ATOM      4  O   UNL     1       7.939  47.406   9.806  1.00  0.00    -0.867 OA
ATOM      5  C   UNL     1       6.679  49.333  10.464  1.00  0.00     0.130 A 
ATOM      6  O   UNL     1       6.648  50.493  11.151  1.00  0.00    -0.457 OA
ATOM      7  C   UNL     1       7.638  50.947  11.825  1.00  0.00     0.137 A 
ATOM      8  C   UNL     1       7.542  52.132  12.503  1.00  0.00     0.039 A 
ATOM      9  C   UNL     1       8.587  52.649  13.237  1.00  0.00    -0.106 A 
ATOM     10  O   UNL     1       8.458  53.860  13.917  1.00  0.00    -0.872 OA
ATOM     11  C   UNL     1       9.787  51.936  13.290  1.00  0.00    -0.016 A 
ATOM     12  C   UNL     1       9.917  50.746  12.622  1.00  0.00    -0.094 A 
ATOM     13  O   UNL     1      11.105  50.050  12.680  1.00  0.00    -0.872 OA
ATOM     14  C   UNL     1       8.846  50.274  11.905  1.00  0.00     0.056 A 
ENDROOT
BRANCH   5  15
ATOM     15  C   UNL     1       5.487  48.933   9.740  1.00  0.00     0.017 A 
ATOM     16  C   UNL     1       5.139  47.684   9.334  1.00  0.00     0.012 A 
ATOM     17  C   UNL     1       4.561  49.935   9.406  1.00  0.00     0.012 A 
ATOM     18  C   UNL     1       3.969  47.403   8.645  1.00  0.00     0.001 A 
ATOM     19  C   UNL     1       3.395  49.674   8.722  1.00  0.00     0.001 A 
ATOM     20  C   UNL     1       3.081  48.394   8.329  1.00  0.00     0.000 A 
ENDBRANCH   5  15
TORSDOF 1
ENDMDL
MODEL 6
REMARK VINA RESULT:      -6.4      3.128      7.410
REMARK SMILES O=c1c([O-])c(-c2ccccc2)oc2cc([O-])cc([O-])c12
REMARK SMILES IDX 1 1 2 2 3 3 4 4 5 5 12 6 13 7 14 8 15 9 16 10 17 11 18 12
REMARK SMILES IDX 19 13 20 14 6 15 7 16 11 17 8 18 10 19 9 20
REMARK H PARENT
ROOT
ATOM      1  O   UNL     1       1.895  46.573  11.408  1.00  0.00    -0.290 OA
ATOM      2  C   UNL     1       2.641  46.986  10.495  1.00  0.00     0.184 A 
ATOM      3  C   UNL     1       3.930  47.410  10.879  1.00  0.00    -0.014 A 
ATOM      4  O   UNL     1       4.297  47.354  12.196  1.00  0.00    -0.867 OA
ATOM      5  C   UNL     1       4.769  47.866   9.905  1.00  0.00     0.130 A 
ATOM      6  O   UNL     1       4.331  47.890   8.629  1.00  0.00    -0.457 OA
ATOM      7  C   UNL     1       3.163  47.507   8.272  1.00  0.00     0.137 A 
ATOM      8  C   UNL     1       2.778  47.556   6.960  1.00  0.00     0.039 A 
ATOM      9  C   UNL     1       1.529  47.151   6.541  1.00  0.00    -0.106 A 
ATOM     10  O   UNL     1       1.167  47.214   5.195  1.00  0.00    -0.872 OA
ATOM     11  C   UNL     1       0.625  46.674   7.492  1.00  0.00    -0.016 A 
ATOM     12  C   UNL     1       0.978  46.612   8.815  1.00  0.00    -0.094 A 
ATOM     13  O   UNL     1       0.078  46.140   9.747  1.00  0.00    -0.872 OA
ATOM     14  C   UNL     1       2.234  47.026   9.181  1.00  0.00     0.056 A 
ENDROOT
BRANCH   5  15
ATOM     15  C   UNL     1       6.118  48.330  10.175  1.00  0.00     0.017 A 
ATOM     16  C   UNL     1       7.232  47.579  10.379  1.00  0.00     0.012 A 
ATOM     17  C   UNL     1       6.327  49.718  10.239  1.00  0.00     0.012 A 
ATOM     18  C   UNL     1       8.483  48.123  10.630  1.00  0.00     0.001 A 
ATOM     19  C   UNL     1       7.562  50.273  10.488  1.00  0.00     0.001 A 
ATOM     20  C   UNL     1       8.665  49.477  10.689  1.00  0.00     0.000 A 
ENDBRANCH   5  15
TORSDOF 1
ENDMDL
MODEL 7
REMARK VINA RESULT:      -6.4      2.156      5.701
REMARK SMILES O=c1c([O-])c(-c2ccccc2)oc2cc([O-])cc([O-])c12
REMARK SMILES IDX 1 1 2 2 3 3 4 4 5 5 12 6 13 7 14 8 15 9 16 10 17 11 18 12
REMARK SMILES IDX 19 13 20 14 6 15 7 16 11 17 8 18 10 19 9 20
REMARK H PARENT
ROOT
ATOM      1  O   UNL     1      10.616  50.503  12.470  1.00  0.00    -0.290 OA
ATOM      2  C   UNL     1       9.370  50.580  12.461  1.00  0.00     0.184 A 
ATOM      3  C   UNL     1       8.797  51.628  13.211  1.00  0.00    -0.014 A 
ATOM      4  O   UNL     1       9.609  52.490  13.896  1.00  0.00    -0.867 OA
ATOM      5  C   UNL     1       7.438  51.738  13.221  1.00  0.00     0.130 A 
ATOM      6  O   UNL     1       6.708  50.846  12.519  1.00  0.00    -0.457 OA
ATOM      7  C   UNL     1       7.219  49.892  11.836  1.00  0.00     0.137 A 
ATOM      8  C   UNL     1       6.424  49.019  11.144  1.00  0.00     0.039 A 
ATOM      9  C   UNL     1       6.941  47.981  10.399  1.00  0.00    -0.106 A 
ATOM     10  O   UNL     1       6.103  47.108   9.705  1.00  0.00    -0.872 OA
ATOM     11  C   UNL     1       8.327  47.816  10.349  1.00  0.00    -0.016 A 
ATOM     12  C   UNL     1       9.152  48.673  11.031  1.00  0.00    -0.094 A 
ATOM     13  O   UNL     1      10.519  48.502  10.976  1.00  0.00    -0.872 OA
ATOM     14  C   UNL     1       8.588  49.691  11.758  1.00  0.00     0.056 A 
ENDROOT
BRANCH   5  15
ATOM     15  C   UNL     1       6.733  52.773  13.955  1.00  0.00     0.017 A 
ATOM     16  C   UNL     1       6.412  52.786  15.275  1.00  0.00     0.012 A 
ATOM     17  C   UNL     1       6.323  53.912  13.242  1.00  0.00     0.012 A 
ATOM     18  C   UNL     1       5.734  53.830  15.886  1.00  0.00     0.001 A 
ATOM     19  C   UNL     1       5.649  54.957  13.832  1.00  0.00     0.001 A 
ATOM     20  C   UNL     1       5.343  54.930  15.173  1.00  0.00     0.000 A 
ENDBRANCH   5  15
TORSDOF 1
ENDMDL
MODEL 8
REMARK VINA RESULT:      -6.3      1.557      1.687
REMARK SMILES O=c1c([O-])c(-c2ccccc2)oc2cc([O-])cc([O-])c12
REMARK SMILES IDX 1 1 2 2 3 3 4 4 5 5 12 6 13 7 14 8 15 9 16 10 17 11 18 12
REMARK SMILES IDX 19 13 20 14 6 15 7 16 11 17 8 18 10 19 9 20
REMARK H PARENT
ROOT
ATOM      1  O   UNL     1       8.933  47.945  10.799  1.00  0.00    -0.290 OA
ATOM      2  C   UNL     1       7.932  48.649  10.551  1.00  0.00     0.184 A 
ATOM      3  C   UNL     1       6.788  47.972  10.080  1.00  0.00    -0.014 A 
ATOM      4  O   UNL     1       6.824  46.614   9.919  1.00  0.00    -0.867 OA
ATOM      5  C   UNL     1       5.677  48.713   9.800  1.00  0.00     0.130 A 
ATOM      6  O   UNL     1       5.724  50.048   9.985  1.00  0.00    -0.457 OA
ATOM      7  C   UNL     1       6.758  50.671  10.412  1.00  0.00     0.137 A 
ATOM      8  C   UNL     1       6.741  52.028  10.579  1.00  0.00     0.039 A 
ATOM      9  C   UNL     1       7.836  52.730  11.037  1.00  0.00    -0.106 A 
ATOM     10  O   UNL     1       7.787  54.115  11.197  1.00  0.00    -0.872 OA
ATOM     11  C   UNL     1       9.003  52.027  11.342  1.00  0.00    -0.016 A 
ATOM     12  C   UNL     1       9.054  50.666  11.185  1.00  0.00    -0.094 A 
ATOM     13  O   UNL     1      10.211  49.980  11.488  1.00  0.00    -0.872 OA
ATOM     14  C   UNL     1       7.937  50.014  10.727  1.00  0.00     0.056 A 
ENDROOT
BRANCH   5  15
ATOM     15  C   UNL     1       4.441  48.131   9.309  1.00  0.00     0.017 A 
ATOM     16  C   UNL     1       4.156  47.727   8.044  1.00  0.00     0.012 A 
ATOM     17  C   UNL     1       3.396  47.950  10.231  1.00  0.00     0.012 A 
ATOM     18  C   UNL     1       2.937  47.179   7.674  1.00  0.00     0.001 A 
ATOM     19  C   UNL     1       2.181  47.408   9.880  1.00  0.00     0.001 A 
ATOM     20  C   UNL     1       1.933  47.012   8.587  1.00  0.00     0.000 A 
ENDBRANCH   5  15
TORSDOF 1
ENDMDL
MODEL 9
REMARK VINA RESULT:      -6.2      3.190      6.875
REMARK SMILES O=c1c([O-])c(-c2ccccc2)oc2cc([O-])cc([O-])c12
REMARK SMILES IDX 1 1 2 2 3 3 4 4 5 5 12 6 13 7 14 8 15 9 16 10 17 11 18 12
REMARK SMILES IDX 19 13 20 14 6 15 7 16 11 17 8 18 10 19 9 20
REMARK H PARENT
ROOT
ATOM      1  O   UNL     1       2.157  47.054   8.025  1.00  0.00    -0.290 OA
ATOM      2  C   UNL     1       2.716  47.217   9.129  1.00  0.00     0.184 A 
ATOM      3  C   UNL     1       4.058  47.650   9.098  1.00  0.00    -0.014 A 
ATOM      4  O   UNL     1       4.670  47.867   7.895  1.00  0.00    -0.867 OA
ATOM      5  C   UNL     1       4.696  47.838  10.289  1.00  0.00     0.130 A 
ATOM      6  O   UNL     1       4.021  47.601  11.432  1.00  0.00    -0.457 OA
ATOM      7  C   UNL     1       2.803  47.207  11.470  1.00  0.00     0.137 A 
ATOM      8  C   UNL     1       2.173  46.986  12.664  1.00  0.00     0.039 A 
ATOM      9  C   UNL     1       0.864  46.562  12.740  1.00  0.00    -0.106 A 
ATOM     10  O   UNL     1       0.250  46.344  13.974  1.00  0.00    -0.872 OA
ATOM     11  C   UNL     1       0.156  46.353  11.555  1.00  0.00    -0.016 A 
ATOM     12  C   UNL     1       0.757  46.565  10.342  1.00  0.00    -0.094 A 
ATOM     13  O   UNL     1       0.051  46.356   9.177  1.00  0.00    -0.872 OA
ATOM     14  C   UNL     1       2.063  46.988  10.319  1.00  0.00     0.056 A 
ENDROOT
BRANCH   5  15
ATOM     15  C   UNL     1       6.075  48.280  10.386  1.00  0.00     0.017 A 
ATOM     16  C   UNL     1       7.192  47.512  10.473  1.00  0.00     0.012 A 
ATOM     17  C   UNL     1       6.315  49.665  10.392  1.00  0.00     0.012 A 
ATOM     18  C   UNL     1       8.473  48.035  10.561  1.00  0.00     0.001 A 
ATOM     19  C   UNL     1       7.580  50.200  10.479  1.00  0.00     0.001 A 
ATOM     20  C   UNL     1       8.685  49.386  10.565  1.00  0.00     0.000 A 
ENDBRANCH   5  15
TORSDOF 1
ENDMDL
