REMARK SMILES C[NH+](Cc1ccc(C(C)(C)C)cc1)Cc1cccc2ccccc12
REMARK SMILES IDX 3 1 2 2 1 3 14 5 15 6 16 7 24 8 17 9 23 10 19 11 18 12 22 13
REMARK SMILES IDX 20 14 21 15 4 16 5 17 13 18 6 19 12 20 7 21 8 22 9 23 10 24
REMARK SMILES IDX 11 25
REMARK H PARENT 2 4
ROOT
ATOM      1  C   UNL     1      -2.064  -1.187  -1.287  1.00  0.00     0.299 C 
ENDROOT
BRANCH   1   2
ATOM      2  N   UNL     1      -1.949   0.073  -1.992  1.00  0.00    -0.330 N 
ATOM      3  C   UNL     1      -3.263   0.720  -2.054  1.00  0.00     0.333 C 
ATOM      4  H   UNL     1      -1.388   0.683  -1.370  1.00  0.00     0.348 HD
BRANCH   2   5
ATOM      5  C   UNL     1      -1.342  -0.027  -3.271  1.00  0.00     0.299 C 
BRANCH   5   6
ATOM      6  C   UNL     1      -0.127  -0.866  -3.360  1.00  0.00     0.014 A 
ATOM      7  C   UNL     1      -0.205  -2.180  -3.820  1.00  0.00     0.010 A 
ATOM      8  C   UNL     1       1.112  -0.426  -2.975  1.00  0.00    -0.010 A 
ATOM      9  C   UNL     1       0.891  -2.987  -3.883  1.00  0.00     0.001 A 
ATOM     10  C   UNL     1       1.297   0.858  -2.518  1.00  0.00     0.009 A 
ATOM     11  C   UNL     1       2.259  -1.229  -3.027  1.00  0.00    -0.018 A 
ATOM     12  C   UNL     1       2.116  -2.517  -3.490  1.00  0.00     0.009 A 
ATOM     13  C   UNL     1       2.559   1.332  -2.127  1.00  0.00     0.001 A 
ATOM     14  C   UNL     1       3.506  -0.802  -2.654  1.00  0.00     0.009 A 
ATOM     15  C   UNL     1       3.654   0.501  -2.197  1.00  0.00     0.001 A 
ENDBRANCH   5   6
ENDBRANCH   2   5
ENDBRANCH   1   2
BRANCH   1  16
ATOM     16  C   UNL     1      -1.495  -1.115   0.099  1.00  0.00     0.006 A 
ATOM     17  C   UNL     1      -0.172  -1.417   0.346  1.00  0.00     0.010 A 
ATOM     18  C   UNL     1      -2.269  -0.743   1.179  1.00  0.00     0.010 A 
ATOM     19  C   UNL     1       0.358  -1.349   1.618  1.00  0.00     0.005 A 
ATOM     20  C   UNL     1      -1.743  -0.672   2.462  1.00  0.00     0.005 A 
ATOM     21  C   UNL     1      -0.423  -0.974   2.703  1.00  0.00    -0.043 A 
BRANCH  21  22
ATOM     22  C   UNL     1       0.189  -0.913   4.061  1.00  0.00    -0.013 C 
ATOM     23  C   UNL     1       0.036  -2.263   4.714  1.00  0.00     0.016 C 
ATOM     24  C   UNL     1       1.668  -0.609   3.958  1.00  0.00     0.016 C 
ATOM     25  C   UNL     1      -0.437   0.150   4.917  1.00  0.00     0.016 C 
ENDBRANCH  21  22
ENDBRANCH   1  16
TORSDOF 5
