REMARK SMILES Cc1ccc(-c2ccc(CNc3nn[n-]n3)o2)cc1Cl
REMARK SMILES IDX 6 1 7 2 8 3 9 4 17 5 5 6 2 7 3 8 19 9 4 10 18 11 1 12 20 13
REMARK SMILES IDX 10 14 11 15 12 17 13 18 16 19 14 20 15 21
REMARK H PARENT 11 16
ROOT
ATOM      1  C   UNL     1       0.372  -0.113   0.168  1.00  0.00     0.134 A 
ATOM      2  C   UNL     1       1.018   1.108  -0.029  1.00  0.00     0.051 A 
ATOM      3  C   UNL     1       2.153   0.831  -0.757  1.00  0.00     0.048 A 
ATOM      4  C   UNL     1       2.180  -0.525  -0.988  1.00  0.00     0.123 A 
ATOM      5  O   UNL     1       1.113  -1.010  -0.421  1.00  0.00    -0.459 OA
ENDROOT
BRANCH   1   6
ATOM      6  C   UNL     1      -0.878  -0.328   0.888  1.00  0.00     0.019 A 
ATOM      7  C   UNL     1      -3.257  -0.815   2.245  1.00  0.00    -0.032 A 
ATOM      8  C   UNL     1      -2.566  -1.873   1.661  1.00  0.00     0.006 A 
ATOM      9  C   UNL     1      -2.776   0.468   2.159  1.00  0.00     0.044 A 
ATOM     10  C   UNL     1      -1.368  -1.609   0.980  1.00  0.00     0.012 A 
ATOM     11  C   UNL     1      -1.597   0.677   1.480  1.00  0.00     0.032 A 
ATOM     12  C   UNL     1      -4.531  -1.067   2.974  1.00  0.00     0.046 C 
ATOM     13  Cl  UNL     1      -3.664   1.797   2.905  1.00  0.00    -0.084 Cl
ENDBRANCH   1   6
BRANCH   4  14
ATOM     14  C   UNL     1       3.232  -1.302  -1.747  1.00  0.00     0.189 C 
BRANCH  14  15
ATOM     15  N   UNL     1       2.881  -1.452  -3.132  1.00  0.00    -0.365 N 
ATOM     16  H   UNL     1       2.752  -2.419  -3.501  1.00  0.00     0.162 HD
BRANCH  15  17
ATOM     17  C   UNL     1       2.696  -0.386  -4.034  1.00  0.00     0.131 A 
ATOM     18  N   UNL     1       2.819   0.903  -3.768  1.00  0.00    -0.316 NA
ATOM     19  N   UNL     1       2.357  -0.440  -5.350  1.00  0.00    -0.228 NA
ATOM     20  N   UNL     1       2.580   1.637  -4.827  1.00  0.00    -0.251 NA
ATOM     21  N   UNL     1       2.293   0.807  -5.813  1.00  0.00    -0.262 NA
ENDBRANCH  15  17
ENDBRANCH  14  15
ENDBRANCH   4  14
TORSDOF 4
