REMARK SMILES O=c1cc(C(Cl)(Cl)Cl)oc2ccccc12
REMARK SMILES IDX 5 1 6 2 7 3 8 4 4 5 1 6 2 7 3 8 15 9 14 10 10 11 9 12 13 13
REMARK SMILES IDX 11 14 12 15
REMARK H PARENT
ROOT
ATOM      1  C   UNL     1      -0.381   0.576   2.850  1.00  0.00     0.248 C 
ATOM      2  Cl  UNL     1      -0.477   2.271   3.364  1.00  0.00    -0.075 Cl
ATOM      3  Cl  UNL     1       0.950  -0.267   3.673  1.00  0.00    -0.075 Cl
ATOM      4  Cl  UNL     1      -1.953  -0.194   3.194  1.00  0.00    -0.075 Cl
ENDROOT
BRANCH   1   5
ATOM      5  C   UNL     1      -0.149   0.517   1.392  1.00  0.00     0.159 A 
ATOM      6  O   UNL     1      -0.386   2.543  -1.491  1.00  0.00    -0.289 OA
ATOM      7  C   UNL     1      -0.179   1.561  -0.724  1.00  0.00     0.193 A 
ATOM      8  C   UNL     1      -0.401   1.637   0.627  1.00  0.00     0.099 A 
ATOM      9  C   UNL     1       0.285   0.378  -1.277  1.00  0.00     0.065 A 
ATOM     10  C   UNL     1       0.523   0.255  -2.632  1.00  0.00     0.016 A 
ATOM     11  C   UNL     1       0.516  -0.702  -0.454  1.00  0.00     0.138 A 
ATOM     12  O   UNL     1       0.291  -0.583   0.821  1.00  0.00    -0.456 OA
ATOM     13  C   UNL     1       0.984  -0.909  -3.201  1.00  0.00     0.001 A 
ATOM     14  C   UNL     1       0.983  -1.891  -1.011  1.00  0.00     0.048 A 
ATOM     15  C   UNL     1       1.211  -1.982  -2.368  1.00  0.00     0.004 A 
ENDBRANCH   1   5
TORSDOF 1
