REMARK SMILES Cn1c(=O)n(Cc2cccc(Cl)c2)c(=O)c2c1ncn2Cc1ccccc1
REMARK SMILES IDX 1 1 2 2 3 3 4 4 5 5 14 6 15 7 16 8 17 9 18 10 19 11 20 12
REMARK SMILES IDX 6 13 7 14 8 15 13 16 9 17 11 18 10 19 12 20 21 21 22 22
REMARK SMILES IDX 23 23 27 24 24 25 26 26 25 27
REMARK H PARENT
ROOT
ATOM      1  C   UNL     1      -3.899   1.424  -1.212  1.00  0.00     0.157 C 
ATOM      2  N   UNL     1      -2.504   1.069  -1.089  1.00  0.00    -0.279 N 
ATOM      3  C   UNL     1      -1.734   1.794  -0.245  1.00  0.00     0.332 A 
ATOM      4  O   UNL     1      -2.233   2.746   0.405  1.00  0.00    -0.247 OA
ATOM      5  N   UNL     1      -0.428   1.522  -0.079  1.00  0.00    -0.254 N 
ATOM      6  C   UNL     1       0.078   0.481  -0.803  1.00  0.00     0.282 A 
ATOM      7  O   UNL     1       1.295   0.166  -0.706  1.00  0.00    -0.267 OA
ATOM      8  C   UNL     1      -0.679  -0.276  -1.669  1.00  0.00     0.152 A 
ATOM      9  C   UNL     1      -2.016   0.046  -1.803  1.00  0.00     0.167 A 
ATOM     10  N   UNL     1      -2.512  -0.827  -2.697  1.00  0.00    -0.218 NA
ATOM     11  C   UNL     1      -1.526  -1.647  -3.094  1.00  0.00     0.203 A 
ATOM     12  N   UNL     1      -0.366  -1.315  -2.457  1.00  0.00    -0.320 N 
ENDROOT
BRANCH   5  13
ATOM     13  C   UNL     1       0.427   2.272   0.810  1.00  0.00     0.166 C 
BRANCH  13  14
ATOM     14  C   UNL     1       0.482   1.747   2.190  1.00  0.00    -0.026 A 
ATOM     15  C   UNL     1      -0.408   2.180   3.155  1.00  0.00     0.006 A 
ATOM     16  C   UNL     1       1.411   0.811   2.588  1.00  0.00     0.026 A 
ATOM     17  C   UNL     1      -0.365   1.693   4.460  1.00  0.00     0.002 A 
ATOM     18  C   UNL     1       1.470   0.311   3.894  1.00  0.00     0.041 A 
ATOM     19  C   UNL     1       0.571   0.758   4.837  1.00  0.00     0.020 A 
ATOM     20  Cl  UNL     1       2.687  -0.882   4.315  1.00  0.00    -0.084 Cl
ENDBRANCH  13  14
ENDBRANCH   5  13
BRANCH  12  21
ATOM     21  C   UNL     1       0.900  -2.022  -2.635  1.00  0.00     0.159 C 
BRANCH  21  22
ATOM     22  C   UNL     1       0.936  -3.187  -1.724  1.00  0.00    -0.028 A 
ATOM     23  C   UNL     1       1.600  -3.176  -0.534  1.00  0.00     0.005 A 
ATOM     24  C   UNL     1       0.256  -4.361  -2.074  1.00  0.00     0.005 A 
ATOM     25  C   UNL     1       1.607  -4.290   0.311  1.00  0.00     0.000 A 
ATOM     26  C   UNL     1       0.276  -5.446  -1.228  1.00  0.00     0.000 A 
ATOM     27  C   UNL     1       0.944  -5.443  -0.025  1.00  0.00     0.000 A 
ENDBRANCH  21  22
ENDBRANCH  12  21
TORSDOF 4
