REMARK SMILES COc1cccc2c1C(=O)c1c(O)c3c(c([O-])c1C2=O)C[C@@](O)(C(=O)CO)C[C@@H]3O[C@H]1C[C@H]([NH3+])[C@H](O)[C@H](C)O1
REMARK SMILES IDX 3 1 4 2 5 3 6 4 7 5 8 6 9 7 10 8 11 9 12 10 14 11 15 12
REMARK SMILES IDX 16 13 17 14 18 15 19 16 20 17 21 18 22 19 28 20 29 21 2 22
REMARK SMILES IDX 1 23 13 24 30 26 31 27 32 28 39 29 33 30 37 31 35 32 38 33
REMARK SMILES IDX 34 34 36 38 23 40 24 42 25 43 26 44 27 45
REMARK H PARENT 13 25 34 35 34 36 34 37 36 39 23 41 27 46
ROOT
ATOM      1  C   UNL     1       2.712   2.018   4.198  1.00  0.00     0.130 A 
ATOM      2  C   UNL     1       3.400   3.110   4.660  1.00  0.00     0.047 A 
ATOM      3  C   UNL     1       3.866   4.048   3.767  1.00  0.00     0.005 A 
ATOM      4  C   UNL     1       3.660   3.921   2.400  1.00  0.00     0.013 A 
ATOM      5  C   UNL     1       2.972   2.828   1.939  1.00  0.00     0.037 A 
ATOM      6  C   UNL     1       2.504   1.887   2.835  1.00  0.00     0.076 A 
ATOM      7  C   UNL     1       1.770   0.716   2.369  1.00  0.00     0.201 C 
ATOM      8  O   UNL     1       1.340  -0.144   3.163  1.00  0.00    -0.288 OA
ATOM      9  C   UNL     1       1.556   0.587   0.929  1.00  0.00     0.075 A 
ATOM     10  C   UNL     1       0.856  -0.526   0.465  1.00  0.00     0.133 A 
ATOM     11  C   UNL     1       0.614  -0.721  -0.860  1.00  0.00     0.026 A 
ATOM     12  C   UNL     1       1.069   0.202  -1.779  1.00  0.00    -0.042 A 
ATOM     13  C   UNL     1       1.765   1.311  -1.330  1.00  0.00    -0.093 A 
ATOM     14  O   UNL     1       2.215   2.232  -2.285  1.00  0.00    -0.872 OA
ATOM     15  C   UNL     1       2.009   1.507   0.014  1.00  0.00     0.030 A 
ATOM     16  C   UNL     1       2.738   2.666   0.495  1.00  0.00     0.194 C 
ATOM     17  O   UNL     1       3.172   3.537  -0.330  1.00  0.00    -0.289 OA
ATOM     18  C   UNL     1       0.766  -0.083  -3.201  1.00  0.00     0.079 C 
ATOM     19  C   UNL     1       1.233  -1.518  -3.445  1.00  0.00     0.132 C 
ATOM     20  C   UNL     1       0.481  -2.496  -2.614  1.00  0.00     0.081 C 
ATOM     21  C   UNL     1      -0.143  -1.923  -1.360  1.00  0.00     0.159 C 
ENDROOT
BRANCH   1  22
ATOM     22  O   UNL     1       2.220   1.043   5.055  1.00  0.00    -0.496 OA
ATOM     23  C   UNL     1       2.400   1.120   6.444  1.00  0.00     0.278 C 
ENDBRANCH   1  22
BRANCH  10  24
ATOM     24  O   UNL     1       0.375  -1.489   1.361  1.00  0.00    -0.507 OA
ATOM     25  H   UNL     1       0.930  -2.359   1.381  1.00  0.00     0.293 HD
ENDBRANCH  10  24
BRANCH  21  26
ATOM     26  O   UNL     1      -1.454  -1.577  -1.682  1.00  0.00    -0.344 OA
BRANCH  26  27
ATOM     27  C   UNL     1      -2.390  -2.273  -0.922  1.00  0.00     0.257 C 
ATOM     28  C   UNL     1      -3.180  -1.210  -0.153  1.00  0.00     0.130 C 
ATOM     29  O   UNL     1      -3.201  -2.969  -1.777  1.00  0.00    -0.346 OA
ATOM     30  C   UNL     1      -4.395  -0.900  -1.038  1.00  0.00     0.217 C 
ATOM     31  C   UNL     1      -4.427  -3.325  -1.249  1.00  0.00     0.153 C 
ATOM     32  C   UNL     1      -5.293  -2.126  -0.912  1.00  0.00     0.201 C 
ATOM     33  C   UNL     1      -4.326  -4.300  -0.104  1.00  0.00     0.042 C 
BRANCH  30  34
ATOM     34  N   UNL     1      -5.020   0.296  -0.570  1.00  0.00    -0.353 N 
ATOM     35  H   UNL     1      -4.924   1.015  -1.349  1.00  0.00     0.344 HD
ATOM     36  H   UNL     1      -6.039   0.203  -0.367  1.00  0.00     0.344 HD
ATOM     37  H   UNL     1      -4.485   0.714   0.230  1.00  0.00     0.344 HD
ENDBRANCH  30  34
BRANCH  32  38
ATOM     38  O   UNL     1      -5.693  -2.178   0.435  1.00  0.00    -0.384 OA
ATOM     39  H   UNL     1      -5.562  -1.324   0.900  1.00  0.00     0.211 HD
ENDBRANCH  32  38
ENDBRANCH  26  27
ENDBRANCH  21  26
BRANCH  19  40
ATOM     40  O   UNL     1       1.072  -1.826  -4.803  1.00  0.00    -0.382 OA
ATOM     41  H   UNL     1       1.430  -2.725  -4.948  1.00  0.00     0.212 HD
ENDBRANCH  19  40
BRANCH  19  42
ATOM     42  C   UNL     1       2.679  -1.550  -3.160  1.00  0.00     0.190 C 
ATOM     43  O   UNL     1       3.050  -1.309  -2.023  1.00  0.00    -0.294 OA
BRANCH  42  44
ATOM     44  C   UNL     1       3.717  -1.859  -4.170  1.00  0.00     0.234 C 
BRANCH  44  45
ATOM     45  O   UNL     1       4.991  -1.818  -3.623  1.00  0.00    -0.388 OA
ATOM     46  H   UNL     1       5.253  -0.888  -3.369  1.00  0.00     0.211 HD
ENDBRANCH  44  45
ENDBRANCH  42  44
ENDBRANCH  19  42
TORSDOF 10
