REMARK SMILES COc1cccc2c1C(=O)c1c(O)c3c(c(O)c1C2=O)C[C@@](O)(C(=O)CO)C[C@@H]3O[C@H]1C[C@H](N)[C@H](O)[C@H](C)O1
REMARK SMILES IDX 3 1 4 2 5 3 6 4 7 5 8 6 9 7 10 8 11 9 12 10 14 11 15 12
REMARK SMILES IDX 16 13 18 14 19 15 20 16 21 17 22 18 28 19 29 20 2 21 1 22
REMARK SMILES IDX 13 23 17 25 30 27 31 28 32 29 39 30 33 31 37 32 35 33 38 34
REMARK SMILES IDX 34 35 36 38 23 40 24 42 25 43 26 44 27 45
REMARK H PARENT 13 24 17 26 34 36 34 37 36 39 23 41 27 46
ROOT
ATOM      1  C   UNL     1       1.727   5.611  -1.951  1.00  0.00     0.130 A 
ATOM      2  C   UNL     1       1.643   6.967  -2.027  1.00  0.00     0.047 A 
ATOM      3  C   UNL     1       0.873   7.731  -1.168  1.00  0.00     0.005 A 
ATOM      4  C   UNL     1       0.159   7.078  -0.191  1.00  0.00     0.013 A 
ATOM      5  C   UNL     1       0.235   5.683  -0.100  1.00  0.00     0.038 A 
ATOM      6  C   UNL     1       1.010   4.954  -0.969  1.00  0.00     0.076 A 
ATOM      7  C   UNL     1       1.068   3.488  -0.847  1.00  0.00     0.202 C 
ATOM      8  O   UNL     1       1.779   2.856  -1.650  1.00  0.00    -0.288 OA
ATOM      9  C   UNL     1       0.313   2.793   0.187  1.00  0.00     0.080 A 
ATOM     10  C   UNL     1       0.354   1.405   0.320  1.00  0.00     0.133 A 
ATOM     11  C   UNL     1      -0.347   0.747   1.282  1.00  0.00     0.031 A 
ATOM     12  C   UNL     1      -1.147   1.479   2.182  1.00  0.00     0.008 A 
ATOM     13  C   UNL     1      -1.176   2.844   2.037  1.00  0.00     0.131 A 
ATOM     14  C   UNL     1      -0.469   3.523   1.065  1.00  0.00     0.080 A 
ATOM     15  C   UNL     1      -0.517   4.976   0.932  1.00  0.00     0.198 C 
ATOM     16  O   UNL     1      -1.216   5.671   1.711  1.00  0.00    -0.288 OA
ATOM     17  C   UNL     1      -1.907   0.765   3.228  1.00  0.00     0.083 C 
ATOM     18  C   UNL     1      -1.191  -0.415   3.822  1.00  0.00     0.132 C 
ATOM     19  C   UNL     1      -0.048  -0.880   2.972  1.00  0.00     0.081 C 
ATOM     20  C   UNL     1      -0.381  -0.712   1.521  1.00  0.00     0.159 C 
ENDROOT
BRANCH   1  21
ATOM     21  O   UNL     1       2.490   4.818  -2.797  1.00  0.00    -0.496 OA
ATOM     22  C   UNL     1       3.278   5.300  -3.844  1.00  0.00     0.278 C 
ENDBRANCH   1  21
BRANCH  10  23
ATOM     23  O   UNL     1       1.137   0.683  -0.558  1.00  0.00    -0.507 OA
ATOM     24  H   UNL     1       1.967   0.197  -0.253  1.00  0.00     0.293 HD
ENDBRANCH  10  23
BRANCH  13  25
ATOM     25  O   UNL     1      -1.949   3.608   2.900  1.00  0.00    -0.507 OA
ATOM     26  H   UNL     1      -2.811   4.056   2.622  1.00  0.00     0.293 HD
ENDBRANCH  13  25
BRANCH  20  27
ATOM     27  O   UNL     1       0.451  -1.357   0.660  1.00  0.00    -0.344 OA
BRANCH  27  28
ATOM     28  C   UNL     1      -0.145  -2.317  -0.129  1.00  0.00     0.252 C 
ATOM     29  C   UNL     1       0.026  -2.162  -1.597  1.00  0.00     0.083 C 
ATOM     30  O   UNL     1       0.385  -3.549   0.256  1.00  0.00    -0.347 OA
ATOM     31  C   UNL     1      -0.183  -3.538  -2.222  1.00  0.00     0.087 C 
ATOM     32  C   UNL     1       1.493  -3.917  -0.494  1.00  0.00     0.148 C 
ATOM     33  C   UNL     1       1.075  -4.333  -1.909  1.00  0.00     0.160 C 
ATOM     34  C   UNL     1       2.117  -5.125   0.175  1.00  0.00     0.041 C 
BRANCH  31  35
ATOM     35  N   UNL     1      -1.266  -4.158  -1.461  1.00  0.00    -0.325 NA
ATOM     36  H   UNL     1      -2.159  -4.143  -1.965  1.00  0.00     0.119 HD
ATOM     37  H   UNL     1      -0.994  -5.074  -1.060  1.00  0.00     0.119 HD
ENDBRANCH  31  35
BRANCH  33  38
ATOM     38  O   UNL     1       0.788  -5.690  -1.955  1.00  0.00    -0.389 OA
ATOM     39  H   UNL     1       0.396  -5.876  -2.840  1.00  0.00     0.211 HD
ENDBRANCH  33  38
ENDBRANCH  27  28
ENDBRANCH  20  27
BRANCH  18  40
ATOM     40  O   UNL     1      -0.587   0.060   5.025  1.00  0.00    -0.382 OA
ATOM     41  H   UNL     1      -1.202  -0.067   5.785  1.00  0.00     0.212 HD
ENDBRANCH  18  40
BRANCH  18  42
ATOM     42  C   UNL     1      -2.122  -1.495   4.231  1.00  0.00     0.190 C 
ATOM     43  O   UNL     1      -2.247  -1.762   5.415  1.00  0.00    -0.294 OA
BRANCH  42  44
ATOM     44  C   UNL     1      -2.934  -2.299   3.291  1.00  0.00     0.234 C 
BRANCH  44  45
ATOM     45  O   UNL     1      -3.767  -3.202   3.968  1.00  0.00    -0.388 OA
ATOM     46  H   UNL     1      -4.533  -3.471   3.415  1.00  0.00     0.211 HD
ENDBRANCH  44  45
ENDBRANCH  42  44
ENDBRANCH  18  42
TORSDOF 11
