REMARK SMILES COc1ccc(/C=C2/SC(=O)[N-]C2=O)cc1OC
REMARK SMILES IDX 3 1 4 2 5 3 6 4 15 5 16 6 2 7 1 8 17 9 18 10 7 11 8 12 9 13
REMARK SMILES IDX 13 14 10 15 12 16 14 17 11 18
REMARK H PARENT
ROOT
ATOM      1  C   UNL     1      -2.061  -0.078   0.349  1.00  0.00     0.160 A 
ATOM      2  C   UNL     1      -1.455  -0.226   1.564  1.00  0.00     0.051 A 
ATOM      3  C   UNL     1      -0.115  -0.519   1.592  1.00  0.00     0.012 A 
ATOM      4  C   UNL     1       0.606  -0.661   0.400  1.00  0.00    -0.021 A 
ATOM      5  C   UNL     1      -0.016  -0.510  -0.815  1.00  0.00     0.058 A 
ATOM      6  C   UNL     1      -1.373  -0.213  -0.864  1.00  0.00     0.161 A 
ENDROOT
BRANCH   1   7
ATOM      7  O   UNL     1      -3.423   0.221   0.286  1.00  0.00    -0.493 OA
ATOM      8  C   UNL     1      -4.158   0.366   1.489  1.00  0.00     0.278 C 
ENDBRANCH   1   7
BRANCH   6   9
ATOM      9  O   UNL     1      -2.029  -0.055  -2.067  1.00  0.00    -0.493 OA
ATOM     10  C   UNL     1      -1.393  -0.178  -3.311  1.00  0.00     0.278 C 
ENDBRANCH   6   9
BRANCH   4  11
ATOM     11  C   UNL     1       2.002  -1.005   0.525  1.00  0.00     0.025 C 
ATOM     12  C   UNL     1       2.941  -0.351  -0.073  1.00  0.00     0.039 C 
ATOM     13  S   UNL     1       4.688  -0.720   0.027  1.00  0.00    -0.069 SA
ATOM     14  C   UNL     1       2.866   0.812  -0.907  1.00  0.00     0.095 C 
ATOM     15  C   UNL     1       5.129   0.275  -1.421  1.00  0.00     0.120 C 
ATOM     16  N   UNL     1       4.038   1.109  -1.601  1.00  0.00    -0.581 NA
ATOM     17  O   UNL     1       1.821   1.535  -1.018  1.00  0.00    -0.314 OA
ATOM     18  O   UNL     1       6.183   0.180  -2.057  1.00  0.00    -0.307 OA
ENDBRANCH   4  11
TORSDOF 3
