REMARK SMILES Nc1ncnc(N2CCc3ccccc32)n1
REMARK SMILES IDX 2 1 3 2 4 3 5 4 6 5 16 6 1 7 7 10 8 11 15 12 9 13 14 14
REMARK SMILES IDX 10 15 13 16 11 17 12 18
REMARK H PARENT 1 8 1 9
ROOT
ATOM      1  C   UNL     1      -3.181   0.703   0.364  1.00  0.00     0.224 A 
ATOM      2  N   UNL     1      -3.441   0.855   1.690  1.00  0.00    -0.201 NA
ATOM      3  C   UNL     1      -2.472   0.729   2.605  1.00  0.00     0.230 A 
ATOM      4  N   UNL     1      -1.228   0.450   2.216  1.00  0.00    -0.201 NA
ATOM      5  C   UNL     1      -0.899   0.285   0.906  1.00  0.00     0.234 A 
ATOM      6  N   UNL     1      -1.910   0.422   0.029  1.00  0.00    -0.177 NA
ENDROOT
BRANCH   1   7
ATOM      7  N   UNL     1      -4.213   0.837  -0.606  1.00  0.00    -0.368 N 
ATOM      8  H   UNL     1      -4.082   0.432  -1.556  1.00  0.00     0.159 HD
ATOM      9  H   UNL     1      -5.076   1.329  -0.366  1.00  0.00     0.159 HD
ENDBRANCH   1   7
BRANCH   5  10
ATOM     10  N   UNL     1       0.425  -0.010   0.524  1.00  0.00    -0.310 N 
ATOM     11  C   UNL     1       1.575  -0.176   1.376  1.00  0.00     0.131 C 
ATOM     12  C   UNL     1       0.900  -0.205  -0.802  1.00  0.00     0.047 A 
ATOM     13  C   UNL     1       2.327  -1.261   0.650  1.00  0.00     0.059 C 
ATOM     14  C   UNL     1       0.448   0.195  -2.054  1.00  0.00     0.026 A 
ATOM     15  C   UNL     1       2.061  -0.950  -0.776  1.00  0.00    -0.022 A 
ATOM     16  C   UNL     1       1.123  -0.134  -3.203  1.00  0.00     0.002 A 
ATOM     17  C   UNL     1       2.757  -1.291  -1.937  1.00  0.00     0.006 A 
ATOM     18  C   UNL     1       2.277  -0.875  -3.155  1.00  0.00     0.000 A 
ENDBRANCH   5  10
TORSDOF 2
