REMARK SMILES COc1cccc2cc(-c3nc4ccccc4[n-]3)c(=Nc3cccc(C)c3)oc12
REMARK SMILES IDX 3 1 4 2 5 3 6 4 7 5 8 6 9 7 19 8 20 9 28 10 29 11 2 12 1 13
REMARK SMILES IDX 10 14 11 15 18 16 12 17 17 18 13 19 16 20 14 21 15 22 21 23
REMARK SMILES IDX 22 24 27 25 23 26 25 27 24 28 26 29
REMARK H PARENT
ROOT
ATOM      1  C   UNL     1      -2.337  -0.322   3.326  1.00  0.00     0.162 A 
ATOM      2  C   UNL     1      -2.705   0.602   4.272  1.00  0.00     0.050 A 
ATOM      3  C   UNL     1      -2.254   1.908   4.241  1.00  0.00     0.005 A 
ATOM      4  C   UNL     1      -1.412   2.256   3.215  1.00  0.00     0.012 A 
ATOM      5  C   UNL     1      -0.999   1.383   2.229  1.00  0.00     0.022 A 
ATOM      6  C   UNL     1      -0.148   1.778   1.213  1.00  0.00     0.025 A 
ATOM      7  C   UNL     1       0.213   0.840   0.271  1.00  0.00     0.037 A 
ATOM      8  C   UNL     1      -0.301  -0.433   0.405  1.00  0.00     0.227 A 
ATOM      9  N   UNL     1       0.051  -1.296  -0.490  1.00  0.00    -0.213 NA
ATOM     10  O   UNL     1      -1.108  -0.773   1.385  1.00  0.00    -0.434 OA
ATOM     11  C   UNL     1      -1.486   0.081   2.312  1.00  0.00     0.178 A 
ENDROOT
BRANCH   1  12
ATOM     12  O   UNL     1      -2.798  -1.647   3.362  1.00  0.00    -0.493 OA
ATOM     13  C   UNL     1      -3.658  -2.012   4.405  1.00  0.00     0.278 C 
ENDBRANCH   1  12
BRANCH   7  14
ATOM     14  C   UNL     1       1.110   1.187  -0.834  1.00  0.00    -0.045 A 
ATOM     15  N   UNL     1       1.526   0.355  -1.804  1.00  0.00    -0.435 NA
ATOM     16  N   UNL     1       1.686   2.372  -1.097  1.00  0.00    -0.435 NA
ATOM     17  C   UNL     1       2.344   1.006  -2.656  1.00  0.00    -0.038 A 
ATOM     18  C   UNL     1       2.456   2.306  -2.211  1.00  0.00    -0.038 A 
ATOM     19  C   UNL     1       3.041   0.661  -3.797  1.00  0.00     0.004 A 
ATOM     20  C   UNL     1       3.241   3.236  -2.887  1.00  0.00     0.004 A 
ATOM     21  C   UNL     1       3.821   1.578  -4.473  1.00  0.00     0.000 A 
ATOM     22  C   UNL     1       3.928   2.873  -4.023  1.00  0.00     0.000 A 
ENDBRANCH   7  14
BRANCH   9  23
ATOM     23  C   UNL     1      -0.380  -2.640  -0.504  1.00  0.00     0.067 A 
ATOM     24  C   UNL     1      -0.402  -3.346   0.669  1.00  0.00     0.028 A 
ATOM     25  C   UNL     1      -0.773  -3.238  -1.673  1.00  0.00     0.031 A 
ATOM     26  C   UNL     1      -0.818  -4.646   0.662  1.00  0.00     0.003 A 
ATOM     27  C   UNL     1      -1.192  -4.546  -1.679  1.00  0.00    -0.049 A 
ATOM     28  C   UNL     1      -1.213  -5.261  -0.486  1.00  0.00     0.003 A 
ATOM     29  C   UNL     1      -1.626  -5.229  -2.929  1.00  0.00     0.044 C 
ENDBRANCH   9  23
TORSDOF 3
