REMARK SMILES COc1cccc2cc(-c3nc4ccccc4[nH]3)c(=Nc3cccc(C)c3)oc12
REMARK SMILES IDX 3 1 4 2 5 3 6 4 7 5 8 6 9 7 19 8 20 9 28 10 29 11 2 12 1 13
REMARK SMILES IDX 10 14 11 15 18 16 12 17 17 18 13 19 16 20 14 21 15 22 21 24
REMARK SMILES IDX 22 25 27 26 23 27 25 28 24 29 26 30
REMARK H PARENT 18 23
ROOT
ATOM      1  C   UNL     1      -2.007  -1.043   3.360  1.00  0.00     0.162 A 
ATOM      2  C   UNL     1      -2.072  -0.414   4.585  1.00  0.00     0.050 A 
ATOM      3  C   UNL     1      -1.364   0.756   4.797  1.00  0.00     0.005 A 
ATOM      4  C   UNL     1      -0.587   1.306   3.795  1.00  0.00     0.012 A 
ATOM      5  C   UNL     1      -0.499   0.703   2.558  1.00  0.00     0.022 A 
ATOM      6  C   UNL     1       0.281   1.258   1.555  1.00  0.00     0.029 A 
ATOM      7  C   UNL     1       0.327   0.606   0.343  1.00  0.00     0.081 A 
ATOM      8  C   UNL     1      -0.409  -0.552   0.219  1.00  0.00     0.231 A 
ATOM      9  N   UNL     1      -0.345  -1.145  -0.941  1.00  0.00    -0.213 NA
ATOM     10  O   UNL     1      -1.136  -1.039   1.203  1.00  0.00    -0.434 OA
ATOM     11  C   UNL     1      -1.219  -0.459   2.386  1.00  0.00     0.178 A 
ENDROOT
BRANCH   1  12
ATOM     12  O   UNL     1      -2.710  -2.236   3.095  1.00  0.00    -0.493 OA
ATOM     13  C   UNL     1      -3.489  -2.754   4.156  1.00  0.00     0.278 C 
ENDBRANCH   1  12
BRANCH   7  14
ATOM     14  C   UNL     1       1.128   1.123  -0.778  1.00  0.00     0.144 A 
ATOM     15  N   UNL     1       1.261   0.591  -2.004  1.00  0.00    -0.228 NA
ATOM     16  N   UNL     1       1.882   2.233  -0.777  1.00  0.00    -0.338 N 
ATOM     17  C   UNL     1       2.079   1.353  -2.750  1.00  0.00     0.089 A 
ATOM     18  C   UNL     1       2.493   2.427  -1.968  1.00  0.00     0.066 A 
ATOM     19  C   UNL     1       2.565   1.306  -4.039  1.00  0.00     0.030 A 
ATOM     20  C   UNL     1       3.346   3.383  -2.475  1.00  0.00     0.028 A 
ATOM     21  C   UNL     1       3.420   2.256  -4.560  1.00  0.00     0.002 A 
ATOM     22  C   UNL     1       3.817   3.316  -3.760  1.00  0.00     0.002 A 
ATOM     23  H   UNL     1       1.964   2.852   0.064  1.00  0.00     0.168 HD
ENDBRANCH   7  14
BRANCH   9  24
ATOM     24  C   UNL     1      -1.031  -2.333  -1.242  1.00  0.00     0.067 A 
ATOM     25  C   UNL     1      -2.376  -2.396  -1.505  1.00  0.00     0.028 A 
ATOM     26  C   UNL     1      -0.287  -3.519  -1.273  1.00  0.00     0.031 A 
ATOM     27  C   UNL     1      -2.966  -3.601  -1.791  1.00  0.00     0.003 A 
ATOM     28  C   UNL     1      -0.891  -4.737  -1.563  1.00  0.00    -0.049 A 
ATOM     29  C   UNL     1      -2.231  -4.785  -1.823  1.00  0.00     0.003 A 
ATOM     30  C   UNL     1      -0.022  -5.942  -1.574  1.00  0.00     0.044 C 
ENDBRANCH   9  24
TORSDOF 3
