REMARK SMILES Cc1c(C(=O)[NH+]2CCN(C)CC2)[nH]c2ccc(OCc3ccccc3)cc12
REMARK SMILES IDX 1 1 2 2 3 3 13 4 14 5 15 6 16 7 17 8 26 9 27 10 4 12 5 13
REMARK SMILES IDX 6 14 7 15 12 16 8 17 11 18 9 19 10 21 18 22 19 23 20 24
REMARK SMILES IDX 21 25 25 26 22 27 24 28 23 29
REMARK H PARENT 13 11 6 20
ROOT
ATOM      1  C   UNL     1      -0.349   0.548   0.746  1.00  0.00     0.048 C 
ATOM      2  C   UNL     1      -0.945  -0.570  -0.072  1.00  0.00    -0.008 A 
ATOM      3  C   UNL     1      -1.617  -1.680   0.396  1.00  0.00     0.148 A 
ATOM      4  N   UNL     1      -1.931  -2.346  -0.733  1.00  0.00    -0.347 N 
ATOM      5  C   UNL     1      -1.511  -1.738  -1.840  1.00  0.00     0.047 A 
ATOM      6  C   UNL     1      -1.590  -2.019  -3.197  1.00  0.00     0.030 A 
ATOM      7  C   UNL     1      -1.039  -1.165  -4.105  1.00  0.00     0.048 A 
ATOM      8  C   UNL     1      -0.374   0.026  -3.732  1.00  0.00     0.120 A 
ATOM      9  C   UNL     1      -0.323   0.258  -2.384  1.00  0.00     0.057 A 
ATOM     10  C   UNL     1      -0.871  -0.590  -1.446  1.00  0.00     0.007 A 
ATOM     11  H   UNL     1      -2.454  -3.250  -0.736  1.00  0.00     0.167 HD
ENDROOT
BRANCH   3  12
ATOM     12  C   UNL     1      -1.851  -1.961   1.787  1.00  0.00     0.360 C 
ATOM     13  O   UNL     1      -1.331  -1.173   2.581  1.00  0.00    -0.224 OA
BRANCH  12  14
ATOM     14  N   UNL     1      -2.417  -2.746   2.729  1.00  0.00    -0.264 N 
ATOM     15  C   UNL     1      -2.748  -2.055   4.050  1.00  0.00     0.286 C 
ATOM     16  C   UNL     1      -1.646  -3.818   3.252  1.00  0.00     0.286 C 
ATOM     17  C   UNL     1      -1.577  -1.691   4.846  1.00  0.00     0.146 C 
ATOM     18  C   UNL     1      -0.297  -3.370   3.674  1.00  0.00     0.146 C 
ATOM     19  N   UNL     1      -0.383  -2.438   4.725  1.00  0.00    -0.295 NA
ATOM     20  H   UNL     1      -3.378  -2.852   2.547  1.00  0.00     0.357 HD
ATOM     21  C   UNL     1       0.813  -1.721   5.038  1.00  0.00     0.105 C 
ENDBRANCH  12  14
ENDBRANCH   3  12
BRANCH   8  22
ATOM     22  O   UNL     1       0.136   0.806  -4.704  1.00  0.00    -0.489 OA
BRANCH  22  23
ATOM     23  C   UNL     1       0.833   1.979  -4.793  1.00  0.00     0.265 C 
BRANCH  23  24
ATOM     24  C   UNL     1       2.159   2.055  -4.188  1.00  0.00    -0.011 A 
ATOM     25  C   UNL     1       2.390   2.581  -2.951  1.00  0.00     0.007 A 
ATOM     26  C   UNL     1       3.275   1.565  -4.877  1.00  0.00     0.007 A 
ATOM     27  C   UNL     1       3.654   2.639  -2.383  1.00  0.00     0.000 A 
ATOM     28  C   UNL     1       4.544   1.616  -4.322  1.00  0.00     0.000 A 
ATOM     29  C   UNL     1       4.741   2.156  -3.067  1.00  0.00     0.000 A 
ENDBRANCH  23  24
ENDBRANCH  22  23
ENDBRANCH   8  22
TORSDOF 5
