REMARK SMILES Cc1oc2ccc([O-])cc2c1C(=O)OC(C)C
REMARK SMILES IDX 12 1 13 2 11 3 2 4 3 5 4 6 10 7 5 8 9 9 6 10 7 11 1 12 8 13
REMARK SMILES IDX 14 14 15 15 16 16 17 17
REMARK H PARENT
ROOT
ATOM      1  C   UNL     1       0.317  -0.082  -0.905  1.00  0.00     0.342 C 
ATOM      2  O   UNL     1       1.247   0.647  -1.286  1.00  0.00    -0.246 OA
ENDROOT
BRANCH   1   3
ATOM      3  C   UNL     1      -0.167  -0.116   0.475  1.00  0.00     0.109 A 
ATOM      4  C   UNL     1      -1.185  -0.884   0.995  1.00  0.00     0.116 A 
ATOM      5  O   UNL     1      -1.284  -0.605   2.258  1.00  0.00    -0.460 OA
ATOM      6  C   UNL     1      -0.401   0.298   2.620  1.00  0.00     0.135 A 
ATOM      7  C   UNL     1       0.350   0.654   1.512  1.00  0.00     0.035 A 
ATOM      8  C   UNL     1      -0.088   0.928   3.807  1.00  0.00     0.047 A 
ATOM      9  C   UNL     1       1.359   1.595   1.616  1.00  0.00     0.004 A 
ATOM     10  C   UNL     1       0.914   1.868   3.925  1.00  0.00    -0.005 A 
ATOM     11  C   UNL     1       1.654   2.212   2.814  1.00  0.00    -0.108 A 
ATOM     12  C   UNL     1      -2.001  -1.857   0.188  1.00  0.00     0.088 C 
ATOM     13  O   UNL     1       2.657   3.159   2.959  1.00  0.00    -0.872 OA
ENDBRANCH   1   3
BRANCH   1  14
ATOM     14  O   UNL     1      -0.293  -0.900  -1.821  1.00  0.00    -0.459 OA
BRANCH  14  15
ATOM     15  C   UNL     1       0.033  -1.001  -3.175  1.00  0.00     0.170 C 
ATOM     16  C   UNL     1      -1.136  -0.728  -4.090  1.00  0.00     0.052 C 
ATOM     17  C   UNL     1       0.534  -2.407  -3.433  1.00  0.00     0.052 C 
ENDBRANCH  14  15
ENDBRANCH   1  14
TORSDOF 3
