REMARK SMILES CCOC(=O)[NH+]1CCc2[nH]c3ccc(OC)cc3c2C1
REMARK SMILES IDX 4 1 5 2 3 3 2 4 1 5 6 6 7 7 20 8 8 9 19 10 9 11 18 12 10 13
REMARK SMILES IDX 17 14 11 15 14 16 12 17 13 18 15 21 16 22
REMARK H PARENT 6 19 10 20
ROOT
ATOM      1  C   UNL     1      -0.804  -0.738   2.312  1.00  0.00     0.514 C 
ATOM      2  O   UNL     1      -0.832  -0.098   1.282  1.00  0.00    -0.187 OA
ENDROOT
BRANCH   1   3
ATOM      3  O   UNL     1      -1.627  -0.223   3.281  1.00  0.00    -0.420 OA
BRANCH   3   4
ATOM      4  C   UNL     1      -2.448   0.950   3.116  1.00  0.00     0.236 C 
ATOM      5  C   UNL     1      -3.199   1.196   4.384  1.00  0.00     0.049 C 
ENDBRANCH   3   4
ENDBRANCH   1   3
BRANCH   1   6
ATOM      6  N   UNL     1       0.082  -1.680   1.931  1.00  0.00    -0.229 N 
ATOM      7  C   UNL     1       1.431  -1.336   2.151  1.00  0.00     0.280 C 
ATOM      8  C   UNL     1       0.134  -2.051   0.472  1.00  0.00     0.312 C 
ATOM      9  C   UNL     1       1.860  -0.043   1.576  1.00  0.00     0.116 C 
ATOM     10  C   UNL     1       0.734  -1.000  -0.350  1.00  0.00     0.036 A 
ATOM     11  C   UNL     1       1.577  -0.017   0.129  1.00  0.00     0.030 A 
ATOM     12  C   UNL     1       0.586  -0.796  -1.732  1.00  0.00     0.012 A 
ATOM     13  N   UNL     1       1.932   0.752  -0.896  1.00  0.00    -0.358 N 
ATOM     14  C   UNL     1      -0.123  -1.455  -2.712  1.00  0.00     0.057 A 
ATOM     15  C   UNL     1       1.343   0.300  -2.038  1.00  0.00     0.046 A 
ATOM     16  C   UNL     1      -0.100  -1.040  -4.042  1.00  0.00     0.119 A 
ATOM     17  C   UNL     1       1.381   0.728  -3.345  1.00  0.00     0.030 A 
ATOM     18  C   UNL     1       0.660   0.059  -4.343  1.00  0.00     0.048 A 
ATOM     19  H   UNL     1      -0.252  -2.587   2.186  1.00  0.00     0.360 HD
ATOM     20  H   UNL     1       2.568   1.584  -0.847  1.00  0.00     0.166 HD
BRANCH  16  21
ATOM     21  O   UNL     1      -0.820  -1.710  -5.033  1.00  0.00    -0.497 OA
ATOM     22  C   UNL     1      -1.586  -2.845  -4.630  1.00  0.00     0.278 C 
ENDBRANCH  16  21
ENDBRANCH   1   6
TORSDOF 4
