REMARK SMILES CCOC(=O)N1CCc2[nH]c3ccc(OC)cc3c2C1
REMARK SMILES IDX 4 1 5 2 3 3 2 4 1 5 6 6 7 7 20 8 8 9 19 10 9 11 18 12 10 13
REMARK SMILES IDX 17 14 11 15 14 16 12 17 13 18 15 20 16 21
REMARK H PARENT 10 19
ROOT
ATOM      1  C   UNL     1       0.121  -1.096   2.819  1.00  0.00     0.410 C 
ATOM      2  O   UNL     1       0.694  -0.873   3.907  1.00  0.00    -0.224 OA
ENDROOT
BRANCH   1   3
ATOM      3  O   UNL     1      -1.276  -1.166   2.866  1.00  0.00    -0.450 OA
BRANCH   3   4
ATOM      4  C   UNL     1      -2.014  -1.000   4.054  1.00  0.00     0.231 C 
ATOM      5  C   UNL     1      -1.782   0.349   4.674  1.00  0.00     0.049 C 
ENDBRANCH   3   4
ENDBRANCH   1   3
BRANCH   1   6
ATOM      6  N   UNL     1       0.802  -1.272   1.592  1.00  0.00    -0.303 N 
ATOM      7  C   UNL     1       2.242  -1.199   1.544  1.00  0.00     0.130 C 
ATOM      8  C   UNL     1       0.100  -1.526   0.359  1.00  0.00     0.161 C 
ATOM      9  C   UNL     1       2.618   0.041   0.768  1.00  0.00     0.076 C 
ATOM     10  C   UNL     1       0.691  -0.650  -0.696  1.00  0.00     0.000 A 
ATOM     11  C   UNL     1       1.854   0.069  -0.497  1.00  0.00     0.023 A 
ATOM     12  C   UNL     1       0.214  -0.419  -1.970  1.00  0.00     0.008 A 
ATOM     13  N   UNL     1       2.090   0.740  -1.646  1.00  0.00    -0.358 N 
ATOM     14  C   UNL     1      -0.871  -0.845  -2.709  1.00  0.00     0.057 A 
ATOM     15  C   UNL     1       1.121   0.461  -2.538  1.00  0.00     0.046 A 
ATOM     16  C   UNL     1      -1.111  -0.440  -4.004  1.00  0.00     0.119 A 
ATOM     17  C   UNL     1       0.893   0.878  -3.838  1.00  0.00     0.030 A 
ATOM     18  C   UNL     1      -0.200   0.440  -4.564  1.00  0.00     0.048 A 
ATOM     19  H   UNL     1       2.903   1.378  -1.812  1.00  0.00     0.166 HD
BRANCH  16  20
ATOM     20  O   UNL     1      -2.214  -0.880  -4.740  1.00  0.00    -0.497 OA
ATOM     21  C   UNL     1      -3.106  -1.785  -4.093  1.00  0.00     0.278 C 
ENDBRANCH  16  20
ENDBRANCH   1   6
TORSDOF 4
