REMARK SMILES CN(C)CC(=O)c1ccc(-c2ccccc2)cc1
REMARK SMILES IDX 5 1 6 2 4 3 2 4 1 5 3 6 7 7 8 8 18 9 9 10 17 11 10 12 11 13
REMARK SMILES IDX 12 14 16 15 13 16 15 17 14 18
REMARK H PARENT
ROOT
ATOM      1  C   UNL     1       0.096   0.766   2.636  1.00  0.00     0.176 C 
ATOM      2  O   UNL     1       0.839   1.753   2.998  1.00  0.00    -0.293 OA
ENDROOT
BRANCH   1   3
ATOM      3  C   UNL     1      -0.811   0.246   3.627  1.00  0.00     0.165 C 
BRANCH   3   4
ATOM      4  N   UNL     1      -1.948  -0.489   3.216  1.00  0.00    -0.302 NA
ATOM      5  C   UNL     1      -2.959   0.307   2.549  1.00  0.00     0.105 C 
ATOM      6  C   UNL     1      -2.589  -1.194   4.303  1.00  0.00     0.105 C 
ENDBRANCH   3   4
ENDBRANCH   1   3
BRANCH   1   7
ATOM      7  C   UNL     1       0.287   0.319   1.267  1.00  0.00     0.019 A 
ATOM      8  C   UNL     1       1.164   1.017   0.420  1.00  0.00     0.012 A 
ATOM      9  C   UNL     1      -0.322  -0.785   0.716  1.00  0.00     0.012 A 
ATOM     10  C   UNL     1       1.386   0.613  -0.867  1.00  0.00     0.009 A 
ATOM     11  C   UNL     1      -0.082  -1.178  -0.596  1.00  0.00     0.009 A 
ATOM     12  C   UNL     1       0.776  -0.491  -1.418  1.00  0.00    -0.018 A 
BRANCH  12  13
ATOM     13  C   UNL     1       1.042  -0.885  -2.814  1.00  0.00    -0.018 A 
ATOM     14  C   UNL     1       1.006  -2.194  -3.180  1.00  0.00     0.009 A 
ATOM     15  C   UNL     1       1.325   0.074  -3.762  1.00  0.00     0.009 A 
ATOM     16  C   UNL     1       1.255  -2.527  -4.494  1.00  0.00     0.001 A 
ATOM     17  C   UNL     1       1.566  -0.276  -5.050  1.00  0.00     0.001 A 
ATOM     18  C   UNL     1       1.540  -1.589  -5.463  1.00  0.00     0.000 A 
ENDBRANCH  12  13
ENDBRANCH   1   7
TORSDOF 4
