REMARK SMILES Cc1nn2c(N3CCN(CCO)CC3)cc(C(C)C)nc2c1-c1ccccc1
REMARK SMILES IDX 6 1 7 2 8 3 9 4 13 5 14 6 5 7 2 8 3 9 22 10 4 11 21 12 20 13
REMARK SMILES IDX 15 14 16 15 1 16 23 17 24 18 28 19 25 20 27 21 26 22 17 23
REMARK SMILES IDX 18 24 19 25 10 26 11 27 12 28
REMARK H PARENT 12 29
ROOT
ATOM      1  N   UNL     1       0.674  -2.176   1.441  1.00  0.00    -0.354 N 
ATOM      2  C   UNL     1       0.088  -3.438   1.727  1.00  0.00     0.133 C 
ATOM      3  C   UNL     1       1.078  -4.521   1.983  1.00  0.00     0.106 C 
ATOM      4  N   UNL     1       2.433  -4.076   2.204  1.00  0.00    -0.298 NA
ATOM      5  C   UNL     1       2.504  -2.861   2.951  1.00  0.00     0.106 C 
ATOM      6  C   UNL     1       1.852  -1.759   2.202  1.00  0.00     0.133 C 
ENDROOT
BRANCH   1   7
ATOM      7  C   UNL     1       0.200  -1.238   0.469  1.00  0.00     0.134 A 
ATOM      8  C   UNL     1      -1.531   1.478   1.844  1.00  0.00     0.070 A 
ATOM      9  N   UNL     1      -0.856   0.308   1.989  1.00  0.00    -0.169 NA
ATOM     10  C   UNL     1      -1.593   1.779   0.498  1.00  0.00     0.050 A 
ATOM     11  N   UNL     1      -0.490  -0.139   0.798  1.00  0.00    -0.198 N 
ATOM     12  C   UNL     1      -0.929   0.743  -0.134  1.00  0.00     0.165 A 
ATOM     13  N   UNL     1      -0.688   0.550  -1.439  1.00  0.00    -0.233 NA
ATOM     14  C   UNL     1       0.459  -1.457  -0.861  1.00  0.00     0.071 A 
ATOM     15  C   UNL     1       0.001  -0.541  -1.805  1.00  0.00     0.049 A 
ATOM     16  C   UNL     1      -2.108   2.329   2.927  1.00  0.00     0.069 C 
BRANCH  10  17
ATOM     17  C   UNL     1      -2.234   2.970  -0.045  1.00  0.00    -0.013 A 
ATOM     18  C   UNL     1      -1.538   4.164  -0.210  1.00  0.00     0.009 A 
ATOM     19  C   UNL     1      -3.558   2.985  -0.427  1.00  0.00     0.009 A 
ATOM     20  C   UNL     1      -2.099   5.299  -0.715  1.00  0.00     0.001 A 
ATOM     21  C   UNL     1      -4.145   4.139  -0.945  1.00  0.00     0.001 A 
ATOM     22  C   UNL     1      -3.411   5.297  -1.088  1.00  0.00     0.000 A 
ENDBRANCH  10  17
BRANCH  15  23
ATOM     23  C   UNL     1       0.279  -0.730  -3.265  1.00  0.00     0.032 C 
ATOM     24  C   UNL     1      -0.993  -1.080  -4.017  1.00  0.00     0.014 C 
ATOM     25  C   UNL     1       0.852   0.570  -3.836  1.00  0.00     0.014 C 
ENDBRANCH  15  23
ENDBRANCH   1   7
BRANCH   4  26
ATOM     26  C   UNL     1       3.207  -3.973   1.002  1.00  0.00     0.112 C 
BRANCH  26  27
ATOM     27  C   UNL     1       3.516  -5.306   0.361  1.00  0.00     0.171 C 
BRANCH  27  28
ATOM     28  O   UNL     1       4.280  -5.018  -0.796  1.00  0.00    -0.395 OA
ATOM     29  H   UNL     1       3.773  -4.502  -1.446  1.00  0.00     0.210 HD
ENDBRANCH  27  28
ENDBRANCH  26  27
ENDBRANCH   4  26
TORSDOF 6
