REMARK SMILES [CH+]=NCCc1cn(C(=O)OC)c2ccccc12
REMARK SMILES IDX 5 1 6 2 7 3 12 4 13 5 14 6 15 7 16 8 17 9 4 10 3 11 2 12
REMARK SMILES IDX 1 13 8 14 9 15 10 16 11 17
REMARK H PARENT
ROOT
ATOM      1  C   UNL     1      -0.913   0.142   0.552  1.00  0.00    -0.020 A 
ATOM      2  C   UNL     1       0.270  -0.163   1.175  1.00  0.00     0.102 A 
ATOM      3  N   UNL     1       1.201  -0.461   0.262  1.00  0.00    -0.252 N 
ATOM      4  C   UNL     1       0.655  -0.360  -0.972  1.00  0.00     0.059 A 
ATOM      5  C   UNL     1       1.131  -0.545  -2.240  1.00  0.00     0.027 A 
ATOM      6  C   UNL     1       0.292  -0.356  -3.333  1.00  0.00     0.002 A 
ATOM      7  C   UNL     1      -1.030   0.019  -3.203  1.00  0.00     0.001 A 
ATOM      8  C   UNL     1      -1.481   0.199  -1.913  1.00  0.00     0.010 A 
ATOM      9  C   UNL     1      -0.679   0.021  -0.795  1.00  0.00     0.003 A 
ENDROOT
BRANCH   1  10
ATOM     10  C   UNL     1      -2.177   0.522   1.198  1.00  0.00     0.066 C 
BRANCH  10  11
ATOM     11  C   UNL     1      -3.192  -0.607   1.208  1.00  0.00     0.210 C 
BRANCH  11  12
ATOM     12  N   UNL     1      -4.367  -0.070   1.872  1.00  0.00    -0.043 NA
ATOM     13  C   UNL     1      -5.049   0.870   1.423  1.00  0.00     0.808 C 
ENDBRANCH  11  12
ENDBRANCH  10  11
ENDBRANCH   1  10
BRANCH   3  14
ATOM     14  C   UNL     1       2.557  -0.830   0.504  1.00  0.00     0.418 C 
ATOM     15  O   UNL     1       2.944  -0.889   1.695  1.00  0.00    -0.224 OA
BRANCH  14  16
ATOM     16  O   UNL     1       3.469  -1.126  -0.476  1.00  0.00    -0.452 OA
ATOM     17  C   UNL     1       4.815  -1.493  -0.241  1.00  0.00     0.284 C 
ENDBRANCH  14  16
ENDBRANCH   3  14
TORSDOF 5
