REMARK SMILES CN1C(=O)/C(=C\Nc2ccc(F)cc2)C(=O)[N-]C1=S
REMARK SMILES IDX 7 1 6 3 2 4 3 5 18 6 4 7 5 8 17 9 19 10 15 11 16 12 1 13
REMARK SMILES IDX 8 14 9 15 14 16 10 17 13 18 11 19 12 20
REMARK H PARENT 7 2
ROOT
ATOM      1  N   UNL     1       1.015   0.841   0.463  1.00  0.00    -0.361 N 
ATOM      2  H   UNL     1       1.209   0.653   1.487  1.00  0.00     0.166 HD
ENDROOT
BRANCH   1   3
ATOM      3  C   UNL     1      -0.145   1.562   0.058  1.00  0.00     0.098 C 
ATOM      4  N   UNL     1      -2.798  -0.886   0.762  1.00  0.00    -0.404 N 
ATOM      5  C   UNL     1      -1.514  -0.308   0.663  1.00  0.00     0.184 C 
ATOM      6  C   UNL     1      -3.955  -0.173   0.361  1.00  0.00     0.015 C 
ATOM      7  O   UNL     1      -0.460  -0.913   1.010  1.00  0.00    -0.293 OA
ATOM      8  C   UNL     1      -1.348   1.040   0.144  1.00  0.00     0.078 C 
ATOM      9  N   UNL     1      -3.853   1.148  -0.153  1.00  0.00    -0.390 NA
ATOM     10  S   UNL     1      -5.429  -0.911   0.505  1.00  0.00    -0.089 S 
ATOM     11  C   UNL     1      -2.565   1.743  -0.259  1.00  0.00     0.184 C 
ATOM     12  O   UNL     1      -2.446   2.912  -0.711  1.00  0.00    -0.293 OA
ATOM     13  C   UNL     1      -2.874  -2.240   1.292  1.00  0.00     0.014 C 
ENDBRANCH   1   3
BRANCH   1  14
ATOM     14  C   UNL     1       1.934   0.357  -0.503  1.00  0.00     0.038 A 
ATOM     15  C   UNL     1       3.070  -0.346  -0.172  1.00  0.00     0.029 A 
ATOM     16  C   UNL     1       1.694   0.593  -1.838  1.00  0.00     0.029 A 
ATOM     17  C   UNL     1       3.941  -0.798  -1.168  1.00  0.00     0.041 A 
ATOM     18  C   UNL     1       2.548   0.151  -2.835  1.00  0.00     0.041 A 
ATOM     19  C   UNL     1       3.671  -0.545  -2.498  1.00  0.00     0.123 A 
ATOM     20  F   UNL     1       4.487  -0.964  -3.496  1.00  0.00    -0.207 F 
ENDBRANCH   1  14
TORSDOF 2
