REMARK SMILES COc1cc(C2CC(=C3C=C(Cl)C=CC3=O)[NH2+]N2)ccc1[O-]
REMARK SMILES IDX 3 1 4 2 5 3 19 4 20 5 21 6 22 7 2 8 1 9 6 10 7 11 18 12 8 13
REMARK SMILES IDX 17 14 9 15 10 16 15 17 11 18 14 19 16 20 13 21 12 25
REMARK H PARENT 18 22 17 23 17 24
ROOT
ATOM      1  C   UNL     1      -2.386  -2.617  -0.930  1.00  0.00     0.111 A 
ATOM      2  C   UNL     1      -1.746  -1.694  -0.132  1.00  0.00     0.051 A 
ATOM      3  C   UNL     1      -1.330  -2.003   1.132  1.00  0.00    -0.022 A 
ATOM      4  C   UNL     1      -1.563  -3.277   1.610  1.00  0.00     0.005 A 
ATOM      5  C   UNL     1      -2.199  -4.231   0.846  1.00  0.00    -0.004 A 
ATOM      6  C   UNL     1      -2.603  -3.876  -0.427  1.00  0.00    -0.065 A 
ATOM      7  O   UNL     1      -3.254  -4.830  -1.229  1.00  0.00    -0.870 OA
ENDROOT
BRANCH   1   8
ATOM      8  O   UNL     1      -2.787  -2.250  -2.208  1.00  0.00    -0.497 OA
ATOM      9  C   UNL     1      -2.573  -0.975  -2.731  1.00  0.00     0.278 C 
ENDBRANCH   1   8
BRANCH   3  10
ATOM     10  C   UNL     1      -0.637  -1.015   2.009  1.00  0.00     0.148 C 
ATOM     11  C   UNL     1       0.769  -0.757   1.541  1.00  0.00     0.128 C 
ATOM     12  N   UNL     1      -1.232   0.265   2.042  1.00  0.00    -0.158 NA
ATOM     13  C   UNL     1       0.650   0.562   0.868  1.00  0.00     0.138 C 
ATOM     14  N   UNL     1      -0.545   1.180   1.298  1.00  0.00    -0.239 N 
ATOM     15  C   UNL     1       1.502   1.094   0.006  1.00  0.00     0.082 C 
ATOM     16  C   UNL     1       2.708   0.373  -0.376  1.00  0.00     0.038 C 
ATOM     17  C   UNL     1       1.261   2.400  -0.572  1.00  0.00     0.191 C 
ATOM     18  C   UNL     1       3.559   0.911  -1.234  1.00  0.00     0.042 C 
ATOM     19  C   UNL     1       2.259   2.922  -1.517  1.00  0.00     0.054 C 
ATOM     20  O   UNL     1       0.278   3.109  -0.328  1.00  0.00    -0.289 OA
ATOM     21  C   UNL     1       3.342   2.231  -1.835  1.00  0.00     0.024 C 
ATOM     22  H   UNL     1      -2.251   0.304   2.014  1.00  0.00     0.188 HD
ATOM     23  H   UNL     1      -1.094   1.442   0.450  1.00  0.00     0.376 HD
ATOM     24  H   UNL     1      -0.322   2.060   1.847  1.00  0.00     0.376 HD
ATOM     25  Cl  UNL     1       5.005   0.009  -1.671  1.00  0.00    -0.084 Cl
ENDBRANCH   3  10
TORSDOF 2
