REMARK SMILES O=C1N=C(SC(=O)c2ccccc2Br)S/C1=C/c1ccccc1
REMARK SMILES IDX 6 1 7 2 5 3 4 4 1 5 2 6 3 7 16 8 15 9 17 10 18 11 19 12
REMARK SMILES IDX 23 13 20 14 22 15 21 16 8 17 9 18 13 19 10 20 12 21 11 22
REMARK SMILES IDX 14 23
REMARK H PARENT
ROOT
ATOM      1  C   UNL     1       2.939   2.770  -0.344  1.00  0.00     0.227 C 
ATOM      2  O   UNL     1       3.677   3.446   0.454  1.00  0.00    -0.281 OA
ENDROOT
BRANCH   1   3
ATOM      3  S   UNL     1       1.305   3.340  -0.586  1.00  0.00    -0.019 SA
BRANCH   3   4
ATOM      4  C   UNL     1       0.044   2.112  -0.188  1.00  0.00     0.146 C 
ATOM      5  O   UNL     1      -0.873  -0.980   1.123  1.00  0.00    -0.266 OA
ATOM      6  C   UNL     1      -0.949   0.183   0.566  1.00  0.00     0.285 C 
ATOM      7  N   UNL     1       0.150   0.990   0.346  1.00  0.00    -0.194 NA
ATOM      8  C   UNL     1      -2.205   0.746   0.125  1.00  0.00     0.082 C 
ATOM      9  S   UNL     1      -1.711   2.372  -0.449  1.00  0.00    -0.057 SA
ATOM     10  C   UNL     1      -3.371   0.173   0.130  1.00  0.00     0.029 C 
BRANCH  10  11
ATOM     11  C   UNL     1      -3.680  -1.186   0.579  1.00  0.00    -0.024 A 
ATOM     12  C   UNL     1      -3.013  -2.255   0.025  1.00  0.00     0.008 A 
ATOM     13  C   UNL     1      -4.606  -1.426   1.565  1.00  0.00     0.008 A 
ATOM     14  C   UNL     1      -3.291  -3.530   0.474  1.00  0.00     0.001 A 
ATOM     15  C   UNL     1      -4.880  -2.690   2.008  1.00  0.00     0.001 A 
ATOM     16  C   UNL     1      -4.215  -3.778   1.460  1.00  0.00     0.000 A 
ENDBRANCH  10  11
ENDBRANCH   3   4
ENDBRANCH   1   3
BRANCH   1  17
ATOM     17  C   UNL     1       3.497   1.596  -0.962  1.00  0.00     0.043 A 
ATOM     18  C   UNL     1       4.697   1.058  -0.492  1.00  0.00     0.014 A 
ATOM     19  C   UNL     1       2.840   0.919  -1.952  1.00  0.00     0.029 A 
ATOM     20  C   UNL     1       5.178  -0.110  -1.016  1.00  0.00     0.001 A 
ATOM     21  C   UNL     1       3.326  -0.277  -2.491  1.00  0.00     0.016 A 
ATOM     22  C   UNL     1       4.496  -0.775  -2.010  1.00  0.00     0.001 A 
ATOM     23  Br  UNL     1       1.253   1.627  -2.789  1.00  0.00    -0.050 Br
ENDBRANCH   1  17
TORSDOF 4
