REMARK SMILES O=C1N=C(SC(=O)c2ccccc2Br)SC1=Cc1ccccc1
REMARK SMILES IDX 6 1 7 2 5 3 4 4 1 5 2 6 3 7 16 8 15 9 17 10 18 11 19 12
REMARK SMILES IDX 23 13 20 14 22 15 21 16 8 17 9 18 13 19 10 20 12 21 11 22
REMARK SMILES IDX 14 23
REMARK H PARENT
ROOT
ATOM      1  C   UNL     1       1.971   2.799   0.614  1.00  0.00     0.227 C 
ATOM      2  O   UNL     1       2.597   3.079   1.694  1.00  0.00    -0.281 OA
ENDROOT
BRANCH   1   3
ATOM      3  S   UNL     1       0.536   3.754   0.228  1.00  0.00    -0.019 SA
BRANCH   3   4
ATOM      4  C   UNL     1      -0.872   2.674  -0.041  1.00  0.00     0.146 C 
ATOM      5  O   UNL     1      -4.167   2.179  -1.030  1.00  0.00    -0.266 OA
ATOM      6  C   UNL     1      -2.977   1.960  -0.604  1.00  0.00     0.285 C 
ATOM      7  N   UNL     1      -2.022   2.937  -0.463  1.00  0.00    -0.194 NA
ATOM      8  C   UNL     1      -2.550   0.637  -0.234  1.00  0.00     0.082 C 
ATOM      9  S   UNL     1      -0.871   0.893   0.286  1.00  0.00    -0.057 SA
ATOM     10  C   UNL     1      -3.200  -0.471  -0.267  1.00  0.00     0.029 C 
BRANCH  10  11
ATOM     11  C   UNL     1      -2.660  -1.759   0.137  1.00  0.00    -0.024 A 
ATOM     12  C   UNL     1      -2.963  -2.890  -0.582  1.00  0.00     0.008 A 
ATOM     13  C   UNL     1      -1.833  -1.913   1.243  1.00  0.00     0.008 A 
ATOM     14  C   UNL     1      -2.471  -4.147  -0.231  1.00  0.00     0.001 A 
ATOM     15  C   UNL     1      -1.341  -3.160   1.595  1.00  0.00     0.001 A 
ATOM     16  C   UNL     1      -1.649  -4.284   0.872  1.00  0.00     0.000 A 
ENDBRANCH  10  11
ENDBRANCH   3   4
ENDBRANCH   1   3
BRANCH   1  17
ATOM     17  C   UNL     1       2.522   1.706  -0.154  1.00  0.00     0.043 A 
ATOM     18  C   UNL     1       3.484   0.877   0.432  1.00  0.00     0.014 A 
ATOM     19  C   UNL     1       2.113   1.337  -1.414  1.00  0.00     0.029 A 
ATOM     20  C   UNL     1       3.970  -0.226  -0.224  1.00  0.00     0.001 A 
ATOM     21  C   UNL     1       2.591   0.236  -2.078  1.00  0.00     0.016 A 
ATOM     22  C   UNL     1       3.532  -0.559  -1.480  1.00  0.00     0.001 A 
ATOM     23  Br  UNL     1       0.902   2.464  -2.381  1.00  0.00    -0.050 Br
ENDBRANCH   1  17
TORSDOF 4
