REMARK SMILES C/C(=C\c1ccc2c(c1)OCO2)[N+](=O)[O-]
REMARK SMILES IDX 1 1 2 2 3 3 13 4 14 5 15 6 4 7 5 8 9 9 6 10 8 11 7 12 10 13
REMARK SMILES IDX 12 14 11 15
REMARK H PARENT
ROOT
ATOM      1  C   UNL     1      -2.338   0.885  -1.118  1.00  0.00     0.130 C 
ATOM      2  C   UNL     1      -2.486  -0.558  -0.800  1.00  0.00     0.243 C 
ATOM      3  C   UNL     1      -1.524  -1.163  -0.148  1.00  0.00     0.088 C 
ENDROOT
BRANCH   2   4
ATOM      4  N   UNL     1      -3.683  -1.268  -1.199  1.00  0.00     0.057 N 
ATOM      5  O   UNL     1      -4.780  -0.689  -1.129  1.00  0.00    -0.259 OA
ATOM      6  O   UNL     1      -3.662  -2.556  -1.652  1.00  0.00    -0.259 OA
ENDBRANCH   2   4
BRANCH   3   7
ATOM      7  C   UNL     1      -0.332  -0.467   0.270  1.00  0.00    -0.015 A 
ATOM      8  C   UNL     1      -0.309   0.737   0.902  1.00  0.00     0.012 A 
ATOM      9  C   UNL     1       0.895  -1.067  -0.019  1.00  0.00     0.059 A 
ATOM     10  C   UNL     1       0.887   1.325   1.236  1.00  0.00     0.051 A 
ATOM     11  C   UNL     1       2.082  -0.460   0.325  1.00  0.00     0.166 A 
ATOM     12  C   UNL     1       2.108   0.763   0.967  1.00  0.00     0.165 A 
ATOM     13  O   UNL     1       3.424  -0.833   0.157  1.00  0.00    -0.454 OA
ATOM     14  O   UNL     1       3.454   1.104   1.174  1.00  0.00    -0.454 OA
ATOM     15  C   UNL     1       4.222   0.362   0.198  1.00  0.00     0.468 C 
ENDBRANCH   3   7
TORSDOF 2
