REMARK SMILES COc1ccc([C@@H](C)C(=O)c2ccc([O-])cc2[O-])cc1
REMARK SMILES IDX 7 1 8 2 6 3 3 4 4 5 20 6 5 7 19 8 2 9 1 10 9 11 10 12 11 13
REMARK SMILES IDX 12 14 17 15 13 16 16 17 14 18 18 19 15 20
REMARK H PARENT
ROOT
ATOM      1  C   UNL     1       0.417  -0.540  -0.599  1.00  0.00     0.088 C 
ATOM      2  C   UNL     1      -0.163  -1.331  -1.780  1.00  0.00     0.021 C 
ENDROOT
BRANCH   1   3
ATOM      3  C   UNL     1      -0.098  -1.152   0.646  1.00  0.00    -0.037 A 
ATOM      4  C   UNL     1      -1.087  -2.299   3.051  1.00  0.00     0.118 A 
ATOM      5  C   UNL     1      -1.089  -3.001   1.865  1.00  0.00     0.047 A 
ATOM      6  C   UNL     1      -0.583  -1.014   3.019  1.00  0.00     0.047 A 
ATOM      7  C   UNL     1      -0.600  -2.431   0.682  1.00  0.00     0.008 A 
ATOM      8  C   UNL     1      -0.101  -0.455   1.851  1.00  0.00     0.008 A 
BRANCH   4   9
ATOM      9  O   UNL     1      -1.574  -2.874   4.219  1.00  0.00    -0.497 OA
ATOM     10  C   UNL     1      -2.076  -4.196   4.174  1.00  0.00     0.278 C 
ENDBRANCH   4   9
ENDBRANCH   1   3
BRANCH   1  11
ATOM     11  C   UNL     1       0.033   0.890  -0.743  1.00  0.00     0.169 C 
ATOM     12  O   UNL     1      -0.774   1.463   0.007  1.00  0.00    -0.294 OA
BRANCH  11  13
ATOM     13  C   UNL     1       0.648   1.644  -1.828  1.00  0.00     0.010 A 
ATOM     14  C   UNL     1       1.592   1.140  -2.695  1.00  0.00     0.010 A 
ATOM     15  C   UNL     1       0.290   2.982  -2.027  1.00  0.00    -0.099 A 
ATOM     16  C   UNL     1       2.152   1.915  -3.702  1.00  0.00    -0.008 A 
ATOM     17  C   UNL     1       0.845   3.751  -3.026  1.00  0.00    -0.016 A 
ATOM     18  C   UNL     1       1.788   3.230  -3.884  1.00  0.00    -0.110 A 
ATOM     19  O   UNL     1      -0.660   3.520  -1.170  1.00  0.00    -0.872 OA
ATOM     20  O   UNL     1       2.353   4.013  -4.901  1.00  0.00    -0.872 OA
ENDBRANCH  11  13
ENDBRANCH   1  11
TORSDOF 4
