REMARK SMILES Nc1ccc2oc(-c3cc(Cl)ccc3Cl)nc2c1
REMARK SMILES IDX 2 1 3 2 4 3 5 4 6 5 7 6 16 7 17 8 18 9 1 10 8 13 9 14 14 15
REMARK SMILES IDX 10 16 13 17 12 18 15 19 11 20
REMARK H PARENT 1 11 1 12
ROOT
ATOM      1  C   UNL     1      -3.405  -0.572   1.794  1.00  0.00     0.034 A 
ATOM      2  C   UNL     1      -2.787   0.346   2.627  1.00  0.00     0.029 A 
ATOM      3  C   UNL     1      -1.519   0.775   2.315  1.00  0.00     0.051 A 
ATOM      4  C   UNL     1      -0.822   0.337   1.211  1.00  0.00     0.155 A 
ATOM      5  O   UNL     1       0.385   0.593   0.705  1.00  0.00    -0.436 OA
ATOM      6  C   UNL     1       0.548  -0.115  -0.394  1.00  0.00     0.228 A 
ATOM      7  N   UNL     1      -0.572  -0.833  -0.590  1.00  0.00    -0.209 NA
ATOM      8  C   UNL     1      -1.459  -0.577   0.397  1.00  0.00     0.112 A 
ATOM      9  C   UNL     1      -2.732  -1.027   0.682  1.00  0.00     0.058 A 
ENDROOT
BRANCH   1  10
ATOM     10  N   UNL     1      -4.700  -1.049   2.057  1.00  0.00    -0.399 N 
ATOM     11  H   UNL     1      -5.367  -0.500   2.627  1.00  0.00     0.156 HD
ATOM     12  H   UNL     1      -5.001  -1.964   1.678  1.00  0.00     0.156 HD
ENDBRANCH   1  10
BRANCH   6  13
ATOM     13  C   UNL     1       1.732  -0.119  -1.245  1.00  0.00     0.057 A 
ATOM     14  C   UNL     1       2.830   0.642  -0.973  1.00  0.00     0.035 A 
ATOM     15  C   UNL     1       1.764  -0.914  -2.371  1.00  0.00     0.053 A 
ATOM     16  C   UNL     1       3.934   0.600  -1.820  1.00  0.00     0.041 A 
ATOM     17  C   UNL     1       2.843  -0.969  -3.217  1.00  0.00     0.023 A 
ATOM     18  C   UNL     1       3.940  -0.208  -2.945  1.00  0.00     0.022 A 
ATOM     19  Cl  UNL     1       0.353  -1.902  -2.734  1.00  0.00    -0.083 Cl
ATOM     20  Cl  UNL     1       5.365   1.554  -1.518  1.00  0.00    -0.084 Cl
ENDBRANCH   6  13
TORSDOF 2
