REMARK SMILES CC(=O)Oc1ccccc1C(=O)Nc1ccc(Cl)c(Cl)c1
REMARK SMILES IDX 5 1 6 2 7 3 8 4 9 5 10 6 4 7 2 8 3 9 1 10 11 11 12 12 13 13
REMARK SMILES IDX 14 15 15 16 21 17 16 18 19 19 17 20 20 21 18 22
REMARK H PARENT 13 14
ROOT
ATOM      1  C   UNL     1       0.444   1.174   1.512  1.00  0.00     0.143 A 
ATOM      2  C   UNL     1       0.794   1.862   2.680  1.00  0.00     0.048 A 
ATOM      3  C   UNL     1       1.775   1.423   3.539  1.00  0.00     0.004 A 
ATOM      4  C   UNL     1       2.460   0.260   3.266  1.00  0.00     0.001 A 
ATOM      5  C   UNL     1       2.123  -0.420   2.122  1.00  0.00     0.018 A 
ATOM      6  C   UNL     1       1.121   0.015   1.230  1.00  0.00     0.082 A 
ENDROOT
BRANCH   1   7
ATOM      7  O   UNL     1      -0.558   1.679   0.699  1.00  0.00    -0.426 OA
BRANCH   7   8
ATOM      8  C   UNL     1      -1.914   1.587   1.099  1.00  0.00     0.308 C 
ATOM      9  O   UNL     1      -2.110   1.030   2.209  1.00  0.00    -0.252 OA
ATOM     10  C   UNL     1      -3.014   2.112   0.263  1.00  0.00     0.139 C 
ENDBRANCH   7   8
ENDBRANCH   1   7
BRANCH   6  11
ATOM     11  C   UNL     1       0.932  -0.805   0.061  1.00  0.00     0.259 C 
ATOM     12  O   UNL     1       1.625  -1.881  -0.053  1.00  0.00    -0.269 OA
ATOM     13  N   UNL     1       0.039  -0.542  -0.998  1.00  0.00    -0.322 N 
ATOM     14  H   UNL     1      -0.536   0.311  -0.978  1.00  0.00     0.170 HD
BRANCH  13  15
ATOM     15  C   UNL     1      -0.062  -1.459  -2.120  1.00  0.00     0.043 A 
ATOM     16  C   UNL     1      -0.970  -2.488  -2.058  1.00  0.00     0.028 A 
ATOM     17  C   UNL     1       0.710  -1.348  -3.248  1.00  0.00     0.048 A 
ATOM     18  C   UNL     1      -1.098  -3.395  -3.121  1.00  0.00     0.024 A 
ATOM     19  C   UNL     1       0.613  -2.220  -4.312  1.00  0.00     0.061 A 
ATOM     20  C   UNL     1      -0.303  -3.252  -4.241  1.00  0.00     0.059 A 
ATOM     21  Cl  UNL     1       1.596  -2.069  -5.733  1.00  0.00    -0.083 Cl
ATOM     22  Cl  UNL     1      -0.493  -4.407  -5.549  1.00  0.00    -0.083 Cl
ENDBRANCH  13  15
ENDBRANCH   6  11
TORSDOF 4
