REMARK SMILES N#CC(=C1CCCC1)c1nc(-c2ccc([O-])cc2)cs1
REMARK SMILES IDX 12 1 13 2 14 3 15 4 16 5 17 6 18 7 11 8 9 9 10 10 20 11
REMARK SMILES IDX 19 12 3 13 1 14 2 15 4 16 5 17 8 18 6 19 7 20
REMARK H PARENT
ROOT
ATOM      1  C   UNL     1       2.152  -1.075  -1.635  1.00  0.00     0.001 A 
ATOM      2  C   UNL     1       3.419  -1.475  -1.934  1.00  0.00     0.010 A 
ATOM      3  C   UNL     1       3.693  -2.367  -2.960  1.00  0.00    -0.008 A 
ATOM      4  C   UNL     1       2.641  -2.863  -3.700  1.00  0.00    -0.109 A 
ATOM      5  O   UNL     1       2.844  -3.753  -4.732  1.00  0.00    -0.872 OA
ATOM      6  C   UNL     1       1.326  -2.481  -3.428  1.00  0.00    -0.008 A 
ATOM      7  C   UNL     1       1.113  -1.591  -2.396  1.00  0.00     0.010 A 
ENDROOT
BRANCH   1   8
ATOM      8  C   UNL     1       1.892  -0.076  -0.549  1.00  0.00     0.082 A 
ATOM      9  C   UNL     1       0.368   1.137   0.598  1.00  0.00     0.134 A 
ATOM     10  N   UNL     1       0.677   0.315  -0.224  1.00  0.00    -0.235 NA
ATOM     11  S   UNL     1       1.968   1.678   1.254  1.00  0.00    -0.121 S 
ATOM     12  C   UNL     1       2.902   0.523   0.131  1.00  0.00     0.096 A 
BRANCH   9  13
ATOM     13  C   UNL     1      -0.921   1.696   1.113  1.00  0.00     0.087 C 
ATOM     14  N   UNL     1      -1.170   4.265   1.337  1.00  0.00    -0.192 NA
ATOM     15  C   UNL     1      -1.067   3.088   1.234  1.00  0.00     0.102 C 
ATOM     16  C   UNL     1      -1.876   0.852   1.388  1.00  0.00    -0.049 C 
ATOM     17  C   UNL     1      -1.875  -0.598   1.318  1.00  0.00     0.032 C 
ATOM     18  C   UNL     1      -3.240   1.304   1.843  1.00  0.00     0.032 C 
ATOM     19  C   UNL     1      -3.305  -1.011   1.338  1.00  0.00     0.005 C 
ATOM     20  C   UNL     1      -4.014   0.059   2.114  1.00  0.00     0.005 C 
ENDBRANCH   9  13
ENDBRANCH   1   8
TORSDOF 2
