REMARK SMILES CC(=O)NC1C(=O)N(CCOc2ccccc2Cl)c2ccccc21
REMARK SMILES IDX 9 1 8 2 5 3 6 4 24 5 7 6 23 7 19 8 22 9 20 10 21 11 4 12
REMARK SMILES IDX 2 13 3 14 1 15 10 17 11 18 12 19 13 20 17 21 14 22 16 23
REMARK SMILES IDX 15 24 18 25
REMARK H PARENT 4 16
ROOT
ATOM      1  C   UNL     1       2.227  -0.856   0.233  1.00  0.00     0.167 C 
ENDROOT
BRANCH   1   2
ATOM      2  N   UNL     1       1.070  -0.544   1.105  1.00  0.00    -0.307 N 
ATOM      3  C   UNL     1      -0.242   0.507   2.737  1.00  0.00     0.204 C 
ATOM      4  C   UNL     1       1.070   0.497   2.082  1.00  0.00     0.254 C 
ATOM      5  C   UNL     1      -0.986  -0.582   2.120  1.00  0.00     0.008 A 
ATOM      6  O   UNL     1       2.074   1.247   2.293  1.00  0.00    -0.272 OA
ATOM      7  C   UNL     1      -2.269  -1.094   2.315  1.00  0.00     0.008 A 
ATOM      8  C   UNL     1      -0.196  -1.173   1.165  1.00  0.00     0.050 A 
ATOM      9  C   UNL     1      -2.761  -2.152   1.595  1.00  0.00     0.001 A 
ATOM     10  C   UNL     1      -0.708  -2.252   0.435  1.00  0.00     0.027 A 
ATOM     11  C   UNL     1      -1.979  -2.745   0.641  1.00  0.00     0.002 A 
BRANCH   3  12
ATOM     12  N   UNL     1      -0.891   1.748   2.346  1.00  0.00    -0.341 N 
ATOM     13  C   UNL     1      -1.358   2.706   3.271  1.00  0.00     0.217 C 
ATOM     14  O   UNL     1      -1.209   2.480   4.487  1.00  0.00    -0.275 OA
ATOM     15  C   UNL     1      -2.021   3.972   2.816  1.00  0.00     0.114 C 
ATOM     16  H   UNL     1      -1.011   1.928   1.335  1.00  0.00     0.164 HD
ENDBRANCH   3  12
ENDBRANCH   1   2
BRANCH   1  17
ATOM     17  C   UNL     1       2.209  -0.072  -1.030  1.00  0.00     0.251 C 
BRANCH  17  18
ATOM     18  O   UNL     1       1.181  -0.224  -1.905  1.00  0.00    -0.490 OA
BRANCH  18  19
ATOM     19  C   UNL     1       0.733  -1.253  -2.671  1.00  0.00     0.137 A 
ATOM     20  C   UNL     1       1.358  -2.476  -2.701  1.00  0.00     0.048 A 
ATOM     21  C   UNL     1      -0.405  -1.095  -3.476  1.00  0.00     0.083 A 
ATOM     22  C   UNL     1       0.912  -3.525  -3.479  1.00  0.00     0.004 A 
ATOM     23  C   UNL     1      -0.878  -2.111  -4.261  1.00  0.00     0.024 A 
ATOM     24  C   UNL     1      -0.209  -3.322  -4.253  1.00  0.00     0.002 A 
ATOM     25  Cl  UNL     1      -1.210   0.455  -3.448  1.00  0.00    -0.080 Cl
ENDBRANCH  18  19
ENDBRANCH  17  18
ENDBRANCH   1  17
TORSDOF 5
