REMARK SMILES O=C(Nc1ccc(Cl)c(C(F)(F)F)c1)c1cccnc1
REMARK SMILES IDX 4 1 5 2 6 3 7 4 8 5 9 6 14 7 3 8 1 9 2 10 15 12 16 13 20 14
REMARK SMILES IDX 17 15 19 16 18 17 10 18 11 19 12 20 13 21
REMARK H PARENT 3 11
ROOT
ATOM      1  C   UNL     1       0.354   0.175   0.819  1.00  0.00     0.042 A 
ATOM      2  C   UNL     1      -0.234   1.045   1.714  1.00  0.00     0.028 A 
ATOM      3  C   UNL     1       0.575   1.779   2.572  1.00  0.00     0.023 A 
ATOM      4  C   UNL     1       1.960   1.658   2.550  1.00  0.00     0.053 A 
ATOM      5  Cl  UNL     1       2.919   2.626   3.672  1.00  0.00    -0.084 Cl
ATOM      6  C   UNL     1       2.544   0.788   1.653  1.00  0.00     0.076 A 
ATOM      7  C   UNL     1       1.729   0.066   0.808  1.00  0.00     0.040 A 
ENDROOT
BRANCH   1   8
ATOM      8  N   UNL     1      -0.509  -0.561  -0.045  1.00  0.00    -0.322 N 
ATOM      9  O   UNL     1      -0.401   1.097  -1.598  1.00  0.00    -0.269 OA
ATOM     10  C   UNL     1      -0.882  -0.037  -1.313  1.00  0.00     0.257 C 
ATOM     11  H   UNL     1      -0.891  -1.498   0.221  1.00  0.00     0.170 HD
BRANCH  10  12
ATOM     12  C   UNL     1      -1.759  -0.722  -2.257  1.00  0.00     0.058 A 
ATOM     13  C   UNL     1      -2.306  -1.953  -1.993  1.00  0.00     0.017 A 
ATOM     14  C   UNL     1      -2.044  -0.101  -3.459  1.00  0.00     0.124 A 
ATOM     15  C   UNL     1      -3.132  -2.514  -2.970  1.00  0.00     0.021 A 
ATOM     16  N   UNL     1      -2.846  -0.688  -4.364  1.00  0.00    -0.264 NA
ATOM     17  C   UNL     1      -3.410  -1.890  -4.163  1.00  0.00     0.111 A 
ENDBRANCH  10  12
ENDBRANCH   1   8
BRANCH   6  18
ATOM     18  C   UNL     1       4.025   0.670   1.641  1.00  0.00     0.417 C 
ATOM     19  F   UNL     1       4.404  -0.249   0.676  1.00  0.00    -0.166 F 
ATOM     20  F   UNL     1       4.518   0.246   2.856  1.00  0.00    -0.166 F 
ATOM     21  F   UNL     1       4.545   1.892   1.285  1.00  0.00    -0.166 F 
ENDBRANCH   6  18
TORSDOF 3
