REMARK SMILES Cc1cccc(NC(=O)c2sc(-c3cccnc3)nc2C)c1
REMARK SMILES IDX 7 1 8 2 9 3 6 5 2 6 3 7 22 8 4 9 5 10 1 11 10 12 11 13 20 14
REMARK SMILES IDX 12 15 19 16 21 17 13 18 14 19 18 20 15 21 17 22 16 23
REMARK H PARENT 7 4
ROOT
ATOM      1  N   UNL     1       0.109  -0.265   1.784  1.00  0.00    -0.321 N 
ATOM      2  C   UNL     1       0.199  -0.056   0.421  1.00  0.00     0.267 C 
ATOM      3  O   UNL     1       0.574   1.114   0.064  1.00  0.00    -0.268 OA
ATOM      4  H   UNL     1      -0.191  -1.199   2.111  1.00  0.00     0.170 HD
ENDROOT
BRANCH   1   5
ATOM      5  C   UNL     1       0.399   0.710   2.796  1.00  0.00     0.041 A 
ATOM      6  C   UNL     1      -0.329   2.499   4.255  1.00  0.00    -0.049 A 
ATOM      7  C   UNL     1       0.929   2.635   4.781  1.00  0.00     0.003 A 
ATOM      8  C   UNL     1      -0.586   1.551   3.279  1.00  0.00     0.029 A 
ATOM      9  C   UNL     1       1.937   1.803   4.313  1.00  0.00     0.002 A 
ATOM     10  C   UNL     1       1.659   0.862   3.336  1.00  0.00     0.026 A 
ATOM     11  C   UNL     1      -1.425   3.388   4.749  1.00  0.00     0.044 C 
ENDBRANCH   1   5
BRANCH   2  12
ATOM     12  C   UNL     1      -0.090  -1.028  -0.657  1.00  0.00     0.116 A 
ATOM     13  S   UNL     1       0.091  -0.553  -2.418  1.00  0.00    -0.108 S 
ATOM     14  C   UNL     1      -0.485  -2.286  -0.742  1.00  0.00     0.062 A 
ATOM     15  C   UNL     1      -0.444  -2.276  -2.983  1.00  0.00     0.125 A 
ATOM     16  N   UNL     1      -0.618  -2.771  -1.960  1.00  0.00    -0.240 NA
ATOM     17  C   UNL     1      -0.769  -3.116   0.487  1.00  0.00     0.068 C 
BRANCH  15  18
ATOM     18  C   UNL     1      -0.491  -2.505  -4.469  1.00  0.00     0.029 A 
ATOM     19  C   UNL     1      -0.172  -1.547  -5.381  1.00  0.00     0.014 A 
ATOM     20  C   UNL     1      -0.873  -3.742  -4.926  1.00  0.00     0.122 A 
ATOM     21  C   UNL     1      -0.240  -1.834  -6.741  1.00  0.00     0.021 A 
ATOM     22  N   UNL     1      -0.938  -4.019  -6.245  1.00  0.00    -0.264 NA
ATOM     23  C   UNL     1      -0.627  -3.082  -7.152  1.00  0.00     0.111 A 
ENDBRANCH  15  18
ENDBRANCH   2  12
TORSDOF 3
