REMARK SMILES c1ccc(-n2nnnc2SCCNCC2CCCCC2)cc1
REMARK SMILES IDX 11 1 10 2 9 3 5 4 6 5 7 6 8 7 4 8 1 9 2 10 22 11 3 12 21 13
REMARK SMILES IDX 12 14 13 15 14 17 15 18 16 19 20 20 17 21 19 22 18 23
REMARK H PARENT 13 16
ROOT
ATOM      1  C   UNL     1       1.205   0.991  -0.956  1.00  0.00     0.093 C 
ENDROOT
BRANCH   1   2
ATOM      2  S   UNL     1       1.387   0.168   0.664  1.00  0.00    -0.083 SA
BRANCH   2   3
ATOM      3  C   UNL     1       2.983   0.645   1.310  1.00  0.00     0.214 A 
ATOM      4  N   UNL     1       4.160  -0.016   1.151  1.00  0.00    -0.188 N 
ATOM      5  N   UNL     1       5.116   0.668   1.754  1.00  0.00    -0.039 NA
ATOM      6  N   UNL     1       4.577   1.742   2.292  1.00  0.00    -0.022 NA
ATOM      7  N   UNL     1       3.266   1.739   2.026  1.00  0.00    -0.101 NA
BRANCH   4   8
ATOM      8  C   UNL     1       4.288  -1.249   0.459  1.00  0.00     0.069 A 
ATOM      9  C   UNL     1       4.506  -3.715  -0.815  1.00  0.00     0.000 A 
ATOM     10  C   UNL     1       4.827  -2.555  -1.477  1.00  0.00     0.002 A 
ATOM     11  C   UNL     1       4.073  -3.656   0.490  1.00  0.00     0.002 A 
ATOM     12  C   UNL     1       4.715  -1.335  -0.834  1.00  0.00     0.028 A 
ATOM     13  C   UNL     1       3.970  -2.436   1.105  1.00  0.00     0.028 A 
ENDBRANCH   4   8
ENDBRANCH   2   3
ENDBRANCH   1   2
BRANCH   1  14
ATOM     14  C   UNL     1       1.095   2.479  -0.671  1.00  0.00     0.092 C 
BRANCH  14  15
ATOM     15  N   UNL     1      -0.041   2.790   0.150  1.00  0.00    -0.316 NA
ATOM     16  H   UNL     1       0.009   2.511   1.118  1.00  0.00     0.122 HD
BRANCH  15  17
ATOM     17  C   UNL     1      -1.294   2.627  -0.506  1.00  0.00     0.084 C 
BRANCH  17  18
ATOM     18  C   UNL     1      -2.500   2.849   0.326  1.00  0.00     0.003 C 
ATOM     19  C   UNL     1      -3.727   2.656  -0.551  1.00  0.00     0.005 C 
ATOM     20  C   UNL     1      -2.614   1.892   1.490  1.00  0.00     0.005 C 
ATOM     21  C   UNL     1      -3.828   1.287  -1.131  1.00  0.00     0.000 C 
ATOM     22  C   UNL     1      -2.821   0.466   1.024  1.00  0.00     0.000 C 
ATOM     23  C   UNL     1      -3.904   0.303   0.009  1.00  0.00     0.000 C 
ENDBRANCH  17  18
ENDBRANCH  15  17
ENDBRANCH  14  15
ENDBRANCH   1  14
TORSDOF 7
