REMARK SMILES Fc1ccc(CNc2nc(=S)[n-]c3ccccc23)cc1
REMARK SMILES IDX 6 1 5 2 2 3 3 4 20 5 4 6 19 7 1 8 7 9 8 11 9 12 18 13 10 14
REMARK SMILES IDX 17 15 13 16 11 17 12 18 16 19 14 20 15 21
REMARK H PARENT 7 10
ROOT
ATOM      1  C   UNL     1       0.447  -1.291   1.734  1.00  0.00     0.148 C 
ENDROOT
BRANCH   1   2
ATOM      2  C   UNL     1      -0.470  -0.169   2.078  1.00  0.00    -0.029 A 
ATOM      3  C   UNL     1      -2.177   1.906   2.765  1.00  0.00     0.123 A 
ATOM      4  C   UNL     1      -2.672   0.615   2.652  1.00  0.00     0.039 A 
ATOM      5  C   UNL     1      -0.845   2.160   2.539  1.00  0.00     0.039 A 
ATOM      6  C   UNL     1      -1.826  -0.412   2.312  1.00  0.00     0.008 A 
ATOM      7  C   UNL     1      -0.026   1.114   2.201  1.00  0.00     0.008 A 
ATOM      8  F   UNL     1      -2.988   2.953   3.101  1.00  0.00    -0.207 F 
ENDBRANCH   1   2
BRANCH   1   9
ATOM      9  N   UNL     1       0.420  -1.654   0.344  1.00  0.00    -0.383 N 
ATOM     10  H   UNL     1       0.115  -2.630   0.130  1.00  0.00     0.160 HD
BRANCH   9  11
ATOM     11  C   UNL     1       0.771  -0.800  -0.741  1.00  0.00     0.029 A 
ATOM     12  N   UNL     1       1.177   0.470  -0.520  1.00  0.00    -0.412 NA
ATOM     13  C   UNL     1       0.711  -1.241  -2.045  1.00  0.00    -0.003 A 
ATOM     14  C   UNL     1       1.526   1.336  -1.477  1.00  0.00     0.011 A 
ATOM     15  C   UNL     1       0.318  -2.497  -2.394  1.00  0.00     0.010 A 
ATOM     16  C   UNL     1       1.066  -0.367  -3.051  1.00  0.00    -0.032 A 
ATOM     17  S   UNL     1       2.010   2.864  -1.147  1.00  0.00    -0.090 S 
ATOM     18  N   UNL     1       1.460   0.886  -2.743  1.00  0.00    -0.426 NA
ATOM     19  C   UNL     1       0.270  -2.905  -3.722  1.00  0.00     0.001 A 
ATOM     20  C   UNL     1       1.030  -0.746  -4.406  1.00  0.00     0.004 A 
ATOM     21  C   UNL     1       0.626  -2.026  -4.707  1.00  0.00     0.000 A 
ENDBRANCH   9  11
ENDBRANCH   1   9
TORSDOF 3
