REMARK SMILES Fc1ccc(CNc2nc(=S)[nH]c3ccccc23)cc1
REMARK SMILES IDX 6 1 5 2 2 3 3 4 20 5 4 6 19 7 1 8 7 9 8 11 9 12 18 13 10 14
REMARK SMILES IDX 17 15 13 16 11 17 12 18 16 19 14 20 15 21
REMARK H PARENT 7 10 12 22
ROOT
ATOM      1  C   UNL     1       0.293  -1.582   1.825  1.00  0.00     0.150 C 
ENDROOT
BRANCH   1   2
ATOM      2  C   UNL     1      -0.282  -0.287   2.254  1.00  0.00    -0.029 A 
ATOM      3  C   UNL     1      -1.396   2.126   3.126  1.00  0.00     0.123 A 
ATOM      4  C   UNL     1      -2.171   1.021   2.947  1.00  0.00     0.039 A 
ATOM      5  C   UNL     1      -0.045   2.032   2.868  1.00  0.00     0.039 A 
ATOM      6  C   UNL     1      -1.644  -0.164   2.522  1.00  0.00     0.008 A 
ATOM      7  C   UNL     1       0.511   0.821   2.432  1.00  0.00     0.008 A 
ATOM      8  F   UNL     1      -1.947   3.288   3.548  1.00  0.00    -0.207 F 
ENDBRANCH   1   2
BRANCH   1   9
ATOM      9  N   UNL     1       0.054  -1.805   0.414  1.00  0.00    -0.365 N 
ATOM     10  H   UNL     1      -0.534  -2.650   0.144  1.00  0.00     0.162 HD
BRANCH   9  11
ATOM     11  C   UNL     1       0.558  -0.968  -0.592  1.00  0.00     0.138 A 
ATOM     12  N   UNL     1       1.313   0.108  -0.312  1.00  0.00    -0.202 NA
ATOM     13  C   UNL     1       0.296  -1.227  -1.934  1.00  0.00     0.041 A 
ATOM     14  C   UNL     1       1.793   0.897  -1.258  1.00  0.00     0.199 A 
ATOM     15  C   UNL     1      -0.461  -2.293  -2.358  1.00  0.00     0.014 A 
ATOM     16  C   UNL     1       0.820  -0.374  -2.888  1.00  0.00     0.051 A 
ATOM     17  S   UNL     1       2.710   2.202  -0.870  1.00  0.00    -0.038 S 
ATOM     18  N   UNL     1       1.569   0.692  -2.572  1.00  0.00    -0.330 N 
ATOM     19  C   UNL     1      -0.697  -2.513  -3.712  1.00  0.00     0.001 A 
ATOM     20  C   UNL     1       0.569  -0.614  -4.244  1.00  0.00     0.027 A 
ATOM     21  C   UNL     1      -0.182  -1.671  -4.677  1.00  0.00     0.002 A 
ATOM     22  H   UNL     1       1.941   1.305  -3.327  1.00  0.00     0.169 HD
ENDBRANCH   9  11
ENDBRANCH   1   9
TORSDOF 3
