REMARK SMILES Cc1ccc(C23CC4CC(CC(C(=O)N5CCOCC5)(C4)C2)C3)cc1
REMARK SMILES IDX 6 1 23 2 10 3 9 4 8 5 21 6 12 7 11 8 22 9 7 10 5 11 2 12
REMARK SMILES IDX 3 13 25 14 4 15 24 16 1 17 13 18 14 19 15 20 16 21 20 22
REMARK SMILES IDX 17 23 19 24 18 25
REMARK H PARENT
ROOT
ATOM      1  C   UNL     1       0.611  -0.160   1.302  1.00  0.00    -0.003 C 
ATOM      2  C   UNL     1       2.083  -0.352   1.629  1.00  0.00     0.015 C 
ATOM      3  C   UNL     1       2.435  -1.772   1.329  1.00  0.00    -0.009 C 
ATOM      4  C   UNL     1       1.643  -2.766   2.151  1.00  0.00     0.007 C 
ATOM      5  C   UNL     1       0.201  -2.570   1.823  1.00  0.00    -0.009 C 
ATOM      6  C   UNL     1      -0.106  -2.822   0.357  1.00  0.00     0.020 C 
ATOM      7  C   UNL     1       0.752  -1.926  -0.481  1.00  0.00     0.051 C 
ATOM      8  C   UNL     1       2.239  -2.145  -0.109  1.00  0.00     0.020 C 
ATOM      9  C   UNL     1       0.468  -0.494  -0.167  1.00  0.00     0.028 C 
ATOM     10  C   UNL     1      -0.164  -1.125   2.165  1.00  0.00     0.015 C 
ENDROOT
BRANCH   1  11
ATOM     11  C   UNL     1       0.140   1.219   1.547  1.00  0.00    -0.042 A 
ATOM     12  C   UNL     1      -0.758   3.874   1.990  1.00  0.00    -0.051 A 
ATOM     13  C   UNL     1      -0.816   2.926   2.987  1.00  0.00     0.004 A 
ATOM     14  C   UNL     1      -0.251   3.491   0.769  1.00  0.00     0.004 A 
ATOM     15  C   UNL     1      -0.375   1.617   2.778  1.00  0.00     0.004 A 
ATOM     16  C   UNL     1       0.184   2.190   0.570  1.00  0.00     0.004 A 
ATOM     17  C   UNL     1      -1.236   5.276   2.232  1.00  0.00     0.044 C 
ENDBRANCH   1  11
BRANCH   7  18
ATOM     18  C   UNL     1       0.630  -2.147  -1.931  1.00  0.00     0.228 C 
ATOM     19  O   UNL     1       1.763  -2.486  -2.495  1.00  0.00    -0.274 OA
ATOM     20  N   UNL     1      -0.489  -2.043  -2.740  1.00  0.00    -0.338 N 
ATOM     21  C   UNL     1      -1.850  -1.703  -2.464  1.00  0.00     0.148 C 
ATOM     22  C   UNL     1      -0.289  -2.337  -4.207  1.00  0.00     0.148 C 
ATOM     23  C   UNL     1      -2.673  -2.927  -2.871  1.00  0.00     0.181 C 
ATOM     24  C   UNL     1      -1.201  -3.459  -4.573  1.00  0.00     0.181 C 
ATOM     25  O   UNL     1      -2.511  -3.264  -4.186  1.00  0.00    -0.378 OA
ENDBRANCH   7  18
TORSDOF 2
