REMARK SMILES Cc1ccc(C23CC4CC(CC(C(=O)[NH+]5CCOCC5)(C4)C2)C3)cc1
REMARK SMILES IDX 6 1 23 2 10 3 9 4 8 5 21 6 12 7 11 8 22 9 7 10 5 11 2 12
REMARK SMILES IDX 3 13 25 14 4 15 24 16 1 17 13 18 14 19 15 20 16 21 20 22
REMARK SMILES IDX 17 23 19 24 18 25
REMARK H PARENT 15 26
ROOT
ATOM      1  C   UNL     1       0.617   0.211   1.486  1.00  0.00    -0.003 C 
ATOM      2  C   UNL     1       0.988  -0.860   2.468  1.00  0.00     0.015 C 
ATOM      3  C   UNL     1       1.944  -1.803   1.796  1.00  0.00    -0.009 C 
ATOM      4  C   UNL     1       3.188  -1.012   1.441  1.00  0.00     0.007 C 
ATOM      5  C   UNL     1       2.783   0.003   0.398  1.00  0.00    -0.009 C 
ATOM      6  C   UNL     1       2.126  -0.630  -0.776  1.00  0.00     0.025 C 
ATOM      7  C   UNL     1       0.896  -1.439  -0.399  1.00  0.00     0.087 C 
ATOM      8  C   UNL     1       1.386  -2.462   0.583  1.00  0.00     0.025 C 
ATOM      9  C   UNL     1      -0.021  -0.434   0.286  1.00  0.00     0.033 C 
ATOM     10  C   UNL     1       1.812   0.997   1.003  1.00  0.00     0.015 C 
ENDROOT
BRANCH   1  11
ATOM     11  C   UNL     1      -0.374   1.169   2.040  1.00  0.00    -0.042 A 
ATOM     12  C   UNL     1      -2.263   3.045   3.014  1.00  0.00    -0.051 A 
ATOM     13  C   UNL     1      -1.818   1.999   3.792  1.00  0.00     0.004 A 
ATOM     14  C   UNL     1      -1.747   3.139   1.737  1.00  0.00     0.004 A 
ATOM     15  C   UNL     1      -0.898   1.083   3.323  1.00  0.00     0.004 A 
ATOM     16  C   UNL     1      -0.819   2.215   1.262  1.00  0.00     0.004 A 
ATOM     17  C   UNL     1      -3.256   4.041   3.508  1.00  0.00     0.044 C 
ENDBRANCH   1  11
BRANCH   7  18
ATOM     18  C   UNL     1       0.280  -1.932  -1.609  1.00  0.00     0.318 C 
ATOM     19  O   UNL     1       0.782  -1.475  -2.612  1.00  0.00    -0.230 OA
BRANCH  18  20
ATOM     20  N   UNL     1      -0.632  -2.697  -2.289  1.00  0.00    -0.268 N 
ATOM     21  C   UNL     1      -1.374  -1.996  -3.406  1.00  0.00     0.299 C 
ATOM     22  C   UNL     1       0.005  -3.714  -3.065  1.00  0.00     0.299 C 
ATOM     23  C   UNL     1      -2.527  -2.827  -3.833  1.00  0.00     0.222 C 
ATOM     24  C   UNL     1      -0.911  -4.344  -4.096  1.00  0.00     0.222 C 
ATOM     25  O   UNL     1      -2.251  -4.187  -3.759  1.00  0.00    -0.370 OA
ATOM     26  H   UNL     1      -1.422  -2.874  -1.789  1.00  0.00     0.356 HD
ENDBRANCH  18  20
ENDBRANCH   7  18
TORSDOF 3
