REMARK SMILES Cc1nc2c(-c3ccccc3)cnn2c(NCc2cccnc2)c1C
REMARK SMILES IDX 16 1 15 3 2 4 3 5 24 6 4 7 5 8 14 9 12 10 13 11 1 12 25 13
REMARK SMILES IDX 6 14 7 15 11 16 8 17 10 18 9 19 17 20 18 21 19 22 23 23
REMARK SMILES IDX 20 24 22 25 21 26
REMARK H PARENT 16 2
ROOT
ATOM      1  N   UNL     1      -1.549  -2.561  -1.801  1.00  0.00    -0.366 N 
ATOM      2  H   UNL     1      -1.060  -3.345  -2.323  1.00  0.00     0.162 HD
ENDROOT
BRANCH   1   3
ATOM      3  C   UNL     1      -0.761  -1.444  -1.482  1.00  0.00     0.135 A 
ATOM      4  C   UNL     1      -0.109   0.809  -1.815  1.00  0.00     0.046 A 
ATOM      5  N   UNL     1       0.783   0.672  -0.794  1.00  0.00    -0.233 NA
ATOM      6  C   UNL     1      -0.893  -0.269  -2.162  1.00  0.00     0.013 A 
ATOM      7  C   UNL     1       0.897  -0.498  -0.135  1.00  0.00     0.165 A 
ATOM      8  C   UNL     1       1.725  -0.887   0.917  1.00  0.00     0.047 A 
ATOM      9  N   UNL     1       0.139  -1.559  -0.462  1.00  0.00    -0.198 N 
ATOM     10  C   UNL     1       1.406  -2.200   1.170  1.00  0.00     0.146 A 
ATOM     11  N   UNL     1       0.424  -2.600   0.310  1.00  0.00    -0.172 NA
ATOM     12  C   UNL     1      -0.221   2.113  -2.537  1.00  0.00     0.067 C 
ATOM     13  C   UNL     1      -1.879  -0.185  -3.259  1.00  0.00     0.050 C 
BRANCH   8  14
ATOM     14  C   UNL     1       2.696  -0.004   1.553  1.00  0.00    -0.013 A 
ATOM     15  C   UNL     1       2.892   0.065   2.915  1.00  0.00     0.009 A 
ATOM     16  C   UNL     1       3.483   0.832   0.762  1.00  0.00     0.009 A 
ATOM     17  C   UNL     1       3.814   0.912   3.484  1.00  0.00     0.001 A 
ATOM     18  C   UNL     1       4.408   1.683   1.334  1.00  0.00     0.001 A 
ATOM     19  C   UNL     1       4.595   1.742   2.703  1.00  0.00     0.000 A 
ENDBRANCH   8  14
ENDBRANCH   1   3
BRANCH   1  20
ATOM     20  C   UNL     1      -2.933  -2.601  -1.421  1.00  0.00     0.152 C 
BRANCH  20  21
ATOM     21  C   UNL     1      -3.190  -2.368   0.007  1.00  0.00    -0.010 A 
ATOM     22  C   UNL     1      -3.191  -3.395   0.914  1.00  0.00     0.009 A 
ATOM     23  C   UNL     1      -3.447  -1.094   0.458  1.00  0.00     0.116 A 
ATOM     24  C   UNL     1      -3.451  -3.126   2.255  1.00  0.00     0.020 A 
ATOM     25  N   UNL     1      -3.698  -0.857   1.777  1.00  0.00    -0.264 NA
ATOM     26  C   UNL     1      -3.704  -1.842   2.673  1.00  0.00     0.111 A 
ENDBRANCH  20  21
ENDBRANCH   1  20
TORSDOF 4
