REMARK SMILES Cn1c(SCc2ccccc2Cl)nc2c(=O)nc[nH]c21
REMARK SMILES IDX 4 1 3 2 2 3 20 4 13 5 19 6 14 7 18 8 15 9 17 10 16 11 1 12
REMARK SMILES IDX 5 14 6 15 7 16 11 17 8 18 10 19 9 20 12 21
REMARK H PARENT 19 13
ROOT
ATOM      1  S   UNL     1       0.080  -1.708   1.441  1.00  0.00    -0.083 SA
ENDROOT
BRANCH   1   2
ATOM      2  C   UNL     1      -0.687  -1.363  -0.123  1.00  0.00     0.170 A 
ATOM      3  N   UNL     1      -2.029  -1.140  -0.257  1.00  0.00    -0.308 N 
ATOM      4  C   UNL     1      -2.355  -0.980  -1.545  1.00  0.00     0.145 A 
ATOM      5  N   UNL     1      -0.190  -1.336  -1.361  1.00  0.00    -0.215 NA
ATOM      6  N   UNL     1      -3.510  -0.744  -2.216  1.00  0.00    -0.330 N 
ATOM      7  C   UNL     1      -1.185  -1.103  -2.259  1.00  0.00     0.174 A 
ATOM      8  C   UNL     1      -3.546  -0.629  -3.548  1.00  0.00     0.202 A 
ATOM      9  C   UNL     1      -1.223  -0.985  -3.630  1.00  0.00     0.300 A 
ATOM     10  N   UNL     1      -2.394  -0.753  -4.239  1.00  0.00    -0.198 NA
ATOM     11  O   UNL     1      -0.124  -1.107  -4.263  1.00  0.00    -0.265 OA
ATOM     12  C   UNL     1      -2.989  -1.061   0.828  1.00  0.00     0.154 C 
ATOM     13  H   UNL     1      -4.371  -0.653  -1.655  1.00  0.00     0.169 HD
ENDBRANCH   1   2
BRANCH   1  14
ATOM     14  C   UNL     1       1.858  -1.789   1.279  1.00  0.00     0.115 C 
BRANCH  14  15
ATOM     15  C   UNL     1       2.364  -0.390   1.098  1.00  0.00    -0.019 A 
ATOM     16  C   UNL     1       1.654   0.626   1.740  1.00  0.00     0.006 A 
ATOM     17  C   UNL     1       3.467  -0.092   0.354  1.00  0.00     0.045 A 
ATOM     18  C   UNL     1       2.063   1.917   1.624  1.00  0.00     0.000 A 
ATOM     19  C   UNL     1       3.897   1.236   0.230  1.00  0.00     0.021 A 
ATOM     20  C   UNL     1       3.189   2.219   0.865  1.00  0.00     0.002 A 
ATOM     21  Cl  UNL     1       4.363  -1.380  -0.455  1.00  0.00    -0.084 Cl
ENDBRANCH  14  15
ENDBRANCH   1  14
TORSDOF 3
