REMARK SMILES Cn1c(SCc2ccccc2Cl)nc2c(=O)nc[n-]c21
REMARK SMILES IDX 4 1 3 2 2 3 20 4 13 5 19 6 14 7 18 8 15 9 17 10 16 11 1 12
REMARK SMILES IDX 5 13 6 14 7 15 11 16 8 17 10 18 9 19 12 20
REMARK H PARENT
ROOT
ATOM      1  S   UNL     1      -0.013  -1.875   1.477  1.00  0.00    -0.099 SA
ENDROOT
BRANCH   1   2
ATOM      2  C   UNL     1      -0.916  -1.341   0.028  1.00  0.00     0.113 A 
ATOM      3  N   UNL     1      -2.240  -1.162  -0.023  1.00  0.00    -0.381 N 
ATOM      4  C   UNL     1      -2.607  -0.775  -1.259  1.00  0.00     0.036 A 
ATOM      5  N   UNL     1      -0.438  -1.061  -1.199  1.00  0.00    -0.234 NA
ATOM      6  N   UNL     1      -3.815  -0.471  -1.826  1.00  0.00    -0.364 NA
ATOM      7  C   UNL     1      -1.457  -0.709  -2.017  1.00  0.00     0.127 A 
ATOM      8  C   UNL     1      -3.913  -0.106  -3.116  1.00  0.00     0.045 A 
ATOM      9  C   UNL     1      -1.557  -0.335  -3.339  1.00  0.00     0.229 A 
ATOM     10  N   UNL     1      -2.782  -0.046  -3.843  1.00  0.00    -0.332 NA
ATOM     11  O   UNL     1      -0.500  -0.279  -4.013  1.00  0.00    -0.284 OA
ATOM     12  C   UNL     1      -3.218  -1.329   1.043  1.00  0.00     0.059 C 
ENDBRANCH   1   2
BRANCH   1  13
ATOM     13  C   UNL     1       1.749  -1.939   0.999  1.00  0.00     0.113 C 
BRANCH  13  14
ATOM     14  C   UNL     1       2.191  -0.523   0.803  1.00  0.00    -0.019 A 
ATOM     15  C   UNL     1       1.426   0.553   1.223  1.00  0.00     0.006 A 
ATOM     16  C   UNL     1       3.397  -0.237   0.218  1.00  0.00     0.045 A 
ATOM     17  C   UNL     1       1.787   1.856   1.096  1.00  0.00     0.000 A 
ATOM     18  C   UNL     1       3.813   1.085   0.065  1.00  0.00     0.021 A 
ATOM     19  C   UNL     1       3.012   2.122   0.501  1.00  0.00     0.002 A 
ATOM     20  Cl  UNL     1       4.463  -1.475  -0.361  1.00  0.00    -0.084 Cl
ENDBRANCH  13  14
ENDBRANCH   1  13
TORSDOF 3
