REMARK SMILES C[NH+](C(=O)c1ccccc1[O-])C1CCCCC1
REMARK SMILES IDX 3 1 4 2 2 3 1 4 12 6 13 7 17 8 14 9 16 10 15 11 5 12 6 13
REMARK SMILES IDX 10 14 7 15 9 16 8 17 11 18
REMARK H PARENT 2 5
ROOT
ATOM      1  C   UNL     1      -0.026   0.624   0.423  1.00  0.00     0.343 C 
ATOM      2  O   UNL     1      -1.031   1.253   0.780  1.00  0.00    -0.226 OA
ENDROOT
BRANCH   1   3
ATOM      3  N   UNL     1      -0.640   0.237  -0.706  1.00  0.00    -0.267 N 
ATOM      4  C   UNL     1      -1.231   1.317  -1.557  1.00  0.00     0.341 C 
ATOM      5  H   UNL     1      -0.134  -0.237  -1.311  1.00  0.00     0.357 HD
BRANCH   3   6
ATOM      6  C   UNL     1      -1.851  -0.621  -0.476  1.00  0.00     0.191 C 
ATOM      7  C   UNL     1      -2.541  -0.937  -1.748  1.00  0.00     0.065 C 
ATOM      8  C   UNL     1      -1.544  -1.832   0.324  1.00  0.00     0.065 C 
ATOM      9  C   UNL     1      -1.778  -1.866  -2.654  1.00  0.00     0.006 C 
ATOM     10  C   UNL     1      -1.392  -3.084  -0.489  1.00  0.00     0.006 C 
ATOM     11  C   UNL     1      -0.910  -2.828  -1.897  1.00  0.00     0.000 C 
ENDBRANCH   3   6
ENDBRANCH   1   3
BRANCH   1  12
ATOM     12  C   UNL     1       1.069   0.685   1.339  1.00  0.00     0.071 A 
ATOM     13  C   UNL     1       0.916   1.419   2.504  1.00  0.00     0.017 A 
ATOM     14  C   UNL     1       2.294   0.073   1.179  1.00  0.00    -0.092 A 
ATOM     15  C   UNL     1       1.900   1.549   3.458  1.00  0.00     0.001 A 
ATOM     16  C   UNL     1       3.269   0.193   2.110  1.00  0.00    -0.008 A 
ATOM     17  C   UNL     1       3.109   0.929   3.273  1.00  0.00    -0.001 A 
ATOM     18  O   UNL     1       2.510  -0.673   0.040  1.00  0.00    -0.872 OA
ENDBRANCH   1  12
TORSDOF 3
