REMARK SMILES N#CC1=C(N)Oc2c(oc(CO)cc2=O)C1c1cccc2ccccc12
REMARK SMILES IDX 1 1 2 2 3 3 4 4 6 5 7 6 8 7 9 8 10 9 13 10 14 11 15 12 16 13
REMARK SMILES IDX 5 14 17 17 18 18 26 19 19 20 25 21 21 22 20 23 24 24 22 25
REMARK SMILES IDX 23 26 11 27 12 28
REMARK H PARENT 5 15 5 16 12 29
ROOT
ATOM      1  N   UNL     1      -2.706   2.069  -2.664  1.00  0.00    -0.193 NA
ATOM      2  C   UNL     1      -2.041   1.911  -1.715  1.00  0.00     0.101 C 
ATOM      3  C   UNL     1      -1.203   1.712  -0.553  1.00  0.00     0.105 C 
ATOM      4  C   UNL     1      -0.364   2.667  -0.148  1.00  0.00     0.206 C 
ATOM      5  O   UNL     1       0.450   2.462   0.982  1.00  0.00    -0.433 OA
ATOM      6  C   UNL     1       0.425   1.305   1.707  1.00  0.00     0.215 A 
ATOM      7  C   UNL     1      -0.431   0.293   1.327  1.00  0.00     0.163 A 
ATOM      8  O   UNL     1      -0.483  -0.846   1.997  1.00  0.00    -0.458 OA
ATOM      9  C   UNL     1       0.241  -1.111   3.038  1.00  0.00     0.133 A 
ATOM     10  C   UNL     1       1.126  -0.130   3.476  1.00  0.00     0.101 A 
ATOM     11  C   UNL     1       1.218   1.075   2.811  1.00  0.00     0.228 A 
ATOM     12  O   UNL     1       2.025   1.939   3.229  1.00  0.00    -0.285 OA
ATOM     13  C   UNL     1      -1.333   0.424   0.168  1.00  0.00     0.137 C 
ENDROOT
BRANCH   4  14
ATOM     14  N   UNL     1      -0.348   3.863  -0.910  1.00  0.00    -0.369 N 
ATOM     15  H   UNL     1       0.560   4.344  -1.075  1.00  0.00     0.159 HD
ATOM     16  H   UNL     1      -1.197   4.301  -1.324  1.00  0.00     0.159 HD
ENDBRANCH   4  14
BRANCH  13  17
ATOM     17  C   UNL     1      -1.450  -0.754  -0.689  1.00  0.00    -0.024 A 
ATOM     18  C   UNL     1      -2.647  -1.487  -0.757  1.00  0.00     0.005 A 
ATOM     19  C   UNL     1      -0.429  -1.232  -1.483  1.00  0.00    -0.014 A 
ATOM     20  C   UNL     1      -2.788  -2.598  -1.557  1.00  0.00     0.001 A 
ATOM     21  C   UNL     1       0.792  -0.595  -1.496  1.00  0.00     0.009 A 
ATOM     22  C   UNL     1      -0.546  -2.349  -2.298  1.00  0.00    -0.018 A 
ATOM     23  C   UNL     1      -1.748  -3.044  -2.335  1.00  0.00     0.009 A 
ATOM     24  C   UNL     1       1.876  -0.999  -2.258  1.00  0.00     0.001 A 
ATOM     25  C   UNL     1       0.511  -2.796  -3.081  1.00  0.00     0.009 A 
ATOM     26  C   UNL     1       1.703  -2.114  -3.048  1.00  0.00     0.001 A 
ENDBRANCH  13  17
BRANCH   9  27
ATOM     27  C   UNL     1       0.164  -2.407   3.778  1.00  0.00     0.231 C 
BRANCH  27  28
ATOM     28  O   UNL     1       1.063  -3.333   3.261  1.00  0.00    -0.388 OA
ATOM     29  H   UNL     1       1.609  -2.966   2.526  1.00  0.00     0.211 HD
ENDBRANCH  27  28
ENDBRANCH   9  27
TORSDOF 4
