REMARK SMILES COc1ccc(NC(=O)c2ccccc2[N-]S(=O)(=O)c2ccc(C)cc2)cc1
REMARK SMILES IDX 10 1 11 2 12 3 13 4 14 5 15 6 8 7 7 8 9 9 6 11 3 12 4 13
REMARK SMILES IDX 28 14 5 15 27 16 2 17 1 18 16 19 17 20 18 21 19 22 20 23
REMARK SMILES IDX 21 24 26 25 22 26 25 27 23 28 24 29
REMARK H PARENT 7 10
ROOT
ATOM      1  C   UNL     1       1.312   0.521  -2.554  1.00  0.00     0.025 A 
ATOM      2  C   UNL     1       2.333   0.138  -3.399  1.00  0.00     0.012 A 
ATOM      3  C   UNL     1       2.650   0.880  -4.509  1.00  0.00     0.001 A 
ATOM      4  C   UNL     1       1.928   2.006  -4.752  1.00  0.00    -0.001 A 
ATOM      5  C   UNL     1       0.923   2.416  -3.950  1.00  0.00    -0.015 A 
ATOM      6  C   UNL     1       0.577   1.676  -2.811  1.00  0.00    -0.115 A 
ENDROOT
BRANCH   1   7
ATOM      7  C   UNL     1       0.997  -0.289  -1.385  1.00  0.00     0.254 C 
ATOM      8  N   UNL     1       1.911  -0.524  -0.316  1.00  0.00    -0.322 N 
ATOM      9  O   UNL     1      -0.126  -0.829  -1.271  1.00  0.00    -0.269 OA
ATOM     10  H   UNL     1       2.847  -0.085  -0.390  1.00  0.00     0.170 HD
BRANCH   8  11
ATOM     11  C   UNL     1       1.582  -1.321   0.815  1.00  0.00     0.041 A 
ATOM     12  C   UNL     1       0.928  -3.004   3.003  1.00  0.00     0.119 A 
ATOM     13  C   UNL     1       0.733  -1.640   3.048  1.00  0.00     0.048 A 
ATOM     14  C   UNL     1       1.461  -3.507   1.833  1.00  0.00     0.048 A 
ATOM     15  C   UNL     1       1.055  -0.819   1.973  1.00  0.00     0.030 A 
ATOM     16  C   UNL     1       1.783  -2.696   0.764  1.00  0.00     0.030 A 
BRANCH  12  17
ATOM     17  O   UNL     1       0.624  -3.846   4.037  1.00  0.00    -0.497 OA
ATOM     18  C   UNL     1       0.799  -5.228   4.042  1.00  0.00     0.278 C 
ENDBRANCH  12  17
ENDBRANCH   8  11
ENDBRANCH   1   7
BRANCH   6  19
ATOM     19  N   UNL     1      -0.402   2.047  -2.011  1.00  0.00    -0.572 NA
BRANCH  19  20
ATOM     20  S   UNL     1      -1.586   2.484  -1.060  1.00  0.00     0.123 S 
ATOM     21  O   UNL     1      -2.754   3.252  -1.680  1.00  0.00    -0.240 OA
ATOM     22  O   UNL     1      -1.110   3.394   0.073  1.00  0.00    -0.240 OA
BRANCH  20  23
ATOM     23  C   UNL     1      -2.401   1.145  -0.208  1.00  0.00     0.052 A 
ATOM     24  C   UNL     1      -2.007   0.766   1.046  1.00  0.00     0.019 A 
ATOM     25  C   UNL     1      -3.445   0.487  -0.836  1.00  0.00     0.019 A 
ATOM     26  C   UNL     1      -2.662  -0.279   1.677  1.00  0.00     0.005 A 
ATOM     27  C   UNL     1      -4.085  -0.557  -0.183  1.00  0.00     0.005 A 
ATOM     28  C   UNL     1      -3.707  -0.956   1.078  1.00  0.00    -0.051 A 
ATOM     29  C   UNL     1      -4.418  -2.089   1.763  1.00  0.00     0.044 C 
ENDBRANCH  20  23
ENDBRANCH  19  20
ENDBRANCH   6  19
TORSDOF 6
