REMARK SMILES COc1ccc(Cc2nn3c(-c4ccccn4)nnc3s2)cc1
REMARK SMILES IDX 3 1 4 2 5 3 6 4 22 5 23 6 2 7 1 8 7 9 8 10 9 11 21 12 10 13
REMARK SMILES IDX 20 14 11 15 19 16 18 17 12 18 13 19 17 20 14 21 16 22 15 23
REMARK H PARENT
ROOT
ATOM      1  C   UNL     1      -3.774   0.676   2.147  1.00  0.00     0.118 A 
ATOM      2  C   UNL     1      -2.897   0.995   3.154  1.00  0.00     0.047 A 
ATOM      3  C   UNL     1      -1.707   0.309   3.275  1.00  0.00     0.008 A 
ATOM      4  C   UNL     1      -1.345  -0.715   2.404  1.00  0.00    -0.041 A 
ATOM      5  C   UNL     1      -2.248  -1.010   1.406  1.00  0.00     0.008 A 
ATOM      6  C   UNL     1      -3.441  -0.328   1.278  1.00  0.00     0.047 A 
ENDROOT
BRANCH   1   7
ATOM      7  O   UNL     1      -4.993   1.346   1.988  1.00  0.00    -0.497 OA
ATOM      8  C   UNL     1      -5.902   1.039   0.970  1.00  0.00     0.278 C 
ENDBRANCH   1   7
BRANCH   4   9
ATOM      9  C   UNL     1      -0.058  -1.440   2.554  1.00  0.00     0.105 C 
BRANCH   9  10
ATOM     10  C   UNL     1       0.966  -0.752   1.776  1.00  0.00     0.122 A 
ATOM     11  N   UNL     1       1.362  -0.878   0.547  1.00  0.00    -0.157 NA
ATOM     12  S   UNL     1       2.056   0.555   2.308  1.00  0.00    -0.077 S 
ATOM     13  N   UNL     1       2.276  -0.204  -0.003  1.00  0.00    -0.181 N 
ATOM     14  C   UNL     1       2.923   0.748   0.730  1.00  0.00     0.235 A 
ATOM     15  C   UNL     1       2.867  -0.147  -1.259  1.00  0.00     0.204 A 
ATOM     16  N   UNL     1       3.860   1.367  -0.006  1.00  0.00    -0.117 NA
ATOM     17  N   UNL     1       3.810   0.804  -1.222  1.00  0.00    -0.125 NA
BRANCH  15  18
ATOM     18  C   UNL     1       2.563  -0.943  -2.430  1.00  0.00     0.110 A 
ATOM     19  C   UNL     1       3.238  -0.773  -3.612  1.00  0.00     0.032 A 
ATOM     20  N   UNL     1       1.604  -1.883  -2.401  1.00  0.00    -0.253 NA
ATOM     21  C   UNL     1       2.957  -1.530  -4.742  1.00  0.00     0.004 A 
ATOM     22  C   UNL     1       1.302  -2.639  -3.480  1.00  0.00     0.112 A 
ATOM     23  C   UNL     1       1.966  -2.486  -4.678  1.00  0.00     0.020 A 
ENDBRANCH  15  18
ENDBRANCH   9  10
ENDBRANCH   4   9
TORSDOF 4
