REMARK SMILES Cc1c(C(=O)[O-])c([O-])cc2c1C(=O)c1c(O)c([C@H]3O[C@H](CO)[C@@H](O)[C@H](O)[C@H]3O)c([O-])c([O-])c1C2=O
REMARK SMILES IDX 18 1 19 2 20 3 23 4 25 5 27 6 17 7 2 8 3 9 11 10 7 11 10 12
REMARK SMILES IDX 12 13 9 14 34 15 13 16 14 17 33 18 35 19 15 20 31 21 29 22
REMARK SMILES IDX 1 23 8 24 32 25 30 26 4 27 5 28 6 29 16 30 28 32 21 34 22 35
REMARK SMILES IDX 26 37 24 39
REMARK H PARENT 16 31 28 33 22 36 26 38 24 40
ROOT
ATOM      1  C   UNL     1      -0.023  -2.409  -2.211  1.00  0.00     0.183 C 
ATOM      2  O   UNL     1      -1.151  -1.772  -2.707  1.00  0.00    -0.362 OA
ATOM      3  C   UNL     1      -1.668  -2.489  -3.775  1.00  0.00     0.176 C 
ATOM      4  C   UNL     1      -0.688  -3.400  -4.429  1.00  0.00     0.177 C 
ATOM      5  C   UNL     1       0.720  -2.852  -4.473  1.00  0.00     0.177 C 
ATOM      6  C   UNL     1       1.102  -2.186  -3.166  1.00  0.00     0.179 C 
ENDROOT
BRANCH   1   7
ATOM      7  C   UNL     1       0.288  -2.029  -0.818  1.00  0.00     0.018 A 
ATOM      8  C   UNL     1       0.115   2.676   3.279  1.00  0.00    -0.031 A 
ATOM      9  C   UNL     1       0.401   3.056   4.588  1.00  0.00    -0.007 A 
ATOM     10  C   UNL     1       0.367   1.390   2.826  1.00  0.00     0.037 A 
ATOM     11  C   UNL     1       0.945   2.106   5.424  1.00  0.00    -0.099 A 
ATOM     12  C   UNL     1       0.914   0.441   3.674  1.00  0.00     0.033 A 
ATOM     13  C   UNL     1       0.078   0.965   1.463  1.00  0.00     0.198 C 
ATOM     14  C   UNL     1       1.193   0.828   4.969  1.00  0.00     0.005 A 
ATOM     15  C   UNL     1       1.186  -0.928   3.206  1.00  0.00     0.194 C 
ATOM     16  O   UNL     1      -0.417   1.789   0.664  1.00  0.00    -0.288 OA
ATOM     17  C   UNL     1       0.344  -0.397   0.981  1.00  0.00     0.075 A 
ATOM     18  C   UNL     1       0.887  -1.324   1.835  1.00  0.00     0.029 A 
ATOM     19  O   UNL     1       1.684  -1.748   4.020  1.00  0.00    -0.289 OA
ATOM     20  C   UNL     1       0.057  -0.764  -0.318  1.00  0.00     0.132 A 
ATOM     21  C   UNL     1       1.131  -2.598   1.373  1.00  0.00    -0.104 A 
ATOM     22  C   UNL     1       0.836  -2.937   0.071  1.00  0.00    -0.107 A 
ATOM     23  C   UNL     1      -0.473   3.667   2.340  1.00  0.00     0.046 C 
ATOM     24  O   UNL     1       1.235   2.471   6.732  1.00  0.00    -0.872 OA
ATOM     25  O   UNL     1       1.683  -3.517   2.263  1.00  0.00    -0.872 OA
ATOM     26  O   UNL     1       1.094  -4.226  -0.361  1.00  0.00    -0.873 OA
BRANCH   9  27
ATOM     27  C   UNL     1       0.139   4.410   5.075  1.00  0.00     0.071 C 
ATOM     28  O   UNL     1       0.951   5.344   5.022  1.00  0.00    -0.545 OA
ATOM     29  O   UNL     1      -1.137   4.614   5.634  1.00  0.00    -0.545 OA
ENDBRANCH   9  27
BRANCH  20  30
ATOM     30  O   UNL     1      -0.488   0.197  -1.146  1.00  0.00    -0.507 OA
ATOM     31  H   UNL     1      -1.457   0.439  -1.184  1.00  0.00     0.293 HD
ENDBRANCH  20  30
ENDBRANCH   1   7
BRANCH   6  32
ATOM     32  O   UNL     1       1.341  -0.856  -3.455  1.00  0.00    -0.387 OA
ATOM     33  H   UNL     1       0.927  -0.547  -4.296  1.00  0.00     0.211 HD
ENDBRANCH   6  32
BRANCH   3  34
ATOM     34  C   UNL     1      -2.857  -3.351  -3.329  1.00  0.00     0.191 C 
BRANCH  34  35
ATOM     35  O   UNL     1      -3.835  -2.478  -2.819  1.00  0.00    -0.394 OA
ATOM     36  H   UNL     1      -3.516  -2.040  -1.978  1.00  0.00     0.210 HD
ENDBRANCH  34  35
ENDBRANCH   3  34
BRANCH   5  37
ATOM     37  O   UNL     1       1.623  -3.922  -4.652  1.00  0.00    -0.387 OA
ATOM     38  H   UNL     1       1.344  -4.623  -3.990  1.00  0.00     0.211 HD
ENDBRANCH   5  37
BRANCH   4  39
ATOM     39  O   UNL     1      -1.090  -3.572  -5.761  1.00  0.00    -0.388 OA
ATOM     40  H   UNL     1      -2.049  -3.673  -5.872  1.00  0.00     0.211 HD
ENDBRANCH   4  39
TORSDOF 8
