REMARK SMILES C=CCOc1ccc(C(=O)Nc2cccc(OC)c2)cc1
REMARK SMILES IDX 5 1 6 2 7 3 8 4 20 5 21 6 4 7 3 8 2 9 1 10 9 11 10 12 11 13
REMARK SMILES IDX 12 15 13 16 19 17 14 18 16 19 15 20 17 21 18 22
REMARK H PARENT 11 14
ROOT
ATOM      1  C   UNL     1      -1.917   2.428   0.119  1.00  0.00     0.119 A 
ATOM      2  C   UNL     1      -2.227   1.181  -0.467  1.00  0.00     0.047 A 
ATOM      3  C   UNL     1      -1.306   0.176  -0.565  1.00  0.00     0.017 A 
ATOM      4  C   UNL     1      -0.024   0.304  -0.104  1.00  0.00     0.040 A 
ATOM      5  C   UNL     1       0.320   1.506   0.476  1.00  0.00     0.017 A 
ATOM      6  C   UNL     1      -0.582   2.521   0.583  1.00  0.00     0.047 A 
ENDROOT
BRANCH   1   7
ATOM      7  O   UNL     1      -2.757   3.397   0.229  1.00  0.00    -0.490 OA
BRANCH   7   8
ATOM      8  C   UNL     1      -3.552   4.387   0.362  1.00  0.00     0.257 C 
BRANCH   8   9
ATOM      9  C   UNL     1      -4.953   4.148  -0.180  1.00  0.00     0.006 C 
ATOM     10  C   UNL     1      -5.394   4.933  -1.136  1.00  0.00     0.007 C 
ENDBRANCH   8   9
ENDBRANCH   7   8
ENDBRANCH   1   7
BRANCH   4  11
ATOM     11  C   UNL     1       0.933  -0.778  -0.219  1.00  0.00     0.255 C 
ATOM     12  O   UNL     1       2.115  -0.627   0.219  1.00  0.00    -0.269 OA
ATOM     13  N   UNL     1       0.689  -2.048  -0.793  1.00  0.00    -0.322 N 
ATOM     14  H   UNL     1      -0.272  -2.232  -1.173  1.00  0.00     0.170 HD
BRANCH  13  15
ATOM     15  C   UNL     1       1.709  -3.054  -0.858  1.00  0.00     0.045 A 
ATOM     16  C   UNL     1       2.524  -3.095  -1.965  1.00  0.00     0.026 A 
ATOM     17  C   UNL     1       1.935  -3.993   0.115  1.00  0.00     0.072 A 
ATOM     18  C   UNL     1       3.537  -4.054  -2.089  1.00  0.00     0.006 A 
ATOM     19  C   UNL     1       2.912  -4.954   0.045  1.00  0.00     0.120 A 
ATOM     20  C   UNL     1       3.726  -4.978  -1.084  1.00  0.00     0.046 A 
BRANCH  19  21
ATOM     21  O   UNL     1       3.119  -5.895   1.048  1.00  0.00    -0.497 OA
ATOM     22  C   UNL     1       2.276  -5.851   2.190  1.00  0.00     0.278 C 
ENDBRANCH  19  21
ENDBRANCH  13  15
ENDBRANCH   4  11
TORSDOF 6
