REMARK SMILES C(=Cc1nccc2c1[nH]c1ccccc12)c1ccc2c(c1)OCO2
REMARK SMILES IDX 3 1 4 2 5 3 6 4 7 5 8 6 9 7 10 8 11 9 12 10 13 11 14 12
REMARK SMILES IDX 15 13 2 15 1 16 16 17 17 18 21 19 18 20 20 21 19 22 22 23
REMARK SMILES IDX 24 24 23 25
REMARK H PARENT 9 14
ROOT
ATOM      1  C   UNL     1      -0.723   1.939   0.355  1.00  0.00     0.087 A 
ATOM      2  N   UNL     1      -0.498   3.216  -0.116  1.00  0.00    -0.255 NA
ATOM      3  C   UNL     1       0.661   3.640  -0.602  1.00  0.00     0.112 A 
ATOM      4  C   UNL     1       1.745   2.798  -0.663  1.00  0.00     0.031 A 
ATOM      5  C   UNL     1       1.610   1.519  -0.215  1.00  0.00     0.011 A 
ATOM      6  C   UNL     1       0.387   1.104   0.288  1.00  0.00     0.073 A 
ATOM      7  N   UNL     1       0.588  -0.163   0.691  1.00  0.00    -0.353 N 
ATOM      8  C   UNL     1       1.874  -0.549   0.455  1.00  0.00     0.046 A 
ATOM      9  C   UNL     1       2.528  -1.727   0.690  1.00  0.00     0.027 A 
ATOM     10  C   UNL     1       3.858  -1.830   0.338  1.00  0.00     0.002 A 
ATOM     11  C   UNL     1       4.555  -0.789  -0.242  1.00  0.00     0.001 A 
ATOM     12  C   UNL     1       3.885   0.395  -0.474  1.00  0.00     0.011 A 
ATOM     13  C   UNL     1       2.553   0.492  -0.120  1.00  0.00     0.007 A 
ATOM     14  H   UNL     1      -0.147  -0.739   1.149  1.00  0.00     0.167 HD
ENDROOT
BRANCH   1  15
ATOM     15  C   UNL     1      -1.978   1.617   0.956  1.00  0.00     0.031 C 
ATOM     16  C   UNL     1      -2.797   0.642   1.007  1.00  0.00     0.010 C 
BRANCH  16  17
ATOM     17  C   UNL     1      -2.842  -0.678   0.423  1.00  0.00    -0.022 A 
ATOM     18  C   UNL     1      -3.743  -1.626   0.944  1.00  0.00     0.012 A 
ATOM     19  C   UNL     1      -2.148  -1.105  -0.687  1.00  0.00     0.058 A 
ATOM     20  C   UNL     1      -3.890  -2.867   0.368  1.00  0.00     0.051 A 
ATOM     21  C   UNL     1      -2.273  -2.336  -1.284  1.00  0.00     0.166 A 
ATOM     22  C   UNL     1      -3.160  -3.232  -0.745  1.00  0.00     0.165 A 
ATOM     23  O   UNL     1      -1.667  -2.949  -2.396  1.00  0.00    -0.454 OA
ATOM     24  O   UNL     1      -3.085  -4.380  -1.535  1.00  0.00    -0.454 OA
ATOM     25  C   UNL     1      -1.813  -4.355  -2.195  1.00  0.00     0.468 C 
ENDBRANCH  16  17
ENDBRANCH   1  15
TORSDOF 2
