REMARK SMILES C(=C\c1nccc2c1[nH]c1ccccc12)\c1ccc2c(c1)OCO2
REMARK SMILES IDX 3 1 4 2 5 3 6 4 7 5 8 6 9 7 10 8 11 9 12 10 13 11 14 12
REMARK SMILES IDX 15 13 2 15 1 16 16 17 17 18 21 19 18 20 20 21 19 22 22 23
REMARK SMILES IDX 24 24 23 25
REMARK H PARENT 9 14
ROOT
ATOM      1  C   UNL     1      -0.012   1.689   1.141  1.00  0.00     0.087 A 
ATOM      2  N   UNL     1       0.653   2.211   2.220  1.00  0.00    -0.255 NA
ATOM      3  C   UNL     1       1.928   1.941   2.506  1.00  0.00     0.112 A 
ATOM      4  C   UNL     1       2.695   1.103   1.728  1.00  0.00     0.031 A 
ATOM      5  C   UNL     1       2.084   0.546   0.623  1.00  0.00     0.011 A 
ATOM      6  C   UNL     1       0.754   0.854   0.361  1.00  0.00     0.073 A 
ATOM      7  N   UNL     1       0.459   0.218  -0.781  1.00  0.00    -0.353 N 
ATOM      8  C   UNL     1       1.531  -0.467  -1.234  1.00  0.00     0.046 A 
ATOM      9  C   UNL     1       1.753  -1.268  -2.337  1.00  0.00     0.027 A 
ATOM     10  C   UNL     1       2.966  -1.871  -2.586  1.00  0.00     0.002 A 
ATOM     11  C   UNL     1       4.001  -1.665  -1.695  1.00  0.00     0.001 A 
ATOM     12  C   UNL     1       3.818  -0.871  -0.579  1.00  0.00     0.011 A 
ATOM     13  C   UNL     1       2.589  -0.287  -0.370  1.00  0.00     0.007 A 
ATOM     14  H   UNL     1      -0.449   0.235  -1.291  1.00  0.00     0.167 HD
ENDROOT
BRANCH   1  15
ATOM     15  C   UNL     1      -1.317   2.195   0.879  1.00  0.00     0.031 C 
ATOM     16  C   UNL     1      -2.398   1.566   0.591  1.00  0.00     0.010 C 
BRANCH  16  17
ATOM     17  C   UNL     1      -2.540   0.131   0.491  1.00  0.00    -0.022 A 
ATOM     18  C   UNL     1      -1.743  -0.777   1.123  1.00  0.00     0.012 A 
ATOM     19  C   UNL     1      -3.514  -0.389  -0.362  1.00  0.00     0.058 A 
ATOM     20  C   UNL     1      -1.842  -2.152   0.964  1.00  0.00     0.051 A 
ATOM     21  C   UNL     1      -3.660  -1.728  -0.558  1.00  0.00     0.166 A 
ATOM     22  C   UNL     1      -2.824  -2.598   0.105  1.00  0.00     0.165 A 
ATOM     23  O   UNL     1      -4.539  -2.500  -1.345  1.00  0.00    -0.454 OA
ATOM     24  O   UNL     1      -3.217  -3.883  -0.298  1.00  0.00    -0.454 OA
ATOM     25  C   UNL     1      -3.955  -3.774  -1.502  1.00  0.00     0.468 C 
ENDBRANCH  16  17
ENDBRANCH   1  15
TORSDOF 2
