REMARK SMILES COc1ccccc1N1C(=O)c2cccc(N)c2C1=O
REMARK SMILES IDX 9 1 10 2 11 3 12 4 13 5 14 6 15 7 16 8 18 9 19 10 20 11 8 12
REMARK SMILES IDX 3 13 4 14 5 15 7 16 6 17 2 18 1 19 17 20
REMARK H PARENT 17 21 17 22
ROOT
ATOM      1  N   UNL     1       0.650  -0.310  -0.165  1.00  0.00    -0.238 N 
ATOM      2  C   UNL     1       1.687  -0.701  -1.082  1.00  0.00     0.266 C 
ATOM      3  O   UNL     1       2.894  -0.902  -0.825  1.00  0.00    -0.268 OA
ATOM      4  C   UNL     1       1.105  -0.838  -2.421  1.00  0.00     0.055 A 
ATOM      5  C   UNL     1       1.652  -1.189  -3.654  1.00  0.00     0.015 A 
ATOM      6  C   UNL     1       0.843  -1.235  -4.761  1.00  0.00     0.003 A 
ATOM      7  C   UNL     1      -0.515  -0.942  -4.697  1.00  0.00     0.026 A 
ATOM      8  C   UNL     1      -1.057  -0.595  -3.477  1.00  0.00     0.045 A 
ATOM      9  C   UNL     1      -0.231  -0.554  -2.379  1.00  0.00     0.076 A 
ATOM     10  C   UNL     1      -0.506  -0.225  -0.965  1.00  0.00     0.268 C 
ATOM     11  O   UNL     1      -1.667   0.086  -0.606  1.00  0.00    -0.268 OA
ENDROOT
BRANCH   1  12
ATOM     12  C   UNL     1       0.807  -0.037   1.223  1.00  0.00     0.094 A 
ATOM     13  C   UNL     1      -0.206   0.005   2.148  1.00  0.00     0.143 A 
ATOM     14  C   UNL     1      -0.003   0.239   3.504  1.00  0.00     0.048 A 
ATOM     15  C   UNL     1       1.270   0.443   3.977  1.00  0.00     0.004 A 
ATOM     16  C   UNL     1       2.069   0.172   1.736  1.00  0.00     0.031 A 
ATOM     17  C   UNL     1       2.315   0.410   3.095  1.00  0.00     0.002 A 
BRANCH  13  18
ATOM     18  O   UNL     1      -1.511  -0.190   1.779  1.00  0.00    -0.495 OA
ATOM     19  C   UNL     1      -2.618  -0.167   2.647  1.00  0.00     0.278 C 
ENDBRANCH  13  18
ENDBRANCH   1  12
BRANCH   8  20
ATOM     20  N   UNL     1      -2.437  -0.300  -3.428  1.00  0.00    -0.398 N 
ATOM     21  H   UNL     1      -3.034  -0.823  -2.754  1.00  0.00     0.156 HD
ATOM     22  H   UNL     1      -2.897   0.410  -4.025  1.00  0.00     0.156 HD
ENDBRANCH   8  20
TORSDOF 3
