REMARK SMILES Cc1cccc(Nc2nc(-c3ccccn3)cs2)c1
REMARK SMILES IDX 7 1 6 3 2 4 3 5 19 6 4 7 5 8 1 9 8 10 9 11 18 12 10 13 17 14
REMARK SMILES IDX 11 15 12 16 16 17 13 18 15 19 14 20
REMARK H PARENT 7 2
ROOT
ATOM      1  N   UNL     1       1.543  -0.693   2.093  1.00  0.00    -0.332 N 
ATOM      2  H   UNL     1       2.306  -0.764   2.781  1.00  0.00     0.169 HD
ENDROOT
BRANCH   1   3
ATOM      3  C   UNL     1       0.224  -0.959   2.463  1.00  0.00     0.040 A 
ATOM      4  C   UNL     1      -2.142  -1.162   2.028  1.00  0.00    -0.049 A 
ATOM      5  C   UNL     1      -2.380  -1.519   3.331  1.00  0.00     0.003 A 
ATOM      6  C   UNL     1      -0.850  -0.886   1.603  1.00  0.00     0.029 A 
ATOM      7  C   UNL     1      -1.311  -1.600   4.220  1.00  0.00     0.002 A 
ATOM      8  C   UNL     1      -0.046  -1.319   3.764  1.00  0.00     0.026 A 
ATOM      9  C   UNL     1      -3.275  -1.077   1.091  1.00  0.00     0.044 C 
ENDBRANCH   1   3
BRANCH   1  10
ATOM     10  C   UNL     1       1.853  -0.299   0.680  1.00  0.00     0.187 A 
ATOM     11  N   UNL     1       1.396  -0.107  -0.327  1.00  0.00    -0.218 NA
ATOM     12  S   UNL     1       3.690   0.025   0.350  1.00  0.00    -0.105 S 
ATOM     13  C   UNL     1       1.927   0.253  -1.489  1.00  0.00     0.102 A 
ATOM     14  C   UNL     1       3.308   0.413  -1.402  1.00  0.00     0.099 A 
BRANCH  13  15
ATOM     15  C   UNL     1       1.162   0.470  -2.759  1.00  0.00     0.090 A 
ATOM     16  C   UNL     1       1.838   0.842  -3.892  1.00  0.00     0.031 A 
ATOM     17  N   UNL     1      -0.161   0.315  -2.833  1.00  0.00    -0.255 NA
ATOM     18  C   UNL     1       1.132   1.039  -5.051  1.00  0.00     0.004 A 
ATOM     19  C   UNL     1      -0.889   0.493  -3.930  1.00  0.00     0.112 A 
ATOM     20  C   UNL     1      -0.235   0.868  -5.084  1.00  0.00     0.020 A 
ENDBRANCH  13  15
ENDBRANCH   1  10
TORSDOF 3
