REMARK SMILES COC(=O)c1cc([O-])c(=O)c2c([O-])c(O)ccc2c1
REMARK SMILES IDX 5 1 6 2 7 3 8 4 9 5 10 6 11 7 12 8 13 9 14 10 16 11 17 12
REMARK SMILES IDX 18 13 19 14 3 15 4 16 2 17 1 18 15 19
REMARK H PARENT 15 20
ROOT
ATOM      1  C   UNL     1      -0.895   0.086   0.803  1.00  0.00     0.060 A 
ATOM      2  C   UNL     1      -0.246   1.276   1.094  1.00  0.00     0.011 A 
ATOM      3  C   UNL     1       0.816   1.877   0.408  1.00  0.00    -0.059 A 
ATOM      4  O   UNL     1       1.108   3.177   0.774  1.00  0.00    -0.870 OA
ATOM      5  C   UNL     1       1.617   1.356  -0.587  1.00  0.00     0.178 A 
ATOM      6  O   UNL     1       2.514   2.144  -0.975  1.00  0.00    -0.290 OA
ATOM      7  C   UNL     1       1.551   0.117  -1.183  1.00  0.00     0.024 A 
ATOM      8  C   UNL     1       2.534  -0.041  -2.135  1.00  0.00    -0.054 A 
ATOM      9  O   UNL     1       3.444   0.952  -2.415  1.00  0.00    -0.869 OA
ATOM     10  C   UNL     1       2.637  -1.231  -2.855  1.00  0.00     0.108 A 
ATOM     11  C   UNL     1       1.751  -2.262  -2.616  1.00  0.00     0.046 A 
ATOM     12  C   UNL     1       0.784  -2.072  -1.661  1.00  0.00     0.012 A 
ATOM     13  C   UNL     1       0.656  -0.904  -0.932  1.00  0.00    -0.014 A 
ATOM     14  C   UNL     1      -0.384  -0.908  -0.015  1.00  0.00     0.024 A 
ENDROOT
BRANCH   1  15
ATOM     15  C   UNL     1      -2.205  -0.131   1.400  1.00  0.00     0.337 C 
ATOM     16  O   UNL     1      -2.799  -1.201   1.145  1.00  0.00    -0.246 OA
BRANCH  15  17
ATOM     17  O   UNL     1      -2.775   0.804   2.219  1.00  0.00    -0.465 OA
ATOM     18  C   UNL     1      -4.048   0.652   2.831  1.00  0.00     0.282 C 
ENDBRANCH  15  17
ENDBRANCH   1  15
BRANCH  10  19
ATOM     19  O   UNL     1       3.610  -1.426  -3.817  1.00  0.00    -0.509 OA
ATOM     20  H   UNL     1       3.418  -1.234  -4.792  1.00  0.00     0.293 HD
ENDBRANCH  10  19
TORSDOF 3
