REMARK SMILES COC(=O)c1cc(O)c(=O)c2c(O)c(O)ccc2c1
REMARK SMILES IDX 5 1 6 2 7 3 9 4 10 5 11 6 12 7 14 8 16 9 17 10 18 11 19 12
REMARK SMILES IDX 3 13 4 14 2 15 1 16 8 17 13 19 15 21
REMARK H PARENT 8 18 13 20 15 22
ROOT
ATOM      1  C   UNL     1      -0.883  -0.090   1.061  1.00  0.00     0.064 A 
ATOM      2  C   UNL     1       0.162   0.739   1.428  1.00  0.00     0.066 A 
ATOM      3  C   UNL     1       1.408   0.927   0.842  1.00  0.00     0.164 A 
ATOM      4  C   UNL     1       1.840   0.452  -0.375  1.00  0.00     0.231 A 
ATOM      5  O   UNL     1       2.862   1.007  -0.840  1.00  0.00    -0.285 OA
ATOM      6  C   UNL     1       1.287  -0.567  -1.157  1.00  0.00     0.079 A 
ATOM      7  C   UNL     1       2.056  -0.869  -2.251  1.00  0.00     0.169 A 
ATOM      8  C   UNL     1       1.656  -1.865  -3.146  1.00  0.00     0.158 A 
ATOM      9  C   UNL     1       0.485  -2.555  -2.939  1.00  0.00     0.051 A 
ATOM     10  C   UNL     1      -0.269  -2.231  -1.831  1.00  0.00     0.013 A 
ATOM     11  C   UNL     1       0.106  -1.254  -0.937  1.00  0.00    -0.009 A 
ATOM     12  C   UNL     1      -0.800  -1.085   0.114  1.00  0.00     0.024 A 
ENDROOT
BRANCH   1  13
ATOM     13  C   UNL     1      -2.165   0.103   1.722  1.00  0.00     0.338 C 
ATOM     14  O   UNL     1      -3.113  -0.648   1.389  1.00  0.00    -0.246 OA
BRANCH  13  15
ATOM     15  O   UNL     1      -2.385   1.061   2.687  1.00  0.00    -0.465 OA
ATOM     16  C   UNL     1      -3.643   1.243   3.329  1.00  0.00     0.282 C 
ENDBRANCH  13  15
ENDBRANCH   1  13
BRANCH   3  17
ATOM     17  O   UNL     1       2.313   1.678   1.567  1.00  0.00    -0.504 OA
ATOM     18  H   UNL     1       2.514   2.640   1.375  1.00  0.00     0.293 HD
ENDBRANCH   3  17
BRANCH   7  19
ATOM     19  O   UNL     1       3.250  -0.186  -2.488  1.00  0.00    -0.504 OA
ATOM     20  H   UNL     1       3.376   0.290  -3.379  1.00  0.00     0.293 HD
ENDBRANCH   7  19
BRANCH   8  21
ATOM     21  O   UNL     1       2.461  -2.138  -4.237  1.00  0.00    -0.504 OA
ATOM     22  H   UNL     1       2.354  -1.609  -5.096  1.00  0.00     0.293 HD
ENDBRANCH   8  21
TORSDOF 5
