REMARK SMILES O=[N+]([O-])c1ccc(Nc2ccccc2Cl)c2nonc12
REMARK SMILES IDX 4 1 5 2 6 3 7 4 16 5 17 6 18 7 19 8 20 9 2 10 1 11 3 12 8 13
REMARK SMILES IDX 9 15 10 16 14 17 11 18 13 19 12 20 15 21
REMARK H PARENT 8 14
ROOT
ATOM      1  C   UNL     1      -2.692   0.383   1.412  1.00  0.00     0.300 A 
ATOM      2  C   UNL     1      -1.847   1.452   1.621  1.00  0.00     0.090 A 
ATOM      3  C   UNL     1      -0.499   1.375   1.339  1.00  0.00     0.036 A 
ATOM      4  C   UNL     1       0.068   0.214   0.829  1.00  0.00     0.071 A 
ATOM      5  C   UNL     1      -0.785  -0.850   0.623  1.00  0.00     0.165 A 
ATOM      6  N   UNL     1      -0.542  -2.084   0.151  1.00  0.00    -0.047 NA
ATOM      7  O   UNL     1      -1.667  -2.723   0.143  1.00  0.00    -0.243 OA
ATOM      8  N   UNL     1      -2.635  -1.970   0.587  1.00  0.00    -0.042 NA
ATOM      9  C   UNL     1      -2.134  -0.776   0.905  1.00  0.00     0.214 A 
ENDROOT
BRANCH   1  10
ATOM     10  N   UNL     1      -4.086   0.440   1.697  1.00  0.00     0.065 N 
ATOM     11  O   UNL     1      -4.710   1.524   1.662  1.00  0.00    -0.258 OA
ATOM     12  O   UNL     1      -4.821  -0.673   2.022  1.00  0.00    -0.258 OA
ENDBRANCH   1  10
BRANCH   4  13
ATOM     13  N   UNL     1       1.459   0.133   0.537  1.00  0.00    -0.352 N 
ATOM     14  H   UNL     1       2.215   0.267   1.242  1.00  0.00     0.167 HD
BRANCH  13  15
ATOM     15  C   UNL     1       1.863  -0.148  -0.797  1.00  0.00     0.057 A 
ATOM     16  C   UNL     1       2.622  -1.280  -1.068  1.00  0.00     0.027 A 
ATOM     17  C   UNL     1       1.504   0.700  -1.818  1.00  0.00     0.064 A 
ATOM     18  C   UNL     1       2.993  -1.518  -2.371  1.00  0.00     0.002 A 
ATOM     19  C   UNL     1       1.879   0.461  -3.137  1.00  0.00     0.023 A 
ATOM     20  C   UNL     1       2.637  -0.673  -3.395  1.00  0.00     0.002 A 
ATOM     21  Cl  UNL     1       0.549   2.141  -1.530  1.00  0.00    -0.082 Cl
ENDBRANCH  13  15
ENDBRANCH   4  13
TORSDOF 3
