REMARK SMILES C=CCOc1cccc(NC(=O)c2cccc(OC)c2)c1
REMARK SMILES IDX 5 1 6 2 7 3 8 4 9 5 21 6 4 7 3 8 2 9 1 10 10 11 11 12 12 13
REMARK SMILES IDX 13 15 14 16 20 17 15 18 17 19 16 20 18 21 19 22
REMARK H PARENT 10 14
ROOT
ATOM      1  C   UNL     1       1.618   0.338   3.160  1.00  0.00     0.121 A 
ATOM      2  C   UNL     1       3.026   0.390   3.106  1.00  0.00     0.046 A 
ATOM      3  C   UNL     1       3.680  -0.034   1.981  1.00  0.00     0.006 A 
ATOM      4  C   UNL     1       2.970  -0.520   0.876  1.00  0.00     0.026 A 
ATOM      5  C   UNL     1       1.596  -0.584   0.897  1.00  0.00     0.045 A 
ATOM      6  C   UNL     1       0.950  -0.149   2.051  1.00  0.00     0.072 A 
ENDROOT
BRANCH   1   7
ATOM      7  O   UNL     1       1.001   0.769   4.308  1.00  0.00    -0.489 OA
BRANCH   7   8
ATOM      8  C   UNL     1      -0.373   0.815   4.489  1.00  0.00     0.257 C 
BRANCH   8   9
ATOM      9  C   UNL     1      -0.970   1.810   3.562  1.00  0.00     0.006 C 
ATOM     10  C   UNL     1      -1.647   2.841   4.127  1.00  0.00     0.007 C 
ENDBRANCH   8   9
ENDBRANCH   7   8
ENDBRANCH   1   7
BRANCH   5  11
ATOM     11  N   UNL     1       0.831  -1.067  -0.194  1.00  0.00    -0.322 N 
ATOM     12  C   UNL     1       0.344  -0.263  -1.246  1.00  0.00     0.255 C 
ATOM     13  O   UNL     1       0.611   0.965  -1.204  1.00  0.00    -0.269 OA
ATOM     14  H   UNL     1       0.615  -2.086  -0.220  1.00  0.00     0.170 HD
BRANCH  12  15
ATOM     15  C   UNL     1      -0.442  -0.766  -2.366  1.00  0.00     0.043 A 
ATOM     16  C   UNL     1      -0.887   0.083  -3.364  1.00  0.00     0.014 A 
ATOM     17  C   UNL     1      -0.789  -2.092  -2.507  1.00  0.00     0.060 A 
ATOM     18  C   UNL     1      -1.634  -0.356  -4.442  1.00  0.00     0.005 A 
ATOM     19  C   UNL     1      -1.533  -2.563  -3.568  1.00  0.00     0.119 A 
ATOM     20  C   UNL     1      -1.962  -1.690  -4.548  1.00  0.00     0.046 A 
BRANCH  19  21
ATOM     21  O   UNL     1      -1.862  -3.912  -3.673  1.00  0.00    -0.497 OA
ATOM     22  C   UNL     1      -2.610  -4.449  -4.721  1.00  0.00     0.278 C 
ENDBRANCH  19  21
ENDBRANCH  12  15
ENDBRANCH   5  11
TORSDOF 6
