REMARK SMILES COc1ccc(/C=C/C=C2\SC(=S)[N-]C2=O)cc1
REMARK SMILES IDX 3 1 4 2 5 3 6 4 17 5 18 6 2 7 1 8 7 9 8 10 9 11 10 12 11 13
REMARK SMILES IDX 15 14 12 15 14 16 16 17 13 18
REMARK H PARENT
ROOT
ATOM      1  C   UNL     1      -2.976  -0.371   1.640  1.00  0.00     0.118 A 
ATOM      2  C   UNL     1      -1.975  -0.558   2.579  1.00  0.00     0.047 A 
ATOM      3  C   UNL     1      -0.652  -0.541   2.210  1.00  0.00     0.012 A 
ATOM      4  C   UNL     1      -0.268  -0.336   0.882  1.00  0.00    -0.025 A 
ATOM      5  C   UNL     1      -1.278  -0.153  -0.026  1.00  0.00     0.012 A 
ATOM      6  C   UNL     1      -2.600  -0.169   0.333  1.00  0.00     0.047 A 
ENDROOT
BRANCH   1   7
ATOM      7  O   UNL     1      -4.309  -0.391   2.032  1.00  0.00    -0.497 OA
ATOM      8  C   UNL     1      -5.293  -0.196   1.041  1.00  0.00     0.278 C 
ENDBRANCH   1   7
BRANCH   4   9
ATOM      9  C   UNL     1       1.145  -0.323   0.518  1.00  0.00     0.008 C 
ATOM     10  C   UNL     1       1.634  -0.142  -0.680  1.00  0.00     0.002 C 
BRANCH  10  11
ATOM     11  C   UNL     1       3.066  -0.142  -0.971  1.00  0.00     0.017 C 
ATOM     12  C   UNL     1       3.514   0.042  -2.179  1.00  0.00     0.036 C 
ATOM     13  S   UNL     1       2.425   0.313  -3.604  1.00  0.00    -0.100 SA
ATOM     14  C   UNL     1       4.828   0.094  -2.749  1.00  0.00     0.093 C 
ATOM     15  C   UNL     1       3.720   0.894  -4.697  1.00  0.00    -0.028 C 
ATOM     16  N   UNL     1       4.925   0.538  -4.057  1.00  0.00    -0.607 NA
ATOM     17  O   UNL     1       5.864  -0.255  -2.079  1.00  0.00    -0.314 OA
ATOM     18  S   UNL     1       3.498   1.666  -6.116  1.00  0.00    -0.098 S 
ENDBRANCH  10  11
ENDBRANCH   4   9
TORSDOF 3
