REMARK SMILES O=C([O-])c1cc(O)c2c(c1)C(=O)c1cccc([O-])c1C2=O
REMARK SMILES IDX 4 1 5 2 6 3 8 4 9 5 10 6 11 7 12 8 13 9 14 10 15 11 16 12
REMARK SMILES IDX 17 13 18 14 19 15 20 16 21 17 2 18 1 19 3 20 7 21
REMARK H PARENT 7 22
ROOT
ATOM      1  C   UNL     1      -0.290  -0.655   2.943  1.00  0.00     0.002 A 
ATOM      2  C   UNL     1      -0.331   0.718   2.836  1.00  0.00     0.057 A 
ATOM      3  C   UNL     1      -0.241   1.320   1.600  1.00  0.00     0.128 A 
ATOM      4  C   UNL     1      -0.107   0.592   0.429  1.00  0.00     0.075 A 
ATOM      5  C   UNL     1      -0.065  -0.786   0.532  1.00  0.00     0.038 A 
ATOM      6  C   UNL     1      -0.157  -1.385   1.780  1.00  0.00     0.023 A 
ATOM      7  C   UNL     1       0.075  -1.554  -0.698  1.00  0.00     0.194 C 
ATOM      8  O   UNL     1       0.113  -2.802  -0.606  1.00  0.00    -0.289 OA
ATOM      9  C   UNL     1       0.171  -0.906  -2.006  1.00  0.00     0.033 A 
ATOM     10  C   UNL     1       0.304  -1.636  -3.176  1.00  0.00     0.013 A 
ATOM     11  C   UNL     1       0.395  -1.032  -4.413  1.00  0.00     0.000 A 
ATOM     12  C   UNL     1       0.354   0.343  -4.526  1.00  0.00    -0.008 A 
ATOM     13  C   UNL     1       0.220   1.074  -3.353  1.00  0.00    -0.097 A 
ATOM     14  O   UNL     1       0.175   2.449  -3.430  1.00  0.00    -0.872 OA
ATOM     15  C   UNL     1       0.129   0.470  -2.113  1.00  0.00     0.026 A 
ATOM     16  C   UNL     1      -0.012   1.237  -0.880  1.00  0.00     0.197 C 
ATOM     17  O   UNL     1      -0.050   2.481  -0.974  1.00  0.00    -0.288 OA
ENDROOT
BRANCH   1  18
ATOM     18  C   UNL     1      -0.384  -1.313   4.241  1.00  0.00     0.072 C 
ATOM     19  O   UNL     1      -0.348  -2.561   4.354  1.00  0.00    -0.545 OA
ATOM     20  O   UNL     1      -0.517  -0.548   5.388  1.00  0.00    -0.545 OA
ENDBRANCH   1  18
BRANCH   3  21
ATOM     21  O   UNL     1      -0.282   2.690   1.491  1.00  0.00    -0.507 OA
ATOM     22  H   UNL     1       0.410   3.307   1.897  1.00  0.00     0.293 HD
ENDBRANCH   3  21
TORSDOF 2
