REMARK SMILES O=C([O-])c1cc([O-])c2c(c1)C(=O)c1cccc(O)c1C2=O
REMARK SMILES IDX 4 1 5 2 6 3 7 4 8 5 9 6 10 7 11 8 12 9 13 10 14 11 15 12
REMARK SMILES IDX 16 13 17 14 19 15 20 16 21 17 2 18 1 19 3 20 18 21
REMARK H PARENT 18 22
ROOT
ATOM      1  C   UNL     1       0.373   2.565   1.865  1.00  0.00    -0.003 A 
ATOM      2  C   UNL     1      -0.104   1.567   2.688  1.00  0.00     0.002 A 
ATOM      3  C   UNL     1      -0.367   0.305   2.184  1.00  0.00    -0.096 A 
ATOM      4  O   UNL     1      -0.851  -0.722   3.004  1.00  0.00    -0.872 OA
ATOM      5  C   UNL     1      -0.169  -0.011   0.856  1.00  0.00     0.026 A 
ATOM      6  C   UNL     1       0.307   0.987   0.032  1.00  0.00     0.034 A 
ATOM      7  C   UNL     1       0.570   2.248   0.539  1.00  0.00     0.023 A 
ATOM      8  C   UNL     1       0.517   0.655  -1.372  1.00  0.00     0.194 C 
ATOM      9  O   UNL     1       0.951   1.567  -2.122  1.00  0.00    -0.289 OA
ATOM     10  C   UNL     1       0.239  -0.677  -1.908  1.00  0.00     0.037 A 
ATOM     11  C   UNL     1       0.441  -0.984  -3.243  1.00  0.00     0.013 A 
ATOM     12  C   UNL     1       0.170  -2.257  -3.729  1.00  0.00     0.005 A 
ATOM     13  C   UNL     1      -0.305  -3.239  -2.891  1.00  0.00     0.047 A 
ATOM     14  C   UNL     1      -0.513  -2.953  -1.557  1.00  0.00     0.127 A 
ATOM     15  C   UNL     1      -0.238  -1.676  -1.085  1.00  0.00     0.075 A 
ATOM     16  C   UNL     1      -0.446  -1.341   0.319  1.00  0.00     0.197 C 
ATOM     17  O   UNL     1      -0.880  -2.250   1.068  1.00  0.00    -0.288 OA
ENDROOT
BRANCH   1  18
ATOM     18  C   UNL     1       0.657   3.907   2.382  1.00  0.00     0.071 C 
ATOM     19  O   UNL     1       1.087   4.783   1.607  1.00  0.00    -0.545 OA
ATOM     20  O   UNL     1       0.461   4.228   3.715  1.00  0.00    -0.545 OA
ENDBRANCH   1  18
BRANCH  14  21
ATOM     21  O   UNL     1      -0.994  -3.937  -0.693  1.00  0.00    -0.507 OA
ATOM     22  H   UNL     1      -1.955  -3.808  -0.356  1.00  0.00     0.293 HD
ENDBRANCH  14  21
TORSDOF 2
