REMARK SMILES CC[NH+]1CCOC(=O)C1CC(=O)Nc1ccc(F)c(F)c1
REMARK SMILES IDX 10 1 9 2 3 3 4 4 5 5 7 6 6 7 8 8 2 10 1 11 11 12 12 13 13 14
REMARK SMILES IDX 14 16 15 17 21 18 16 19 19 20 17 21 20 22 18 23
REMARK H PARENT 3 9 13 15
ROOT
ATOM      1  C   UNL     1       0.095  -1.529   1.305  1.00  0.00     0.177 C 
ENDROOT
BRANCH   1   2
ATOM      2  C   UNL     1      -0.052  -0.067   1.705  1.00  0.00     0.304 C 
ATOM      3  N   UNL     1      -1.151   0.592   1.103  1.00  0.00    -0.320 N 
ATOM      4  C   UNL     1      -0.947   1.850   0.490  1.00  0.00     0.305 C 
ATOM      5  C   UNL     1       0.133   2.714   1.039  1.00  0.00     0.294 C 
ATOM      6  C   UNL     1       1.258   0.643   1.566  1.00  0.00     0.365 C 
ATOM      7  O   UNL     1       1.209   2.009   1.612  1.00  0.00    -0.455 OA
ATOM      8  O   UNL     1       2.348   0.023   1.415  1.00  0.00    -0.245 OA
ATOM      9  H   UNL     1      -1.528  -0.070   0.356  1.00  0.00     0.348 HD
BRANCH   3  10
ATOM     10  C   UNL     1      -2.271   0.636   2.067  1.00  0.00     0.259 C 
ATOM     11  C   UNL     1      -2.110   1.760   3.046  1.00  0.00     0.071 C 
ENDBRANCH   3  10
ENDBRANCH   1   2
BRANCH   1  12
ATOM     12  C   UNL     1       0.291  -1.709  -0.136  1.00  0.00     0.231 C 
ATOM     13  O   UNL     1       0.337  -0.699  -0.877  1.00  0.00    -0.274 OA
ATOM     14  N   UNL     1       0.431  -2.982  -0.740  1.00  0.00    -0.326 N 
ATOM     15  H   UNL     1       0.400  -3.865  -0.163  1.00  0.00     0.169 HD
BRANCH  14  16
ATOM     16  C   UNL     1       0.617  -3.016  -2.163  1.00  0.00     0.044 A 
ATOM     17  C   UNL     1      -0.434  -3.090  -3.037  1.00  0.00     0.029 A 
ATOM     18  C   UNL     1       1.901  -2.974  -2.681  1.00  0.00     0.068 A 
ATOM     19  C   UNL     1      -0.249  -3.122  -4.396  1.00  0.00     0.044 A 
ATOM     20  C   UNL     1       2.102  -3.006  -4.036  1.00  0.00     0.160 A 
ATOM     21  C   UNL     1       1.033  -3.080  -4.911  1.00  0.00     0.158 A 
ATOM     22  F   UNL     1       3.374  -2.963  -4.535  1.00  0.00    -0.204 F 
ATOM     23  F   UNL     1       1.230  -3.112  -6.260  1.00  0.00    -0.204 F 
ENDBRANCH  14  16
ENDBRANCH   1  12
TORSDOF 4
