REMARK SMILES Cc1cc(NC(=O)c2ccc(C)c([N+](=O)[O-])c2)ccc1-c1cc2ccccc2oc1=O
REMARK SMILES IDX 8 1 9 2 10 3 11 4 12 5 13 6 17 7 6 8 5 9 7 10 4 12 2 13 3 14
REMARK SMILES IDX 20 15 19 16 18 17 1 18 21 19 22 20 30 21 23 22 29 23 31 24
REMARK SMILES IDX 24 25 28 26 25 27 27 28 26 29 14 30 15 31 16 32
REMARK H PARENT 5 11
ROOT
ATOM      1  C   UNL     1       2.523   2.349   1.264  1.00  0.00     0.047 A 
ATOM      2  C   UNL     1       2.844   2.185   2.589  1.00  0.00     0.014 A 
ATOM      3  C   UNL     1       3.628   3.094   3.285  1.00  0.00     0.011 A 
ATOM      4  C   UNL     1       4.107   4.201   2.643  1.00  0.00     0.027 A 
ATOM      5  C   UNL     1       4.941   5.170   3.383  1.00  0.00     0.052 C 
ATOM      6  C   UNL     1       3.803   4.396   1.309  1.00  0.00     0.273 A 
ATOM      7  C   UNL     1       3.015   3.470   0.635  1.00  0.00     0.099 A 
ENDROOT
BRANCH   1   8
ATOM      8  C   UNL     1       1.712   1.380   0.595  1.00  0.00     0.255 C 
ATOM      9  N   UNL     1       1.178   0.201   1.171  1.00  0.00    -0.322 N 
ATOM     10  O   UNL     1       1.433   1.576  -0.630  1.00  0.00    -0.269 OA
ATOM     11  H   UNL     1       1.372  -0.012   2.167  1.00  0.00     0.170 HD
BRANCH   9  12
ATOM     12  C   UNL     1       0.374  -0.726   0.445  1.00  0.00     0.041 A 
ATOM     13  C   UNL     1      -1.762  -1.536  -0.330  1.00  0.00    -0.041 A 
ATOM     14  C   UNL     1      -1.000  -0.628   0.379  1.00  0.00     0.030 A 
ATOM     15  C   UNL     1      -1.197  -2.593  -1.012  1.00  0.00    -0.008 A 
ATOM     16  C   UNL     1       0.178  -2.695  -0.948  1.00  0.00     0.011 A 
ATOM     17  C   UNL     1       0.937  -1.785  -0.238  1.00  0.00     0.027 A 
ATOM     18  C   UNL     1      -3.240  -1.403  -0.382  1.00  0.00     0.045 C 
BRANCH  15  19
ATOM     19  C   UNL     1      -2.046  -3.520  -1.742  1.00  0.00     0.068 A 
ATOM     20  C   UNL     1      -2.546  -4.644  -1.117  1.00  0.00     0.028 A 
ATOM     21  C   UNL     1      -2.417  -3.378  -3.062  1.00  0.00     0.344 A 
ATOM     22  C   UNL     1      -3.360  -5.547  -1.793  1.00  0.00     0.018 A 
ATOM     23  O   UNL     1      -3.184  -4.240  -3.680  1.00  0.00    -0.422 OA
ATOM     24  O   UNL     1      -2.009  -2.386  -3.710  1.00  0.00    -0.246 OA
ATOM     25  C   UNL     1      -3.878  -6.680  -1.206  1.00  0.00     0.012 A 
ATOM     26  C   UNL     1      -3.675  -5.317  -3.114  1.00  0.00     0.138 A 
ATOM     27  C   UNL     1      -4.685  -7.567  -1.891  1.00  0.00     0.001 A 
ATOM     28  C   UNL     1      -4.487  -6.206  -3.810  1.00  0.00     0.048 A 
ATOM     29  C   UNL     1      -5.000  -7.337  -3.213  1.00  0.00     0.004 A 
ENDBRANCH  15  19
ENDBRANCH   9  12
ENDBRANCH   1   8
BRANCH   6  30
ATOM     30  N   UNL     1       4.306   5.550   0.650  1.00  0.00     0.063 N 
ATOM     31  O   UNL     1       5.391   6.092   0.929  1.00  0.00    -0.258 OA
ATOM     32  O   UNL     1       3.513   6.074  -0.362  1.00  0.00    -0.258 OA
ENDBRANCH   6  30
TORSDOF 4
