REMARK SMILES O=C(CSc1ccc(Br)cc1)Nc1ccccc1O
REMARK SMILES IDX 1 1 2 2 12 3 3 5 4 6 5 7 6 8 11 9 7 10 10 11 8 12 9 13 13 14
REMARK SMILES IDX 14 15 18 16 15 17 17 18 16 19 19 20
REMARK H PARENT 12 4 19 21
ROOT
ATOM      1  O   UNL     1      -3.063  -0.763  -0.139  1.00  0.00    -0.274 OA
ATOM      2  C   UNL     1      -2.043  -0.134   0.300  1.00  0.00     0.234 C 
ATOM      3  N   UNL     1      -0.964   0.019  -0.616  1.00  0.00    -0.322 N 
ATOM      4  H   UNL     1      -0.123   0.515  -0.309  1.00  0.00     0.170 HD
ENDROOT
BRANCH   2   5
ATOM      5  C   UNL     1      -2.008   0.397   1.675  1.00  0.00     0.175 C 
BRANCH   5   6
ATOM      6  S   UNL     1      -0.933  -0.473   2.811  1.00  0.00    -0.116 SA
BRANCH   6   7
ATOM      7  C   UNL     1       0.773  -0.177   2.348  1.00  0.00     0.008 A 
ATOM      8  C   UNL     1       1.382   0.939   2.894  1.00  0.00     0.016 A 
ATOM      9  C   UNL     1       1.484  -0.981   1.503  1.00  0.00     0.016 A 
ATOM     10  C   UNL     1       2.696   1.289   2.624  1.00  0.00     0.017 A 
ATOM     11  C   UNL     1       2.799  -0.642   1.225  1.00  0.00     0.017 A 
ATOM     12  C   UNL     1       3.408   0.475   1.771  1.00  0.00     0.018 A 
ATOM     13  Br  UNL     1       5.215   0.953   1.391  1.00  0.00    -0.051 Br
ENDBRANCH   6   7
ENDBRANCH   5   6
ENDBRANCH   2   5
BRANCH   3  14
ATOM     14  C   UNL     1      -1.088  -0.529  -1.958  1.00  0.00     0.083 A 
ATOM     15  C   UNL     1      -1.541   0.284  -2.982  1.00  0.00     0.030 A 
ATOM     16  C   UNL     1      -0.775  -1.834  -2.233  1.00  0.00     0.139 A 
ATOM     17  C   UNL     1      -1.677  -0.204  -4.259  1.00  0.00     0.002 A 
ATOM     18  C   UNL     1      -0.903  -2.345  -3.511  1.00  0.00     0.048 A 
ATOM     19  C   UNL     1      -1.361  -1.516  -4.535  1.00  0.00     0.004 A 
BRANCH  16  20
ATOM     20  O   UNL     1      -0.314  -2.681  -1.206  1.00  0.00    -0.506 OA
ATOM     21  H   UNL     1       0.654  -3.016  -1.256  1.00  0.00     0.293 HD
ENDBRANCH  16  20
ENDBRANCH   3  14
TORSDOF 5
