REMARK SMILES Cc1ccc(C)c(NCN2C(=O)S/C(=C/c3cccc(Br)c3)C2=O)c1
REMARK SMILES IDX 9 1 8 2 7 4 2 5 3 6 25 7 4 8 5 9 1 10 6 11 10 12 11 13 23 14
REMARK SMILES IDX 12 15 13 16 14 17 24 18 15 19 16 20 17 21 22 22 18 23 20 24
REMARK SMILES IDX 19 25 21 26
REMARK H PARENT 8 3
ROOT
ATOM      1  C   UNL     1       0.938   1.724   0.829  1.00  0.00     0.247 C 
ENDROOT
BRANCH   1   2
ATOM      2  N   UNL     1       1.096   1.006   2.054  1.00  0.00    -0.367 N 
ATOM      3  H   UNL     1       2.015   1.160   2.559  1.00  0.00     0.162 HD
BRANCH   2   4
ATOM      4  C   UNL     1       0.174   0.122   2.663  1.00  0.00     0.039 A 
ATOM      5  C   UNL     1      -1.962  -0.956   2.827  1.00  0.00    -0.049 A 
ATOM      6  C   UNL     1      -1.578  -1.573   3.990  1.00  0.00     0.004 A 
ATOM      7  C   UNL     1      -1.097  -0.114   2.166  1.00  0.00     0.029 A 
ATOM      8  C   UNL     1      -0.322  -1.367   4.521  1.00  0.00     0.006 A 
ATOM      9  C   UNL     1       0.527  -0.524   3.847  1.00  0.00    -0.028 A 
ATOM     10  C   UNL     1      -3.331  -1.204   2.281  1.00  0.00     0.044 C 
ATOM     11  C   UNL     1       1.881  -0.307   4.423  1.00  0.00     0.046 C 
ENDBRANCH   2   4
ENDBRANCH   1   2
BRANCH   1  12
ATOM     12  N   UNL     1       1.505   1.036  -0.321  1.00  0.00    -0.250 N 
ATOM     13  C   UNL     1       2.864   1.299  -0.651  1.00  0.00     0.295 C 
ATOM     14  C   UNL     1       0.873   0.137  -1.149  1.00  0.00     0.269 C 
ATOM     15  O   UNL     1       3.610   2.220  -0.286  1.00  0.00    -0.261 OA
ATOM     16  S   UNL     1       3.359  -0.011  -1.762  1.00  0.00    -0.022 SA
ATOM     17  C   UNL     1       1.650  -0.412  -2.223  1.00  0.00     0.083 C 
ATOM     18  O   UNL     1      -0.348  -0.232  -1.014  1.00  0.00    -0.268 OA
ATOM     19  C   UNL     1       1.239  -1.077  -3.277  1.00  0.00     0.029 C 
BRANCH  19  20
ATOM     20  C   UNL     1      -0.147  -1.366  -3.599  1.00  0.00    -0.023 A 
ATOM     21  C   UNL     1      -0.480  -2.693  -3.907  1.00  0.00     0.008 A 
ATOM     22  C   UNL     1      -1.148  -0.431  -3.647  1.00  0.00     0.023 A 
ATOM     23  C   UNL     1      -1.784  -3.006  -4.242  1.00  0.00     0.002 A 
ATOM     24  C   UNL     1      -2.463  -0.743  -3.984  1.00  0.00     0.018 A 
ATOM     25  C   UNL     1      -2.777  -2.056  -4.285  1.00  0.00     0.016 A 
ATOM     26  Br  UNL     1      -3.822   0.591  -4.037  1.00  0.00    -0.051 Br
ENDBRANCH  19  20
ENDBRANCH   1  12
TORSDOF 4
