REMARK SMILES O=C1C(Br)=CC(Cl)=CC1=C[NH2+]c1ccc(-c2nc3ccccc3s2)cc1
REMARK SMILES IDX 11 1 10 4 1 5 2 6 3 7 9 8 5 9 8 10 6 11 4 12 7 13 12 14
REMARK SMILES IDX 13 15 26 16 14 17 25 18 15 19 16 20 17 21 24 22 18 23 23 24
REMARK SMILES IDX 19 25 22 26 20 27 21 28
REMARK H PARENT 11 2 11 3
ROOT
ATOM      1  N   UNL     1       3.106  -0.999  -0.493  1.00  0.00    -0.287 N 
ATOM      2  H   UNL     1       3.477  -1.963  -0.754  1.00  0.00     0.357 HD
ATOM      3  H   UNL     1       3.485  -0.276  -1.119  1.00  0.00     0.357 HD
ENDROOT
BRANCH   1   4
ATOM      4  C   UNL     1       3.412  -0.816   0.882  1.00  0.00     0.238 C 
ATOM      5  O   UNL     1       3.958  -0.649   3.517  1.00  0.00    -0.288 OA
ATOM      6  C   UNL     1       4.055   0.404   2.847  1.00  0.00     0.205 C 
ATOM      7  C   UNL     1       4.444   1.694   3.423  1.00  0.00     0.067 C 
ATOM      8  C   UNL     1       3.765   0.341   1.420  1.00  0.00     0.078 C 
ATOM      9  C   UNL     1       4.536   2.787   2.685  1.00  0.00     0.040 C 
ATOM     10  C   UNL     1       3.885   1.576   0.670  1.00  0.00     0.038 C 
ATOM     11  C   UNL     1       4.247   2.727   1.262  1.00  0.00     0.043 C 
ATOM     12  Br  UNL     1       4.816   1.737   5.297  1.00  0.00    -0.046 Br
ATOM     13  Cl  UNL     1       4.367   4.168   0.278  1.00  0.00    -0.084 Cl
ENDBRANCH   1   4
BRANCH   1  14
ATOM     14  C   UNL     1       1.683  -1.117  -0.670  1.00  0.00     0.134 A 
ATOM     15  C   UNL     1       0.944  -0.121  -1.265  1.00  0.00     0.069 A 
ATOM     16  C   UNL     1       1.020  -2.244  -0.242  1.00  0.00     0.069 A 
ATOM     17  C   UNL     1      -0.440  -0.229  -1.440  1.00  0.00     0.017 A 
ATOM     18  C   UNL     1      -0.368  -2.347  -0.421  1.00  0.00     0.017 A 
ATOM     19  C   UNL     1      -1.086  -1.356  -1.010  1.00  0.00     0.011 A 
BRANCH  19  20
ATOM     20  C   UNL     1      -2.556  -1.521  -1.172  1.00  0.00     0.124 A 
ATOM     21  N   UNL     1      -3.400  -2.339  -0.921  1.00  0.00    -0.236 NA
ATOM     22  S   UNL     1      -3.552  -0.209  -1.959  1.00  0.00    -0.114 S 
ATOM     23  C   UNL     1      -4.686  -2.233  -1.182  1.00  0.00     0.082 A 
ATOM     24  C   UNL     1      -5.094  -1.093  -1.791  1.00  0.00     0.055 A 
ATOM     25  C   UNL     1      -5.720  -3.153  -0.914  1.00  0.00     0.030 A 
ATOM     26  C   UNL     1      -6.406  -0.820  -2.136  1.00  0.00     0.021 A 
ATOM     27  C   UNL     1      -7.021  -2.908  -1.243  1.00  0.00     0.002 A 
ATOM     28  C   UNL     1      -7.400  -1.743  -1.860  1.00  0.00     0.002 A 
ENDBRANCH  19  20
ENDBRANCH   1  14
TORSDOF 3
