REMARK SMILES NC(N)=[NH+]CCC[C@H]([NH3+])C(=O)C[C@@H](Cc1ccccc1)C(=O)[O-]
REMARK SMILES IDX 8 1 7 2 6 3 5 4 4 5 1 6 2 7 3 8 9 14 10 18 11 19 12 20 13 21
REMARK SMILES IDX 14 22 15 23 16 24 20 25 17 26 19 27 18 28 21 29 22 30 23 31
REMARK H PARENT 1 9 1 10 3 11 3 12 4 13 9 15 9 16 9 17
ROOT
ATOM      1  C   UNL     1       1.617  -0.994   1.978  1.00  0.00     0.248 C 
ENDROOT
BRANCH   1   2
ATOM      2  C   UNL     1       0.881  -0.436   3.165  1.00  0.00     0.076 C 
BRANCH   2   3
ATOM      3  C   UNL     1      -0.514  -0.963   3.328  1.00  0.00     0.044 C 
BRANCH   3   4
ATOM      4  C   UNL     1      -0.477  -2.470   3.498  1.00  0.00     0.197 C 
BRANCH   4   5
ATOM      5  N   UNL     1      -1.773  -3.052   3.707  1.00  0.00    -0.278 N 
ATOM      6  N   UNL     1      -3.909  -3.824   3.153  1.00  0.00    -0.291 N 
ATOM      7  C   UNL     1      -2.664  -3.238   2.824  1.00  0.00     0.338 C 
ATOM      8  N   UNL     1      -2.448  -2.869   1.486  1.00  0.00    -0.291 N 
ATOM      9  H   UNL     1      -4.769  -3.534   2.655  1.00  0.00     0.256 HD
ATOM     10  H   UNL     1      -3.942  -4.549   3.902  1.00  0.00     0.256 HD
ATOM     11  H   UNL     1      -2.996  -2.064   1.100  1.00  0.00     0.256 HD
ATOM     12  H   UNL     1      -1.779  -3.342   0.854  1.00  0.00     0.256 HD
ATOM     13  H   UNL     1      -2.030  -3.366   4.700  1.00  0.00     0.260 HD
ENDBRANCH   4   5
ENDBRANCH   3   4
ENDBRANCH   2   3
ENDBRANCH   1   2
BRANCH   1  14
ATOM     14  N   UNL     1       2.957  -0.372   2.017  1.00  0.00    -0.349 N 
ATOM     15  H   UNL     1       3.423  -0.565   2.919  1.00  0.00     0.345 HD
ATOM     16  H   UNL     1       3.556  -0.749   1.254  1.00  0.00     0.345 HD
ATOM     17  H   UNL     1       2.892   0.657   1.900  1.00  0.00     0.345 HD
ENDBRANCH   1  14
BRANCH   1  18
ATOM     18  C   UNL     1       0.931  -0.576   0.719  1.00  0.00     0.190 C 
ATOM     19  O   UNL     1      -0.134  -1.080   0.459  1.00  0.00    -0.293 OA
BRANCH  18  20
ATOM     20  C   UNL     1       1.564   0.424  -0.159  1.00  0.00     0.092 C 
BRANCH  20  21
ATOM     21  C   UNL     1       0.822   0.730  -1.422  1.00  0.00     0.047 C 
BRANCH  21  22
ATOM     22  C   UNL     1       0.638  -0.440  -2.315  1.00  0.00     0.045 C 
BRANCH  22  23
ATOM     23  C   UNL     1      -0.083  -0.190  -3.576  1.00  0.00    -0.047 A 
ATOM     24  C   UNL     1      -1.426  -0.394  -3.786  1.00  0.00     0.004 A 
ATOM     25  C   UNL     1       0.639   0.315  -4.664  1.00  0.00     0.004 A 
ATOM     26  C   UNL     1      -2.033  -0.111  -5.014  1.00  0.00     0.000 A 
ATOM     27  C   UNL     1       0.047   0.595  -5.875  1.00  0.00     0.000 A 
ATOM     28  C   UNL     1      -1.290   0.384  -6.058  1.00  0.00     0.000 A 
ENDBRANCH  22  23
ENDBRANCH  21  22
BRANCH  21  29
ATOM     29  C   UNL     1      -0.383   1.490  -1.081  1.00  0.00     0.045 C 
ATOM     30  O   UNL     1      -1.565   1.105  -1.195  1.00  0.00    -0.550 OA
ATOM     31  O   UNL     1      -0.241   2.796  -0.568  1.00  0.00    -0.550 OA
ENDBRANCH  21  29
ENDBRANCH  20  21
ENDBRANCH  18  20
ENDBRANCH   1  18
TORSDOF 11
