REMARK SMILES NC(N)=[NH+]CCC[C@H](N)C(=O)C[C@@H](Cc1ccccc1)C(=O)[O-]
REMARK SMILES IDX 8 1 7 2 6 3 5 4 4 5 1 6 2 7 3 8 9 14 10 17 11 18 12 19 13 20
REMARK SMILES IDX 14 21 15 22 16 23 20 24 17 25 19 26 18 27 21 28 22 29 23 30
REMARK H PARENT 1 9 1 10 3 11 3 12 4 13 9 15 9 16
ROOT
ATOM      1  C   UNL     1       1.663  -1.337   1.996  1.00  0.00     0.118 C 
ENDROOT
BRANCH   1   2
ATOM      2  C   UNL     1       1.282   0.033   2.364  1.00  0.00     0.030 C 
BRANCH   2   3
ATOM      3  C   UNL     1       1.246   1.114   1.397  1.00  0.00     0.040 C 
BRANCH   3   4
ATOM      4  C   UNL     1       0.394   1.076   0.204  1.00  0.00     0.197 C 
BRANCH   4   5
ATOM      5  N   UNL     1       0.549   2.315  -0.585  1.00  0.00    -0.278 N 
ATOM      6  N   UNL     1       1.702   1.180  -2.254  1.00  0.00    -0.291 N 
ATOM      7  C   UNL     1       1.148   2.360  -1.710  1.00  0.00     0.338 C 
ATOM      8  N   UNL     1       1.269   3.569  -2.418  1.00  0.00    -0.291 N 
ATOM      9  H   UNL     1       2.571   0.724  -1.848  1.00  0.00     0.256 HD
ATOM     10  H   UNL     1       1.209   0.765  -3.092  1.00  0.00     0.256 HD
ATOM     11  H   UNL     1       2.069   4.229  -2.333  1.00  0.00     0.256 HD
ATOM     12  H   UNL     1       0.509   3.835  -3.079  1.00  0.00     0.256 HD
ATOM     13  H   UNL     1       0.148   3.219  -0.214  1.00  0.00     0.260 HD
ENDBRANCH   4   5
ENDBRANCH   3   4
ENDBRANCH   2   3
ENDBRANCH   1   2
BRANCH   1  14
ATOM     14  N   UNL     1       2.973  -1.509   1.422  1.00  0.00    -0.322 NA
ATOM     15  H   UNL     1       2.911  -1.918   0.470  1.00  0.00     0.119 HD
ATOM     16  H   UNL     1       3.513  -0.643   1.506  1.00  0.00     0.119 HD
ENDBRANCH   1  14
BRANCH   1  17
ATOM     17  C   UNL     1       0.619  -2.207   1.413  1.00  0.00     0.150 C 
ATOM     18  O   UNL     1       1.018  -3.035   0.579  1.00  0.00    -0.298 OA
BRANCH  17  19
ATOM     19  C   UNL     1      -0.795  -2.175   1.733  1.00  0.00     0.087 C 
BRANCH  19  20
ATOM     20  C   UNL     1      -1.646  -3.295   1.286  1.00  0.00     0.047 C 
BRANCH  20  21
ATOM     21  C   UNL     1      -1.728  -3.564  -0.180  1.00  0.00     0.045 C 
BRANCH  21  22
ATOM     22  C   UNL     1      -2.272  -2.361  -0.857  1.00  0.00    -0.047 A 
ATOM     23  C   UNL     1      -3.629  -2.174  -0.978  1.00  0.00     0.004 A 
ATOM     24  C   UNL     1      -1.452  -1.393  -1.395  1.00  0.00     0.004 A 
ATOM     25  C   UNL     1      -4.149  -1.061  -1.612  1.00  0.00     0.000 A 
ATOM     26  C   UNL     1      -1.939  -0.290  -2.023  1.00  0.00     0.000 A 
ATOM     27  C   UNL     1      -3.306  -0.108  -2.141  1.00  0.00     0.000 A 
ENDBRANCH  21  22
ENDBRANCH  20  21
BRANCH  20  28
ATOM     28  C   UNL     1      -1.440  -4.538   2.083  1.00  0.00     0.045 C 
ATOM     29  O   UNL     1      -0.927  -5.539   1.550  1.00  0.00    -0.550 OA
ATOM     30  O   UNL     1      -1.816  -4.586   3.412  1.00  0.00    -0.550 OA
ENDBRANCH  20  28
ENDBRANCH  19  20
ENDBRANCH  17  19
ENDBRANCH   1  17
TORSDOF 11
