REMARK SMILES Cc1ccc(NC(=O)c2ccc(NC(=O)c3c(-c4ccccc4Cl)noc3C)cc2)cc1
REMARK SMILES IDX 9 1 10 2 11 3 12 4 29 5 30 6 7 7 6 8 8 9 5 11 2 12 3 13
REMARK SMILES IDX 32 14 4 15 31 16 1 17 13 18 14 19 15 20 16 22 17 23 27 24
REMARK SMILES IDX 25 25 26 26 28 27 18 28 19 29 23 30 20 31 22 32 21 33 24 34
REMARK H PARENT 6 10 13 21
ROOT
ATOM      1  C   UNL     1       0.647  -0.623   1.476  1.00  0.00     0.040 A 
ATOM      2  C   UNL     1      -0.339  -0.107   0.689  1.00  0.00     0.016 A 
ATOM      3  C   UNL     1      -0.434  -0.380  -0.654  1.00  0.00     0.027 A 
ATOM      4  C   UNL     1       0.484  -1.217  -1.318  1.00  0.00     0.041 A 
ATOM      5  C   UNL     1       1.474  -1.734  -0.525  1.00  0.00     0.027 A 
ATOM      6  C   UNL     1       1.556  -1.443   0.850  1.00  0.00     0.016 A 
ENDROOT
BRANCH   1   7
ATOM      7  C   UNL     1       0.785  -0.364   2.904  1.00  0.00     0.255 C 
ATOM      8  N   UNL     1      -0.107   0.392   3.685  1.00  0.00    -0.322 N 
ATOM      9  O   UNL     1       1.770  -0.839   3.528  1.00  0.00    -0.269 OA
ATOM     10  H   UNL     1      -0.939   0.790   3.155  1.00  0.00     0.170 HD
BRANCH   8  11
ATOM     11  C   UNL     1      -0.003   0.659   5.051  1.00  0.00     0.041 A 
ATOM     12  C   UNL     1       0.198   1.213   7.802  1.00  0.00    -0.051 A 
ATOM     13  C   UNL     1      -0.445   0.088   7.358  1.00  0.00     0.005 A 
ATOM     14  C   UNL     1       0.750   2.076   6.878  1.00  0.00     0.005 A 
ATOM     15  C   UNL     1      -0.539  -0.173   6.029  1.00  0.00     0.026 A 
ATOM     16  C   UNL     1       0.641   1.787   5.521  1.00  0.00     0.026 A 
ATOM     17  C   UNL     1       0.331   1.552   9.243  1.00  0.00     0.044 C 
ENDBRANCH   8  11
ENDBRANCH   1   7
BRANCH   4  18
ATOM     18  N   UNL     1       0.341  -1.433  -2.709  1.00  0.00    -0.322 N 
ATOM     19  C   UNL     1       1.034  -2.346  -3.519  1.00  0.00     0.261 C 
ATOM     20  O   UNL     1       1.906  -3.079  -2.932  1.00  0.00    -0.269 OA
ATOM     21  H   UNL     1      -0.362  -0.805  -3.215  1.00  0.00     0.170 HD
BRANCH  19  22
ATOM     22  C   UNL     1       0.839  -2.515  -4.961  1.00  0.00     0.110 A 
ATOM     23  C   UNL     1      -0.159  -2.088  -5.763  1.00  0.00     0.128 A 
ATOM     24  C   UNL     1       1.792  -3.138  -5.785  1.00  0.00     0.147 A 
ATOM     25  N   UNL     1       0.182  -2.437  -7.022  1.00  0.00    -0.079 NA
ATOM     26  O   UNL     1       1.325  -3.051  -7.021  1.00  0.00    -0.360 OA
ATOM     27  C   UNL     1       3.057  -3.767  -5.396  1.00  0.00     0.092 C 
BRANCH  23  28
ATOM     28  C   UNL     1      -1.385  -1.391  -5.439  1.00  0.00     0.023 A 
ATOM     29  C   UNL     1      -2.325  -2.055  -4.643  1.00  0.00     0.012 A 
ATOM     30  C   UNL     1      -1.680  -0.140  -5.918  1.00  0.00     0.050 A 
ATOM     31  C   UNL     1      -3.507  -1.431  -4.371  1.00  0.00     0.001 A 
ATOM     32  C   UNL     1      -2.873   0.453  -5.626  1.00  0.00     0.021 A 
ATOM     33  C   UNL     1      -3.833  -0.160  -4.845  1.00  0.00     0.002 A 
ATOM     34  Cl  UNL     1      -0.525   0.707  -6.909  1.00  0.00    -0.084 Cl
ENDBRANCH  23  28
ENDBRANCH  19  22
ENDBRANCH   4  18
TORSDOF 5
