REMARK SMILES Brc1ccc(Nc2nc(-c3ccccn3)cs2)cc1
REMARK SMILES IDX 6 1 5 3 2 4 3 5 19 6 4 7 18 8 1 9 7 10 8 11 17 12 9 13 16 14
REMARK SMILES IDX 10 15 11 16 15 17 12 18 14 19 13 20
REMARK H PARENT 6 2
ROOT
ATOM      1  N   UNL     1      -0.453   1.052   2.211  1.00  0.00    -0.332 N 
ATOM      2  H   UNL     1      -0.368   1.834   2.914  1.00  0.00     0.169 HD
ENDROOT
BRANCH   1   3
ATOM      3  C   UNL     1      -1.208  -0.099   2.448  1.00  0.00     0.040 A 
ATOM      4  C   UNL     1      -2.718  -2.372   2.950  1.00  0.00     0.018 A 
ATOM      5  C   UNL     1      -2.633  -1.372   3.894  1.00  0.00     0.018 A 
ATOM      6  C   UNL     1      -2.063  -2.266   1.747  1.00  0.00     0.018 A 
ATOM      7  C   UNL     1      -1.884  -0.247   3.644  1.00  0.00     0.027 A 
ATOM      8  C   UNL     1      -1.310  -1.103   1.531  1.00  0.00     0.027 A 
ATOM      9  Br  UNL     1      -3.783  -3.924   3.360  1.00  0.00    -0.051 Br
ENDBRANCH   1   3
BRANCH   1  10
ATOM     10  C   UNL     1       0.284   1.224   0.920  1.00  0.00     0.187 A 
ATOM     11  N   UNL     1       0.495   0.710  -0.081  1.00  0.00    -0.218 NA
ATOM     12  S   UNL     1       1.260   2.811   0.727  1.00  0.00    -0.105 S 
ATOM     13  C   UNL     1       1.224   1.094  -1.120  1.00  0.00     0.102 A 
ATOM     14  C   UNL     1       1.798   2.273  -0.960  1.00  0.00     0.099 A 
BRANCH  13  15
ATOM     15  C   UNL     1       1.389   0.283  -2.360  1.00  0.00     0.090 A 
ATOM     16  C   UNL     1       2.162   0.752  -3.393  1.00  0.00     0.031 A 
ATOM     17  N   UNL     1       0.810  -0.914  -2.531  1.00  0.00    -0.255 NA
ATOM     18  C   UNL     1       2.320  -0.005  -4.557  1.00  0.00     0.004 A 
ATOM     19  C   UNL     1       0.941  -1.660  -3.628  1.00  0.00     0.112 A 
ATOM     20  C   UNL     1       1.704  -1.230  -4.686  1.00  0.00     0.020 A 
ENDBRANCH  13  15
ENDBRANCH   1  10
TORSDOF 3
