REMARK SMILES O=c1cc(-c2ccccc2)oc2cc([O-])c([O-])c([O-])c12
REMARK SMILES IDX 1 1 2 2 3 3 4 4 11 5 12 6 13 7 14 8 15 9 16 10 17 11 18 12
REMARK SMILES IDX 19 13 20 14 5 15 6 16 10 17 7 18 9 19 8 20
REMARK H PARENT
ROOT
ATOM      1  O   UNL     1      -3.401   0.731   0.264  1.00  0.00    -0.289 OA
ATOM      2  C   UNL     1      -2.262   0.379  -0.133  1.00  0.00     0.192 A 
ATOM      3  C   UNL     1      -1.170   0.434   0.741  1.00  0.00     0.100 A 
ATOM      4  C   UNL     1       0.072   0.046   0.298  1.00  0.00     0.138 A 
ATOM      5  O   UNL     1       0.179  -0.368  -0.955  1.00  0.00    -0.456 OA
ATOM      6  C   UNL     1      -0.804  -0.440  -1.812  1.00  0.00     0.137 A 
ATOM      7  C   UNL     1      -0.627  -0.883  -3.110  1.00  0.00     0.038 A 
ATOM      8  C   UNL     1      -1.643  -0.968  -4.032  1.00  0.00    -0.114 A 
ATOM      9  O   UNL     1      -1.429  -1.419  -5.334  1.00  0.00    -0.873 OA
ATOM     10  C   UNL     1      -2.924  -0.586  -3.632  1.00  0.00    -0.124 A 
ATOM     11  O   UNL     1      -3.953  -0.671  -4.559  1.00  0.00    -0.873 OA
ATOM     12  C   UNL     1      -3.103  -0.144  -2.337  1.00  0.00    -0.103 A 
ATOM     13  O   UNL     1      -4.366   0.240  -1.919  1.00  0.00    -0.872 OA
ATOM     14  C   UNL     1      -2.078  -0.063  -1.424  1.00  0.00     0.056 A 
ENDROOT
BRANCH   4  15
ATOM     15  C   UNL     1       1.258   0.078   1.154  1.00  0.00     0.017 A 
ATOM     16  C   UNL     1       2.473  -0.326   0.643  1.00  0.00     0.012 A 
ATOM     17  C   UNL     1       1.222   0.494   2.458  1.00  0.00     0.012 A 
ATOM     18  C   UNL     1       3.635  -0.325   1.387  1.00  0.00     0.001 A 
ATOM     19  C   UNL     1       2.373   0.510   3.246  1.00  0.00     0.001 A 
ATOM     20  C   UNL     1       3.578   0.102   2.714  1.00  0.00     0.000 A 
ENDBRANCH   4  15
TORSDOF 1
