REMARK SMILES COc1cc(NC(=O)Nc2ccc(Br)cc2Cl)c(OC)cc1Cl
REMARK SMILES IDX 3 1 4 2 5 3 18 4 21 5 22 6 23 7 2 8 1 9 6 10 7 11 8 12 9 13
REMARK SMILES IDX 10 16 11 17 16 18 12 19 15 20 13 21 17 22 14 23 19 24 20 25
REMARK H PARENT 6 14 9 15
ROOT
ATOM      1  C   UNL     1      -3.915   0.279   0.634  1.00  0.00     0.139 A 
ATOM      2  C   UNL     1      -2.626   0.658   0.368  1.00  0.00     0.078 A 
ATOM      3  C   UNL     1      -1.526   0.203   1.070  1.00  0.00     0.089 A 
ATOM      4  C   UNL     1      -1.790  -0.692   2.100  1.00  0.00     0.144 A 
ATOM      5  C   UNL     1      -3.067  -1.108   2.414  1.00  0.00     0.073 A 
ATOM      6  C   UNL     1      -4.126  -0.612   1.669  1.00  0.00     0.086 A 
ATOM      7  Cl  UNL     1      -5.780  -1.117   2.034  1.00  0.00    -0.080 Cl
ENDROOT
BRANCH   1   8
ATOM      8  O   UNL     1      -5.022   0.737  -0.071  1.00  0.00    -0.495 OA
ATOM      9  C   UNL     1      -4.757   1.652  -1.126  1.00  0.00     0.278 C 
ENDBRANCH   1   8
BRANCH   3  10
ATOM     10  N   UNL     1      -0.204   0.623   0.758  1.00  0.00    -0.304 N 
ATOM     11  C   UNL     1       0.582  -0.096  -0.182  1.00  0.00     0.323 C 
ATOM     12  O   UNL     1       0.081  -1.106  -0.726  1.00  0.00    -0.248 OA
ATOM     13  N   UNL     1       1.910   0.288  -0.525  1.00  0.00    -0.306 N 
ATOM     14  H   UNL     1       0.201   1.451   1.207  1.00  0.00     0.172 HD
ATOM     15  H   UNL     1       2.330   1.133  -0.071  1.00  0.00     0.171 HD
BRANCH  13  16
ATOM     16  C   UNL     1       2.706  -0.425  -1.465  1.00  0.00     0.061 A 
ATOM     17  C   UNL     1       2.685  -0.104  -2.810  1.00  0.00     0.029 A 
ATOM     18  C   UNL     1       3.535  -1.465  -1.093  1.00  0.00     0.065 A 
ATOM     19  C   UNL     1       3.450  -0.785  -3.735  1.00  0.00     0.018 A 
ATOM     20  C   UNL     1       4.306  -2.153  -2.018  1.00  0.00     0.038 A 
ATOM     21  C   UNL     1       4.275  -1.822  -3.357  1.00  0.00     0.019 A 
ATOM     22  Cl  UNL     1       3.581  -1.890   0.598  1.00  0.00    -0.082 Cl
ATOM     23  Br  UNL     1       5.331  -2.758  -4.649  1.00  0.00    -0.051 Br
ENDBRANCH  13  16
ENDBRANCH   3  10
BRANCH   4  24
ATOM     24  O   UNL     1      -0.708  -1.170   2.827  1.00  0.00    -0.495 OA
ATOM     25  C   UNL     1      -0.918  -2.088   3.894  1.00  0.00     0.278 C 
ENDBRANCH   4  24
TORSDOF 4
