REMARK SMILES COC1C=COC2(C)Oc3c(C)c([O-])c4c(c3C2=O)C(=O)C(=CN[NH+]2CC[NH+](C)CC2)C(=C4[O-])NC(=O)C(C)=CC=CC(C)C(O)C(C)C(O)C(C)C(OC(C)=O)C1C
REMARK SMILES IDX 7 1 8 2 9 3 10 4 11 5 12 6 13 7 14 8 15 9 16 10 17 11 18 12
REMARK SMILES IDX 19 13 20 14 21 15 22 16 23 17 32 18 33 19 34 20 6 21 5 22
REMARK SMILES IDX 4 23 3 24 2 25 1 26 58 27 59 28 53 29 51 30 52 31 54 33
REMARK SMILES IDX 55 34 57 35 56 36 35 37 36 38 37 39 38 41 40 42 39 43 41 44
REMARK SMILES IDX 42 45 43 46 44 47 45 48 46 49 47 51 48 52 49 53 50 55 24 57
REMARK SMILES IDX 25 59 26 60 31 61 27 62 30 63 28 64 29 66
REMARK H PARENT 35 40 46 50 50 56 24 58 25 65 28 67
REMARK Flexibility Score:   63.900
ROOT
ATOM      1  C   UNL     1       0.735   4.339  -1.114  1.00  0.00     0.312 C 
ATOM      2  C   UNL     1       0.715   5.756  -0.705  1.00  0.00     0.116 C 
ATOM      3  O   UNL     1       1.181   4.130  -2.476  1.00  0.00    -0.444 OA
ATOM      4  C   UNL     1       0.689   2.882  -2.862  1.00  0.00     0.139 A 
ATOM      5  C   UNL     1       1.145   1.919  -3.755  1.00  0.00    -0.015 A 
ATOM      6  C   UNL     1       2.374   2.145  -4.521  1.00  0.00     0.048 C 
ATOM      7  C   UNL     1       0.407   0.778  -3.881  1.00  0.00    -0.095 A 
ATOM      8  O   UNL     1       0.875  -0.186  -4.783  1.00  0.00    -0.872 OA
ATOM      9  C   UNL     1      -0.743   0.558  -3.170  1.00  0.00    -0.027 A 
ATOM     10  C   UNL     1      -1.169   1.538  -2.297  1.00  0.00     0.044 A 
ATOM     11  C   UNL     1      -0.469   2.671  -2.149  1.00  0.00     0.080 A 
ATOM     12  C   UNL     1      -0.693   3.817  -1.308  1.00  0.00     0.251 C 
ATOM     13  O   UNL     1      -1.701   4.343  -0.810  1.00  0.00    -0.285 OA
ATOM     14  C   UNL     1      -2.355   1.262  -1.502  1.00  0.00     0.198 C 
ATOM     15  O   UNL     1      -2.838   2.092  -0.681  1.00  0.00    -0.288 OA
ATOM     16  C   UNL     1      -3.002  -0.038  -1.674  1.00  0.00     0.066 C 
ATOM     17  C   UNL     1      -4.080  -0.299  -0.968  1.00  0.00     0.150 C 
ATOM     18  C   UNL     1      -2.463  -0.957  -2.585  1.00  0.00     0.047 C 
ATOM     19  C   UNL     1      -1.418  -0.722  -3.314  1.00  0.00    -0.076 C 
ATOM     20  O   UNL     1      -0.910  -1.643  -4.233  1.00  0.00    -0.871 OA
ENDROOT
BRANCH   1  21
ATOM     21  O   UNL     1       1.465   3.473  -0.293  1.00  0.00    -0.454 OA
BRANCH  21  22
ATOM     22  C   UNL     1       1.105   3.183   1.015  1.00  0.00     0.191 C 
ATOM     23  C   UNL     1       1.740   2.446   1.866  1.00  0.00     0.043 C 
BRANCH  23  24
ATOM     24  C   UNL     1       3.039   1.715   1.644  1.00  0.00     0.150 C 
BRANCH  24  25
ATOM     25  O   UNL     1       4.015   2.598   2.099  1.00  0.00    -0.377 OA
ATOM     26  C   UNL     1       4.682   3.170   1.055  1.00  0.00     0.195 C 
ENDBRANCH  24  25
BRANCH  24  27
ATOM     27  C   UNL     1       3.018   0.427   2.438  1.00  0.00     0.060 C 
ATOM     28  C   UNL     1       1.739  -0.261   2.062  1.00  0.00     0.015 C 
BRANCH  27  29
ATOM     29  C   UNL     1       4.258  -0.308   2.393  1.00  0.00     0.187 C 
BRANCH  29  30
ATOM     30  C   UNL     1       4.399  -1.562   3.209  1.00  0.00     0.056 CG0
ATOM     31  C   UNL     1       4.142  -1.241   4.691  1.00  0.00     0.014 C 
ATOM     32  G   UNL     1       3.698  -2.785   2.855  1.00  0.00     0.000 G0
ENDBRANCH  29  30
BRANCH  29  33
ATOM     33  O   UNL     1       4.717  -0.571   1.077  1.00  0.00    -0.462 OA
BRANCH  33  34
ATOM     34  C   UNL     1       5.914  -0.184   0.556  1.00  0.00     0.302 C 
ATOM     35  O   UNL     1       6.686   0.469   1.342  1.00  0.00    -0.253 OA
ATOM     36  C   UNL     1       6.414  -0.436  -0.810  1.00  0.00     0.139 C 
ENDBRANCH  33  34
ENDBRANCH  29  33
ENDBRANCH  27  29
ENDBRANCH  24  27
ENDBRANCH  23  24
ENDBRANCH  21  22
ENDBRANCH   1  21
BRANCH  18  37
ATOM     37  N   UNL     1      -2.944  -2.334  -2.525  1.00  0.00    -0.322 N 
ATOM     38  C   UNL     1      -1.979  -3.267  -2.009  1.00  0.00     0.251 C 
ATOM     39  O   UNL     1      -0.882  -2.605  -1.769  1.00  0.00    -0.269 OA
ATOM     40  H   UNL     1      -3.855  -2.570  -2.820  1.00  0.00     0.170 HD
BRANCH  38  41
ATOM     41  C   UNL     1      -2.065  -4.658  -1.745  1.00  0.00     0.014 C 
ATOM     42  C   UNL     1      -0.988  -5.308  -1.268  1.00  0.00     0.009 C 
ATOM     43  C   UNL     1      -3.299  -5.427  -1.977  1.00  0.00     0.050 C 
BRANCH  42  44
ATOM     44  C   UNL     1       0.277  -4.738  -1.002  1.00  0.00    -0.003 C 
ATOM     45  C   UNL     1       1.330  -5.357  -0.497  1.00  0.00    -0.021 C 
BRANCH  45  46
ATOM     46  C   UNL     1       2.603  -4.574  -0.301  1.00  0.00     0.038 C 
ATOM     47  C   UNL     1       2.528  -3.307  -1.075  1.00  0.00     0.015 C 
BRANCH  46  48
ATOM     48  C   UNL     1       2.860  -4.421   1.150  1.00  0.00     0.126 C 
BRANCH  48  49
ATOM     49  O   UNL     1       3.147  -5.624   1.735  1.00  0.00    -0.392 OA
ATOM     50  H   UNL     1       2.637  -5.832   2.553  1.00  0.00     0.210 HD
ENDBRANCH  48  49
BRANCH  48  51
ATOM     51  C   UNL     1       3.822  -3.293   1.454  1.00  0.00     0.044 C 
ATOM     52  C   UNL     1       5.217  -3.560   0.985  1.00  0.00     0.013 C 
BRANCH  51  53
ATOM     53  C   UNL     1       3.698  -2.785   2.855  1.00  0.00     0.126 CG0
ATOM     54  G   UNL     1       4.399  -1.562   3.209  1.00  0.00     0.000 G0
BRANCH  53  55
ATOM     55  O   UNL     1       4.108  -3.803   3.719  1.00  0.00    -0.392 OA
ATOM     56  H   UNL     1       4.828  -4.348   3.361  1.00  0.00     0.210 HD
ENDBRANCH  53  55
ENDBRANCH  51  53
ENDBRANCH  48  51
ENDBRANCH  46  48
ENDBRANCH  45  46
ENDBRANCH  42  44
ENDBRANCH  38  41
ENDBRANCH  18  37
BRANCH  17  57
ATOM     57  N   UNL     1      -4.693   0.573  -0.035  1.00  0.00    -0.244 N 
ATOM     58  H   UNL     1      -4.150   0.862   0.799  1.00  0.00     0.226 HD
BRANCH  57  59
ATOM     59  N   UNL     1      -6.002   1.072  -0.174  1.00  0.00    -0.225 N 
ATOM     60  C   UNL     1      -6.022   2.502  -0.260  1.00  0.00     0.351 C 
ATOM     61  C   UNL     1      -6.857   0.642   0.903  1.00  0.00     0.351 C 
ATOM     62  C   UNL     1      -7.420   3.043  -0.490  1.00  0.00     0.326 C 
ATOM     63  C   UNL     1      -7.573   1.786   1.536  1.00  0.00     0.326 C 
ATOM     64  N   UNL     1      -8.326   2.522   0.533  1.00  0.00    -0.328 N 
ATOM     65  H   UNL     1      -6.416   0.684  -1.072  1.00  0.00     0.378 HD
ATOM     66  C   UNL     1      -9.093   3.592   1.099  1.00  0.00     0.333 C 
ATOM     67  H   UNL     1      -8.960   1.851   0.055  1.00  0.00     0.348 HD
ENDBRANCH  57  59
ENDBRANCH  17  57
TORSDOF 7
