REMARK SMILES COc1ccc(C(=O)n2nnc3ccccc32)cc1OC
REMARK SMILES IDX 3 1 4 2 5 3 6 4 18 5 19 6 2 7 1 8 20 9 21 10 7 11 8 12 9 13
REMARK SMILES IDX 10 14 17 15 11 16 16 17 12 18 15 19 13 20 14 21
REMARK H PARENT
ROOT
ATOM      1  C   UNL     1      -1.820  -2.394   1.235  1.00  0.00     0.160 A 
ATOM      2  C   UNL     1      -0.829  -3.293   0.882  1.00  0.00     0.051 A 
ATOM      3  C   UNL     1       0.411  -2.880   0.509  1.00  0.00     0.018 A 
ATOM      4  C   UNL     1       0.746  -1.517   0.465  1.00  0.00     0.046 A 
ATOM      5  C   UNL     1      -0.238  -0.628   0.817  1.00  0.00     0.064 A 
ATOM      6  C   UNL     1      -1.485  -1.057   1.191  1.00  0.00     0.161 A 
ENDROOT
BRANCH   1   7
ATOM      7  O   UNL     1      -3.098  -2.771   1.621  1.00  0.00    -0.493 OA
ATOM      8  C   UNL     1      -3.501  -4.124   1.686  1.00  0.00     0.278 C 
ENDBRANCH   1   7
BRANCH   6   9
ATOM      9  O   UNL     1      -2.480  -0.138   1.547  1.00  0.00    -0.493 OA
ATOM     10  C   UNL     1      -2.235   1.260   1.534  1.00  0.00     0.278 C 
ENDBRANCH   6   9
BRANCH   4  11
ATOM     11  C   UNL     1       2.080  -1.097   0.168  1.00  0.00     0.280 C 
ATOM     12  O   UNL     1       2.970  -1.900   0.671  1.00  0.00    -0.267 OA
BRANCH  11  13
ATOM     13  N   UNL     1       2.579  -0.001  -0.546  1.00  0.00    -0.175 N 
ATOM     14  N   UNL     1       3.892   0.349  -0.542  1.00  0.00    -0.058 NA
ATOM     15  C   UNL     1       2.037   0.873  -1.386  1.00  0.00     0.098 A 
ATOM     16  N   UNL     1       4.131   1.353  -1.312  1.00  0.00    -0.130 NA
ATOM     17  C   UNL     1       0.767   1.062  -1.866  1.00  0.00     0.031 A 
ATOM     18  C   UNL     1       2.998   1.754  -1.893  1.00  0.00     0.113 A 
ATOM     19  C   UNL     1       0.418   2.036  -2.775  1.00  0.00     0.002 A 
ATOM     20  C   UNL     1       2.681   2.733  -2.797  1.00  0.00     0.032 A 
ATOM     21  C   UNL     1       1.394   2.888  -3.248  1.00  0.00     0.002 A 
ENDBRANCH  11  13
ENDBRANCH   4  11
TORSDOF 4
