REMARK SMILES Cc1ccc2[nH]c3c(c2c1)CCCC3[NH2+]CCO
REMARK SMILES IDX 16 1 15 2 14 5 2 6 3 7 10 8 4 9 9 10 5 11 8 12 6 13 7 14
REMARK SMILES IDX 11 15 12 16 13 17 1 18 17 20 18 21
REMARK H PARENT 15 3 15 4 6 19 18 22
ROOT
ATOM      1  C   UNL     1      -1.714   0.049  -2.711  1.00  0.00     0.289 C 
ENDROOT
BRANCH   1   2
ATOM      2  N   UNL     1      -0.363  -0.471  -2.818  1.00  0.00    -0.337 N 
ATOM      3  H   UNL     1      -0.344  -1.377  -2.300  1.00  0.00     0.346 HD
ATOM      4  H   UNL     1      -0.088  -0.666  -3.809  1.00  0.00     0.346 HD
BRANCH   2   5
ATOM      5  C   UNL     1       0.596   0.396  -2.164  1.00  0.00     0.230 C 
ATOM      6  C   UNL     1      -0.206  -0.866   3.713  1.00  0.00    -0.050 A 
ATOM      7  C   UNL     1      -0.835   0.362   3.725  1.00  0.00     0.005 A 
ATOM      8  C   UNL     1       0.312  -1.303   2.512  1.00  0.00     0.014 A 
ATOM      9  C   UNL     1      -0.941   1.130   2.565  1.00  0.00     0.027 A 
ATOM     10  C   UNL     1       0.217  -0.552   1.344  1.00  0.00     0.003 A 
ATOM     11  C   UNL     1      -0.415   0.673   1.373  1.00  0.00     0.046 A 
ATOM     12  C   UNL     1       0.631  -0.738   0.042  1.00  0.00    -0.013 A 
ATOM     13  N   UNL     1      -0.375   1.193   0.133  1.00  0.00    -0.353 N 
ATOM     14  C   UNL     1       0.255   0.357  -0.697  1.00  0.00     0.077 A 
ATOM     15  C   UNL     1       1.362  -1.899  -0.525  1.00  0.00     0.038 C 
ATOM     16  C   UNL     1       1.943  -1.656  -1.868  1.00  0.00     0.011 C 
ATOM     17  C   UNL     1       1.958  -0.222  -2.298  1.00  0.00     0.072 C 
ATOM     18  C   UNL     1      -0.107  -1.662   4.964  1.00  0.00     0.044 C 
ATOM     19  H   UNL     1      -0.779   2.128  -0.162  1.00  0.00     0.166 HD
ENDBRANCH   2   5
ENDBRANCH   1   2
BRANCH   1  20
ATOM     20  C   UNL     1      -2.653  -1.127  -2.633  1.00  0.00     0.217 C 
BRANCH  20  21
ATOM     21  O   UNL     1      -3.977  -0.743  -2.527  1.00  0.00    -0.391 OA
ATOM     22  H   UNL     1      -4.401  -1.357  -1.846  1.00  0.00     0.210 HD
ENDBRANCH  20  21
ENDBRANCH   1  20
TORSDOF 4
