REMARK SMILES COc1ccc(-c2cc(=O)c3cccc(C)c3o2)cc1
REMARK SMILES IDX 3 1 4 2 5 3 6 4 19 5 20 6 2 7 1 8 7 9 8 10 18 11 9 12 17 13
REMARK SMILES IDX 10 14 11 15 15 16 12 17 14 18 13 19 16 20
REMARK H PARENT
ROOT
ATOM      1  C   UNL     1      -1.978  -1.917   3.035  1.00  0.00     0.118 A 
ATOM      2  C   UNL     1      -0.628  -2.020   3.286  1.00  0.00     0.047 A 
ATOM      3  C   UNL     1       0.307  -1.567   2.344  1.00  0.00     0.016 A 
ATOM      4  C   UNL     1      -0.095  -1.012   1.157  1.00  0.00     0.018 A 
ATOM      5  C   UNL     1      -1.442  -0.909   0.909  1.00  0.00     0.016 A 
ATOM      6  C   UNL     1      -2.381  -1.359   1.843  1.00  0.00     0.047 A 
ENDROOT
BRANCH   1   7
ATOM      7  O   UNL     1      -2.916  -2.370   3.977  1.00  0.00    -0.497 OA
ATOM      8  C   UNL     1      -4.298  -2.254   3.699  1.00  0.00     0.278 C 
ENDBRANCH   1   7
BRANCH   4   9
ATOM      9  C   UNL     1       0.867  -0.529   0.153  1.00  0.00     0.138 A 
ATOM     10  C   UNL     1       2.219  -0.596   0.326  1.00  0.00     0.100 A 
ATOM     11  O   UNL     1       0.424  -0.003  -0.972  1.00  0.00    -0.456 OA
ATOM     12  C   UNL     1       3.084  -0.123  -0.658  1.00  0.00     0.193 A 
ATOM     13  C   UNL     1       1.161   0.459  -1.936  1.00  0.00     0.141 A 
ATOM     14  O   UNL     1       4.332  -0.173  -0.524  1.00  0.00    -0.289 OA
ATOM     15  C   UNL     1       2.544   0.412  -1.806  1.00  0.00     0.065 A 
ATOM     16  C   UNL     1       0.631   1.001  -3.098  1.00  0.00    -0.008 A 
ATOM     17  C   UNL     1       3.311   0.904  -2.833  1.00  0.00     0.016 A 
ATOM     18  C   UNL     1       1.414   1.490  -4.119  1.00  0.00     0.007 A 
ATOM     19  C   UNL     1       2.791   1.443  -3.989  1.00  0.00     0.001 A 
ATOM     20  C   UNL     1      -0.844   1.047  -3.230  1.00  0.00     0.048 C 
ENDBRANCH   4   9
TORSDOF 2
