REMARK SMILES CC1=[NH+]c2ccc(Cl)cc2S(=O)(=O)N1
REMARK SMILES IDX 1 1 2 2 3 3 4 4 5 5 6 6 7 7 8 8 9 9 10 10 11 11 12 12 13 13
REMARK SMILES IDX 14 14
REMARK H PARENT 3 15 14 16
ROOT
ATOM      1  C   UNL     1      -2.908  -0.263  -1.800  1.00  0.00     0.146 C 
ATOM      2  C   UNL     1      -1.500  -0.208  -1.256  1.00  0.00     0.259 C 
ATOM      3  N   UNL     1      -1.362  -0.023  -0.014  1.00  0.00    -0.243 N 
ATOM      4  C   UNL     1      -0.123   0.056   0.667  1.00  0.00     0.147 A 
ATOM      5  C   UNL     1      -0.126   0.264   2.049  1.00  0.00     0.055 A 
ATOM      6  C   UNL     1       1.040   0.352   2.775  1.00  0.00     0.025 A 
ATOM      7  C   UNL     1       2.262   0.237   2.165  1.00  0.00     0.042 A 
ATOM      8  Cl  UNL     1       3.727   0.348   3.078  1.00  0.00    -0.084 Cl
ATOM      9  C   UNL     1       2.265   0.033   0.805  1.00  0.00     0.049 A 
ATOM     10  C   UNL     1       1.117  -0.055   0.078  1.00  0.00     0.156 A 
ATOM     11  S   UNL     1       1.170  -0.318  -1.658  1.00  0.00     0.332 S 
ATOM     12  O   UNL     1       1.934  -1.555  -2.011  1.00  0.00    -0.179 OA
ATOM     13  O   UNL     1       1.801   0.910  -2.290  1.00  0.00    -0.179 OA
ATOM     14  N   UNL     1      -0.461  -0.368  -2.191  1.00  0.00    -0.166 N 
ATOM     15  H   UNL     1      -2.230   0.080   0.565  1.00  0.00     0.312 HD
ATOM     16  H   UNL     1      -0.730  -0.511  -3.178  1.00  0.00     0.327 HD
ENDROOT
TORSDOF 0
