REMARK SMILES Cc1ccccc1N/N=C\c1cccnc1
REMARK SMILES IDX 8 1 7 3 2 4 3 5 4 6 6 7 5 8 1 9 9 10 10 11 11 12 12 13 16 14
REMARK SMILES IDX 13 15 15 16 14 17
REMARK H PARENT 8 2
ROOT
ATOM      1  N   UNL     1       1.103   0.335   0.513  1.00  0.00    -0.278 N 
ATOM      2  H   UNL     1       1.255   1.278   0.072  1.00  0.00     0.190 HD
ENDROOT
BRANCH   1   3
ATOM      3  C   UNL     1       0.149   0.297   1.579  1.00  0.00     0.059 A 
ATOM      4  C   UNL     1      -1.126  -0.117   1.407  1.00  0.00    -0.026 A 
ATOM      5  C   UNL     1      -2.027  -0.133   2.480  1.00  0.00     0.005 A 
ATOM      6  C   UNL     1      -1.643   0.269   3.735  1.00  0.00     0.000 A 
ATOM      7  C   UNL     1       0.542   0.708   2.860  1.00  0.00     0.028 A 
ATOM      8  C   UNL     1      -0.345   0.691   3.912  1.00  0.00     0.002 A 
ATOM      9  C   UNL     1      -1.621  -0.578   0.098  1.00  0.00     0.046 C 
ENDBRANCH   1   3
BRANCH   1  10
ATOM     10  N   UNL     1       1.759  -0.795   0.220  1.00  0.00    -0.183 NA
ATOM     11  C   UNL     1       1.887  -1.397  -0.849  1.00  0.00     0.143 C 
BRANCH  11  12
ATOM     12  C   UNL     1       1.319  -0.996  -2.111  1.00  0.00     0.013 A 
ATOM     13  C   UNL     1       0.531   0.060  -2.413  1.00  0.00     0.013 A 
ATOM     14  C   UNL     1       1.647  -1.816  -3.211  1.00  0.00     0.120 A 
ATOM     15  C   UNL     1       0.051   0.364  -3.697  1.00  0.00     0.021 A 
ATOM     16  N   UNL     1       1.204  -1.548  -4.434  1.00  0.00    -0.264 NA
ATOM     17  C   UNL     1       0.411  -0.478  -4.717  1.00  0.00     0.111 A 
ENDBRANCH  11  12
ENDBRANCH   1  10
TORSDOF 3
