REMARK SMILES Cc1ccccc1NN=Cc1cccnc1
REMARK SMILES IDX 8 1 7 3 2 4 3 5 4 6 6 7 5 8 1 9 9 10 10 11 11 12 12 13 16 14
REMARK SMILES IDX 13 15 15 16 14 17
REMARK H PARENT 8 2
ROOT
ATOM      1  N   UNL     1       0.996   0.459   0.584  1.00  0.00    -0.278 N 
ATOM      2  H   UNL     1       1.074   1.430   0.169  1.00  0.00     0.190 HD
ENDROOT
BRANCH   1   3
ATOM      3  C   UNL     1       0.076   0.329   1.689  1.00  0.00     0.059 A 
ATOM      4  C   UNL     1      -1.198  -0.080   1.438  1.00  0.00    -0.026 A 
ATOM      5  C   UNL     1      -2.120  -0.211   2.491  1.00  0.00     0.005 A 
ATOM      6  C   UNL     1      -1.757   0.067   3.789  1.00  0.00     0.000 A 
ATOM      7  C   UNL     1       0.454   0.612   2.985  1.00  0.00     0.028 A 
ATOM      8  C   UNL     1      -0.465   0.478   4.017  1.00  0.00     0.002 A 
ATOM      9  C   UNL     1      -1.639  -0.395   0.074  1.00  0.00     0.046 C 
ENDBRANCH   1   3
BRANCH   1  10
ATOM     10  N   UNL     1       1.683  -0.617   0.205  1.00  0.00    -0.183 NA
ATOM     11  C   UNL     1       1.894  -1.230  -0.835  1.00  0.00     0.143 C 
BRANCH  11  12
ATOM     12  C   UNL     1       1.397  -0.940  -2.162  1.00  0.00     0.013 A 
ATOM     13  C   UNL     1       0.574   0.081  -2.533  1.00  0.00     0.013 A 
ATOM     14  C   UNL     1       1.810  -1.802  -3.192  1.00  0.00     0.120 A 
ATOM     15  C   UNL     1       0.155   0.277  -3.856  1.00  0.00     0.021 A 
ATOM     16  N   UNL     1       1.417  -1.627  -4.460  1.00  0.00    -0.264 NA
ATOM     17  C   UNL     1       0.597  -0.601  -4.806  1.00  0.00     0.111 A 
ENDBRANCH  11  12
ENDBRANCH   1  10
TORSDOF 3
