REMARK SMILES Cc1cccc(C=C2C(O)C3CCN2CC3)c1
REMARK SMILES IDX 7 1 8 2 9 3 11 4 12 5 13 6 14 7 15 8 16 9 6 10 2 11 3 12
REMARK SMILES IDX 17 13 4 14 5 15 1 16 10 17
REMARK H PARENT 10 18
ROOT
ATOM      1  C   UNL     1       0.508  -0.086   1.256  1.00  0.00     0.032 C 
ATOM      2  C   UNL     1       0.703  -0.814   0.211  1.00  0.00     0.043 C 
ATOM      3  C   UNL     1       2.166  -1.424   0.068  1.00  0.00     0.164 C 
ATOM      4  C   UNL     1       2.055  -2.234  -1.219  1.00  0.00     0.027 C 
ATOM      5  C   UNL     1       1.770  -1.310  -2.402  1.00  0.00     0.028 C 
ATOM      6  C   UNL     1       0.295  -0.719  -2.229  1.00  0.00     0.116 C 
ATOM      7  N   UNL     1       0.085  -1.303  -0.922  1.00  0.00    -0.373 N 
ATOM      8  C   UNL     1      -0.436  -2.635  -0.998  1.00  0.00     0.116 C 
ATOM      9  C   UNL     1       1.004  -3.341  -1.145  1.00  0.00     0.028 C 
ENDROOT
BRANCH   1  10
ATOM     10  C   UNL     1      -0.748   0.575   1.597  1.00  0.00    -0.024 A 
ATOM     11  C   UNL     1      -2.730   1.744   0.871  1.00  0.00    -0.051 A 
ATOM     12  C   UNL     1      -3.183   1.867   2.167  1.00  0.00     0.003 A 
ATOM     13  C   UNL     1      -1.525   1.105   0.590  1.00  0.00     0.011 A 
ATOM     14  C   UNL     1      -2.403   1.336   3.172  1.00  0.00     0.001 A 
ATOM     15  C   UNL     1      -1.197   0.696   2.888  1.00  0.00     0.008 A 
ATOM     16  C   UNL     1      -3.579   2.322  -0.211  1.00  0.00     0.044 C 
ENDBRANCH   1  10
BRANCH   3  17
ATOM     17  O   UNL     1       2.440  -2.171   1.170  1.00  0.00    -0.387 OA
ATOM     18  H   UNL     1       1.600  -2.663   1.414  1.00  0.00     0.211 HD
ENDBRANCH   3  17
TORSDOF 2
