REMARK SMILES Cc1cccc(/C=C2/C(O)C3CCN2CC3)c1
REMARK SMILES IDX 7 1 8 2 9 3 11 4 12 5 13 6 14 7 15 8 16 9 6 10 2 11 3 12
REMARK SMILES IDX 17 13 4 14 5 15 1 16 10 17
REMARK H PARENT 10 18
ROOT
ATOM      1  C   UNL     1       0.597   0.296   1.125  1.00  0.00     0.032 C 
ATOM      2  C   UNL     1       0.790  -0.531   0.139  1.00  0.00     0.043 C 
ATOM      3  C   UNL     1       2.309  -0.950  -0.137  1.00  0.00     0.164 C 
ATOM      4  C   UNL     1       2.158  -1.932  -1.293  1.00  0.00     0.027 C 
ATOM      5  C   UNL     1       1.582  -1.239  -2.528  1.00  0.00     0.028 C 
ATOM      6  C   UNL     1       0.082  -0.820  -2.217  1.00  0.00     0.116 C 
ATOM      7  N   UNL     1       0.115  -1.232  -0.823  1.00  0.00    -0.373 N 
ATOM      8  C   UNL     1      -0.201  -2.642  -0.706  1.00  0.00     0.116 C 
ATOM      9  C   UNL     1       1.301  -3.135  -0.934  1.00  0.00     0.028 C 
ENDROOT
BRANCH   1  10
ATOM     10  C   UNL     1      -0.776   0.704   1.411  1.00  0.00    -0.024 A 
ATOM     11  C   UNL     1      -2.996   1.388   0.901  1.00  0.00    -0.051 A 
ATOM     12  C   UNL     1      -3.335   1.459   2.237  1.00  0.00     0.003 A 
ATOM     13  C   UNL     1      -1.724   1.013   0.491  1.00  0.00     0.011 A 
ATOM     14  C   UNL     1      -2.377   1.146   3.168  1.00  0.00     0.001 A 
ATOM     15  C   UNL     1      -1.115   0.775   2.745  1.00  0.00     0.008 A 
ATOM     16  C   UNL     1      -4.034   1.726  -0.086  1.00  0.00     0.044 C 
ENDBRANCH   1  10
BRANCH   3  17
ATOM     17  O   UNL     1       2.808  -1.514   0.996  1.00  0.00    -0.387 OA
ATOM     18  H   UNL     1       3.033  -2.467   0.863  1.00  0.00     0.211 HD
ENDBRANCH   3  17
TORSDOF 2
