REMARK SMILES O=S(=O)(c1cccc2c(I)cccc12)[NH+]1CCCNCC1
REMARK SMILES IDX 15 1 2 3 1 4 3 5 4 6 5 7 14 8 6 9 13 10 8 11 7 12 12 13 9 14
REMARK SMILES IDX 11 15 10 16 16 17 17 18 21 20 20 21 19 22 18 24
REMARK H PARENT 15 2 19 23
REMARK Flexibility Score:   37.900
ROOT
ATOM      1  N   UNL     1      -1.712  -0.976  -0.237  1.00  0.00    -0.224 N 
ATOM      2  H   UNL     1      -1.921  -1.228  -1.241  1.00  0.00     0.366 HD
ENDROOT
BRANCH   1   3
ATOM      3  S   UNL     1      -1.333   0.672  -0.169  1.00  0.00     0.326 S 
ATOM      4  O   UNL     1      -2.041   1.465  -1.266  1.00  0.00    -0.169 OA
ATOM      5  O   UNL     1      -1.952   1.205   1.101  1.00  0.00    -0.169 OA
BRANCH   3   6
ATOM      6  C   UNL     1       0.358   1.061  -0.104  1.00  0.00     0.129 A 
ATOM      7  C   UNL     1       0.928   1.656   1.016  1.00  0.00     0.027 A 
ATOM      8  C   UNL     1       1.223   0.776  -1.151  1.00  0.00     0.007 A 
ATOM      9  C   UNL     1       2.266   1.948   1.097  1.00  0.00     0.002 A 
ATOM     10  C   UNL     1       0.748   0.206  -2.286  1.00  0.00     0.010 A 
ATOM     11  C   UNL     1       2.585   1.070  -1.075  1.00  0.00    -0.003 A 
ATOM     12  C   UNL     1       3.111   1.662   0.061  1.00  0.00     0.010 A 
ATOM     13  C   UNL     1       1.606  -0.067  -3.324  1.00  0.00     0.002 A 
ATOM     14  C   UNL     1       3.440   0.793  -2.120  1.00  0.00     0.021 A 
ATOM     15  C   UNL     1       2.954   0.214  -3.271  1.00  0.00     0.015 A 
ATOM     16  I   UNL     1       5.507   1.244  -1.991  1.00  0.00    -0.044 I 
ENDBRANCH   3   6
ENDBRANCH   1   3
BRANCH   1  17
ATOM     17  C   UNL     1      -2.990  -1.264   0.438  1.00  0.00     0.280 C 
BRANCH  17  18
ATOM     18  C   UNL     1      -2.702  -1.452   1.888  1.00  0.00     0.078 CG0
ATOM     19  G   UNL     1      -2.436  -2.870   2.280  1.00  0.00     0.000 G0
ENDBRANCH  17  18
ENDBRANCH   1  17
BRANCH   1  20
ATOM     20  C   UNL     1      -0.751  -1.900   0.242  1.00  0.00     0.294 C 
BRANCH  20  21
ATOM     21  C   UNL     1      -1.333  -3.286   0.158  1.00  0.00     0.144 C 
BRANCH  21  22
ATOM     22  N   UNL     1      -2.027  -3.746   1.278  1.00  0.00    -0.311 NA
ATOM     23  H   UNL     1      -2.664  -4.523   1.030  1.00  0.00     0.122 HD
BRANCH  22  24
ATOM     24  C   UNL     1      -2.436  -2.870   2.280  1.00  0.00     0.087 CG0
ATOM     25  G   UNL     1      -2.702  -1.452   1.888  1.00  0.00     0.000 G0
ENDBRANCH  22  24
ENDBRANCH  21  22
ENDBRANCH  20  21
ENDBRANCH   1  20
TORSDOF 2
