REMARK SMILES COc1cc2c(cc1OC)-c1c(OC)c(OC)c([N+](=O)[O-])c3c1C(C2)N(C)CC3
REMARK SMILES IDX 3 1 4 2 5 3 6 4 7 5 8 6 11 7 12 8 15 9 18 10 22 11 23 12
REMARK SMILES IDX 24 13 25 14 26 15 27 16 28 17 29 18 2 19 1 20 9 21 10 22
REMARK SMILES IDX 13 23 14 24 16 25 17 26 19 27 20 28 21 29
REMARK H PARENT
ROOT
ATOM      1  C   UNL     1      -1.979  -1.307   3.123  1.00  0.00     0.161 A 
ATOM      2  C   UNL     1      -0.676  -1.695   2.900  1.00  0.00     0.054 A 
ATOM      3  C   UNL     1      -0.018  -1.373   1.724  1.00  0.00    -0.034 A 
ATOM      4  C   UNL     1      -0.709  -0.649   0.777  1.00  0.00    -0.007 A 
ATOM      5  C   UNL     1      -2.010  -0.253   0.976  1.00  0.00     0.059 A 
ATOM      6  C   UNL     1      -2.654  -0.585   2.167  1.00  0.00     0.161 A 
ATOM      7  C   UNL     1      -0.038  -0.400  -0.506  1.00  0.00     0.034 A 
ATOM      8  C   UNL     1      -0.655   0.325  -1.472  1.00  0.00     0.176 A 
ATOM      9  C   UNL     1       0.036   0.529  -2.688  1.00  0.00     0.240 A 
ATOM     10  C   UNL     1       1.291   0.019  -2.892  1.00  0.00     0.318 A 
ATOM     11  C   UNL     1       1.924  -0.711  -1.916  1.00  0.00     0.041 A 
ATOM     12  C   UNL     1       1.249  -0.922  -0.709  1.00  0.00    -0.009 A 
ATOM     13  C   UNL     1       1.961  -1.713   0.275  1.00  0.00     0.092 C 
ATOM     14  C   UNL     1       1.370  -1.832   1.623  1.00  0.00     0.060 C 
ATOM     15  N   UNL     1       3.351  -1.334   0.433  1.00  0.00    -0.299 NA
ATOM     16  C   UNL     1       3.988  -2.398   1.189  1.00  0.00     0.106 C 
ATOM     17  C   UNL     1       4.060  -1.142  -0.775  1.00  0.00     0.090 C 
ATOM     18  C   UNL     1       3.274  -1.303  -2.028  1.00  0.00     0.059 C 
ENDROOT
BRANCH   1  19
ATOM     19  O   UNL     1      -2.628  -1.635   4.305  1.00  0.00    -0.493 OA
ATOM     20  C   UNL     1      -2.038  -2.363   5.341  1.00  0.00     0.278 C 
ENDBRANCH   1  19
BRANCH   6  21
ATOM     21  O   UNL     1      -3.968  -0.213   2.431  1.00  0.00    -0.493 OA
ATOM     22  C   UNL     1      -4.701   0.535   1.463  1.00  0.00     0.278 C 
ENDBRANCH   6  21
BRANCH   8  23
ATOM     23  O   UNL     1      -1.900   0.908  -1.377  1.00  0.00    -0.492 OA
ATOM     24  C   UNL     1      -1.991   2.318  -1.031  1.00  0.00     0.278 C 
ENDBRANCH   8  23
BRANCH   9  25
ATOM     25  O   UNL     1      -0.571   1.268  -3.712  1.00  0.00    -0.488 OA
ATOM     26  C   UNL     1      -1.350   0.522  -4.633  1.00  0.00     0.279 C 
ENDBRANCH   9  25
BRANCH  10  27
ATOM     27  N   UNL     1       1.962   0.239  -4.122  1.00  0.00     0.067 N 
ATOM     28  O   UNL     1       2.436   1.356  -4.406  1.00  0.00    -0.258 OA
ATOM     29  O   UNL     1       2.127  -0.755  -5.066  1.00  0.00    -0.258 OA
ENDBRANCH  10  27
TORSDOF 5
