REMARK SMILES COc1cc2c(cc1OC)-c1c(OC)c(OC)c([N+](=O)[O-])c3c1C(C2)[NH+](C)CC3
REMARK SMILES IDX 3 1 4 2 5 3 6 4 7 5 8 6 11 7 12 8 15 9 18 10 22 11 23 12
REMARK SMILES IDX 24 13 25 14 26 15 27 16 28 17 29 18 2 20 1 21 9 22 10 23
REMARK SMILES IDX 13 24 14 25 16 26 17 27 19 28 20 29 21 30
REMARK H PARENT 26 19
ROOT
ATOM      1  C   UNL     1      -2.026  -0.727   3.220  1.00  0.00     0.161 A 
ATOM      2  C   UNL     1      -0.852  -1.402   2.977  1.00  0.00     0.055 A 
ATOM      3  C   UNL     1      -0.223  -1.324   1.740  1.00  0.00    -0.030 A 
ATOM      4  C   UNL     1      -0.825  -0.542   0.765  1.00  0.00    -0.007 A 
ATOM      5  C   UNL     1      -1.995   0.133   1.011  1.00  0.00     0.059 A 
ATOM      6  C   UNL     1      -2.612   0.047   2.245  1.00  0.00     0.161 A 
ATOM      7  C   UNL     1      -0.101  -0.412  -0.509  1.00  0.00     0.038 A 
ATOM      8  C   UNL     1      -0.609   0.372  -1.499  1.00  0.00     0.176 A 
ATOM      9  C   UNL     1       0.159   0.527  -2.680  1.00  0.00     0.240 A 
ATOM     10  C   UNL     1       1.374  -0.098  -2.830  1.00  0.00     0.318 A 
ATOM     11  C   UNL     1       1.882  -0.887  -1.852  1.00  0.00     0.049 A 
ATOM     12  C   UNL     1       1.136  -1.052  -0.669  1.00  0.00     0.032 A 
ATOM     13  C   UNL     1       1.715  -1.947   0.324  1.00  0.00     0.220 C 
ATOM     14  C   UNL     1       1.023  -2.071   1.608  1.00  0.00     0.106 C 
ATOM     15  N   UNL     1       3.108  -1.604   0.558  1.00  0.00    -0.331 N 
ATOM     16  C   UNL     1       3.775  -2.677   1.306  1.00  0.00     0.333 C 
ATOM     17  C   UNL     1       3.868  -1.236  -0.598  1.00  0.00     0.267 C 
ATOM     18  C   UNL     1       3.172  -1.601  -1.892  1.00  0.00     0.105 C 
ATOM     19  H   UNL     1       3.157  -0.777   1.235  1.00  0.00     0.348 HD
ENDROOT
BRANCH   1  20
ATOM     20  O   UNL     1      -2.665  -0.804   4.465  1.00  0.00    -0.493 OA
ATOM     21  C   UNL     1      -2.135  -1.567   5.507  1.00  0.00     0.278 C 
ENDBRANCH   1  20
BRANCH   6  22
ATOM     22  O   UNL     1      -3.810   0.721   2.531  1.00  0.00    -0.493 OA
ATOM     23  C   UNL     1      -4.425   1.527   1.526  1.00  0.00     0.278 C 
ENDBRANCH   6  22
BRANCH   8  24
ATOM     24  O   UNL     1      -1.825   1.020  -1.469  1.00  0.00    -0.492 OA
ATOM     25  C   UNL     1      -2.934   0.360  -2.163  1.00  0.00     0.278 C 
ENDBRANCH   8  24
BRANCH   9  26
ATOM     26  O   UNL     1      -0.334   1.327  -3.697  1.00  0.00    -0.488 OA
ATOM     27  C   UNL     1      -1.122   0.848  -4.760  1.00  0.00     0.279 C 
ENDBRANCH   9  26
BRANCH  10  28
ATOM     28  N   UNL     1       2.078   0.123  -4.062  1.00  0.00     0.067 N 
ATOM     29  O   UNL     1       1.729  -0.389  -5.128  1.00  0.00    -0.258 OA
ATOM     30  O   UNL     1       3.185   0.937  -4.061  1.00  0.00    -0.258 OA
ENDBRANCH  10  28
TORSDOF 5
