REMARK SMILES Nc1cc(=O)[n-]c(=O)n1Cc1ccco1
REMARK SMILES IDX 2 1 3 2 4 3 5 4 6 5 7 6 8 7 9 8 1 9 10 12 11 13 12 14 15 15
REMARK SMILES IDX 13 16 14 17
REMARK H PARENT 1 10 1 11
ROOT
ATOM      1  C   UNL     1       0.008   1.513   0.899  1.00  0.00     0.025 A 
ATOM      2  C   UNL     1      -0.546   1.866   2.114  1.00  0.00     0.069 A 
ATOM      3  C   UNL     1      -0.494   0.961   3.148  1.00  0.00     0.175 A 
ATOM      4  O   UNL     1      -0.986   1.237   4.275  1.00  0.00    -0.294 OA
ATOM      5  N   UNL     1       0.083  -0.228   2.964  1.00  0.00    -0.365 NA
ATOM      6  C   UNL     1       0.613  -0.539   1.769  1.00  0.00     0.166 A 
ATOM      7  O   UNL     1       1.158  -1.664   1.598  1.00  0.00    -0.298 OA
ATOM      8  N   UNL     1       0.591   0.305   0.723  1.00  0.00    -0.390 N 
ENDROOT
BRANCH   1   9
ATOM      9  N   UNL     1      -0.038   2.439  -0.181  1.00  0.00    -0.402 N 
ATOM     10  H   UNL     1       0.706   3.146  -0.323  1.00  0.00     0.156 HD
ATOM     11  H   UNL     1      -0.831   2.423  -0.855  1.00  0.00     0.156 HD
ENDBRANCH   1   9
BRANCH   8  12
ATOM     12  C   UNL     1       1.170  -0.056  -0.556  1.00  0.00     0.086 C 
BRANCH  12  13
ATOM     13  C   UNL     1       0.147  -0.710  -1.398  1.00  0.00     0.103 A 
ATOM     14  C   UNL     1      -0.078  -2.075  -1.388  1.00  0.00     0.045 A 
ATOM     15  O   UNL     1      -0.679  -0.154  -2.253  1.00  0.00    -0.469 OA
ATOM     16  C   UNL     1      -1.100  -2.316  -2.296  1.00  0.00     0.042 A 
ATOM     17  C   UNL     1      -1.434  -1.079  -2.803  1.00  0.00     0.195 A 
ENDBRANCH  12  13
ENDBRANCH   8  12
TORSDOF 3
