REMARK SMILES O=C1SC(=Cc2cccs2)C(=O)N1CO
REMARK SMILES IDX 14 1 13 2 1 3 2 4 3 5 4 6 11 7 5 8 12 9 6 10 7 11 10 12 8 13
REMARK SMILES IDX 9 14 15 15
REMARK H PARENT 15 16
ROOT
ATOM      1  C   UNL     1      -1.359  -2.307  -2.187  1.00  0.00     0.289 C 
ENDROOT
BRANCH   1   2
ATOM      2  N   UNL     1      -1.499  -0.932  -1.654  1.00  0.00    -0.244 N 
ATOM      3  O   UNL     1      -3.708  -0.464  -2.432  1.00  0.00    -0.261 OA
ATOM      4  C   UNL     1      -2.616  -0.135  -1.965  1.00  0.00     0.295 C 
ATOM      5  S   UNL     1      -2.132   1.527  -1.537  1.00  0.00    -0.022 SA
ATOM      6  C   UNL     1      -0.822   1.001  -0.376  1.00  0.00     0.084 C 
ATOM      7  C   UNL     1      -0.546  -0.352  -0.821  1.00  0.00     0.270 C 
ATOM      8  C   UNL     1      -0.328   1.754   0.578  1.00  0.00     0.040 C 
ATOM      9  O   UNL     1       0.529  -0.946  -0.447  1.00  0.00    -0.268 OA
BRANCH   8  10
ATOM     10  C   UNL     1       0.762   1.229   1.501  1.00  0.00     0.028 A 
ATOM     11  C   UNL     1       1.834   1.878   1.929  1.00  0.00     0.020 A 
ATOM     12  S   UNL     1       0.868  -0.317   2.239  1.00  0.00    -0.144 S 
ATOM     13  C   UNL     1       2.709   1.295   2.757  1.00  0.00     0.012 A 
ATOM     14  C   UNL     1       2.412  -0.016   3.126  1.00  0.00     0.065 A 
ENDBRANCH   8  10
ENDBRANCH   1   2
BRANCH   1  15
ATOM     15  O   UNL     1      -0.699  -2.293  -3.390  1.00  0.00    -0.376 OA
ATOM     16  H   UNL     1      -0.934  -3.042  -3.983  1.00  0.00     0.212 HD
ENDBRANCH   1  15
TORSDOF 3
