REMARK SMILES O=C1S/C(=C\c2cccs2)C(=O)[NH+]1CO
REMARK SMILES IDX 14 1 13 2 1 3 2 4 3 5 4 6 11 7 5 8 12 9 6 11 7 12 10 13 8 14
REMARK SMILES IDX 9 15 15 16
REMARK H PARENT 13 10 15 17
ROOT
ATOM      1  C   UNL     1      -0.795  -0.734  -2.446  1.00  0.00     0.449 C 
ENDROOT
BRANCH   1   2
ATOM      2  N   UNL     1      -1.551   0.499  -2.168  1.00  0.00    -0.172 N 
ATOM      3  O   UNL     1      -3.661  -0.011  -1.286  1.00  0.00    -0.218 OA
ATOM      4  C   UNL     1      -2.492   0.148  -1.178  1.00  0.00     0.388 C 
ATOM      5  S   UNL     1      -1.512  -0.006   0.309  1.00  0.00     0.025 SA
ATOM      6  C   UNL     1      -0.145   1.000  -0.325  1.00  0.00     0.127 C 
ATOM      7  C   UNL     1      -0.639   1.441  -1.625  1.00  0.00     0.361 C 
ATOM      8  C   UNL     1       0.956   1.210   0.300  1.00  0.00     0.045 C 
ATOM      9  O   UNL     1      -0.252   2.543  -2.138  1.00  0.00    -0.224 OA
ATOM     10  H   UNL     1      -1.970   0.879  -3.040  1.00  0.00     0.368 HD
BRANCH   8  11
ATOM     11  C   UNL     1       1.156   0.601   1.635  1.00  0.00     0.028 A 
ATOM     12  C   UNL     1       0.832  -0.585   2.125  1.00  0.00     0.020 A 
ATOM     13  S   UNL     1       1.943   1.411   2.977  1.00  0.00    -0.144 S 
ATOM     14  C   UNL     1       1.131  -0.901   3.396  1.00  0.00     0.012 A 
ATOM     15  C   UNL     1       1.771   0.041   4.141  1.00  0.00     0.065 A 
ENDBRANCH   8  11
ENDBRANCH   1   2
BRANCH   1  16
ATOM     16  O   UNL     1      -0.577  -0.932  -3.786  1.00  0.00    -0.346 OA
ATOM     17  H   UNL     1      -0.468  -1.900  -3.959  1.00  0.00     0.217 HD
ENDBRANCH   1  16
TORSDOF 3
