REMARK SMILES Cc1ccc(C(=O)Nc2ccc(Cc3ccncc3)cc2)cc1
REMARK SMILES IDX 9 1 10 2 11 3 12 4 20 5 21 6 8 7 6 8 7 9 5 11 2 12 3 13
REMARK SMILES IDX 23 14 4 15 22 16 1 17 13 18 14 19 15 20 19 21 16 22 18 23
REMARK SMILES IDX 17 24
REMARK H PARENT 8 10
ROOT
ATOM      1  C   UNL     1       0.776  -0.872   0.493  1.00  0.00     0.041 A 
ATOM      2  C   UNL     1       1.585  -0.019  -0.220  1.00  0.00     0.026 A 
ATOM      3  C   UNL     1       2.219  -0.434  -1.375  1.00  0.00     0.006 A 
ATOM      4  C   UNL     1       2.081  -1.712  -1.873  1.00  0.00    -0.043 A 
ATOM      5  C   UNL     1       1.271  -2.570  -1.159  1.00  0.00     0.006 A 
ATOM      6  C   UNL     1       0.638  -2.153  -0.007  1.00  0.00     0.026 A 
ENDROOT
BRANCH   1   7
ATOM      7  N   UNL     1       0.102  -0.492   1.687  1.00  0.00    -0.322 N 
ATOM      8  C   UNL     1      -1.193   0.064   1.725  1.00  0.00     0.255 C 
ATOM      9  O   UNL     1      -1.766   0.224   0.619  1.00  0.00    -0.269 OA
ATOM     10  H   UNL     1       0.582  -0.626   2.602  1.00  0.00     0.170 HD
BRANCH   8  11
ATOM     11  C   UNL     1      -1.894   0.457   2.942  1.00  0.00     0.040 A 
ATOM     12  C   UNL     1      -3.329   1.247   5.251  1.00  0.00    -0.051 A 
ATOM     13  C   UNL     1      -3.872   1.384   3.991  1.00  0.00     0.004 A 
ATOM     14  C   UNL     1      -2.062   0.710   5.335  1.00  0.00     0.004 A 
ATOM     15  C   UNL     1      -3.163   0.996   2.873  1.00  0.00     0.014 A 
ATOM     16  C   UNL     1      -1.349   0.319   4.198  1.00  0.00     0.014 A 
ATOM     17  C   UNL     1      -4.065   1.655   6.481  1.00  0.00     0.044 C 
ENDBRANCH   8  11
ENDBRANCH   1   7
BRANCH   4  18
ATOM     18  C   UNL     1       2.774  -2.135  -3.117  1.00  0.00     0.071 C 
BRANCH  18  19
ATOM     19  C   UNL     1       1.968  -1.896  -4.329  1.00  0.00    -0.041 A 
ATOM     20  C   UNL     1       1.093  -2.822  -4.852  1.00  0.00     0.024 A 
ATOM     21  C   UNL     1       2.090  -0.687  -4.978  1.00  0.00     0.024 A 
ATOM     22  C   UNL     1       0.387  -2.506  -5.986  1.00  0.00     0.111 A 
ATOM     23  C   UNL     1       1.379  -0.373  -6.118  1.00  0.00     0.111 A 
ATOM     24  N   UNL     1       0.541  -1.317  -6.580  1.00  0.00    -0.265 NA
ENDBRANCH  18  19
ENDBRANCH   4  18
TORSDOF 4
