REMARK SMILES COc1ccc(-c2cc(=O)c3c(O)c(OC)c(O)cc3o2)cc1
REMARK SMILES IDX 7 1 8 2 9 3 10 4 11 5 12 6 14 7 17 8 19 9 20 10 21 11 6 12
REMARK SMILES IDX 3 13 4 14 23 15 5 16 22 17 2 18 1 19 13 20 18 22 15 24 16 25
REMARK H PARENT 13 21 18 23
ROOT
ATOM      1  C   UNL     1      -0.151  -0.621   0.872  1.00  0.00     0.138 A 
ATOM      2  C   UNL     1       1.149  -0.505   1.316  1.00  0.00     0.100 A 
ATOM      3  C   UNL     1       2.185  -0.449   0.377  1.00  0.00     0.197 A 
ATOM      4  O   UNL     1       3.389  -0.344   0.742  1.00  0.00    -0.289 OA
ATOM      5  C   UNL     1       1.907  -0.508  -0.973  1.00  0.00     0.111 A 
ATOM      6  C   UNL     1       2.903  -0.455  -1.936  1.00  0.00     0.176 A 
ATOM      7  C   UNL     1       2.627  -0.514  -3.287  1.00  0.00     0.203 A 
ATOM      8  C   UNL     1       1.302  -0.629  -3.650  1.00  0.00     0.165 A 
ATOM      9  C   UNL     1       0.304  -0.682  -2.701  1.00  0.00     0.098 A 
ATOM     10  C   UNL     1       0.582  -0.623  -1.333  1.00  0.00     0.146 A 
ATOM     11  O   UNL     1      -0.337  -0.671  -0.428  1.00  0.00    -0.456 OA
ENDROOT
BRANCH   1  12
ATOM     12  C   UNL     1      -1.295  -0.686   1.796  1.00  0.00     0.018 A 
ATOM     13  C   UNL     1      -3.561  -0.820   3.469  1.00  0.00     0.118 A 
ATOM     14  C   UNL     1      -2.292  -0.705   3.988  1.00  0.00     0.047 A 
ATOM     15  C   UNL     1      -3.692  -0.868   2.099  1.00  0.00     0.047 A 
ATOM     16  C   UNL     1      -1.165  -0.638   3.159  1.00  0.00     0.016 A 
ATOM     17  C   UNL     1      -2.562  -0.801   1.279  1.00  0.00     0.016 A 
BRANCH  13  18
ATOM     18  O   UNL     1      -4.680  -0.886   4.314  1.00  0.00    -0.497 OA
ATOM     19  C   UNL     1      -5.982  -1.002   3.807  1.00  0.00     0.278 C 
ENDBRANCH  13  18
ENDBRANCH   1  12
BRANCH   6  20
ATOM     20  O   UNL     1       4.221  -0.340  -1.544  1.00  0.00    -0.504 OA
ATOM     21  H   UNL     1       4.691   0.536  -1.370  1.00  0.00     0.293 HD
ENDBRANCH   6  20
BRANCH   8  22
ATOM     22  O   UNL     1       1.030  -0.688  -5.017  1.00  0.00    -0.504 OA
ATOM     23  H   UNL     1       0.413  -1.389  -5.423  1.00  0.00     0.293 HD
ENDBRANCH   8  22
BRANCH   7  24
ATOM     24  O   UNL     1       3.653  -0.458  -4.223  1.00  0.00    -0.490 OA
ATOM     25  C   UNL     1       4.061   0.808  -4.719  1.00  0.00     0.278 C 
ENDBRANCH   7  24
TORSDOF 5
