REMARK SMILES COc1ccc(-c2cc(=O)c3c([O-])c(OC)c([O-])cc3o2)cc1
REMARK SMILES IDX 7 1 8 2 9 3 10 4 11 5 12 6 13 7 14 8 17 9 18 10 19 11 20 12
REMARK SMILES IDX 21 13 6 14 3 15 4 16 23 17 5 18 22 19 2 20 1 21 15 22 16 23
REMARK H PARENT
ROOT
ATOM      1  C   UNL     1      -0.281  -0.105   0.367  1.00  0.00     0.138 A 
ATOM      2  C   UNL     1       0.538   0.938   0.005  1.00  0.00     0.100 A 
ATOM      3  C   UNL     1       1.630   0.742  -0.853  1.00  0.00     0.192 A 
ATOM      4  O   UNL     1       2.380   1.694  -1.184  1.00  0.00    -0.289 OA
ATOM      5  C   UNL     1       1.879  -0.524  -1.338  1.00  0.00     0.060 A 
ATOM      6  C   UNL     1       2.946  -0.784  -2.191  1.00  0.00    -0.051 A 
ATOM      7  O   UNL     1       3.794   0.254  -2.576  1.00  0.00    -0.869 OA
ATOM      8  C   UNL     1       3.196  -2.050  -2.677  1.00  0.00     0.104 A 
ATOM      9  C   UNL     1       2.338  -3.053  -2.277  1.00  0.00    -0.062 A 
ATOM     10  O   UNL     1       2.564  -4.354  -2.753  1.00  0.00    -0.870 OA
ATOM     11  C   UNL     1       1.281  -2.795  -1.431  1.00  0.00     0.043 A 
ATOM     12  C   UNL     1       1.020  -1.525  -0.936  1.00  0.00     0.137 A 
ATOM     13  O   UNL     1       0.020  -1.282  -0.136  1.00  0.00    -0.456 OA
ENDROOT
BRANCH   1  14
ATOM     14  C   UNL     1      -1.434   0.059   1.262  1.00  0.00     0.018 A 
ATOM     15  C   UNL     1      -3.672   0.281   2.977  1.00  0.00     0.118 A 
ATOM     16  C   UNL     1      -2.900   1.378   2.663  1.00  0.00     0.047 A 
ATOM     17  C   UNL     1      -3.306  -0.925   2.420  1.00  0.00     0.047 A 
ATOM     18  C   UNL     1      -1.793   1.263   1.814  1.00  0.00     0.016 A 
ATOM     19  C   UNL     1      -2.215  -1.034   1.584  1.00  0.00     0.016 A 
BRANCH  15  20
ATOM     20  O   UNL     1      -4.773   0.402   3.824  1.00  0.00    -0.497 OA
ATOM     21  C   UNL     1      -5.146   1.643   4.394  1.00  0.00     0.278 C 
ENDBRANCH  15  20
ENDBRANCH   1  14
BRANCH   8  22
ATOM     22  O   UNL     1       4.254  -2.333  -3.530  1.00  0.00    -0.498 OA
ATOM     23  C   UNL     1       4.018  -2.233  -4.931  1.00  0.00     0.278 C 
ENDBRANCH   8  22
TORSDOF 3
