REMARK SMILES C/C(=C\c1cn(C)c2ccccc12)[N+](=O)[O-]
REMARK SMILES IDX 1 1 2 2 3 3 14 4 15 5 16 6 4 7 5 8 13 9 6 10 12 11 8 12
REMARK SMILES IDX 11 13 9 14 10 15 7 16
REMARK H PARENT
ROOT
ATOM      1  C   UNL     1      -2.831  -1.085  -0.996  1.00  0.00     0.130 C 
ATOM      2  C   UNL     1      -2.314  -0.166  -2.047  1.00  0.00     0.243 C 
ATOM      3  C   UNL     1      -1.186   0.453  -1.784  1.00  0.00     0.090 C 
ENDROOT
BRANCH   2   4
ATOM      4  N   UNL     1      -3.027   0.022  -3.283  1.00  0.00     0.057 N 
ATOM      5  O   UNL     1      -2.853  -0.720  -4.264  1.00  0.00    -0.259 OA
ATOM      6  O   UNL     1      -3.933   1.040  -3.420  1.00  0.00    -0.259 OA
ENDBRANCH   2   4
BRANCH   3   7
ATOM      7  C   UNL     1      -0.450   0.280  -0.544  1.00  0.00     0.006 A 
ATOM      8  C   UNL     1      -0.862   0.161   0.751  1.00  0.00     0.094 A 
ATOM      9  C   UNL     1       0.950   0.198  -0.547  1.00  0.00     0.007 A 
ATOM     10  N   UNL     1       0.230   0.014   1.510  1.00  0.00    -0.350 N 
ATOM     11  C   UNL     1       1.874   0.257  -1.568  1.00  0.00     0.011 A 
ATOM     12  C   UNL     1       1.339   0.032   0.755  1.00  0.00     0.048 A 
ATOM     13  C   UNL     1       3.213   0.147  -1.278  1.00  0.00     0.001 A 
ATOM     14  C   UNL     1       2.693  -0.075   1.014  1.00  0.00     0.027 A 
ATOM     15  C   UNL     1       3.625  -0.020   0.022  1.00  0.00     0.002 A 
ATOM     16  C   UNL     1       0.223  -0.143   2.946  1.00  0.00     0.149 C 
ENDBRANCH   3   7
TORSDOF 2
