REMARK SMILES O=C(Nc1ccc(Cl)cc1Cl)c1cccnc1Cl
REMARK SMILES IDX 1 1 2 2 3 3 12 5 13 6 17 7 14 8 16 9 15 10 18 11 4 12 5 13
REMARK SMILES IDX 10 14 6 15 9 16 7 17 11 18 8 19
REMARK H PARENT 3 4
ROOT
ATOM      1  O   UNL     1      -1.648   0.420  -0.058  1.00  0.00    -0.269 OA
ATOM      2  C   UNL     1      -0.685  -0.012  -0.740  1.00  0.00     0.258 C 
ATOM      3  N   UNL     1       0.514  -0.292  -0.044  1.00  0.00    -0.321 N 
ATOM      4  H   UNL     1       1.318  -0.651  -0.608  1.00  0.00     0.170 HD
ENDROOT
BRANCH   2   5
ATOM      5  C   UNL     1      -0.762  -0.226  -2.181  1.00  0.00     0.077 A 
ATOM      6  C   UNL     1       0.055   0.447  -3.083  1.00  0.00     0.018 A 
ATOM      7  C   UNL     1      -1.660  -1.120  -2.727  1.00  0.00     0.141 A 
ATOM      8  C   UNL     1      -0.042   0.221  -4.441  1.00  0.00     0.021 A 
ATOM      9  N   UNL     1      -1.735  -1.324  -4.066  1.00  0.00    -0.244 NA
ATOM     10  C   UNL     1      -0.953  -0.681  -4.952  1.00  0.00     0.113 A 
ATOM     11  Cl  UNL     1      -2.713  -1.992  -1.616  1.00  0.00    -0.061 Cl
ENDBRANCH   2   5
BRANCH   3  12
ATOM     12  C   UNL     1       0.660  -0.108   1.355  1.00  0.00     0.060 A 
ATOM     13  C   UNL     1       1.083   1.057   1.919  1.00  0.00     0.029 A 
ATOM     14  C   UNL     1       0.355  -1.171   2.176  1.00  0.00     0.066 A 
ATOM     15  C   UNL     1       1.199   1.152   3.291  1.00  0.00     0.023 A 
ATOM     16  C   UNL     1       0.476  -1.059   3.543  1.00  0.00     0.043 A 
ATOM     17  C   UNL     1       0.902   0.107   4.144  1.00  0.00     0.042 A 
ATOM     18  Cl  UNL     1      -0.202  -2.714   1.507  1.00  0.00    -0.082 Cl
ATOM     19  Cl  UNL     1       1.056   0.251   5.890  1.00  0.00    -0.084 Cl
ENDBRANCH   3  12
TORSDOF 2
