REMARK SMILES C[C@]12CCC3c4ccc(O)cc4CCC3C1CC/C2=N\N
REMARK SMILES IDX 1 1 2 2 3 3 4 4 5 5 6 6 7 7 8 8 9 9 11 10 12 11 13 12 14 13
REMARK SMILES IDX 15 14 16 15 17 16 18 17 19 18 20 19 21 20 10 23
REMARK H PARENT 21 21 21 22 10 24
ROOT
ATOM      1  C   UNL     1      -2.676  -1.423   1.176  1.00  0.00     0.018 C 
ATOM      2  C   UNL     1      -1.990  -1.325  -0.184  1.00  0.00     0.011 C 
ATOM      3  C   UNL     1      -1.203  -2.580  -0.456  1.00  0.00     0.014 C 
ATOM      4  C   UNL     1       0.139  -2.536   0.242  1.00  0.00     0.009 C 
ATOM      5  C   UNL     1       0.969  -1.377  -0.299  1.00  0.00     0.023 C 
ATOM      6  C   UNL     1       1.817  -0.808   0.783  1.00  0.00    -0.041 A 
ATOM      7  C   UNL     1       2.443  -1.696   1.630  1.00  0.00     0.008 A 
ATOM      8  C   UNL     1       3.261  -1.264   2.677  1.00  0.00     0.046 A 
ATOM      9  C   UNL     1       3.446   0.086   2.867  1.00  0.00     0.115 A 
ATOM     10  C   UNL     1       2.807   0.964   2.005  1.00  0.00     0.050 A 
ATOM     11  C   UNL     1       2.004   0.536   0.977  1.00  0.00    -0.041 A 
ATOM     12  C   UNL     1       1.355   1.546   0.097  1.00  0.00     0.036 C 
ATOM     13  C   UNL     1       0.929   0.904  -1.193  1.00  0.00     0.009 C 
ATOM     14  C   UNL     1       0.126  -0.349  -0.986  1.00  0.00     0.001 C 
ATOM     15  C   UNL     1      -1.173  -0.073  -0.277  1.00  0.00     0.005 C 
ATOM     16  C   UNL     1      -1.944   0.929  -1.080  1.00  0.00     0.011 C 
ATOM     17  C   UNL     1      -3.346   0.356  -1.097  1.00  0.00     0.054 C 
ATOM     18  C   UNL     1      -3.056  -1.091  -1.182  1.00  0.00     0.044 C 
ATOM     19  N   UNL     1      -3.635  -1.915  -1.969  1.00  0.00    -0.192 NA
ENDROOT
BRANCH  19  20
ATOM     20  N   UNL     1      -4.639  -1.566  -2.876  1.00  0.00    -0.323 N 
ATOM     21  H   UNL     1      -5.649  -1.555  -2.622  1.00  0.00     0.179 HD
ATOM     22  H   UNL     1      -4.397  -1.302  -3.856  1.00  0.00     0.179 HD
ENDBRANCH  19  20
BRANCH   9  23
ATOM     23  O   UNL     1       4.243   0.528   3.888  1.00  0.00    -0.508 OA
ATOM     24  H   UNL     1       4.685   1.444   3.818  1.00  0.00     0.293 HD
ENDBRANCH   9  23
TORSDOF 2
