REMARK SMILES C[C@]12CCC3c4ccc([O-])cc4CCC3C1CC/C2=N\N
REMARK SMILES IDX 1 1 2 2 3 3 4 4 5 5 6 6 7 7 8 8 9 9 10 10 11 11 12 12 13 13
REMARK SMILES IDX 14 14 15 15 16 16 17 17 18 18 19 19 20 20 21 21
REMARK H PARENT 21 22 21 23
ROOT
ATOM      1  C   UNL     1       1.989   1.501   0.233  1.00  0.00     0.018 C 
ATOM      2  C   UNL     1       1.234   0.313   0.760  1.00  0.00     0.011 C 
ATOM      3  C   UNL     1       1.722  -0.950   0.139  1.00  0.00     0.014 C 
ATOM      4  C   UNL     1       1.346  -1.037  -1.339  1.00  0.00     0.009 C 
ATOM      5  C   UNL     1      -0.012  -0.585  -1.653  1.00  0.00     0.023 C 
ATOM      6  C   UNL     1      -0.214   0.765  -2.200  1.00  0.00    -0.041 A 
ATOM      7  C   UNL     1       0.810   1.467  -2.831  1.00  0.00     0.003 A 
ATOM      8  C   UNL     1       0.612   2.721  -3.317  1.00  0.00    -0.008 A 
ATOM      9  C   UNL     1      -0.604   3.370  -3.219  1.00  0.00    -0.109 A 
ATOM     10  O   UNL     1      -0.811   4.664  -3.719  1.00  0.00    -0.872 OA
ATOM     11  C   UNL     1      -1.610   2.688  -2.603  1.00  0.00    -0.005 A 
ATOM     12  C   UNL     1      -1.418   1.383  -2.092  1.00  0.00    -0.045 A 
ATOM     13  C   UNL     1      -2.605   0.719  -1.498  1.00  0.00     0.036 C 
ATOM     14  C   UNL     1      -2.252  -0.373  -0.585  1.00  0.00     0.009 C 
ATOM     15  C   UNL     1      -0.812  -0.643  -0.345  1.00  0.00     0.001 C 
ATOM     16  C   UNL     1      -0.259   0.397   0.597  1.00  0.00     0.005 C 
ATOM     17  C   UNL     1      -0.892   0.191   1.950  1.00  0.00     0.011 C 
ATOM     18  C   UNL     1       0.196  -0.283   2.885  1.00  0.00     0.054 C 
ATOM     19  C   UNL     1       1.402   0.241   2.260  1.00  0.00     0.044 C 
ATOM     20  N   UNL     1       2.465   0.595   2.878  1.00  0.00    -0.192 NA
ENDROOT
BRANCH  20  21
ATOM     21  N   UNL     1       2.753   0.589   4.196  1.00  0.00    -0.323 N 
ATOM     22  H   UNL     1       2.435  -0.123   4.875  1.00  0.00     0.179 HD
ATOM     23  H   UNL     1       3.350   1.355   4.650  1.00  0.00     0.179 HD
ENDBRANCH  20  21
TORSDOF 1
