REMARK SMILES CC(C)(C)c1cc(C(C)(C)C)c(NC(=S)NC(=O)c2ccccc2)c(C(C)(C)C)c1
REMARK SMILES IDX 5 1 6 2 7 3 12 4 25 5 30 6 2 7 1 8 3 9 4 10 8 11 9 12 10 13
REMARK SMILES IDX 11 14 26 15 27 16 28 17 29 18 13 19 14 20 15 21 16 22 17 23
REMARK SMILES IDX 18 24 19 27 20 28 24 29 21 30 23 31 22 32
REMARK H PARENT 13 25 16 26
ROOT
ATOM      1  C   UNL     1      -0.116  -2.867   0.989  1.00  0.00    -0.042 A 
ATOM      2  C   UNL     1       0.923  -2.083   1.417  1.00  0.00     0.010 A 
ATOM      3  C   UNL     1       1.520  -1.143   0.562  1.00  0.00    -0.018 A 
ATOM      4  C   UNL     1       1.059  -0.993  -0.746  1.00  0.00     0.048 A 
ATOM      5  C   UNL     1       0.007  -1.787  -1.189  1.00  0.00    -0.018 A 
ATOM      6  C   UNL     1      -0.548  -2.707  -0.289  1.00  0.00     0.010 A 
ENDROOT
BRANCH   1   7
ATOM      7  C   UNL     1      -0.708  -3.839   1.927  1.00  0.00    -0.013 C 
ATOM      8  C   UNL     1      -1.832  -3.164   2.683  1.00  0.00     0.016 C 
ATOM      9  C   UNL     1       0.330  -4.248   2.950  1.00  0.00     0.016 C 
ATOM     10  C   UNL     1      -1.205  -5.022   1.132  1.00  0.00     0.016 C 
ENDBRANCH   1   7
BRANCH   3  11
ATOM     11  C   UNL     1       2.665  -0.327   1.017  1.00  0.00    -0.011 C 
ATOM     12  C   UNL     1       2.959  -0.779   2.473  1.00  0.00     0.016 C 
ATOM     13  C   UNL     1       2.368   1.149   1.174  1.00  0.00     0.016 C 
ATOM     14  C   UNL     1       3.919  -0.595   0.245  1.00  0.00     0.016 C 
ENDBRANCH   3  11
BRANCH   5  15
ATOM     15  C   UNL     1      -0.511  -1.734  -2.545  1.00  0.00    -0.011 C 
ATOM     16  C   UNL     1      -1.105  -0.462  -3.040  1.00  0.00     0.016 C 
ATOM     17  C   UNL     1       0.538  -2.175  -3.575  1.00  0.00     0.016 C 
ATOM     18  C   UNL     1      -1.616  -2.794  -2.688  1.00  0.00     0.016 C 
ENDBRANCH   5  15
BRANCH   4  19
ATOM     19  N   UNL     1       1.675  -0.085  -1.606  1.00  0.00    -0.332 N 
ATOM     20  C   UNL     1       1.250   1.254  -1.770  1.00  0.00     0.177 C 
ATOM     21  S   UNL     1       2.046   2.266  -2.815  1.00  0.00    -0.040 S 
ATOM     22  N   UNL     1       0.141   1.838  -1.079  1.00  0.00    -0.299 N 
ATOM     23  C   UNL     1      -0.235   3.176  -1.282  1.00  0.00     0.257 C 
ATOM     24  O   UNL     1       0.439   3.875  -2.106  1.00  0.00    -0.269 OA
ATOM     25  H   UNL     1       2.523  -0.354  -2.205  1.00  0.00     0.169 HD
ATOM     26  H   UNL     1      -0.423   1.271  -0.396  1.00  0.00     0.172 HD
BRANCH  23  27
ATOM     27  C   UNL     1      -1.341   3.817  -0.615  1.00  0.00     0.040 A 
ATOM     28  C   UNL     1      -2.122   3.136   0.277  1.00  0.00     0.014 A 
ATOM     29  C   UNL     1      -1.654   5.135  -0.849  1.00  0.00     0.014 A 
ATOM     30  C   UNL     1      -3.196   3.753   0.927  1.00  0.00     0.001 A 
ATOM     31  C   UNL     1      -2.703   5.763  -0.223  1.00  0.00     0.001 A 
ATOM     32  C   UNL     1      -3.486   5.070   0.675  1.00  0.00     0.000 A 
ENDBRANCH  23  27
ENDBRANCH   4  19
TORSDOF 5
