REMARK SMILES Clc1ccc2nc(N=Cc3ccc(Br)cc3)sc2c1
REMARK SMILES IDX 8 1 9 2 7 3 2 4 3 5 19 6 4 7 18 8 5 9 17 10 6 11 1 12 10 13
REMARK SMILES IDX 11 14 16 15 12 16 15 17 13 18 14 19
REMARK H PARENT
ROOT
ATOM      1  N   UNL     1       2.211  -0.349   1.145  1.00  0.00    -0.227 NA
ATOM      2  C   UNL     1       2.793  -0.799   0.153  1.00  0.00     0.122 C 
ENDROOT
BRANCH   1   3
ATOM      3  C   UNL     1       0.839   0.044   1.344  1.00  0.00     0.210 A 
ATOM      4  C   UNL     1      -3.595   2.127   1.730  1.00  0.00     0.042 A 
ATOM      5  C   UNL     1      -3.661   0.837   2.196  1.00  0.00     0.023 A 
ATOM      6  C   UNL     1      -2.351   2.558   1.269  1.00  0.00     0.042 A 
ATOM      7  C   UNL     1      -2.595  -0.031   2.232  1.00  0.00     0.031 A 
ATOM      8  C   UNL     1      -1.271   1.683   1.303  1.00  0.00     0.058 A 
ATOM      9  C   UNL     1      -1.339   0.386   1.772  1.00  0.00     0.084 A 
ATOM     10  S   UNL     1       0.445   1.855   0.813  1.00  0.00    -0.095 S 
ATOM     11  N   UNL     1      -0.203  -0.265   1.714  1.00  0.00    -0.218 NA
ATOM     12  Cl  UNL     1      -4.993   3.146   1.725  1.00  0.00    -0.084 Cl
ENDBRANCH   1   3
BRANCH   2  13
ATOM     13  C   UNL     1       2.310  -1.097  -1.174  1.00  0.00    -0.007 A 
ATOM     14  C   UNL     1       3.187  -1.613  -2.143  1.00  0.00     0.011 A 
ATOM     15  C   UNL     1       1.018  -0.923  -1.617  1.00  0.00     0.011 A 
ATOM     16  C   UNL     1       2.774  -1.911  -3.415  1.00  0.00     0.016 A 
ATOM     17  C   UNL     1       0.571  -1.213  -2.888  1.00  0.00     0.016 A 
ATOM     18  C   UNL     1       1.465  -1.714  -3.801  1.00  0.00     0.018 A 
ATOM     19  Br  UNL     1       0.909  -2.135  -5.578  1.00  0.00    -0.051 Br
ENDBRANCH   2  13
TORSDOF 2
