REMARK SMILES CC(C)C(=O)N1CCN(c2ccc(F)cc2)CC1
REMARK SMILES IDX 4 1 5 2 6 3 7 4 8 5 9 6 17 7 18 8 2 9 1 10 3 11 10 12 11 13
REMARK SMILES IDX 16 14 12 15 15 16 13 17 14 18
REMARK H PARENT
ROOT
ATOM      1  C   UNL     1      -0.700  -1.284   2.403  1.00  0.00     0.225 C 
ATOM      2  O   UNL     1      -0.314  -0.576   3.388  1.00  0.00    -0.275 OA
ATOM      3  N   UNL     1       0.225  -1.507   1.372  1.00  0.00    -0.339 N 
ATOM      4  C   UNL     1       1.566  -0.955   1.429  1.00  0.00     0.141 C 
ATOM      5  C   UNL     1       1.676   0.068   0.357  1.00  0.00     0.138 C 
ATOM      6  N   UNL     1       0.824  -0.183  -0.775  1.00  0.00    -0.368 N 
ATOM      7  C   UNL     1       0.052  -1.354  -1.010  1.00  0.00     0.138 C 
ATOM      8  C   UNL     1      -0.031  -2.280   0.173  1.00  0.00     0.141 C 
ENDROOT
BRANCH   1   9
ATOM      9  C   UNL     1      -2.074  -1.802   2.437  1.00  0.00     0.072 C 
ATOM     10  C   UNL     1      -2.907  -1.340   1.265  1.00  0.00     0.018 C 
ATOM     11  C   UNL     1      -2.055  -3.302   2.460  1.00  0.00     0.018 C 
ENDBRANCH   1   9
BRANCH   6  12
ATOM     12  C   UNL     1       0.755   0.865  -1.765  1.00  0.00     0.037 A 
ATOM     13  C   UNL     1      -0.020   0.738  -2.905  1.00  0.00     0.029 A 
ATOM     14  C   UNL     1       1.459   2.052  -1.625  1.00  0.00     0.029 A 
ATOM     15  C   UNL     1      -0.063   1.760  -3.830  1.00  0.00     0.041 A 
ATOM     16  C   UNL     1       1.412   3.069  -2.553  1.00  0.00     0.041 A 
ATOM     17  C   UNL     1       0.642   2.933  -3.679  1.00  0.00     0.123 A 
ATOM     18  F   UNL     1       0.558   3.905  -4.627  1.00  0.00    -0.207 F 
ENDBRANCH   6  12
TORSDOF 2
