REMARK SMILES CC(C)(C)c1cc(N=Cc2ccc(F)cc2)c([O-])c(C(C)(C)C)c1
REMARK SMILES IDX 5 1 6 2 7 3 17 4 18 5 19 6 24 7 2 8 1 9 3 10 4 11 8 12 9 13
REMARK SMILES IDX 10 14 11 15 16 16 12 17 15 18 13 19 14 20 20 21 21 22 22 23
REMARK SMILES IDX 23 24
REMARK H PARENT
ROOT
ATOM      1  C   UNL     1      -0.338  -0.199   1.593  1.00  0.00    -0.040 A 
ATOM      2  C   UNL     1       0.192   0.089   0.362  1.00  0.00     0.032 A 
ATOM      3  C   UNL     1       0.468  -0.864  -0.598  1.00  0.00     0.056 A 
ATOM      4  C   UNL     1       0.175  -2.190  -0.257  1.00  0.00    -0.079 A 
ATOM      5  O   UNL     1       0.463  -3.127  -1.241  1.00  0.00    -0.871 OA
ATOM      6  C   UNL     1      -0.354  -2.531   0.955  1.00  0.00    -0.048 A 
ATOM      7  C   UNL     1      -0.604  -1.547   1.862  1.00  0.00     0.008 A 
ENDROOT
BRANCH   1   8
ATOM      8  C   UNL     1      -0.640   0.816   2.634  1.00  0.00    -0.013 C 
ATOM      9  C   UNL     1      -0.261   2.169   2.087  1.00  0.00     0.016 C 
ATOM     10  C   UNL     1      -2.134   0.850   2.931  1.00  0.00     0.016 C 
ATOM     11  C   UNL     1       0.146   0.527   3.905  1.00  0.00     0.016 C 
ENDBRANCH   1   8
BRANCH   3  12
ATOM     12  N   UNL     1       1.018  -0.503  -1.857  1.00  0.00    -0.257 NA
ATOM     13  C   UNL     1       0.285   0.223  -2.648  1.00  0.00     0.119 C 
BRANCH  13  14
ATOM     14  C   UNL     1       0.773   0.638  -3.958  1.00  0.00    -0.007 A 
ATOM     15  C   UNL     1       2.033   0.251  -4.357  1.00  0.00     0.013 A 
ATOM     16  C   UNL     1       0.002   1.407  -4.801  1.00  0.00     0.013 A 
ATOM     17  C   UNL     1       2.516   0.639  -5.608  1.00  0.00     0.040 A 
ATOM     18  C   UNL     1       0.495   1.782  -6.033  1.00  0.00     0.040 A 
ATOM     19  C   UNL     1       1.757   1.407  -6.462  1.00  0.00     0.123 A 
ATOM     20  F   UNL     1       2.189   1.799  -7.671  1.00  0.00    -0.207 F 
ENDBRANCH  13  14
ENDBRANCH   3  12
BRANCH   6  21
ATOM     21  C   UNL     1      -0.640  -3.956   1.248  1.00  0.00    -0.014 C 
ATOM     22  C   UNL     1      -1.219  -4.133   2.638  1.00  0.00     0.016 C 
ATOM     23  C   UNL     1      -1.713  -4.418   0.287  1.00  0.00     0.016 C 
ATOM     24  C   UNL     1       0.568  -4.827   1.053  1.00  0.00     0.016 C 
ENDBRANCH   6  21
TORSDOF 4
