REMARK SMILES O=c1cc(C(F)(F)F)c2ccc(Nc3c4ccccc4nc4ccccc34)cc2o1
REMARK SMILES IDX 1 1 2 2 3 3 4 4 9 5 10 6 11 7 12 8 28 9 29 10 30 11 5 12
REMARK SMILES IDX 6 13 7 14 8 15 13 16 14 18 15 19 27 20 16 21 20 22 26 23
REMARK SMILES IDX 22 24 17 25 19 26 21 27 25 28 23 29 18 30 24 31
REMARK H PARENT 13 17
ROOT
ATOM      1  O   UNL     1       4.403  -1.253   4.934  1.00  0.00    -0.246 OA
ATOM      2  C   UNL     1       3.504  -0.810   4.175  1.00  0.00     0.336 A 
ATOM      3  C   UNL     1       3.058   0.479   4.381  1.00  0.00     0.107 A 
ATOM      4  C   UNL     1       2.059   1.028   3.569  1.00  0.00     0.074 A 
ATOM      5  C   UNL     1       1.532   0.250   2.562  1.00  0.00     0.030 A 
ATOM      6  C   UNL     1       0.545   0.715   1.718  1.00  0.00     0.015 A 
ATOM      7  C   UNL     1       0.021  -0.089   0.700  1.00  0.00     0.027 A 
ATOM      8  C   UNL     1       0.504  -1.371   0.539  1.00  0.00     0.042 A 
ATOM      9  C   UNL     1       1.488  -1.815   1.390  1.00  0.00     0.074 A 
ATOM     10  C   UNL     1       2.022  -1.045   2.402  1.00  0.00     0.141 A 
ATOM     11  O   UNL     1       2.968  -1.500   3.205  1.00  0.00    -0.423 OA
ENDROOT
BRANCH   4  12
ATOM     12  C   UNL     1       1.556   2.401   3.751  1.00  0.00     0.417 C 
ATOM     13  F   UNL     1       1.772   3.160   2.619  1.00  0.00    -0.166 F 
ATOM     14  F   UNL     1       0.210   2.411   4.111  1.00  0.00    -0.166 F 
ATOM     15  F   UNL     1       2.260   2.985   4.814  1.00  0.00    -0.166 F 
ENDBRANCH   4  12
BRANCH   8  16
ATOM     16  N   UNL     1      -0.028  -2.208  -0.507  1.00  0.00    -0.354 N 
ATOM     17  H   UNL     1       0.376  -3.164  -0.578  1.00  0.00     0.167 HD
BRANCH  16  18
ATOM     18  C   UNL     1      -1.045  -1.732  -1.377  1.00  0.00     0.057 A 
ATOM     19  C   UNL     1      -0.754  -1.086  -2.560  1.00  0.00     0.024 A 
ATOM     20  C   UNL     1      -2.385  -1.900  -1.063  1.00  0.00     0.024 A 
ATOM     21  C   UNL     1       0.581  -0.915  -2.878  1.00  0.00     0.012 A 
ATOM     22  C   UNL     1      -1.757  -0.631  -3.390  1.00  0.00     0.073 A 
ATOM     23  C   UNL     1      -2.730  -2.546   0.121  1.00  0.00     0.012 A 
ATOM     24  C   UNL     1      -3.364  -1.432  -1.917  1.00  0.00     0.073 A 
ATOM     25  C   UNL     1       0.919  -0.282  -4.039  1.00  0.00     0.001 A 
ATOM     26  C   UNL     1      -1.379   0.005  -4.557  1.00  0.00     0.029 A 
ATOM     27  N   UNL     1      -3.054  -0.799  -3.077  1.00  0.00    -0.248 NA
ATOM     28  C   UNL     1      -4.064  -2.709   0.424  1.00  0.00     0.001 A 
ATOM     29  C   UNL     1      -4.701  -1.623  -1.562  1.00  0.00     0.029 A 
ATOM     30  C   UNL     1      -0.057   0.190  -4.900  1.00  0.00     0.002 A 
ATOM     31  C   UNL     1      -5.072  -2.257  -0.400  1.00  0.00     0.002 A 
ENDBRANCH  16  18
ENDBRANCH   8  16
TORSDOF 3
