REMARK SMILES Cc1ccc(NC(=O)c2ccco2)nc1
REMARK SMILES IDX 1 1 2 2 3 3 4 4 5 5 14 6 15 7 6 8 7 9 8 10 9 12 10 13 13 14
REMARK SMILES IDX 11 15 12 16
REMARK H PARENT 6 11
ROOT
ATOM      1  C   UNL     1      -3.407  -3.636  -1.227  1.00  0.00     0.046 C 
ATOM      2  C   UNL     1      -2.378  -2.638  -0.804  1.00  0.00    -0.033 A 
ATOM      3  C   UNL     1      -2.729  -1.389  -0.319  1.00  0.00     0.009 A 
ATOM      4  C   UNL     1      -1.736  -0.505   0.058  1.00  0.00     0.047 A 
ATOM      5  C   UNL     1      -0.392  -0.811  -0.027  1.00  0.00     0.132 A 
ATOM      6  N   UNL     1      -0.076  -2.031  -0.502  1.00  0.00    -0.239 NA
ATOM      7  C   UNL     1      -1.026  -2.909  -0.875  1.00  0.00     0.117 A 
ENDROOT
BRANCH   5   8
ATOM      8  N   UNL     1       0.626   0.128   0.373  1.00  0.00    -0.304 N 
ATOM      9  C   UNL     1       1.184   1.056  -0.532  1.00  0.00     0.292 C 
ATOM     10  O   UNL     1       0.769   1.051  -1.720  1.00  0.00    -0.265 OA
ATOM     11  H   UNL     1       0.942   0.107   1.348  1.00  0.00     0.171 HD
BRANCH   9  12
ATOM     12  C   UNL     1       2.213   2.017  -0.160  1.00  0.00     0.191 A 
ATOM     13  C   UNL     1       2.764   2.145   1.095  1.00  0.00     0.056 A 
ATOM     14  O   UNL     1       2.788   2.911  -0.922  1.00  0.00    -0.459 OA
ATOM     15  C   UNL     1       3.710   3.169   1.054  1.00  0.00     0.043 A 
ATOM     16  C   UNL     1       3.676   3.612  -0.251  1.00  0.00     0.196 A 
ENDBRANCH   9  12
ENDBRANCH   5   8
TORSDOF 2
