REMARK SMILES Cc1ccc2oc(-c3ccc(C[NH3+])cc3)nc2c1
REMARK SMILES IDX 8 1 9 2 10 3 11 4 14 5 15 6 7 7 2 8 3 9 18 10 4 11 17 12
REMARK SMILES IDX 5 13 16 14 6 15 1 16 12 17 13 18
REMARK H PARENT 13 19 13 20 13 21
ROOT
ATOM      1  C   UNL     1       0.706  -0.522  -0.752  1.00  0.00     0.037 A 
ATOM      2  C   UNL     1       1.829  -1.265  -0.467  1.00  0.00     0.014 A 
ATOM      3  C   UNL     1       2.741  -1.624  -1.442  1.00  0.00     0.010 A 
ATOM      4  C   UNL     1       2.577  -1.256  -2.760  1.00  0.00     0.006 A 
ATOM      5  C   UNL     1       1.454  -0.512  -3.051  1.00  0.00     0.010 A 
ATOM      6  C   UNL     1       0.547  -0.158  -2.070  1.00  0.00     0.014 A 
ENDROOT
BRANCH   1   7
ATOM      7  C   UNL     1      -0.265  -0.139   0.274  1.00  0.00     0.227 A 
ATOM      8  C   UNL     1      -3.611   1.341   3.041  1.00  0.00    -0.049 A 
ATOM      9  C   UNL     1      -2.804   0.667   3.935  1.00  0.00     0.007 A 
ATOM     10  C   UNL     1      -3.191   1.351   1.726  1.00  0.00     0.035 A 
ATOM     11  C   UNL     1      -1.643   0.041   3.532  1.00  0.00     0.050 A 
ATOM     12  C   UNL     1      -2.031   0.730   1.303  1.00  0.00     0.110 A 
ATOM     13  C   UNL     1      -1.234   0.060   2.210  1.00  0.00     0.155 A 
ATOM     14  N   UNL     1      -1.393   0.580   0.125  1.00  0.00    -0.209 NA
ATOM     15  O   UNL     1      -0.212  -0.430   1.550  1.00  0.00    -0.436 OA
ATOM     16  C   UNL     1      -4.863   2.014   3.488  1.00  0.00     0.044 C 
ENDBRANCH   1   7
BRANCH   4  17
ATOM     17  C   UNL     1       3.561  -1.642  -3.817  1.00  0.00     0.295 C 
BRANCH  17  18
ATOM     18  N   UNL     1       3.136  -2.936  -4.372  1.00  0.00    -0.354 N 
ATOM     19  H   UNL     1       3.815  -3.269  -5.072  1.00  0.00     0.344 HD
ATOM     20  H   UNL     1       2.182  -2.759  -4.773  1.00  0.00     0.344 HD
ATOM     21  H   UNL     1       2.985  -3.605  -3.583  1.00  0.00     0.344 HD
ENDBRANCH  17  18
ENDBRANCH   4  17
TORSDOF 3
