REMARK SMILES COc1c(C)c2c(c([O-])c1C/C=C(\C)CCC(=O)[O-])C(=O)OC2
REMARK SMILES IDX 12 1 13 2 14 3 11 4 10 5 3 6 4 7 6 8 8 9 7 10 23 11 20 12
REMARK SMILES IDX 22 13 21 14 5 15 9 16 2 17 1 18 15 19 16 20 17 21 18 22
REMARK SMILES IDX 19 23
REMARK H PARENT
ROOT
ATOM      1  C   UNL     1      -0.277  -1.397  -1.492  1.00  0.00    -0.023 C 
ATOM      2  C   UNL     1      -1.298  -2.249  -1.767  1.00  0.00    -0.077 C 
ATOM      3  C   UNL     1      -1.348  -3.536  -1.042  1.00  0.00     0.039 C 
ENDROOT
BRANCH   1   4
ATOM      4  C   UNL     1       0.780  -1.670  -0.520  1.00  0.00     0.066 C 
BRANCH   4   5
ATOM      5  C   UNL     1       0.942  -0.684   0.565  1.00  0.00    -0.009 A 
ATOM      6  C   UNL     1       1.589   0.516   0.430  1.00  0.00     0.125 A 
ATOM      7  C   UNL     1       1.673   1.365   1.543  1.00  0.00    -0.001 A 
ATOM      8  C   UNL     1       1.131   1.042   2.766  1.00  0.00     0.010 A 
ATOM      9  C   UNL     1       0.396  -0.997   1.820  1.00  0.00    -0.086 A 
ATOM     10  C   UNL     1       0.480  -0.162   2.908  1.00  0.00     0.059 A 
ATOM     11  C   UNL     1       1.083   1.754   4.084  1.00  0.00     0.270 C 
ATOM     12  C   UNL     1       0.000  -0.262   4.294  1.00  0.00     0.338 C 
ATOM     13  O   UNL     1       0.384   0.898   4.942  1.00  0.00    -0.457 OA
ATOM     14  O   UNL     1      -0.647  -1.249   4.776  1.00  0.00    -0.246 OA
ATOM     15  C   UNL     1       2.378   2.639   1.342  1.00  0.00     0.049 C 
ATOM     16  O   UNL     1      -0.280  -2.201   2.045  1.00  0.00    -0.872 OA
BRANCH   6  17
ATOM     17  O   UNL     1       2.154   0.885  -0.777  1.00  0.00    -0.496 OA
ATOM     18  C   UNL     1       1.447   1.648  -1.722  1.00  0.00     0.278 C 
ENDBRANCH   6  17
ENDBRANCH   4   5
ENDBRANCH   1   4
BRANCH   2  19
ATOM     19  C   UNL     1      -2.314  -1.926  -2.772  1.00  0.00     0.036 C 
BRANCH  19  20
ATOM     20  C   UNL     1      -3.725  -1.832  -2.277  1.00  0.00     0.057 C 
BRANCH  20  21
ATOM     21  C   UNL     1      -4.274  -3.047  -1.668  1.00  0.00     0.042 C 
ATOM     22  O   UNL     1      -4.279  -3.212  -0.423  1.00  0.00    -0.550 OA
ATOM     23  O   UNL     1      -4.807  -4.050  -2.498  1.00  0.00    -0.550 OA
ENDBRANCH  20  21
ENDBRANCH  19  20
ENDBRANCH   2  19
TORSDOF 6
