REMARK SMILES O=S(=O)([N-]c1cccc(F)c1)c1ccc(-c2ccccc2)cc1
REMARK SMILES IDX 1 1 2 2 3 3 4 4 5 5 6 6 11 7 7 8 9 9 8 10 10 11 12 12 13 13
REMARK SMILES IDX 23 14 14 15 22 16 15 17 16 18 17 19 21 20 18 21 20 22 19 23
REMARK H PARENT
ROOT
ATOM      1  O   UNL     1      -2.118   3.009  -2.288  1.00  0.00    -0.240 OA
ATOM      2  S   UNL     1      -1.335   2.596  -1.065  1.00  0.00     0.123 S 
ATOM      3  O   UNL     1      -1.920   3.332   0.095  1.00  0.00    -0.240 OA
ENDROOT
BRANCH   2   4
ATOM      4  N   UNL     1       0.278   3.139  -1.279  1.00  0.00    -0.573 NA
BRANCH   4   5
ATOM      5  C   UNL     1       1.299   3.006  -0.299  1.00  0.00    -0.125 A 
ATOM      6  C   UNL     1       2.109   1.872  -0.266  1.00  0.00    -0.015 A 
ATOM      7  C   UNL     1       1.511   3.991   0.636  1.00  0.00     0.023 A 
ATOM      8  C   UNL     1       3.102   1.719   0.670  1.00  0.00     0.002 A 
ATOM      9  C   UNL     1       2.498   3.870   1.588  1.00  0.00     0.122 A 
ATOM     10  C   UNL     1       3.291   2.735   1.605  1.00  0.00     0.039 A 
ATOM     11  F   UNL     1       2.733   4.833   2.533  1.00  0.00    -0.207 F 
ENDBRANCH   4   5
ENDBRANCH   2   4
BRANCH   2  12
ATOM     12  C   UNL     1      -1.419   0.857  -0.817  1.00  0.00     0.052 A 
ATOM     13  C   UNL     1      -1.548  -0.012  -1.880  1.00  0.00     0.019 A 
ATOM     14  C   UNL     1      -1.360   0.305   0.445  1.00  0.00     0.019 A 
ATOM     15  C   UNL     1      -1.614  -1.377  -1.684  1.00  0.00     0.010 A 
ATOM     16  C   UNL     1      -1.427  -1.060   0.634  1.00  0.00     0.010 A 
ATOM     17  C   UNL     1      -1.556  -1.940  -0.422  1.00  0.00    -0.018 A 
BRANCH  17  18
ATOM     18  C   UNL     1      -1.624  -3.381  -0.203  1.00  0.00    -0.018 A 
ATOM     19  C   UNL     1      -1.129  -4.301  -1.102  1.00  0.00     0.009 A 
ATOM     20  C   UNL     1      -2.203  -3.882   0.944  1.00  0.00     0.009 A 
ATOM     21  C   UNL     1      -1.204  -5.679  -0.872  1.00  0.00     0.001 A 
ATOM     22  C   UNL     1      -2.282  -5.247   1.181  1.00  0.00     0.001 A 
ATOM     23  C   UNL     1      -1.785  -6.156   0.277  1.00  0.00     0.000 A 
ENDBRANCH  17  18
ENDBRANCH   2  12
TORSDOF 4
