REMARK SMILES Cc1ccc(-c2c(C)nn3c(NCc4cccnc4)cc(C)nc23)cc1
REMARK SMILES IDX 6 1 7 2 8 3 9 4 10 5 11 6 20 7 21 8 22 9 23 10 24 11 5 12
REMARK SMILES IDX 2 13 3 14 26 15 4 16 25 17 1 18 12 19 13 21 14 22 15 23
REMARK SMILES IDX 19 24 16 25 18 26 17 27
REMARK H PARENT 12 20
ROOT
ATOM      1  C   UNL     1       0.155  -1.924   0.809  1.00  0.00     0.050 A 
ATOM      2  C   UNL     1       1.278  -2.027   0.009  1.00  0.00     0.070 A 
ATOM      3  C   UNL     1       1.893  -3.321  -0.406  1.00  0.00     0.069 C 
ATOM      4  N   UNL     1       1.685  -0.773  -0.302  1.00  0.00    -0.169 NA
ATOM      5  N   UNL     1       0.894   0.133   0.247  1.00  0.00    -0.198 N 
ATOM      6  C   UNL     1       0.894   1.478   0.226  1.00  0.00     0.132 A 
ATOM      7  C   UNL     1      -0.096   2.127   0.923  1.00  0.00     0.070 A 
ATOM      8  C   UNL     1      -1.072   1.436   1.632  1.00  0.00     0.043 A 
ATOM      9  C   UNL     1      -2.133   2.184   2.374  1.00  0.00     0.067 C 
ATOM     10  N   UNL     1      -1.026   0.094   1.620  1.00  0.00    -0.233 NA
ATOM     11  C   UNL     1      -0.052  -0.566   0.934  1.00  0.00     0.165 A 
ENDROOT
BRANCH   1  12
ATOM     12  C   UNL     1      -0.603  -3.036   1.373  1.00  0.00    -0.013 A 
ATOM     13  C   UNL     1      -2.119  -5.195   2.401  1.00  0.00    -0.051 A 
ATOM     14  C   UNL     1      -2.385  -4.650   1.157  1.00  0.00     0.004 A 
ATOM     15  C   UNL     1      -1.084  -4.642   3.121  1.00  0.00     0.004 A 
ATOM     16  C   UNL     1      -1.642  -3.594   0.656  1.00  0.00     0.009 A 
ATOM     17  C   UNL     1      -0.347  -3.585   2.608  1.00  0.00     0.009 A 
ATOM     18  C   UNL     1      -2.919  -6.337   2.941  1.00  0.00     0.044 C 
ENDBRANCH   1  12
BRANCH   6  19
ATOM     19  N   UNL     1       1.883   2.176  -0.497  1.00  0.00    -0.366 N 
ATOM     20  H   UNL     1       2.437   2.908  -0.006  1.00  0.00     0.162 HD
BRANCH  19  21
ATOM     21  C   UNL     1       2.167   1.925  -1.890  1.00  0.00     0.152 C 
BRANCH  21  22
ATOM     22  C   UNL     1       0.989   2.128  -2.754  1.00  0.00    -0.010 A 
ATOM     23  C   UNL     1       0.722   3.380  -3.253  1.00  0.00     0.009 A 
ATOM     24  C   UNL     1       0.148   1.095  -3.081  1.00  0.00     0.116 A 
ATOM     25  C   UNL     1      -0.364   3.626  -4.072  1.00  0.00     0.020 A 
ATOM     26  N   UNL     1      -0.902   1.357  -3.879  1.00  0.00    -0.264 NA
ATOM     27  C   UNL     1      -1.191   2.554  -4.380  1.00  0.00     0.111 A 
ENDBRANCH  21  22
ENDBRANCH  19  21
ENDBRANCH   6  19
TORSDOF 4
