REMARK SMILES CC[NH+](CC)CCCCCCCCOC(=O)c1cc(OC)c(OC)c(OC)c1
REMARK SMILES IDX 10 1 9 2 8 3 7 4 6 5 3 6 2 8 1 9 4 10 5 11 11 12 12 13 13 14
REMARK SMILES IDX 14 15 15 16 16 17 17 18 18 19 28 20 19 21 25 22 22 23 20 24
REMARK SMILES IDX 21 25 26 26 27 27 23 28 24 29
REMARK H PARENT 3 7
ROOT
ATOM      1  C   UNL     1       4.412   0.393  -0.446  1.00  0.00     0.000 C 
ENDROOT
BRANCH   1   2
ATOM      2  C   UNL     1       4.066   0.310   1.001  1.00  0.00     0.000 C 
BRANCH   2   3
ATOM      3  C   UNL     1       2.884  -0.640   1.241  1.00  0.00     0.006 C 
BRANCH   3   4
ATOM      4  C   UNL     1       2.567  -0.690   2.725  1.00  0.00     0.061 C 
BRANCH   4   5
ATOM      5  C   UNL     1       1.404  -1.639   2.910  1.00  0.00     0.262 C 
BRANCH   5   6
ATOM      6  N   UNL     1       1.683  -2.964   2.461  1.00  0.00    -0.335 N 
ATOM      7  H   UNL     1       2.724  -3.089   2.271  1.00  0.00     0.348 HD
BRANCH   6   8
ATOM      8  C   UNL     1       1.396  -3.895   3.542  1.00  0.00     0.258 C 
ATOM      9  C   UNL     1      -0.054  -3.966   3.873  1.00  0.00     0.071 C 
ENDBRANCH   6   8
BRANCH   6  10
ATOM     10  C   UNL     1       1.015  -3.323   1.245  1.00  0.00     0.258 C 
ATOM     11  C   UNL     1       1.713  -4.471   0.526  1.00  0.00     0.071 C 
ENDBRANCH   6  10
ENDBRANCH   5   6
ENDBRANCH   4   5
ENDBRANCH   3   4
ENDBRANCH   2   3
ENDBRANCH   1   2
BRANCH   1  12
ATOM     12  C   UNL     1       3.313   0.898  -1.336  1.00  0.00     0.003 C 
BRANCH  12  13
ATOM     13  C   UNL     1       2.931   2.275  -0.905  1.00  0.00     0.042 C 
BRANCH  13  14
ATOM     14  C   UNL     1       1.843   2.913  -1.732  1.00  0.00     0.233 C 
BRANCH  14  15
ATOM     15  O   UNL     1       0.691   2.099  -1.641  1.00  0.00    -0.462 OA
BRANCH  15  16
ATOM     16  C   UNL     1      -0.498   2.406  -2.284  1.00  0.00     0.338 C 
ATOM     17  O   UNL     1      -0.526   3.456  -2.970  1.00  0.00    -0.246 OA
BRANCH  16  18
ATOM     18  C   UNL     1      -1.684   1.570  -2.192  1.00  0.00     0.067 A 
ATOM     19  C   UNL     1      -1.739   0.399  -1.467  1.00  0.00     0.066 A 
ATOM     20  C   UNL     1      -2.832   1.951  -2.856  1.00  0.00     0.066 A 
ATOM     21  C   UNL     1      -2.916  -0.345  -1.427  1.00  0.00     0.165 A 
ATOM     22  C   UNL     1      -4.006   1.216  -2.819  1.00  0.00     0.165 A 
ATOM     23  C   UNL     1      -4.059   0.043  -2.093  1.00  0.00     0.203 A 
BRANCH  21  24
ATOM     24  O   UNL     1      -2.987  -1.521  -0.706  1.00  0.00    -0.493 OA
ATOM     25  C   UNL     1      -1.844  -1.966  -0.006  1.00  0.00     0.278 C 
ENDBRANCH  21  24
BRANCH  22  26
ATOM     26  O   UNL     1      -5.142   1.614  -3.489  1.00  0.00    -0.493 OA
ATOM     27  C   UNL     1      -5.238   2.777  -4.263  1.00  0.00     0.278 C 
ENDBRANCH  22  26
BRANCH  23  28
ATOM     28  O   UNL     1      -5.233  -0.708  -2.046  1.00  0.00    -0.490 OA
ATOM     29  C   UNL     1      -6.214  -0.485  -1.043  1.00  0.00     0.278 C 
ENDBRANCH  23  28
ENDBRANCH  16  18
ENDBRANCH  15  16
ENDBRANCH  14  15
ENDBRANCH  13  14
ENDBRANCH  12  13
ENDBRANCH   1  12
TORSDOF 16
