REMARK SMILES CCN(CC)CCCCCCCCOC(=O)c1cc(OC)c(OC)c(OC)c1
REMARK SMILES IDX 10 1 9 2 8 3 7 4 6 5 3 6 2 7 1 8 4 9 5 10 11 11 12 12 13 13
REMARK SMILES IDX 14 14 15 15 16 16 17 17 18 18 28 19 19 20 25 21 22 22 20 23
REMARK SMILES IDX 21 24 26 25 27 26 23 27 24 28
REMARK H PARENT
ROOT
ATOM      1  C   UNL     1       2.298  -0.478   0.572  1.00  0.00     0.000 C 
ENDROOT
BRANCH   1   2
ATOM      2  C   UNL     1       2.214  -0.158   2.053  1.00  0.00     0.000 C 
BRANCH   2   3
ATOM      3  C   UNL     1       2.001  -1.419   2.863  1.00  0.00     0.001 C 
BRANCH   3   4
ATOM      4  C   UNL     1       1.911  -1.135   4.358  1.00  0.00     0.016 C 
BRANCH   4   5
ATOM      5  C   UNL     1       0.769  -0.217   4.678  1.00  0.00     0.084 C 
BRANCH   5   6
ATOM      6  N   UNL     1       0.685   0.066   6.092  1.00  0.00    -0.304 NA
BRANCH   6   7
ATOM      7  C   UNL     1      -0.405   0.926   6.421  1.00  0.00     0.081 C 
ATOM      8  C   UNL     1      -1.775   0.430   6.187  1.00  0.00     0.021 C 
ENDBRANCH   6   7
BRANCH   6   9
ATOM      9  C   UNL     1       0.815  -1.096   6.924  1.00  0.00     0.081 C 
ATOM     10  C   UNL     1      -0.253  -2.128   6.748  1.00  0.00     0.021 C 
ENDBRANCH   6   9
ENDBRANCH   5   6
ENDBRANCH   4   5
ENDBRANCH   3   4
ENDBRANCH   2   3
ENDBRANCH   1   2
BRANCH   1  11
ATOM     11  C   UNL     1       2.507   0.716  -0.292  1.00  0.00     0.003 C 
BRANCH  11  12
ATOM     12  C   UNL     1       1.450   1.763  -0.201  1.00  0.00     0.042 C 
BRANCH  12  13
ATOM     13  C   UNL     1       0.071   1.326  -0.555  1.00  0.00     0.233 C 
BRANCH  13  14
ATOM     14  O   UNL     1       0.056   0.852  -1.894  1.00  0.00    -0.462 OA
BRANCH  14  15
ATOM     15  C   UNL     1      -1.098   0.375  -2.494  1.00  0.00     0.338 C 
ATOM     16  O   UNL     1      -2.143   0.377  -1.805  1.00  0.00    -0.246 OA
BRANCH  15  17
ATOM     17  C   UNL     1      -1.166  -0.121  -3.859  1.00  0.00     0.067 A 
ATOM     18  C   UNL     1      -2.375  -0.573  -4.379  1.00  0.00     0.066 A 
ATOM     19  C   UNL     1      -0.079  -0.180  -4.703  1.00  0.00     0.066 A 
ATOM     20  C   UNL     1      -2.499  -1.056  -5.658  1.00  0.00     0.165 A 
ATOM     21  C   UNL     1      -0.193  -0.665  -5.995  1.00  0.00     0.165 A 
ATOM     22  C   UNL     1      -1.415  -1.118  -6.508  1.00  0.00     0.203 A 
BRANCH  20  23
ATOM     23  O   UNL     1      -3.740  -1.506  -6.148  1.00  0.00    -0.493 OA
ATOM     24  C   UNL     1      -4.838  -1.433  -5.264  1.00  0.00     0.278 C 
ENDBRANCH  20  23
BRANCH  21  25
ATOM     25  O   UNL     1       0.864  -0.748  -6.886  1.00  0.00    -0.493 OA
ATOM     26  C   UNL     1       2.181  -0.363  -6.628  1.00  0.00     0.278 C 
ENDBRANCH  21  25
BRANCH  22  27
ATOM     27  O   UNL     1      -1.530  -1.605  -7.803  1.00  0.00    -0.490 OA
ATOM     28  C   UNL     1      -1.362  -2.969  -8.141  1.00  0.00     0.278 C 
ENDBRANCH  22  27
ENDBRANCH  15  17
ENDBRANCH  14  15
ENDBRANCH  13  14
ENDBRANCH  12  13
ENDBRANCH  11  12
ENDBRANCH   1  11
TORSDOF 16
