REMARK SMILES COc1ccc2oc(-c3ccc([O-])cc3)cc(=O)c2c1
REMARK SMILES IDX 3 1 4 2 5 3 6 4 7 5 8 6 16 7 17 8 18 9 19 10 20 11 2 12 1 13
REMARK SMILES IDX 9 14 10 15 15 16 11 17 14 18 12 19 13 20
REMARK H PARENT
ROOT
ATOM      1  C   UNL     1      -1.326  -1.321   3.044  1.00  0.00     0.119 A 
ATOM      2  C   UNL     1       0.025  -1.065   3.154  1.00  0.00     0.050 A 
ATOM      3  C   UNL     1       0.776  -0.686   2.060  1.00  0.00     0.052 A 
ATOM      4  C   UNL     1       0.199  -0.546   0.796  1.00  0.00     0.138 A 
ATOM      5  O   UNL     1       0.915  -0.187  -0.237  1.00  0.00    -0.456 OA
ATOM      6  C   UNL     1       0.429  -0.037  -1.458  1.00  0.00     0.138 A 
ATOM      7  C   UNL     1      -0.911  -0.277  -1.643  1.00  0.00     0.100 A 
ATOM      8  C   UNL     1      -1.711  -0.662  -0.565  1.00  0.00     0.193 A 
ATOM      9  O   UNL     1      -2.939  -0.886  -0.714  1.00  0.00    -0.289 OA
ATOM     10  C   UNL     1      -1.150  -0.802   0.684  1.00  0.00     0.068 A 
ATOM     11  C   UNL     1      -1.887  -1.181   1.791  1.00  0.00     0.062 A 
ENDROOT
BRANCH   1  12
ATOM     12  O   UNL     1      -2.069  -1.702   4.153  1.00  0.00    -0.497 OA
ATOM     13  C   UNL     1      -3.456  -1.955   3.990  1.00  0.00     0.278 C 
ENDBRANCH   1  12
BRANCH   6  14
ATOM     14  C   UNL     1       1.294   0.367  -2.562  1.00  0.00     0.017 A 
ATOM     15  C   UNL     1       2.649   0.600  -2.330  1.00  0.00     0.011 A 
ATOM     16  C   UNL     1       0.866   0.542  -3.850  1.00  0.00     0.011 A 
ATOM     17  C   UNL     1       3.509   0.981  -3.326  1.00  0.00    -0.008 A 
ATOM     18  C   UNL     1       1.702   0.926  -4.882  1.00  0.00    -0.008 A 
ATOM     19  C   UNL     1       3.038   1.149  -4.620  1.00  0.00    -0.109 A 
ATOM     20  O   UNL     1       3.939   1.537  -5.609  1.00  0.00    -0.872 OA
ENDBRANCH   6  14
TORSDOF 2
