REMARK SMILES COc1ccc2oc(-c3ccc(O)cc3)cc(=O)c2c1
REMARK SMILES IDX 3 1 4 2 5 3 6 4 7 5 8 6 16 7 17 8 18 9 19 10 20 11 2 12 1 13
REMARK SMILES IDX 9 14 10 15 15 16 11 17 14 18 12 19 13 20
REMARK H PARENT 13 21
ROOT
ATOM      1  C   UNL     1      -1.843  -1.183   3.131  1.00  0.00     0.119 A 
ATOM      2  C   UNL     1      -0.903  -2.157   2.872  1.00  0.00     0.050 A 
ATOM      3  C   UNL     1      -0.120  -2.104   1.738  1.00  0.00     0.052 A 
ATOM      4  C   UNL     1      -0.238  -1.076   0.808  1.00  0.00     0.138 A 
ATOM      5  O   UNL     1       0.509  -1.035  -0.265  1.00  0.00    -0.456 OA
ATOM      6  C   UNL     1       0.414  -0.055  -1.173  1.00  0.00     0.138 A 
ATOM      7  C   UNL     1      -0.491   0.954  -0.999  1.00  0.00     0.100 A 
ATOM      8  C   UNL     1      -1.288   0.906   0.148  1.00  0.00     0.193 A 
ATOM      9  O   UNL     1      -2.129   1.822   0.334  1.00  0.00    -0.289 OA
ATOM     10  C   UNL     1      -1.180  -0.105   1.074  1.00  0.00     0.068 A 
ATOM     11  C   UNL     1      -1.966  -0.159   2.214  1.00  0.00     0.062 A 
ENDROOT
BRANCH   1  12
ATOM     12  O   UNL     1      -2.643  -1.229   4.281  1.00  0.00    -0.497 OA
ATOM     13  C   UNL     1      -3.606  -0.238   4.554  1.00  0.00     0.278 C 
ENDBRANCH   1  12
BRANCH   6  14
ATOM     14  C   UNL     1       1.279  -0.077  -2.342  1.00  0.00     0.018 A 
ATOM     15  C   UNL     1       1.246   0.883  -3.316  1.00  0.00     0.016 A 
ATOM     16  C   UNL     1       2.206  -1.115  -2.516  1.00  0.00     0.016 A 
ATOM     17  C   UNL     1       2.096   0.829  -4.429  1.00  0.00     0.047 A 
ATOM     18  C   UNL     1       3.041  -1.168  -3.608  1.00  0.00     0.047 A 
ATOM     19  C   UNL     1       2.999  -0.197  -4.582  1.00  0.00     0.115 A 
BRANCH  19  20
ATOM     20  O   UNL     1       3.853  -0.250  -5.701  1.00  0.00    -0.508 OA
ATOM     21  H   UNL     1       4.582   0.470  -5.768  1.00  0.00     0.293 HD
ENDBRANCH  19  20
ENDBRANCH   6  14
TORSDOF 3
