REMARK SMILES COc1ccc(/C=C/c2cc([O-])cc(O)c2)cc1
REMARK SMILES IDX 7 1 8 2 6 3 3 4 4 5 18 6 5 7 17 8 2 9 1 10 9 11 10 12 16 13
REMARK SMILES IDX 11 14 14 15 13 16 12 17 15 18
REMARK H PARENT 15 19
ROOT
ATOM      1  C   UNL     1       0.595  -0.230   0.253  1.00  0.00     0.009 C 
ATOM      2  C   UNL     1       0.906  -0.500  -0.987  1.00  0.00     0.009 C 
ENDROOT
BRANCH   1   3
ATOM      3  C   UNL     1      -0.757  -0.190   0.798  1.00  0.00    -0.025 A 
ATOM      4  C   UNL     1      -3.351  -0.094   1.925  1.00  0.00     0.118 A 
ATOM      5  C   UNL     1      -2.231   0.157   2.689  1.00  0.00     0.047 A 
ATOM      6  C   UNL     1      -3.157  -0.392   0.593  1.00  0.00     0.047 A 
ATOM      7  C   UNL     1      -0.968   0.108   2.130  1.00  0.00     0.012 A 
ATOM      8  C   UNL     1      -1.888  -0.437   0.052  1.00  0.00     0.012 A 
BRANCH   4   9
ATOM      9  O   UNL     1      -4.625  -0.043   2.494  1.00  0.00    -0.497 OA
ATOM     10  C   UNL     1      -5.731  -0.310   1.655  1.00  0.00     0.278 C 
ENDBRANCH   4   9
ENDBRANCH   1   3
BRANCH   2  11
ATOM     11  C   UNL     1       2.252  -0.543  -1.543  1.00  0.00    -0.023 A 
ATOM     12  C   UNL     1       3.386  -0.298  -0.808  1.00  0.00    -0.000 A 
ATOM     13  C   UNL     1       2.445  -0.842  -2.875  1.00  0.00     0.054 A 
ATOM     14  C   UNL     1       4.657  -0.350  -1.381  1.00  0.00    -0.105 A 
ATOM     15  C   UNL     1       3.690  -0.898  -3.459  1.00  0.00     0.115 A 
ATOM     16  C   UNL     1       4.820  -0.649  -2.709  1.00  0.00     0.037 A 
ATOM     17  O   UNL     1       5.798  -0.101  -0.632  1.00  0.00    -0.872 OA
BRANCH  15  18
ATOM     18  O   UNL     1       3.869  -1.200  -4.802  1.00  0.00    -0.508 OA
ATOM     19  H   UNL     1       3.608  -0.478  -5.464  1.00  0.00     0.293 HD
ENDBRANCH  15  18
ENDBRANCH   2  11
TORSDOF 4
