REMARK SMILES Cc1ccc(OCCNC(=O)c2ccc(C)c(C)c2)cc1
REMARK SMILES IDX 7 1 6 2 5 3 2 4 3 5 21 6 4 7 20 8 1 9 8 10 9 11 10 12 11 13
REMARK SMILES IDX 12 15 13 16 19 17 14 18 17 19 15 20 18 21 16 22
REMARK H PARENT 9 14
ROOT
ATOM      1  C   UNL     1       2.016  -0.567   1.888  1.00  0.00     0.250 C 
ENDROOT
BRANCH   1   2
ATOM      2  O   UNL     1       0.981  -1.487   2.099  1.00  0.00    -0.492 OA
BRANCH   2   3
ATOM      3  C   UNL     1       0.121  -1.435   3.184  1.00  0.00     0.119 A 
ATOM      4  C   UNL     1      -1.616  -1.305   5.403  1.00  0.00    -0.051 A 
ATOM      5  C   UNL     1      -1.737  -2.304   4.435  1.00  0.00     0.007 A 
ATOM      6  C   UNL     1      -0.610  -0.389   5.222  1.00  0.00     0.007 A 
ATOM      7  C   UNL     1      -0.884  -2.356   3.357  1.00  0.00     0.046 A 
ATOM      8  C   UNL     1       0.238  -0.441   4.151  1.00  0.00     0.046 A 
ATOM      9  C   UNL     1      -2.529  -1.254   6.550  1.00  0.00     0.044 C 
ENDBRANCH   2   3
ENDBRANCH   1   2
BRANCH   1  10
ATOM     10  C   UNL     1       2.788  -0.872   0.625  1.00  0.00     0.157 C 
BRANCH  10  11
ATOM     11  N   UNL     1       1.952  -0.837  -0.558  1.00  0.00    -0.349 N 
ATOM     12  C   UNL     1       1.259   0.344  -0.931  1.00  0.00     0.251 C 
ATOM     13  O   UNL     1       1.402   1.364  -0.188  1.00  0.00    -0.269 OA
ATOM     14  H   UNL     1       1.874  -1.707  -1.129  1.00  0.00     0.163 HD
BRANCH  12  15
ATOM     15  C   UNL     1       0.410   0.400  -2.122  1.00  0.00     0.040 A 
ATOM     16  C   UNL     1      -0.248   1.594  -2.438  1.00  0.00     0.014 A 
ATOM     17  C   UNL     1       0.203  -0.654  -2.975  1.00  0.00     0.017 A 
ATOM     18  C   UNL     1      -1.052   1.675  -3.550  1.00  0.00     0.004 A 
ATOM     19  C   UNL     1      -0.613  -0.563  -4.098  1.00  0.00    -0.047 A 
ATOM     20  C   UNL     1      -1.257   0.613  -4.405  1.00  0.00    -0.048 A 
ATOM     21  C   UNL     1      -0.787  -1.750  -4.974  1.00  0.00     0.044 C 
ATOM     22  C   UNL     1      -2.140   0.744  -5.604  1.00  0.00     0.044 C 
ENDBRANCH  12  15
ENDBRANCH  10  11
ENDBRANCH   1  10
TORSDOF 5
