REMARK SMILES COC(=O)CC1C(C)(C)C(OC(C)=O)C2CC3C4CC(=O)OC(c5ccoc5)C4(C)CCC3C1(C)C2=O
REMARK SMILES IDX 6 1 7 2 8 3 9 4 10 5 15 6 16 7 17 8 18 9 19 10 20 11 21 12
REMARK SMILES IDX 22 13 23 14 29 15 30 16 31 17 32 18 33 19 34 20 35 21 36 22
REMARK SMILES IDX 37 23 5 24 3 25 4 26 2 27 1 28 11 29 12 30 14 31 13 32 24 33
REMARK SMILES IDX 25 34 28 35 26 36 27 37
REMARK H PARENT
ROOT
ATOM      1  C   UNL     1       0.314   2.518   0.904  1.00  0.00     0.023 C 
ATOM      2  C   UNL     1      -0.522   2.638   2.139  1.00  0.00     0.007 C 
ATOM      3  C   UNL     1      -1.738   3.503   1.721  1.00  0.00     0.015 C 
ATOM      4  C   UNL     1       0.050   3.315   3.323  1.00  0.00     0.015 C 
ATOM      5  C   UNL     1      -1.131   1.338   2.599  1.00  0.00     0.193 C 
ATOM      6  C   UNL     1      -0.207   0.163   2.566  1.00  0.00     0.098 C 
ATOM      7  C   UNL     1      -0.652  -0.923   1.592  1.00  0.00     0.019 C 
ATOM      8  C   UNL     1      -0.558  -0.414   0.191  1.00  0.00    -0.002 C 
ATOM      9  C   UNL     1      -0.963  -1.341  -0.878  1.00  0.00     0.013 C 
ATOM     10  C   UNL     1      -1.885  -2.472  -0.413  1.00  0.00     0.127 C 
ATOM     11  C   UNL     1      -2.581  -2.918  -1.644  1.00  0.00     0.306 C 
ATOM     12  O   UNL     1      -3.642  -3.574  -1.631  1.00  0.00    -0.252 OA
ATOM     13  O   UNL     1      -1.997  -2.572  -2.842  1.00  0.00    -0.457 OA
ATOM     14  C   UNL     1      -0.576  -2.586  -2.927  1.00  0.00     0.216 C 
ATOM     15  C   UNL     1       0.111  -1.926  -1.750  1.00  0.00     0.013 C 
ATOM     16  C   UNL     1       1.038  -2.880  -1.064  1.00  0.00     0.016 C 
ATOM     17  C   UNL     1       0.980  -0.808  -2.311  1.00  0.00     0.011 C 
ATOM     18  C   UNL     1       0.858   0.489  -1.540  1.00  0.00     0.005 C 
ATOM     19  C   UNL     1       0.773   0.219  -0.088  1.00  0.00     0.006 C 
ATOM     20  C   UNL     1       1.191   1.308   0.842  1.00  0.00     0.034 C 
ATOM     21  C   UNL     1       2.639   1.605   0.552  1.00  0.00     0.020 C 
ATOM     22  C   UNL     1       1.147   0.674   2.196  1.00  0.00     0.146 C 
ATOM     23  O   UNL     1       2.103   0.571   2.939  1.00  0.00    -0.299 OA
ENDROOT
BRANCH   1  24
ATOM     24  C   UNL     1       0.855   3.772   0.375  1.00  0.00     0.128 C 
BRANCH  24  25
ATOM     25  C   UNL     1       1.758   4.635   1.071  1.00  0.00     0.305 C 
ATOM     26  O   UNL     1       2.011   5.781   0.521  1.00  0.00    -0.252 OA
BRANCH  25  27
ATOM     27  O   UNL     1       2.444   4.507   2.244  1.00  0.00    -0.469 OA
ATOM     28  C   UNL     1       3.315   5.433   2.832  1.00  0.00     0.282 C 
ENDBRANCH  25  27
ENDBRANCH  24  25
ENDBRANCH   1  24
BRANCH   5  29
ATOM     29  O   UNL     1      -2.400   1.076   2.033  1.00  0.00    -0.461 OA
BRANCH  29  30
ATOM     30  C   UNL     1      -3.574   1.017   2.730  1.00  0.00     0.302 C 
ATOM     31  O   UNL     1      -3.567   1.201   3.961  1.00  0.00    -0.253 OA
ATOM     32  C   UNL     1      -4.850   0.730   1.995  1.00  0.00     0.139 C 
ENDBRANCH  29  30
ENDBRANCH   5  29
BRANCH  14  33
ATOM     33  C   UNL     1      -0.184  -3.967  -3.190  1.00  0.00     0.031 A 
ATOM     34  C   UNL     1       0.796  -4.395  -4.094  1.00  0.00     0.049 A 
ATOM     35  C   UNL     1      -0.672  -5.128  -2.641  1.00  0.00     0.202 A 
ATOM     36  C   UNL     1       0.831  -5.774  -4.029  1.00  0.00     0.195 A 
ATOM     37  O   UNL     1      -0.072  -6.181  -3.138  1.00  0.00    -0.472 OA
ENDBRANCH  14  33
TORSDOF 6
