REMARK SMILES COC(=O)C[C@@H]1C2(C)C(=O)[C@@H](CC3C2CC[C@]2(C)C3CC(=O)O[C@H]2c2ccoc2)[C@H](OC(C)=O)C1(C)C
REMARK SMILES IDX 6 1 7 2 8 3 9 4 10 5 11 6 12 7 13 8 14 9 15 10 16 11 17 12
REMARK SMILES IDX 18 13 19 14 20 15 21 16 22 17 23 18 24 19 30 20 35 21 36 22
REMARK SMILES IDX 37 23 5 24 3 25 4 26 2 27 1 28 31 29 32 30 34 31 33 32 25 33
REMARK SMILES IDX 26 34 29 35 27 36 28 37
REMARK H PARENT
ROOT
ATOM      1  C   UNL     1       2.430  -0.096   0.536  1.00  0.00     0.023 C 
ATOM      2  C   UNL     1       1.309   0.950   0.492  1.00  0.00     0.034 C 
ATOM      3  C   UNL     1       1.830   2.336   0.226  1.00  0.00     0.020 C 
ATOM      4  C   UNL     1       0.761   0.948   1.878  1.00  0.00     0.146 C 
ATOM      5  O   UNL     1       0.986   1.775   2.711  1.00  0.00    -0.299 OA
ATOM      6  C   UNL     1      -0.124  -0.249   2.091  1.00  0.00     0.098 C 
ATOM      7  C   UNL     1      -1.386  -0.160   1.219  1.00  0.00     0.019 C 
ATOM      8  C   UNL     1      -1.133   0.927   0.224  1.00  0.00    -0.002 C 
ATOM      9  C   UNL     1       0.199   0.601  -0.447  1.00  0.00     0.006 C 
ATOM     10  C   UNL     1       0.201   1.457  -1.706  1.00  0.00     0.005 C 
ATOM     11  C   UNL     1      -0.750   0.758  -2.659  1.00  0.00     0.011 C 
ATOM     12  C   UNL     1      -2.156   0.657  -2.090  1.00  0.00     0.013 C 
ATOM     13  C   UNL     1      -3.010   1.536  -3.006  1.00  0.00     0.016 C 
ATOM     14  C   UNL     1      -2.235   1.222  -0.725  1.00  0.00     0.013 C 
ATOM     15  C   UNL     1      -3.591   0.903  -0.091  1.00  0.00     0.127 C 
ATOM     16  C   UNL     1      -3.921  -0.522  -0.165  1.00  0.00     0.306 C 
ATOM     17  O   UNL     1      -4.619  -1.029   0.754  1.00  0.00    -0.252 OA
ATOM     18  O   UNL     1      -3.449  -1.242  -1.245  1.00  0.00    -0.457 OA
ATOM     19  C   UNL     1      -2.650  -0.733  -2.257  1.00  0.00     0.216 C 
ATOM     20  C   UNL     1       0.672  -1.466   1.788  1.00  0.00     0.193 C 
ATOM     21  C   UNL     1       2.099  -1.271   1.351  1.00  0.00     0.007 C 
ATOM     22  C   UNL     1       2.470  -2.521   0.520  1.00  0.00     0.015 C 
ATOM     23  C   UNL     1       2.934  -1.359   2.605  1.00  0.00     0.015 C 
ENDROOT
BRANCH   1  24
ATOM     24  C   UNL     1       3.674   0.674   0.881  1.00  0.00     0.128 C 
BRANCH  24  25
ATOM     25  C   UNL     1       4.928  -0.083   0.958  1.00  0.00     0.305 C 
ATOM     26  O   UNL     1       5.099  -1.273   0.740  1.00  0.00    -0.252 OA
BRANCH  25  27
ATOM     27  O   UNL     1       6.073   0.653   1.328  1.00  0.00    -0.469 OA
ATOM     28  C   UNL     1       7.317   0.007   1.427  1.00  0.00     0.282 C 
ENDBRANCH  25  27
ENDBRANCH  24  25
ENDBRANCH   1  24
BRANCH  20  29
ATOM     29  O   UNL     1       0.587  -2.291   2.938  1.00  0.00    -0.461 OA
BRANCH  29  30
ATOM     30  C   UNL     1      -0.075  -3.493   2.884  1.00  0.00     0.302 C 
ATOM     31  O   UNL     1      -0.636  -3.938   1.850  1.00  0.00    -0.253 OA
ATOM     32  C   UNL     1      -0.142  -4.338   4.123  1.00  0.00     0.139 C 
ENDBRANCH  29  30
ENDBRANCH  20  29
BRANCH  19  33
ATOM     33  C   UNL     1      -3.394  -0.958  -3.546  1.00  0.00     0.031 A 
ATOM     34  C   UNL     1      -2.870  -1.422  -4.745  1.00  0.00     0.049 A 
ATOM     35  C   UNL     1      -4.735  -0.756  -3.795  1.00  0.00     0.202 A 
ATOM     36  C   UNL     1      -3.905  -1.478  -5.650  1.00  0.00     0.195 A 
ATOM     37  O   UNL     1      -4.978  -1.071  -5.023  1.00  0.00    -0.472 OA
ENDBRANCH  19  33
TORSDOF 6
