REMARK SMILES O=S(=O)([N-]Cc1ccc(N2CCCC2)cc1)c1ccc(F)cc1
REMARK SMILES IDX 4 1 2 2 1 3 3 4 17 5 18 6 23 7 19 8 22 9 20 10 21 11 5 12
REMARK SMILES IDX 6 13 7 14 16 15 8 16 15 17 9 18 10 19 11 20 14 21 12 22
REMARK SMILES IDX 13 23
REMARK H PARENT
ROOT
ATOM      1  N   UNL     1      -1.167   1.678   2.786  1.00  0.00    -0.541 NA
ENDROOT
BRANCH   1   2
ATOM      2  S   UNL     1      -1.407   0.783   4.222  1.00  0.00     0.101 S 
ATOM      3  O   UNL     1      -2.772   1.051   4.774  1.00  0.00    -0.244 OA
ATOM      4  O   UNL     1      -0.382   1.268   5.233  1.00  0.00    -0.244 OA
BRANCH   2   5
ATOM      5  C   UNL     1      -1.123  -0.931   4.012  1.00  0.00     0.048 A 
ATOM      6  C   UNL     1       0.122  -1.496   4.217  1.00  0.00     0.021 A 
ATOM      7  C   UNL     1      -2.140  -1.791   3.631  1.00  0.00     0.021 A 
ATOM      8  C   UNL     1       0.326  -2.859   4.044  1.00  0.00     0.040 A 
ATOM      9  C   UNL     1      -1.957  -3.146   3.455  1.00  0.00     0.040 A 
ATOM     10  C   UNL     1      -0.720  -3.673   3.664  1.00  0.00     0.123 A 
ATOM     11  F   UNL     1      -0.563  -5.014   3.484  1.00  0.00    -0.207 F 
ENDBRANCH   2   5
ENDBRANCH   1   2
BRANCH   1  12
ATOM     12  C   UNL     1       0.183   1.581   2.305  1.00  0.00    -0.096 C 
BRANCH  12  13
ATOM     13  C   UNL     1       0.245   1.139   0.883  1.00  0.00    -0.068 A 
ATOM     14  C   UNL     1       0.233   2.022  -0.176  1.00  0.00     0.004 A 
ATOM     15  C   UNL     1       0.318  -0.205   0.586  1.00  0.00     0.004 A 
ATOM     16  C   UNL     1       0.292   1.587  -1.495  1.00  0.00     0.026 A 
ATOM     17  C   UNL     1       0.378  -0.651  -0.738  1.00  0.00     0.026 A 
ATOM     18  C   UNL     1       0.365   0.242  -1.784  1.00  0.00     0.037 A 
BRANCH  18  19
ATOM     19  N   UNL     1       0.426  -0.220  -3.130  1.00  0.00    -0.372 N 
ATOM     20  C   UNL     1       0.426   0.555  -4.352  1.00  0.00     0.116 C 
ATOM     21  C   UNL     1       0.503  -1.598  -3.538  1.00  0.00     0.116 C 
ATOM     22  C   UNL     1      -0.136  -0.350  -5.428  1.00  0.00     0.023 C 
ATOM     23  C   UNL     1      -0.447  -1.646  -4.723  1.00  0.00     0.023 C 
ENDBRANCH  18  19
ENDBRANCH  12  13
ENDBRANCH   1  12
TORSDOF 5
