REMARK SMILES CCCOc1ccc(C([O-])=C2C(=O)C(=O)[NH+](CCCN(C)C)C2c2ccc(Cl)cc2)cc1C
REMARK SMILES IDX 9 1 10 2 11 3 12 4 13 5 14 6 15 7 16 8 23 9 8 11 5 12 6 13
REMARK SMILES IDX 32 14 7 15 31 16 33 17 4 18 3 19 2 20 1 21 24 22 25 23 30 24
REMARK SMILES IDX 26 25 29 26 27 27 28 28 17 29 18 30 19 31 20 32 21 33 22 34
REMARK H PARENT 16 10
ROOT
ATOM      1  C   UNL     1       1.202   1.786   0.853  1.00  0.00    -0.087 C 
ATOM      2  O   UNL     1       2.002   2.182   1.941  1.00  0.00    -0.872 OA
ATOM      3  C   UNL     1       1.703   1.776  -0.336  1.00  0.00     0.065 C 
ATOM      4  C   UNL     1       3.125   2.186  -0.582  1.00  0.00     0.290 C 
ATOM      5  O   UNL     1       3.924   2.753   0.194  1.00  0.00    -0.279 OA
ATOM      6  C   UNL     1       3.389   1.769  -1.976  1.00  0.00     0.385 C 
ATOM      7  O   UNL     1       4.184   2.209  -2.815  1.00  0.00    -0.222 OA
ATOM      8  N   UNL     1       2.433   0.661  -2.116  1.00  0.00    -0.254 N 
ATOM      9  C   UNL     1       1.263   1.421  -1.687  1.00  0.00     0.258 C 
ATOM     10  H   UNL     1       2.388   0.322  -3.075  1.00  0.00     0.358 HD
ENDROOT
BRANCH   1  11
ATOM     11  C   UNL     1      -0.172   1.413   1.213  1.00  0.00    -0.032 A 
ATOM     12  C   UNL     1      -2.815   0.798   1.904  1.00  0.00     0.122 A 
ATOM     13  C   UNL     1      -1.731   0.232   2.546  1.00  0.00     0.047 A 
ATOM     14  C   UNL     1      -2.523   1.708   0.876  1.00  0.00    -0.008 A 
ATOM     15  C   UNL     1      -0.424   0.519   2.222  1.00  0.00     0.011 A 
ATOM     16  C   UNL     1      -1.236   1.993   0.558  1.00  0.00     0.014 A 
ATOM     17  C   UNL     1      -3.653   2.362   0.136  1.00  0.00     0.048 C 
BRANCH  12  18
ATOM     18  O   UNL     1      -4.116   0.549   2.183  1.00  0.00    -0.493 OA
BRANCH  18  19
ATOM     19  C   UNL     1      -4.796  -0.241   3.056  1.00  0.00     0.229 C 
BRANCH  19  20
ATOM     20  C   UNL     1      -4.620  -1.725   2.938  1.00  0.00     0.038 C 
ATOM     21  C   UNL     1      -5.047  -2.225   1.557  1.00  0.00     0.007 C 
ENDBRANCH  19  20
ENDBRANCH  18  19
ENDBRANCH  12  18
ENDBRANCH   1  11
BRANCH   9  22
ATOM     22  C   UNL     1       0.040   0.725  -1.933  1.00  0.00     0.015 A 
ATOM     23  C   UNL     1      -0.244  -0.513  -1.431  1.00  0.00     0.012 A 
ATOM     24  C   UNL     1      -0.940   1.316  -2.757  1.00  0.00     0.012 A 
ATOM     25  C   UNL     1      -1.443  -1.197  -1.702  1.00  0.00     0.021 A 
ATOM     26  C   UNL     1      -2.088   0.682  -3.027  1.00  0.00     0.021 A 
ATOM     27  C   UNL     1      -2.371  -0.582  -2.512  1.00  0.00     0.041 A 
ATOM     28  Cl  UNL     1      -3.895  -1.346  -2.910  1.00  0.00    -0.084 Cl
ENDBRANCH   9  22
BRANCH   8  29
ATOM     29  C   UNL     1       2.835  -0.267  -1.117  1.00  0.00     0.272 C 
BRANCH  29  30
ATOM     30  C   UNL     1       3.020  -1.694  -1.644  1.00  0.00     0.077 C 
BRANCH  30  31
ATOM     31  C   UNL     1       3.428  -2.542  -0.490  1.00  0.00     0.089 C 
BRANCH  31  32
ATOM     32  N   UNL     1       3.644  -3.923  -0.824  1.00  0.00    -0.309 NA
ATOM     33  C   UNL     1       4.793  -4.130  -1.664  1.00  0.00     0.104 C 
ATOM     34  C   UNL     1       3.746  -4.734   0.370  1.00  0.00     0.104 C 
ENDBRANCH  31  32
ENDBRANCH  30  31
ENDBRANCH  29  30
ENDBRANCH   8  29
TORSDOF 9
