REMARK SMILES CCCOc1ccc(C([O-])=C2C(=O)C(=O)N(CCC[NH+](C)C)C2c2ccc(Cl)cc2)cc1C
REMARK SMILES IDX 9 1 10 2 11 3 12 4 13 5 14 6 15 7 16 8 23 9 8 10 5 11 6 12
REMARK SMILES IDX 32 13 7 14 31 15 33 16 4 17 3 18 2 19 1 20 24 21 25 22 30 23
REMARK SMILES IDX 26 24 29 25 27 26 28 27 17 28 18 29 19 30 20 31 21 32 22 33
REMARK H PARENT 20 34
ROOT
ATOM      1  C   UNL     1       0.781   0.693  -0.436  1.00  0.00    -0.092 C 
ATOM      2  O   UNL     1       2.108   0.958  -0.022  1.00  0.00    -0.872 OA
ATOM      3  C   UNL     1       0.640  -0.159  -1.404  1.00  0.00     0.025 C 
ATOM      4  C   UNL     1      -0.562  -0.652  -2.056  1.00  0.00     0.248 C 
ATOM      5  O   UNL     1      -1.682  -0.091  -2.144  1.00  0.00    -0.283 OA
ATOM      6  C   UNL     1      -0.204  -1.981  -2.609  1.00  0.00     0.295 C 
ATOM      7  O   UNL     1      -0.988  -2.732  -3.253  1.00  0.00    -0.265 OA
ATOM      8  N   UNL     1       1.155  -2.201  -2.266  1.00  0.00    -0.324 N 
ATOM      9  C   UNL     1       1.748  -0.884  -2.146  1.00  0.00     0.150 C 
ENDROOT
BRANCH   1  10
ATOM     10  C   UNL     1      -0.237   1.416   0.282  1.00  0.00    -0.033 A 
ATOM     11  C   UNL     1      -2.177   2.856   1.776  1.00  0.00     0.122 A 
ATOM     12  C   UNL     1      -1.252   2.034   2.379  1.00  0.00     0.047 A 
ATOM     13  C   UNL     1      -2.104   2.943   0.374  1.00  0.00    -0.008 A 
ATOM     14  C   UNL     1      -0.306   1.330   1.659  1.00  0.00     0.011 A 
ATOM     15  C   UNL     1      -1.153   2.235  -0.329  1.00  0.00     0.014 A 
ATOM     16  C   UNL     1      -3.073   3.816  -0.351  1.00  0.00     0.048 C 
BRANCH  11  17
ATOM     17  O   UNL     1      -3.131   3.575   2.423  1.00  0.00    -0.493 OA
BRANCH  17  18
ATOM     18  C   UNL     1      -3.488   3.711   3.735  1.00  0.00     0.229 C 
BRANCH  18  19
ATOM     19  C   UNL     1      -3.984   2.495   4.451  1.00  0.00     0.038 C 
ATOM     20  C   UNL     1      -4.309   2.932   5.890  1.00  0.00     0.007 C 
ENDBRANCH  18  19
ENDBRANCH  17  18
ENDBRANCH  11  17
ENDBRANCH   1  10
BRANCH   9  21
ATOM     21  C   UNL     1       1.814  -0.248  -3.488  1.00  0.00    -0.021 A 
ATOM     22  C   UNL     1       1.471   1.068  -3.737  1.00  0.00     0.008 A 
ATOM     23  C   UNL     1       2.231  -0.973  -4.585  1.00  0.00     0.008 A 
ATOM     24  C   UNL     1       1.537   1.627  -4.989  1.00  0.00     0.021 A 
ATOM     25  C   UNL     1       2.304  -0.431  -5.849  1.00  0.00     0.021 A 
ATOM     26  C   UNL     1       1.955   0.885  -6.068  1.00  0.00     0.041 A 
ATOM     27  Cl  UNL     1       2.047   1.581  -7.685  1.00  0.00    -0.084 Cl
ENDBRANCH   9  21
BRANCH   8  28
ATOM     28  C   UNL     1       1.753  -3.502  -2.093  1.00  0.00     0.127 C 
BRANCH  28  29
ATOM     29  C   UNL     1       1.643  -3.983  -0.656  1.00  0.00     0.083 C 
BRANCH  29  30
ATOM     30  C   UNL     1       2.275  -5.348  -0.501  1.00  0.00     0.263 C 
BRANCH  30  31
ATOM     31  N   UNL     1       2.203  -5.852   0.831  1.00  0.00    -0.340 N 
ATOM     32  C   UNL     1       2.935  -5.040   1.786  1.00  0.00     0.332 C 
ATOM     33  C   UNL     1       0.870  -6.027   1.328  1.00  0.00     0.332 C 
ATOM     34  H   UNL     1       2.678  -6.792   0.831  1.00  0.00     0.347 HD
ENDBRANCH  30  31
ENDBRANCH  29  30
ENDBRANCH  28  29
ENDBRANCH   8  28
TORSDOF 9
