REMARK SMILES CCc1ccccc1NC(=O)c1cnccn1
REMARK SMILES IDX 3 1 4 2 5 3 6 4 7 5 8 6 2 7 1 8 9 9 10 10 11 11 12 13 13 14
REMARK SMILES IDX 17 15 14 16 16 17 15 18
REMARK H PARENT 9 12
ROOT
ATOM      1  C   UNL     1       0.078   0.342   1.865  1.00  0.00    -0.025 A 
ATOM      2  C   UNL     1       0.616   0.478   3.132  1.00  0.00     0.006 A 
ATOM      3  C   UNL     1       1.906   0.133   3.395  1.00  0.00     0.000 A 
ATOM      4  C   UNL     1       2.676  -0.354   2.385  1.00  0.00     0.002 A 
ATOM      5  C   UNL     1       2.120  -0.483   1.121  1.00  0.00     0.026 A 
ATOM      6  C   UNL     1       0.837  -0.156   0.799  1.00  0.00     0.044 A 
ENDROOT
BRANCH   1   7
ATOM      7  C   UNL     1      -1.349   0.748   1.660  1.00  0.00     0.034 C 
ATOM      8  C   UNL     1      -2.267  -0.441   1.549  1.00  0.00     0.009 C 
ENDBRANCH   1   7
BRANCH   6   9
ATOM      9  N   UNL     1       0.205  -0.258  -0.443  1.00  0.00    -0.320 N 
ATOM     10  C   UNL     1       0.757  -0.727  -1.665  1.00  0.00     0.275 C 
ATOM     11  O   UNL     1       1.934  -1.097  -1.667  1.00  0.00    -0.267 OA
ATOM     12  H   UNL     1      -0.819   0.034  -0.554  1.00  0.00     0.170 HD
BRANCH  10  13
ATOM     13  C   UNL     1      -0.041  -0.777  -2.902  1.00  0.00     0.146 A 
ATOM     14  C   UNL     1       0.545  -1.242  -4.056  1.00  0.00     0.145 A 
ATOM     15  N   UNL     1      -1.313  -0.390  -2.960  1.00  0.00    -0.248 NA
ATOM     16  N   UNL     1      -0.171  -1.299  -5.220  1.00  0.00    -0.261 NA
ATOM     17  C   UNL     1      -2.029  -0.446  -4.120  1.00  0.00     0.132 A 
ATOM     18  C   UNL     1      -1.455  -0.909  -5.279  1.00  0.00     0.131 A 
ENDBRANCH  10  13
ENDBRANCH   6   9
TORSDOF 3
