REMARK SMILES OCC[NH+](CCO)CC(O)Cn1c2ccc(Cl)cc2c2cc(Cl)ccc21
REMARK SMILES IDX 4 1 3 3 2 4 1 5 5 7 6 8 7 9 8 11 9 12 10 13 11 15 12 16
REMARK SMILES IDX 13 17 26 18 14 19 19 20 25 21 20 22 15 23 18 24 24 25 21 26
REMARK SMILES IDX 16 27 22 28 17 29 23 30
REMARK H PARENT 4 2 1 6 7 10 10 14
ROOT
ATOM      1  N   UNL     1      -0.480  -0.656   2.501  1.00  0.00    -0.329 N 
ATOM      2  H   UNL     1      -0.562  -1.493   3.166  1.00  0.00     0.348 HD
ENDROOT
BRANCH   1   3
ATOM      3  C   UNL     1      -1.843  -0.440   2.092  1.00  0.00     0.290 C 
BRANCH   3   4
ATOM      4  C   UNL     1      -2.026   0.438   0.913  1.00  0.00     0.217 C 
BRANCH   4   5
ATOM      5  O   UNL     1      -3.420   0.521   0.679  1.00  0.00    -0.391 OA
ATOM      6  H   UNL     1      -3.660   1.297   0.145  1.00  0.00     0.210 HD
ENDBRANCH   4   5
ENDBRANCH   3   4
ENDBRANCH   1   3
BRANCH   1   7
ATOM      7  C   UNL     1       0.103   0.379   3.278  1.00  0.00     0.290 C 
BRANCH   7   8
ATOM      8  C   UNL     1      -0.681   0.792   4.488  1.00  0.00     0.217 C 
BRANCH   8   9
ATOM      9  O   UNL     1      -0.031   1.811   5.186  1.00  0.00    -0.391 OA
ATOM     10  H   UNL     1       0.116   2.549   4.514  1.00  0.00     0.210 HD
ENDBRANCH   8   9
ENDBRANCH   7   8
ENDBRANCH   1   7
BRANCH   1  11
ATOM     11  C   UNL     1       0.314  -1.149   1.408  1.00  0.00     0.296 C 
BRANCH  11  12
ATOM     12  C   UNL     1       1.188  -0.173   0.724  1.00  0.00     0.189 C 
BRANCH  12  13
ATOM     13  O   UNL     1       2.129   0.383   1.602  1.00  0.00    -0.385 OA
ATOM     14  H   UNL     1       2.908   0.745   1.091  1.00  0.00     0.211 HD
ENDBRANCH  12  13
BRANCH  12  15
ATOM     15  C   UNL     1       1.989  -0.788  -0.402  1.00  0.00     0.160 C 
BRANCH  15  16
ATOM     16  N   UNL     1       1.145  -1.365  -1.438  1.00  0.00    -0.338 N 
ATOM     17  C   UNL     1       0.685  -0.678  -2.494  1.00  0.00     0.049 A 
ATOM     18  C   UNL     1       0.691  -2.618  -1.545  1.00  0.00     0.049 A 
ATOM     19  C   UNL     1       0.830   0.637  -2.905  1.00  0.00     0.028 A 
ATOM     20  C   UNL     1      -0.069  -1.527  -3.269  1.00  0.00     0.009 A 
ATOM     21  C   UNL     1       0.850  -3.750  -0.750  1.00  0.00     0.028 A 
ATOM     22  C   UNL     1      -0.076  -2.771  -2.676  1.00  0.00     0.009 A 
ATOM     23  C   UNL     1       0.249   1.103  -4.046  1.00  0.00     0.023 A 
ATOM     24  C   UNL     1      -0.675  -1.068  -4.446  1.00  0.00     0.031 A 
ATOM     25  C   UNL     1       0.257  -4.964  -1.099  1.00  0.00     0.023 A 
ATOM     26  C   UNL     1      -0.665  -3.964  -3.029  1.00  0.00     0.031 A 
ATOM     27  C   UNL     1      -0.506   0.247  -4.817  1.00  0.00     0.041 A 
ATOM     28  C   UNL     1      -0.505  -5.093  -2.235  1.00  0.00     0.041 A 
ATOM     29  Cl  UNL     1      -1.261   0.852  -6.298  1.00  0.00    -0.084 Cl
ATOM     30  Cl  UNL     1      -1.228  -6.624  -2.634  1.00  0.00    -0.084 Cl
ENDBRANCH  15  16
ENDBRANCH  12  15
ENDBRANCH  11  12
ENDBRANCH   1  11
TORSDOF 11
