REMARK SMILES CCCCCCCc1ccc(C(=O)CBr)cc1
REMARK SMILES IDX 6 1 5 2 4 3 3 4 2 5 1 6 7 7 8 8 9 9 17 10 10 11 16 12 11 13
REMARK SMILES IDX 12 14 13 15 14 16 15 17
REMARK H PARENT
ROOT
ATOM      1  C   UNL     1       0.366  -1.580   2.185  1.00  0.00     0.005 C 
ENDROOT
BRANCH   1   2
ATOM      2  C   UNL     1      -0.713  -2.146   1.320  1.00  0.00     0.000 C 
BRANCH   2   3
ATOM      3  C   UNL     1      -2.070  -2.105   1.972  1.00  0.00     0.000 C 
BRANCH   3   4
ATOM      4  C   UNL     1      -2.516  -0.715   2.319  1.00  0.00    -0.000 C 
BRANCH   4   5
ATOM      5  C   UNL     1      -2.627   0.204   1.156  1.00  0.00    -0.003 C 
ATOM      6  C   UNL     1      -3.606  -0.253   0.110  1.00  0.00     0.004 C 
ENDBRANCH   4   5
ENDBRANCH   3   4
ENDBRANCH   2   3
ENDBRANCH   1   2
BRANCH   1   7
ATOM      7  C   UNL     1       1.684  -1.666   1.462  1.00  0.00     0.035 C 
BRANCH   7   8
ATOM      8  C   UNL     1       1.687  -0.911   0.176  1.00  0.00    -0.048 A 
ATOM      9  C   UNL     1       2.046   0.426   0.139  1.00  0.00     0.004 A 
ATOM     10  C   UNL     1       1.340  -1.508  -1.016  1.00  0.00     0.004 A 
ATOM     11  C   UNL     1       2.057   1.131  -1.042  1.00  0.00     0.012 A 
ATOM     12  C   UNL     1       1.354  -0.800  -2.186  1.00  0.00     0.012 A 
ATOM     13  C   UNL     1       1.711   0.530  -2.226  1.00  0.00     0.018 A 
BRANCH  13  14
ATOM     14  C   UNL     1       1.718   1.270  -3.500  1.00  0.00     0.173 C 
ATOM     15  O   UNL     1       2.048   2.472  -3.491  1.00  0.00    -0.293 OA
BRANCH  14  16
ATOM     16  C   UNL     1       1.346   0.626  -4.773  1.00  0.00     0.161 C 
ATOM     17  Br  UNL     1       1.478   1.912  -6.205  1.00  0.00    -0.084 Br
ENDBRANCH  14  16
ENDBRANCH  13  14
ENDBRANCH   7   8
ENDBRANCH   1   7
TORSDOF 8
