REMARK SMILES O=C(CCc1ccccc1)[NH+]1CCN(Cc2ccc(Cl)cc2)CC1
REMARK SMILES IDX 11 1 12 2 13 3 14 4 23 5 24 6 2 8 1 9 3 10 4 11 5 12 6 13
REMARK SMILES IDX 10 14 7 15 9 16 8 17 15 18 16 19 17 20 22 21 18 22 21 23
REMARK SMILES IDX 19 24 20 25
REMARK H PARENT 11 7
ROOT
ATOM      1  N   UNL     1       0.304  -1.652  -1.798  1.00  0.00    -0.270 N 
ATOM      2  C   UNL     1      -0.406  -1.989  -0.650  1.00  0.00     0.285 C 
ATOM      3  C   UNL     1      -1.208  -0.724  -0.256  1.00  0.00     0.147 C 
ATOM      4  N   UNL     1      -2.199  -0.589  -1.255  1.00  0.00    -0.288 NA
ATOM      5  C   UNL     1      -1.714  -0.553  -2.592  1.00  0.00     0.147 C 
ATOM      6  C   UNL     1      -0.189  -0.698  -2.694  1.00  0.00     0.285 C 
ATOM      7  H   UNL     1       0.013  -2.495  -2.355  1.00  0.00     0.356 HD
ENDROOT
BRANCH   1   8
ATOM      8  C   UNL     1       1.659  -1.499  -1.577  1.00  0.00     0.312 C 
ATOM      9  O   UNL     1       1.488  -0.515  -0.950  1.00  0.00    -0.231 OA
BRANCH   8  10
ATOM     10  C   UNL     1       3.064  -1.792  -1.644  1.00  0.00     0.150 C 
BRANCH  10  11
ATOM     11  C   UNL     1       4.052  -0.903  -0.984  1.00  0.00     0.049 C 
BRANCH  11  12
ATOM     12  C   UNL     1       3.967  -0.707   0.446  1.00  0.00    -0.047 A 
ATOM     13  C   UNL     1       4.496  -1.638   1.323  1.00  0.00     0.004 A 
ATOM     14  C   UNL     1       3.398   0.409   0.990  1.00  0.00     0.004 A 
ATOM     15  C   UNL     1       4.434  -1.418   2.683  1.00  0.00     0.000 A 
ATOM     16  C   UNL     1       3.327   0.644   2.347  1.00  0.00     0.000 A 
ATOM     17  C   UNL     1       3.854  -0.284   3.210  1.00  0.00     0.000 A 
ENDBRANCH  11  12
ENDBRANCH  10  11
ENDBRANCH   8  10
ENDBRANCH   1   8
BRANCH   4  18
ATOM     18  C   UNL     1      -3.314   0.230  -0.981  1.00  0.00     0.120 C 
BRANCH  18  19
ATOM     19  C   UNL     1      -4.125  -0.206   0.196  1.00  0.00    -0.034 A 
ATOM     20  C   UNL     1      -3.823   0.271   1.441  1.00  0.00     0.006 A 
ATOM     21  C   UNL     1      -5.170  -1.073   0.077  1.00  0.00     0.006 A 
ATOM     22  C   UNL     1      -4.555  -0.118   2.530  1.00  0.00     0.021 A 
ATOM     23  C   UNL     1      -5.893  -1.454   1.168  1.00  0.00     0.021 A 
ATOM     24  C   UNL     1      -5.619  -0.992   2.453  1.00  0.00     0.041 A 
ATOM     25  Cl  UNL     1      -6.556  -1.489   3.847  1.00  0.00    -0.084 Cl
ENDBRANCH  18  19
ENDBRANCH   4  18
TORSDOF 6
