REMARK SMILES O=C(CCc1ccccc1)N1CCN(Cc2ccc(Cl)cc2)CC1
REMARK SMILES IDX 1 1 2 2 11 3 12 4 13 5 14 6 23 7 24 8 3 9 4 10 5 11 6 12
REMARK SMILES IDX 10 13 7 14 9 15 8 16 15 17 16 18 17 19 22 20 18 21 21 22
REMARK SMILES IDX 19 23 20 24
REMARK H PARENT
ROOT
ATOM      1  O   UNL     1       1.691  -2.612  -1.472  1.00  0.00    -0.275 OA
ATOM      2  C   UNL     1       1.279  -1.449  -1.198  1.00  0.00     0.222 C 
ATOM      3  N   UNL     1       0.300  -0.904  -2.069  1.00  0.00    -0.340 N 
ATOM      4  C   UNL     1      -0.231   0.422  -1.834  1.00  0.00     0.135 C 
ATOM      5  C   UNL     1      -1.742   0.392  -1.631  1.00  0.00     0.106 C 
ATOM      6  N   UNL     1      -2.234  -0.848  -2.125  1.00  0.00    -0.296 NA
ATOM      7  C   UNL     1      -1.680  -1.164  -3.418  1.00  0.00     0.106 C 
ATOM      8  C   UNL     1      -0.225  -1.608  -3.219  1.00  0.00     0.135 C 
ENDROOT
BRANCH   2   9
ATOM      9  C   UNL     1       1.805  -0.708  -0.021  1.00  0.00     0.105 C 
BRANCH   9  10
ATOM     10  C   UNL     1       2.809  -1.551   0.674  1.00  0.00     0.045 C 
BRANCH  10  11
ATOM     11  C   UNL     1       3.432  -0.986   1.854  1.00  0.00    -0.048 A 
ATOM     12  C   UNL     1       2.831  -1.209   3.085  1.00  0.00     0.004 A 
ATOM     13  C   UNL     1       4.590  -0.232   1.874  1.00  0.00     0.004 A 
ATOM     14  C   UNL     1       3.366  -0.702   4.256  1.00  0.00     0.000 A 
ATOM     15  C   UNL     1       5.144   0.282   3.018  1.00  0.00     0.000 A 
ATOM     16  C   UNL     1       4.525   0.046   4.235  1.00  0.00     0.000 A 
ENDBRANCH  10  11
ENDBRANCH   9  10
ENDBRANCH   2   9
BRANCH   6  17
ATOM     17  C   UNL     1      -3.658  -0.997  -2.057  1.00  0.00     0.120 C 
BRANCH  17  18
ATOM     18  C   UNL     1      -4.073  -0.887  -0.634  1.00  0.00    -0.034 A 
ATOM     19  C   UNL     1      -4.408   0.322  -0.060  1.00  0.00     0.006 A 
ATOM     20  C   UNL     1      -4.143  -2.008   0.190  1.00  0.00     0.006 A 
ATOM     21  C   UNL     1      -4.792   0.411   1.261  1.00  0.00     0.021 A 
ATOM     22  C   UNL     1      -4.524  -1.927   1.507  1.00  0.00     0.021 A 
ATOM     23  C   UNL     1      -4.859  -0.703   2.071  1.00  0.00     0.041 A 
ATOM     24  Cl  UNL     1      -5.346  -0.604   3.755  1.00  0.00    -0.084 Cl
ENDBRANCH  17  18
ENDBRANCH   6  17
TORSDOF 5
