REMARK SMILES CC(=O)C1=C(C)OC([NH3+])=C(C#N)C1c1ccccc1
REMARK SMILES IDX 4 1 5 2 6 3 7 4 8 5 10 6 11 7 12 8 13 9 2 10 3 11 1 12 14 13
REMARK SMILES IDX 15 14 19 15 16 16 18 17 17 18 9 19
REMARK H PARENT 9 20 9 21 9 22
ROOT
ATOM      1  C   UNL     1      -0.300  -0.153   1.030  1.00  0.00     0.046 C 
ATOM      2  C   UNL     1       0.836   0.241   1.556  1.00  0.00     0.115 C 
ATOM      3  C   UNL     1       0.969   1.436   2.443  1.00  0.00     0.088 C 
ATOM      4  O   UNL     1       2.021  -0.443   1.319  1.00  0.00    -0.416 OA
ATOM      5  C   UNL     1       2.082  -1.552   0.537  1.00  0.00     0.306 C 
ATOM      6  C   UNL     1       0.970  -1.995  -0.018  1.00  0.00     0.142 C 
ATOM      7  C   UNL     1       1.142  -3.191  -0.839  1.00  0.00     0.106 C 
ATOM      8  N   UNL     1       1.262  -4.133  -1.499  1.00  0.00    -0.192 NA
ATOM      9  C   UNL     1      -0.321  -1.367   0.152  1.00  0.00     0.107 C 
ENDROOT
BRANCH   1  10
ATOM     10  C   UNL     1      -1.578   0.515   1.240  1.00  0.00     0.160 C 
ATOM     11  O   UNL     1      -2.602  -0.009   0.628  1.00  0.00    -0.295 OA
ATOM     12  C   UNL     1      -1.857   1.687   2.041  1.00  0.00     0.093 C 
ENDBRANCH   1  10
BRANCH   9  13
ATOM     13  C   UNL     1      -0.860  -0.961  -1.185  1.00  0.00    -0.035 A 
ATOM     14  C   UNL     1      -0.120  -0.059  -1.937  1.00  0.00     0.005 A 
ATOM     15  C   UNL     1      -2.043  -1.442  -1.690  1.00  0.00     0.005 A 
ATOM     16  C   UNL     1      -0.549   0.364  -3.178  1.00  0.00     0.000 A 
ATOM     17  C   UNL     1      -2.455  -1.004  -2.938  1.00  0.00     0.000 A 
ATOM     18  C   UNL     1      -1.739  -0.118  -3.687  1.00  0.00     0.000 A 
ENDBRANCH   9  13
BRANCH   5  19
ATOM     19  N   UNL     1       3.352  -2.217   0.333  1.00  0.00    -0.293 N 
ATOM     20  H   UNL     1       3.505  -2.881   1.098  1.00  0.00     0.353 HD
ATOM     21  H   UNL     1       4.072  -1.463   0.362  1.00  0.00     0.353 HD
ATOM     22  H   UNL     1       3.363  -2.649  -0.605  1.00  0.00     0.353 HD
ENDBRANCH   5  19
TORSDOF 3
