REMARK SMILES CCOC(=O)N1CCC(=C2c3ccc(Cl)cc3CCc3cccnc32)CC1
REMARK SMILES IDX 4 1 5 2 6 3 7 4 8 5 9 6 10 7 26 8 27 9 3 10 2 11 1 12 11 13
REMARK SMILES IDX 12 14 17 15 13 16 16 17 14 18 15 19 18 20 25 22 24 23 20 24
REMARK SMILES IDX 23 25 21 26 22 27 19 28
REMARK H PARENT
REMARK Flexibility Score:    8.900
ROOT
ATOM      1  C   UNL     1       2.671  -0.694   1.793  1.00  0.00     0.409 C 
ATOM      2  O   UNL     1       3.280  -1.751   2.074  1.00  0.00    -0.224 OA
ATOM      3  N   UNL     1       2.501  -0.297   0.459  1.00  0.00    -0.308 N 
ATOM      4  C   UNL     1       3.028  -1.109  -0.604  1.00  0.00     0.127 C 
ATOM      5  C   UNL     1       1.964  -1.458  -1.666  1.00  0.00     0.053 C 
ATOM      6  C   UNL     1       0.803  -0.517  -1.530  1.00  0.00    -0.057 C 
ATOM      7  C   UNL     1      -0.448  -0.860  -1.632  1.00  0.00     0.007 C 
ATOM      8  C   UNL     1       1.273   0.875  -1.269  1.00  0.00     0.053 C 
ATOM      9  C   UNL     1       1.788   0.938   0.168  1.00  0.00     0.127 C 
ENDROOT
BRANCH   1  10
ATOM     10  O   UNL     1       2.176   0.065   2.816  1.00  0.00    -0.450 OA
BRANCH  10  11
ATOM     11  C   UNL     1       2.303  -0.263   4.186  1.00  0.00     0.231 C 
ATOM     12  C   UNL     1       1.623   0.827   4.985  1.00  0.00     0.049 C 
ENDBRANCH  10  11
ENDBRANCH   1  10
BRANCH   7  13
ATOM     13  C   UNL     1      -0.819  -2.257  -1.926  1.00  0.00    -0.013 A 
ATOM     14  C   UNL     1      -0.026  -2.757  -2.930  1.00  0.00     0.010 A 
ATOM     15  C   UNL     1      -1.802  -2.974  -1.294  1.00  0.00    -0.038 A 
ATOM     16  C   UNL     1      -0.188  -4.058  -3.356  1.00  0.00     0.021 A 
ATOM     17  C   UNL     1      -1.960  -4.297  -1.734  1.00  0.00     0.024 A 
ATOM     18  C   UNL     1      -1.173  -4.819  -2.735  1.00  0.00     0.041 A 
ATOM     19  Cl  UNL     1      -1.374  -6.489  -3.287  1.00  0.00    -0.084 Cl
BRANCH  15  20
ATOM     20  C   UNL     1      -2.798  -2.660  -0.284  1.00  0.00     0.041 CG0
ATOM     21  G   UNL     1      -2.928  -1.319   0.269  1.00  0.00     0.000 G0
ENDBRANCH  15  20
ENDBRANCH   7  13
BRANCH   7  22
ATOM     22  C   UNL     1      -1.490   0.148  -1.297  1.00  0.00     0.074 A 
ATOM     23  N   UNL     1      -1.268   1.317  -1.886  1.00  0.00    -0.256 NA
ATOM     24  C   UNL     1      -2.568  -0.117  -0.470  1.00  0.00    -0.021 A 
ATOM     25  C   UNL     1      -2.102   2.355  -1.713  1.00  0.00     0.112 A 
ATOM     26  C   UNL     1      -3.457   0.953  -0.272  1.00  0.00     0.007 A 
ATOM     27  C   UNL     1      -3.201   2.145  -0.893  1.00  0.00     0.020 A 
BRANCH  24  28
ATOM     28  C   UNL     1      -2.928  -1.319   0.269  1.00  0.00     0.042 CG0
ATOM     29  G   UNL     1      -2.798  -2.660  -0.284  1.00  0.00     0.000 G0
ENDBRANCH  24  28
ENDBRANCH   7  22
TORSDOF 2
