REMARK SMILES O=c1c(Cl)c2oc3ccc([N+](=O)[O-])cc3nc-2c(Cl)c1Cl
REMARK SMILES IDX 1 1 2 2 3 3 4 4 5 5 6 6 7 7 8 8 9 9 10 10 14 11 15 12 16 13
REMARK SMILES IDX 17 14 18 15 19 16 20 17 21 18 11 19 12 20 13 21
REMARK H PARENT
ROOT
ATOM      1  O   UNL     1      -5.022   0.754   1.513  1.00  0.00    -0.286 OA
ATOM      2  C   UNL     1      -3.957   0.638   0.837  1.00  0.00     0.221 A 
ATOM      3  C   UNL     1      -2.775   0.323   1.497  1.00  0.00     0.134 A 
ATOM      4  Cl  UNL     1      -2.764   0.091   3.247  1.00  0.00    -0.076 Cl
ATOM      5  C   UNL     1      -1.588   0.186   0.806  1.00  0.00     0.177 A 
ATOM      6  O   UNL     1      -0.450  -0.107   1.367  1.00  0.00    -0.451 OA
ATOM      7  C   UNL     1       0.670  -0.234   0.695  1.00  0.00     0.153 A 
ATOM      8  C   UNL     1       1.857  -0.546   1.324  1.00  0.00     0.056 A 
ATOM      9  C   UNL     1       3.057  -0.691   0.676  1.00  0.00     0.089 A 
ATOM     10  C   UNL     1       3.059  -0.510  -0.706  1.00  0.00     0.271 A 
ATOM     11  C   UNL     1       1.904  -0.202  -1.357  1.00  0.00     0.117 A 
ATOM     12  C   UNL     1       0.711  -0.061  -0.684  1.00  0.00     0.113 A 
ATOM     13  N   UNL     1      -0.452   0.245  -1.309  1.00  0.00    -0.239 NA
ATOM     14  C   UNL     1      -1.611   0.379  -0.633  1.00  0.00     0.128 A 
ATOM     15  C   UNL     1      -2.807   0.689  -1.238  1.00  0.00     0.093 A 
ATOM     16  Cl  UNL     1      -2.839   0.921  -2.955  1.00  0.00    -0.080 Cl
ATOM     17  C   UNL     1      -3.988   0.823  -0.531  1.00  0.00     0.111 A 
ATOM     18  Cl  UNL     1      -5.508   1.220  -1.324  1.00  0.00    -0.078 Cl
ENDROOT
BRANCH  10  19
ATOM     19  N   UNL     1       4.260  -0.646  -1.429  1.00  0.00     0.062 N 
ATOM     20  O   UNL     1       4.267  -0.487  -2.651  1.00  0.00    -0.258 OA
ATOM     21  O   UNL     1       5.417  -0.954  -0.781  1.00  0.00    -0.258 OA
ENDBRANCH  10  19
TORSDOF 1
