REMARK SMILES COc1cccc(NS(=O)(=O)Cc2ccc(Cl)cc2)c1
REMARK SMILES IDX 9 1 10 2 11 3 8 4 7 6 3 7 4 8 20 9 5 10 6 11 2 12 1 13 12 14
REMARK SMILES IDX 13 15 14 16 19 17 15 18 18 19 16 20 17 21
REMARK H PARENT 8 5
ROOT
ATOM      1  S   UNL     1       2.205   0.069  -1.572  1.00  0.00     0.236 S 
ATOM      2  O   UNL     1       2.360   1.028  -2.725  1.00  0.00    -0.206 OA
ATOM      3  O   UNL     1       3.566  -0.446  -1.196  1.00  0.00    -0.206 OA
ENDROOT
BRANCH   1   4
ATOM      4  N   UNL     1       1.514   0.832  -0.204  1.00  0.00    -0.283 N 
ATOM      5  H   UNL     1       1.164   1.836  -0.229  1.00  0.00     0.180 HD
BRANCH   4   6
ATOM      6  C   UNL     1       1.391   0.128   1.014  1.00  0.00     0.052 A 
ATOM      7  C   UNL     1      -0.010  -0.453   2.920  1.00  0.00     0.120 A 
ATOM      8  C   UNL     1       1.009  -1.224   3.473  1.00  0.00     0.046 A 
ATOM      9  C   UNL     1       0.191   0.198   1.725  1.00  0.00     0.073 A 
ATOM     10  C   UNL     1       2.196  -1.305   2.789  1.00  0.00     0.006 A 
ATOM     11  C   UNL     1       2.377  -0.642   1.587  1.00  0.00     0.027 A 
BRANCH   7  12
ATOM     12  O   UNL     1      -1.220  -0.364   3.607  1.00  0.00    -0.497 OA
ATOM     13  C   UNL     1      -2.274   0.405   3.083  1.00  0.00     0.278 C 
ENDBRANCH   7  12
ENDBRANCH   4   6
ENDBRANCH   1   4
BRANCH   1  14
ATOM     14  C   UNL     1       1.217  -1.324  -2.014  1.00  0.00     0.195 C 
BRANCH  14  15
ATOM     15  C   UNL     1      -0.164  -1.017  -2.364  1.00  0.00    -0.031 A 
ATOM     16  C   UNL     1      -0.487  -0.701  -3.666  1.00  0.00     0.006 A 
ATOM     17  C   UNL     1      -1.186  -1.030  -1.452  1.00  0.00     0.006 A 
ATOM     18  C   UNL     1      -1.779  -0.405  -4.061  1.00  0.00     0.021 A 
ATOM     19  C   UNL     1      -2.501  -0.736  -1.820  1.00  0.00     0.021 A 
ATOM     20  C   UNL     1      -2.800  -0.424  -3.121  1.00  0.00     0.041 A 
ATOM     21  Cl  UNL     1      -4.444  -0.048  -3.622  1.00  0.00    -0.084 Cl
ENDBRANCH  14  15
ENDBRANCH   1  14
TORSDOF 5
