REMARK SMILES CCCCc1nnc2sc(/C=C/c3ccccc3)nn12
REMARK SMILES IDX 4 1 3 2 2 3 1 4 5 5 6 6 20 7 7 8 19 9 8 10 10 11 9 12 11 13
REMARK SMILES IDX 12 14 13 15 14 16 18 17 15 18 17 19 16 20
REMARK H PARENT
ROOT
ATOM      1  C   UNL     1       1.338  -2.359   2.994  1.00  0.00     0.079 C 
ENDROOT
BRANCH   1   2
ATOM      2  C   UNL     1       0.217  -1.893   3.858  1.00  0.00     0.008 C 
BRANCH   2   3
ATOM      3  C   UNL     1      -0.699  -0.910   3.167  1.00  0.00    -0.003 C 
ATOM      4  C   UNL     1      -1.794  -0.506   4.132  1.00  0.00     0.004 C 
ENDBRANCH   2   3
ENDBRANCH   1   2
BRANCH   1   5
ATOM      5  C   UNL     1       2.218  -1.271   2.527  1.00  0.00     0.155 A 
ATOM      6  N   UNL     1       3.308  -0.829   3.165  1.00  0.00    -0.132 NA
ATOM      7  N   UNL     1       2.064  -0.533   1.361  1.00  0.00    -0.187 N 
ATOM      8  N   UNL     1       3.861   0.172   2.445  1.00  0.00    -0.117 NA
ATOM      9  N   UNL     1       1.254  -0.472   0.363  1.00  0.00    -0.153 NA
ATOM     10  C   UNL     1       3.104   0.337   1.367  1.00  0.00     0.234 A 
ATOM     11  C   UNL     1       1.315   0.285  -0.585  1.00  0.00     0.140 A 
ATOM     12  S   UNL     1       2.770   1.219  -0.195  1.00  0.00    -0.073 S 
BRANCH  11  13
ATOM     13  C   UNL     1       0.531   0.557  -1.837  1.00  0.00     0.042 C 
ATOM     14  C   UNL     1      -0.525  -0.148  -2.083  1.00  0.00     0.011 C 
BRANCH  14  15
ATOM     15  C   UNL     1      -1.378   0.011  -3.262  1.00  0.00    -0.026 A 
ATOM     16  C   UNL     1      -1.139   0.945  -4.246  1.00  0.00     0.008 A 
ATOM     17  C   UNL     1      -2.487  -0.791  -3.438  1.00  0.00     0.008 A 
ATOM     18  C   UNL     1      -1.973   1.071  -5.358  1.00  0.00     0.001 A 
ATOM     19  C   UNL     1      -3.321  -0.678  -4.532  1.00  0.00     0.001 A 
ATOM     20  C   UNL     1      -3.073   0.257  -5.509  1.00  0.00     0.000 A 
ENDBRANCH  14  15
ENDBRANCH  11  13
ENDBRANCH   1   5
TORSDOF 5
