REMARK SMILES O=C(Nc1ccccc1Sc1ccc(Cl)cc1)c1cccnc1
REMARK SMILES IDX 4 1 5 2 6 3 7 4 8 5 9 6 3 7 1 8 2 9 18 11 19 12 23 13 20 14
REMARK SMILES IDX 22 15 21 16 10 17 11 18 12 19 17 20 13 21 16 22 14 23 15 24
REMARK H PARENT 3 10
ROOT
ATOM      1  C   UNL     1       1.054   0.645   1.317  1.00  0.00     0.055 A 
ATOM      2  C   UNL     1       1.140   1.847   1.990  1.00  0.00     0.027 A 
ATOM      3  C   UNL     1       2.066   2.820   1.688  1.00  0.00     0.002 A 
ATOM      4  C   UNL     1       2.931   2.526   0.648  1.00  0.00     0.001 A 
ATOM      5  C   UNL     1       2.866   1.338  -0.037  1.00  0.00     0.017 A 
ATOM      6  C   UNL     1       1.926   0.377   0.287  1.00  0.00     0.036 A 
ENDROOT
BRANCH   1   7
ATOM      7  N   UNL     1       0.085  -0.328   1.684  1.00  0.00    -0.321 N 
ATOM      8  O   UNL     1      -1.571   0.479   0.353  1.00  0.00    -0.269 OA
ATOM      9  C   UNL     1      -1.237  -0.399   1.187  1.00  0.00     0.257 C 
ATOM     10  H   UNL     1       0.375  -1.054   2.383  1.00  0.00     0.170 HD
BRANCH   9  11
ATOM     11  C   UNL     1      -2.203  -1.413   1.584  1.00  0.00     0.058 A 
ATOM     12  C   UNL     1      -1.948  -2.421   2.488  1.00  0.00     0.017 A 
ATOM     13  C   UNL     1      -3.466  -1.387   1.034  1.00  0.00     0.124 A 
ATOM     14  C   UNL     1      -2.934  -3.354   2.813  1.00  0.00     0.021 A 
ATOM     15  N   UNL     1      -4.410  -2.307   1.367  1.00  0.00    -0.264 NA
ATOM     16  C   UNL     1      -4.188  -3.301   2.245  1.00  0.00     0.111 A 
ENDBRANCH   9  11
ENDBRANCH   1   7
BRANCH   6  17
ATOM     17  S   UNL     1       1.866  -1.184  -0.613  1.00  0.00    -0.088 SA
BRANCH  17  18
ATOM     18  C   UNL     1       0.832  -0.991  -2.036  1.00  0.00     0.012 A 
ATOM     19  C   UNL     1       0.608  -2.075  -2.890  1.00  0.00     0.017 A 
ATOM     20  C   UNL     1       0.261   0.233  -2.292  1.00  0.00     0.017 A 
ATOM     21  C   UNL     1      -0.193  -1.896  -3.989  1.00  0.00     0.021 A 
ATOM     22  C   UNL     1      -0.533   0.411  -3.381  1.00  0.00     0.021 A 
ATOM     23  C   UNL     1      -0.751  -0.659  -4.219  1.00  0.00     0.041 A 
ATOM     24  Cl  UNL     1      -1.778  -0.419  -5.624  1.00  0.00    -0.084 Cl
ENDBRANCH  17  18
ENDBRANCH   6  17
TORSDOF 4
