REMARK SMILES O=C(CSc1ccccn1)[N-]N=Cc1cccc2ccccc12
REMARK SMILES IDX 1 1 2 2 3 3 4 4 5 5 6 6 10 7 7 8 9 9 8 10 11 11 12 12 13 13
REMARK SMILES IDX 14 14 15 15 23 16 16 17 22 18 18 19 17 20 21 21 19 22 20 23
REMARK H PARENT
ROOT
ATOM      1  O   UNL     1       1.223  -3.483  -3.032  1.00  0.00    -0.318 OA
ATOM      2  C   UNL     1       1.825  -2.427  -2.648  1.00  0.00     0.078 C 
ENDROOT
BRANCH   2   3
ATOM      3  C   UNL     1       3.238  -2.608  -2.279  1.00  0.00     0.132 C 
BRANCH   3   4
ATOM      4  S   UNL     1       4.085  -1.141  -1.726  1.00  0.00    -0.100 SA
BRANCH   4   5
ATOM      5  C   UNL     1       3.505  -0.496  -0.179  1.00  0.00     0.096 A 
ATOM      6  C   UNL     1       2.527   0.470  -0.185  1.00  0.00     0.035 A 
ATOM      7  N   UNL     1       3.990  -0.932   1.013  1.00  0.00    -0.250 NA
ATOM      8  C   UNL     1       2.024   1.010   0.976  1.00  0.00     0.004 A 
ATOM      9  C   UNL     1       3.501  -0.407   2.158  1.00  0.00     0.112 A 
ATOM     10  C   UNL     1       2.519   0.564   2.180  1.00  0.00     0.020 A 
ENDBRANCH   4   5
ENDBRANCH   3   4
ENDBRANCH   2   3
BRANCH   2  11
ATOM     11  N   UNL     1       1.091  -1.238  -2.620  1.00  0.00    -0.544 NA
BRANCH  11  12
ATOM     12  N   UNL     1       0.028  -0.963  -1.793  1.00  0.00    -0.372 NA
ATOM     13  C   UNL     1      -0.935  -0.192  -2.049  1.00  0.00     0.094 C 
BRANCH  13  14
ATOM     14  C   UNL     1      -2.090   0.173  -1.278  1.00  0.00    -0.001 A 
ATOM     15  C   UNL     1      -3.038   1.075  -1.806  1.00  0.00     0.010 A 
ATOM     16  C   UNL     1      -2.322  -0.326  -0.022  1.00  0.00    -0.010 A 
ATOM     17  C   UNL     1      -4.139   1.425  -1.075  1.00  0.00     0.001 A 
ATOM     18  C   UNL     1      -1.456  -1.205   0.566  1.00  0.00     0.009 A 
ATOM     19  C   UNL     1      -3.454   0.033   0.732  1.00  0.00    -0.018 A 
ATOM     20  C   UNL     1      -4.356   0.916   0.181  1.00  0.00     0.009 A 
ATOM     21  C   UNL     1      -1.678  -1.726   1.852  1.00  0.00     0.001 A 
ATOM     22  C   UNL     1      -3.703  -0.457   1.993  1.00  0.00     0.009 A 
ATOM     23  C   UNL     1      -2.807  -1.338   2.545  1.00  0.00     0.001 A 
ENDBRANCH  13  14
ENDBRANCH  11  12
ENDBRANCH   2  11
TORSDOF 6
