REMARK SMILES C=C1CC[C@H](O)C/C1=C/C=C1\CCC[C@]2(C)[C@@H]([C@H](C)CCCC(C)(C)O)CC[C@@H]12
REMARK SMILES IDX 20 1 18 2 19 3 17 4 10 5 11 6 12 7 29 8 13 9 28 10 15 11
REMARK SMILES IDX 14 12 27 13 16 14 9 15 1 16 2 17 3 18 8 19 4 20 7 21 5 22
REMARK SMILES IDX 6 23 21 25 22 26 23 27 24 28 25 29 26 30
REMARK H PARENT 6 24 26 31
ROOT
ATOM      1  C   UNL     1       0.420   1.769  -1.649  1.00  0.00     0.004 C 
ENDROOT
BRANCH   1   2
ATOM      2  C   UNL     1       0.976   1.138  -2.922  1.00  0.00    -0.011 C 
ATOM      3  C   UNL     1       1.974   2.224  -3.412  1.00  0.00     0.008 C 
BRANCH   2   4
ATOM      4  C   UNL     1       1.812  -0.068  -2.710  1.00  0.00    -0.002 C 
ATOM      5  C   UNL     1       1.099  -2.789   0.933  1.00  0.00    -0.000 C 
ATOM      6  C   UNL     1       1.357  -2.762  -0.365  1.00  0.00    -0.067 C 
ATOM      7  C   UNL     1       0.868  -3.911  -1.214  1.00  0.00     0.031 C 
ATOM      8  C   UNL     1       2.079  -1.760  -1.112  1.00  0.00     0.021 C 
ATOM      9  C   UNL     1       1.396  -3.821  -2.596  1.00  0.00     0.005 C 
ATOM     10  C   UNL     1       2.494  -0.505  -0.450  1.00  0.00     0.009 C 
ATOM     11  C   UNL     1       1.182  -1.325  -2.279  1.00  0.00    -0.023 C 
ATOM     12  C   UNL     1       1.366  -2.480  -3.264  1.00  0.00     0.008 C 
ATOM     13  C   UNL     1       2.925   0.276  -1.720  1.00  0.00     0.005 C 
ATOM     14  C   UNL     1      -0.267  -1.308  -1.961  1.00  0.00     0.012 C 
BRANCH   5  15
ATOM     15  C   UNL     1       0.362  -3.908   1.495  1.00  0.00     0.004 C 
ATOM     16  C   UNL     1       1.860  -2.618   3.561  1.00  0.00     0.013 C 
ATOM     17  C   UNL     1       0.601  -2.998   3.688  1.00  0.00    -0.052 C 
ATOM     18  C   UNL     1      -0.356  -2.424   4.693  1.00  0.00     0.038 C 
ATOM     19  C   UNL     1       0.097  -4.045   2.783  1.00  0.00    -0.043 C 
ATOM     20  C   UNL     1      -1.244  -3.540   5.233  1.00  0.00     0.037 C 
ATOM     21  C   UNL     1      -0.707  -5.131   3.389  1.00  0.00     0.067 C 
ATOM     22  C   UNL     1      -1.820  -4.412   4.167  1.00  0.00     0.119 C 
BRANCH  22  23
ATOM     23  O   UNL     1      -2.708  -5.308   4.732  1.00  0.00    -0.393 OA
ATOM     24  H   UNL     1      -3.633  -4.957   4.756  1.00  0.00     0.210 HD
ENDBRANCH  22  23
ENDBRANCH   5  15
ENDBRANCH   2   4
ENDBRANCH   1   2
BRANCH   1  25
ATOM     25  C   UNL     1      -0.428   2.993  -2.003  1.00  0.00     0.003 C 
BRANCH  25  26
ATOM     26  C   UNL     1      -0.927   3.539  -0.665  1.00  0.00     0.034 C 
BRANCH  26  27
ATOM     27  C   UNL     1      -1.789   4.767  -0.870  1.00  0.00     0.059 C 
ATOM     28  C   UNL     1      -1.031   5.873  -1.559  1.00  0.00     0.042 C 
ATOM     29  C   UNL     1      -3.044   4.446  -1.641  1.00  0.00     0.042 C 
BRANCH  27  30
ATOM     30  O   UNL     1      -2.168   5.200   0.407  1.00  0.00    -0.390 OA
ATOM     31  H   UNL     1      -3.137   5.118   0.556  1.00  0.00     0.211 HD
ENDBRANCH  27  30
ENDBRANCH  26  27
ENDBRANCH  25  26
ENDBRANCH   1  25
TORSDOF 8
