REMARK SMILES Cc1ccc2oc(-c3cccc(NC(=O)c4cncc(Br)c4)c3)nc2c1
REMARK SMILES IDX 8 1 9 2 10 3 11 4 12 5 23 6 7 7 2 8 3 9 26 10 4 11 25 12
REMARK SMILES IDX 5 13 24 14 6 15 1 16 13 17 14 18 15 19 16 21 17 22 22 23
REMARK SMILES IDX 18 24 20 25 19 26 21 27
REMARK H PARENT 13 20
ROOT
ATOM      1  C   UNL     1       0.928  -0.172   1.200  1.00  0.00     0.039 A 
ATOM      2  C   UNL     1       2.211  -0.049   1.682  1.00  0.00     0.014 A 
ATOM      3  C   UNL     1       3.275  -0.731   1.077  1.00  0.00     0.003 A 
ATOM      4  C   UNL     1       2.980  -1.522  -0.012  1.00  0.00     0.026 A 
ATOM      5  C   UNL     1       1.711  -1.677  -0.531  1.00  0.00     0.042 A 
ATOM      6  C   UNL     1       0.692  -0.976   0.110  1.00  0.00     0.039 A 
ENDROOT
BRANCH   1   7
ATOM      7  C   UNL     1      -0.129   0.566   1.881  1.00  0.00     0.227 A 
ATOM      8  C   UNL     1      -3.818   2.632   3.597  1.00  0.00    -0.049 A 
ATOM      9  C   UNL     1      -2.851   3.112   4.457  1.00  0.00     0.007 A 
ATOM     10  C   UNL     1      -3.424   1.772   2.595  1.00  0.00     0.035 A 
ATOM     11  C   UNL     1      -1.544   2.733   4.301  1.00  0.00     0.050 A 
ATOM     12  C   UNL     1      -2.115   1.377   2.419  1.00  0.00     0.110 A 
ATOM     13  C   UNL     1      -1.152   1.872   3.296  1.00  0.00     0.155 A 
ATOM     14  N   UNL     1      -1.451   0.581   1.566  1.00  0.00    -0.209 NA
ATOM     15  O   UNL     1      -0.011   1.351   2.917  1.00  0.00    -0.436 OA
ATOM     16  C   UNL     1      -5.230   3.056   3.784  1.00  0.00     0.044 C 
ENDBRANCH   1   7
BRANCH   5  17
ATOM     17  N   UNL     1       1.455  -2.504  -1.655  1.00  0.00    -0.322 N 
ATOM     18  C   UNL     1       1.502  -2.015  -2.977  1.00  0.00     0.257 C 
ATOM     19  O   UNL     1       1.786  -0.788  -3.123  1.00  0.00    -0.269 OA
ATOM     20  H   UNL     1       1.228  -3.496  -1.488  1.00  0.00     0.170 HD
BRANCH  18  21
ATOM     21  C   UNL     1       1.242  -2.847  -4.153  1.00  0.00     0.059 A 
ATOM     22  C   UNL     1       1.299  -2.324  -5.429  1.00  0.00     0.124 A 
ATOM     23  C   UNL     1       0.930  -4.180  -4.052  1.00  0.00     0.032 A 
ATOM     24  N   UNL     1       1.056  -3.101  -6.523  1.00  0.00    -0.263 NA
ATOM     25  C   UNL     1       0.682  -4.977  -5.148  1.00  0.00     0.037 A 
ATOM     26  C   UNL     1       0.751  -4.409  -6.399  1.00  0.00     0.126 A 
ATOM     27  Br  UNL     1       0.249  -6.825  -5.026  1.00  0.00    -0.049 Br
ENDBRANCH  18  21
ENDBRANCH   5  17
TORSDOF 3
