REMARK SMILES NC(=[NH+]OC(=O)COc1ccc(Cl)cc1)c1ccccn1
REMARK SMILES IDX 5 1 6 2 4 3 3 4 1 5 2 6 16 10 17 11 21 12 18 13 20 14 19 15
REMARK SMILES IDX 7 16 8 17 9 18 10 19 15 20 11 21 14 22 12 23 13 24
REMARK H PARENT 1 7 1 8 3 9
ROOT
ATOM      1  C   UNL     1       0.661  -0.073   1.741  1.00  0.00     0.394 C 
ATOM      2  O   UNL     1       0.562   1.062   1.224  1.00  0.00    -0.243 OA
ENDROOT
BRANCH   1   3
ATOM      3  O   UNL     1      -0.431  -0.559   2.438  1.00  0.00    -0.261 OA
BRANCH   3   4
ATOM      4  N   UNL     1      -1.589   0.161   2.569  1.00  0.00    -0.080 N 
ATOM      5  N   UNL     1      -3.785   0.720   1.913  1.00  0.00    -0.283 N 
ATOM      6  C   UNL     1      -2.585  -0.026   1.777  1.00  0.00     0.330 C 
ATOM      7  H   UNL     1      -4.682   0.202   2.010  1.00  0.00     0.302 HD
ATOM      8  H   UNL     1      -3.826   1.758   1.921  1.00  0.00     0.302 HD
ATOM      9  H   UNL     1      -1.628   0.863   3.333  1.00  0.00     0.363 HD
BRANCH   6  10
ATOM     10  C   UNL     1      -2.518  -1.015   0.707  1.00  0.00     0.155 A 
ATOM     11  C   UNL     1      -3.536  -1.251  -0.153  1.00  0.00     0.037 A 
ATOM     12  N   UNL     1      -1.383  -1.740   0.557  1.00  0.00    -0.248 NA
ATOM     13  C   UNL     1      -3.418  -2.200  -1.148  1.00  0.00     0.004 A 
ATOM     14  C   UNL     1      -1.228  -2.670  -0.396  1.00  0.00     0.112 A 
ATOM     15  C   UNL     1      -2.252  -2.924  -1.280  1.00  0.00     0.020 A 
ENDBRANCH   6  10
ENDBRANCH   3   4
ENDBRANCH   1   3
BRANCH   1  16
ATOM     16  C   UNL     1       1.919  -0.835   1.588  1.00  0.00     0.357 C 
BRANCH  16  17
ATOM     17  O   UNL     1       2.889  -0.207   0.823  1.00  0.00    -0.482 OA
BRANCH  17  18
ATOM     18  C   UNL     1       2.843   0.173  -0.487  1.00  0.00     0.120 A 
ATOM     19  C   UNL     1       3.960   0.801  -1.015  1.00  0.00     0.048 A 
ATOM     20  C   UNL     1       1.767  -0.024  -1.323  1.00  0.00     0.048 A 
ATOM     21  C   UNL     1       4.001   1.216  -2.322  1.00  0.00     0.024 A 
ATOM     22  C   UNL     1       1.810   0.393  -2.633  1.00  0.00     0.024 A 
ATOM     23  C   UNL     1       2.917   1.015  -3.153  1.00  0.00     0.041 A 
ATOM     24  Cl  UNL     1       3.034   1.565  -4.801  1.00  0.00    -0.084 Cl
ENDBRANCH  17  18
ENDBRANCH  16  17
ENDBRANCH   1  16
TORSDOF 6
