REMARK SMILES C=CCSc1ccccc1C(=O)Nc1c(C)cccc1C
REMARK SMILES IDX 5 1 6 2 7 3 8 4 9 5 10 6 4 7 3 8 2 9 1 10 11 11 12 12 13 13
REMARK SMILES IDX 14 15 15 16 20 17 17 18 19 19 18 20 16 21 21 22
REMARK H PARENT 13 14
ROOT
ATOM      1  C   UNL     1       1.466   1.023   1.541  1.00  0.00     0.020 A 
ATOM      2  C   UNL     1       2.365   1.676   2.374  1.00  0.00     0.016 A 
ATOM      3  C   UNL     1       3.690   1.296   2.422  1.00  0.00     0.001 A 
ATOM      4  C   UNL     1       4.087   0.252   1.618  1.00  0.00     0.001 A 
ATOM      5  C   UNL     1       3.188  -0.363   0.818  1.00  0.00     0.015 A 
ATOM      6  C   UNL     1       1.817  -0.014   0.732  1.00  0.00     0.053 A 
ENDROOT
BRANCH   1   7
ATOM      7  S   UNL     1      -0.206   1.559   1.500  1.00  0.00    -0.121 SA
BRANCH   7   8
ATOM      8  C   UNL     1      -1.236   0.653   2.642  1.00  0.00     0.101 C 
BRANCH   8   9
ATOM      9  C   UNL     1      -2.679   1.003   2.477  1.00  0.00    -0.024 C 
ATOM     10  C   UNL     1      -3.024   1.886   1.545  1.00  0.00     0.005 C 
ENDBRANCH   8   9
ENDBRANCH   7   8
ENDBRANCH   1   7
BRANCH   6  11
ATOM     11  C   UNL     1       1.022  -0.780  -0.152  1.00  0.00     0.256 C 
ATOM     12  O   UNL     1       1.546  -1.862  -0.665  1.00  0.00    -0.269 OA
ATOM     13  N   UNL     1      -0.300  -0.576  -0.602  1.00  0.00    -0.321 N 
ATOM     14  H   UNL     1      -0.765   0.259  -0.237  1.00  0.00     0.170 HD
BRANCH  13  15
ATOM     15  C   UNL     1      -0.968  -1.459  -1.515  1.00  0.00     0.047 A 
ATOM     16  C   UNL     1      -0.966  -1.165  -2.863  1.00  0.00    -0.027 A 
ATOM     17  C   UNL     1      -1.603  -2.587  -1.072  1.00  0.00    -0.027 A 
ATOM     18  C   UNL     1      -1.604  -2.008  -3.756  1.00  0.00     0.005 A 
ATOM     19  C   UNL     1      -2.232  -3.415  -1.967  1.00  0.00     0.005 A 
ATOM     20  C   UNL     1      -2.245  -3.143  -3.321  1.00  0.00     0.001 A 
ATOM     21  C   UNL     1      -0.294   0.058  -3.376  1.00  0.00     0.046 C 
ATOM     22  C   UNL     1      -1.614  -2.928   0.362  1.00  0.00     0.046 C 
ENDBRANCH  13  15
ENDBRANCH   6  11
TORSDOF 5
