REMARK SMILES CCc1cc(=O)oc2cc(OC)c(OC)cc12
REMARK SMILES IDX 3 1 4 2 5 3 6 4 7 5 8 6 9 7 10 8 13 9 16 10 17 11 2 12 1 13
REMARK SMILES IDX 14 14 15 15 11 16 12 17
REMARK H PARENT
ROOT
ATOM      1  C   UNL     1      -0.485   0.674   1.641  1.00  0.00    -0.030 A 
ATOM      2  C   UNL     1      -0.495   0.281   2.971  1.00  0.00     0.098 A 
ATOM      3  C   UNL     1      -0.033  -0.992   3.282  1.00  0.00     0.336 A 
ATOM      4  O   UNL     1      -0.052  -1.325   4.498  1.00  0.00    -0.246 OA
ATOM      5  O   UNL     1       0.399  -1.800   2.355  1.00  0.00    -0.423 OA
ATOM      6  C   UNL     1       0.432  -1.483   1.074  1.00  0.00     0.142 A 
ATOM      7  C   UNL     1       0.889  -2.347   0.113  1.00  0.00     0.098 A 
ATOM      8  C   UNL     1       0.931  -2.026  -1.248  1.00  0.00     0.164 A 
ATOM      9  C   UNL     1       0.475  -0.745  -1.623  1.00  0.00     0.161 A 
ATOM     10  C   UNL     1       0.023   0.099  -0.644  1.00  0.00     0.062 A 
ATOM     11  C   UNL     1      -0.017  -0.227   0.712  1.00  0.00     0.025 A 
ENDROOT
BRANCH   1  12
ATOM     12  C   UNL     1      -0.972   2.008   1.218  1.00  0.00     0.033 C 
ATOM     13  C   UNL     1      -2.337   2.004   0.622  1.00  0.00     0.009 C 
ENDBRANCH   1  12
BRANCH   9  14
ATOM     14  O   UNL     1       0.505  -0.400  -2.967  1.00  0.00    -0.493 OA
ATOM     15  C   UNL     1       0.092   0.819  -3.494  1.00  0.00     0.278 C 
ENDBRANCH   9  14
BRANCH   8  16
ATOM     16  O   UNL     1       1.370  -2.876  -2.113  1.00  0.00    -0.493 OA
ATOM     17  C   UNL     1       1.835  -3.834  -2.840  1.00  0.00     0.278 C 
ENDBRANCH   8  16
TORSDOF 3
