REMARK SMILES CC(C)C(=O)N1CCN(c2ccccc2)CC1
REMARK SMILES IDX 4 1 5 2 6 3 7 4 8 5 9 6 16 7 17 8 2 9 1 10 3 11 10 12 11 13
REMARK SMILES IDX 15 14 12 15 14 16 13 17
REMARK H PARENT
ROOT
ATOM      1  C   UNL     1      -1.472   1.085   1.813  1.00  0.00     0.225 C 
ATOM      2  O   UNL     1      -0.934   2.132   2.285  1.00  0.00    -0.275 OA
ATOM      3  N   UNL     1      -0.631  -0.015   1.592  1.00  0.00    -0.339 N 
ATOM      4  C   UNL     1       0.790   0.034   1.884  1.00  0.00     0.141 C 
ATOM      5  C   UNL     1       1.502   0.047   0.564  1.00  0.00     0.138 C 
ATOM      6  N   UNL     1       0.945  -0.946  -0.330  1.00  0.00    -0.368 N 
ATOM      7  C   UNL     1      -0.239  -1.696  -0.093  1.00  0.00     0.138 C 
ATOM      8  C   UNL     1      -1.080  -1.294   1.060  1.00  0.00     0.141 C 
ENDROOT
BRANCH   1   9
ATOM      9  C   UNL     1      -2.931   1.078   1.527  1.00  0.00     0.072 C 
ATOM     10  C   UNL     1      -3.252   0.825   0.090  1.00  0.00     0.018 C 
ATOM     11  C   UNL     1      -3.656   0.062   2.397  1.00  0.00     0.018 C 
ENDBRANCH   1   9
BRANCH   6  12
ATOM     12  C   UNL     1       1.657  -1.168  -1.538  1.00  0.00     0.037 A 
ATOM     13  C   UNL     1       1.209  -2.134  -2.403  1.00  0.00     0.026 A 
ATOM     14  C   UNL     1       2.782  -0.456  -1.886  1.00  0.00     0.026 A 
ATOM     15  C   UNL     1       1.868  -2.381  -3.584  1.00  0.00     0.002 A 
ATOM     16  C   UNL     1       3.454  -0.677  -3.046  1.00  0.00     0.002 A 
ATOM     17  C   UNL     1       2.995  -1.648  -3.905  1.00  0.00     0.000 A 
ENDBRANCH   6  12
TORSDOF 2
