REMARK SMILES N#CC1=C(N)SC(N)=C(C#N)C1c1cccnc1
REMARK SMILES IDX 1 1 2 2 3 3 4 4 6 5 7 6 9 7 10 8 11 9 12 10 5 11 13 14 14 15
REMARK SMILES IDX 18 16 15 17 17 18 16 19 8 20
REMARK H PARENT 5 12 5 13 8 21 8 22
ROOT
ATOM      1  N   UNL     1      -2.853   0.630  -1.444  1.00  0.00    -0.193 NA
ATOM      2  C   UNL     1      -1.980   0.707  -0.676  1.00  0.00     0.098 C 
ATOM      3  C   UNL     1      -0.870   0.828   0.286  1.00  0.00     0.072 C 
ATOM      4  C   UNL     1      -1.108   1.388   1.449  1.00  0.00     0.087 C 
ATOM      5  S   UNL     1       0.284   1.443   2.567  1.00  0.00    -0.053 SA
ATOM      6  C   UNL     1       1.051  -0.170   2.140  1.00  0.00     0.087 C 
ATOM      7  C   UNL     1       1.045  -0.537   0.867  1.00  0.00     0.072 C 
ATOM      8  C   UNL     1       1.660  -1.817   0.598  1.00  0.00     0.098 C 
ATOM      9  N   UNL     1       2.139  -2.858   0.379  1.00  0.00    -0.193 NA
ATOM     10  C   UNL     1       0.481   0.344  -0.110  1.00  0.00     0.108 C 
ENDROOT
BRANCH   4  11
ATOM     11  N   UNL     1      -2.350   1.870   1.806  1.00  0.00    -0.392 N 
ATOM     12  H   UNL     1      -2.550   2.660   2.460  1.00  0.00     0.157 HD
ATOM     13  H   UNL     1      -3.220   1.425   1.401  1.00  0.00     0.157 HD
ENDBRANCH   4  11
BRANCH  10  14
ATOM     14  C   UNL     1       0.369  -0.151  -1.484  1.00  0.00    -0.016 A 
ATOM     15  C   UNL     1      -0.367  -1.221  -1.882  1.00  0.00     0.008 A 
ATOM     16  C   UNL     1       1.083   0.536  -2.460  1.00  0.00     0.115 A 
ATOM     17  C   UNL     1      -0.383  -1.581  -3.195  1.00  0.00     0.020 A 
ATOM     18  N   UNL     1       1.057   0.169  -3.749  1.00  0.00    -0.264 NA
ATOM     19  C   UNL     1       0.340  -0.872  -4.133  1.00  0.00     0.111 A 
ENDBRANCH  10  14
BRANCH   6  20
ATOM     20  N   UNL     1       1.592  -0.900   3.208  1.00  0.00    -0.392 N 
ATOM     21  H   UNL     1       1.229  -1.857   3.447  1.00  0.00     0.157 HD
ATOM     22  H   UNL     1       2.360  -0.488   3.765  1.00  0.00     0.157 HD
ENDBRANCH   6  20
TORSDOF 3
