REMARK SMILES N#CC1=C(N)SC([NH3+])=C(C#N)C1c1cccnc1
REMARK SMILES IDX 1 1 2 2 3 3 4 4 6 5 7 6 9 7 10 8 11 9 12 10 5 11 13 14 14 15
REMARK SMILES IDX 18 16 15 17 17 18 16 19 8 20
REMARK H PARENT 5 12 5 13 8 21 8 22 8 23
ROOT
ATOM      1  N   UNL     1      -2.673   0.293  -1.991  1.00  0.00    -0.193 NA
ATOM      2  C   UNL     1      -2.033   0.301  -1.058  1.00  0.00     0.098 C 
ATOM      3  C   UNL     1      -1.221   0.331   0.150  1.00  0.00     0.073 C 
ATOM      4  C   UNL     1      -1.744   0.269   1.267  1.00  0.00     0.090 C 
ATOM      5  S   UNL     1      -0.567   0.161   2.685  1.00  0.00    -0.013 SA
ATOM      6  C   UNL     1       0.625  -1.001   1.938  1.00  0.00     0.183 C 
ATOM      7  C   UNL     1       0.947  -0.711   0.663  1.00  0.00     0.110 C 
ATOM      8  C   UNL     1       1.928  -1.667   0.148  1.00  0.00     0.103 C 
ATOM      9  N   UNL     1       2.721  -2.469  -0.276  1.00  0.00    -0.192 NA
ATOM     10  C   UNL     1       0.334   0.396  -0.018  1.00  0.00     0.112 C 
ENDROOT
BRANCH   4  11
ATOM     11  N   UNL     1      -3.097   0.155   1.637  1.00  0.00    -0.392 N 
ATOM     12  H   UNL     1      -3.283  -0.873   2.036  1.00  0.00     0.157 HD
ATOM     13  H   UNL     1      -3.817   0.793   1.616  1.00  0.00     0.157 HD
ENDBRANCH   4  11
BRANCH  10  14
ATOM     14  C   UNL     1       0.505   0.615  -1.441  1.00  0.00    -0.016 A 
ATOM     15  C   UNL     1       1.089  -0.122  -2.396  1.00  0.00     0.008 A 
ATOM     16  C   UNL     1      -0.074   1.863  -1.862  1.00  0.00     0.115 A 
ATOM     17  C   UNL     1       1.121   0.336  -3.731  1.00  0.00     0.020 A 
ATOM     18  N   UNL     1      -0.026   2.259  -3.128  1.00  0.00    -0.264 NA
ATOM     19  C   UNL     1       0.575   1.513  -4.108  1.00  0.00     0.111 A 
ENDBRANCH  10  14
BRANCH   6  20
ATOM     20  N   UNL     1       0.940  -2.131   2.646  1.00  0.00    -0.318 N 
ATOM     21  H   UNL     1       1.332  -2.946   2.111  1.00  0.00     0.351 HD
ATOM     22  H   UNL     1       1.476  -2.033   3.549  1.00  0.00     0.351 HD
ATOM     23  H   UNL     1      -0.048  -2.493   3.031  1.00  0.00     0.351 HD
ENDBRANCH   6  20
TORSDOF 3
