REMARK SMILES O=c1[n-]c(=O)n(CCOc2ccc(Cl)cc2)cc1Br
REMARK SMILES IDX 8 1 7 2 6 3 1 4 2 5 3 6 18 7 4 8 17 9 5 10 19 11 9 12 10 13
REMARK SMILES IDX 11 14 16 15 12 16 15 17 13 18 14 19
REMARK H PARENT
ROOT
ATOM      1  C   UNL     1       1.457   0.144   1.156  1.00  0.00     0.229 C 
ENDROOT
BRANCH   1   2
ATOM      2  C   UNL     1       0.447  -0.897   1.534  1.00  0.00     0.050 C 
BRANCH   2   3
ATOM      3  N   UNL     1      -0.877  -0.315   1.601  1.00  0.00    -0.412 N 
ATOM      4  O   UNL     1      -4.513   1.309   1.866  1.00  0.00    -0.293 OA
ATOM      5  C   UNL     1      -3.361   0.800   1.802  1.00  0.00     0.187 A 
ATOM      6  N   UNL     1      -2.535   0.742   2.839  1.00  0.00    -0.364 NA
ATOM      7  C   UNL     1      -2.942   0.280   0.594  1.00  0.00     0.058 A 
ATOM      8  C   UNL     1      -1.318   0.200   2.753  1.00  0.00     0.165 A 
ATOM      9  C   UNL     1      -1.678  -0.276   0.531  1.00  0.00     0.001 A 
ATOM     10  O   UNL     1      -0.596   0.187   3.797  1.00  0.00    -0.298 OA
ATOM     11  Br  UNL     1      -4.063   0.321  -0.946  1.00  0.00    -0.047 Br
ENDBRANCH   2   3
ENDBRANCH   1   2
BRANCH   1  12
ATOM     12  O   UNL     1       1.254   0.759  -0.057  1.00  0.00    -0.494 OA
BRANCH  12  13
ATOM     13  C   UNL     1       1.260   0.278  -1.332  1.00  0.00     0.119 A 
ATOM     14  C   UNL     1       1.518  -1.027  -1.684  1.00  0.00     0.048 A 
ATOM     15  C   UNL     1       0.985   1.143  -2.392  1.00  0.00     0.048 A 
ATOM     16  C   UNL     1       1.510  -1.481  -3.003  1.00  0.00     0.024 A 
ATOM     17  C   UNL     1       0.967   0.740  -3.697  1.00  0.00     0.024 A 
ATOM     18  C   UNL     1       1.232  -0.582  -3.999  1.00  0.00     0.041 A 
ATOM     19  Cl  UNL     1       1.218  -1.136  -5.671  1.00  0.00    -0.084 Cl
ENDBRANCH  12  13
ENDBRANCH   1  12
TORSDOF 4
