REMARK SMILES O=c1[nH]c(=O)n(CCOc2ccc(Cl)cc2)cc1Br
REMARK SMILES IDX 8 1 7 2 6 3 1 4 2 5 3 6 18 7 4 8 17 9 5 10 19 12 9 13 10 14
REMARK SMILES IDX 11 15 16 16 12 17 15 18 13 19 14 20
REMARK H PARENT 3 11
ROOT
ATOM      1  C   UNL     1       1.139   0.792   1.742  1.00  0.00     0.251 C 
ENDROOT
BRANCH   1   2
ATOM      2  C   UNL     1       0.488  -0.453   2.224  1.00  0.00     0.168 C 
BRANCH   2   3
ATOM      3  N   UNL     1      -0.572  -1.027   1.476  1.00  0.00    -0.296 N 
ATOM      4  O   UNL     1      -3.454  -2.700  -0.662  1.00  0.00    -0.268 OA
ATOM      5  C   UNL     1      -2.535  -2.178   0.008  1.00  0.00     0.267 A 
ATOM      6  N   UNL     1      -1.234  -2.529  -0.142  1.00  0.00    -0.273 N 
ATOM      7  C   UNL     1      -2.892  -1.212   0.927  1.00  0.00     0.099 A 
ATOM      8  C   UNL     1      -0.241  -1.979   0.567  1.00  0.00     0.328 A 
ATOM      9  C   UNL     1      -1.874  -0.644   1.658  1.00  0.00     0.112 A 
ATOM     10  O   UNL     1       0.951  -2.340   0.389  1.00  0.00    -0.248 OA
ATOM     11  H   UNL     1      -1.002  -3.275  -0.858  1.00  0.00     0.175 HD
ATOM     12  Br  UNL     1      -4.699  -0.666   1.195  1.00  0.00    -0.043 Br
ENDBRANCH   2   3
ENDBRANCH   1   2
BRANCH   1  13
ATOM     13  O   UNL     1       1.742   0.858   0.543  1.00  0.00    -0.492 OA
BRANCH  13  14
ATOM     14  C   UNL     1       1.435   0.805  -0.774  1.00  0.00     0.119 A 
ATOM     15  C   UNL     1       2.483   0.891  -1.726  1.00  0.00     0.048 A 
ATOM     16  C   UNL     1       0.182   0.677  -1.327  1.00  0.00     0.048 A 
ATOM     17  C   UNL     1       2.292   0.853  -3.066  1.00  0.00     0.024 A 
ATOM     18  C   UNL     1      -0.054   0.635  -2.683  1.00  0.00     0.024 A 
ATOM     19  C   UNL     1       1.009   0.723  -3.561  1.00  0.00     0.041 A 
ATOM     20  Cl  UNL     1       0.766   0.674  -5.282  1.00  0.00    -0.084 Cl
ENDBRANCH  13  14
ENDBRANCH   1  13
TORSDOF 4
