REMARK SMILES S=C(NCc1ccco1)Nc1ccccn1
REMARK SMILES IDX 1 1 2 2 3 3 10 4 4 7 5 8 6 9 9 10 7 11 8 12 11 13 12 14
REMARK SMILES IDX 16 15 13 16 15 17 14 18
REMARK H PARENT 3 5 10 6
ROOT
ATOM      1  S   UNL     1      -2.261   3.281   0.456  1.00  0.00    -0.041 S 
ATOM      2  C   UNL     1      -1.410   1.952  -0.108  1.00  0.00     0.172 C 
ATOM      3  N   UNL     1      -0.977   0.998   0.828  1.00  0.00    -0.355 N 
ATOM      4  N   UNL     1      -1.228   1.939  -1.500  1.00  0.00    -0.317 N 
ATOM      5  H   UNL     1      -1.222   1.209   1.854  1.00  0.00     0.163 HD
ATOM      6  H   UNL     1      -1.620   2.730  -2.093  1.00  0.00     0.170 HD
ENDROOT
BRANCH   3   7
ATOM      7  C   UNL     1      -0.249  -0.212   0.548  1.00  0.00     0.190 C 
BRANCH   7   8
ATOM      8  C   UNL     1       0.060  -0.950   1.821  1.00  0.00     0.122 A 
ATOM      9  C   UNL     1       1.191  -0.786   2.580  1.00  0.00     0.047 A 
ATOM     10  O   UNL     1      -0.677  -1.852   2.406  1.00  0.00    -0.467 OA
ATOM     11  C   UNL     1       1.086  -1.636   3.645  1.00  0.00     0.042 A 
ATOM     12  C   UNL     1      -0.124  -2.302   3.499  1.00  0.00     0.195 A 
ENDBRANCH   7   8
ENDBRANCH   3   7
BRANCH   4  13
ATOM     13  C   UNL     1      -0.538   0.944  -2.260  1.00  0.00     0.132 A 
ATOM     14  C   UNL     1       0.797   1.075  -2.571  1.00  0.00     0.047 A 
ATOM     15  N   UNL     1      -1.185  -0.154  -2.706  1.00  0.00    -0.239 NA
ATOM     16  C   UNL     1       1.453   0.121  -3.312  1.00  0.00     0.005 A 
ATOM     17  C   UNL     1      -0.597  -1.108  -3.428  1.00  0.00     0.113 A 
ATOM     18  C   UNL     1       0.734  -0.973  -3.736  1.00  0.00     0.020 A 
ENDBRANCH   4  13
TORSDOF 3
