REMARK SMILES Cc1cccnc1NC(=O)C(C)(C)Oc1ccc(C(C)(C)C)cc1
REMARK SMILES IDX 11 1 12 2 13 3 9 4 8 5 10 6 7 8 2 9 3 10 4 11 6 12 5 13 1 14
REMARK SMILES IDX 14 15 15 16 16 17 24 18 17 19 23 20 18 21 19 22 20 23 21 24
REMARK SMILES IDX 22 25
REMARK H PARENT 8 7
ROOT
ATOM      1  C   UNL     1      -0.585   1.036  -1.475  1.00  0.00     0.181 C 
ATOM      2  C   UNL     1      -2.049   0.625  -1.699  1.00  0.00     0.067 C 
ATOM      3  C   UNL     1      -0.441   2.359  -2.231  1.00  0.00     0.067 C 
ENDROOT
BRANCH   1   4
ATOM      4  C   UNL     1      -0.421   1.238  -0.022  1.00  0.00     0.269 C 
ATOM      5  N   UNL     1      -1.283   2.159   0.658  1.00  0.00    -0.307 N 
ATOM      6  O   UNL     1       0.424   0.671   0.710  1.00  0.00    -0.270 OA
ATOM      7  H   UNL     1      -1.996   2.645   0.073  1.00  0.00     0.171 HD
BRANCH   5   8
ATOM      8  C   UNL     1      -1.175   2.398   2.054  1.00  0.00     0.135 A 
ATOM      9  C   UNL     1      -0.341   3.400   2.493  1.00  0.00    -0.008 A 
ATOM     10  C   UNL     1      -0.187   3.690   3.849  1.00  0.00     0.009 A 
ATOM     11  C   UNL     1      -0.892   2.948   4.772  1.00  0.00     0.021 A 
ATOM     12  N   UNL     1      -1.854   1.687   2.971  1.00  0.00    -0.239 NA
ATOM     13  C   UNL     1      -1.719   1.952   4.300  1.00  0.00     0.113 A 
ATOM     14  C   UNL     1       0.409   4.187   1.508  1.00  0.00     0.048 C 
ENDBRANCH   5   8
ENDBRANCH   1   4
BRANCH   1  15
ATOM     15  O   UNL     1       0.281   0.132  -2.078  1.00  0.00    -0.478 OA
BRANCH  15  16
ATOM     16  C   UNL     1       0.466  -1.203  -1.833  1.00  0.00     0.120 A 
ATOM     17  C   UNL     1      -0.331  -2.167  -2.473  1.00  0.00     0.047 A 
ATOM     18  C   UNL     1       1.417  -1.698  -0.971  1.00  0.00     0.047 A 
ATOM     19  C   UNL     1      -0.163  -3.510  -2.246  1.00  0.00     0.008 A 
ATOM     20  C   UNL     1       1.578  -3.068  -0.747  1.00  0.00     0.008 A 
ATOM     21  C   UNL     1       0.790  -4.002  -1.381  1.00  0.00    -0.042 A 
BRANCH  21  22
ATOM     22  C   UNL     1       0.959  -5.450  -1.145  1.00  0.00    -0.013 C 
ATOM     23  C   UNL     1       2.076  -5.725  -0.149  1.00  0.00     0.016 C 
ATOM     24  C   UNL     1      -0.299  -6.064  -0.547  1.00  0.00     0.016 C 
ATOM     25  C   UNL     1       1.252  -6.212  -2.414  1.00  0.00     0.016 C 
ENDBRANCH  21  22
ENDBRANCH  15  16
ENDBRANCH   1  15
TORSDOF 5
