REMARK SMILES CCCCCOc1ccc(C=O)cc1OC
REMARK SMILES IDX 5 1 4 2 3 3 2 4 1 5 6 6 7 7 8 8 14 9 9 10 13 11 10 12 15 13
REMARK SMILES IDX 16 14 11 15 12 16
REMARK H PARENT
ROOT
ATOM      1  C   UNL     1       0.218  -0.234   2.493  1.00  0.00     0.230 C 
ENDROOT
BRANCH   1   2
ATOM      2  C   UNL     1      -0.423  -1.574   2.610  1.00  0.00     0.042 C 
BRANCH   2   3
ATOM      3  C   UNL     1      -1.859  -1.639   2.156  1.00  0.00     0.003 C 
BRANCH   3   4
ATOM      4  C   UNL     1      -2.058  -1.264   0.732  1.00  0.00    -0.003 C 
ATOM      5  C   UNL     1      -3.513  -1.372   0.303  1.00  0.00     0.004 C 
ENDBRANCH   3   4
ENDBRANCH   2   3
ENDBRANCH   1   2
BRANCH   1   6
ATOM      6  O   UNL     1       0.321   0.307   1.236  1.00  0.00    -0.490 OA
BRANCH   6   7
ATOM      7  C   UNL     1       0.979  -0.055   0.106  1.00  0.00     0.161 A 
ATOM      8  C   UNL     1       1.795  -1.154  -0.017  1.00  0.00     0.051 A 
ATOM      9  C   UNL     1       0.819   0.750  -1.036  1.00  0.00     0.161 A 
ATOM     10  C   UNL     1       2.420  -1.441  -1.210  1.00  0.00     0.015 A 
ATOM     11  C   UNL     1       1.432   0.474  -2.218  1.00  0.00     0.062 A 
ATOM     12  C   UNL     1       2.251  -0.642  -2.319  1.00  0.00     0.018 A 
BRANCH   9  13
ATOM     13  O   UNL     1      -0.007   1.873  -0.929  1.00  0.00    -0.493 OA
ATOM     14  C   UNL     1      -0.210   2.715  -2.023  1.00  0.00     0.278 C 
ENDBRANCH   9  13
BRANCH  12  15
ATOM     15  C   UNL     1       2.919  -0.962  -3.570  1.00  0.00     0.260 C 
ATOM     16  O   UNL     1       2.756  -0.230  -4.559  1.00  0.00    -0.298 OA
ENDBRANCH  12  15
ENDBRANCH   6   7
ENDBRANCH   1   6
TORSDOF 7
