REMARK SMILES C/C(=N/[NH+]=C(\N)S)C12CC3CC(CC(C3)C1)C2
REMARK SMILES IDX 4 1 5 2 6 3 3 7 2 8 1 9 8 10 17 11 16 12 9 13 12 14 14 15
REMARK SMILES IDX 10 16 11 17 13 18 15 19 7 20
REMARK H PARENT 4 4 6 5 6 6 7 21
ROOT
ATOM      1  N   UNL     1      -1.619  -0.716   2.513  1.00  0.00    -0.143 N 
ATOM      2  C   UNL     1      -1.019  -0.062   3.452  1.00  0.00     0.324 C 
ATOM      3  N   UNL     1      -0.942   1.350   3.446  1.00  0.00    -0.280 N 
ATOM      4  H   UNL     1      -1.635  -1.751   2.615  1.00  0.00     0.343 HD
ATOM      5  H   UNL     1      -1.845   1.881   3.569  1.00  0.00     0.302 HD
ATOM      6  H   UNL     1      -0.034   1.852   3.324  1.00  0.00     0.302 HD
ENDROOT
BRANCH   1   7
ATOM      7  N   UNL     1      -2.213  -0.116   1.462  1.00  0.00    -0.094 NA
ATOM      8  C   UNL     1      -1.884   0.008   0.256  1.00  0.00     0.064 C 
ATOM      9  C   UNL     1      -2.840   0.762  -0.601  1.00  0.00     0.066 C 
BRANCH   8  10
ATOM     10  C   UNL     1      -0.662  -0.525  -0.308  1.00  0.00     0.013 C 
ATOM     11  C   UNL     1       0.263  -1.282   0.538  1.00  0.00     0.016 C 
ATOM     12  C   UNL     1      -0.004   0.582  -1.122  1.00  0.00     0.016 C 
ATOM     13  C   UNL     1      -1.132  -1.521  -1.399  1.00  0.00     0.016 C 
ATOM     14  C   UNL     1       1.470  -1.750  -0.303  1.00  0.00    -0.010 C 
ATOM     15  C   UNL     1       1.179   0.057  -1.900  1.00  0.00    -0.010 C 
ATOM     16  C   UNL     1       0.026  -2.061  -2.197  1.00  0.00    -0.010 C 
ATOM     17  C   UNL     1       1.014  -2.756  -1.298  1.00  0.00     0.007 C 
ATOM     18  C   UNL     1       2.117  -0.537  -0.863  1.00  0.00     0.007 C 
ATOM     19  C   UNL     1       0.779  -0.964  -2.924  1.00  0.00     0.007 C 
ENDBRANCH   8  10
ENDBRANCH   1   7
BRANCH   2  20
ATOM     20  S   UNL     1      -0.275  -0.976   4.784  1.00  0.00    -0.054 SA
ATOM     21  H   UNL     1       1.040  -0.468   5.003  1.00  0.00     0.116 HD
ENDBRANCH   2  20
TORSDOF 3
