REMARK SMILES Cc1ccc(NCc2cccnc2)cc1C
REMARK SMILES IDX 6 1 5 3 2 4 3 5 15 6 4 7 14 8 1 9 16 10 7 11 8 12 9 13 13 14
REMARK SMILES IDX 10 15 12 16 11 17
REMARK H PARENT 6 2
ROOT
ATOM      1  N   UNL     1       0.793  -0.043   1.554  1.00  0.00    -0.381 N 
ATOM      2  H   UNL     1       1.218  -0.551   2.401  1.00  0.00     0.160 HD
ENDROOT
BRANCH   1   3
ATOM      3  C   UNL     1      -0.333  -0.636   0.995  1.00  0.00     0.035 A 
ATOM      4  C   UNL     1      -2.648  -1.827  -0.089  1.00  0.00    -0.048 A 
ATOM      5  C   UNL     1      -1.932  -2.420   0.921  1.00  0.00     0.006 A 
ATOM      6  C   UNL     1      -2.197  -0.614  -0.565  1.00  0.00    -0.046 A 
ATOM      7  C   UNL     1      -0.808  -1.876   1.471  1.00  0.00     0.026 A 
ATOM      8  C   UNL     1      -1.053  -0.052  -0.010  1.00  0.00     0.029 A 
ATOM      9  C   UNL     1      -3.861  -2.506  -0.619  1.00  0.00     0.044 C 
ATOM     10  C   UNL     1      -2.941   0.062  -1.656  1.00  0.00     0.044 C 
ENDBRANCH   1   3
BRANCH   1  11
ATOM     11  C   UNL     1       1.473   1.144   1.174  1.00  0.00     0.150 C 
BRANCH  11  12
ATOM     12  C   UNL     1       2.322   1.006  -0.056  1.00  0.00    -0.011 A 
ATOM     13  C   UNL     1       3.574   0.423   0.086  1.00  0.00     0.009 A 
ATOM     14  C   UNL     1       1.936   1.452  -1.296  1.00  0.00     0.116 A 
ATOM     15  C   UNL     1       4.374   0.312  -1.004  1.00  0.00     0.020 A 
ATOM     16  N   UNL     1       2.764   1.323  -2.362  1.00  0.00    -0.264 NA
ATOM     17  C   UNL     1       3.973   0.764  -2.245  1.00  0.00     0.111 A 
ENDBRANCH  11  12
ENDBRANCH   1  11
TORSDOF 3
