REMARK SMILES Cc1ccc(NS(=O)(=O)c2ccc([N+](=O)[O-])cc2)cc1F
REMARK SMILES IDX 7 1 8 2 9 3 6 4 5 6 2 7 3 8 20 9 4 10 19 11 1 12 21 13 10 14
REMARK SMILES IDX 11 15 18 16 12 17 17 18 13 19 14 20 15 21 16 22
REMARK H PARENT 6 5
ROOT
ATOM      1  S   UNL     1       2.492  -0.583   0.755  1.00  0.00     0.261 S 
ATOM      2  O   UNL     1       2.326  -1.893   1.456  1.00  0.00    -0.201 OA
ATOM      3  O   UNL     1       3.941  -0.136   0.849  1.00  0.00    -0.201 OA
ENDROOT
BRANCH   1   4
ATOM      4  N   UNL     1       1.509   0.591   1.534  1.00  0.00    -0.280 N 
ATOM      5  H   UNL     1       1.919   1.451   1.949  1.00  0.00     0.180 HD
BRANCH   4   6
ATOM      6  C   UNL     1       0.098   0.403   1.624  1.00  0.00     0.052 A 
ATOM      7  C   UNL     1      -2.696   0.113   1.783  1.00  0.00    -0.015 A 
ATOM      8  C   UNL     1      -1.866  -0.955   2.077  1.00  0.00     0.008 A 
ATOM      9  C   UNL     1      -2.140   1.319   1.411  1.00  0.00     0.128 A 
ATOM     10  C   UNL     1      -0.495  -0.785   1.991  1.00  0.00     0.027 A 
ATOM     11  C   UNL     1      -0.773   1.460   1.334  1.00  0.00     0.066 A 
ATOM     12  C   UNL     1      -4.169   0.005   1.852  1.00  0.00     0.047 C 
ATOM     13  F   UNL     1      -2.966   2.378   1.119  1.00  0.00    -0.207 F 
ENDBRANCH   4   6
ENDBRANCH   1   4
BRANCH   1  14
ATOM     14  C   UNL     1       2.021  -0.730  -0.921  1.00  0.00     0.088 A 
ATOM     15  C   UNL     1       2.582   0.037  -1.926  1.00  0.00     0.029 A 
ATOM     16  C   UNL     1       1.049  -1.643  -1.276  1.00  0.00     0.029 A 
ATOM     17  C   UNL     1       2.206  -0.081  -3.250  1.00  0.00     0.087 A 
ATOM     18  C   UNL     1       0.671  -1.762  -2.610  1.00  0.00     0.087 A 
ATOM     19  C   UNL     1       1.236  -0.994  -3.605  1.00  0.00     0.269 A 
BRANCH  19  20
ATOM     20  N   UNL     1       0.843  -1.123  -4.963  1.00  0.00     0.062 N 
ATOM     21  O   UNL     1       1.375  -0.411  -5.836  1.00  0.00    -0.258 OA
ATOM     22  O   UNL     1      -0.119  -2.019  -5.358  1.00  0.00    -0.258 OA
ENDBRANCH  19  20
ENDBRANCH   1  14
TORSDOF 4
