REMARK SMILES C=CCCCCCCCCCCCc1ccco1
REMARK SMILES IDX 8 1 7 2 6 3 5 4 4 5 3 6 2 7 1 8 9 9 10 10 11 11 12 12 13 13
REMARK SMILES IDX 14 14 15 15 18 16 16 17 17 18
REMARK H PARENT
ROOT
ATOM      1  C   UNL     1       1.217  -1.998   1.887  1.00  0.00     0.000 C 
ENDROOT
BRANCH   1   2
ATOM      2  C   UNL     1       0.716  -1.429   3.164  1.00  0.00     0.000 C 
BRANCH   2   3
ATOM      3  C   UNL     1       0.193  -0.047   3.122  1.00  0.00     0.000 C 
BRANCH   3   4
ATOM      4  C   UNL     1      -0.983   0.147   2.196  1.00  0.00     0.000 C 
BRANCH   4   5
ATOM      5  C   UNL     1      -2.158  -0.701   2.565  1.00  0.00     0.004 C 
BRANCH   5   6
ATOM      6  C   UNL     1      -3.329  -0.493   1.636  1.00  0.00     0.027 C 
BRANCH   6   7
ATOM      7  C   UNL     1      -2.901  -0.858   0.258  1.00  0.00    -0.035 C 
ATOM      8  C   UNL     1      -3.487  -1.833  -0.421  1.00  0.00     0.004 C 
ENDBRANCH   6   7
ENDBRANCH   5   6
ENDBRANCH   4   5
ENDBRANCH   3   4
ENDBRANCH   2   3
ENDBRANCH   1   2
BRANCH   1   9
ATOM      9  C   UNL     1       2.353  -1.241   1.276  1.00  0.00     0.000 C 
BRANCH   9  10
ATOM     10  C   UNL     1       2.779  -1.899   0.005  1.00  0.00     0.000 C 
BRANCH  10  11
ATOM     11  C   UNL     1       1.737  -1.991  -1.050  1.00  0.00     0.000 C 
BRANCH  11  12
ATOM     12  C   UNL     1       1.212  -0.648  -1.501  1.00  0.00     0.008 C 
BRANCH  12  13
ATOM     13  C   UNL     1       0.167  -0.928  -2.567  1.00  0.00     0.075 C 
BRANCH  13  14
ATOM     14  C   UNL     1      -0.420   0.338  -3.085  1.00  0.00     0.103 A 
ATOM     15  C   UNL     1      -0.137   1.622  -2.726  1.00  0.00     0.045 A 
ATOM     16  O   UNL     1      -1.345   0.353  -4.013  1.00  0.00    -0.469 OA
ATOM     17  C   UNL     1      -0.945   2.427  -3.491  1.00  0.00     0.042 A 
ATOM     18  C   UNL     1      -1.682   1.584  -4.281  1.00  0.00     0.195 A 
ENDBRANCH  13  14
ENDBRANCH  12  13
ENDBRANCH  11  12
ENDBRANCH  10  11
ENDBRANCH   9  10
ENDBRANCH   1   9
TORSDOF 12
