REMARK SMILES COc1cccc(C(=O)Nc2cccc(OC(C)C)c2)c1
REMARK SMILES IDX 11 1 12 2 13 3 14 4 15 5 20 6 10 7 8 8 9 9 7 11 3 12 4 13
REMARK SMILES IDX 21 14 5 15 6 16 2 17 1 18 16 19 17 20 18 21 19 22
REMARK H PARENT 10 10
ROOT
ATOM      1  C   UNL     1       0.544  -0.325  -1.406  1.00  0.00     0.045 A 
ATOM      2  C   UNL     1       1.387   0.061  -2.425  1.00  0.00     0.026 A 
ATOM      3  C   UNL     1       1.550  -0.729  -3.546  1.00  0.00     0.006 A 
ATOM      4  C   UNL     1       0.871  -1.920  -3.667  1.00  0.00     0.046 A 
ATOM      5  C   UNL     1      -0.002  -2.358  -2.653  1.00  0.00     0.121 A 
ATOM      6  C   UNL     1      -0.122  -1.540  -1.575  1.00  0.00     0.072 A 
ENDROOT
BRANCH   1   7
ATOM      7  N   UNL     1       0.361   0.473  -0.240  1.00  0.00    -0.322 N 
ATOM      8  C   UNL     1       1.130   0.376   0.938  1.00  0.00     0.255 C 
ATOM      9  O   UNL     1       2.048  -0.483   0.953  1.00  0.00    -0.269 OA
ATOM     10  H   UNL     1      -0.403   1.179  -0.270  1.00  0.00     0.170 HD
BRANCH   8  11
ATOM     11  C   UNL     1       0.928   1.201   2.123  1.00  0.00     0.043 A 
ATOM     12  C   UNL     1      -0.226   2.942   3.336  1.00  0.00     0.119 A 
ATOM     13  C   UNL     1       0.579   2.775   4.445  1.00  0.00     0.046 A 
ATOM     14  C   UNL     1      -0.048   2.170   2.208  1.00  0.00     0.060 A 
ATOM     15  C   UNL     1       1.560   1.810   4.375  1.00  0.00     0.005 A 
ATOM     16  C   UNL     1       1.724   1.048   3.241  1.00  0.00     0.014 A 
BRANCH  12  17
ATOM     17  O   UNL     1      -1.218   3.923   3.418  1.00  0.00    -0.497 OA
ATOM     18  C   UNL     1      -2.113   4.216   2.384  1.00  0.00     0.278 C 
ENDBRANCH  12  17
ENDBRANCH   8  11
ENDBRANCH   1   7
BRANCH   5  19
ATOM     19  O   UNL     1      -0.631  -3.561  -2.870  1.00  0.00    -0.491 OA
BRANCH  19  20
ATOM     20  C   UNL     1      -1.515  -4.094  -1.939  1.00  0.00     0.167 C 
ATOM     21  C   UNL     1      -2.892  -4.367  -2.525  1.00  0.00     0.052 C 
ATOM     22  C   UNL     1      -0.893  -5.412  -1.469  1.00  0.00     0.052 C 
ENDBRANCH  19  20
ENDBRANCH   5  19
TORSDOF 5
