REMARK SMILES CN(C)CCN(C)Cc1c2ccccc2c(CN(C)CC[NH+](C)C)c2ccccc12
REMARK SMILES IDX 9 1 10 2 11 3 12 4 13 5 14 6 15 7 16 8 25 9 26 10 27 11
REMARK SMILES IDX 28 12 29 13 30 14 8 15 6 16 7 17 5 18 4 19 2 20 1 21 3 22
REMARK SMILES IDX 17 23 18 24 19 25 20 26 21 27 22 28 23 29 24 30
REMARK H PARENT 22 31
ROOT
ATOM      1  C   UNL     1       0.466  -1.198   0.924  1.00  0.00    -0.018 A 
ATOM      2  C   UNL     1       1.771  -0.810   0.684  1.00  0.00    -0.013 A 
ATOM      3  C   UNL     1       2.711  -1.038   1.678  1.00  0.00     0.009 A 
ATOM      4  C   UNL     1       4.024  -0.678   1.435  1.00  0.00     0.001 A 
ATOM      5  C   UNL     1       4.408  -0.109   0.252  1.00  0.00     0.001 A 
ATOM      6  C   UNL     1       3.489   0.123  -0.733  1.00  0.00     0.009 A 
ATOM      7  C   UNL     1       2.164  -0.220  -0.530  1.00  0.00    -0.013 A 
ATOM      8  C   UNL     1       1.255  -0.008  -1.523  1.00  0.00    -0.018 A 
ATOM      9  C   UNL     1      -0.075  -0.388  -1.320  1.00  0.00    -0.013 A 
ATOM     10  C   UNL     1      -1.007  -0.186  -2.328  1.00  0.00     0.009 A 
ATOM     11  C   UNL     1      -2.348  -0.565  -2.157  1.00  0.00     0.001 A 
ATOM     12  C   UNL     1      -2.682  -1.133  -0.970  1.00  0.00     0.001 A 
ATOM     13  C   UNL     1      -1.737  -1.337   0.046  1.00  0.00     0.009 A 
ATOM     14  C   UNL     1      -0.440  -0.967  -0.122  1.00  0.00    -0.013 A 
ENDROOT
BRANCH   1  15
ATOM     15  C   UNL     1       0.035  -1.869   2.179  1.00  0.00     0.121 C 
BRANCH  15  16
ATOM     16  N   UNL     1       0.185  -3.279   2.199  1.00  0.00    -0.301 NA
ATOM     17  C   UNL     1       1.321  -3.853   1.581  1.00  0.00     0.105 C 
BRANCH  16  18
ATOM     18  C   UNL     1      -0.164  -3.854   3.448  1.00  0.00     0.100 C 
BRANCH  18  19
ATOM     19  C   UNL     1      -1.468  -3.355   4.029  1.00  0.00     0.099 C 
BRANCH  19  20
ATOM     20  N   UNL     1      -1.752  -3.985   5.304  1.00  0.00    -0.308 NA
ATOM     21  C   UNL     1      -0.803  -3.501   6.287  1.00  0.00     0.105 C 
ATOM     22  C   UNL     1      -3.094  -3.641   5.702  1.00  0.00     0.105 C 
ENDBRANCH  19  20
ENDBRANCH  18  19
ENDBRANCH  16  18
ENDBRANCH  15  16
ENDBRANCH   1  15
BRANCH   8  23
ATOM     23  C   UNL     1       1.556   0.691  -2.781  1.00  0.00     0.121 C 
BRANCH  23  24
ATOM     24  N   UNL     1       1.260   2.072  -2.676  1.00  0.00    -0.297 NA
ATOM     25  C   UNL     1       1.885   2.722  -1.579  1.00  0.00     0.105 C 
BRANCH  24  26
ATOM     26  C   UNL     1       1.224   2.830  -3.876  1.00  0.00     0.146 C 
BRANCH  26  27
ATOM     27  C   UNL     1       0.091   2.576  -4.807  1.00  0.00     0.277 C 
BRANCH  27  28
ATOM     28  N   UNL     1      -1.203   2.866  -4.217  1.00  0.00    -0.339 N 
ATOM     29  C   UNL     1      -1.516   4.298  -4.279  1.00  0.00     0.332 C 
ATOM     30  C   UNL     1      -2.215   2.169  -4.989  1.00  0.00     0.332 C 
ATOM     31  H   UNL     1      -1.263   2.552  -3.223  1.00  0.00     0.347 HD
ENDBRANCH  27  28
ENDBRANCH  26  27
ENDBRANCH  24  26
ENDBRANCH  23  24
ENDBRANCH   8  23
TORSDOF 10
