REMARK SMILES CN(C)CCN(C)Cc1c2ccccc2c(CN(C)CCN(C)C)c2ccccc12
REMARK SMILES IDX 9 1 10 2 11 3 12 4 13 5 14 6 15 7 16 8 25 9 26 10 27 11
REMARK SMILES IDX 28 12 29 13 30 14 8 15 6 16 7 17 5 18 4 19 2 20 1 21 3 22
REMARK SMILES IDX 17 23 18 24 19 25 20 26 21 27 22 28 23 29 24 30
REMARK H PARENT
ROOT
ATOM      1  C   UNL     1       1.174  -2.550   0.149  1.00  0.00    -0.018 A 
ATOM      2  C   UNL     1       2.297  -1.839  -0.178  1.00  0.00    -0.013 A 
ATOM      3  C   UNL     1       3.543  -2.140   0.355  1.00  0.00     0.009 A 
ATOM      4  C   UNL     1       4.692  -1.462  -0.013  1.00  0.00     0.001 A 
ATOM      5  C   UNL     1       4.599  -0.452  -0.941  1.00  0.00     0.001 A 
ATOM      6  C   UNL     1       3.355  -0.154  -1.468  1.00  0.00     0.009 A 
ATOM      7  C   UNL     1       2.180  -0.807  -1.123  1.00  0.00    -0.013 A 
ATOM      8  C   UNL     1       0.968  -0.513  -1.704  1.00  0.00    -0.018 A 
ATOM      9  C   UNL     1      -0.160  -1.269  -1.340  1.00  0.00    -0.013 A 
ATOM     10  C   UNL     1      -1.374  -0.962  -1.904  1.00  0.00     0.009 A 
ATOM     11  C   UNL     1      -2.514  -1.696  -1.533  1.00  0.00     0.001 A 
ATOM     12  C   UNL     1      -2.394  -2.703  -0.614  1.00  0.00     0.001 A 
ATOM     13  C   UNL     1      -1.182  -3.028  -0.031  1.00  0.00     0.009 A 
ATOM     14  C   UNL     1      -0.057  -2.283  -0.418  1.00  0.00    -0.013 A 
ENDROOT
BRANCH   1  15
ATOM     15  C   UNL     1       1.254  -3.599   1.195  1.00  0.00     0.121 C 
BRANCH  15  16
ATOM     16  N   UNL     1       0.902  -3.214   2.476  1.00  0.00    -0.301 NA
ATOM     17  C   UNL     1       1.000  -4.277   3.432  1.00  0.00     0.105 C 
BRANCH  16  18
ATOM     18  C   UNL     1       1.147  -1.967   3.035  1.00  0.00     0.100 C 
BRANCH  18  19
ATOM     19  C   UNL     1      -0.055  -1.652   3.970  1.00  0.00     0.099 C 
BRANCH  19  20
ATOM     20  N   UNL     1      -1.271  -1.689   3.284  1.00  0.00    -0.308 NA
ATOM     21  C   UNL     1      -1.524  -0.650   2.369  1.00  0.00     0.105 C 
ATOM     22  C   UNL     1      -2.412  -2.234   3.932  1.00  0.00     0.105 C 
ENDBRANCH  19  20
ENDBRANCH  18  19
ENDBRANCH  16  18
ENDBRANCH  15  16
ENDBRANCH   1  15
BRANCH   8  23
ATOM     23  C   UNL     1       0.810   0.655  -2.603  1.00  0.00     0.121 C 
BRANCH  23  24
ATOM     24  N   UNL     1       0.457   1.821  -1.882  1.00  0.00    -0.301 NA
ATOM     25  C   UNL     1       1.378   2.177  -0.854  1.00  0.00     0.105 C 
BRANCH  24  26
ATOM     26  C   UNL     1       0.224   2.985  -2.677  1.00  0.00     0.100 C 
BRANCH  26  27
ATOM     27  C   UNL     1      -0.988   2.893  -3.551  1.00  0.00     0.099 C 
BRANCH  27  28
ATOM     28  N   UNL     1      -2.223   2.654  -2.896  1.00  0.00    -0.308 NA
ATOM     29  C   UNL     1      -2.750   3.673  -2.060  1.00  0.00     0.105 C 
ATOM     30  C   UNL     1      -3.198   1.997  -3.714  1.00  0.00     0.105 C 
ENDBRANCH  27  28
ENDBRANCH  26  27
ENDBRANCH  24  26
ENDBRANCH  23  24
ENDBRANCH   8  23
TORSDOF 10
