REMARK SMILES CC(C)[Si]1(C(C)C)OCC2O[C@@H](n3ccc(N)nc3=O)C(O)C2O[Si](C(C)C)(C(C)C)O1
REMARK SMILES IDX 25 1 32 2 4 3 2 4 1 5 3 6 5 7 6 8 7 9 8 10 9 11 24 13 23 14
REMARK SMILES IDX 21 15 10 16 12 17 11 18 22 20 13 22 14 23 19 24 15 25 18 26
REMARK SMILES IDX 20 27 16 28 17 29 26 32 27 33 28 34 29 35 30 36 31 37
REMARK H PARENT 22 21 17 30 17 31
REMARK Flexibility Score:   73.900
ROOT
ATOM      1  Si  UNL     1       0.739  -2.241  -0.750  1.00  0.00     0.335 Si
ENDROOT
BRANCH   1   2
ATOM      2  O   UNL     1       0.619  -1.802   0.841  1.00  0.00    -0.414 OA
BRANCH   2   3
ATOM      3  Si  UNL     1      -0.854  -1.435   1.507  1.00  0.00     0.334 Si
BRANCH   3   4
ATOM      4  C   UNL     1      -1.827  -2.971   2.025  1.00  0.00     0.028 C 
ATOM      5  C   UNL     1      -3.094  -2.591   2.723  1.00  0.00     0.009 C 
ATOM      6  C   UNL     1      -0.981  -3.952   2.748  1.00  0.00     0.009 C 
ENDBRANCH   3   4
BRANCH   3   7
ATOM      7  C   UNL     1      -0.569  -0.314   2.977  1.00  0.00     0.028 C 
ATOM      8  C   UNL     1      -1.147  -0.892   4.248  1.00  0.00     0.009 C 
ATOM      9  C   UNL     1       0.916  -0.108   3.238  1.00  0.00     0.009 C 
ENDBRANCH   3   7
BRANCH   3  10
ATOM     10  O   UNL     1      -1.930  -0.608   0.446  1.00  0.00    -0.392 OA
BRANCH  10  11
ATOM     11  C   UNL     1      -1.500   0.673   0.163  1.00  0.00     0.182 CG0
ATOM     12  G   UNL     1      -1.080   0.650  -1.313  1.00  0.00     0.000 G0
ENDBRANCH  10  11
ENDBRANCH   3  10
ENDBRANCH   2   3
ENDBRANCH   1   2
BRANCH   1  13
ATOM     13  O   UNL     1       0.461  -1.005  -1.883  1.00  0.00    -0.386 OA
BRANCH  13  14
ATOM     14  C   UNL     1       0.352   0.248  -1.342  1.00  0.00     0.171 C 
ATOM     15  C   UNL     1       1.027   1.324  -2.149  1.00  0.00     0.195 C 
ATOM     16  C   UNL     1      -1.080   0.650  -1.313  1.00  0.00     0.176 CG0
ATOM     17  C   UNL     1      -0.114   2.149  -2.662  1.00  0.00     0.255 C 
ATOM     18  O   UNL     1      -1.206   1.906  -1.854  1.00  0.00    -0.347 OA
ATOM     19  G   UNL     1      -1.500   0.673   0.163  1.00  0.00     0.000 G0
BRANCH  15  20
ATOM     20  O   UNL     1       1.831   2.155  -1.342  1.00  0.00    -0.386 OA
ATOM     21  H   UNL     1       2.618   1.637  -1.030  1.00  0.00     0.211 HD
ENDBRANCH  15  20
BRANCH  17  22
ATOM     22  N   UNL     1       0.155   3.573  -2.611  1.00  0.00    -0.270 N 
ATOM     23  C   UNL     1       0.132   4.280  -1.468  1.00  0.00     0.097 A 
ATOM     24  C   UNL     1       0.443   4.258  -3.732  1.00  0.00     0.351 A 
ATOM     25  C   UNL     1       0.389   5.637  -1.424  1.00  0.00     0.065 A 
ATOM     26  N   UNL     1       0.699   5.586  -3.723  1.00  0.00    -0.176 NA
ATOM     27  O   UNL     1       0.473   3.629  -4.819  1.00  0.00    -0.246 OA
ATOM     28  C   UNL     1       0.682   6.310  -2.590  1.00  0.00     0.130 A 
BRANCH  28  29
ATOM     29  N   UNL     1       0.957   7.724  -2.600  1.00  0.00    -0.383 N 
ATOM     30  H   UNL     1       1.811   8.132  -2.181  1.00  0.00     0.158 HD
ATOM     31  H   UNL     1       0.283   8.400  -3.044  1.00  0.00     0.158 HD
ENDBRANCH  28  29
ENDBRANCH  17  22
ENDBRANCH  13  14
ENDBRANCH   1  13
BRANCH   1  32
ATOM     32  C   UNL     1      -0.270  -3.741  -1.223  1.00  0.00     0.028 C 
ATOM     33  C   UNL     1      -1.561  -3.335  -1.897  1.00  0.00     0.009 C 
ATOM     34  C   UNL     1       0.493  -4.591  -2.236  1.00  0.00     0.009 C 
ENDBRANCH   1  32
BRANCH   1  35
ATOM     35  C   UNL     1       2.544  -2.755  -1.010  1.00  0.00     0.028 C 
ATOM     36  C   UNL     1       2.882  -3.922  -0.103  1.00  0.00     0.009 C 
ATOM     37  C   UNL     1       3.384  -1.573  -0.532  1.00  0.00     0.009 C 
ENDBRANCH   1  35
TORSDOF 7
