REMARK SMILES Cc1ccc(N2C(=O)CC(Sc3ccccc3C(=O)[O-])C2=O)c(C)c1
REMARK SMILES IDX 11 1 10 2 6 3 7 4 21 5 8 6 9 7 22 8 5 9 2 10 3 11 25 12 4 13
REMARK SMILES IDX 23 14 1 15 24 16 12 17 13 18 17 19 14 20 16 21 15 22 18 23
REMARK SMILES IDX 19 24 20 25
REMARK H PARENT
ROOT
ATOM      1  S   UNL     1       3.012  -1.829   0.477  1.00  0.00    -0.111 SA
ENDROOT
BRANCH   1   2
ATOM      2  C   UNL     1       2.494  -0.963   1.988  1.00  0.00     0.151 C 
ATOM      3  N   UNL     1       0.264  -0.309   1.987  1.00  0.00    -0.249 N 
ATOM      4  C   UNL     1       1.038   0.859   2.269  1.00  0.00     0.235 C 
ATOM      5  C   UNL     1       1.114  -1.415   2.381  1.00  0.00     0.247 C 
ATOM      6  O   UNL     1       0.619   1.953   2.741  1.00  0.00    -0.274 OA
ATOM      7  C   UNL     1       2.462   0.514   1.887  1.00  0.00     0.126 C 
ATOM      8  O   UNL     1       0.802  -2.501   2.922  1.00  0.00    -0.273 OA
BRANCH   3   9
ATOM      9  C   UNL     1      -1.016  -0.467   1.411  1.00  0.00     0.055 A 
ATOM     10  C   UNL     1      -3.553  -0.827   0.198  1.00  0.00    -0.051 A 
ATOM     11  C   UNL     1      -2.998  -1.798   0.993  1.00  0.00     0.005 A 
ATOM     12  C   UNL     1      -2.835   0.324   0.011  1.00  0.00     0.009 A 
ATOM     13  C   UNL     1      -1.768  -1.632   1.586  1.00  0.00     0.027 A 
ATOM     14  C   UNL     1      -1.590   0.486   0.613  1.00  0.00    -0.027 A 
ATOM     15  C   UNL     1      -4.895  -1.011  -0.451  1.00  0.00     0.044 C 
ATOM     16  C   UNL     1      -0.918   1.788   0.266  1.00  0.00     0.046 C 
ENDBRANCH   3   9
ENDBRANCH   1   2
BRANCH   1  17
ATOM     17  C   UNL     1       1.813  -1.609  -0.829  1.00  0.00     0.017 A 
ATOM     18  C   UNL     1       0.691  -2.421  -0.805  1.00  0.00     0.016 A 
ATOM     19  C   UNL     1       2.046  -0.650  -1.783  1.00  0.00     0.011 A 
ATOM     20  C   UNL     1      -0.245  -2.252  -1.796  1.00  0.00     0.001 A 
ATOM     21  C   UNL     1       1.056  -0.521  -2.768  1.00  0.00     0.011 A 
ATOM     22  C   UNL     1      -0.075  -1.306  -2.782  1.00  0.00     0.001 A 
BRANCH  19  23
ATOM     23  C   UNL     1       3.233   0.177  -1.870  1.00  0.00     0.073 C 
ATOM     24  O   UNL     1       4.160   0.016  -1.056  1.00  0.00    -0.545 OA
ATOM     25  O   UNL     1       3.330   1.130  -2.848  1.00  0.00    -0.545 OA
ENDBRANCH  19  23
ENDBRANCH   1  17
TORSDOF 4
