REMARK SMILES C=C1C(=O)O[C@@H]2C3OC3(C)CC/C=C(\C)CC[C@@H]12
REMARK SMILES IDX 1 1 2 2 3 3 4 4 5 5 6 6 18 7 17 8 16 9 14 10 13 11 15 12
REMARK SMILES IDX 7 14 8 15 9 16 10 17 11 18 12 19
REMARK H PARENT
REMARK Flexibility Score:   17.900
ROOT
ATOM      1  C   UNL     1      -3.210   1.044   2.174  1.00  0.00     0.021 C 
ATOM      2  C   UNL     1      -2.233   0.199   1.921  1.00  0.00     0.037 C 
ATOM      3  C   UNL     1      -1.563  -0.696   2.851  1.00  0.00     0.334 C 
ATOM      4  O   UNL     1      -2.074  -1.188   3.908  1.00  0.00    -0.247 OA
ATOM      5  O   UNL     1      -0.291  -0.899   2.369  1.00  0.00    -0.455 OA
ATOM      6  C   UNL     1      -0.246  -0.641   0.934  1.00  0.00     0.216 C 
ATOM      7  C   UNL     1      -1.561  -0.062   0.608  1.00  0.00     0.070 C 
ENDROOT
BRANCH   7   8
ATOM      8  C   UNL     1      -2.484  -0.892  -0.261  1.00  0.00     0.017 C 
BRANCH   8   9
ATOM      9  C   UNL     1      -2.095  -0.704  -1.731  1.00  0.00     0.031 C 
BRANCH   9  10
ATOM     10  C   UNL     1      -0.737  -1.353  -1.929  1.00  0.00    -0.077 C 
ATOM     11  C   UNL     1       0.247  -0.523  -2.123  1.00  0.00    -0.028 CG0
ATOM     12  C   UNL     1      -0.687  -2.826  -1.824  1.00  0.00     0.039 C 
ATOM     13  G   UNL     1       1.666  -0.963  -2.259  1.00  0.00     0.000 G0
ENDBRANCH   9  10
ENDBRANCH   8   9
ENDBRANCH   7   8
BRANCH   6  14
ATOM     14  C   UNL     1       0.892   0.324   0.752  1.00  0.00     0.192 C 
ATOM     15  O   UNL     1       1.101   1.002  -0.430  1.00  0.00    -0.362 OA
ATOM     16  C   UNL     1       2.070   0.012   0.065  1.00  0.00     0.096 C 
ATOM     17  C   UNL     1       3.364   0.700   0.572  1.00  0.00     0.045 C 
BRANCH  16  18
ATOM     18  C   UNL     1       2.236  -1.131  -0.826  1.00  0.00     0.042 C 
BRANCH  18  19
ATOM     19  C   UNL     1       1.666  -0.963  -2.259  1.00  0.00     0.030 CG0
ATOM     20  G   UNL     1       0.247  -0.523  -2.123  1.00  0.00     0.000 G0
ENDBRANCH  18  19
ENDBRANCH  16  18
ENDBRANCH   6  14
TORSDOF 0
