REMARK SMILES C=C1C(=O)OC2C1CCC(C)=CCCC1(C)OC21
REMARK SMILES IDX 1 1 2 2 3 3 4 4 5 5 6 6 7 7 8 8 9 9 10 10 12 11 11 12 18 14
REMARK SMILES IDX 17 15 15 16 16 17 14 18 13 19
REMARK H PARENT
REMARK Flexibility Score:   17.900
ROOT
ATOM      1  C   UNL     1      -0.433   0.295   3.655  1.00  0.00     0.021 C 
ATOM      2  C   UNL     1      -0.067   0.770   2.506  1.00  0.00     0.037 C 
ATOM      3  C   UNL     1       1.084   1.600   2.204  1.00  0.00     0.334 C 
ATOM      4  O   UNL     1       1.655   2.447   2.893  1.00  0.00    -0.247 OA
ATOM      5  O   UNL     1       1.478   1.249   0.890  1.00  0.00    -0.455 OA
ATOM      6  C   UNL     1       0.217   1.046   0.169  1.00  0.00     0.216 C 
ATOM      7  C   UNL     1      -0.773   0.647   1.160  1.00  0.00     0.070 C 
ENDROOT
BRANCH   7   8
ATOM      8  C   UNL     1      -1.673  -0.487   1.265  1.00  0.00     0.017 C 
BRANCH   8   9
ATOM      9  C   UNL     1      -1.146  -1.874   1.501  1.00  0.00     0.031 C 
BRANCH   9  10
ATOM     10  C   UNL     1      -0.509  -2.461   0.290  1.00  0.00    -0.077 C 
ATOM     11  C   UNL     1      -0.616  -1.882  -0.898  1.00  0.00    -0.028 CG0
ATOM     12  C   UNL     1       0.247  -3.702   0.264  1.00  0.00     0.039 C 
ATOM     13  G   UNL     1      -0.080  -2.209  -2.208  1.00  0.00     0.000 G0
ENDBRANCH   9  10
ENDBRANCH   8   9
ENDBRANCH   7   8
BRANCH   6  14
ATOM     14  C   UNL     1       0.417   0.237  -1.058  1.00  0.00     0.192 C 
ATOM     15  O   UNL     1      -0.795   0.489  -1.675  1.00  0.00    -0.362 OA
ATOM     16  C   UNL     1       0.322   0.327  -2.399  1.00  0.00     0.096 C 
ATOM     17  C   UNL     1       0.759   1.441  -3.307  1.00  0.00     0.045 C 
BRANCH  16  18
ATOM     18  C   UNL     1       0.007  -1.006  -3.134  1.00  0.00     0.042 C 
BRANCH  18  19
ATOM     19  C   UNL     1      -0.080  -2.209  -2.208  1.00  0.00     0.030 CG0
ATOM     20  G   UNL     1      -0.616  -1.882  -0.898  1.00  0.00     0.000 G0
ENDBRANCH  18  19
ENDBRANCH  16  18
ENDBRANCH   6  14
TORSDOF 0
