REMARK SMILES Cc1ccc(CCC(=O)Nc2ccc(Cl)cc2)o1
REMARK SMILES IDX 7 1 6 2 5 3 2 4 3 5 18 6 4 7 1 8 8 9 9 10 10 11 11 13 12 14
REMARK SMILES IDX 17 15 13 16 16 17 14 18 15 19
REMARK H PARENT 10 12
ROOT
ATOM      1  C   UNL     1       1.725   0.941   1.050  1.00  0.00     0.108 C 
ENDROOT
BRANCH   1   2
ATOM      2  C   UNL     1       1.651   0.075   2.276  1.00  0.00     0.085 C 
BRANCH   2   3
ATOM      3  C   UNL     1       0.255  -0.359   2.530  1.00  0.00     0.104 A 
ATOM      4  C   UNL     1      -1.860  -0.629   2.360  1.00  0.00     0.101 A 
ATOM      5  C   UNL     1      -1.495  -1.345   3.483  1.00  0.00     0.045 A 
ATOM      6  O   UNL     1      -0.814  -0.074   1.840  1.00  0.00    -0.466 OA
ATOM      7  C   UNL     1      -0.131  -1.171   3.593  1.00  0.00     0.046 A 
ATOM      8  C   UNL     1      -3.257  -0.529   1.847  1.00  0.00     0.087 C 
ENDBRANCH   2   3
ENDBRANCH   1   2
BRANCH   1   9
ATOM      9  C   UNL     1       1.224   0.109  -0.108  1.00  0.00     0.224 C 
ATOM     10  O   UNL     1       0.860  -1.057   0.066  1.00  0.00    -0.275 OA
ATOM     11  N   UNL     1       1.175   0.679  -1.403  1.00  0.00    -0.326 N 
ATOM     12  H   UNL     1       1.518   1.699  -1.425  1.00  0.00     0.169 HD
BRANCH  11  13
ATOM     13  C   UNL     1       0.745   0.068  -2.583  1.00  0.00     0.041 A 
ATOM     14  C   UNL     1       0.296  -1.201  -2.674  1.00  0.00     0.027 A 
ATOM     15  C   UNL     1       0.789   0.838  -3.741  1.00  0.00     0.027 A 
ATOM     16  C   UNL     1      -0.112  -1.720  -3.905  1.00  0.00     0.022 A 
ATOM     17  C   UNL     1       0.400   0.368  -4.963  1.00  0.00     0.022 A 
ATOM     18  C   UNL     1      -0.058  -0.937  -5.033  1.00  0.00     0.041 A 
ATOM     19  Cl  UNL     1      -0.575  -1.606  -6.571  1.00  0.00    -0.084 Cl
ENDBRANCH  11  13
ENDBRANCH   1   9
TORSDOF 4
