REMARK SMILES Cc1cc(=O)oc2cc([O-])c([O-])cc12
REMARK SMILES IDX 1 1 2 2 3 3 4 4 5 5 6 6 7 7 8 8 9 9 10 10 11 11 12 12 13 13
REMARK SMILES IDX 14 14
REMARK H PARENT
ROOT
ATOM      1  C   UNL     1      -1.657   0.236  -1.911  1.00  0.00     0.045 C 
ATOM      2  C   UNL     1      -0.995   0.283  -0.605  1.00  0.00    -0.033 A 
ATOM      3  C   UNL     1      -1.738   0.648   0.503  1.00  0.00     0.098 A 
ATOM      4  C   UNL     1      -1.127   0.697   1.737  1.00  0.00     0.336 A 
ATOM      5  O   UNL     1      -1.787   1.030   2.781  1.00  0.00    -0.246 OA
ATOM      6  O   UNL     1       0.148   0.395   1.834  1.00  0.00    -0.423 OA
ATOM      7  C   UNL     1       0.881   0.046   0.804  1.00  0.00     0.138 A 
ATOM      8  C   UNL     1       2.232  -0.269   0.938  1.00  0.00     0.039 A 
ATOM      9  C   UNL     1       3.012  -0.637  -0.138  1.00  0.00    -0.113 A 
ATOM     10  O   UNL     1       4.372  -0.951   0.016  1.00  0.00    -0.873 OA
ATOM     11  C   UNL     1       2.428  -0.696  -1.392  1.00  0.00    -0.116 A 
ATOM     12  O   UNL     1       3.207  -1.066  -2.479  1.00  0.00    -0.873 OA
ATOM     13  C   UNL     1       1.085  -0.388  -1.553  1.00  0.00     0.003 A 
ATOM     14  C   UNL     1       0.346  -0.027  -0.461  1.00  0.00     0.020 A 
ENDROOT
TORSDOF 0
