REMARK SMILES Cc1cc(=O)oc2cc([O-])c(O)cc12
REMARK SMILES IDX 1 1 2 2 3 3 4 4 5 5 6 6 7 7 8 8 9 9 10 10 11 11 13 12 14 13
REMARK SMILES IDX 12 14
REMARK H PARENT 12 15
ROOT
ATOM      1  C   UNL     1      -2.096   0.489  -1.409  1.00  0.00     0.045 C 
ATOM      2  C   UNL     1      -1.330   0.289  -0.161  1.00  0.00    -0.033 A 
ATOM      3  C   UNL     1      -1.947   0.260   1.072  1.00  0.00     0.098 A 
ATOM      4  C   UNL     1      -1.218   0.073   2.226  1.00  0.00     0.336 A 
ATOM      5  O   UNL     1      -1.796   0.047   3.366  1.00  0.00    -0.246 OA
ATOM      6  O   UNL     1       0.082  -0.077   2.125  1.00  0.00    -0.423 OA
ATOM      7  C   UNL     1       0.735  -0.060   0.989  1.00  0.00     0.138 A 
ATOM      8  C   UNL     1       2.108  -0.230   1.006  1.00  0.00     0.043 A 
ATOM      9  C   UNL     1       2.789  -0.211  -0.197  1.00  0.00    -0.062 A 
ATOM     10  O   UNL     1       4.171  -0.381  -0.182  1.00  0.00    -0.870 OA
ATOM     11  C   UNL     1       2.092  -0.025  -1.383  1.00  0.00     0.108 A 
ATOM     12  C   UNL     1       0.711   0.142  -1.370  1.00  0.00     0.057 A 
ATOM     13  C   UNL     1       0.039   0.123  -0.174  1.00  0.00     0.024 A 
ENDROOT
BRANCH  11  14
ATOM     14  O   UNL     1       2.790  -0.009  -2.582  1.00  0.00    -0.509 OA
ATOM     15  H   UNL     1       2.959  -0.888  -3.071  1.00  0.00     0.293 HD
ENDBRANCH  11  14
TORSDOF 1
