REMARK SMILES O=C1C=CC=CC1=CNNc1ccccc1C(=O)[O-]
REMARK SMILES IDX 11 1 12 2 13 3 14 4 15 5 16 6 10 7 9 9 8 11 1 12 2 13 3 14
REMARK SMILES IDX 7 15 4 16 6 17 5 18 17 19 18 20 19 21
REMARK H PARENT 10 8 9 10
ROOT
ATOM      1  C   UNL     1       0.046  -0.989  -2.219  1.00  0.00     0.063 A 
ATOM      2  C   UNL     1       0.559   0.079  -2.988  1.00  0.00     0.028 A 
ATOM      3  C   UNL     1       0.862  -0.102  -4.298  1.00  0.00     0.002 A 
ATOM      4  C   UNL     1       0.682  -1.313  -4.907  1.00  0.00     0.001 A 
ATOM      5  C   UNL     1       0.188  -2.381  -4.208  1.00  0.00     0.012 A 
ATOM      6  C   UNL     1      -0.132  -2.204  -2.841  1.00  0.00     0.022 A 
ENDROOT
BRANCH   1   7
ATOM      7  N   UNL     1      -0.261  -0.779  -0.862  1.00  0.00    -0.301 N 
ATOM      8  H   UNL     1      -0.634  -1.436  -0.179  1.00  0.00     0.188 HD
BRANCH   7   9
ATOM      9  N   UNL     1      -0.033   0.523  -0.333  1.00  0.00    -0.307 N 
ATOM     10  H   UNL     1      -0.433   1.360  -0.802  1.00  0.00     0.187 HD
BRANCH   9  11
ATOM     11  C   UNL     1       0.758   0.574   0.845  1.00  0.00     0.113 C 
ATOM     12  O   UNL     1      -1.951   0.867   0.989  1.00  0.00    -0.289 OA
ATOM     13  C   UNL     1      -1.299   0.919   2.055  1.00  0.00     0.187 C 
ATOM     14  C   UNL     1      -1.972   1.130   3.332  1.00  0.00     0.052 C 
ATOM     15  C   UNL     1       0.148   0.765   1.999  1.00  0.00     0.039 C 
ATOM     16  C   UNL     1      -1.214   1.174   4.416  1.00  0.00     0.004 C 
ATOM     17  C   UNL     1       0.919   0.827   3.260  1.00  0.00     0.014 C 
ATOM     18  C   UNL     1       0.235   1.021   4.368  1.00  0.00     0.001 C 
ENDBRANCH   9  11
ENDBRANCH   7   9
ENDBRANCH   1   7
BRANCH   6  19
ATOM     19  C   UNL     1      -0.651  -3.363  -2.144  1.00  0.00     0.074 C 
ATOM     20  O   UNL     1      -0.967  -3.340  -0.956  1.00  0.00    -0.545 OA
ATOM     21  O   UNL     1      -0.824  -4.592  -2.802  1.00  0.00    -0.545 OA
ENDBRANCH   6  19
TORSDOF 4
