REMARK SMILES CC(=O)Oc1ccc(C(=O)Nc2cc(Cl)ccc2OC(C)=O)cc1
REMARK SMILES IDX 9 1 10 2 11 3 8 5 5 6 6 7 24 8 7 9 23 10 4 11 2 12 3 13 1 14
REMARK SMILES IDX 12 15 13 16 18 17 14 18 17 19 16 20 15 21 19 22 20 23 22 24
REMARK SMILES IDX 21 25
REMARK H PARENT 11 4
ROOT
ATOM      1  C   UNL     1       1.070  -0.619  -1.048  1.00  0.00     0.255 C 
ATOM      2  O   UNL     1       1.911  -0.350  -1.919  1.00  0.00    -0.269 OA
ATOM      3  N   UNL     1       0.286  -1.762  -1.190  1.00  0.00    -0.319 N 
ATOM      4  H   UNL     1      -0.412  -1.918  -0.397  1.00  0.00     0.170 HD
ENDROOT
BRANCH   1   5
ATOM      5  C   UNL     1       0.975   0.319   0.086  1.00  0.00     0.040 A 
ATOM      6  C   UNL     1       0.862   2.177   2.227  1.00  0.00     0.130 A 
ATOM      7  C   UNL     1       0.038   1.074   2.183  1.00  0.00     0.048 A 
ATOM      8  C   UNL     1       1.749   2.345   1.185  1.00  0.00     0.048 A 
ATOM      9  C   UNL     1       0.093   0.161   1.131  1.00  0.00     0.017 A 
ATOM     10  C   UNL     1       1.795   1.433   0.147  1.00  0.00     0.017 A 
BRANCH   6  11
ATOM     11  O   UNL     1       0.812   3.091   3.273  1.00  0.00    -0.427 OA
BRANCH  11  12
ATOM     12  C   UNL     1      -0.009   4.207   3.268  1.00  0.00     0.308 C 
ATOM     13  O   UNL     1      -0.735   4.381   2.258  1.00  0.00    -0.252 OA
ATOM     14  C   UNL     1      -0.090   5.204   4.363  1.00  0.00     0.139 C 
ENDBRANCH  11  12
ENDBRANCH   6  11
ENDBRANCH   1   5
BRANCH   3  15
ATOM     15  C   UNL     1       0.300  -2.721  -2.234  1.00  0.00     0.086 A 
ATOM     16  C   UNL     1       1.107  -2.700  -3.324  1.00  0.00     0.050 A 
ATOM     17  C   UNL     1      -0.596  -3.805  -2.160  1.00  0.00     0.154 A 
ATOM     18  C   UNL     1       1.074  -3.679  -4.324  1.00  0.00     0.043 A 
ATOM     19  C   UNL     1      -0.639  -4.767  -3.130  1.00  0.00     0.051 A 
ATOM     20  C   UNL     1       0.193  -4.721  -4.225  1.00  0.00     0.024 A 
ATOM     21  Cl  UNL     1       2.193  -3.500  -5.673  1.00  0.00    -0.084 Cl
BRANCH  17  22
ATOM     22  O   UNL     1      -1.451  -3.864  -1.046  1.00  0.00    -0.424 OA
BRANCH  22  23
ATOM     23  C   UNL     1      -2.697  -3.252  -1.099  1.00  0.00     0.308 C 
ATOM     24  O   UNL     1      -3.006  -2.663  -2.159  1.00  0.00    -0.252 OA
ATOM     25  C   UNL     1      -3.556  -3.344   0.097  1.00  0.00     0.139 C 
ENDBRANCH  22  23
ENDBRANCH  17  22
ENDBRANCH   3  15
TORSDOF 6
