REMARK SMILES Cc1ccc(C[NH+]2CCN(Cc3c[nH]c4ccccc34)CC2)cc1
REMARK SMILES IDX 7 1 8 2 9 3 10 4 21 5 22 6 6 8 5 9 2 10 3 11 24 12 4 13
REMARK SMILES IDX 23 14 1 15 11 16 12 17 13 18 20 19 14 20 19 21 15 22 18 23
REMARK SMILES IDX 16 24 17 25
REMARK H PARENT 7 7 14 26
ROOT
ATOM      1  N   UNL     1       0.788  -2.230   2.615  1.00  0.00    -0.329 N 
ATOM      2  C   UNL     1      -0.511  -1.749   2.294  1.00  0.00     0.278 C 
ATOM      3  C   UNL     1      -0.739  -1.408   0.848  1.00  0.00     0.146 C 
ATOM      4  N   UNL     1      -0.381  -2.513   0.034  1.00  0.00    -0.288 NA
ATOM      5  C   UNL     1       0.147  -3.642   0.714  1.00  0.00     0.146 C 
ATOM      6  C   UNL     1       1.257  -3.204   1.634  1.00  0.00     0.278 C 
ATOM      7  H   UNL     1       0.649  -2.833   3.498  1.00  0.00     0.348 HD
ENDROOT
BRANCH   1   8
ATOM      8  C   UNL     1       1.776  -1.274   2.966  1.00  0.00     0.299 C 
BRANCH   8   9
ATOM      9  C   UNL     1       1.768   0.002   2.240  1.00  0.00     0.006 A 
ATOM     10  C   UNL     1       1.728   2.470   0.891  1.00  0.00    -0.051 A 
ATOM     11  C   UNL     1       1.012   2.241   2.058  1.00  0.00     0.004 A 
ATOM     12  C   UNL     1       2.462   1.394   0.444  1.00  0.00     0.004 A 
ATOM     13  C   UNL     1       1.019   1.046   2.729  1.00  0.00     0.010 A 
ATOM     14  C   UNL     1       2.490   0.186   1.092  1.00  0.00     0.010 A 
ATOM     15  C   UNL     1       1.696   3.787   0.182  1.00  0.00     0.044 C 
ENDBRANCH   8   9
ENDBRANCH   1   8
BRANCH   4  16
ATOM     16  C   UNL     1       0.237  -2.180  -1.213  1.00  0.00     0.122 C 
BRANCH  16  17
ATOM     17  C   UNL     1      -0.604  -1.350  -2.084  1.00  0.00    -0.009 A 
ATOM     18  C   UNL     1      -0.484  -0.006  -2.315  1.00  0.00     0.088 A 
ATOM     19  C   UNL     1      -1.677  -1.792  -2.824  1.00  0.00     0.004 A 
ATOM     20  N   UNL     1      -1.454   0.364  -3.170  1.00  0.00    -0.361 N 
ATOM     21  C   UNL     1      -2.280  -3.033  -3.001  1.00  0.00     0.010 A 
ATOM     22  C   UNL     1      -2.203  -0.714  -3.501  1.00  0.00     0.046 A 
ATOM     23  C   UNL     1      -3.365  -3.129  -3.835  1.00  0.00     0.001 A 
ATOM     24  C   UNL     1      -3.310  -0.834  -4.345  1.00  0.00     0.026 A 
ATOM     25  C   UNL     1      -3.909  -2.066  -4.521  1.00  0.00     0.002 A 
ATOM     26  H   UNL     1      -1.613   1.330  -3.529  1.00  0.00     0.166 HD
ENDBRANCH  16  17
ENDBRANCH   4  16
TORSDOF 4
