REMARK SMILES O=c1cc(-c2ccoc2)oc2ccccc12
REMARK SMILES IDX 1 1 2 2 3 3 4 4 10 5 11 6 12 7 13 8 14 9 15 10 16 11 5 12
REMARK SMILES IDX 6 13 9 14 7 15 8 16
REMARK H PARENT
ROOT
ATOM      1  O   UNL     1      -1.907   2.441  -0.762  1.00  0.00    -0.289 OA
ATOM      2  C   UNL     1      -1.183   1.447  -0.572  1.00  0.00     0.193 A 
ATOM      3  C   UNL     1      -0.478   1.294   0.603  1.00  0.00     0.100 A 
ATOM      4  C   UNL     1       0.323   0.186   0.805  1.00  0.00     0.141 A 
ATOM      5  O   UNL     1       0.376  -0.697  -0.166  1.00  0.00    -0.456 OA
ATOM      6  C   UNL     1      -0.276  -0.591  -1.298  1.00  0.00     0.138 A 
ATOM      7  C   UNL     1      -0.161  -1.576  -2.272  1.00  0.00     0.048 A 
ATOM      8  C   UNL     1      -0.858  -1.461  -3.478  1.00  0.00     0.004 A 
ATOM      9  C   UNL     1      -1.668  -0.377  -3.725  1.00  0.00     0.001 A 
ATOM     10  C   UNL     1      -1.784   0.600  -2.762  1.00  0.00     0.016 A 
ATOM     11  C   UNL     1      -1.088   0.486  -1.557  1.00  0.00     0.065 A 
ENDROOT
BRANCH   4  12
ATOM     12  C   UNL     1       1.079   0.004   2.042  1.00  0.00     0.056 A 
ATOM     13  C   UNL     1       1.105   0.852   3.122  1.00  0.00     0.054 A 
ATOM     14  C   UNL     1       1.905  -1.049   2.358  1.00  0.00     0.206 A 
ATOM     15  C   UNL     1       1.942   0.273   4.035  1.00  0.00     0.195 A 
ATOM     16  O   UNL     1       2.399  -0.840   3.566  1.00  0.00    -0.472 OA
ENDBRANCH   4  12
TORSDOF 1
