REMARK SMILES Cc1ccc(-c2oc3ccccc3c(=O)c2OCC#N)cc1
REMARK SMILES IDX 6 1 7 2 8 3 9 4 10 5 11 6 12 7 13 8 14 9 15 10 16 11 5 12
REMARK SMILES IDX 2 13 3 14 22 15 4 16 21 17 1 18 17 19 18 20 19 21 20 22
REMARK H PARENT
ROOT
ATOM      1  C   UNL     1       0.182  -0.301   0.078  1.00  0.00     0.180 A 
ATOM      2  O   UNL     1       0.984  -1.366   0.214  1.00  0.00    -0.452 OA
ATOM      3  C   UNL     1       2.223  -1.384  -0.154  1.00  0.00     0.138 A 
ATOM      4  C   UNL     1       2.994  -2.544   0.026  1.00  0.00     0.048 A 
ATOM      5  C   UNL     1       4.314  -2.562  -0.366  1.00  0.00     0.004 A 
ATOM      6  C   UNL     1       4.842  -1.421  -0.932  1.00  0.00     0.001 A 
ATOM      7  C   UNL     1       4.123  -0.272  -1.123  1.00  0.00     0.016 A 
ATOM      8  C   UNL     1       2.788  -0.268  -0.721  1.00  0.00     0.069 A 
ATOM      9  C   UNL     1       2.038   0.849  -0.895  1.00  0.00     0.235 A 
ATOM     10  O   UNL     1       2.462   1.914  -1.402  1.00  0.00    -0.285 OA
ATOM     11  C   UNL     1       0.685   0.828  -0.480  1.00  0.00     0.212 A 
ENDROOT
BRANCH   1  12
ATOM     12  C   UNL     1      -1.176  -0.472   0.558  1.00  0.00     0.021 A 
ATOM     13  C   UNL     1      -3.774  -1.027   1.631  1.00  0.00    -0.051 A 
ATOM     14  C   UNL     1      -2.875  -2.034   1.366  1.00  0.00     0.004 A 
ATOM     15  C   UNL     1      -3.354   0.248   1.353  1.00  0.00     0.004 A 
ATOM     16  C   UNL     1      -1.631  -1.767   0.852  1.00  0.00     0.012 A 
ATOM     17  C   UNL     1      -2.083   0.520   0.828  1.00  0.00     0.012 A 
ATOM     18  C   UNL     1      -5.119  -1.330   2.188  1.00  0.00     0.044 C 
ENDBRANCH   1  12
BRANCH  11  19
ATOM     19  O   UNL     1      -0.086   1.941  -0.665  1.00  0.00    -0.471 OA
BRANCH  19  20
ATOM     20  C   UNL     1      -0.719   2.280  -1.881  1.00  0.00     0.349 C 
ATOM     21  C   UNL     1      -1.605   1.240  -2.302  1.00  0.00     0.104 C 
ATOM     22  N   UNL     1      -2.311   0.393  -2.658  1.00  0.00    -0.195 NA
ENDBRANCH  19  20
ENDBRANCH  11  19
TORSDOF 3
