REMARK SMILES CC1=CC2C(CC1=O)C(C)=CCC2C(C)C
REMARK SMILES IDX 1 1 2 2 3 3 4 4 5 5 6 6 7 7 8 8 9 9 10 10 11 11 12 12 13 13
REMARK SMILES IDX 14 14 15 15 16 16
REMARK H PARENT
ROOT
ATOM      1  C   UNL     1      -3.312   1.323   0.017  1.00  0.00     0.048 C 
ATOM      2  C   UNL     1      -1.903   0.922   0.306  1.00  0.00    -0.012 C 
ATOM      3  C   UNL     1      -1.523  -0.336   0.392  1.00  0.00    -0.016 C 
ATOM      4  C   UNL     1      -0.134  -0.791   0.676  1.00  0.00     0.023 C 
ATOM      5  C   UNL     1       0.837   0.273   0.976  1.00  0.00     0.029 C 
ATOM      6  C   UNL     1       0.225   1.582   1.426  1.00  0.00     0.089 C 
ATOM      7  C   UNL     1      -0.886   1.945   0.513  1.00  0.00     0.158 C 
ATOM      8  O   UNL     1      -0.938   3.065  -0.039  1.00  0.00    -0.295 OA
ATOM      9  C   UNL     1       1.793   0.611  -0.100  1.00  0.00    -0.073 C 
ATOM     10  C   UNL     1       2.702   1.784   0.218  1.00  0.00     0.039 C 
ATOM     11  C   UNL     1       1.865  -0.030  -1.224  1.00  0.00    -0.027 C 
ATOM     12  C   UNL     1       0.999  -1.157  -1.534  1.00  0.00     0.031 C 
ATOM     13  C   UNL     1       0.301  -1.789  -0.364  1.00  0.00     0.003 C 
ENDROOT
BRANCH  13  14
ATOM     14  C   UNL     1      -0.802  -2.699  -0.842  1.00  0.00    -0.013 C 
ATOM     15  C   UNL     1      -1.401  -3.520   0.280  1.00  0.00     0.007 C 
ATOM     16  C   UNL     1      -0.314  -3.683  -1.885  1.00  0.00     0.007 C 
ENDBRANCH  13  14
TORSDOF 1
