REMARK SMILES O=C1Nc2ccc(I)cc2/C1=C/c1cc(Br)c(O)c(Br)c1
REMARK SMILES IDX 13 1 14 2 15 3 16 4 17 5 19 6 20 7 21 8 12 9 1 10 2 11 3 12
REMARK SMILES IDX 11 13 4 14 10 15 5 16 9 17 6 18 7 19 8 21 18 22
REMARK H PARENT 3 20 18 23
ROOT
ATOM      1  C   UNL     1      -0.181  -1.068  -1.797  1.00  0.00    -0.022 A 
ATOM      2  C   UNL     1      -0.825  -0.134  -2.547  1.00  0.00     0.027 A 
ATOM      3  C   UNL     1      -1.622  -0.555  -3.597  1.00  0.00     0.061 A 
ATOM      4  Br  UNL     1      -2.528   0.762  -4.650  1.00  0.00    -0.047 Br
ATOM      5  C   UNL     1      -1.778  -1.897  -3.900  1.00  0.00     0.143 A 
ATOM      6  C   UNL     1      -1.114  -2.807  -3.124  1.00  0.00     0.061 A 
ATOM      7  Br  UNL     1      -1.279  -4.679  -3.483  1.00  0.00    -0.047 Br
ATOM      8  C   UNL     1      -0.321  -2.412  -2.080  1.00  0.00     0.027 A 
ENDROOT
BRANCH   1   9
ATOM      9  C   UNL     1       0.649  -0.734  -0.652  1.00  0.00     0.022 C 
ATOM     10  O   UNL     1      -2.092   0.468  -0.191  1.00  0.00    -0.269 OA
ATOM     11  C   UNL     1      -1.098   0.565   0.567  1.00  0.00     0.256 C 
ATOM     12  N   UNL     1      -1.052   1.277   1.816  1.00  0.00    -0.321 N 
ATOM     13  C   UNL     1       0.220  -0.015   0.367  1.00  0.00     0.050 C 
ATOM     14  C   UNL     1       0.261   1.149   2.388  1.00  0.00     0.049 A 
ATOM     15  C   UNL     1       1.029   0.376   1.526  1.00  0.00     0.012 A 
ATOM     16  C   UNL     1       0.772   1.657   3.569  1.00  0.00     0.028 A 
ATOM     17  C   UNL     1       2.342   0.140   1.916  1.00  0.00     0.025 A 
ATOM     18  C   UNL     1       2.088   1.387   3.903  1.00  0.00     0.017 A 
ATOM     19  C   UNL     1       2.890   0.625   3.080  1.00  0.00     0.014 A 
ATOM     20  H   UNL     1      -1.858   1.785   2.200  1.00  0.00     0.170 HD
ATOM     21  I   UNL     1       4.900   0.220   3.607  1.00  0.00    -0.044 I 
ENDBRANCH   1   9
BRANCH   5  22
ATOM     22  O   UNL     1      -2.583  -2.308  -4.957  1.00  0.00    -0.506 OA
ATOM     23  H   UNL     1      -3.219  -1.650  -5.392  1.00  0.00     0.293 HD
ENDBRANCH   5  22
TORSDOF 2
