REMARK SMILES Cc1ccc(O)c(NC(=S)NC(=O)c2ccco2)c1
REMARK SMILES IDX 1 1 2 2 3 3 4 4 5 5 7 6 19 7 8 8 9 9 10 10 11 11 12 12 13 13
REMARK SMILES IDX 14 16 15 17 18 18 16 19 17 20 6 21
REMARK H PARENT 8 14 11 15 6 22
ROOT
ATOM      1  C   UNL     1      -2.382   2.568   1.516  1.00  0.00     0.044 C 
ATOM      2  C   UNL     1      -1.428   1.448   1.751  1.00  0.00    -0.049 A 
ATOM      3  C   UNL     1      -1.760   0.368   2.549  1.00  0.00     0.007 A 
ATOM      4  C   UNL     1      -0.864  -0.655   2.751  1.00  0.00     0.048 A 
ATOM      5  C   UNL     1       0.368  -0.637   2.177  1.00  0.00     0.139 A 
ATOM      6  C   UNL     1       0.743   0.439   1.361  1.00  0.00     0.083 A 
ATOM      7  C   UNL     1      -0.183   1.474   1.165  1.00  0.00     0.033 A 
ENDROOT
BRANCH   6   8
ATOM      8  N   UNL     1       2.016   0.471   0.812  1.00  0.00    -0.329 N 
ATOM      9  C   UNL     1       2.548   0.015  -0.369  1.00  0.00     0.177 C 
ATOM     10  S   UNL     1       4.211   0.291  -0.597  1.00  0.00    -0.040 S 
ATOM     11  N   UNL     1       1.994  -0.657  -1.468  1.00  0.00    -0.296 N 
ATOM     12  C   UNL     1       0.674  -1.078  -1.698  1.00  0.00     0.293 C 
ATOM     13  O   UNL     1      -0.205  -0.867  -0.859  1.00  0.00    -0.265 OA
ATOM     14  H   UNL     1       2.742   0.969   1.473  1.00  0.00     0.169 HD
ATOM     15  H   UNL     1       2.645  -0.921  -2.308  1.00  0.00     0.172 HD
BRANCH  12  16
ATOM     16  C   UNL     1       0.286  -1.785  -2.946  1.00  0.00     0.191 A 
ATOM     17  C   UNL     1      -0.970  -2.239  -3.277  1.00  0.00     0.056 A 
ATOM     18  O   UNL     1       1.082  -2.092  -3.937  1.00  0.00    -0.459 OA
ATOM     19  C   UNL     1      -0.891  -2.836  -4.520  1.00  0.00     0.043 A 
ATOM     20  C   UNL     1       0.436  -2.716  -4.895  1.00  0.00     0.196 A 
ENDBRANCH  12  16
ENDBRANCH   6   8
BRANCH   5  21
ATOM     21  O   UNL     1       1.294  -1.651   2.360  1.00  0.00    -0.506 OA
ATOM     22  H   UNL     1       1.224  -2.517   1.835  1.00  0.00     0.293 HD
ENDBRANCH   5  21
TORSDOF 3
