REMARK SMILES COC1=CC(=O)C(O)=C/C1=C\C=C\c1ccccc1
REMARK SMILES IDX 3 1 4 2 5 3 6 4 7 5 9 6 10 7 11 8 2 9 1 10 12 11 13 12 14 13
REMARK SMILES IDX 15 14 19 15 16 16 18 17 17 18 8 19
REMARK H PARENT 8 20
ROOT
ATOM      1  C   UNL     1      -0.025   0.861   2.749  1.00  0.00     0.130 C 
ATOM      2  C   UNL     1       0.888   0.862   3.701  1.00  0.00     0.103 C 
ATOM      3  C   UNL     1       2.177   0.205   3.501  1.00  0.00     0.223 C 
ATOM      4  O   UNL     1       3.014   0.244   4.463  1.00  0.00    -0.286 OA
ATOM      5  C   UNL     1       2.509  -0.474   2.254  1.00  0.00     0.163 C 
ATOM      6  C   UNL     1       1.586  -0.476   1.290  1.00  0.00     0.062 C 
ATOM      7  C   UNL     1       0.303   0.175   1.482  1.00  0.00     0.020 C 
ATOM      8  C   UNL     1      -0.574   0.144   0.497  1.00  0.00     0.012 C 
ENDROOT
BRANCH   1   9
ATOM      9  O   UNL     1      -1.245   1.462   2.891  1.00  0.00    -0.496 OA
ATOM     10  C   UNL     1      -1.800   1.950   4.064  1.00  0.00     0.278 C 
ENDBRANCH   1   9
BRANCH   8  11
ATOM     11  C   UNL     1      -0.366  -0.497  -0.791  1.00  0.00     0.001 C 
ATOM     12  C   UNL     1      -1.284  -0.496  -1.745  1.00  0.00     0.008 C 
BRANCH  12  13
ATOM     13  C   UNL     1      -1.137  -1.118  -3.049  1.00  0.00    -0.026 A 
ATOM     14  C   UNL     1      -0.018  -1.791  -3.464  1.00  0.00     0.008 A 
ATOM     15  C   UNL     1      -2.184  -1.033  -3.941  1.00  0.00     0.008 A 
ATOM     16  C   UNL     1       0.066  -2.371  -4.736  1.00  0.00     0.001 A 
ATOM     17  C   UNL     1      -2.109  -1.602  -5.196  1.00  0.00     0.001 A 
ATOM     18  C   UNL     1      -0.986  -2.280  -5.618  1.00  0.00     0.000 A 
ENDBRANCH  12  13
ENDBRANCH   8  11
BRANCH   5  19
ATOM     19  O   UNL     1       3.739  -1.069   2.137  1.00  0.00    -0.504 OA
ATOM     20  H   UNL     1       4.555  -0.441   2.210  1.00  0.00     0.293 HD
ENDBRANCH   5  19
TORSDOF 4
