REMARK SMILES O=C(c1ccccc1)[NH+]1CCC(c2ccncc2)CC1
REMARK SMILES IDX 9 1 10 2 11 3 12 4 19 5 20 6 2 8 1 9 3 10 4 11 8 12 5 13
REMARK SMILES IDX 7 14 6 15 13 16 14 17 18 18 15 19 17 20 16 21
REMARK H PARENT 9 7
ROOT
ATOM      1  N   UNL     1       0.154  -1.085   0.474  1.00  0.00    -0.267 N 
ATOM      2  C   UNL     1       0.061   0.121  -0.255  1.00  0.00     0.271 C 
ATOM      3  C   UNL     1       0.775  -0.086  -1.567  1.00  0.00     0.070 C 
ATOM      4  C   UNL     1       0.045  -1.049  -2.442  1.00  0.00     0.030 C 
ATOM      5  C   UNL     1      -0.613  -2.104  -1.633  1.00  0.00     0.070 C 
ATOM      6  C   UNL     1      -0.995  -1.799  -0.254  1.00  0.00     0.271 C 
ATOM      7  H   UNL     1       0.750  -1.811   0.221  1.00  0.00     0.357 HD
ENDROOT
BRANCH   1   8
ATOM      8  C   UNL     1      -0.029  -0.970   1.803  1.00  0.00     0.344 C 
ATOM      9  O   UNL     1      -1.264  -0.885   1.768  1.00  0.00    -0.226 OA
BRANCH   8  10
ATOM     10  C   UNL     1       0.501  -0.905   3.145  1.00  0.00     0.079 A 
ATOM     11  C   UNL     1      -0.350  -0.956   4.222  1.00  0.00     0.018 A 
ATOM     12  C   UNL     1       1.840  -0.775   3.420  1.00  0.00     0.018 A 
ATOM     13  C   UNL     1       0.071  -0.885   5.537  1.00  0.00     0.001 A 
ATOM     14  C   UNL     1       2.311  -0.700   4.692  1.00  0.00     0.001 A 
ATOM     15  C   UNL     1       1.426  -0.756   5.724  1.00  0.00     0.000 A 
ENDBRANCH   8  10
ENDBRANCH   1   8
BRANCH   4  16
ATOM     16  C   UNL     1      -0.881  -0.279  -3.334  1.00  0.00    -0.041 A 
ATOM     17  C   UNL     1      -0.437   0.072  -4.618  1.00  0.00     0.024 A 
ATOM     18  C   UNL     1      -2.151   0.106  -3.009  1.00  0.00     0.024 A 
ATOM     19  C   UNL     1      -1.214   0.764  -5.513  1.00  0.00     0.111 A 
ATOM     20  C   UNL     1      -2.905   0.810  -3.955  1.00  0.00     0.111 A 
ATOM     21  N   UNL     1      -2.456   1.134  -5.175  1.00  0.00    -0.265 NA
ENDBRANCH   4  16
TORSDOF 3
