REMARK SMILES O=C1c2ccccc2C(=O)c2c1cccc2S(=O)(=O)N1CCCCC1
REMARK SMILES IDX 17 1 18 2 19 3 16 4 1 5 2 6 3 7 12 8 4 9 8 10 11 11 13 12
REMARK SMILES IDX 5 13 7 14 9 15 14 16 6 17 10 18 15 19 20 20 21 21 25 22
REMARK SMILES IDX 22 23 24 24 23 25
REMARK H PARENT
ROOT
ATOM      1  S   UNL     1       0.775  -2.537  -0.740  1.00  0.00     0.243 S 
ATOM      2  O   UNL     1       0.619  -3.778  -1.605  1.00  0.00    -0.207 OA
ATOM      3  O   UNL     1       2.211  -2.534  -0.314  1.00  0.00    -0.207 OA
ENDROOT
BRANCH   1   4
ATOM      4  C   UNL     1       0.354  -1.157  -1.722  1.00  0.00     0.094 A 
ATOM      5  O   UNL     1      -0.360   3.563  -2.286  1.00  0.00    -0.289 OA
ATOM      6  C   UNL     1      -0.035   2.586  -1.553  1.00  0.00     0.194 C 
ATOM      7  C   UNL     1       0.335   2.854  -0.168  1.00  0.00     0.034 A 
ATOM      8  C   UNL     1      -0.021   1.209  -2.057  1.00  0.00     0.035 A 
ATOM      9  C   UNL     1       0.343   4.122   0.368  1.00  0.00     0.013 A 
ATOM     10  C   UNL     1       0.685   1.796   0.619  1.00  0.00     0.034 A 
ATOM     11  C   UNL     1       0.335   0.140  -1.254  1.00  0.00     0.054 A 
ATOM     12  C   UNL     1      -0.376   1.028  -3.375  1.00  0.00     0.013 A 
ATOM     13  C   UNL     1       0.707   4.286   1.688  1.00  0.00     0.001 A 
ATOM     14  C   UNL     1       1.052   1.959   1.950  1.00  0.00     0.013 A 
ATOM     15  C   UNL     1       0.699   0.415   0.111  1.00  0.00     0.195 C 
ATOM     16  C   UNL     1      -0.366  -0.256  -3.872  1.00  0.00     0.002 A 
ATOM     17  C   UNL     1       1.063   3.220   2.492  1.00  0.00     0.001 A 
ATOM     18  O   UNL     1       1.024  -0.514   0.858  1.00  0.00    -0.289 OA
ATOM     19  C   UNL     1      -0.011  -1.314  -3.066  1.00  0.00     0.022 A 
ENDBRANCH   1   4
BRANCH   1  20
ATOM     20  N   UNL     1      -0.323  -2.734   0.565  1.00  0.00    -0.198 NA
ATOM     21  C   UNL     1      -1.639  -2.964   0.011  1.00  0.00     0.102 C 
ATOM     22  C   UNL     1       0.020  -3.809   1.438  1.00  0.00     0.102 C 
ATOM     23  C   UNL     1      -2.634  -3.032   1.150  1.00  0.00     0.017 C 
ATOM     24  C   UNL     1      -0.771  -3.613   2.731  1.00  0.00     0.017 C 
ATOM     25  C   UNL     1      -1.960  -2.729   2.461  1.00  0.00     0.003 C 
ENDBRANCH   1  20
TORSDOF 2
