REMARK SMILES O=C1SC(=Cc2ccccc2)C(=O)N1CNc1ccc(I)cc1
REMARK SMILES IDX 15 1 14 2 1 3 2 4 3 5 4 6 12 7 5 8 13 9 6 10 7 11 11 12 8 13
REMARK SMILES IDX 10 14 9 15 16 16 17 18 18 19 23 20 19 21 22 22 20 23 21 24
REMARK H PARENT 16 17
ROOT
ATOM      1  C   UNL     1      -1.732  -0.881  -2.642  1.00  0.00     0.247 C 
ENDROOT
BRANCH   1   2
ATOM      2  N   UNL     1      -0.737  -0.220  -1.774  1.00  0.00    -0.250 N 
ATOM      3  O   UNL     1      -1.144   1.954  -2.644  1.00  0.00    -0.261 OA
ATOM      4  C   UNL     1      -0.643   1.197  -1.825  1.00  0.00     0.295 C 
ATOM      5  S   UNL     1       0.362   1.698  -0.443  1.00  0.00    -0.022 SA
ATOM      6  C   UNL     1       1.054   0.065  -0.171  1.00  0.00     0.083 C 
ATOM      7  C   UNL     1       0.150  -0.817  -0.910  1.00  0.00     0.269 C 
ATOM      8  C   UNL     1       2.129  -0.207   0.540  1.00  0.00     0.029 C 
ATOM      9  O   UNL     1       0.263  -2.075  -0.691  1.00  0.00    -0.268 OA
BRANCH   8  10
ATOM     10  C   UNL     1       2.882   0.847   1.198  1.00  0.00    -0.024 A 
ATOM     11  C   UNL     1       2.325   1.920   1.863  1.00  0.00     0.008 A 
ATOM     12  C   UNL     1       4.272   0.804   1.165  1.00  0.00     0.008 A 
ATOM     13  C   UNL     1       3.095   2.896   2.460  1.00  0.00     0.001 A 
ATOM     14  C   UNL     1       5.046   1.777   1.760  1.00  0.00     0.001 A 
ATOM     15  C   UNL     1       4.468   2.853   2.426  1.00  0.00     0.000 A 
ENDBRANCH   8  10
ENDBRANCH   1   2
BRANCH   1  16
ATOM     16  N   UNL     1      -3.010  -1.000  -2.030  1.00  0.00    -0.367 N 
ATOM     17  H   UNL     1      -3.697  -0.197  -2.247  1.00  0.00     0.162 HD
BRANCH  16  18
ATOM     18  C   UNL     1      -3.488  -2.007  -1.197  1.00  0.00     0.035 A 
ATOM     19  C   UNL     1      -2.840  -3.176  -0.875  1.00  0.00     0.027 A 
ATOM     20  C   UNL     1      -4.733  -1.845  -0.571  1.00  0.00     0.027 A 
ATOM     21  C   UNL     1      -3.361  -4.110  -0.012  1.00  0.00     0.017 A 
ATOM     22  C   UNL     1      -5.274  -2.752   0.286  1.00  0.00     0.017 A 
ATOM     23  C   UNL     1      -4.581  -3.908   0.576  1.00  0.00     0.013 A 
ATOM     24  I   UNL     1      -5.437  -5.293   1.900  1.00  0.00    -0.044 I 
ENDBRANCH  16  18
ENDBRANCH   1  16
TORSDOF 4
