REMARK SMILES O=[N+]([O-])c1cc([N+](=O)[O-])c2cccnc2c1N1CCOCC1
REMARK SMILES IDX 4 1 5 2 6 3 10 4 11 5 12 6 13 7 14 8 15 9 16 10 2 11 1 12
REMARK SMILES IDX 3 13 17 14 18 15 22 16 19 17 21 18 20 19 7 20 8 21 9 22
REMARK H PARENT
ROOT
ATOM      1  C   UNL     1      -0.676   1.280   0.596  1.00  0.00     0.301 A 
ATOM      2  C   UNL     1       0.333   2.204   0.735  1.00  0.00     0.174 A 
ATOM      3  C   UNL     1       1.626   1.915   0.352  1.00  0.00     0.285 A 
ATOM      4  C   UNL     1       1.907   0.675  -0.179  1.00  0.00     0.081 A 
ATOM      5  C   UNL     1       3.166   0.301  -0.577  1.00  0.00     0.019 A 
ATOM      6  C   UNL     1       3.361  -0.954  -1.088  1.00  0.00     0.021 A 
ATOM      7  C   UNL     1       2.290  -1.840  -1.202  1.00  0.00     0.112 A 
ATOM      8  N   UNL     1       1.065  -1.465  -0.810  1.00  0.00    -0.254 NA
ATOM      9  C   UNL     1       0.860  -0.252  -0.312  1.00  0.00     0.107 A 
ATOM     10  C   UNL     1      -0.445   0.023   0.068  1.00  0.00     0.143 A 
ENDROOT
BRANCH   1  11
ATOM     11  N   UNL     1      -1.993   1.611   1.006  1.00  0.00     0.065 N 
ATOM     12  O   UNL     1      -2.964   1.146   0.423  1.00  0.00    -0.258 OA
ATOM     13  O   UNL     1      -2.169   2.458   2.057  1.00  0.00    -0.258 OA
ENDBRANCH   1  11
BRANCH  10  14
ATOM     14  N   UNL     1      -1.481  -0.928  -0.077  1.00  0.00    -0.360 N 
ATOM     15  C   UNL     1      -2.332  -1.141  -1.191  1.00  0.00     0.145 C 
ATOM     16  C   UNL     1      -1.742  -1.810   1.036  1.00  0.00     0.145 C 
ATOM     17  C   UNL     1      -2.038  -2.523  -1.730  1.00  0.00     0.181 C 
ATOM     18  C   UNL     1      -1.713  -3.212   0.482  1.00  0.00     0.181 C 
ATOM     19  O   UNL     1      -1.409  -3.336  -0.836  1.00  0.00    -0.378 OA
ENDBRANCH  10  14
BRANCH   3  20
ATOM     20  N   UNL     1       2.655   2.900   0.516  1.00  0.00     0.063 N 
ATOM     21  O   UNL     1       2.480   3.716   1.485  1.00  0.00    -0.258 OA
ATOM     22  O   UNL     1       3.765   3.071  -0.209  1.00  0.00    -0.258 OA
ENDBRANCH   3  20
TORSDOF 3
