REMARK SMILES CCC(=O)Nc1sccc1C(=O)OC
REMARK SMILES IDX 6 1 7 2 8 3 9 4 10 5 5 6 3 7 4 8 2 10 1 11 11 12 12 13 13 14
REMARK SMILES IDX 14 15
REMARK H PARENT 5 9
ROOT
ATOM      1  C   UNL     1       0.499   0.514   1.282  1.00  0.00     0.110 A 
ATOM      2  S   UNL     1       0.235   0.954   2.928  1.00  0.00    -0.126 S 
ATOM      3  C   UNL     1       1.542  -0.151   3.580  1.00  0.00     0.068 A 
ATOM      4  C   UNL     1       2.025  -0.719   2.516  1.00  0.00     0.029 A 
ATOM      5  C   UNL     1       1.503  -0.393   1.314  1.00  0.00     0.094 A 
ENDROOT
BRANCH   1   6
ATOM      6  N   UNL     1      -0.234   1.037   0.122  1.00  0.00    -0.317 N 
ATOM      7  C   UNL     1      -1.407   0.406  -0.347  1.00  0.00     0.224 C 
ATOM      8  O   UNL     1      -1.812  -0.621   0.256  1.00  0.00    -0.275 OA
ATOM      9  H   UNL     1       0.170   1.878  -0.306  1.00  0.00     0.170 HD
BRANCH   7  10
ATOM     10  C   UNL     1      -2.179   0.891  -1.506  1.00  0.00     0.097 C 
ATOM     11  C   UNL     1      -3.361  -0.024  -1.715  1.00  0.00     0.014 C 
ENDBRANCH   7  10
ENDBRANCH   1   6
BRANCH   5  12
ATOM     12  C   UNL     1       1.980  -0.981   0.035  1.00  0.00     0.340 C 
ATOM     13  O   UNL     1       2.910  -1.825   0.025  1.00  0.00    -0.246 OA
BRANCH  12  14
ATOM     14  O   UNL     1       1.434  -0.635  -1.188  1.00  0.00    -0.465 OA
ATOM     15  C   UNL     1       1.879  -1.188  -2.410  1.00  0.00     0.282 C 
ENDBRANCH  12  14
ENDBRANCH   5  12
TORSDOF 4
