REMARK SMILES Cc1c(OCC(F)(F)F)ccnc1C[S+](O)c1nc2ccccc2[n-]1
REMARK SMILES IDX 1 1 2 2 3 3 10 4 11 5 12 6 13 7 4 8 5 9 6 10 7 11 8 12 9 13
REMARK SMILES IDX 14 14 15 15 16 16 17 18 18 19 25 20 19 21 24 22 20 23 23 24
REMARK SMILES IDX 21 25 22 26
REMARK H PARENT 16 17
ROOT
ATOM      1  C   UNL     1      -1.689   1.463   0.422  1.00  0.00     0.050 C 
ATOM      2  C   UNL     1      -0.336   1.288  -0.160  1.00  0.00     0.018 A 
ATOM      3  C   UNL     1       0.751   1.022   0.674  1.00  0.00     0.126 A 
ATOM      4  C   UNL     1       1.989   0.881   0.087  1.00  0.00     0.067 A 
ATOM      5  C   UNL     1       2.142   1.000  -1.273  1.00  0.00     0.115 A 
ATOM      6  N   UNL     1       1.085   1.253  -2.034  1.00  0.00    -0.256 NA
ATOM      7  C   UNL     1      -0.167   1.403  -1.520  1.00  0.00     0.100 A 
ENDROOT
BRANCH   3   8
ATOM      8  O   UNL     1       0.528   0.914   2.036  1.00  0.00    -0.484 OA
BRANCH   8   9
ATOM      9  C   UNL     1       1.550   0.646   2.951  1.00  0.00     0.344 C 
BRANCH   9  10
ATOM     10  C   UNL     1       0.931   0.609   4.333  1.00  0.00     0.422 C 
ATOM     11  F   UNL     1       1.949   0.342   5.232  1.00  0.00    -0.167 F 
ATOM     12  F   UNL     1      -0.019  -0.387   4.424  1.00  0.00    -0.167 F 
ATOM     13  F   UNL     1       0.378   1.829   4.660  1.00  0.00    -0.167 F 
ENDBRANCH   9  10
ENDBRANCH   8   9
ENDBRANCH   3   8
BRANCH   7  14
ATOM     14  C   UNL     1      -1.300   1.669  -2.453  1.00  0.00     0.380 C 
BRANCH  14  15
ATOM     15  S   UNL     1      -2.182   0.225  -2.705  1.00  0.00     0.181 S 
BRANCH  15  16
ATOM     16  O   UNL     1      -3.473   0.206  -3.679  1.00  0.00    -0.182 OA
ATOM     17  H   UNL     1      -4.303   0.401  -3.152  1.00  0.00     0.283 HD
ENDBRANCH  15  16
BRANCH  15  18
ATOM     18  C   UNL     1      -1.534  -1.255  -2.153  1.00  0.00     0.179 A 
ATOM     19  N   UNL     1      -0.673  -2.118  -2.708  1.00  0.00    -0.390 NA
ATOM     20  N   UNL     1      -1.857  -1.799  -0.947  1.00  0.00    -0.390 NA
ATOM     21  C   UNL     1      -0.470  -3.155  -1.878  1.00  0.00    -0.035 A 
ATOM     22  C   UNL     1      -1.225  -2.958  -0.748  1.00  0.00    -0.035 A 
ATOM     23  C   UNL     1       0.310  -4.306  -1.950  1.00  0.00     0.004 A 
ATOM     24  C   UNL     1      -1.207  -3.888   0.295  1.00  0.00     0.004 A 
ATOM     25  C   UNL     1       0.342  -5.231  -0.938  1.00  0.00     0.000 A 
ATOM     26  C   UNL     1      -0.421  -5.017   0.188  1.00  0.00     0.000 A 
ENDBRANCH  15  18
ENDBRANCH  14  15
ENDBRANCH   7  14
TORSDOF 7
