REMARK SMILES CCOc1ccc2c3c(cccc13)C(=O)C=C2C
REMARK SMILES IDX 3 1 2 2 1 3 4 4 5 5 13 6 6 7 12 8 8 9 7 10 11 11 9 12 17 13
REMARK SMILES IDX 10 14 14 15 16 16 15 17 18 18
REMARK H PARENT
ROOT
ATOM      1  O   UNL     1      -0.672   2.233   1.000  1.00  0.00    -0.493 OA
ENDROOT
BRANCH   1   2
ATOM      2  C   UNL     1      -1.624   2.506   1.997  1.00  0.00     0.226 C 
ATOM      3  C   UNL     1      -3.013   2.079   1.592  1.00  0.00     0.049 C 
ENDBRANCH   1   2
BRANCH   1   4
ATOM      4  C   UNL     1      -0.381   0.939   0.526  1.00  0.00     0.127 A 
ATOM      5  C   UNL     1      -1.015  -0.181   1.019  1.00  0.00     0.048 A 
ATOM      6  C   UNL     1       0.563   0.752  -0.460  1.00  0.00     0.025 A 
ATOM      7  C   UNL     1      -0.728  -1.460   0.553  1.00  0.00     0.013 A 
ATOM      8  C   UNL     1       1.216   1.849  -0.975  1.00  0.00     0.012 A 
ATOM      9  C   UNL     1       0.841  -0.517  -0.916  1.00  0.00     0.004 A 
ATOM     10  C   UNL     1       0.206  -1.646  -0.423  1.00  0.00    -0.014 A 
ATOM     11  C   UNL     1       2.158   1.641  -1.963  1.00  0.00     0.002 A 
ATOM     12  C   UNL     1       1.792  -0.735  -1.914  1.00  0.00     0.030 A 
ATOM     13  C   UNL     1       0.472  -3.001  -0.879  1.00  0.00    -0.039 C 
ATOM     14  C   UNL     1       2.438   0.373  -2.421  1.00  0.00     0.013 A 
ATOM     15  C   UNL     1       2.082  -2.078  -2.392  1.00  0.00     0.186 C 
ATOM     16  C   UNL     1       1.372  -3.218  -1.825  1.00  0.00     0.056 C 
ATOM     17  O   UNL     1       2.954  -2.216  -3.299  1.00  0.00    -0.289 OA
ATOM     18  C   UNL     1      -0.231  -4.165  -0.321  1.00  0.00     0.045 C 
ENDBRANCH   1   4
TORSDOF 2
