REMARK SMILES CCOc1cc2c(cc1OCC)C(c1ccc3ccccc3c1)NCC2
REMARK SMILES IDX 4 1 5 2 6 3 7 4 8 5 9 6 13 7 24 8 25 9 26 10 3 12 2 13 1 14
REMARK SMILES IDX 10 15 11 16 12 17 14 18 15 19 23 20 16 21 22 22 17 23 21 24
REMARK SMILES IDX 18 25 20 26 19 27
REMARK H PARENT 24 11
ROOT
ATOM      1  C   UNL     1       1.657   1.775   0.091  1.00  0.00     0.161 A 
ATOM      2  C   UNL     1       1.276   1.885  -1.228  1.00  0.00     0.054 A 
ATOM      3  C   UNL     1       0.603   0.890  -1.928  1.00  0.00    -0.038 A 
ATOM      4  C   UNL     1       0.311  -0.267  -1.240  1.00  0.00    -0.019 A 
ATOM      5  C   UNL     1       0.663  -0.444   0.084  1.00  0.00     0.056 A 
ATOM      6  C   UNL     1       1.327   0.568   0.734  1.00  0.00     0.161 A 
ATOM      7  C   UNL     1      -0.404  -1.395  -1.888  1.00  0.00     0.115 C 
ATOM      8  N   UNL     1      -1.108  -0.846  -3.033  1.00  0.00    -0.306 NA
ATOM      9  C   UNL     1      -0.195  -0.203  -3.956  1.00  0.00     0.086 C 
ATOM     10  C   UNL     1       0.237   1.114  -3.361  1.00  0.00     0.051 C 
ATOM     11  H   UNL     1      -1.641  -1.623  -3.460  1.00  0.00     0.123 HD
ENDROOT
BRANCH   1  12
ATOM     12  O   UNL     1       2.329   2.764   0.790  1.00  0.00    -0.490 OA
BRANCH  12  13
ATOM     13  C   UNL     1       2.681   3.962   0.151  1.00  0.00     0.226 C 
ATOM     14  C   UNL     1       3.628   3.748  -1.004  1.00  0.00     0.049 C 
ENDBRANCH  12  13
ENDBRANCH   1  12
BRANCH   6  15
ATOM     15  O   UNL     1       1.718   0.470   2.067  1.00  0.00    -0.490 OA
BRANCH  15  16
ATOM     16  C   UNL     1       1.493  -0.634   2.889  1.00  0.00     0.226 C 
ATOM     17  C   UNL     1       2.119  -1.903   2.401  1.00  0.00     0.049 C 
ENDBRANCH  15  16
ENDBRANCH   6  15
BRANCH   7  18
ATOM     18  C   UNL     1      -1.439  -1.985  -0.984  1.00  0.00    -0.026 A 
ATOM     19  C   UNL     1      -2.608  -1.316  -0.685  1.00  0.00     0.006 A 
ATOM     20  C   UNL     1      -1.276  -3.226  -0.404  1.00  0.00     0.014 A 
ATOM     21  C   UNL     1      -3.572  -1.851   0.149  1.00  0.00     0.009 A 
ATOM     22  C   UNL     1      -2.240  -3.773   0.437  1.00  0.00    -0.018 A 
ATOM     23  C   UNL     1      -3.401  -3.088   0.722  1.00  0.00    -0.018 A 
ATOM     24  C   UNL     1      -2.075  -5.016   1.017  1.00  0.00     0.009 A 
ATOM     25  C   UNL     1      -4.344  -3.657   1.563  1.00  0.00     0.009 A 
ATOM     26  C   UNL     1      -3.013  -5.584   1.854  1.00  0.00     0.001 A 
ATOM     27  C   UNL     1      -4.179  -4.899   2.142  1.00  0.00     0.001 A 
ENDBRANCH   7  18
TORSDOF 5
