REMARK SMILES CCN1C(=O)/C(=C\c2ccccn2)SC1=S
REMARK SMILES IDX 3 1 4 2 5 3 6 4 7 5 14 6 15 7 16 8 2 9 1 10 8 11 9 12 13 13
REMARK SMILES IDX 10 14 12 15 11 16
REMARK H PARENT
ROOT
ATOM      1  N   UNL     1      -2.319   0.022   0.212  1.00  0.00    -0.293 N 
ATOM      2  C   UNL     1      -0.945  -0.283   0.149  1.00  0.00     0.266 C 
ATOM      3  O   UNL     1      -0.330  -0.791  -0.869  1.00  0.00    -0.268 OA
ATOM      4  C   UNL     1      -0.188   0.013   1.351  1.00  0.00     0.082 C 
ATOM      5  C   UNL     1       1.090   0.209   1.542  1.00  0.00     0.049 C 
ATOM      6  S   UNL     1      -1.499   0.073   2.619  1.00  0.00    -0.054 SA
ATOM      7  C   UNL     1      -2.776   0.568   1.425  1.00  0.00     0.148 C 
ATOM      8  S   UNL     1      -4.094   1.441   1.796  1.00  0.00    -0.052 S 
ENDROOT
BRANCH   1   9
ATOM      9  C   UNL     1      -3.260  -0.202  -0.909  1.00  0.00     0.124 C 
ATOM     10  C   UNL     1      -3.870  -1.563  -0.845  1.00  0.00     0.028 C 
ENDBRANCH   1   9
BRANCH   5  11
ATOM     11  C   UNL     1       2.042   0.152   0.440  1.00  0.00     0.064 A 
ATOM     12  C   UNL     1       3.244  -0.479   0.694  1.00  0.00     0.028 A 
ATOM     13  N   UNL     1       1.806   0.687  -0.760  1.00  0.00    -0.257 NA
ATOM     14  C   UNL     1       4.201  -0.562  -0.279  1.00  0.00     0.004 A 
ATOM     15  C   UNL     1       2.738   0.608  -1.715  1.00  0.00     0.111 A 
ATOM     16  C   UNL     1       3.949  -0.008  -1.514  1.00  0.00     0.020 A 
ENDBRANCH   5  11
TORSDOF 2
