REMARK SMILES CCN1C(=O)C(=Cc2ccccn2)SC1=S
REMARK SMILES IDX 3 1 4 2 5 3 6 4 7 5 14 6 15 7 16 8 2 9 1 10 8 11 9 12 13 13
REMARK SMILES IDX 10 14 12 15 11 16
REMARK H PARENT
ROOT
ATOM      1  N   UNL     1      -2.297   0.140   0.371  1.00  0.00    -0.293 N 
ATOM      2  C   UNL     1      -1.007  -0.331   0.115  1.00  0.00     0.266 C 
ATOM      3  O   UNL     1      -0.587  -0.624  -1.076  1.00  0.00    -0.268 OA
ATOM      4  C   UNL     1      -0.147  -0.477   1.279  1.00  0.00     0.082 C 
ATOM      5  C   UNL     1       1.140  -0.541   1.437  1.00  0.00     0.049 C 
ATOM      6  S   UNL     1      -1.385  -0.559   2.629  1.00  0.00    -0.054 SA
ATOM      7  C   UNL     1      -2.609   0.415   1.718  1.00  0.00     0.148 C 
ATOM      8  S   UNL     1      -3.741   1.342   2.410  1.00  0.00    -0.052 S 
ENDROOT
BRANCH   1   9
ATOM      9  C   UNL     1      -3.302   0.351  -0.697  1.00  0.00     0.124 C 
ATOM     10  C   UNL     1      -4.123  -0.885  -0.928  1.00  0.00     0.028 C 
ENDBRANCH   1   9
BRANCH   5  11
ATOM     11  C   UNL     1       2.119  -0.474   0.361  1.00  0.00     0.064 A 
ATOM     12  C   UNL     1       3.297   0.253   0.549  1.00  0.00     0.028 A 
ATOM     13  N   UNL     1       1.953  -1.095  -0.811  1.00  0.00    -0.257 NA
ATOM     14  C   UNL     1       4.245   0.331  -0.423  1.00  0.00     0.004 A 
ATOM     15  C   UNL     1       2.858  -1.043  -1.788  1.00  0.00     0.111 A 
ATOM     16  C   UNL     1       4.016  -0.329  -1.606  1.00  0.00     0.020 A 
ENDBRANCH   5  11
TORSDOF 2
