REMARK SMILES COc1ccc(C(=O)Nc2ccccc2)cc1C
REMARK SMILES IDX 3 1 4 2 5 3 6 4 16 5 17 6 18 7 2 8 1 9 7 10 8 11 9 12 10 14
REMARK SMILES IDX 11 15 15 16 12 17 14 18 13 19
REMARK H PARENT 9 13
ROOT
ATOM      1  C   UNL     1      -3.007  -0.162   1.692  1.00  0.00     0.121 A 
ATOM      2  C   UNL     1      -2.197   0.881   1.298  1.00  0.00     0.047 A 
ATOM      3  C   UNL     1      -1.044   0.687   0.541  1.00  0.00     0.017 A 
ATOM      4  C   UNL     1      -0.709  -0.587   0.180  1.00  0.00     0.040 A 
ATOM      5  C   UNL     1      -1.521  -1.629   0.576  1.00  0.00     0.021 A 
ATOM      6  C   UNL     1      -2.652  -1.430   1.319  1.00  0.00    -0.008 A 
ATOM      7  C   UNL     1      -3.500  -2.608   1.723  1.00  0.00     0.048 C 
ENDROOT
BRANCH   1   8
ATOM      8  O   UNL     1      -4.154   0.049   2.447  1.00  0.00    -0.496 OA
ATOM      9  C   UNL     1      -4.483   1.373   2.811  1.00  0.00     0.278 C 
ENDBRANCH   1   8
BRANCH   4  10
ATOM     10  C   UNL     1       0.494  -0.904  -0.623  1.00  0.00     0.255 C 
ATOM     11  O   UNL     1       0.692  -2.105  -0.888  1.00  0.00    -0.269 OA
ATOM     12  N   UNL     1       1.407   0.056  -1.093  1.00  0.00    -0.322 N 
ATOM     13  H   UNL     1       1.174   1.049  -0.829  1.00  0.00     0.170 HD
BRANCH  12  14
ATOM     14  C   UNL     1       2.572  -0.159  -1.859  1.00  0.00     0.041 A 
ATOM     15  C   UNL     1       3.049  -1.363  -2.303  1.00  0.00     0.026 A 
ATOM     16  C   UNL     1       3.341   0.955  -2.220  1.00  0.00     0.026 A 
ATOM     17  C   UNL     1       4.222  -1.464  -3.062  1.00  0.00     0.002 A 
ATOM     18  C   UNL     1       4.493   0.860  -2.964  1.00  0.00     0.002 A 
ATOM     19  C   UNL     1       4.956  -0.361  -3.401  1.00  0.00     0.000 A 
ENDBRANCH  12  14
ENDBRANCH   4  10
TORSDOF 3
