REMARK SMILES C1CCCCCC2(CCCCC1)OCC(CN1CCCC1)O2
REMARK SMILES IDX 7 1 13 2 14 3 15 4 22 5 8 6 9 7 10 8 11 9 12 10 1 11 6 13
REMARK SMILES IDX 5 14 4 15 3 16 2 17 16 19 17 20 18 21 21 22 19 23 20 24
REMARK H PARENT
REMARK Flexibility Score:   35.900
ROOT
ATOM      1  C   UNL     1      -0.582   0.061   0.401  1.00  0.00     0.168 C 
ATOM      2  O   UNL     1      -0.926   1.232   1.056  1.00  0.00    -0.347 OA
ATOM      3  C   UNL     1      -1.595   2.074   0.212  1.00  0.00     0.197 C 
ATOM      4  C   UNL     1      -1.177   1.612  -1.121  1.00  0.00     0.161 C 
ATOM      5  O   UNL     1      -0.451   0.462  -0.890  1.00  0.00    -0.343 OA
ENDROOT
BRANCH   1   6
ATOM      6  C   UNL     1       0.627  -0.506   1.038  1.00  0.00     0.066 C 
BRANCH   6   7
ATOM      7  C   UNL     1       1.162  -1.809   0.939  1.00  0.00     0.006 C 
BRANCH   7   8
ATOM      8  C   UNL     1       1.689  -2.541  -0.237  1.00  0.00     0.000 C 
BRANCH   8   9
ATOM      9  C   UNL     1       1.980  -3.984   0.056  1.00  0.00     0.000 C 
BRANCH   9  10
ATOM     10  C   UNL     1       0.965  -5.023   0.098  1.00  0.00     0.000 C 
BRANCH  10  11
ATOM     11  C   UNL     1      -0.349  -4.897   0.803  1.00  0.00     0.000 CG0
ATOM     12  G   UNL     1      -1.234  -4.065  -0.065  1.00  0.00     0.000 G0
ENDBRANCH  10  11
ENDBRANCH   9  10
ENDBRANCH   8   9
ENDBRANCH   7   8
ENDBRANCH   6   7
ENDBRANCH   1   6
BRANCH   1  13
ATOM     13  C   UNL     1      -1.811  -0.832   0.485  1.00  0.00     0.066 C 
BRANCH  13  14
ATOM     14  C   UNL     1      -1.907  -1.643   1.705  1.00  0.00     0.006 C 
BRANCH  14  15
ATOM     15  C   UNL     1      -2.816  -2.838   1.534  1.00  0.00     0.000 C 
BRANCH  15  16
ATOM     16  C   UNL     1      -2.564  -3.650   0.336  1.00  0.00     0.000 C 
BRANCH  16  17
ATOM     17  C   UNL     1      -1.234  -4.065  -0.065  1.00  0.00     0.000 CG0
ATOM     18  G   UNL     1      -0.349  -4.897   0.803  1.00  0.00     0.000 G0
ENDBRANCH  16  17
ENDBRANCH  15  16
ENDBRANCH  14  15
ENDBRANCH  13  14
ENDBRANCH   1  13
BRANCH   4  19
ATOM     19  C   UNL     1      -0.350   2.586  -1.879  1.00  0.00     0.119 C 
BRANCH  19  20
ATOM     20  N   UNL     1       0.881   2.948  -1.308  1.00  0.00    -0.301 NA
ATOM     21  C   UNL     1       1.002   3.717  -0.169  1.00  0.00     0.084 C 
ATOM     22  C   UNL     1       1.832   3.437  -2.293  1.00  0.00     0.084 C 
ATOM     23  C   UNL     1       2.453   4.228  -0.164  1.00  0.00     0.017 C 
ATOM     24  C   UNL     1       3.072   3.595  -1.413  1.00  0.00     0.017 C 
ENDBRANCH  19  20
ENDBRANCH   4  19
TORSDOF 2
