REMARK SMILES Cc1[n-]n(-c2ccccc2)c(=O)c1NN=C1C=CC(=O)C=C1
REMARK SMILES IDX 1 1 2 2 3 3 4 4 11 5 12 6 13 7 14 8 15 10 16 11 17 12 22 13
REMARK SMILES IDX 18 14 21 15 19 16 20 17 5 18 6 19 10 20 7 21 9 22 8 23
REMARK H PARENT 14 9
ROOT
ATOM      1  C   UNL     1      -0.818   0.602  -3.249  1.00  0.00     0.021 C 
ATOM      2  C   UNL     1      -0.004   0.295  -2.052  1.00  0.00    -0.119 A 
ATOM      3  N   UNL     1       0.915   1.077  -1.473  1.00  0.00    -0.589 NA
ATOM      4  N   UNL     1       1.453   0.486  -0.434  1.00  0.00    -0.382 N 
ATOM      5  C   UNL     1       0.856  -0.745  -0.327  1.00  0.00     0.261 A 
ATOM      6  O   UNL     1       1.120  -1.604   0.559  1.00  0.00    -0.268 OA
ATOM      7  C   UNL     1      -0.067  -0.897  -1.332  1.00  0.00     0.102 A 
ENDROOT
BRANCH   7   8
ATOM      8  N   UNL     1      -0.915  -2.024  -1.602  1.00  0.00    -0.274 N 
ATOM      9  H   UNL     1      -0.473  -2.963  -1.751  1.00  0.00     0.190 HD
BRANCH   8  10
ATOM     10  N   UNL     1      -2.292  -1.859  -1.669  1.00  0.00    -0.176 NA
ATOM     11  C   UNL     1      -3.010  -2.087  -0.639  1.00  0.00     0.084 C 
ATOM     12  C   UNL     1      -4.470  -1.925  -0.671  1.00  0.00     0.034 C 
ATOM     13  C   UNL     1      -2.435  -2.510   0.624  1.00  0.00     0.034 C 
ATOM     14  C   UNL     1      -5.241  -2.144   0.376  1.00  0.00     0.054 C 
ATOM     15  C   UNL     1      -3.183  -2.742   1.707  1.00  0.00     0.054 C 
ATOM     16  C   UNL     1      -4.613  -2.568   1.623  1.00  0.00     0.178 C 
ATOM     17  O   UNL     1      -5.328  -2.790   2.660  1.00  0.00    -0.290 OA
ENDBRANCH   8  10
ENDBRANCH   7   8
BRANCH   4  18
ATOM     18  C   UNL     1       2.459   0.944   0.461  1.00  0.00     0.030 A 
ATOM     19  C   UNL     1       2.348   2.128   1.141  1.00  0.00     0.025 A 
ATOM     20  C   UNL     1       3.570   0.175   0.648  1.00  0.00     0.025 A 
ATOM     21  C   UNL     1       3.347   2.562   2.020  1.00  0.00     0.002 A 
ATOM     22  C   UNL     1       4.571   0.608   1.526  1.00  0.00     0.002 A 
ATOM     23  C   UNL     1       4.466   1.800   2.216  1.00  0.00     0.000 A 
ENDBRANCH   4  18
TORSDOF 3
