REMARK SMILES CN1CCN(c2ccc([N+](=O)[O-])c3no[n+](O)c23)CC1
REMARK SMILES IDX 6 1 7 2 8 3 9 4 13 5 14 6 15 7 16 8 18 9 5 10 2 11 3 12
REMARK SMILES IDX 20 13 4 14 19 15 1 16 17 17 10 19 11 20 12 21
REMARK H PARENT 17 18
ROOT
ATOM      1  C   UNL     1       0.758  -0.237  -0.533  1.00  0.00     0.098 A 
ATOM      2  C   UNL     1       2.002  -0.717  -0.083  1.00  0.00     0.038 A 
ATOM      3  C   UNL     1       3.088  -0.585  -0.877  1.00  0.00     0.093 A 
ATOM      4  C   UNL     1       3.068   0.001  -2.130  1.00  0.00     0.329 A 
ATOM      5  C   UNL     1       1.844   0.467  -2.560  1.00  0.00     0.357 A 
ATOM      6  N   UNL     1       1.462   1.084  -3.696  1.00  0.00     0.176 NA
ATOM      7  O   UNL     1       0.195   1.329  -3.622  1.00  0.00    -0.041 OA
ATOM      8  N   UNL     1      -0.305   0.914  -2.499  1.00  0.00     0.138 N 
ATOM      9  C   UNL     1       0.705   0.358  -1.790  1.00  0.00     0.303 A 
ENDROOT
BRANCH   1  10
ATOM     10  N   UNL     1      -0.390  -0.378   0.262  1.00  0.00    -0.365 N 
ATOM     11  N   UNL     1      -2.002  -1.511   2.260  1.00  0.00    -0.303 NA
ATOM     12  C   UNL     1      -1.753  -2.238   1.047  1.00  0.00     0.105 C 
ATOM     13  C   UNL     1      -0.855  -0.748   2.621  1.00  0.00     0.105 C 
ATOM     14  C   UNL     1      -1.479  -1.257  -0.120  1.00  0.00     0.132 C 
ATOM     15  C   UNL     1      -0.600   0.305   1.536  1.00  0.00     0.132 C 
ATOM     16  C   UNL     1      -3.254  -0.841   2.338  1.00  0.00     0.105 C 
ENDBRANCH   1  10
BRANCH   8  17
ATOM     17  O   UNL     1      -1.589   0.996  -2.046  1.00  0.00    -0.316 OA
ATOM     18  H   UNL     1      -2.355   0.733  -2.648  1.00  0.00     0.363 HD
ENDBRANCH   8  17
BRANCH   4  19
ATOM     19  N   UNL     1       4.238   0.114  -2.926  1.00  0.00     0.067 N 
ATOM     20  O   UNL     1       4.136   0.072  -4.155  1.00  0.00    -0.258 OA
ATOM     21  O   UNL     1       5.445   0.266  -2.328  1.00  0.00    -0.258 OA
ENDBRANCH   4  19
TORSDOF 3
