REMARK SMILES CN1CCN(c2ccc([N+](=O)[O-])c3no[n+]([O-])c23)CC1
REMARK SMILES IDX 6 1 7 2 8 3 9 4 13 5 14 6 15 7 16 8 17 9 18 10 5 11 2 12
REMARK SMILES IDX 3 13 20 14 4 15 19 16 1 17 10 18 11 19 12 20
REMARK H PARENT
ROOT
ATOM      1  C   UNL     1       0.903  -0.283  -0.365  1.00  0.00     0.094 A 
ATOM      2  C   UNL     1       1.997   0.224   0.344  1.00  0.00     0.038 A 
ATOM      3  C   UNL     1       3.246   0.272  -0.224  1.00  0.00     0.093 A 
ATOM      4  C   UNL     1       3.480  -0.170  -1.507  1.00  0.00     0.327 A 
ATOM      5  C   UNL     1       2.395  -0.669  -2.205  1.00  0.00     0.327 A 
ATOM      6  N   UNL     1       2.267  -1.161  -3.437  1.00  0.00     0.054 NA
ATOM      7  O   UNL     1       1.032  -1.491  -3.627  1.00  0.00    -0.255 OA
ATOM      8  N   UNL     1       0.302  -1.253  -2.588  1.00  0.00    -0.036 N 
ATOM      9  O   UNL     1      -1.046  -1.458  -2.415  1.00  0.00    -0.359 OA
ATOM     10  C   UNL     1       1.112  -0.729  -1.646  1.00  0.00     0.256 A 
ENDROOT
BRANCH   1  11
ATOM     11  N   UNL     1      -0.377  -0.359   0.232  1.00  0.00    -0.365 N 
ATOM     12  N   UNL     1      -2.881  -0.506   1.638  1.00  0.00    -0.303 NA
ATOM     13  C   UNL     1      -2.501  -1.405   0.551  1.00  0.00     0.105 C 
ATOM     14  C   UNL     1      -2.014   0.629   1.757  1.00  0.00     0.105 C 
ATOM     15  C   UNL     1      -0.991  -1.608   0.634  1.00  0.00     0.132 C 
ATOM     16  C   UNL     1      -1.195   0.837   0.494  1.00  0.00     0.132 C 
ATOM     17  C   UNL     1      -4.254  -0.092   1.497  1.00  0.00     0.105 C 
ENDBRANCH   1  11
BRANCH   4  18
ATOM     18  N   UNL     1       4.746  -0.134  -2.116  1.00  0.00     0.067 N 
ATOM     19  O   UNL     1       5.804  -0.184  -1.467  1.00  0.00    -0.258 OA
ATOM     20  O   UNL     1       4.824  -0.040  -3.480  1.00  0.00    -0.258 OA
ENDBRANCH   4  18
TORSDOF 2
