REMARK SMILES O=c1ccoc2c(Br)cc(Cl)cc12
REMARK SMILES IDX 1 1 2 2 3 3 4 4 5 5 6 6 7 7 8 8 9 9 10 10 11 11 12 12 13 13
REMARK H PARENT
ROOT
ATOM      1  O   UNL     1      -1.725  -0.225  -2.303  1.00  0.00    -0.289 OA
ATOM      2  C   UNL     1      -1.316  -0.423  -1.132  1.00  0.00     0.192 A 
ATOM      3  C   UNL     1      -2.028  -1.255  -0.293  1.00  0.00     0.091 A 
ATOM      4  C   UNL     1      -1.554  -1.456   0.996  1.00  0.00     0.200 A 
ATOM      5  O   UNL     1      -0.453  -0.851   1.369  1.00  0.00    -0.463 OA
ATOM      6  C   UNL     1       0.243  -0.055   0.592  1.00  0.00     0.151 A 
ATOM      7  C   UNL     1       1.409   0.567   1.029  1.00  0.00     0.062 A 
ATOM      8  Br  UNL     1       1.960   0.218   2.813  1.00  0.00    -0.047 Br
ATOM      9  C   UNL     1       2.153   1.406   0.226  1.00  0.00     0.040 A 
ATOM     10  C   UNL     1       1.739   1.650  -1.068  1.00  0.00     0.043 A 
ATOM     11  Cl  UNL     1       2.694   2.718  -2.075  1.00  0.00    -0.084 Cl
ATOM     12  C   UNL     1       0.580   1.038  -1.519  1.00  0.00     0.036 A 
ATOM     13  C   UNL     1      -0.161   0.200  -0.713  1.00  0.00     0.067 A 
ENDROOT
TORSDOF 0
