REMARK SMILES Cc1cccc(OC(C)C(=O)[NH+]2CC[NH+](Cc3ccccc3)CC2)c1
REMARK SMILES IDX 10 1 11 2 8 3 9 4 7 5 6 6 2 7 3 8 25 9 4 10 5 11 1 12 12 13
REMARK SMILES IDX 13 14 24 15 14 16 23 17 15 18 16 21 17 22 18 23 22 24 19 25
REMARK SMILES IDX 21 26 20 27
REMARK H PARENT 12 19 15 20
ROOT
ATOM      1  C   UNL     1       0.556   0.007   0.500  1.00  0.00     0.352 C 
ATOM      2  O   UNL     1       1.073  -1.073   0.348  1.00  0.00    -0.227 OA
ENDROOT
BRANCH   1   3
ATOM      3  C   UNL     1      -0.096   0.022   1.802  1.00  0.00     0.299 C 
ATOM      4  C   UNL     1      -1.071  -1.169   1.864  1.00  0.00     0.068 C 
BRANCH   3   5
ATOM      5  O   UNL     1      -0.819   1.113   2.216  1.00  0.00    -0.477 OA
BRANCH   5   6
ATOM      6  C   UNL     1      -0.764   1.837   3.380  1.00  0.00     0.121 A 
ATOM      7  C   UNL     1      -1.663   3.679   4.626  1.00  0.00    -0.047 A 
ATOM      8  C   UNL     1      -0.790   3.413   5.676  1.00  0.00     0.003 A 
ATOM      9  C   UNL     1      -1.660   2.911   3.492  1.00  0.00     0.049 A 
ATOM     10  C   UNL     1       0.083   2.370   5.572  1.00  0.00     0.004 A 
ATOM     11  C   UNL     1       0.079   1.605   4.431  1.00  0.00     0.046 A 
ATOM     12  C   UNL     1      -2.596   4.820   4.776  1.00  0.00     0.044 C 
ENDBRANCH   5   6
ENDBRANCH   3   5
ENDBRANCH   1   3
BRANCH   1  13
ATOM     13  N   UNL     1       0.938   0.519  -0.692  1.00  0.00    -0.259 N 
ATOM     14  C   UNL     1       0.056   0.224  -1.745  1.00  0.00     0.332 C 
ATOM     15  C   UNL     1       2.220   0.001  -1.305  1.00  0.00     0.332 C 
ATOM     16  C   UNL     1      -0.229  -1.221  -1.870  1.00  0.00     0.325 C 
ATOM     17  C   UNL     1       2.180  -1.385  -1.738  1.00  0.00     0.325 C 
ATOM     18  N   UNL     1       0.958  -1.981  -2.171  1.00  0.00    -0.322 N 
ATOM     19  H   UNL     1       1.318   1.435  -0.567  1.00  0.00     0.357 HD
ATOM     20  H   UNL     1       0.834  -2.897  -1.689  1.00  0.00     0.348 HD
BRANCH  18  21
ATOM     21  C   UNL     1       0.935  -2.258  -3.593  1.00  0.00     0.299 C 
BRANCH  21  22
ATOM     22  C   UNL     1       0.559  -3.683  -3.767  1.00  0.00     0.006 A 
ATOM     23  C   UNL     1      -0.759  -4.086  -3.901  1.00  0.00     0.009 A 
ATOM     24  C   UNL     1       1.541  -4.683  -3.802  1.00  0.00     0.009 A 
ATOM     25  C   UNL     1      -1.040  -5.426  -4.060  1.00  0.00     0.001 A 
ATOM     26  C   UNL     1       1.245  -6.012  -3.961  1.00  0.00     0.001 A 
ATOM     27  C   UNL     1      -0.064  -6.397  -4.093  1.00  0.00     0.000 A 
ENDBRANCH  21  22
ENDBRANCH  18  21
ENDBRANCH   1  13
TORSDOF 6
