REMARK SMILES Cc1cccc(OC(C)C(=O)N2CC[NH+](Cc3ccccc3)CC2)c1
REMARK SMILES IDX 8 1 9 2 7 3 6 4 2 5 3 6 25 7 4 8 5 9 1 10 10 11 11 12 12 13
REMARK SMILES IDX 13 14 24 15 14 16 23 17 15 18 16 20 17 21 18 22 22 23 19 24
REMARK SMILES IDX 21 25 20 26
REMARK H PARENT 15 19
ROOT
ATOM      1  C   UNL     1       2.176  -1.559   1.323  1.00  0.00     0.259 C 
ATOM      2  C   UNL     1       2.272  -3.062   0.993  1.00  0.00     0.064 C 
ENDROOT
BRANCH   1   3
ATOM      3  O   UNL     1       1.067  -1.188   1.964  1.00  0.00    -0.481 OA
BRANCH   3   4
ATOM      4  C   UNL     1       0.706  -0.750   3.184  1.00  0.00     0.120 A 
ATOM      5  C   UNL     1      -1.145  -0.028   4.581  1.00  0.00    -0.047 A 
ATOM      6  C   UNL     1      -0.287   0.176   5.649  1.00  0.00     0.003 A 
ATOM      7  C   UNL     1      -0.641  -0.479   3.390  1.00  0.00     0.049 A 
ATOM      8  C   UNL     1       1.055  -0.087   5.464  1.00  0.00     0.004 A 
ATOM      9  C   UNL     1       1.552  -0.547   4.241  1.00  0.00     0.046 A 
ATOM     10  C   UNL     1      -2.599   0.261   4.790  1.00  0.00     0.044 C 
ENDBRANCH   3   4
ENDBRANCH   1   3
BRANCH   1  11
ATOM     11  C   UNL     1       2.557  -0.879   0.064  1.00  0.00     0.263 C 
ATOM     12  O   UNL     1       3.657  -1.329  -0.424  1.00  0.00    -0.271 OA
ATOM     13  N   UNL     1       1.905   0.130  -0.617  1.00  0.00    -0.328 N 
ATOM     14  C   UNL     1       0.676   0.802  -0.291  1.00  0.00     0.181 C 
ATOM     15  C   UNL     1       2.502   0.633  -1.869  1.00  0.00     0.181 C 
ATOM     16  C   UNL     1      -0.366   0.364  -1.258  1.00  0.00     0.284 C 
ATOM     17  C   UNL     1       1.386   0.785  -2.886  1.00  0.00     0.284 C 
ATOM     18  N   UNL     1       0.218   0.018  -2.512  1.00  0.00    -0.328 N 
ATOM     19  H   UNL     1       0.532  -0.998  -2.533  1.00  0.00     0.348 HD
BRANCH  18  20
ATOM     20  C   UNL     1      -0.787   0.204  -3.546  1.00  0.00     0.299 C 
BRANCH  20  21
ATOM     21  C   UNL     1      -1.602  -1.041  -3.645  1.00  0.00     0.006 A 
ATOM     22  C   UNL     1      -1.200  -2.031  -4.510  1.00  0.00     0.009 A 
ATOM     23  C   UNL     1      -2.748  -1.257  -2.909  1.00  0.00     0.009 A 
ATOM     24  C   UNL     1      -1.933  -3.207  -4.631  1.00  0.00     0.001 A 
ATOM     25  C   UNL     1      -3.484  -2.424  -3.022  1.00  0.00     0.001 A 
ATOM     26  C   UNL     1      -3.079  -3.419  -3.892  1.00  0.00     0.000 A 
ENDBRANCH  20  21
ENDBRANCH  18  20
ENDBRANCH   1  11
TORSDOF 5
