REMARK SMILES CC(C)OCCCNC(=O)c1ccc(I)cc1
REMARK SMILES IDX 6 1 5 2 4 3 2 4 1 5 3 6 7 7 8 8 9 9 10 10 11 12 12 13 17 14
REMARK SMILES IDX 13 15 16 16 14 17 15 18
REMARK H PARENT 8 11
ROOT
ATOM      1  C   UNL     1       1.368  -0.723   1.939  1.00  0.00     0.050 C 
ENDROOT
BRANCH   1   2
ATOM      2  C   UNL     1      -0.034  -0.231   2.127  1.00  0.00     0.162 C 
BRANCH   2   3
ATOM      3  O   UNL     1      -0.919  -1.178   2.567  1.00  0.00    -0.379 OA
BRANCH   3   4
ATOM      4  C   UNL     1      -2.166  -0.587   2.695  1.00  0.00     0.112 C 
ATOM      5  C   UNL     1      -3.177  -1.199   1.737  1.00  0.00     0.038 C 
ATOM      6  C   UNL     1      -2.688  -0.646   4.114  1.00  0.00     0.038 C 
ENDBRANCH   3   4
ENDBRANCH   2   3
ENDBRANCH   1   2
BRANCH   1   7
ATOM      7  C   UNL     1       1.506  -1.828   0.952  1.00  0.00     0.118 C 
BRANCH   7   8
ATOM      8  N   UNL     1       1.064  -1.474  -0.376  1.00  0.00    -0.352 N 
ATOM      9  C   UNL     1       1.648  -0.413  -1.113  1.00  0.00     0.251 C 
ATOM     10  O   UNL     1       2.583   0.212  -0.544  1.00  0.00    -0.269 OA
ATOM     11  H   UNL     1       0.289  -2.008  -0.822  1.00  0.00     0.163 HD
BRANCH   9  12
ATOM     12  C   UNL     1       1.209  -0.060  -2.434  1.00  0.00     0.039 A 
ATOM     13  C   UNL     1       1.825   1.000  -3.116  1.00  0.00     0.015 A 
ATOM     14  C   UNL     1       0.210  -0.684  -3.115  1.00  0.00     0.015 A 
ATOM     15  C   UNL     1       1.435   1.371  -4.384  1.00  0.00     0.015 A 
ATOM     16  C   UNL     1      -0.199  -0.323  -4.396  1.00  0.00     0.015 A 
ATOM     17  C   UNL     1       0.422   0.708  -5.024  1.00  0.00     0.013 A 
ATOM     18  I   UNL     1      -0.221   1.230  -6.967  1.00  0.00    -0.044 I 
ENDBRANCH   9  12
ENDBRANCH   7   8
ENDBRANCH   1   7
TORSDOF 6
