REMARK SMILES Nc1nc(N)c(C(=O)NC(=[NH2+])Nc2ccccc2)nc1Cl
REMARK SMILES IDX 2 1 3 2 4 3 6 4 19 5 20 6 21 7 1 8 5 11 7 14 8 15 9 16 10 17
REMARK SMILES IDX 11 18 12 19 13 24 14 25 18 26 15 27 17 28 16 29
REMARK H PARENT 1 9 1 10 5 12 5 13 9 20 11 21 11 22 12 23
ROOT
ATOM      1  C   UNL     1      -0.297  -2.036   4.983  1.00  0.00     0.163 A 
ATOM      2  N   UNL     1       0.619  -1.055   4.935  1.00  0.00    -0.209 NA
ATOM      3  C   UNL     1       0.810  -0.372   3.769  1.00  0.00     0.159 A 
ATOM      4  C   UNL     1       0.080  -0.672   2.646  1.00  0.00     0.188 A 
ATOM      5  N   UNL     1      -0.842  -1.660   2.696  1.00  0.00    -0.222 NA
ATOM      6  C   UNL     1      -1.028  -2.334   3.853  1.00  0.00     0.172 A 
ATOM      7  Cl  UNL     1      -2.236  -3.618   3.892  1.00  0.00    -0.058 Cl
ENDROOT
BRANCH   1   8
ATOM      8  N   UNL     1      -0.548  -2.790   6.166  1.00  0.00    -0.381 N 
ATOM      9  H   UNL     1       0.206  -3.160   6.787  1.00  0.00     0.158 HD
ATOM     10  H   UNL     1      -1.531  -3.010   6.473  1.00  0.00     0.158 HD
ENDBRANCH   1   8
BRANCH   3  11
ATOM     11  N   UNL     1       1.758   0.668   3.662  1.00  0.00    -0.382 N 
ATOM     12  H   UNL     1       2.762   0.440   3.633  1.00  0.00     0.158 HD
ATOM     13  H   UNL     1       1.438   1.645   3.613  1.00  0.00     0.158 HD
ENDBRANCH   3  11
BRANCH   4  14
ATOM     14  C   UNL     1       0.287   0.064   1.391  1.00  0.00     0.336 C 
ATOM     15  O   UNL     1       1.143   0.966   1.386  1.00  0.00    -0.248 OA
ATOM     16  N   UNL     1      -0.446  -0.222   0.227  1.00  0.00    -0.209 N 
ATOM     17  C   UNL     1      -0.300   0.444  -1.011  1.00  0.00     0.353 C 
ATOM     18  N   UNL     1       0.540   1.390  -1.164  1.00  0.00    -0.290 N 
ATOM     19  N   UNL     1      -1.089   0.079  -2.153  1.00  0.00    -0.245 N 
ATOM     20  H   UNL     1      -1.154  -0.992   0.312  1.00  0.00     0.270 HD
ATOM     21  H   UNL     1       1.187   1.781  -0.468  1.00  0.00     0.256 HD
ATOM     22  H   UNL     1       0.626   1.892  -2.109  1.00  0.00     0.256 HD
ATOM     23  H   UNL     1      -2.106  -0.135  -1.947  1.00  0.00     0.267 HD
BRANCH  19  24
ATOM     24  C   UNL     1      -0.579  -0.023  -3.467  1.00  0.00     0.099 A 
ATOM     25  C   UNL     1       0.720  -0.058  -3.835  1.00  0.00     0.043 A 
ATOM     26  C   UNL     1      -1.523  -0.077  -4.500  1.00  0.00     0.043 A 
ATOM     27  C   UNL     1       1.083  -0.144  -5.186  1.00  0.00     0.004 A 
ATOM     28  C   UNL     1      -1.182  -0.162  -5.826  1.00  0.00     0.004 A 
ATOM     29  C   UNL     1       0.142  -0.196  -6.192  1.00  0.00     0.000 A 
ENDBRANCH  19  24
ENDBRANCH   4  14
TORSDOF 4
