REMARK SMILES O=C(Nc1sc2c(c1C(=O)[O-])CCCCC2)c1ccccc1Cl
REMARK SMILES IDX 4 1 5 2 6 3 7 4 8 5 3 6 1 7 2 8 17 10 18 11 22 12 19 13
REMARK SMILES IDX 21 14 20 15 23 16 9 17 10 18 11 19 16 20 15 21 14 22 13 23
REMARK SMILES IDX 12 25
REMARK H PARENT 3 9
REMARK Flexibility Score:   21.900
ROOT
ATOM      1  C   UNL     1      -0.063  -0.474   0.189  1.00  0.00     0.105 A 
ATOM      2  S   UNL     1      -1.101   0.732  -0.493  1.00  0.00    -0.122 S 
ATOM      3  C   UNL     1       0.202   1.545  -1.464  1.00  0.00     0.011 A 
ATOM      4  C   UNL     1       1.315   0.799  -1.162  1.00  0.00    -0.023 A 
ATOM      5  C   UNL     1       1.148  -0.225  -0.315  1.00  0.00     0.035 A 
ENDROOT
BRANCH   1   6
ATOM      6  N   UNL     1      -0.498  -1.509   1.112  1.00  0.00    -0.313 N 
ATOM      7  O   UNL     1      -2.670  -0.777   1.091  1.00  0.00    -0.269 OA
ATOM      8  C   UNL     1      -1.836  -1.609   1.531  1.00  0.00     0.257 C 
ATOM      9  H   UNL     1       0.197  -2.167   1.452  1.00  0.00     0.171 HD
BRANCH   8  10
ATOM     10  C   UNL     1      -2.325  -2.626   2.453  1.00  0.00     0.058 A 
ATOM     11  C   UNL     1      -3.296  -3.516   2.027  1.00  0.00     0.015 A 
ATOM     12  C   UNL     1      -1.878  -2.764   3.747  1.00  0.00     0.053 A 
ATOM     13  C   UNL     1      -3.809  -4.504   2.838  1.00  0.00     0.001 A 
ATOM     14  C   UNL     1      -2.388  -3.757   4.575  1.00  0.00     0.021 A 
ATOM     15  C   UNL     1      -3.360  -4.643   4.137  1.00  0.00     0.002 A 
ATOM     16  Cl  UNL     1      -0.653  -1.659   4.321  1.00  0.00    -0.083 Cl
ENDBRANCH   8  10
ENDBRANCH   1   6
BRANCH   5  17
ATOM     17  C   UNL     1       2.289  -1.105   0.085  1.00  0.00     0.075 C 
ATOM     18  O   UNL     1       2.990  -0.841   1.077  1.00  0.00    -0.545 OA
ATOM     19  O   UNL     1       2.555  -2.224  -0.669  1.00  0.00    -0.545 OA
ENDBRANCH   5  17
BRANCH   3  20
ATOM     20  C   UNL     1      -0.067   2.728  -2.334  1.00  0.00     0.047 C 
BRANCH  20  21
ATOM     21  C   UNL     1       0.314   2.418  -3.771  1.00  0.00     0.006 C 
BRANCH  21  22
ATOM     22  C   UNL     1       1.263   1.228  -3.816  1.00  0.00     0.001 C 
BRANCH  22  23
ATOM     23  C   UNL     1       2.572   1.558  -3.186  1.00  0.00     0.005 CG0
ATOM     24  G   UNL     1       2.655   1.145  -1.768  1.00  0.00     0.000 G0
ENDBRANCH  22  23
ENDBRANCH  21  22
ENDBRANCH  20  21
ENDBRANCH   3  20
BRANCH   4  25
ATOM     25  C   UNL     1       2.655   1.145  -1.768  1.00  0.00     0.037 CG0
ATOM     26  G   UNL     1       2.572   1.558  -3.186  1.00  0.00     0.000 G0
ENDBRANCH   4  25
TORSDOF 3
