REMARK SMILES COc1ccc(NC(=O)c2nnn(-c3cccc(OC)c3)c2C)cc1
REMARK SMILES IDX 10 1 11 2 12 3 13 4 22 5 23 6 8 7 7 8 9 9 6 11 3 12 4 13
REMARK SMILES IDX 25 14 5 15 24 16 2 17 1 18 14 19 15 20 21 21 16 22 18 23
REMARK SMILES IDX 17 24 19 25 20 26
REMARK H PARENT 7 10
ROOT
ATOM      1  C   UNL     1       1.225  -0.334  -0.432  1.00  0.00     0.174 A 
ATOM      2  N   UNL     1       2.234  -0.010  -1.304  1.00  0.00    -0.124 NA
ATOM      3  N   UNL     1       1.788   0.890  -2.157  1.00  0.00    -0.061 NA
ATOM      4  N   UNL     1       0.533   1.210  -1.930  1.00  0.00    -0.217 N 
ATOM      5  C   UNL     1       0.192   0.440  -0.851  1.00  0.00     0.075 A 
ATOM      6  C   UNL     1      -1.158   0.469  -0.230  1.00  0.00     0.069 C 
ENDROOT
BRANCH   1   7
ATOM      7  C   UNL     1       1.425  -1.310   0.630  1.00  0.00     0.278 C 
ATOM      8  N   UNL     1       0.484  -1.731   1.574  1.00  0.00    -0.321 N 
ATOM      9  O   UNL     1       2.579  -1.869   0.747  1.00  0.00    -0.267 OA
ATOM     10  H   UNL     1      -0.465  -1.249   1.451  1.00  0.00     0.170 HD
BRANCH   8  11
ATOM     11  C   UNL     1       0.638  -2.677   2.623  1.00  0.00     0.041 A 
ATOM     12  C   UNL     1       0.716  -4.525   4.777  1.00  0.00     0.119 A 
ATOM     13  C   UNL     1      -0.430  -3.822   4.485  1.00  0.00     0.048 A 
ATOM     14  C   UNL     1       1.818  -4.296   3.986  1.00  0.00     0.048 A 
ATOM     15  C   UNL     1      -0.468  -2.923   3.437  1.00  0.00     0.030 A 
ATOM     16  C   UNL     1       1.761  -3.386   2.933  1.00  0.00     0.030 A 
BRANCH  12  17
ATOM     17  O   UNL     1       0.768  -5.440   5.838  1.00  0.00    -0.497 OA
ATOM     18  C   UNL     1      -0.316  -5.710   6.670  1.00  0.00     0.278 C 
ENDBRANCH  12  17
ENDBRANCH   8  11
ENDBRANCH   1   7
BRANCH   4  19
ATOM     19  C   UNL     1      -0.303   2.136  -2.623  1.00  0.00     0.070 A 
ATOM     20  C   UNL     1      -0.621   3.368  -2.087  1.00  0.00     0.029 A 
ATOM     21  C   UNL     1      -0.847   1.868  -3.866  1.00  0.00     0.074 A 
ATOM     22  C   UNL     1      -1.430   4.280  -2.745  1.00  0.00     0.006 A 
ATOM     23  C   UNL     1      -1.649   2.736  -4.550  1.00  0.00     0.121 A 
ATOM     24  C   UNL     1      -1.943   3.959  -3.978  1.00  0.00     0.046 A 
BRANCH  23  25
ATOM     25  O   UNL     1      -2.194   2.456  -5.805  1.00  0.00    -0.497 OA
ATOM     26  C   UNL     1      -1.981   1.265  -6.496  1.00  0.00     0.278 C 
ENDBRANCH  23  25
ENDBRANCH   4  19
TORSDOF 5
