REMARK SMILES CC[NH+]1C(=O)C(=Cc2ccco2)SC1=S
REMARK SMILES IDX 3 1 4 2 5 3 6 4 7 5 13 6 14 7 15 8 2 10 1 11 8 12 9 13 12 14
REMARK SMILES IDX 10 15 11 16
REMARK H PARENT 3 9
ROOT
ATOM      1  N   UNL     1      -2.257  -0.167   0.541  1.00  0.00    -0.219 N 
ATOM      2  C   UNL     1      -1.198  -0.353   1.520  1.00  0.00     0.357 C 
ATOM      3  O   UNL     1      -1.303  -0.284   2.765  1.00  0.00    -0.225 OA
ATOM      4  C   UNL     1       0.046  -0.640   0.804  1.00  0.00     0.127 C 
ATOM      5  C   UNL     1       1.251  -0.203   1.030  1.00  0.00     0.072 C 
ATOM      6  S   UNL     1      -0.537  -1.726  -0.519  1.00  0.00    -0.008 SA
ATOM      7  C   UNL     1      -2.257  -1.282  -0.321  1.00  0.00     0.244 C 
ATOM      8  S   UNL     1      -3.362  -1.925  -0.907  1.00  0.00    -0.009 S 
ATOM      9  H   UNL     1      -3.144  -0.085   1.092  1.00  0.00     0.364 HD
ENDROOT
BRANCH   1  10
ATOM     10  C   UNL     1      -1.909   1.041  -0.169  1.00  0.00     0.273 C 
ATOM     11  C   UNL     1      -2.726   1.223  -1.418  1.00  0.00     0.072 C 
ENDBRANCH   1  10
BRANCH   5  12
ATOM     12  C   UNL     1       2.323  -0.657   0.144  1.00  0.00     0.128 A 
ATOM     13  C   UNL     1       3.313   0.118  -0.473  1.00  0.00     0.050 A 
ATOM     14  O   UNL     1       2.539  -1.895  -0.223  1.00  0.00    -0.465 OA
ATOM     15  C   UNL     1       4.109  -0.722  -1.208  1.00  0.00     0.042 A 
ATOM     16  C   UNL     1       3.584  -1.993  -1.023  1.00  0.00     0.195 A 
ENDBRANCH   5  12
TORSDOF 2
