REMARK SMILES CCN1C(=O)/C(=C\c2ccco2)SC1=S
REMARK SMILES IDX 3 1 4 2 5 3 6 4 7 5 13 6 14 7 15 8 2 9 1 10 8 11 9 12 12 13
REMARK SMILES IDX 10 14 11 15
REMARK H PARENT
ROOT
ATOM      1  N   UNL     1      -1.738   0.891  -0.160  1.00  0.00    -0.293 N 
ATOM      2  C   UNL     1      -0.456   0.378  -0.048  1.00  0.00     0.266 C 
ATOM      3  O   UNL     1      -0.123  -0.785  -0.479  1.00  0.00    -0.268 OA
ATOM      4  C   UNL     1       0.519   1.229   0.588  1.00  0.00     0.084 C 
ATOM      5  C   UNL     1       1.737   0.961   0.971  1.00  0.00     0.068 C 
ATOM      6  S   UNL     1      -0.310   2.800   0.774  1.00  0.00    -0.054 SA
ATOM      7  C   UNL     1      -1.952   2.189   0.356  1.00  0.00     0.148 C 
ATOM      8  S   UNL     1      -3.383   2.990   0.540  1.00  0.00    -0.052 S 
ENDROOT
BRANCH   1   9
ATOM      9  C   UNL     1      -2.864   0.152  -0.777  1.00  0.00     0.124 C 
ATOM     10  C   UNL     1      -2.928   0.445  -2.271  1.00  0.00     0.028 C 
ENDBRANCH   1   9
BRANCH   5  11
ATOM     11  C   UNL     1       2.373  -0.342   0.817  1.00  0.00     0.127 A 
ATOM     12  C   UNL     1       1.970  -1.598   1.153  1.00  0.00     0.050 A 
ATOM     13  O   UNL     1       3.580  -0.433   0.248  1.00  0.00    -0.465 OA
ATOM     14  C   UNL     1       2.982  -2.464   0.763  1.00  0.00     0.042 A 
ATOM     15  C   UNL     1       3.968  -1.669   0.200  1.00  0.00     0.195 A 
ENDBRANCH   5  11
TORSDOF 2
