REMARK SMILES CCOC(=O)/C(C)=N/Nc1ccccc1
REMARK SMILES IDX 4 1 5 2 3 3 2 4 1 5 6 6 8 7 7 8 9 9 10 11 11 12 15 13 12 14
REMARK SMILES IDX 14 15 13 16
REMARK H PARENT 9 10
ROOT
ATOM      1  C   UNL     1      -1.572   0.351   1.839  1.00  0.00     0.354 C 
ATOM      2  O   UNL     1      -2.105   0.420   2.972  1.00  0.00    -0.245 OA
ENDROOT
BRANCH   1   3
ATOM      3  O   UNL     1      -2.150   1.045   0.816  1.00  0.00    -0.461 OA
BRANCH   3   4
ATOM      4  C   UNL     1      -3.291   1.847   0.876  1.00  0.00     0.230 C 
ATOM      5  C   UNL     1      -3.493   2.376  -0.547  1.00  0.00     0.049 C 
ENDBRANCH   3   4
ENDBRANCH   1   3
BRANCH   1   6
ATOM      6  C   UNL     1      -0.350  -0.476   1.675  1.00  0.00     0.142 C 
ATOM      7  N   UNL     1       0.245  -0.597   0.565  1.00  0.00    -0.173 NA
ATOM      8  C   UNL     1       0.226  -1.206   2.833  1.00  0.00     0.077 C 
BRANCH   7   9
ATOM      9  N   UNL     1       1.396  -1.367   0.376  1.00  0.00    -0.278 N 
ATOM     10  H   UNL     1       1.900  -1.884   1.111  1.00  0.00     0.190 HD
BRANCH   9  11
ATOM     11  C   UNL     1       1.870  -1.403  -0.973  1.00  0.00     0.056 A 
ATOM     12  C   UNL     1       1.587  -2.452  -1.809  1.00  0.00     0.027 A 
ATOM     13  C   UNL     1       2.630  -0.362  -1.499  1.00  0.00     0.027 A 
ATOM     14  C   UNL     1       2.047  -2.464  -3.133  1.00  0.00     0.002 A 
ATOM     15  C   UNL     1       3.082  -0.370  -2.796  1.00  0.00     0.002 A 
ATOM     16  C   UNL     1       2.804  -1.411  -3.634  1.00  0.00     0.000 A 
ENDBRANCH   9  11
ENDBRANCH   7   9
ENDBRANCH   1   6
TORSDOF 5
