REMARK SMILES O=c1cc(C(Cl)(Cl)Cl)oc2ccc(Cl)cc12
REMARK SMILES IDX 1 1 2 2 3 3 4 4 9 5 10 6 11 7 12 8 13 9 14 10 15 11 16 12
REMARK SMILES IDX 5 13 6 14 7 15 8 16
REMARK H PARENT
ROOT
ATOM      1  O   UNL     1      -2.321   0.908  -1.272  1.00  0.00    -0.289 OA
ATOM      2  C   UNL     1      -1.278   0.588  -0.623  1.00  0.00     0.193 A 
ATOM      3  C   UNL     1      -1.199   0.773   0.744  1.00  0.00     0.099 A 
ATOM      4  C   UNL     1      -0.074   0.433   1.471  1.00  0.00     0.159 A 
ATOM      5  O   UNL     1       0.927  -0.077   0.806  1.00  0.00    -0.456 OA
ATOM      6  C   UNL     1       0.924  -0.281  -0.484  1.00  0.00     0.138 A 
ATOM      7  C   UNL     1       2.018  -0.826  -1.131  1.00  0.00     0.049 A 
ATOM      8  C   UNL     1       2.040  -1.052  -2.499  1.00  0.00     0.024 A 
ATOM      9  C   UNL     1       0.927  -0.720  -3.248  1.00  0.00     0.042 A 
ATOM     10  Cl  UNL     1       0.909  -0.986  -4.966  1.00  0.00    -0.084 Cl
ATOM     11  C   UNL     1      -0.190  -0.169  -2.620  1.00  0.00     0.036 A 
ATOM     12  C   UNL     1      -0.172   0.041  -1.252  1.00  0.00     0.066 A 
ENDROOT
BRANCH   4  13
ATOM     13  C   UNL     1      -0.008   0.643   2.959  1.00  0.00     0.248 C 
ATOM     14  Cl  UNL     1      -0.320  -0.887   3.808  1.00  0.00    -0.075 Cl
ATOM     15  Cl  UNL     1      -1.203   1.867   3.466  1.00  0.00    -0.075 Cl
ATOM     16  Cl  UNL     1       1.606   1.275   3.408  1.00  0.00    -0.075 Cl
ENDBRANCH   4  13
TORSDOF 1
