REMARK SMILES COc1ccccc1-n1nnc(C(=O)Nc2c(C)cccc2C)c1C
REMARK SMILES IDX 9 1 10 2 11 3 12 4 24 5 25 6 8 7 3 8 4 9 5 10 7 11 6 12 2 13
REMARK SMILES IDX 1 14 13 15 14 16 15 17 16 19 17 20 22 21 19 22 21 23 20 24
REMARK SMILES IDX 18 25 23 26
REMARK H PARENT 15 18
ROOT
ATOM      1  N   UNL     1       1.417   1.156  -0.448  1.00  0.00    -0.213 N 
ATOM      2  N   UNL     1       0.517   1.626  -1.286  1.00  0.00    -0.061 NA
ATOM      3  N   UNL     1      -0.516   0.795  -1.394  1.00  0.00    -0.124 NA
ATOM      4  C   UNL     1      -0.303  -0.277  -0.596  1.00  0.00     0.174 A 
ATOM      5  C   UNL     1       0.919  -0.034  -0.007  1.00  0.00     0.075 A 
ATOM      6  C   UNL     1       1.570  -0.944   0.955  1.00  0.00     0.069 C 
ENDROOT
BRANCH   1   7
ATOM      7  C   UNL     1       2.652   1.744  -0.066  1.00  0.00     0.109 A 
ATOM      8  C   UNL     1       2.696   2.549   1.048  1.00  0.00     0.144 A 
ATOM      9  C   UNL     1       3.876   3.154   1.475  1.00  0.00     0.049 A 
ATOM     10  C   UNL     1       5.031   2.941   0.762  1.00  0.00     0.004 A 
ATOM     11  C   UNL     1       3.819   1.545  -0.764  1.00  0.00     0.032 A 
ATOM     12  C   UNL     1       4.998   2.138  -0.353  1.00  0.00     0.003 A 
BRANCH   8  13
ATOM     13  O   UNL     1       1.544   2.773   1.777  1.00  0.00    -0.494 OA
ATOM     14  C   UNL     1       1.492   3.576   2.922  1.00  0.00     0.278 C 
ENDBRANCH   8  13
ENDBRANCH   1   7
BRANCH   4  15
ATOM     15  C   UNL     1      -1.158  -1.436  -0.391  1.00  0.00     0.278 C 
ATOM     16  O   UNL     1      -0.772  -2.328   0.400  1.00  0.00    -0.267 OA
ATOM     17  N   UNL     1      -2.408  -1.603  -1.044  1.00  0.00    -0.320 N 
ATOM     18  H   UNL     1      -2.670  -0.806  -1.700  1.00  0.00     0.170 HD
BRANCH  17  19
ATOM     19  C   UNL     1      -3.249  -2.721  -0.857  1.00  0.00     0.047 A 
ATOM     20  C   UNL     1      -3.104  -3.813  -1.667  1.00  0.00    -0.027 A 
ATOM     21  C   UNL     1      -4.209  -2.726   0.126  1.00  0.00    -0.027 A 
ATOM     22  C   UNL     1      -3.921  -4.903  -1.487  1.00  0.00     0.005 A 
ATOM     23  C   UNL     1      -5.047  -3.812   0.330  1.00  0.00     0.005 A 
ATOM     24  C   UNL     1      -4.896  -4.911  -0.491  1.00  0.00     0.001 A 
ATOM     25  C   UNL     1      -2.067  -3.790  -2.719  1.00  0.00     0.046 C 
ATOM     26  C   UNL     1      -4.347  -1.534   0.989  1.00  0.00     0.046 C 
ENDBRANCH  17  19
ENDBRANCH   4  15
TORSDOF 4
