REMARK SMILES Cn1c2c(c(=O)[nH]c1=O)C(c1cccc(Br)c1)C1=C(N2)c2ccccc2C1=O
REMARK SMILES IDX 1 1 2 2 3 3 4 4 5 5 6 6 7 7 8 8 9 9 10 10 18 11 19 12 20 13
REMARK SMILES IDX 21 14 22 15 23 16 24 17 25 18 26 19 27 20 28 21 11 24 12 25
REMARK SMILES IDX 17 26 13 27 15 28 14 29 16 30
REMARK H PARENT 7 22 20 23
ROOT
ATOM      1  C   UNL     1       1.828  -3.051   2.887  1.00  0.00     0.157 C 
ATOM      2  N   UNL     1       2.215  -2.110   1.837  1.00  0.00    -0.282 N 
ATOM      3  C   UNL     1       1.233  -1.320   1.347  1.00  0.00     0.124 A 
ATOM      4  C   UNL     1       1.569  -0.429   0.361  1.00  0.00     0.070 A 
ATOM      5  C   UNL     1       2.893  -0.366  -0.099  1.00  0.00     0.259 A 
ATOM      6  O   UNL     1       3.241   0.438  -1.002  1.00  0.00    -0.269 OA
ATOM      7  N   UNL     1       3.836  -1.172   0.418  1.00  0.00    -0.274 N 
ATOM      8  C   UNL     1       3.481  -2.038   1.385  1.00  0.00     0.329 A 
ATOM      9  O   UNL     1       4.379  -2.785   1.857  1.00  0.00    -0.248 OA
ATOM     10  C   UNL     1       0.548   0.453  -0.207  1.00  0.00     0.095 C 
ATOM     11  C   UNL     1      -0.803   0.282   0.368  1.00  0.00     0.037 C 
ATOM     12  C   UNL     1      -1.136  -0.573   1.318  1.00  0.00     0.056 C 
ATOM     13  N   UNL     1      -0.112  -1.410   1.841  1.00  0.00    -0.340 N 
ATOM     14  C   UNL     1      -2.560  -0.466   1.640  1.00  0.00     0.010 A 
ATOM     15  C   UNL     1      -3.413  -1.099   2.525  1.00  0.00     0.011 A 
ATOM     16  C   UNL     1      -4.752  -0.798   2.629  1.00  0.00     0.001 A 
ATOM     17  C   UNL     1      -5.293   0.167   1.833  1.00  0.00     0.001 A 
ATOM     18  C   UNL     1      -4.461   0.830   0.924  1.00  0.00     0.013 A 
ATOM     19  C   UNL     1      -3.127   0.509   0.842  1.00  0.00     0.032 A 
ATOM     20  C   UNL     1      -2.045   1.010   0.019  1.00  0.00     0.192 C 
ATOM     21  O   UNL     1      -2.112   1.909  -0.854  1.00  0.00    -0.289 OA
ATOM     22  H   UNL     1       4.829  -1.146   0.094  1.00  0.00     0.175 HD
ATOM     23  H   UNL     1      -0.329  -2.106   2.597  1.00  0.00     0.168 HD
ENDROOT
BRANCH  10  24
ATOM     24  C   UNL     1       0.383   0.268  -1.685  1.00  0.00    -0.034 A 
ATOM     25  C   UNL     1      -0.284  -0.822  -2.194  1.00  0.00     0.005 A 
ATOM     26  C   UNL     1       0.902   1.210  -2.521  1.00  0.00     0.020 A 
ATOM     27  C   UNL     1      -0.427  -0.959  -3.574  1.00  0.00     0.001 A 
ATOM     28  C   UNL     1       0.764   1.082  -3.907  1.00  0.00     0.018 A 
ATOM     29  C   UNL     1       0.100  -0.002  -4.428  1.00  0.00     0.016 A 
ATOM     30  Br  UNL     1       1.494   2.404  -5.066  1.00  0.00    -0.051 Br
ENDBRANCH  10  24
TORSDOF 1
