REMARK SMILES Cn1c2c(c(=O)[n-]c1=O)C(c1cccc(Br)c1)C1=C(N2)c2ccccc2C1=O
REMARK SMILES IDX 1 1 2 2 3 3 4 4 5 5 6 6 7 7 8 8 9 9 10 10 18 11 19 12 20 13
REMARK SMILES IDX 21 14 22 15 23 16 24 17 25 18 26 19 27 20 28 21 11 23 12 24
REMARK SMILES IDX 17 25 13 26 15 27 14 28 16 29
REMARK H PARENT 20 22
ROOT
ATOM      1  C   UNL     1       3.291  -2.492   1.533  1.00  0.00     0.014 C 
ATOM      2  N   UNL     1       3.046  -1.448   0.559  1.00  0.00    -0.400 N 
ATOM      3  C   UNL     1       1.829  -0.859   0.496  1.00  0.00     0.036 A 
ATOM      4  C   UNL     1       1.534   0.140  -0.409  1.00  0.00     0.028 A 
ATOM      5  C   UNL     1       2.576   0.514  -1.268  1.00  0.00     0.179 A 
ATOM      6  O   UNL     1       2.395   1.427  -2.135  1.00  0.00    -0.294 OA
ATOM      7  N   UNL     1       3.774  -0.090  -1.181  1.00  0.00    -0.365 NA
ATOM      8  C   UNL     1       4.031  -1.060  -0.289  1.00  0.00     0.166 A 
ATOM      9  O   UNL     1       5.156  -1.625  -0.210  1.00  0.00    -0.298 OA
ATOM     10  C   UNL     1       0.234   0.775  -0.482  1.00  0.00     0.091 C 
ATOM     11  C   UNL     1      -0.716   0.233   0.512  1.00  0.00     0.036 C 
ATOM     12  C   UNL     1      -0.428  -0.712   1.364  1.00  0.00     0.054 C 
ATOM     13  N   UNL     1       0.850  -1.325   1.423  1.00  0.00    -0.357 N 
ATOM     14  C   UNL     1      -1.597  -1.020   2.213  1.00  0.00     0.010 A 
ATOM     15  C   UNL     1      -1.804  -1.918   3.241  1.00  0.00     0.011 A 
ATOM     16  C   UNL     1      -3.021  -1.996   3.873  1.00  0.00     0.001 A 
ATOM     17  C   UNL     1      -4.051  -1.180   3.492  1.00  0.00     0.001 A 
ATOM     18  C   UNL     1      -3.888  -0.261   2.462  1.00  0.00     0.013 A 
ATOM     19  C   UNL     1      -2.645  -0.208   1.844  1.00  0.00     0.032 A 
ATOM     20  C   UNL     1      -2.132   0.610   0.761  1.00  0.00     0.192 C 
ATOM     21  O   UNL     1      -2.722   1.498   0.105  1.00  0.00    -0.289 OA
ATOM     22  H   UNL     1       1.086  -2.064   2.084  1.00  0.00     0.166 HD
ENDROOT
BRANCH  10  23
ATOM     23  C   UNL     1      -0.427   0.587  -1.819  1.00  0.00    -0.035 A 
ATOM     24  C   UNL     1      -0.994  -0.632  -2.110  1.00  0.00     0.005 A 
ATOM     25  C   UNL     1      -0.465   1.618  -2.725  1.00  0.00     0.020 A 
ATOM     26  C   UNL     1      -1.626  -0.877  -3.321  1.00  0.00     0.001 A 
ATOM     27  C   UNL     1      -1.103   1.377  -3.950  1.00  0.00     0.018 A 
ATOM     28  C   UNL     1      -1.671   0.152  -4.238  1.00  0.00     0.016 A 
ATOM     29  Br  UNL     1      -1.171   2.796  -5.229  1.00  0.00    -0.051 Br
ENDBRANCH  10  23
TORSDOF 1
