REMARK SMILES COC(=O)c1cccc(NC(=S)N2CCN(C)CC2)c1
REMARK SMILES IDX 5 1 6 2 7 3 8 4 9 5 20 6 3 7 4 8 2 9 1 10 10 11 11 12 12 13
REMARK SMILES IDX 13 14 14 15 19 16 15 17 18 18 16 19 17 21
REMARK H PARENT 10 20
ROOT
ATOM      1  C   UNL     1       0.864   0.264   2.416  1.00  0.00     0.062 A 
ATOM      2  C   UNL     1       1.727   1.366   2.519  1.00  0.00     0.016 A 
ATOM      3  C   UNL     1       2.778   1.517   1.619  1.00  0.00     0.003 A 
ATOM      4  C   UNL     1       2.968   0.579   0.626  1.00  0.00     0.026 A 
ATOM      5  C   UNL     1       2.127  -0.535   0.493  1.00  0.00     0.041 A 
ATOM      6  C   UNL     1       1.109  -0.624   1.412  1.00  0.00     0.041 A 
ENDROOT
BRANCH   1   7
ATOM      7  C   UNL     1      -0.244   0.101   3.359  1.00  0.00     0.337 C 
ATOM      8  O   UNL     1      -0.359   0.977   4.289  1.00  0.00    -0.246 OA
BRANCH   7   9
ATOM      9  O   UNL     1      -1.147  -0.916   3.296  1.00  0.00    -0.465 OA
ATOM     10  C   UNL     1      -2.236  -1.110   4.181  1.00  0.00     0.282 C 
ENDBRANCH   7   9
ENDBRANCH   1   7
BRANCH   5  11
ATOM     11  N   UNL     1       2.351  -1.500  -0.511  1.00  0.00    -0.333 N 
ATOM     12  C   UNL     1       1.620  -1.817  -1.645  1.00  0.00     0.173 C 
ATOM     13  S   UNL     1       2.245  -3.024  -2.618  1.00  0.00    -0.041 S 
ATOM     14  N   UNL     1       0.417  -1.245  -2.103  1.00  0.00    -0.346 N 
ATOM     15  C   UNL     1      -0.167  -1.760  -3.334  1.00  0.00     0.134 C 
ATOM     16  C   UNL     1      -0.318  -0.175  -1.450  1.00  0.00     0.134 C 
ATOM     17  C   UNL     1      -1.653  -1.967  -3.164  1.00  0.00     0.105 C 
ATOM     18  C   UNL     1      -1.412   0.310  -2.423  1.00  0.00     0.105 C 
ATOM     19  N   UNL     1      -2.320  -0.775  -2.699  1.00  0.00    -0.303 NA
ATOM     20  H   UNL     1       3.245  -2.082  -0.341  1.00  0.00     0.169 HD
ATOM     21  C   UNL     1      -3.294  -1.002  -1.680  1.00  0.00     0.105 C 
ENDBRANCH   5  11
TORSDOF 3
