REMARK SMILES COC(=O)c1cccc(NC(=S)[NH+]2CC[NH+](C)CC2)c1
REMARK SMILES IDX 5 1 6 2 7 3 8 4 9 5 20 6 3 7 4 8 2 9 1 10 10 11 11 12 12 13
REMARK SMILES IDX 13 15 14 16 19 17 15 18 18 19 16 20 17 22
REMARK H PARENT 10 14 13 21 16 23
ROOT
ATOM      1  C   UNL     1       0.959   0.059   2.664  1.00  0.00     0.062 A 
ATOM      2  C   UNL     1       1.661  -1.083   2.972  1.00  0.00     0.016 A 
ATOM      3  C   UNL     1       2.438  -1.724   2.011  1.00  0.00     0.003 A 
ATOM      4  C   UNL     1       2.512  -1.217   0.743  1.00  0.00     0.026 A 
ATOM      5  C   UNL     1       1.816  -0.051   0.378  1.00  0.00     0.045 A 
ATOM      6  C   UNL     1       1.069   0.525   1.377  1.00  0.00     0.042 A 
ENDROOT
BRANCH   1   7
ATOM      7  C   UNL     1       0.125   0.723   3.682  1.00  0.00     0.337 C 
ATOM      8  O   UNL     1       0.120   0.237   4.835  1.00  0.00    -0.246 OA
BRANCH   7   9
ATOM      9  O   UNL     1      -0.644   1.832   3.447  1.00  0.00    -0.465 OA
ATOM     10  C   UNL     1      -1.471   2.500   4.376  1.00  0.00     0.282 C 
ENDBRANCH   7   9
ENDBRANCH   1   7
BRANCH   5  11
ATOM     11  N   UNL     1       1.958   0.457  -0.944  1.00  0.00    -0.301 N 
ATOM     12  C   UNL     1       1.137   0.426  -2.051  1.00  0.00     0.273 C 
ATOM     13  S   UNL     1       1.847   1.150  -3.415  1.00  0.00     0.004 S 
ATOM     14  H   UNL     1       2.940   0.960  -1.031  1.00  0.00     0.173 HD
BRANCH  12  15
ATOM     15  N   UNL     1      -0.127  -0.073  -2.336  1.00  0.00    -0.268 N 
ATOM     16  C   UNL     1      -0.067  -1.386  -2.984  1.00  0.00     0.332 C 
ATOM     17  C   UNL     1      -1.030  -0.177  -1.241  1.00  0.00     0.332 C 
ATOM     18  C   UNL     1      -1.443  -2.062  -2.904  1.00  0.00     0.324 C 
ATOM     19  C   UNL     1      -0.968  -1.555  -0.658  1.00  0.00     0.324 C 
ATOM     20  N   UNL     1      -1.794  -2.403  -1.540  1.00  0.00    -0.328 N 
ATOM     21  H   UNL     1      -0.607   0.558  -3.090  1.00  0.00     0.356 HD
ATOM     22  C   UNL     1      -3.193  -2.166  -1.243  1.00  0.00     0.333 C 
ATOM     23  H   UNL     1      -1.578  -3.395  -1.373  1.00  0.00     0.348 HD
ENDBRANCH  12  15
ENDBRANCH   5  11
TORSDOF 4
