REMARK SMILES COc1ccccc1/C=C1/C(=O)C2CCN1CC2
REMARK SMILES IDX 3 1 4 2 5 3 6 4 7 5 8 6 2 7 1 8 9 9 10 10 11 11 16 12 12 13
REMARK SMILES IDX 13 14 15 15 17 16 14 17 18 18
REMARK H PARENT
ROOT
ATOM      1  C   UNL     1      -0.179   0.239   2.121  1.00  0.00     0.126 A 
ATOM      2  C   UNL     1      -0.208  -0.122   3.470  1.00  0.00     0.047 A 
ATOM      3  C   UNL     1       0.949  -0.505   4.108  1.00  0.00     0.004 A 
ATOM      4  C   UNL     1       2.141  -0.541   3.438  1.00  0.00     0.001 A 
ATOM      5  C   UNL     1       2.157  -0.183   2.108  1.00  0.00     0.012 A 
ATOM      6  C   UNL     1       0.990   0.212   1.430  1.00  0.00     0.019 A 
ENDROOT
BRANCH   1   7
ATOM      7  O   UNL     1      -1.339   0.629   1.485  1.00  0.00    -0.496 OA
ATOM      8  C   UNL     1      -2.617   0.715   2.044  1.00  0.00     0.278 C 
ENDBRANCH   1   7
BRANCH   6   9
ATOM      9  C   UNL     1       1.208   0.503   0.030  1.00  0.00     0.041 C 
ATOM     10  C   UNL     1       0.509  -0.086  -0.877  1.00  0.00     0.081 C 
ATOM     11  C   UNL     1       0.796   0.272  -2.384  1.00  0.00     0.182 C 
ATOM     12  N   UNL     1      -0.483  -1.023  -1.068  1.00  0.00    -0.369 N 
ATOM     13  O   UNL     1       1.609   1.113  -2.682  1.00  0.00    -0.292 OA
ATOM     14  C   UNL     1      -0.081  -0.586  -3.222  1.00  0.00     0.066 C 
ATOM     15  C   UNL     1      -0.203  -2.395  -1.440  1.00  0.00     0.117 C 
ATOM     16  C   UNL     1      -1.838  -0.660  -1.419  1.00  0.00     0.117 C 
ATOM     17  C   UNL     1       0.231  -2.058  -2.938  1.00  0.00     0.033 C 
ATOM     18  C   UNL     1      -1.548  -0.227  -2.923  1.00  0.00     0.033 C 
ENDBRANCH   6   9
TORSDOF 2
