REMARK SMILES O=C1[N-]C(=S)S/C1=C\c1ccccc1
REMARK SMILES IDX 1 1 2 2 3 3 4 4 5 5 6 6 7 7 8 8 9 9 10 10 14 11 11 12 13 13
REMARK SMILES IDX 12 14
REMARK H PARENT
ROOT
ATOM      1  O   UNL     1      -0.903  -2.600   2.540  1.00  0.00    -0.314 OA
ATOM      2  C   UNL     1      -0.474  -1.392   2.506  1.00  0.00     0.093 C 
ATOM      3  N   UNL     1      -0.255  -0.637   3.637  1.00  0.00    -0.607 NA
ATOM      4  C   UNL     1       0.218   0.679   3.460  1.00  0.00    -0.028 C 
ATOM      5  S   UNL     1       0.773   1.734   4.584  1.00  0.00    -0.098 S 
ATOM      6  S   UNL     1       0.080   0.966   1.688  1.00  0.00    -0.100 SA
ATOM      7  C   UNL     1      -0.192  -0.742   1.236  1.00  0.00     0.037 C 
ATOM      8  C   UNL     1      -0.127  -1.229   0.032  1.00  0.00     0.025 C 
ENDROOT
BRANCH   8   9
ATOM      9  C   UNL     1       0.174  -0.366  -1.093  1.00  0.00    -0.024 A 
ATOM     10  C   UNL     1      -0.321   0.897  -1.272  1.00  0.00     0.008 A 
ATOM     11  C   UNL     1       1.046  -0.851  -2.074  1.00  0.00     0.008 A 
ATOM     12  C   UNL     1       0.011   1.682  -2.369  1.00  0.00     0.001 A 
ATOM     13  C   UNL     1       1.391  -0.097  -3.169  1.00  0.00     0.001 A 
ATOM     14  C   UNL     1       0.873   1.166  -3.313  1.00  0.00     0.000 A 
ENDBRANCH   8   9
TORSDOF 1
