REMARK SMILES Cc1ccc(OCCSc2ncnc3nc[nH]c23)c(C(C)C)c1
REMARK SMILES IDX 7 1 6 2 5 3 2 4 3 5 23 6 4 7 19 8 1 9 20 10 21 11 22 12 8 13
REMARK SMILES IDX 9 14 10 15 11 16 18 17 12 18 17 19 14 20 13 21 16 22 15 23
REMARK H PARENT 17 24
ROOT
ATOM      1  C   UNL     1       1.834  -0.261   2.243  1.00  0.00     0.241 C 
ENDROOT
BRANCH   1   2
ATOM      2  O   UNL     1       0.673  -0.199   1.650  1.00  0.00    -0.492 OA
BRANCH   2   3
ATOM      3  C   UNL     1      -0.392   0.054   1.014  1.00  0.00     0.122 A 
ATOM      4  C   UNL     1      -2.819   0.460  -0.366  1.00  0.00    -0.051 A 
ATOM      5  C   UNL     1      -1.836   1.409  -0.368  1.00  0.00     0.007 A 
ATOM      6  C   UNL     1      -2.593  -0.708   0.331  1.00  0.00     0.011 A 
ATOM      7  C   UNL     1      -0.658   1.199   0.309  1.00  0.00     0.047 A 
ATOM      8  C   UNL     1      -1.425  -0.929   1.012  1.00  0.00    -0.003 A 
ATOM      9  C   UNL     1      -4.080   0.683  -1.106  1.00  0.00     0.044 C 
BRANCH   8  10
ATOM     10  C   UNL     1      -1.252  -2.174   1.779  1.00  0.00     0.017 C 
ATOM     11  C   UNL     1      -0.789  -3.354   0.963  1.00  0.00     0.012 C 
ATOM     12  C   UNL     1      -2.454  -2.497   2.632  1.00  0.00     0.012 C 
ENDBRANCH   8  10
ENDBRANCH   2   3
ENDBRANCH   1   2
BRANCH   1  13
ATOM     13  C   UNL     1       3.093   0.153   1.611  1.00  0.00     0.118 C 
BRANCH  13  14
ATOM     14  S   UNL     1       3.576  -0.459   0.032  1.00  0.00    -0.101 SA
BRANCH  14  15
ATOM     15  C   UNL     1       2.497   0.130  -1.279  1.00  0.00     0.125 A 
ATOM     16  N   UNL     1       2.625   1.383  -1.760  1.00  0.00    -0.228 NA
ATOM     17  C   UNL     1       1.571  -0.708  -1.834  1.00  0.00     0.117 A 
ATOM     18  C   UNL     1       1.859   1.817  -2.769  1.00  0.00     0.225 A 
ATOM     19  N   UNL     1       1.219  -1.985  -1.625  1.00  0.00    -0.341 N 
ATOM     20  C   UNL     1       0.788  -0.235  -2.882  1.00  0.00     0.181 A 
ATOM     21  N   UNL     1       0.938   1.011  -3.335  1.00  0.00    -0.215 NA
ATOM     22  C   UNL     1       0.247  -2.312  -2.504  1.00  0.00     0.199 A 
ATOM     23  N   UNL     1      -0.024  -1.253  -3.274  1.00  0.00    -0.217 NA
ATOM     24  H   UNL     1       1.615  -2.661  -0.901  1.00  0.00     0.168 HD
ENDBRANCH  14  15
ENDBRANCH  13  14
ENDBRANCH   1  13
TORSDOF 6
