REMARK SMILES Fc1ccc(OCc2nnc3sc(-c4ccccc4)nn23)cc1
REMARK SMILES IDX 6 1 5 2 2 3 3 4 23 5 4 6 22 7 1 8 7 9 8 10 9 11 21 12 10 13
REMARK SMILES IDX 20 14 11 15 13 16 12 17 14 18 15 19 19 20 16 21 18 22 17 23
REMARK H PARENT
ROOT
ATOM      1  O   UNL     1       0.481   0.208   3.332  1.00  0.00    -0.486 OA
ENDROOT
BRANCH   1   2
ATOM      2  C   UNL     1      -0.393  -0.813   3.195  1.00  0.00     0.120 A 
ATOM      3  C   UNL     1      -2.227  -2.967   3.021  1.00  0.00     0.123 A 
ATOM      4  C   UNL     1      -1.739  -2.533   4.229  1.00  0.00     0.043 A 
ATOM      5  C   UNL     1      -1.797  -2.323   1.887  1.00  0.00     0.043 A 
ATOM      6  C   UNL     1      -0.851  -1.494   4.346  1.00  0.00     0.049 A 
ATOM      7  C   UNL     1      -0.893  -1.264   1.997  1.00  0.00     0.049 A 
ATOM      8  F   UNL     1      -3.100  -3.999   2.988  1.00  0.00    -0.207 F 
ENDBRANCH   1   2
BRANCH   1   9
ATOM      9  C   UNL     1       1.136   1.074   2.508  1.00  0.00     0.308 C 
BRANCH   9  10
ATOM     10  C   UNL     1       2.070   0.463   1.514  1.00  0.00     0.193 A 
ATOM     11  N   UNL     1       3.303   0.061   1.862  1.00  0.00    -0.128 NA
ATOM     12  N   UNL     1       1.897   0.253   0.178  1.00  0.00    -0.183 N 
ATOM     13  N   UNL     1       3.934  -0.407   0.779  1.00  0.00    -0.117 NA
ATOM     14  N   UNL     1       0.990   0.423  -0.730  1.00  0.00    -0.153 NA
ATOM     15  C   UNL     1       3.032  -0.271  -0.241  1.00  0.00     0.235 A 
ATOM     16  C   UNL     1       0.985   0.201  -1.849  1.00  0.00     0.147 A 
ATOM     17  S   UNL     1       2.731  -0.513  -2.022  1.00  0.00    -0.073 S 
BRANCH  16  18
ATOM     18  C   UNL     1       0.172   0.263  -3.113  1.00  0.00     0.012 A 
ATOM     19  C   UNL     1      -1.072   0.774  -2.975  1.00  0.00     0.011 A 
ATOM     20  C   UNL     1       0.643  -0.163  -4.321  1.00  0.00     0.011 A 
ATOM     21  C   UNL     1      -1.897   0.868  -4.105  1.00  0.00     0.001 A 
ATOM     22  C   UNL     1      -0.145  -0.087  -5.469  1.00  0.00     0.001 A 
ATOM     23  C   UNL     1      -1.419   0.434  -5.341  1.00  0.00     0.000 A 
ENDBRANCH  16  18
ENDBRANCH   9  10
ENDBRANCH   1   9
TORSDOF 4
