REMARK SMILES CC1=NN(C(N)=S)C(=O)C1=NNc1ccc(I)cc1C
REMARK SMILES IDX 1 1 2 2 3 3 4 4 8 5 9 6 10 7 11 8 5 9 6 10 7 11 12 14 13 16
REMARK SMILES IDX 14 17 19 18 15 19 18 20 16 21 20 22 17 23
REMARK H PARENT 6 12 6 13 12 15
ROOT
ATOM      1  C   UNL     1      -1.741   0.791   1.566  1.00  0.00     0.071 C 
ATOM      2  C   UNL     1      -0.340   0.406   1.827  1.00  0.00     0.092 C 
ATOM      3  N   UNL     1       0.104   0.073   2.989  1.00  0.00    -0.165 NA
ATOM      4  N   UNL     1       1.445  -0.241   2.961  1.00  0.00    -0.168 N 
ATOM      5  C   UNL     1       1.903  -0.085   1.604  1.00  0.00     0.303 C 
ATOM      6  O   UNL     1       3.068  -0.280   1.184  1.00  0.00    -0.265 OA
ATOM      7  C   UNL     1       0.713   0.350   0.835  1.00  0.00     0.173 C 
ATOM      8  N   UNL     1       0.756   0.587  -0.405  1.00  0.00    -0.168 NA
ENDROOT
BRANCH   4   9
ATOM      9  C   UNL     1       2.265  -0.648   4.051  1.00  0.00     0.195 C 
ATOM     10  N   UNL     1       3.643  -0.940   3.895  1.00  0.00    -0.374 N 
ATOM     11  S   UNL     1       1.621  -0.789   5.543  1.00  0.00    -0.039 S 
ATOM     12  H   UNL     1       3.969  -1.907   3.727  1.00  0.00     0.159 HD
ATOM     13  H   UNL     1       4.318  -0.153   3.956  1.00  0.00     0.159 HD
ENDBRANCH   4   9
BRANCH   8  14
ATOM     14  N   UNL     1      -0.213   0.995  -1.271  1.00  0.00    -0.277 N 
ATOM     15  H   UNL     1      -0.533   2.006  -1.156  1.00  0.00     0.190 HD
BRANCH  14  16
ATOM     16  C   UNL     1      -0.842   0.259  -2.299  1.00  0.00     0.059 A 
ATOM     17  C   UNL     1      -1.843   0.830  -3.097  1.00  0.00     0.029 A 
ATOM     18  C   UNL     1      -0.511  -1.045  -2.576  1.00  0.00    -0.025 A 
ATOM     19  C   UNL     1      -2.471   0.135  -4.107  1.00  0.00     0.017 A 
ATOM     20  C   UNL     1      -1.147  -1.756  -3.602  1.00  0.00     0.020 A 
ATOM     21  C   UNL     1      -2.118  -1.158  -4.354  1.00  0.00     0.013 A 
ATOM     22  C   UNL     1       0.548  -1.695  -1.759  1.00  0.00     0.047 C 
ATOM     23  I   UNL     1      -3.040  -2.278  -5.884  1.00  0.00    -0.044 I 
ENDBRANCH  14  16
ENDBRANCH   8  14
TORSDOF 3
