REMARK SMILES CC1=NN(C([NH3+])=S)C(=O)/C1=N\Nc1ccc(I)cc1C
REMARK SMILES IDX 1 1 2 2 3 3 4 4 8 5 9 6 10 7 11 8 5 9 7 10 6 11 12 15 13 17
REMARK SMILES IDX 14 18 19 19 15 20 18 21 16 22 20 23 17 24
REMARK H PARENT 6 12 6 13 6 14 12 16
ROOT
ATOM      1  C   UNL     1      -1.546   2.909   1.597  1.00  0.00     0.071 C 
ATOM      2  C   UNL     1      -0.479   1.876   1.676  1.00  0.00     0.092 C 
ATOM      3  N   UNL     1       0.152   1.580   2.767  1.00  0.00    -0.162 NA
ATOM      4  N   UNL     1       1.099   0.582   2.566  1.00  0.00    -0.135 N 
ATOM      5  C   UNL     1       1.043   0.221   1.172  1.00  0.00     0.306 C 
ATOM      6  O   UNL     1       1.719  -0.629   0.568  1.00  0.00    -0.265 OA
ATOM      7  C   UNL     1       0.009   1.067   0.582  1.00  0.00     0.173 C 
ATOM      8  N   UNL     1      -0.359   1.043  -0.685  1.00  0.00    -0.168 NA
ENDROOT
BRANCH   4   9
ATOM      9  C   UNL     1       1.970   0.006   3.538  1.00  0.00     0.295 C 
ATOM     10  S   UNL     1       1.908   0.558   5.067  1.00  0.00     0.006 S 
BRANCH   9  11
ATOM     11  N   UNL     1       2.891  -1.047   3.210  1.00  0.00    -0.299 N 
ATOM     12  H   UNL     1       3.267  -0.962   2.265  1.00  0.00     0.352 HD
ATOM     13  H   UNL     1       3.678  -0.999   3.925  1.00  0.00     0.352 HD
ATOM     14  H   UNL     1       2.359  -1.956   3.383  1.00  0.00     0.352 HD
ENDBRANCH   9  11
ENDBRANCH   4   9
BRANCH   8  15
ATOM     15  N   UNL     1       0.286   0.153  -1.546  1.00  0.00    -0.277 N 
ATOM     16  H   UNL     1       1.340   0.094  -1.569  1.00  0.00     0.190 HD
BRANCH  15  17
ATOM     17  C   UNL     1      -0.474  -0.670  -2.412  1.00  0.00     0.059 A 
ATOM     18  C   UNL     1      -0.490  -0.398  -3.784  1.00  0.00     0.029 A 
ATOM     19  C   UNL     1      -1.165  -1.745  -1.893  1.00  0.00    -0.025 A 
ATOM     20  C   UNL     1      -1.191  -1.196  -4.639  1.00  0.00     0.017 A 
ATOM     21  C   UNL     1      -1.872  -2.542  -2.798  1.00  0.00     0.020 A 
ATOM     22  C   UNL     1      -1.880  -2.264  -4.147  1.00  0.00     0.013 A 
ATOM     23  C   UNL     1      -1.196  -2.076  -0.438  1.00  0.00     0.047 C 
ATOM     24  I   UNL     1      -2.949  -3.509  -5.469  1.00  0.00    -0.044 I 
ENDBRANCH  15  17
ENDBRANCH   8  15
TORSDOF 4
