REMARK SMILES C=CCOc1ccc(C(=O)Nc2ccccc2C(=O)N2CCCCC2)cc1
REMARK SMILES IDX 5 1 6 2 7 3 8 4 26 5 27 6 4 7 3 8 2 9 1 10 9 11 10 12 11 13
REMARK SMILES IDX 12 15 13 16 17 17 14 18 16 19 15 20 18 21 19 22 20 23 21 24
REMARK SMILES IDX 25 25 22 26 24 27 23 28
REMARK H PARENT 11 14
ROOT
ATOM      1  C   UNL     1      -3.559   2.011   1.448  1.00  0.00     0.119 A 
ATOM      2  C   UNL     1      -3.500   1.250   0.309  1.00  0.00     0.047 A 
ATOM      3  C   UNL     1      -2.292   0.937  -0.323  1.00  0.00     0.017 A 
ATOM      4  C   UNL     1      -1.092   1.376   0.164  1.00  0.00     0.040 A 
ATOM      5  C   UNL     1      -1.155   2.150   1.325  1.00  0.00     0.017 A 
ATOM      6  C   UNL     1      -2.326   2.465   1.954  1.00  0.00     0.047 A 
ENDROOT
BRANCH   1   7
ATOM      7  O   UNL     1      -4.720   2.339   2.093  1.00  0.00    -0.490 OA
BRANCH   7   8
ATOM      8  C   UNL     1      -6.033   2.053   1.829  1.00  0.00     0.257 C 
BRANCH   8   9
ATOM      9  C   UNL     1      -6.602   2.533   0.570  1.00  0.00     0.006 C 
ATOM     10  C   UNL     1      -7.107   1.722  -0.341  1.00  0.00     0.007 C 
ENDBRANCH   8   9
ENDBRANCH   7   8
ENDBRANCH   1   7
BRANCH   4  11
ATOM     11  C   UNL     1       0.183   1.084  -0.449  1.00  0.00     0.255 C 
ATOM     12  O   UNL     1       1.250   1.526   0.056  1.00  0.00    -0.269 OA
ATOM     13  N   UNL     1       0.251   0.303  -1.621  1.00  0.00    -0.321 N 
ATOM     14  H   UNL     1      -0.604  -0.095  -2.089  1.00  0.00     0.170 HD
BRANCH  13  15
ATOM     15  C   UNL     1       1.485  -0.010  -2.263  1.00  0.00     0.054 A 
ATOM     16  C   UNL     1       1.939   0.853  -3.226  1.00  0.00     0.027 A 
ATOM     17  C   UNL     1       2.185  -1.169  -1.891  1.00  0.00     0.063 A 
ATOM     18  C   UNL     1       3.119   0.624  -3.886  1.00  0.00     0.002 A 
ATOM     19  C   UNL     1       3.360  -1.360  -2.576  1.00  0.00     0.016 A 
ATOM     20  C   UNL     1       3.829  -0.487  -3.557  1.00  0.00     0.001 A 
BRANCH  17  21
ATOM     21  C   UNL     1       1.659  -2.049  -0.876  1.00  0.00     0.255 C 
ATOM     22  O   UNL     1       0.506  -1.688  -0.404  1.00  0.00    -0.269 OA
ATOM     23  N   UNL     1       2.176  -3.213  -0.321  1.00  0.00    -0.339 N 
ATOM     24  C   UNL     1       3.407  -3.896  -0.587  1.00  0.00     0.120 C 
ATOM     25  C   UNL     1       1.349  -3.885   0.714  1.00  0.00     0.120 C 
ATOM     26  C   UNL     1       3.574  -5.133   0.299  1.00  0.00     0.022 C 
ATOM     27  C   UNL     1       2.155  -4.022   1.990  1.00  0.00     0.022 C 
ATOM     28  C   UNL     1       3.434  -4.785   1.750  1.00  0.00     0.004 C 
ENDBRANCH  17  21
ENDBRANCH  13  15
ENDBRANCH   4  11
TORSDOF 6
