REMARK SMILES C=CCOc1ccc(C(=O)Nc2ccccc2C(=O)[NH+]2CCCCC2)cc1
REMARK SMILES IDX 9 1 10 2 11 3 8 5 5 6 6 7 27 8 7 9 26 10 4 11 3 12 2 13 1 14
REMARK SMILES IDX 12 15 13 16 17 17 14 18 16 19 15 20 18 21 19 22 20 23 21 24
REMARK SMILES IDX 25 25 22 26 24 27 23 28
REMARK H PARENT 11 4 20 29
ROOT
ATOM      1  C   UNL     1       0.620   1.179   0.079  1.00  0.00     0.255 C 
ATOM      2  O   UNL     1       1.838   1.318  -0.217  1.00  0.00    -0.269 OA
ATOM      3  N   UNL     1      -0.303   0.957  -0.975  1.00  0.00    -0.321 N 
ATOM      4  H   UNL     1      -1.290   0.846  -0.720  1.00  0.00     0.170 HD
ENDROOT
BRANCH   1   5
ATOM      5  C   UNL     1       0.247   1.257   1.487  1.00  0.00     0.040 A 
ATOM      6  C   UNL     1      -0.452   1.413   4.258  1.00  0.00     0.119 A 
ATOM      7  C   UNL     1       0.863   1.552   3.805  1.00  0.00     0.047 A 
ATOM      8  C   UNL     1      -1.389   1.196   3.275  1.00  0.00     0.047 A 
ATOM      9  C   UNL     1       1.186   1.475   2.474  1.00  0.00     0.017 A 
ATOM     10  C   UNL     1      -1.051   1.119   1.925  1.00  0.00     0.017 A 
BRANCH   6  11
ATOM     11  O   UNL     1      -0.748   1.496   5.597  1.00  0.00    -0.490 OA
BRANCH  11  12
ATOM     12  C   UNL     1      -1.941   1.382   6.261  1.00  0.00     0.257 C 
BRANCH  12  13
ATOM     13  C   UNL     1      -2.669   0.118   6.174  1.00  0.00     0.006 C 
ATOM     14  C   UNL     1      -2.914  -0.549   7.322  1.00  0.00     0.007 C 
ENDBRANCH  12  13
ENDBRANCH  11  12
ENDBRANCH   6  11
ENDBRANCH   1   5
BRANCH   3  15
ATOM     15  C   UNL     1       0.157   0.895  -2.348  1.00  0.00     0.058 A 
ATOM     16  C   UNL     1       0.201   2.068  -3.043  1.00  0.00     0.027 A 
ATOM     17  C   UNL     1       0.516  -0.328  -2.863  1.00  0.00     0.102 A 
ATOM     18  C   UNL     1       0.623   2.066  -4.331  1.00  0.00     0.002 A 
ATOM     19  C   UNL     1       0.945  -0.264  -4.201  1.00  0.00     0.020 A 
ATOM     20  C   UNL     1       1.002   0.890  -4.927  1.00  0.00     0.001 A 
BRANCH  17  21
ATOM     21  C   UNL     1       0.462  -1.534  -2.105  1.00  0.00     0.346 C 
ATOM     22  O   UNL     1       0.076  -1.316  -0.945  1.00  0.00    -0.226 OA
BRANCH  21  23
ATOM     23  N   UNL     1       0.582  -2.858  -1.859  1.00  0.00    -0.267 N 
ATOM     24  C   UNL     1      -0.470  -3.614  -2.435  1.00  0.00     0.270 C 
ATOM     25  C   UNL     1       1.819  -3.413  -1.683  1.00  0.00     0.270 C 
ATOM     26  C   UNL     1      -0.207  -3.828  -3.936  1.00  0.00     0.062 C 
ATOM     27  C   UNL     1       1.881  -4.566  -2.726  1.00  0.00     0.062 C 
ATOM     28  C   UNL     1       1.249  -4.197  -4.026  1.00  0.00     0.012 C 
ATOM     29  H   UNL     1       0.214  -3.180  -0.852  1.00  0.00     0.357 HD
ENDBRANCH  21  23
ENDBRANCH  17  21
ENDBRANCH   3  15
TORSDOF 7
