REMARK SMILES CC[NH+]1CCOC(=O)C1CC(=O)Nc1ccc(C)c(C)c1
REMARK SMILES IDX 10 1 9 2 3 3 4 4 5 5 7 6 6 7 8 8 2 10 1 11 11 12 12 13 13 14
REMARK SMILES IDX 14 16 15 17 21 18 16 19 19 20 17 21 20 22 18 23
REMARK H PARENT 3 9 13 15
ROOT
ATOM      1  C   UNL     1       0.703   1.528   0.215  1.00  0.00     0.177 C 
ENDROOT
BRANCH   1   2
ATOM      2  C   UNL     1       0.182   2.144   1.427  1.00  0.00     0.304 C 
ATOM      3  N   UNL     1       0.052   1.320   2.605  1.00  0.00    -0.320 N 
ATOM      4  C   UNL     1       1.208   0.469   2.806  1.00  0.00     0.305 C 
ATOM      5  C   UNL     1       2.437   1.338   2.934  1.00  0.00     0.294 C 
ATOM      6  C   UNL     1       1.212   3.185   1.841  1.00  0.00     0.365 C 
ATOM      7  O   UNL     1       2.203   2.702   2.670  1.00  0.00    -0.455 OA
ATOM      8  O   UNL     1       1.179   4.363   1.475  1.00  0.00    -0.245 OA
ATOM      9  H   UNL     1       0.133   2.027   3.420  1.00  0.00     0.348 HD
BRANCH   3  10
ATOM     10  C   UNL     1      -1.193   0.671   2.800  1.00  0.00     0.259 C 
ATOM     11  C   UNL     1      -1.610   0.793   4.286  1.00  0.00     0.071 C 
ENDBRANCH   3  10
ENDBRANCH   1   2
BRANCH   1  12
ATOM     12  C   UNL     1       0.030   0.423  -0.425  1.00  0.00     0.231 C 
ATOM     13  O   UNL     1      -1.055  -0.034  -0.047  1.00  0.00    -0.274 OA
ATOM     14  N   UNL     1       0.556  -0.267  -1.577  1.00  0.00    -0.326 N 
ATOM     15  H   UNL     1       1.475   0.112  -1.906  1.00  0.00     0.169 HD
BRANCH  14  16
ATOM     16  C   UNL     1      -0.109  -1.342  -2.192  1.00  0.00     0.041 A 
ATOM     17  C   UNL     1      -1.008  -1.094  -3.214  1.00  0.00     0.026 A 
ATOM     18  C   UNL     1       0.057  -2.663  -1.862  1.00  0.00     0.029 A 
ATOM     19  C   UNL     1      -1.692  -2.109  -3.858  1.00  0.00     0.006 A 
ATOM     20  C   UNL     1      -0.606  -3.705  -2.478  1.00  0.00    -0.046 A 
ATOM     21  C   UNL     1      -1.497  -3.427  -3.495  1.00  0.00    -0.048 A 
ATOM     22  C   UNL     1      -0.387  -5.131  -2.078  1.00  0.00     0.044 C 
ATOM     23  C   UNL     1      -2.217  -4.545  -4.167  1.00  0.00     0.044 C 
ENDBRANCH  14  16
ENDBRANCH   1  12
TORSDOF 4
