REMARK SMILES COc1ccc(-c2oc3cc(OC)c(OC)c(OC)c3c(=O)c2OC)cc1
REMARK SMILES IDX 7 1 8 2 9 3 10 4 11 5 14 6 17 7 20 8 21 9 22 10 23 11 6 12
REMARK SMILES IDX 3 13 4 14 27 15 5 16 26 17 2 18 1 19 24 20 25 21 12 22 13 23
REMARK SMILES IDX 18 24 19 25 15 26 16 27
REMARK H PARENT
ROOT
ATOM      1  C   UNL     1       0.758  -0.642  -0.193  1.00  0.00     0.180 A 
ATOM      2  O   UNL     1      -0.432  -0.752  -0.757  1.00  0.00    -0.452 OA
ATOM      3  C   UNL     1      -1.569  -0.584  -0.178  1.00  0.00     0.146 A 
ATOM      4  C   UNL     1      -2.784  -0.724  -0.863  1.00  0.00     0.098 A 
ATOM      5  C   UNL     1      -3.977  -0.535  -0.201  1.00  0.00     0.168 A 
ATOM      6  C   UNL     1      -4.024  -0.207   1.138  1.00  0.00     0.204 A 
ATOM      7  C   UNL     1      -2.825  -0.067   1.823  1.00  0.00     0.179 A 
ATOM      8  C   UNL     1      -1.617  -0.257   1.159  1.00  0.00     0.115 A 
ATOM      9  C   UNL     1      -0.421  -0.122   1.819  1.00  0.00     0.239 A 
ATOM     10  O   UNL     1      -0.398   0.177   3.044  1.00  0.00    -0.285 OA
ATOM     11  C   UNL     1       0.792  -0.317   1.130  1.00  0.00     0.210 A 
ENDROOT
BRANCH   1  12
ATOM     12  C   UNL     1       1.950  -0.865  -0.993  1.00  0.00     0.021 A 
ATOM     13  C   UNL     1       4.132  -1.375  -2.769  1.00  0.00     0.118 A 
ATOM     14  C   UNL     1       2.846  -1.221  -3.233  1.00  0.00     0.047 A 
ATOM     15  C   UNL     1       4.303  -1.271  -1.411  1.00  0.00     0.047 A 
ATOM     16  C   UNL     1       1.794  -0.976  -2.381  1.00  0.00     0.016 A 
ATOM     17  C   UNL     1       3.226  -1.021  -0.545  1.00  0.00     0.016 A 
BRANCH  13  18
ATOM     18  O   UNL     1       5.181  -1.622  -3.642  1.00  0.00    -0.497 OA
ATOM     19  C   UNL     1       6.509  -1.781  -3.167  1.00  0.00     0.278 C 
ENDBRANCH  13  18
ENDBRANCH   1  12
BRANCH  11  20
ATOM     20  O   UNL     1       1.952  -0.149   1.882  1.00  0.00    -0.490 OA
ATOM     21  C   UNL     1       2.456   1.201   1.949  1.00  0.00     0.278 C 
ENDBRANCH  11  20
BRANCH   5  22
ATOM     22  O   UNL     1      -5.200  -0.671  -0.869  1.00  0.00    -0.493 OA
ATOM     23  C   UNL     1      -5.175  -1.011  -2.260  1.00  0.00     0.278 C 
ENDBRANCH   5  22
BRANCH   7  24
ATOM     24  O   UNL     1      -2.833   0.258   3.152  1.00  0.00    -0.492 OA
ATOM     25  C   UNL     1      -2.862  -0.638   4.224  1.00  0.00     0.278 C 
ENDBRANCH   7  24
BRANCH   6  26
ATOM     26  O   UNL     1      -5.234  -0.028   1.758  1.00  0.00    -0.490 OA
ATOM     27  C   UNL     1      -5.894  -1.120   2.372  1.00  0.00     0.278 C 
ENDBRANCH   6  26
TORSDOF 6
