REMARK SMILES COc1ccc(OC)c(NC=C2C=C(I)C=C(I)C2=O)c1
REMARK SMILES IDX 3 1 4 2 5 3 6 4 9 5 21 6 2 7 1 8 10 9 11 11 12 12 13 13
REMARK SMILES IDX 19 14 14 15 17 16 20 17 16 18 15 19 18 20 7 21 8 22
REMARK H PARENT 10 10
ROOT
ATOM      1  C   UNL     1      -1.537  -2.061   2.356  1.00  0.00     0.121 A 
ATOM      2  C   UNL     1      -1.717  -0.775   2.823  1.00  0.00     0.050 A 
ATOM      3  C   UNL     1      -1.012   0.282   2.237  1.00  0.00     0.052 A 
ATOM      4  C   UNL     1      -0.142   0.037   1.196  1.00  0.00     0.142 A 
ATOM      5  C   UNL     1       0.059  -1.245   0.706  1.00  0.00     0.084 A 
ATOM      6  C   UNL     1      -0.657  -2.252   1.315  1.00  0.00     0.076 A 
ENDROOT
BRANCH   1   7
ATOM      7  O   UNL     1      -2.231  -3.141   2.925  1.00  0.00    -0.497 OA
ATOM      8  C   UNL     1      -3.121  -2.876   3.993  1.00  0.00     0.278 C 
ENDBRANCH   1   7
BRANCH   5   9
ATOM      9  N   UNL     1       0.945  -1.519  -0.360  1.00  0.00    -0.358 N 
ATOM     10  H   UNL     1       1.040  -2.511  -0.670  1.00  0.00     0.166 HD
BRANCH   9  11
ATOM     11  C   UNL     1       1.709  -0.561  -1.034  1.00  0.00     0.095 C 
ATOM     12  C   UNL     1       1.543  -0.250  -2.323  1.00  0.00     0.040 C 
ATOM     13  C   UNL     1       2.364   0.753  -2.973  1.00  0.00     0.028 C 
ATOM     14  C   UNL     1       0.525  -0.913  -3.129  1.00  0.00     0.200 C 
ATOM     15  C   UNL     1       2.215   1.068  -4.234  1.00  0.00     0.015 C 
ATOM     16  C   UNL     1       0.395  -0.529  -4.530  1.00  0.00     0.062 C 
ATOM     17  O   UNL     1      -0.215  -1.789  -2.621  1.00  0.00    -0.288 OA
ATOM     18  C   UNL     1       1.195   0.401  -5.031  1.00  0.00     0.033 C 
ATOM     19  I   UNL     1       3.439   2.548  -5.157  1.00  0.00    -0.044 I 
ATOM     20  I   UNL     1      -1.065  -1.451  -5.762  1.00  0.00    -0.040 I 
ENDBRANCH   9  11
ENDBRANCH   5   9
BRANCH   4  21
ATOM     21  O   UNL     1       0.571   1.063   0.593  1.00  0.00    -0.495 OA
ATOM     22  C   UNL     1       0.391   2.386   1.068  1.00  0.00     0.278 C 
ENDBRANCH   4  21
TORSDOF 4
