REMARK SMILES Nc1ccc2c(c1)NC(=C1C=CC(=O)C=C1)O2
REMARK SMILES IDX 2 1 3 2 4 3 5 4 6 5 7 6 8 7 9 8 10 9 11 10 12 11 13 12 14 13
REMARK SMILES IDX 15 14 16 15 17 16 1 18
REMARK H PARENT 8 17 1 19 1 20
ROOT
ATOM      1  C   UNL     1      -2.142  -0.923   2.908  1.00  0.00     0.034 A 
ATOM      2  C   UNL     1      -1.011  -1.683   3.158  1.00  0.00     0.029 A 
ATOM      3  C   UNL     1       0.062  -1.724   2.295  1.00  0.00     0.051 A 
ATOM      4  C   UNL     1       0.043  -0.992   1.128  1.00  0.00     0.153 A 
ATOM      5  C   UNL     1      -1.077  -0.224   0.855  1.00  0.00     0.086 A 
ATOM      6  C   UNL     1      -2.143  -0.196   1.733  1.00  0.00     0.055 A 
ATOM      7  N   UNL     1      -0.796   0.402  -0.400  1.00  0.00    -0.322 N 
ATOM      8  C   UNL     1       0.488   0.006  -0.872  1.00  0.00     0.205 C 
ATOM      9  C   UNL     1       1.107   0.365  -1.987  1.00  0.00     0.035 C 
ATOM     10  C   UNL     1       2.431  -0.149  -2.303  1.00  0.00     0.017 C 
ATOM     11  C   UNL     1       3.059   0.208  -3.425  1.00  0.00     0.053 C 
ATOM     12  C   UNL     1       2.446   1.126  -4.379  1.00  0.00     0.178 C 
ATOM     13  O   UNL     1       3.020   1.479  -5.446  1.00  0.00    -0.290 OA
ATOM     14  C   UNL     1       1.119   1.643  -4.065  1.00  0.00     0.053 C 
ATOM     15  C   UNL     1       0.498   1.281  -2.942  1.00  0.00     0.017 C 
ATOM     16  O   UNL     1       0.977  -0.857   0.101  1.00  0.00    -0.438 OA
ATOM     17  H   UNL     1      -1.431   1.052  -0.901  1.00  0.00     0.170 HD
ENDROOT
BRANCH   1  18
ATOM     18  N   UNL     1      -3.212  -0.918   3.826  1.00  0.00    -0.399 N 
ATOM     19  H   UNL     1      -3.621  -1.801   4.175  1.00  0.00     0.156 HD
ATOM     20  H   UNL     1      -3.597  -0.018   4.159  1.00  0.00     0.156 HD
ENDBRANCH   1  18
TORSDOF 1
