REMARK SMILES O=[N+]([O-])c1c(-n2nnc3ccccc32)nn(-c2ccccc2)c1C(Cl)Cl
REMARK SMILES IDX 4 1 5 2 15 3 16 4 23 5 2 6 1 7 3 8 6 9 7 10 14 11 8 12 13 13
REMARK SMILES IDX 9 14 12 15 10 16 11 17 24 18 25 19 26 20 17 21 18 22 22 23
REMARK SMILES IDX 19 24 21 25 20 26
REMARK H PARENT
ROOT
ATOM      1  C   UNL     1      -1.805   0.574  -0.316  1.00  0.00     0.339 A 
ATOM      2  C   UNL     1      -0.454   0.745  -0.034  1.00  0.00     0.256 A 
ATOM      3  N   UNL     1      -0.109  -0.340   0.664  1.00  0.00    -0.140 NA
ATOM      4  N   UNL     1      -1.144  -1.174   0.837  1.00  0.00    -0.226 N 
ATOM      5  C   UNL     1      -2.209  -0.626   0.235  1.00  0.00     0.157 A 
ENDROOT
BRANCH   1   6
ATOM      6  N   UNL     1      -2.663   1.451  -1.033  1.00  0.00     0.069 N 
ATOM      7  O   UNL     1      -2.565   1.526  -2.266  1.00  0.00    -0.258 OA
ATOM      8  O   UNL     1      -3.597   2.214  -0.384  1.00  0.00    -0.258 OA
ENDBRANCH   1   6
BRANCH   2   9
ATOM      9  N   UNL     1       0.323   1.867  -0.442  1.00  0.00    -0.186 N 
ATOM     10  N   UNL     1       0.181   3.151  -0.157  1.00  0.00    -0.059 NA
ATOM     11  C   UNL     1       1.411   1.806  -1.246  1.00  0.00     0.097 A 
ATOM     12  N   UNL     1       1.117   3.880  -0.738  1.00  0.00    -0.130 NA
ATOM     13  C   UNL     1       2.046   0.729  -1.862  1.00  0.00     0.031 A 
ATOM     14  C   UNL     1       1.923   3.068  -1.442  1.00  0.00     0.113 A 
ATOM     15  C   UNL     1       3.156   0.942  -2.645  1.00  0.00     0.002 A 
ATOM     16  C   UNL     1       3.038   3.263  -2.230  1.00  0.00     0.032 A 
ATOM     17  C   UNL     1       3.672   2.205  -2.845  1.00  0.00     0.002 A 
ENDBRANCH   2   9
BRANCH   5  18
ATOM     18  C   UNL     1      -3.587  -1.214   0.166  1.00  0.00     0.228 C 
ATOM     19  Cl  UNL     1      -3.602  -2.744  -0.725  1.00  0.00    -0.098 Cl
ATOM     20  Cl  UNL     1      -4.305  -1.396   1.766  1.00  0.00    -0.098 Cl
ENDBRANCH   5  18
BRANCH   4  21
ATOM     21  C   UNL     1      -1.116  -2.420   1.535  1.00  0.00     0.065 A 
ATOM     22  C   UNL     1      -0.675  -3.555   0.883  1.00  0.00     0.028 A 
ATOM     23  C   UNL     1      -1.501  -2.561   2.847  1.00  0.00     0.028 A 
ATOM     24  C   UNL     1      -0.613  -4.784   1.493  1.00  0.00     0.002 A 
ATOM     25  C   UNL     1      -1.442  -3.803   3.471  1.00  0.00     0.002 A 
ATOM     26  C   UNL     1      -0.998  -4.938   2.811  1.00  0.00     0.000 A 
ENDBRANCH   4  21
TORSDOF 4
