REMARK SMILES COc1ccc(NC(=S)NC(NC(=O)OCc2ccccc2)C(Cl)(Cl)Cl)c([N+](=O)[O-])c1
REMARK SMILES IDX 11 1 10 2 7 3 8 4 9 5 6 8 3 9 4 10 31 11 5 12 27 13 2 14
REMARK SMILES IDX 1 15 28 16 29 17 30 18 12 19 13 20 14 21 15 23 16 24 17 25
REMARK SMILES IDX 18 26 22 27 19 28 21 29 20 30 23 31 24 32 25 33 26 34
REMARK H PARENT 7 6 10 7 12 22
ROOT
ATOM      1  C   UNL     1       0.115   0.934  -0.989  1.00  0.00     0.233 C 
ENDROOT
BRANCH   1   2
ATOM      2  N   UNL     1       1.104  -0.038  -0.670  1.00  0.00    -0.339 N 
ATOM      3  N   UNL     1       2.672  -1.201   0.850  1.00  0.00    -0.327 N 
ATOM      4  C   UNL     1       1.681  -0.227   0.614  1.00  0.00     0.172 C 
ATOM      5  S   UNL     1       1.178   0.654   1.890  1.00  0.00    -0.041 S 
ATOM      6  H   UNL     1       3.001  -1.803   0.079  1.00  0.00     0.169 HD
ATOM      7  H   UNL     1       1.458  -0.689  -1.434  1.00  0.00     0.165 HD
BRANCH   3   8
ATOM      8  C   UNL     1       3.224  -1.363   2.137  1.00  0.00     0.119 A 
ATOM      9  C   UNL     1       4.205  -1.782   4.746  1.00  0.00     0.125 A 
ATOM     10  C   UNL     1       4.825  -0.940   3.853  1.00  0.00     0.049 A 
ATOM     11  C   UNL     1       3.053  -2.412   4.261  1.00  0.00     0.134 A 
ATOM     12  C   UNL     1       4.352  -0.731   2.580  1.00  0.00     0.037 A 
ATOM     13  C   UNL     1       2.565  -2.219   2.998  1.00  0.00     0.296 A 
BRANCH   9  14
ATOM     14  O   UNL     1       4.629  -2.032   6.034  1.00  0.00    -0.496 OA
ATOM     15  C   UNL     1       5.775  -1.423   6.559  1.00  0.00     0.278 C 
ENDBRANCH   9  14
BRANCH  13  16
ATOM     16  N   UNL     1       1.377  -2.893   2.560  1.00  0.00     0.065 N 
ATOM     17  O   UNL     1       1.284  -3.190   1.373  1.00  0.00    -0.258 OA
ATOM     18  O   UNL     1       0.428  -3.158   3.509  1.00  0.00    -0.258 OA
ENDBRANCH  13  16
ENDBRANCH   3   8
ENDBRANCH   1   2
BRANCH   1  19
ATOM     19  N   UNL     1      -0.813   0.454  -2.016  1.00  0.00    -0.297 N 
ATOM     20  C   UNL     1      -2.170   0.181  -1.730  1.00  0.00     0.409 C 
ATOM     21  O   UNL     1      -2.570   0.364  -0.551  1.00  0.00    -0.225 OA
ATOM     22  H   UNL     1      -0.498   0.292  -3.012  1.00  0.00     0.169 HD
BRANCH  20  23
ATOM     23  O   UNL     1      -3.105  -0.273  -2.642  1.00  0.00    -0.445 OA
BRANCH  23  24
ATOM     24  C   UNL     1      -4.454  -0.519  -2.248  1.00  0.00     0.270 C 
BRANCH  24  25
ATOM     25  C   UNL     1      -5.246  -0.996  -3.409  1.00  0.00    -0.011 A 
ATOM     26  C   UNL     1      -5.312  -2.351  -3.672  1.00  0.00     0.007 A 
ATOM     27  C   UNL     1      -5.923  -0.128  -4.237  1.00  0.00     0.007 A 
ATOM     28  C   UNL     1      -6.030  -2.861  -4.729  1.00  0.00     0.000 A 
ATOM     29  C   UNL     1      -6.647  -0.651  -5.305  1.00  0.00     0.000 A 
ATOM     30  C   UNL     1      -6.718  -1.995  -5.572  1.00  0.00     0.000 A 
ENDBRANCH  24  25
ENDBRANCH  23  24
ENDBRANCH  20  23
ENDBRANCH   1  19
BRANCH   1  31
ATOM     31  C   UNL     1       0.565   2.325  -1.242  1.00  0.00     0.228 C 
ATOM     32  Cl  UNL     1      -0.898   3.297  -1.618  1.00  0.00    -0.079 Cl
ATOM     33  Cl  UNL     1       1.755   2.462  -2.549  1.00  0.00    -0.079 Cl
ATOM     34  Cl  UNL     1       1.298   3.023   0.200  1.00  0.00    -0.079 Cl
ENDBRANCH   1  31
TORSDOF 9
