REMARK SMILES CC(=O)c1ccc([N-]S(=O)(=O)c2cccc(C(=O)Nc3ccc([N+](=O)[O-])cc3)c2)cc1
REMARK SMILES IDX 12 1 13 2 14 3 15 4 16 5 29 6 9 7 10 8 11 9 8 10 7 11 4 12
REMARK SMILES IDX 5 13 31 14 6 15 30 16 2 17 3 18 1 19 17 20 18 21 19 22 20 24
REMARK SMILES IDX 21 25 28 26 22 27 27 28 23 29 24 30 25 31 26 32
REMARK H PARENT 19 23
ROOT
ATOM      1  C   UNL     1       2.055   1.823  -0.971  1.00  0.00     0.053 A 
ATOM      2  C   UNL     1       3.060   1.793  -1.914  1.00  0.00     0.019 A 
ATOM      3  C   UNL     1       2.855   1.018  -3.039  1.00  0.00     0.002 A 
ATOM      4  C   UNL     1       1.689   0.298  -3.217  1.00  0.00     0.014 A 
ATOM      5  C   UNL     1       0.675   0.317  -2.281  1.00  0.00     0.041 A 
ATOM      6  C   UNL     1       0.878   1.089  -1.160  1.00  0.00     0.032 A 
ENDROOT
BRANCH   1   7
ATOM      7  S   UNL     1       2.244   2.778   0.473  1.00  0.00     0.123 S 
ATOM      8  O   UNL     1       0.891   3.332   0.841  1.00  0.00    -0.240 OA
ATOM      9  O   UNL     1       3.138   3.968   0.171  1.00  0.00    -0.240 OA
BRANCH   7  10
ATOM     10  N   UNL     1       2.968   1.909   1.756  1.00  0.00    -0.573 NA
BRANCH  10  11
ATOM     11  C   UNL     1       2.445   0.767   2.363  1.00  0.00    -0.128 A 
ATOM     12  C   UNL     1       1.415  -1.544   3.554  1.00  0.00     0.017 A 
ATOM     13  C   UNL     1       1.088  -0.307   4.053  1.00  0.00     0.010 A 
ATOM     14  C   UNL     1       2.260  -1.642   2.456  1.00  0.00     0.010 A 
ATOM     15  C   UNL     1       1.606   0.823   3.452  1.00  0.00    -0.015 A 
ATOM     16  C   UNL     1       2.770  -0.476   1.868  1.00  0.00    -0.015 A 
BRANCH  12  17
ATOM     17  C   UNL     1       0.885  -2.755   4.166  1.00  0.00     0.159 C 
ATOM     18  O   UNL     1       1.194  -3.884   3.700  1.00  0.00    -0.295 OA
ATOM     19  C   UNL     1      -0.018  -2.710   5.334  1.00  0.00     0.093 C 
ENDBRANCH  12  17
ENDBRANCH  10  11
ENDBRANCH   7  10
ENDBRANCH   1   7
BRANCH   5  20
ATOM     20  C   UNL     1      -0.543  -0.450  -2.490  1.00  0.00     0.255 C 
ATOM     21  O   UNL     1      -0.648  -1.139  -3.559  1.00  0.00    -0.269 OA
ATOM     22  N   UNL     1      -1.641  -0.512  -1.616  1.00  0.00    -0.322 N 
ATOM     23  H   UNL     1      -1.599   0.037  -0.729  1.00  0.00     0.170 HD
BRANCH  22  24
ATOM     24  C   UNL     1      -2.811  -1.278  -1.867  1.00  0.00     0.041 A 
ATOM     25  C   UNL     1      -3.888  -0.743  -2.540  1.00  0.00     0.033 A 
ATOM     26  C   UNL     1      -2.920  -2.587  -1.448  1.00  0.00     0.033 A 
ATOM     27  C   UNL     1      -5.037  -1.495  -2.786  1.00  0.00     0.088 A 
ATOM     28  C   UNL     1      -4.049  -3.346  -1.684  1.00  0.00     0.088 A 
ATOM     29  C   UNL     1      -5.110  -2.801  -2.353  1.00  0.00     0.269 A 
BRANCH  29  30
ATOM     30  N   UNL     1      -6.279  -3.579  -2.599  1.00  0.00     0.062 N 
ATOM     31  O   UNL     1      -6.341  -4.751  -2.209  1.00  0.00    -0.258 OA
ATOM     32  O   UNL     1      -7.339  -3.028  -3.270  1.00  0.00    -0.258 OA
ENDBRANCH  29  30
ENDBRANCH  22  24
ENDBRANCH   5  20
TORSDOF 7
