REMARK SMILES CC(=O)c1ccc(NS(=O)(=O)c2cccc(C(=O)Nc3ccc([N+](=O)[O-])cc3)c2)cc1
REMARK SMILES IDX 12 1 13 2 14 3 15 4 16 5 29 6 9 7 10 8 11 9 8 10 7 12 4 13
REMARK SMILES IDX 5 14 31 15 6 16 30 17 2 18 3 19 1 20 17 21 18 22 19 23 20 25
REMARK SMILES IDX 21 26 28 27 22 28 27 29 23 30 24 31 25 32 26 33
REMARK H PARENT 8 11 19 24
ROOT
ATOM      1  C   UNL     1       3.172  -0.217  -0.613  1.00  0.00     0.088 A 
ATOM      2  C   UNL     1       3.761   0.703  -1.455  1.00  0.00     0.022 A 
ATOM      3  C   UNL     1       3.125   1.009  -2.639  1.00  0.00     0.002 A 
ATOM      4  C   UNL     1       1.924   0.396  -2.956  1.00  0.00     0.014 A 
ATOM      5  C   UNL     1       1.318  -0.526  -2.130  1.00  0.00     0.041 A 
ATOM      6  C   UNL     1       1.967  -0.820  -0.950  1.00  0.00     0.036 A 
ENDROOT
BRANCH   1   7
ATOM      7  S   UNL     1       3.995  -0.591   0.883  1.00  0.00     0.261 S 
ATOM      8  O   UNL     1       3.701  -2.024   1.214  1.00  0.00    -0.201 OA
ATOM      9  O   UNL     1       5.457  -0.455   0.670  1.00  0.00    -0.201 OA
BRANCH   7  10
ATOM     10  N   UNL     1       3.489   0.463   2.157  1.00  0.00    -0.280 N 
ATOM     11  H   UNL     1       4.174   1.094   2.628  1.00  0.00     0.180 HD
BRANCH  10  12
ATOM     12  C   UNL     1       2.144   0.500   2.592  1.00  0.00     0.049 A 
ATOM     13  C   UNL     1      -0.487   0.595   3.443  1.00  0.00     0.017 A 
ATOM     14  C   UNL     1       0.192   1.784   3.239  1.00  0.00     0.014 A 
ATOM     15  C   UNL     1       0.116  -0.615   3.232  1.00  0.00     0.014 A 
ATOM     16  C   UNL     1       1.499   1.701   2.816  1.00  0.00     0.027 A 
ATOM     17  C   UNL     1       1.415  -0.655   2.813  1.00  0.00     0.027 A 
BRANCH  13  18
ATOM     18  C   UNL     1      -1.869   0.633   3.889  1.00  0.00     0.159 C 
ATOM     19  O   UNL     1      -2.487  -0.424   4.076  1.00  0.00    -0.295 OA
ATOM     20  C   UNL     1      -2.530   1.945   4.119  1.00  0.00     0.093 C 
ENDBRANCH  13  18
ENDBRANCH  10  12
ENDBRANCH   7  10
ENDBRANCH   1   7
BRANCH   5  21
ATOM     21  C   UNL     1       0.053  -1.145  -2.506  1.00  0.00     0.255 C 
ATOM     22  O   UNL     1      -0.478  -0.823  -3.601  1.00  0.00    -0.269 OA
ATOM     23  N   UNL     1      -0.631  -2.095  -1.721  1.00  0.00    -0.322 N 
ATOM     24  H   UNL     1      -0.204  -2.372  -0.811  1.00  0.00     0.170 HD
BRANCH  23  25
ATOM     25  C   UNL     1      -1.866  -2.698  -2.091  1.00  0.00     0.041 A 
ATOM     26  C   UNL     1      -1.909  -3.876  -2.820  1.00  0.00     0.033 A 
ATOM     27  C   UNL     1      -3.069  -2.121  -1.731  1.00  0.00     0.033 A 
ATOM     28  C   UNL     1      -3.136  -4.423  -3.156  1.00  0.00     0.088 A 
ATOM     29  C   UNL     1      -4.294  -2.662  -2.063  1.00  0.00     0.088 A 
ATOM     30  C   UNL     1      -4.329  -3.834  -2.789  1.00  0.00     0.269 A 
BRANCH  30  31
ATOM     31  N   UNL     1      -5.579  -4.408  -3.141  1.00  0.00     0.062 N 
ATOM     32  O   UNL     1      -6.633  -3.872  -2.806  1.00  0.00    -0.258 OA
ATOM     33  O   UNL     1      -5.627  -5.580  -3.867  1.00  0.00    -0.258 OA
ENDBRANCH  30  31
ENDBRANCH  23  25
ENDBRANCH   5  21
TORSDOF 7
