REMARK SMILES CC(C)Cc1nnc2sc(-c3cccc(N(C)C)c3)nn12
REMARK SMILES IDX 5 1 6 2 7 3 8 4 9 5 10 6 20 7 21 8 4 9 2 10 1 11 3 12 11 13
REMARK SMILES IDX 12 14 19 15 13 16 15 17 14 18 16 19 17 20 18 21
REMARK H PARENT
ROOT
ATOM      1  C   UNL     1      -0.146   0.248   3.336  1.00  0.00     0.156 A 
ATOM      2  N   UNL     1       0.369   1.033   4.290  1.00  0.00    -0.132 NA
ATOM      3  N   UNL     1       1.396   1.757   3.878  1.00  0.00    -0.117 NA
ATOM      4  C   UNL     1       1.538   1.405   2.578  1.00  0.00     0.234 A 
ATOM      5  S   UNL     1       2.458   1.623   1.025  1.00  0.00    -0.073 S 
ATOM      6  C   UNL     1       1.458   0.445   0.129  1.00  0.00     0.147 A 
ATOM      7  N   UNL     1       0.670   0.089   0.991  1.00  0.00    -0.153 NA
ATOM      8  N   UNL     1       0.625   0.493   2.207  1.00  0.00    -0.187 N 
ENDROOT
BRANCH   1   9
ATOM      9  C   UNL     1      -1.284  -0.668   3.478  1.00  0.00     0.082 C 
BRANCH   9  10
ATOM     10  C   UNL     1      -2.615  -0.034   3.168  1.00  0.00    -0.010 C 
ATOM     11  C   UNL     1      -3.670  -1.127   3.368  1.00  0.00     0.008 C 
ATOM     12  C   UNL     1      -2.958   1.111   4.056  1.00  0.00     0.008 C 
ENDBRANCH   9  10
ENDBRANCH   1   9
BRANCH   6  13
ATOM     13  C   UNL     1       1.699   0.127  -1.312  1.00  0.00     0.014 A 
ATOM     14  C   UNL     1       2.712   0.737  -2.003  1.00  0.00     0.011 A 
ATOM     15  C   UNL     1       0.902  -0.771  -1.917  1.00  0.00     0.037 A 
ATOM     16  C   UNL     1       2.899   0.405  -3.353  1.00  0.00     0.003 A 
ATOM     17  C   UNL     1       1.060  -1.129  -3.268  1.00  0.00     0.037 A 
ATOM     18  C   UNL     1       2.075  -0.520  -3.968  1.00  0.00     0.026 A 
BRANCH  17  19
ATOM     19  N   UNL     1       0.232  -2.064  -3.904  1.00  0.00    -0.378 N 
ATOM     20  C   UNL     1      -0.826  -2.695  -3.166  1.00  0.00     0.143 C 
ATOM     21  C   UNL     1       0.434  -2.394  -5.284  1.00  0.00     0.143 C 
ENDBRANCH  17  19
ENDBRANCH   6  13
TORSDOF 4
