REMARK SMILES CCC(=O)N1CCN(c2ccc(N)cc2Cl)CC1
REMARK SMILES IDX 3 1 4 2 5 3 6 4 7 5 8 6 17 7 18 8 2 9 1 10 9 11 10 12 15 13
REMARK SMILES IDX 11 14 14 15 12 16 16 17 13 18
REMARK H PARENT 13 19 13 20
ROOT
ATOM      1  C   UNL     1      -2.072   0.311   2.850  1.00  0.00     0.222 C 
ATOM      2  O   UNL     1      -1.456   1.111   3.633  1.00  0.00    -0.275 OA
ATOM      3  N   UNL     1      -1.296  -0.636   2.146  1.00  0.00    -0.339 N 
ATOM      4  C   UNL     1       0.164  -0.700   2.339  1.00  0.00     0.141 C 
ATOM      5  C   UNL     1       0.761  -0.203   1.043  1.00  0.00     0.138 C 
ATOM      6  N   UNL     1       0.138  -0.780  -0.115  1.00  0.00    -0.367 N 
ATOM      7  C   UNL     1      -1.206  -1.287  -0.164  1.00  0.00     0.138 C 
ATOM      8  C   UNL     1      -1.794  -1.591   1.192  1.00  0.00     0.141 C 
ENDROOT
BRANCH   1   9
ATOM      9  C   UNL     1      -3.537   0.422   2.730  1.00  0.00     0.097 C 
ATOM     10  C   UNL     1      -3.974   1.819   2.340  1.00  0.00     0.014 C 
ENDBRANCH   1   9
BRANCH   6  11
ATOM     11  C   UNL     1       0.914  -0.856  -1.308  1.00  0.00     0.056 A 
ATOM     12  C   UNL     1       1.133  -2.100  -1.887  1.00  0.00     0.029 A 
ATOM     13  C   UNL     1       1.470   0.226  -1.941  1.00  0.00     0.066 A 
ATOM     14  C   UNL     1       1.874  -2.224  -3.044  1.00  0.00     0.028 A 
ATOM     15  C   UNL     1       2.216   0.102  -3.104  1.00  0.00     0.048 A 
ATOM     16  C   UNL     1       2.436  -1.127  -3.685  1.00  0.00     0.033 A 
ATOM     17  Cl  UNL     1       1.203   1.814  -1.224  1.00  0.00    -0.082 Cl
BRANCH  16  18
ATOM     18  N   UNL     1       3.197  -1.288  -4.877  1.00  0.00    -0.399 N 
ATOM     19  H   UNL     1       2.812  -1.572  -5.803  1.00  0.00     0.156 HD
ATOM     20  H   UNL     1       4.223  -1.108  -4.821  1.00  0.00     0.156 HD
ENDBRANCH  16  18
ENDBRANCH   6  11
TORSDOF 3
