REMARK SMILES O=c1c2sccc2[nH]c(=S)n1CCc1ccccc1
REMARK SMILES IDX 12 1 11 2 1 3 2 4 3 5 4 6 7 7 9 8 5 9 6 10 8 11 10 12 13 14
REMARK SMILES IDX 14 15 15 16 19 17 16 18 18 19 17 20
REMARK H PARENT 8 13
ROOT
ATOM      1  C   UNL     1       1.049   1.147  -1.627  1.00  0.00     0.133 C 
ENDROOT
BRANCH   1   2
ATOM      2  N   UNL     1       0.997   0.754  -0.251  1.00  0.00    -0.284 N 
ATOM      3  O   UNL     1      -1.280   0.928  -0.151  1.00  0.00    -0.268 OA
ATOM      4  C   UNL     1      -0.199   0.671   0.409  1.00  0.00     0.272 A 
ATOM      5  C   UNL     1      -0.218   0.297   1.722  1.00  0.00     0.116 A 
ATOM      6  S   UNL     1      -1.571   0.074   2.920  1.00  0.00    -0.136 S 
ATOM      7  C   UNL     1       0.900  -0.018   2.479  1.00  0.00     0.064 A 
ATOM      8  C   UNL     1       2.094   0.455   0.453  1.00  0.00     0.180 A 
ATOM      9  C   UNL     1      -0.508  -0.415   4.302  1.00  0.00     0.068 A 
ATOM     10  C   UNL     1       0.707  -0.368   3.759  1.00  0.00     0.038 A 
ATOM     11  N   UNL     1       2.057   0.094   1.728  1.00  0.00    -0.331 N 
ATOM     12  S   UNL     1       3.568   0.548  -0.329  1.00  0.00    -0.040 S 
ATOM     13  H   UNL     1       2.974  -0.118   2.186  1.00  0.00     0.169 HD
ENDBRANCH   1   2
BRANCH   1  14
ATOM     14  C   UNL     1       0.972  -0.013  -2.596  1.00  0.00     0.057 C 
BRANCH  14  15
ATOM     15  C   UNL     1      -0.289  -0.767  -2.418  1.00  0.00    -0.046 A 
ATOM     16  C   UNL     1      -1.430  -0.406  -3.134  1.00  0.00     0.004 A 
ATOM     17  C   UNL     1      -0.323  -1.834  -1.540  1.00  0.00     0.004 A 
ATOM     18  C   UNL     1      -2.603  -1.123  -2.961  1.00  0.00     0.000 A 
ATOM     19  C   UNL     1      -1.508  -2.521  -1.397  1.00  0.00     0.000 A 
ATOM     20  C   UNL     1      -2.655  -2.181  -2.097  1.00  0.00     0.000 A 
ENDBRANCH  14  15
ENDBRANCH   1  14
TORSDOF 3
