REMARK SMILES O=c1c2sccc2[n-]c(=S)n1CCc1ccccc1
REMARK SMILES IDX 12 1 11 2 1 3 2 4 3 5 4 6 7 7 9 8 5 9 6 10 8 11 10 12 13 13
REMARK SMILES IDX 14 14 15 15 19 16 16 17 18 18 17 19
REMARK H PARENT
ROOT
ATOM      1  C   UNL     1       0.512   1.515  -1.472  1.00  0.00     0.015 C 
ENDROOT
BRANCH   1   2
ATOM      2  N   UNL     1       0.710   1.043  -0.156  1.00  0.00    -0.401 N 
ATOM      3  O   UNL     1      -1.510   0.640   0.208  1.00  0.00    -0.292 OA
ATOM      4  C   UNL     1      -0.324   0.634   0.605  1.00  0.00     0.189 A 
ATOM      5  C   UNL     1      -0.088   0.181   1.896  1.00  0.00     0.074 A 
ATOM      6  S   UNL     1      -1.126  -0.432   3.204  1.00  0.00    -0.140 S 
ATOM      7  C   UNL     1       1.164   0.115   2.475  1.00  0.00    -0.019 A 
ATOM      8  C   UNL     1       1.925   0.981   0.401  1.00  0.00     0.012 A 
ATOM      9  C   UNL     1       0.220  -0.742   4.468  1.00  0.00     0.066 A 
ATOM     10  C   UNL     1       1.308  -0.328   3.711  1.00  0.00     0.016 A 
ATOM     11  N   UNL     1       2.165   0.551   1.629  1.00  0.00    -0.425 NA
ATOM     12  S   UNL     1       3.236   1.473  -0.495  1.00  0.00    -0.089 S 
ENDBRANCH   1   2
BRANCH   1  13
ATOM     13  C   UNL     1       0.598   0.456  -2.550  1.00  0.00     0.035 C 
BRANCH  13  14
ATOM     14  C   UNL     1      -0.433  -0.586  -2.310  1.00  0.00    -0.048 A 
ATOM     15  C   UNL     1      -1.707  -0.490  -2.834  1.00  0.00     0.004 A 
ATOM     16  C   UNL     1      -0.158  -1.715  -1.547  1.00  0.00     0.004 A 
ATOM     17  C   UNL     1      -2.650  -1.468  -2.606  1.00  0.00     0.000 A 
ATOM     18  C   UNL     1      -1.109  -2.688  -1.325  1.00  0.00     0.000 A 
ATOM     19  C   UNL     1      -2.377  -2.585  -1.851  1.00  0.00     0.000 A 
ENDBRANCH  13  14
ENDBRANCH   1  13
TORSDOF 3
