REMARK SMILES Cc1nc(N2CCOCC2)c2c3c(sc2n1)CCCC3
REMARK SMILES IDX 1 1 2 2 3 3 4 4 11 5 12 6 13 7 14 8 15 9 16 10 17 11 18 12
REMARK SMILES IDX 19 13 20 14 5 15 6 16 10 17 7 18 9 19 8 20
REMARK H PARENT
ROOT
ATOM      1  C   UNL     1      -2.400   3.272   1.641  1.00  0.00     0.090 C 
ATOM      2  C   UNL     1      -2.069   1.987   1.019  1.00  0.00     0.129 A 
ATOM      3  N   UNL     1      -0.824   1.563   0.898  1.00  0.00    -0.216 NA
ATOM      4  C   UNL     1      -0.456   0.395   0.338  1.00  0.00     0.141 A 
ATOM      5  C   UNL     1      -1.436  -0.483  -0.172  1.00  0.00     0.057 A 
ATOM      6  C   UNL     1      -1.295  -1.706  -0.772  1.00  0.00    -0.021 A 
ATOM      7  C   UNL     1      -2.401  -2.338  -1.174  1.00  0.00     0.011 A 
ATOM      8  S   UNL     1      -3.726  -1.280  -0.745  1.00  0.00    -0.120 S 
ATOM      9  C   UNL     1      -2.704  -0.009  -0.029  1.00  0.00     0.129 A 
ATOM     10  N   UNL     1      -3.058   1.175   0.539  1.00  0.00    -0.222 NA
ATOM     11  C   UNL     1      -2.416  -3.703  -1.860  1.00  0.00     0.047 C 
ATOM     12  C   UNL     1      -1.517  -4.510  -0.907  1.00  0.00     0.006 C 
ATOM     13  C   UNL     1      -0.172  -3.907  -1.006  1.00  0.00     0.005 C 
ATOM     14  C   UNL     1      -0.002  -2.456  -1.010  1.00  0.00     0.037 C 
ENDROOT
BRANCH   4  15
ATOM     15  N   UNL     1       0.941   0.174   0.259  1.00  0.00    -0.351 N 
ATOM     16  C   UNL     1       1.648   0.276  -0.998  1.00  0.00     0.146 C 
ATOM     17  C   UNL     1       1.733  -0.131   1.425  1.00  0.00     0.146 C 
ATOM     18  C   UNL     1       2.630   1.439  -0.765  1.00  0.00     0.181 C 
ATOM     19  C   UNL     1       2.826   0.911   1.499  1.00  0.00     0.181 C 
ATOM     20  O   UNL     1       3.449   1.182   0.316  1.00  0.00    -0.378 OA
ENDBRANCH   4  15
TORSDOF 1
