REMARK SMILES CCC1CCc2sc(C(=O)NCc3cccnc3)cc2C1
REMARK SMILES IDX 3 1 4 2 5 3 6 4 7 5 8 6 19 7 20 8 21 9 2 10 1 11 9 12 10 13
REMARK SMILES IDX 11 14 12 16 13 17 14 18 18 19 15 20 17 21 16 22
REMARK H PARENT 11 15
ROOT
ATOM      1  C   UNL     1      -3.068   0.031   3.001  1.00  0.00    -0.007 C 
ATOM      2  C   UNL     1      -3.905  -0.863   2.128  1.00  0.00     0.009 C 
ATOM      3  C   UNL     1      -3.319  -0.977   0.768  1.00  0.00     0.047 C 
ATOM      4  C   UNL     1      -1.886  -0.866   0.811  1.00  0.00     0.009 A 
ATOM      5  S   UNL     1      -0.725  -0.855  -0.568  1.00  0.00    -0.135 S 
ATOM      6  C   UNL     1       0.764  -0.688   0.419  1.00  0.00     0.092 A 
ATOM      7  C   UNL     1       0.281  -0.655   1.671  1.00  0.00     0.029 A 
ATOM      8  C   UNL     1      -1.050  -0.745   1.859  1.00  0.00    -0.033 A 
ATOM      9  C   UNL     1      -1.759  -0.721   3.227  1.00  0.00     0.040 C 
ENDROOT
BRANCH   1  10
ATOM     10  C   UNL     1      -3.720   0.277   4.345  1.00  0.00     0.000 C 
ATOM     11  C   UNL     1      -5.066   0.939   4.143  1.00  0.00     0.004 C 
ENDBRANCH   1  10
BRANCH   6  12
ATOM     12  C   UNL     1       2.131  -0.613  -0.079  1.00  0.00     0.261 C 
ATOM     13  O   UNL     1       3.112  -0.496   0.696  1.00  0.00    -0.268 OA
ATOM     14  N   UNL     1       2.430  -0.667  -1.465  1.00  0.00    -0.347 N 
ATOM     15  H   UNL     1       1.638  -0.764  -2.129  1.00  0.00     0.164 HD
BRANCH  14  16
ATOM     16  C   UNL     1       3.782  -0.594  -1.968  1.00  0.00     0.153 C 
BRANCH  16  17
ATOM     17  C   UNL     1       3.731  -0.680  -3.449  1.00  0.00    -0.010 A 
ATOM     18  C   UNL     1       3.792  -1.879  -4.138  1.00  0.00     0.009 A 
ATOM     19  C   UNL     1       3.617   0.461  -4.236  1.00  0.00     0.116 A 
ATOM     20  C   UNL     1       3.741  -1.921  -5.517  1.00  0.00     0.020 A 
ATOM     21  N   UNL     1       3.570   0.391  -5.590  1.00  0.00    -0.264 NA
ATOM     22  C   UNL     1       3.628  -0.769  -6.254  1.00  0.00     0.111 A 
ENDBRANCH  16  17
ENDBRANCH  14  16
ENDBRANCH   6  12
TORSDOF 4
