REMARK SMILES Nc1cc(Cl)c(N)cc1Cl
REMARK SMILES IDX 2 1 3 2 4 3 5 4 6 5 8 6 9 7 10 8 1 9 7 12
REMARK H PARENT 1 10 1 11 7 13 7 14
ROOT
ATOM      1  C   UNL     1      -0.860   0.754  -0.784  1.00  0.00     0.052 A 
ATOM      2  C   UNL     1      -0.856  -0.234   0.189  1.00  0.00     0.049 A 
ATOM      3  C   UNL     1       0.304  -0.614   0.831  1.00  0.00     0.066 A 
ATOM      4  Cl  UNL     1       0.269  -1.858   2.045  1.00  0.00    -0.082 Cl
ATOM      5  C   UNL     1       1.516  -0.027   0.533  1.00  0.00     0.052 A 
ATOM      6  C   UNL     1       1.526   0.958  -0.432  1.00  0.00     0.049 A 
ATOM      7  C   UNL     1       0.362   1.333  -1.070  1.00  0.00     0.066 A 
ATOM      8  Cl  UNL     1       0.394   2.584  -2.292  1.00  0.00    -0.082 Cl
ENDROOT
BRANCH   1   9
ATOM      9  N   UNL     1      -2.053   1.142  -1.441  1.00  0.00    -0.397 N 
ATOM     10  H   UNL     1      -2.408   2.113  -1.403  1.00  0.00     0.156 HD
ATOM     11  H   UNL     1      -2.595   0.441  -1.979  1.00  0.00     0.156 HD
ENDBRANCH   1   9
BRANCH   5  12
ATOM     12  N   UNL     1       2.722  -0.413   1.192  1.00  0.00    -0.397 N 
ATOM     13  H   UNL     1       3.476  -0.907   0.636  1.00  0.00     0.156 HD
ATOM     14  H   UNL     1       2.921  -0.246   2.190  1.00  0.00     0.156 HD
ENDBRANCH   5  12
TORSDOF 2
