REMARK SMILES O=C(Nc1ccc(Cl)cc1)c1cc(Br)ccc1[O-]
REMARK SMILES IDX 1 1 2 2 3 3 11 5 12 6 17 7 13 8 16 9 15 10 18 11 14 12 4 13
REMARK SMILES IDX 5 14 10 15 6 16 9 17 7 18 8 19
REMARK H PARENT 3 4
ROOT
ATOM      1  O   UNL     1       1.273   0.657  -0.716  1.00  0.00    -0.269 OA
ATOM      2  C   UNL     1       0.319  -0.187  -0.708  1.00  0.00     0.255 C 
ATOM      3  N   UNL     1      -0.456  -0.286   0.453  1.00  0.00    -0.322 N 
ATOM      4  H   UNL     1      -1.252  -0.984   0.473  1.00  0.00     0.170 HD
ENDROOT
BRANCH   2   5
ATOM      5  C   UNL     1       0.115  -0.987  -1.920  1.00  0.00     0.033 A 
ATOM      6  C   UNL     1       0.981  -0.769  -3.007  1.00  0.00     0.028 A 
ATOM      7  C   UNL     1      -0.848  -1.929  -2.086  1.00  0.00    -0.096 A 
ATOM      8  C   UNL     1       0.914  -1.432  -4.189  1.00  0.00     0.018 A 
ATOM      9  C   UNL     1      -0.948  -2.639  -3.306  1.00  0.00    -0.007 A 
ATOM     10  C   UNL     1      -0.076  -2.387  -4.335  1.00  0.00     0.015 A 
ATOM     11  O   UNL     1      -1.747  -2.219  -1.085  1.00  0.00    -0.872 OA
ATOM     12  Br  UNL     1       2.104  -1.111  -5.642  1.00  0.00    -0.051 Br
ENDBRANCH   2   5
BRANCH   3  13
ATOM     13  C   UNL     1      -0.280   0.476   1.642  1.00  0.00     0.041 A 
ATOM     14  C   UNL     1       0.669   1.434   1.863  1.00  0.00     0.027 A 
ATOM     15  C   UNL     1      -1.154   0.244   2.714  1.00  0.00     0.027 A 
ATOM     16  C   UNL     1       0.745   2.125   3.086  1.00  0.00     0.022 A 
ATOM     17  C   UNL     1      -1.082   0.917   3.909  1.00  0.00     0.022 A 
ATOM     18  C   UNL     1      -0.121   1.878   4.117  1.00  0.00     0.041 A 
ATOM     19  Cl  UNL     1      -0.007   2.753   5.635  1.00  0.00    -0.084 Cl
ENDBRANCH   3  13
TORSDOF 2
