REMARK SMILES COc1ccc(C2=N[NH+](C(C)=O)C(c3cc(OC)ccc3OC)C2)cc1
REMARK SMILES IDX 7 1 8 2 9 3 13 4 24 5 6 7 3 8 4 9 26 10 5 11 25 12 2 13 1 14
REMARK SMILES IDX 10 15 12 16 11 17 14 18 15 19 21 20 16 21 20 22 19 23 22 24
REMARK SMILES IDX 23 25 17 26 18 27
REMARK H PARENT 9 6
ROOT
ATOM      1  C   UNL     1       1.405  -1.009   0.636  1.00  0.00     0.110 C 
ATOM      2  N   UNL     1       0.904  -1.390   1.744  1.00  0.00    -0.080 NA
ATOM      3  N   UNL     1       0.367  -0.324   2.497  1.00  0.00    -0.140 N 
ATOM      4  C   UNL     1      -0.016   0.628   1.440  1.00  0.00     0.259 C 
ATOM      5  C   UNL     1       1.237   0.465   0.534  1.00  0.00     0.136 C 
ATOM      6  H   UNL     1       1.202   0.077   2.826  1.00  0.00     0.390 HD
ENDROOT
BRANCH   1   7
ATOM      7  C   UNL     1       2.045  -1.871  -0.383  1.00  0.00     0.002 A 
ATOM      8  C   UNL     1       3.253  -3.548  -2.286  1.00  0.00     0.118 A 
ATOM      9  C   UNL     1       3.147  -2.186  -2.482  1.00  0.00     0.047 A 
ATOM     10  C   UNL     1       2.739  -4.054  -1.110  1.00  0.00     0.047 A 
ATOM     11  C   UNL     1       2.551  -1.355  -1.545  1.00  0.00     0.014 A 
ATOM     12  C   UNL     1       2.136  -3.223  -0.159  1.00  0.00     0.014 A 
BRANCH   8  13
ATOM     13  O   UNL     1       3.849  -4.397  -3.218  1.00  0.00    -0.497 OA
ATOM     14  C   UNL     1       4.359  -3.819  -4.406  1.00  0.00     0.278 C 
ENDBRANCH   8  13
ENDBRANCH   1   7
BRANCH   3  15
ATOM     15  C   UNL     1      -0.465  -0.604   3.520  1.00  0.00     0.335 C 
ATOM     16  O   UNL     1      -1.416  -0.540   2.792  1.00  0.00    -0.229 OA
ATOM     17  C   UNL     1      -0.836  -0.910   4.871  1.00  0.00     0.167 C 
ENDBRANCH   3  15
BRANCH   4  18
ATOM     18  C   UNL     1      -1.200   0.355   0.665  1.00  0.00     0.058 A 
ATOM     19  C   UNL     1      -1.558  -0.881   0.187  1.00  0.00     0.060 A 
ATOM     20  C   UNL     1      -2.023   1.448   0.350  1.00  0.00     0.128 A 
ATOM     21  C   UNL     1      -2.684  -1.043  -0.573  1.00  0.00     0.119 A 
ATOM     22  C   UNL     1      -3.145   1.305  -0.404  1.00  0.00     0.051 A 
ATOM     23  C   UNL     1      -3.486   0.050  -0.874  1.00  0.00     0.050 A 
BRANCH  20  24
ATOM     24  O   UNL     1      -1.679   2.728   0.827  1.00  0.00    -0.496 OA
ATOM     25  C   UNL     1      -2.519   3.813   0.499  1.00  0.00     0.278 C 
ENDBRANCH  20  24
BRANCH  21  26
ATOM     26  O   UNL     1      -3.023  -2.291  -1.040  1.00  0.00    -0.497 OA
ATOM     27  C   UNL     1      -4.167  -2.523  -1.826  1.00  0.00     0.278 C 
ENDBRANCH  21  26
ENDBRANCH   4  18
TORSDOF 6
