REMARK SMILES COc1ccc(Cl)cc1S(=O)(=O)[N-]c1cc(C)ccc1O
REMARK SMILES IDX 10 1 11 2 12 3 9 4 3 5 4 6 5 7 8 8 6 9 7 10 2 11 1 12 13 13
REMARK SMILES IDX 14 14 15 15 20 16 16 17 19 18 18 19 17 20 21 21
REMARK H PARENT 21 22
ROOT
ATOM      1  S   UNL     1       1.500   1.384  -0.528  1.00  0.00     0.127 S 
ATOM      2  O   UNL     1       2.961   1.034  -0.583  1.00  0.00    -0.240 OA
ATOM      3  O   UNL     1       1.428   2.897  -0.680  1.00  0.00    -0.240 OA
ENDROOT
BRANCH   1   4
ATOM      4  C   UNL     1       0.867   1.005   1.041  1.00  0.00     0.095 A 
ATOM      5  C   UNL     1      -0.410   1.377   1.398  1.00  0.00     0.136 A 
ATOM      6  C   UNL     1      -0.922   1.085   2.631  1.00  0.00     0.049 A 
ATOM      7  C   UNL     1      -0.145   0.401   3.544  1.00  0.00     0.024 A 
ATOM      8  C   UNL     1       1.632   0.327   1.953  1.00  0.00     0.043 A 
ATOM      9  C   UNL     1       1.144   0.016   3.208  1.00  0.00     0.042 A 
ATOM     10  Cl  UNL     1       2.090  -0.848   4.398  1.00  0.00    -0.084 Cl
BRANCH   5  11
ATOM     11  O   UNL     1      -1.158   2.063   0.450  1.00  0.00    -0.495 OA
ATOM     12  C   UNL     1      -2.462   2.516   0.633  1.00  0.00     0.278 C 
ENDBRANCH   5  11
ENDBRANCH   1   4
BRANCH   1  13
ATOM     13  N   UNL     1       0.598   0.705  -1.802  1.00  0.00    -0.570 NA
BRANCH  13  14
ATOM     14  C   UNL     1       0.408  -0.689  -2.004  1.00  0.00    -0.085 A 
ATOM     15  C   UNL     1      -0.649  -1.365  -1.445  1.00  0.00    -0.009 A 
ATOM     16  C   UNL     1       1.289  -1.416  -2.775  1.00  0.00     0.101 A 
ATOM     17  C   UNL     1      -0.802  -2.711  -1.661  1.00  0.00    -0.052 A 
ATOM     18  C   UNL     1       1.162  -2.753  -3.006  1.00  0.00     0.045 A 
ATOM     19  C   UNL     1       0.103  -3.416  -2.444  1.00  0.00     0.007 A 
ATOM     20  C   UNL     1      -1.922  -3.506  -1.088  1.00  0.00     0.044 C 
BRANCH  16  21
ATOM     21  O   UNL     1       2.373  -0.778  -3.361  1.00  0.00    -0.509 OA
ATOM     22  H   UNL     1       3.290  -1.165  -3.212  1.00  0.00     0.293 HD
ENDBRANCH  16  21
ENDBRANCH  13  14
ENDBRANCH   1  13
TORSDOF 5
