REMARK SMILES C[C@]12CC[C@H](O)C[C@@H]1CC[C@@H]1[C@@H]2CC[C@]2(C)C(=O)CC[C@@H]12
REMARK SMILES IDX 1 1 2 2 3 3 4 4 5 5 7 6 8 7 9 8 10 9 11 10 12 11 13 12 14 13
REMARK SMILES IDX 15 14 16 15 17 16 18 17 19 18 20 19 21 20 6 21
REMARK H PARENT 6 22
ROOT
ATOM      1  C   UNL     1      -2.217   0.499  -0.273  1.00  0.00     0.012 C 
ATOM      2  C   UNL     1      -1.191  -0.067   0.687  1.00  0.00    -0.026 C 
ATOM      3  C   UNL     1      -1.870  -0.424   1.956  1.00  0.00     0.010 C 
ATOM      4  C   UNL     1      -1.055  -0.040   3.196  1.00  0.00     0.032 C 
ATOM      5  C   UNL     1      -0.925   1.444   3.346  1.00  0.00     0.114 C 
ATOM      6  C   UNL     1      -0.832   2.063   1.945  1.00  0.00     0.036 C 
ATOM      7  C   UNL     1      -0.187   1.042   1.057  1.00  0.00    -0.002 C 
ATOM      8  C   UNL     1       0.509   1.591  -0.128  1.00  0.00     0.004 C 
ATOM      9  C   UNL     1       0.455   0.785  -1.364  1.00  0.00     0.004 C 
ATOM     10  C   UNL     1       0.204  -0.656  -1.253  1.00  0.00    -0.003 C 
ATOM     11  C   UNL     1      -0.355  -1.123   0.083  1.00  0.00    -0.001 C 
ATOM     12  C   UNL     1      -0.983  -2.447  -0.136  1.00  0.00     0.005 C 
ATOM     13  C   UNL     1       0.080  -3.461  -0.521  1.00  0.00     0.015 C 
ATOM     14  C   UNL     1       0.811  -2.965  -1.712  1.00  0.00     0.029 C 
ATOM     15  C   UNL     1      -0.047  -3.055  -2.946  1.00  0.00     0.020 C 
ATOM     16  C   UNL     1       2.079  -3.660  -2.008  1.00  0.00     0.139 C 
ATOM     17  O   UNL     1       2.360  -4.783  -1.661  1.00  0.00    -0.299 OA
ATOM     18  C   UNL     1       2.905  -2.706  -2.797  1.00  0.00     0.076 C 
ATOM     19  C   UNL     1       2.179  -1.356  -2.687  1.00  0.00     0.013 C 
ATOM     20  C   UNL     1       1.354  -1.549  -1.499  1.00  0.00     0.006 C 
ENDROOT
BRANCH   5  21
ATOM     21  O   UNL     1      -1.935   2.022   4.093  1.00  0.00    -0.393 OA
ATOM     22  H   UNL     1      -2.751   2.049   3.536  1.00  0.00     0.210 HD
ENDBRANCH   5  21
TORSDOF 1
