REMARK SMILES S=c1nc(NCc2ccc(Cl)cc2)c2ccccc2[nH]1
REMARK SMILES IDX 5 1 4 3 1 4 2 5 3 6 20 7 19 8 14 9 18 10 15 11 17 12 16 13
REMARK SMILES IDX 6 15 7 16 8 17 13 18 9 19 12 20 10 21 11 22
REMARK H PARENT 5 2 20 14
ROOT
ATOM      1  N   UNL     1      -0.428  -0.310   1.327  1.00  0.00    -0.365 N 
ATOM      2  H   UNL     1      -0.497  -1.108   2.001  1.00  0.00     0.162 HD
ENDROOT
BRANCH   1   3
ATOM      3  C   UNL     1      -0.955  -0.283   0.042  1.00  0.00     0.138 A 
ATOM      4  S   UNL     1      -1.174   2.170  -2.929  1.00  0.00    -0.038 S 
ATOM      5  C   UNL     1      -1.323   0.856  -1.959  1.00  0.00     0.199 A 
ATOM      6  N   UNL     1      -0.806   0.829  -0.725  1.00  0.00    -0.202 NA
ATOM      7  N   UNL     1      -1.989  -0.203  -2.453  1.00  0.00    -0.330 N 
ATOM      8  C   UNL     1      -2.168  -1.331  -1.741  1.00  0.00     0.051 A 
ATOM      9  C   UNL     1      -1.638  -1.388  -0.446  1.00  0.00     0.041 A 
ATOM     10  C   UNL     1      -2.838  -2.421  -2.215  1.00  0.00     0.027 A 
ATOM     11  C   UNL     1      -1.809  -2.526   0.293  1.00  0.00     0.014 A 
ATOM     12  C   UNL     1      -3.004  -3.563  -1.460  1.00  0.00     0.002 A 
ATOM     13  C   UNL     1      -2.499  -3.658  -0.184  1.00  0.00     0.001 A 
ATOM     14  H   UNL     1      -2.394  -0.189  -3.415  1.00  0.00     0.169 HD
ENDBRANCH   1   3
BRANCH   1  15
ATOM     15  C   UNL     1       0.295   0.821   1.866  1.00  0.00     0.150 C 
BRANCH  15  16
ATOM     16  C   UNL     1       1.533   1.034   1.091  1.00  0.00    -0.029 A 
ATOM     17  C   UNL     1       2.647   0.214   1.317  1.00  0.00     0.007 A 
ATOM     18  C   UNL     1       1.712   2.019   0.164  1.00  0.00     0.007 A 
ATOM     19  C   UNL     1       3.839   0.388   0.649  1.00  0.00     0.021 A 
ATOM     20  C   UNL     1       2.916   2.201  -0.516  1.00  0.00     0.021 A 
ATOM     21  C   UNL     1       3.984   1.381  -0.272  1.00  0.00     0.041 A 
ATOM     22  Cl  UNL     1       5.491   1.613  -1.126  1.00  0.00    -0.084 Cl
ENDBRANCH  15  16
ENDBRANCH   1  15
TORSDOF 3
