REMARK SMILES C=CC[C@@H]1C=C(C)C[C@H](C)C[C@H](OC)[C@H]2O[C@@](O)(C(=O)C(=O)N3CCCC[C@H]3C(=O)O[C@H](/C(C)=C/[C@@H]3CC[C@@H](O)[C@H](OC)C3)[C@H](C)[C@@H](O)CC1=O)[C@H](C)C[C@@H]2OC
REMARK SMILES IDX 29 1 30 2 31 3 32 4 45 5 46 6 47 7 49 8 50 9 51 10 4 11 3 12
REMARK SMILES IDX 2 13 1 14 5 15 6 16 7 17 48 19 33 21 35 22 34 23 36 24 37 25
REMARK SMILES IDX 44 26 38 27 41 28 39 29 42 30 43 31 40 32 28 34 27 35 23 36
REMARK SMILES IDX 26 37 24 38 25 39 21 40 22 41 19 42 20 43 17 44 16 45 52 46
REMARK SMILES IDX 15 47 54 48 55 49 53 50 18 51 12 53 11 54 9 55 10 56 8 57
REMARK SMILES IDX 13 59 14 60 56 61 57 62
REMARK H PARENT 48 20 40 33 18 52
REMARK Flexibility Score:  163.900
ROOT
ATOM      1  C   UNL     1       0.562  -3.434   0.895  1.00  0.00     0.329 C 
ATOM      2  O   UNL     1      -0.546  -4.140   0.806  1.00  0.00    -0.250 OA
ENDROOT
BRANCH   1   3
ATOM      3  O   UNL     1       0.556  -2.474  -0.086  1.00  0.00    -0.456 OA
BRANCH   3   4
ATOM      4  C   UNL     1      -0.512  -2.324  -1.058  1.00  0.00     0.207 C 
BRANCH   4   5
ATOM      5  C   UNL     1      -1.205  -1.036  -1.077  1.00  0.00     0.060 C 
ATOM      6  C   UNL     1      -2.417  -1.160  -2.037  1.00  0.00     0.015 C 
BRANCH   5   7
ATOM      7  C   UNL     1      -0.499   0.216  -1.417  1.00  0.00     0.128 C 
BRANCH   7   8
ATOM      8  C   UNL     1      -1.303   1.483  -1.511  1.00  0.00     0.108 C 
BRANCH   8   9
ATOM      9  C   UNL     1      -2.014   1.980  -0.362  1.00  0.00     0.142 C 
ATOM     10  O   UNL     1      -2.127   1.159   0.570  1.00  0.00    -0.299 OA
BRANCH   9  11
ATOM     11  C   UNL     1      -2.625   3.276  -0.081  1.00  0.00     0.082 C 
BRANCH  11  12
ATOM     12  C   UNL     1      -3.886   3.481  -0.950  1.00  0.00     0.042 C 
BRANCH  12  13
ATOM     13  C   UNL     1      -3.587   3.730  -2.363  1.00  0.00    -0.034 C 
ATOM     14  C   UNL     1      -4.049   3.005  -3.370  1.00  0.00     0.004 C 
ENDBRANCH  12  13
ENDBRANCH  11  12
BRANCH  11  15
ATOM     15  C   UNL     1      -1.827   4.485  -0.200  1.00  0.00    -0.017 C 
ATOM     16  C   UNL     1      -1.491   5.400   0.712  1.00  0.00    -0.076 CG0
ATOM     17  C   UNL     1      -0.655   6.502   0.152  1.00  0.00     0.039 C 
ATOM     18  G   UNL     1      -1.810   5.380   2.122  1.00  0.00     0.000 G0
ENDBRANCH  11  15
ENDBRANCH   9  11
ENDBRANCH   8   9
ENDBRANCH   7   8
BRANCH   7  19
ATOM     19  O   UNL     1       0.013   0.138  -2.776  1.00  0.00    -0.392 OA
ATOM     20  H   UNL     1       0.317   1.028  -3.056  1.00  0.00     0.210 HD
ENDBRANCH   7  19
ENDBRANCH   5   7
ENDBRANCH   4   5
BRANCH   4  21
ATOM     21  C   UNL     1       0.086  -2.818  -2.316  1.00  0.00    -0.036 C 
ATOM     22  C   UNL     1      -0.553  -3.805  -2.920  1.00  0.00    -0.021 C 
ATOM     23  C   UNL     1       1.312  -2.299  -2.973  1.00  0.00     0.043 C 
BRANCH  22  24
ATOM     24  C   UNL     1      -0.109  -4.437  -4.196  1.00  0.00     0.014 C 
ATOM     25  C   UNL     1      -1.145  -4.242  -5.291  1.00  0.00     0.010 C 
ATOM     26  C   UNL     1       0.142  -5.912  -3.995  1.00  0.00     0.042 C 
ATOM     27  C   UNL     1      -1.551  -5.543  -5.930  1.00  0.00     0.035 C 
ATOM     28  C   UNL     1      -1.079  -6.753  -3.873  1.00  0.00     0.147 C 
ATOM     29  C   UNL     1      -2.204  -6.358  -4.805  1.00  0.00     0.143 C 
BRANCH  28  30
ATOM     30  O   UNL     1      -1.515  -6.878  -2.566  1.00  0.00    -0.379 OA
ATOM     31  C   UNL     1      -1.459  -8.175  -2.120  1.00  0.00     0.195 C 
ENDBRANCH  28  30
BRANCH  29  32
ATOM     32  O   UNL     1      -2.839  -7.464  -5.321  1.00  0.00    -0.390 OA
ATOM     33  H   UNL     1      -2.338  -8.305  -5.156  1.00  0.00     0.211 HD
ENDBRANCH  29  32
ENDBRANCH  22  24
ENDBRANCH   4  21
ENDBRANCH   3   4
ENDBRANCH   1   3
BRANCH   1  34
ATOM     34  C   UNL     1       1.502  -3.806   1.947  1.00  0.00     0.195 C 
ATOM     35  C   UNL     1       0.696  -4.822   2.795  1.00  0.00     0.037 C 
ATOM     36  N   UNL     1       2.024  -2.832   2.847  1.00  0.00    -0.322 N 
ATOM     37  C   UNL     1       1.283  -5.259   4.061  1.00  0.00     0.005 C 
ATOM     38  C   UNL     1       2.547  -3.252   4.097  1.00  0.00     0.121 C 
ATOM     39  C   UNL     1       1.459  -3.973   4.903  1.00  0.00     0.022 C 
BRANCH  36  40
ATOM     40  C   UNL     1       2.221  -1.467   2.612  1.00  0.00     0.296 C 
ATOM     41  O   UNL     1       2.153  -1.260   1.409  1.00  0.00    -0.265 OA
BRANCH  40  42
ATOM     42  C   UNL     1       2.484  -0.348   3.510  1.00  0.00     0.279 C 
ATOM     43  O   UNL     1       2.634  -0.514   4.684  1.00  0.00    -0.282 OA
BRANCH  42  44
ATOM     44  C   UNL     1       2.546   0.963   2.893  1.00  0.00     0.239 C 
ATOM     45  O   UNL     1       2.857   2.085   3.590  1.00  0.00    -0.334 OA
ATOM     46  C   UNL     1       1.132   1.271   2.351  1.00  0.00     0.057 C 
ATOM     47  C   UNL     1       2.633   3.270   2.860  1.00  0.00     0.180 C 
ATOM     48  C   UNL     1       1.462   1.933   1.093  1.00  0.00     0.044 C 
ATOM     49  C   UNL     1       2.472   3.050   1.394  1.00  0.00     0.150 C 
ATOM     50  C   UNL     1       0.135   0.215   2.498  1.00  0.00     0.014 C 
BRANCH  44  51
ATOM     51  O   UNL     1       3.486   0.813   1.864  1.00  0.00    -0.359 OA
ATOM     52  H   UNL     1       4.363   0.841   2.315  1.00  0.00     0.214 HD
ENDBRANCH  44  51
BRANCH  47  53
ATOM     53  C   UNL     1       1.606   4.229   3.436  1.00  0.00     0.149 C 
BRANCH  53  54
ATOM     54  C   UNL     1       0.503   4.583   2.507  1.00  0.00     0.038 C 
BRANCH  54  55
ATOM     55  C   UNL     1      -0.646   5.422   3.112  1.00  0.00    -0.008 C 
ATOM     56  C   UNL     1      -0.154   6.833   3.304  1.00  0.00     0.008 C 
BRANCH  55  57
ATOM     57  C   UNL     1      -1.810   5.380   2.122  1.00  0.00     0.033 CG0
ATOM     58  G   UNL     1      -1.491   5.400   0.712  1.00  0.00     0.000 G0
ENDBRANCH  55  57
ENDBRANCH  54  55
ENDBRANCH  53  54
BRANCH  53  59
ATOM     59  O   UNL     1       2.214   5.416   3.843  1.00  0.00    -0.379 OA
ATOM     60  C   UNL     1       2.156   5.524   5.228  1.00  0.00     0.195 C 
ENDBRANCH  53  59
ENDBRANCH  47  53
BRANCH  49  61
ATOM     61  O   UNL     1       3.659   2.929   0.677  1.00  0.00    -0.379 OA
ATOM     62  C   UNL     1       3.919   3.924  -0.221  1.00  0.00     0.195 C 
ENDBRANCH  49  61
ENDBRANCH  42  44
ENDBRANCH  40  42
ENDBRANCH  36  40
ENDBRANCH   1  34
TORSDOF 10
