REMARK SMILES CC(=O)Oc1ccccc1C(=O)Nc1ccc(Oc2ccccc2)cc1
REMARK SMILES IDX 5 1 6 2 7 3 8 4 9 5 10 6 4 7 2 8 3 9 1 10 11 11 12 12 13 13
REMARK SMILES IDX 14 15 15 16 26 17 16 18 25 19 17 20 18 21 19 22 20 23 24 24
REMARK SMILES IDX 21 25 23 26 22 27
REMARK H PARENT 13 14
ROOT
ATOM      1  C   UNL     1       2.123   3.076   0.307  1.00  0.00     0.143 A 
ATOM      2  C   UNL     1       2.882   4.233   0.429  1.00  0.00     0.048 A 
ATOM      3  C   UNL     1       4.065   4.343  -0.250  1.00  0.00     0.004 A 
ATOM      4  C   UNL     1       4.535   3.334  -1.061  1.00  0.00     0.001 A 
ATOM      5  C   UNL     1       3.757   2.216  -1.152  1.00  0.00     0.018 A 
ATOM      6  C   UNL     1       2.547   2.062  -0.479  1.00  0.00     0.082 A 
ENDROOT
BRANCH   1   7
ATOM      7  O   UNL     1       0.923   3.059   1.049  1.00  0.00    -0.426 OA
BRANCH   7   8
ATOM      8  C   UNL     1       1.062   2.852   2.444  1.00  0.00     0.308 C 
ATOM      9  O   UNL     1       2.193   2.700   2.937  1.00  0.00    -0.252 OA
ATOM     10  C   UNL     1      -0.123   2.813   3.338  1.00  0.00     0.139 C 
ENDBRANCH   7   8
ENDBRANCH   1   7
BRANCH   6  11
ATOM     11  C   UNL     1       1.795   0.848  -0.681  1.00  0.00     0.259 C 
ATOM     12  O   UNL     1       2.310  -0.072  -1.443  1.00  0.00    -0.269 OA
ATOM     13  N   UNL     1       0.551   0.479  -0.170  1.00  0.00    -0.322 N 
ATOM     14  H   UNL     1       0.052   1.153   0.439  1.00  0.00     0.170 HD
BRANCH  13  15
ATOM     15  C   UNL     1      -0.045  -0.802  -0.485  1.00  0.00     0.041 A 
ATOM     16  C   UNL     1      -0.869  -1.003  -1.567  1.00  0.00     0.030 A 
ATOM     17  C   UNL     1       0.198  -1.901   0.308  1.00  0.00     0.030 A 
ATOM     18  C   UNL     1      -1.432  -2.229  -1.859  1.00  0.00     0.049 A 
ATOM     19  C   UNL     1      -0.362  -3.142   0.025  1.00  0.00     0.049 A 
ATOM     20  C   UNL     1      -1.187  -3.326  -1.063  1.00  0.00     0.127 A 
BRANCH  20  21
ATOM     21  O   UNL     1      -1.756  -4.569  -1.357  1.00  0.00    -0.457 OA
BRANCH  21  22
ATOM     22  C   UNL     1      -2.986  -4.909  -0.832  1.00  0.00     0.127 A 
ATOM     23  C   UNL     1      -3.036  -5.549   0.384  1.00  0.00     0.047 A 
ATOM     24  C   UNL     1      -4.167  -4.630  -1.481  1.00  0.00     0.047 A 
ATOM     25  C   UNL     1      -4.261  -5.914   0.958  1.00  0.00     0.004 A 
ATOM     26  C   UNL     1      -5.388  -4.990  -0.915  1.00  0.00     0.004 A 
ATOM     27  C   UNL     1      -5.445  -5.633   0.304  1.00  0.00     0.000 A 
ENDBRANCH  21  22
ENDBRANCH  20  21
ENDBRANCH  13  15
ENDBRANCH   6  11
TORSDOF 6
