REMARK SMILES CCCCOc1ccc2c(C)c(C)c(=O)oc2c1
REMARK SMILES IDX 4 1 3 2 2 3 1 4 5 5 6 6 7 7 18 8 8 9 17 10 9 11 16 12 10 13
REMARK SMILES IDX 14 14 12 15 15 16 11 17 13 18
REMARK H PARENT
ROOT
ATOM      1  C   UNL     1      -3.233   1.732   0.931  1.00  0.00     0.229 C 
ENDROOT
BRANCH   1   2
ATOM      2  C   UNL     1      -3.955   0.853   1.888  1.00  0.00     0.041 C 
BRANCH   2   3
ATOM      3  C   UNL     1      -3.938  -0.609   1.651  1.00  0.00     0.000 C 
ATOM      4  C   UNL     1      -4.550  -1.039   0.355  1.00  0.00     0.004 C 
ENDBRANCH   2   3
ENDBRANCH   1   2
BRANCH   1   5
ATOM      5  O   UNL     1      -1.934   1.655   0.734  1.00  0.00    -0.493 OA
BRANCH   5   6
ATOM      6  C   UNL     1      -0.853   0.998   0.345  1.00  0.00     0.123 A 
ATOM      7  C   UNL     1       0.425   1.614   0.439  1.00  0.00     0.047 A 
ATOM      8  C   UNL     1      -0.843  -0.285  -0.168  1.00  0.00     0.094 A 
ATOM      9  C   UNL     1       1.545   0.942   0.038  1.00  0.00     0.016 A 
ATOM     10  C   UNL     1       0.295  -0.960  -0.572  1.00  0.00     0.142 A 
ATOM     11  C   UNL     1       1.514  -0.338  -0.469  1.00  0.00     0.021 A 
ATOM     12  O   UNL     1       0.170  -2.197  -1.051  1.00  0.00    -0.422 OA
ATOM     13  C   UNL     1       2.630  -1.019  -0.873  1.00  0.00    -0.030 A 
ATOM     14  C   UNL     1       1.240  -2.851  -1.439  1.00  0.00     0.339 A 
ATOM     15  C   UNL     1       2.500  -2.295  -1.367  1.00  0.00     0.038 A 
ATOM     16  O   UNL     1       1.158  -4.019  -1.895  1.00  0.00    -0.246 OA
ATOM     17  C   UNL     1       3.940  -0.327  -0.753  1.00  0.00     0.045 C 
ATOM     18  C   UNL     1       3.719  -3.018  -1.800  1.00  0.00     0.052 C 
ENDBRANCH   5   6
ENDBRANCH   1   5
TORSDOF 4
