REMARK SMILES O=C(Nc1cccc(Cl)c1)c1ccc(=O)[nH]c1
REMARK SMILES IDX 1 1 2 2 3 3 11 5 12 6 17 7 13 8 16 9 14 10 15 11 4 13 5 14
REMARK SMILES IDX 10 15 6 16 8 17 7 18 9 19
REMARK H PARENT 3 4 16 12
ROOT
ATOM      1  O   UNL     1      -0.463   1.357  -0.422  1.00  0.00    -0.269 OA
ATOM      2  C   UNL     1      -0.287   0.132  -0.629  1.00  0.00     0.257 C 
ATOM      3  N   UNL     1       0.248  -0.632   0.428  1.00  0.00    -0.322 N 
ATOM      4  H   UNL     1       0.405  -1.652   0.286  1.00  0.00     0.170 HD
ENDROOT
BRANCH   2   5
ATOM      5  C   UNL     1      -0.647  -0.401  -1.935  1.00  0.00     0.056 A 
ATOM      6  C   UNL     1      -1.167   0.420  -2.915  1.00  0.00     0.021 A 
ATOM      7  C   UNL     1      -0.501  -1.729  -2.283  1.00  0.00     0.099 A 
ATOM      8  C   UNL     1      -1.515  -0.065  -4.160  1.00  0.00     0.072 A 
ATOM      9  N   UNL     1      -0.850  -2.194  -3.519  1.00  0.00    -0.328 N 
ATOM     10  C   UNL     1      -1.356  -1.398  -4.477  1.00  0.00     0.247 A 
ATOM     11  O   UNL     1      -1.677  -1.833  -5.617  1.00  0.00    -0.270 OA
ATOM     12  H   UNL     1      -0.724  -3.210  -3.747  1.00  0.00     0.169 HD
ENDBRANCH   2   5
BRANCH   3  13
ATOM     13  C   UNL     1       0.595  -0.098   1.699  1.00  0.00     0.042 A 
ATOM     14  C   UNL     1       1.856   0.396   1.959  1.00  0.00     0.026 A 
ATOM     15  C   UNL     1      -0.338  -0.066   2.703  1.00  0.00     0.046 A 
ATOM     16  C   UNL     1       2.172   0.906   3.186  1.00  0.00     0.004 A 
ATOM     17  C   UNL     1      -0.057   0.439   3.949  1.00  0.00     0.043 A 
ATOM     18  C   UNL     1       1.212   0.923   4.170  1.00  0.00     0.020 A 
ATOM     19  Cl  UNL     1      -1.285   0.464   5.218  1.00  0.00    -0.084 Cl
ENDBRANCH   3  13
TORSDOF 2
