REMARK SMILES O=C(Nc1cccc(Cl)c1)c1ccc(=O)[n-]c1
REMARK SMILES IDX 4 1 5 2 6 3 7 4 8 5 9 6 10 7 3 8 1 9 2 10 11 12 12 13 17 14
REMARK SMILES IDX 13 15 16 16 14 17 15 18
REMARK H PARENT 3 11
ROOT
ATOM      1  C   UNL     1       0.492   0.494   1.305  1.00  0.00     0.042 A 
ATOM      2  C   UNL     1       0.089   1.727   1.750  1.00  0.00     0.026 A 
ATOM      3  C   UNL     1       0.077   2.087   3.078  1.00  0.00     0.004 A 
ATOM      4  C   UNL     1       0.491   1.168   4.030  1.00  0.00     0.020 A 
ATOM      5  C   UNL     1       0.903  -0.081   3.618  1.00  0.00     0.043 A 
ATOM      6  Cl  UNL     1       1.418  -1.210   4.849  1.00  0.00    -0.084 Cl
ATOM      7  C   UNL     1       0.902  -0.412   2.259  1.00  0.00     0.046 A 
ENDROOT
BRANCH   1   8
ATOM      8  N   UNL     1       0.512   0.099  -0.083  1.00  0.00    -0.322 N 
ATOM      9  O   UNL     1      -1.626  -0.704  -0.014  1.00  0.00    -0.269 OA
ATOM     10  C   UNL     1      -0.581  -0.506  -0.719  1.00  0.00     0.253 C 
ATOM     11  H   UNL     1       1.373   0.262  -0.663  1.00  0.00     0.170 HD
BRANCH  10  12
ATOM     12  C   UNL     1      -0.610  -0.919  -2.104  1.00  0.00     0.018 A 
ATOM     13  C   UNL     1       0.466  -0.747  -2.937  1.00  0.00     0.014 A 
ATOM     14  C   UNL     1      -1.723  -1.511  -2.666  1.00  0.00    -0.122 A 
ATOM     15  C   UNL     1       0.422  -1.154  -4.280  1.00  0.00     0.028 A 
ATOM     16  N   UNL     1      -1.763  -1.900  -3.952  1.00  0.00    -0.629 NA
ATOM     17  C   UNL     1      -0.717  -1.738  -4.782  1.00  0.00     0.078 A 
ATOM     18  O   UNL     1      -0.786  -2.117  -5.996  1.00  0.00    -0.315 OA
ENDBRANCH  10  12
ENDBRANCH   1   8
TORSDOF 2
