REMARK SMILES O=c1c2c3c(sc2n2c(=S)[nH]nc2n1-c1ccccc1)CCCC3
REMARK SMILES IDX 1 1 2 2 3 3 4 4 5 5 6 6 7 7 8 8 9 9 10 10 11 11 12 12 13 13
REMARK SMILES IDX 14 14 21 15 22 16 23 17 24 18 15 20 16 21 20 22 17 23 19 24
REMARK SMILES IDX 18 25
REMARK H PARENT 11 19
ROOT
ATOM      1  O   UNL     1      -1.455  -1.466  -0.689  1.00  0.00    -0.268 OA
ATOM      2  C   UNL     1      -0.408  -0.801  -0.525  1.00  0.00     0.268 A 
ATOM      3  C   UNL     1       0.094  -0.473   0.764  1.00  0.00     0.079 A 
ATOM      4  C   UNL     1      -0.408  -0.782   1.987  1.00  0.00    -0.019 A 
ATOM      5  C   UNL     1       0.222  -0.376   3.076  1.00  0.00     0.011 A 
ATOM      6  S   UNL     1       1.620   0.506   2.451  1.00  0.00    -0.121 S 
ATOM      7  C   UNL     1       1.239   0.253   0.719  1.00  0.00     0.118 A 
ATOM      8  N   UNL     1       1.876   0.648  -0.419  1.00  0.00    -0.243 N 
ATOM      9  C   UNL     1       2.994   1.355  -0.584  1.00  0.00     0.202 A 
ATOM     10  S   UNL     1       3.930   1.956   0.620  1.00  0.00    -0.038 S 
ATOM     11  N   UNL     1       3.203   1.477  -1.927  1.00  0.00    -0.249 N 
ATOM     12  N   UNL     1       2.201   0.838  -2.517  1.00  0.00    -0.135 NA
ATOM     13  C   UNL     1       1.362   0.313  -1.605  1.00  0.00     0.242 A 
ATOM     14  N   UNL     1       0.227  -0.406  -1.632  1.00  0.00    -0.244 N 
ATOM     15  C   UNL     1      -0.124  -0.587   4.486  1.00  0.00     0.047 C 
ATOM     16  C   UNL     1      -1.495  -1.136   4.657  1.00  0.00     0.006 C 
ATOM     17  C   UNL     1      -2.333  -0.899   3.447  1.00  0.00     0.005 C 
ATOM     18  C   UNL     1      -1.683  -1.586   2.278  1.00  0.00     0.037 C 
ATOM     19  H   UNL     1       4.013   1.987  -2.371  1.00  0.00     0.193 HD
ENDROOT
BRANCH  14  20
ATOM     20  C   UNL     1      -0.265  -0.728  -2.934  1.00  0.00     0.052 A 
ATOM     21  C   UNL     1      -1.253  -0.012  -3.569  1.00  0.00     0.027 A 
ATOM     22  C   UNL     1       0.275  -1.813  -3.592  1.00  0.00     0.027 A 
ATOM     23  C   UNL     1      -1.682  -0.386  -4.841  1.00  0.00     0.002 A 
ATOM     24  C   UNL     1      -0.162  -2.178  -4.863  1.00  0.00     0.002 A 
ATOM     25  C   UNL     1      -1.151  -1.469  -5.511  1.00  0.00     0.000 A 
ENDBRANCH  14  20
TORSDOF 1
