REMARK SMILES O=[N+]([O-])c1cc(S(=O)(=O)C(Cl)(Cl)Br)ccc1NC1CCCCC1
REMARK SMILES IDX 4 1 5 2 6 3 14 4 15 5 16 6 2 7 1 8 3 9 17 10 18 12 19 13
REMARK SMILES IDX 23 14 20 15 22 16 21 17 7 18 8 19 9 20 10 21 11 22 12 23
REMARK SMILES IDX 13 24
REMARK H PARENT 17 11
ROOT
ATOM      1  C   UNL     1       0.029   1.247  -0.067  1.00  0.00     0.293 A 
ATOM      2  C   UNL     1       1.254   1.873  -0.324  1.00  0.00     0.108 A 
ATOM      3  C   UNL     1       2.339   1.218  -0.856  1.00  0.00     0.078 A 
ATOM      4  C   UNL     1       2.145  -0.122  -1.127  1.00  0.00     0.023 A 
ATOM      5  C   UNL     1       0.953  -0.760  -0.884  1.00  0.00     0.034 A 
ATOM      6  C   UNL     1      -0.122  -0.078  -0.348  1.00  0.00     0.113 A 
ENDROOT
BRANCH   1   7
ATOM      7  N   UNL     1      -0.983   2.049   0.481  1.00  0.00     0.065 N 
ATOM      8  O   UNL     1      -2.173   1.919   0.230  1.00  0.00    -0.258 OA
ATOM      9  O   UNL     1      -0.642   3.095   1.352  1.00  0.00    -0.258 OA
ENDBRANCH   1   7
BRANCH   6  10
ATOM     10  N   UNL     1      -1.361  -0.778  -0.103  1.00  0.00    -0.377 N 
ATOM     11  H   UNL     1      -2.172  -0.254   0.265  1.00  0.00     0.161 HD
BRANCH  10  12
ATOM     12  C   UNL     1      -1.556  -2.178  -0.326  1.00  0.00     0.079 C 
ATOM     13  C   UNL     1      -0.903  -3.094   0.650  1.00  0.00     0.025 C 
ATOM     14  C   UNL     1      -3.041  -2.453  -0.439  1.00  0.00     0.025 C 
ATOM     15  C   UNL     1      -1.379  -2.768   2.054  1.00  0.00     0.002 C 
ATOM     16  C   UNL     1      -3.556  -3.128   0.821  1.00  0.00     0.002 C 
ATOM     17  C   UNL     1      -2.855  -2.602   2.047  1.00  0.00     0.000 C 
ENDBRANCH  10  12
ENDBRANCH   6  10
BRANCH   3  18
ATOM     18  S   UNL     1       3.872   1.952  -1.191  1.00  0.00     0.222 S 
ATOM     19  O   UNL     1       4.967   0.933  -1.082  1.00  0.00    -0.220 OA
ATOM     20  O   UNL     1       4.149   3.089  -0.257  1.00  0.00    -0.220 OA
BRANCH  18  21
ATOM     21  C   UNL     1       3.804   2.582  -2.856  1.00  0.00     0.277 C 
ATOM     22  Cl  UNL     1       3.489   1.208  -3.953  1.00  0.00    -0.071 Cl
ATOM     23  Cl  UNL     1       2.469   3.734  -3.042  1.00  0.00    -0.071 Cl
ATOM     24  Br  UNL     1       5.440   3.474  -3.301  1.00  0.00    -0.031 Br
ENDBRANCH  18  21
ENDBRANCH   3  18
TORSDOF 5
