REMARK SMILES O=C1c2ccccc2C(=O)c2c1ccc(O)c2[O-]
REMARK SMILES IDX 1 1 2 2 3 3 4 4 5 5 6 6 7 7 8 8 9 9 10 10 11 11 12 12 13 13
REMARK SMILES IDX 14 14 15 15 17 16 18 17 16 18
REMARK H PARENT 16 19
ROOT
ATOM      1  O   UNL     1      -2.705   0.210  -0.140  1.00  0.00    -0.289 OA
ATOM      2  C   UNL     1      -1.459   0.043  -0.081  1.00  0.00     0.194 C 
ATOM      3  C   UNL     1      -0.770   0.149   1.211  1.00  0.00     0.034 A 
ATOM      4  C   UNL     1      -1.495   0.433   2.365  1.00  0.00     0.013 A 
ATOM      5  C   UNL     1      -0.838   0.530   3.572  1.00  0.00     0.001 A 
ATOM      6  C   UNL     1       0.524   0.350   3.650  1.00  0.00     0.001 A 
ATOM      7  C   UNL     1       1.265   0.071   2.546  1.00  0.00     0.013 A 
ATOM      8  C   UNL     1       0.592  -0.026   1.321  1.00  0.00     0.034 A 
ATOM      9  C   UNL     1       1.376  -0.327   0.115  1.00  0.00     0.194 C 
ATOM     10  O   UNL     1       2.610  -0.491   0.177  1.00  0.00    -0.289 OA
ATOM     11  C   UNL     1       0.694  -0.431  -1.160  1.00  0.00     0.029 A 
ATOM     12  C   UNL     1      -0.676  -0.254  -1.267  1.00  0.00     0.033 A 
ATOM     13  C   UNL     1      -1.333  -0.354  -2.493  1.00  0.00     0.017 A 
ATOM     14  C   UNL     1      -0.593  -0.635  -3.615  1.00  0.00     0.046 A 
ATOM     15  C   UNL     1       0.758  -0.811  -3.520  1.00  0.00     0.108 A 
ATOM     16  C   UNL     1       1.416  -0.716  -2.327  1.00  0.00    -0.053 A 
ATOM     17  O   UNL     1       2.783  -0.891  -2.207  1.00  0.00    -0.869 OA
ENDROOT
BRANCH  15  18
ATOM     18  O   UNL     1       1.483  -1.094  -4.670  1.00  0.00    -0.509 OA
ATOM     19  H   UNL     1       1.110  -1.062  -5.595  1.00  0.00     0.293 HD
ENDBRANCH  15  18
TORSDOF 1
