REMARK SMILES CCCc1cc(C(=O)N2CCN(Cc3ccccc3)CC2)cs1
REMARK SMILES IDX 4 1 5 2 6 3 22 4 23 5 3 6 2 7 1 8 7 9 8 10 9 11 10 12 21 13
REMARK SMILES IDX 11 14 20 15 12 16 13 17 14 18 15 19 19 20 16 21 18 22 17 23
REMARK H PARENT
ROOT
ATOM      1  C   UNL     1      -1.484  -2.756   1.835  1.00  0.00     0.005 A 
ATOM      2  C   UNL     1      -0.639  -1.772   1.485  1.00  0.00     0.029 A 
ATOM      3  C   UNL     1      -0.871  -0.503   1.853  1.00  0.00     0.050 A 
ATOM      4  C   UNL     1      -2.034  -0.295   2.613  1.00  0.00     0.079 A 
ATOM      5  S   UNL     1      -2.715  -1.932   2.744  1.00  0.00    -0.148 S 
ENDROOT
BRANCH   1   6
ATOM      6  C   UNL     1      -1.480  -4.212   1.592  1.00  0.00     0.046 C 
BRANCH   6   7
ATOM      7  C   UNL     1      -2.224  -4.481   0.314  1.00  0.00     0.002 C 
ATOM      8  C   UNL     1      -2.271  -5.967  -0.006  1.00  0.00     0.004 C 
ENDBRANCH   6   7
ENDBRANCH   1   6
BRANCH   3   9
ATOM      9  C   UNL     1      -0.048   0.677   1.530  1.00  0.00     0.254 C 
ATOM     10  O   UNL     1      -0.627   1.843   1.626  1.00  0.00    -0.269 OA
ATOM     11  N   UNL     1       1.273   0.744   1.130  1.00  0.00    -0.336 N 
ATOM     12  C   UNL     1       2.235  -0.319   0.957  1.00  0.00     0.135 C 
ATOM     13  C   UNL     1       1.874   2.073   0.754  1.00  0.00     0.135 C 
ATOM     14  C   UNL     1       2.276  -0.572  -0.543  1.00  0.00     0.106 C 
ATOM     15  C   UNL     1       2.574   1.831  -0.546  1.00  0.00     0.106 C 
ATOM     16  N   UNL     1       2.153   0.655  -1.229  1.00  0.00    -0.296 NA
BRANCH  16  17
ATOM     17  C   UNL     1       1.172   0.815  -2.218  1.00  0.00     0.120 C 
BRANCH  17  18
ATOM     18  C   UNL     1      -0.226   0.878  -1.816  1.00  0.00    -0.034 A 
ATOM     19  C   UNL     1      -0.817   2.096  -1.560  1.00  0.00     0.005 A 
ATOM     20  C   UNL     1      -0.988  -0.252  -1.674  1.00  0.00     0.005 A 
ATOM     21  C   UNL     1      -2.145   2.211  -1.169  1.00  0.00     0.000 A 
ATOM     22  C   UNL     1      -2.317  -0.140  -1.280  1.00  0.00     0.000 A 
ATOM     23  C   UNL     1      -2.905   1.076  -1.026  1.00  0.00     0.000 A 
ENDBRANCH  17  18
ENDBRANCH  16  17
ENDBRANCH   3   9
TORSDOF 5
