REMARK SMILES COc1ccc2c(c1)N(C(=O)Nc1ccc(Cl)c(Cl)c1)C(C)(C)C=C2C
REMARK SMILES IDX 3 1 4 2 5 3 6 4 7 5 8 6 9 7 21 8 22 9 23 10 24 11 25 12
REMARK SMILES IDX 26 13 2 14 1 15 10 16 11 17 12 18 13 20 14 21 20 22 15 23
REMARK SMILES IDX 18 24 16 25 19 26 17 27
REMARK H PARENT 12 19
ROOT
ATOM      1  C   UNL     1       0.841   2.321   0.182  1.00  0.00     0.120 A 
ATOM      2  C   UNL     1       2.172   2.309   0.518  1.00  0.00     0.047 A 
ATOM      3  C   UNL     1       2.815   1.199   1.054  1.00  0.00     0.014 A 
ATOM      4  C   UNL     1       2.043   0.074   1.241  1.00  0.00     0.001 A 
ATOM      5  C   UNL     1       0.709   0.068   0.903  1.00  0.00     0.058 A 
ATOM      6  C   UNL     1       0.077   1.189   0.371  1.00  0.00     0.073 A 
ATOM      7  N   UNL     1      -0.003  -1.161   0.965  1.00  0.00    -0.284 N 
ATOM      8  C   UNL     1       0.322  -2.082   2.017  1.00  0.00     0.063 C 
ATOM      9  C   UNL     1      -0.162  -3.485   1.763  1.00  0.00     0.040 C 
ATOM     10  C   UNL     1      -0.442  -1.595   3.258  1.00  0.00     0.040 C 
ATOM     11  C   UNL     1       1.742  -2.038   2.317  1.00  0.00     0.005 C 
ATOM     12  C   UNL     1       2.564  -1.067   1.984  1.00  0.00    -0.043 C 
ATOM     13  C   UNL     1       4.026  -1.132   2.365  1.00  0.00     0.045 C 
ENDROOT
BRANCH   1  14
ATOM     14  O   UNL     1       0.246   3.462  -0.349  1.00  0.00    -0.497 OA
ATOM     15  C   UNL     1      -1.125   3.470  -0.693  1.00  0.00     0.278 C 
ENDBRANCH   1  14
BRANCH   7  16
ATOM     16  C   UNL     1      -0.950  -1.484  -0.050  1.00  0.00     0.327 C 
ATOM     17  O   UNL     1      -1.756  -2.449   0.178  1.00  0.00    -0.248 OA
ATOM     18  N   UNL     1      -1.083  -0.846  -1.291  1.00  0.00    -0.307 N 
ATOM     19  H   UNL     1      -0.467  -0.082  -1.624  1.00  0.00     0.171 HD
BRANCH  18  20
ATOM     20  C   UNL     1      -2.087  -1.246  -2.248  1.00  0.00     0.044 A 
ATOM     21  C   UNL     1      -1.818  -2.212  -3.194  1.00  0.00     0.028 A 
ATOM     22  C   UNL     1      -3.346  -0.687  -2.258  1.00  0.00     0.048 A 
ATOM     23  C   UNL     1      -2.766  -2.607  -4.117  1.00  0.00     0.024 A 
ATOM     24  C   UNL     1      -4.295  -1.081  -3.181  1.00  0.00     0.061 A 
ATOM     25  C   UNL     1      -4.028  -2.048  -4.130  1.00  0.00     0.059 A 
ATOM     26  Cl  UNL     1      -5.894  -0.365  -3.188  1.00  0.00    -0.083 Cl
ATOM     27  Cl  UNL     1      -5.245  -2.535  -5.291  1.00  0.00    -0.083 Cl
ENDBRANCH  18  20
ENDBRANCH   7  16
TORSDOF 3
