REMARK SMILES C(=NNc1nc2ccccc2s1)c1ccccn1
REMARK SMILES IDX 1 1 2 2 13 3 14 4 18 5 15 6 17 7 16 8 3 9 4 11 5 12 12 13
REMARK SMILES IDX 6 14 11 15 7 16 10 17 8 18 9 19
REMARK H PARENT 3 10
ROOT
ATOM      1  C   UNL     1      -2.036  -2.419  -1.010  1.00  0.00     0.161 C 
ATOM      2  N   UNL     1      -0.992  -2.711  -0.416  1.00  0.00    -0.179 NA
ENDROOT
BRANCH   1   3
ATOM      3  C   UNL     1      -2.239  -1.468  -2.085  1.00  0.00     0.083 A 
ATOM      4  C   UNL     1      -1.255  -0.696  -2.646  1.00  0.00     0.030 A 
ATOM      5  N   UNL     1      -3.494  -1.295  -2.606  1.00  0.00    -0.255 NA
ATOM      6  C   UNL     1      -1.478   0.216  -3.684  1.00  0.00     0.004 A 
ATOM      7  C   UNL     1      -3.736  -0.436  -3.593  1.00  0.00     0.112 A 
ATOM      8  C   UNL     1      -2.749   0.340  -4.159  1.00  0.00     0.020 A 
ENDBRANCH   1   3
BRANCH   2   9
ATOM      9  N   UNL     1       0.271  -2.248  -0.573  1.00  0.00    -0.253 N 
ATOM     10  H   UNL     1       0.893  -2.619  -1.339  1.00  0.00     0.193 HD
BRANCH   9  11
ATOM     11  C   UNL     1       0.807  -1.216   0.346  1.00  0.00     0.204 A 
ATOM     12  N   UNL     1       0.561  -0.570   1.246  1.00  0.00    -0.219 NA
ATOM     13  S   UNL     1       2.593  -0.654   0.013  1.00  0.00    -0.095 S 
ATOM     14  C   UNL     1       1.294   0.319   1.887  1.00  0.00     0.084 A 
ATOM     15  C   UNL     1       2.548   0.497   1.398  1.00  0.00     0.056 A 
ATOM     16  C   UNL     1       0.973   1.109   2.999  1.00  0.00     0.030 A 
ATOM     17  C   UNL     1       3.485   1.383   1.921  1.00  0.00     0.021 A 
ATOM     18  C   UNL     1       1.882   1.994   3.536  1.00  0.00     0.002 A 
ATOM     19  C   UNL     1       3.140   2.153   3.022  1.00  0.00     0.002 A 
ENDBRANCH   9  11
ENDBRANCH   2   9
TORSDOF 3
