REMARK SMILES O=S(=O)(c1ccc(Cl)cc1)C(Br)(Br)S(=O)(=O)c1ccc(Cl)cc1
REMARK SMILES IDX 11 1 12 2 13 3 2 4 1 5 3 6 4 7 5 8 10 9 6 10 9 11 7 12 8 13
REMARK SMILES IDX 14 14 15 15 16 16 17 17 18 18 23 19 19 20 22 21 20 22 21 23
REMARK H PARENT
ROOT
ATOM      1  C   UNL     1       0.491   0.593  -2.858  1.00  0.00     0.289 C 
ATOM      2  Br  UNL     1       2.101  -0.505  -3.018  1.00  0.00    -0.036 Br
ATOM      3  Br  UNL     1       0.476   1.637  -4.540  1.00  0.00    -0.036 Br
ENDROOT
BRANCH   1   4
ATOM      4  S   UNL     1       0.709   1.757  -1.595  1.00  0.00     0.219 S 
ATOM      5  O   UNL     1       1.894   2.638  -1.995  1.00  0.00    -0.220 OA
ATOM      6  O   UNL     1      -0.459   2.704  -1.511  1.00  0.00    -0.220 OA
BRANCH   4   7
ATOM      7  C   UNL     1       1.043   1.165  -0.019  1.00  0.00     0.070 A 
ATOM      8  C   UNL     1       2.292   0.754   0.408  1.00  0.00     0.022 A 
ATOM      9  C   UNL     1       0.038   1.103   0.912  1.00  0.00     0.022 A 
ATOM     10  C   UNL     1       2.529   0.308   1.686  1.00  0.00     0.022 A 
ATOM     11  C   UNL     1       0.255   0.659   2.199  1.00  0.00     0.022 A 
ATOM     12  C   UNL     1       1.495   0.255   2.610  1.00  0.00     0.041 A 
ATOM     13  Cl  UNL     1       1.816  -0.316   4.234  1.00  0.00    -0.084 Cl
ENDBRANCH   4   7
ENDBRANCH   1   4
BRANCH   1  14
ATOM     14  S   UNL     1      -0.944  -0.378  -2.853  1.00  0.00     0.219 S 
ATOM     15  O   UNL     1      -2.187   0.494  -3.004  1.00  0.00    -0.220 OA
ATOM     16  O   UNL     1      -0.957  -1.242  -4.111  1.00  0.00    -0.220 OA
BRANCH  14  17
ATOM     17  C   UNL     1      -1.196  -1.388  -1.472  1.00  0.00     0.070 A 
ATOM     18  C   UNL     1      -0.551  -2.599  -1.316  1.00  0.00     0.022 A 
ATOM     19  C   UNL     1      -2.087  -1.011  -0.487  1.00  0.00     0.022 A 
ATOM     20  C   UNL     1      -0.804  -3.368  -0.226  1.00  0.00     0.022 A 
ATOM     21  C   UNL     1      -2.336  -1.797   0.612  1.00  0.00     0.022 A 
ATOM     22  C   UNL     1      -1.693  -3.001   0.765  1.00  0.00     0.041 A 
ATOM     23  Cl  UNL     1      -1.996  -4.026   2.167  1.00  0.00    -0.084 Cl
ENDBRANCH  14  17
ENDBRANCH   1  14
TORSDOF 4
