REMARK SMILES O=S(=O)(Cc1ccc(Cl)c(Cl)c1)[N-]c1ccc2c(c1)OCCO2
REMARK SMILES IDX 1 1 2 2 3 3 4 4 5 5 6 6 12 7 7 8 10 9 8 10 11 11 9 12 13 13
REMARK SMILES IDX 14 14 15 15 19 16 16 17 18 18 17 19 20 20 23 21 21 22 22 23
REMARK H PARENT
ROOT
ATOM      1  O   UNL     1      -0.196   1.328  -3.443  1.00  0.00    -0.245 OA
ATOM      2  S   UNL     1      -0.534   1.071  -2.026  1.00  0.00     0.098 S 
ATOM      3  O   UNL     1      -1.993   1.412  -1.802  1.00  0.00    -0.245 OA
ENDROOT
BRANCH   2   4
ATOM      4  C   UNL     1       0.415   2.115  -0.956  1.00  0.00     0.155 C 
BRANCH   4   5
ATOM      5  C   UNL     1       1.856   1.862  -1.024  1.00  0.00    -0.033 A 
ATOM      6  C   UNL     1       2.403   0.931  -0.167  1.00  0.00     0.006 A 
ATOM      7  C   UNL     1       2.686   2.505  -1.899  1.00  0.00     0.026 A 
ATOM      8  C   UNL     1       3.776   0.659  -0.199  1.00  0.00     0.022 A 
ATOM      9  C   UNL     1       4.052   2.247  -1.944  1.00  0.00     0.059 A 
ATOM     10  C   UNL     1       4.599   1.319  -1.090  1.00  0.00     0.059 A 
ATOM     11  Cl  UNL     1       5.118   3.069  -3.062  1.00  0.00    -0.083 Cl
ATOM     12  Cl  UNL     1       6.328   0.967  -1.120  1.00  0.00    -0.083 Cl
ENDBRANCH   4   5
ENDBRANCH   2   4
BRANCH   2  13
ATOM     13  N   UNL     1      -0.334  -0.592  -1.661  1.00  0.00    -0.576 NA
BRANCH  13  14
ATOM     14  C   UNL     1      -1.220  -1.306  -0.803  1.00  0.00    -0.124 A 
ATOM     15  C   UNL     1      -2.328  -1.940  -1.326  1.00  0.00    -0.011 A 
ATOM     16  C   UNL     1      -1.031  -1.404   0.561  1.00  0.00     0.035 A 
ATOM     17  C   UNL     1      -3.209  -2.641  -0.521  1.00  0.00     0.049 A 
ATOM     18  C   UNL     1      -1.884  -2.093   1.397  1.00  0.00     0.160 A 
ATOM     19  C   UNL     1      -2.990  -2.719   0.840  1.00  0.00     0.161 A 
ATOM     20  O   UNL     1      -1.677  -2.181   2.771  1.00  0.00    -0.486 OA
ATOM     21  O   UNL     1      -3.870  -3.425   1.678  1.00  0.00    -0.486 OA
ATOM     22  C   UNL     1      -2.775  -2.572   3.579  1.00  0.00     0.271 C 
ATOM     23  C   UNL     1      -3.334  -3.840   2.942  1.00  0.00     0.271 C 
ENDBRANCH  13  14
ENDBRANCH   2  13
TORSDOF 4
