REMARK SMILES O=S(=O)(Cc1ccc(Cl)c(Cl)c1)Nc1ccc2c(c1)OCCO2
REMARK SMILES IDX 1 1 2 2 3 3 4 4 5 5 6 6 12 7 7 8 10 9 8 10 11 11 9 12 13 13
REMARK SMILES IDX 14 15 15 16 19 17 16 18 18 19 17 20 20 21 23 22 21 23 22 24
REMARK H PARENT 13 14
ROOT
ATOM      1  O   UNL     1       2.773  -2.513  -0.500  1.00  0.00    -0.206 OA
ATOM      2  S   UNL     1       1.444  -1.828  -0.233  1.00  0.00     0.236 S 
ATOM      3  O   UNL     1       1.333  -1.637   1.248  1.00  0.00    -0.206 OA
ENDROOT
BRANCH   2   4
ATOM      4  C   UNL     1       1.433  -0.232  -1.061  1.00  0.00     0.195 C 
BRANCH   4   5
ATOM      5  C   UNL     1       2.517   0.631  -0.558  1.00  0.00    -0.030 A 
ATOM      6  C   UNL     1       2.291   1.467   0.517  1.00  0.00     0.006 A 
ATOM      7  C   UNL     1       3.754   0.589  -1.180  1.00  0.00     0.027 A 
ATOM      8  C   UNL     1       3.314   2.284   0.994  1.00  0.00     0.022 A 
ATOM      9  C   UNL     1       4.747   1.412  -0.682  1.00  0.00     0.059 A 
ATOM     10  C   UNL     1       4.556   2.256   0.387  1.00  0.00     0.059 A 
ATOM     11  Cl  UNL     1       6.341   1.386  -1.450  1.00  0.00    -0.083 Cl
ATOM     12  Cl  UNL     1       5.837   3.287   0.993  1.00  0.00    -0.083 Cl
ENDBRANCH   4   5
ENDBRANCH   2   4
BRANCH   2  13
ATOM     13  N   UNL     1       0.151  -2.738  -0.893  1.00  0.00    -0.283 N 
ATOM     14  H   UNL     1       0.331  -3.622  -1.390  1.00  0.00     0.180 HD
BRANCH  13  15
ATOM     15  C   UNL     1      -1.169  -2.267  -0.751  1.00  0.00     0.052 A 
ATOM     16  C   UNL     1      -2.084  -2.253  -1.785  1.00  0.00     0.031 A 
ATOM     17  C   UNL     1      -1.619  -1.783   0.468  1.00  0.00     0.077 A 
ATOM     18  C   UNL     1      -3.375  -1.792  -1.645  1.00  0.00     0.052 A 
ATOM     19  C   UNL     1      -2.916  -1.312   0.633  1.00  0.00     0.163 A 
ATOM     20  C   UNL     1      -3.802  -1.314  -0.423  1.00  0.00     0.161 A 
ATOM     21  O   UNL     1      -3.384  -0.824   1.845  1.00  0.00    -0.486 OA
ATOM     22  O   UNL     1      -5.078  -0.836  -0.204  1.00  0.00    -0.486 OA
ATOM     23  C   UNL     1      -4.753  -0.825   2.207  1.00  0.00     0.271 C 
ATOM     24  C   UNL     1      -5.572  -0.416   1.029  1.00  0.00     0.271 C 
ENDBRANCH  13  15
ENDBRANCH   2  13
TORSDOF 4
