REMARK SMILES COc1cc2ccc(=O)oc2cc1[O-]
REMARK SMILES IDX 3 1 4 2 5 3 6 4 7 5 8 6 9 7 10 8 11 9 12 10 13 11 14 12 2 13
REMARK SMILES IDX 1 14
REMARK H PARENT
ROOT
ATOM      1  C   UNL     1      -0.841   0.374  -1.377  1.00  0.00     0.111 A 
ATOM      2  C   UNL     1      -0.634  -0.090  -0.104  1.00  0.00     0.057 A 
ATOM      3  C   UNL     1       0.643  -0.098   0.424  1.00  0.00     0.021 A 
ATOM      4  C   UNL     1       0.818  -0.571   1.708  1.00  0.00     0.019 A 
ATOM      5  C   UNL     1       2.110  -0.564   2.203  1.00  0.00     0.094 A 
ATOM      6  C   UNL     1       3.125  -0.096   1.407  1.00  0.00     0.336 A 
ATOM      7  O   UNL     1       4.290  -0.099   1.878  1.00  0.00    -0.246 OA
ATOM      8  O   UNL     1       2.891   0.343   0.189  1.00  0.00    -0.423 OA
ATOM      9  C   UNL     1       1.688   0.362  -0.338  1.00  0.00     0.138 A 
ATOM     10  C   UNL     1       1.508   0.833  -1.619  1.00  0.00     0.043 A 
ATOM     11  C   UNL     1       0.237   0.838  -2.137  1.00  0.00    -0.062 A 
ATOM     12  O   UNL     1       0.021   1.308  -3.428  1.00  0.00    -0.870 OA
ENDROOT
BRANCH   1  13
ATOM     13  O   UNL     1      -2.089   0.405  -1.953  1.00  0.00    -0.497 OA
ATOM     14  C   UNL     1      -3.260  -0.022  -1.323  1.00  0.00     0.278 C 
ENDBRANCH   1  13
TORSDOF 1
