REMARK SMILES COC(=O)COc1ccc(C2C(C(=O)OC)=C(C)NC3=C2C(=O)c2ccccc23)cc1
REMARK SMILES IDX 7 1 8 2 9 3 10 4 30 5 31 6 6 7 5 8 3 9 4 10 2 11 1 12 11 13
REMARK SMILES IDX 12 14 21 15 17 16 20 17 22 18 19 19 29 20 23 21 24 22 28 23
REMARK SMILES IDX 25 24 27 25 26 26 18 27 13 29 14 30 15 31 16 32
REMARK H PARENT 19 28
ROOT
ATOM      1  C   UNL     1       0.156   0.601   2.549  1.00  0.00     0.120 A 
ATOM      2  C   UNL     1       1.235   0.437   1.674  1.00  0.00     0.047 A 
ATOM      3  C   UNL     1       1.029   0.068   0.362  1.00  0.00     0.008 A 
ATOM      4  C   UNL     1      -0.228  -0.157  -0.157  1.00  0.00    -0.035 A 
ATOM      5  C   UNL     1      -1.297   0.003   0.697  1.00  0.00     0.008 A 
ATOM      6  C   UNL     1      -1.097   0.377   2.028  1.00  0.00     0.047 A 
ENDROOT
BRANCH   1   7
ATOM      7  O   UNL     1       0.356   0.971   3.862  1.00  0.00    -0.482 OA
BRANCH   7   8
ATOM      8  C   UNL     1      -0.639   1.151   4.828  1.00  0.00     0.351 C 
BRANCH   8   9
ATOM      9  C   UNL     1      -1.415  -0.085   5.118  1.00  0.00     0.343 C 
ATOM     10  O   UNL     1      -1.132  -1.164   4.567  1.00  0.00    -0.248 OA
BRANCH   9  11
ATOM     11  O   UNL     1      -2.481  -0.091   6.010  1.00  0.00    -0.466 OA
ATOM     12  C   UNL     1      -3.226  -1.248   6.297  1.00  0.00     0.282 C 
ENDBRANCH   9  11
ENDBRANCH   8   9
ENDBRANCH   7   8
ENDBRANCH   1   7
BRANCH   4  13
ATOM     13  C   UNL     1      -0.349  -0.550  -1.580  1.00  0.00     0.095 C 
ATOM     14  C   UNL     1       0.106   0.487  -2.507  1.00  0.00     0.068 C 
ATOM     15  C   UNL     1       0.291  -1.856  -1.744  1.00  0.00     0.036 C 
ATOM     16  C   UNL     1       1.025   0.293  -3.435  1.00  0.00     0.023 C 
ATOM     17  C   UNL     1       1.213  -2.088  -2.660  1.00  0.00     0.054 C 
ATOM     18  C   UNL     1       0.064  -3.105  -0.980  1.00  0.00     0.192 C 
ATOM     19  N   UNL     1       1.583  -1.011  -3.510  1.00  0.00    -0.358 N 
ATOM     20  C   UNL     1       1.636  -3.489  -2.547  1.00  0.00     0.010 A 
ATOM     21  O   UNL     1      -0.743  -3.280  -0.022  1.00  0.00    -0.289 OA
ATOM     22  C   UNL     1       0.949  -4.126  -1.530  1.00  0.00     0.032 A 
ATOM     23  C   UNL     1       2.556  -4.211  -3.258  1.00  0.00     0.011 A 
ATOM     24  C   UNL     1       1.172  -5.458  -1.226  1.00  0.00     0.013 A 
ATOM     25  C   UNL     1       2.777  -5.548  -2.949  1.00  0.00     0.001 A 
ATOM     26  C   UNL     1       2.093  -6.191  -1.933  1.00  0.00     0.001 A 
ATOM     27  C   UNL     1       1.474   1.381  -4.376  1.00  0.00     0.065 C 
ATOM     28  H   UNL     1       2.320  -1.180  -4.249  1.00  0.00     0.166 HD
BRANCH  14  29
ATOM     29  C   UNL     1      -0.503   1.830  -2.393  1.00  0.00     0.336 C 
ATOM     30  O   UNL     1      -0.164   2.770  -3.151  1.00  0.00    -0.246 OA
BRANCH  29  31
ATOM     31  O   UNL     1      -1.474   2.110  -1.442  1.00  0.00    -0.466 OA
ATOM     32  C   UNL     1      -2.074   3.386  -1.309  1.00  0.00     0.282 C 
ENDBRANCH  29  31
ENDBRANCH  14  29
ENDBRANCH   4  13
TORSDOF 7
