REMARK SMILES COC(=O)COc1ccc(C2C(C(=O)OC)=C(C)[NH2+]C3=C2C(=O)c2ccccc23)cc1
REMARK SMILES IDX 7 1 8 2 9 3 10 4 30 5 31 6 6 7 5 8 3 9 4 10 2 11 1 12 11 13
REMARK SMILES IDX 12 14 21 15 17 16 20 17 22 18 19 19 29 20 23 21 24 22 28 23
REMARK SMILES IDX 25 24 27 25 26 26 18 27 13 30 14 31 15 32 16 33
REMARK H PARENT 19 28 19 29
ROOT
ATOM      1  C   UNL     1       0.608   0.676   2.926  1.00  0.00     0.120 A 
ATOM      2  C   UNL     1       1.009   1.119   1.657  1.00  0.00     0.047 A 
ATOM      3  C   UNL     1       0.736   0.370   0.533  1.00  0.00     0.008 A 
ATOM      4  C   UNL     1       0.065  -0.834   0.592  1.00  0.00    -0.035 A 
ATOM      5  C   UNL     1      -0.329  -1.269   1.838  1.00  0.00     0.008 A 
ATOM      6  C   UNL     1      -0.062  -0.527   2.989  1.00  0.00     0.047 A 
ENDROOT
BRANCH   1   7
ATOM      7  O   UNL     1       0.879   1.419   4.045  1.00  0.00    -0.482 OA
BRANCH   7   8
ATOM      8  C   UNL     1       0.543   1.127   5.359  1.00  0.00     0.351 C 
BRANCH   8   9
ATOM      9  C   UNL     1      -0.884   1.021   5.656  1.00  0.00     0.343 C 
ATOM     10  O   UNL     1      -1.252   0.721   6.818  1.00  0.00    -0.248 OA
BRANCH   9  11
ATOM     11  O   UNL     1      -1.863   1.240   4.704  1.00  0.00    -0.466 OA
ATOM     12  C   UNL     1      -3.212   1.122   5.062  1.00  0.00     0.282 C 
ENDBRANCH   9  11
ENDBRANCH   8   9
ENDBRANCH   7   8
ENDBRANCH   1   7
BRANCH   4  13
ATOM     13  C   UNL     1      -0.218  -1.620  -0.613  1.00  0.00     0.103 C 
ATOM     14  C   UNL     1      -1.186  -0.981  -1.550  1.00  0.00     0.106 C 
ATOM     15  C   UNL     1       1.012  -1.884  -1.418  1.00  0.00     0.074 C 
ATOM     16  C   UNL     1      -1.250  -1.524  -2.754  1.00  0.00     0.119 C 
ATOM     17  C   UNL     1       0.864  -2.390  -2.625  1.00  0.00     0.150 C 
ATOM     18  C   UNL     1       2.436  -1.714  -1.199  1.00  0.00     0.196 C 
ATOM     19  N   UNL     1      -0.442  -2.666  -3.116  1.00  0.00    -0.284 N 
ATOM     20  C   UNL     1       2.175  -2.586  -3.278  1.00  0.00     0.047 A 
ATOM     21  O   UNL     1       2.942  -1.254  -0.153  1.00  0.00    -0.289 OA
ATOM     22  C   UNL     1       3.127  -2.170  -2.398  1.00  0.00     0.036 A 
ATOM     23  C   UNL     1       2.547  -3.078  -4.521  1.00  0.00     0.015 A 
ATOM     24  C   UNL     1       4.474  -2.242  -2.757  1.00  0.00     0.013 A 
ATOM     25  C   UNL     1       3.882  -3.146  -4.866  1.00  0.00     0.001 A 
ATOM     26  C   UNL     1       4.863  -2.728  -3.987  1.00  0.00     0.001 A 
ATOM     27  C   UNL     1      -2.197  -0.930  -3.740  1.00  0.00     0.112 C 
ATOM     28  H   UNL     1      -0.447  -2.713  -4.142  1.00  0.00     0.358 HD
ATOM     29  H   UNL     1      -0.836  -3.538  -2.697  1.00  0.00     0.358 HD
BRANCH  14  30
ATOM     30  C   UNL     1      -2.009   0.155  -1.165  1.00  0.00     0.340 C 
ATOM     31  O   UNL     1      -2.830   0.704  -1.940  1.00  0.00    -0.246 OA
BRANCH  30  32
ATOM     32  O   UNL     1      -1.927   0.699   0.105  1.00  0.00    -0.465 OA
ATOM     33  C   UNL     1      -2.729   1.802   0.474  1.00  0.00     0.282 C 
ENDBRANCH  30  32
ENDBRANCH  14  30
ENDBRANCH   4  13
TORSDOF 7
