REMARK SMILES O=c1cc(-c2ccccc2)oc2cc(O)cc(O)c12
REMARK SMILES IDX 1 1 2 2 3 3 4 4 11 5 12 6 13 7 14 8 16 9 17 10 19 11 5 12
REMARK SMILES IDX 6 13 10 14 7 15 9 16 8 17 18 18 15 20
REMARK H PARENT 18 19 15 21
ROOT
ATOM      1  O   UNL     1      -2.317  -2.751   0.019  1.00  0.00    -0.289 OA
ATOM      2  C   UNL     1      -1.445  -1.868  -0.179  1.00  0.00     0.197 A 
ATOM      3  C   UNL     1      -0.884  -1.114   0.862  1.00  0.00     0.100 A 
ATOM      4  C   UNL     1       0.069  -0.153   0.622  1.00  0.00     0.138 A 
ATOM      5  O   UNL     1       0.425   0.023  -0.628  1.00  0.00    -0.456 OA
ATOM      6  C   UNL     1      -0.062  -0.649  -1.642  1.00  0.00     0.146 A 
ATOM      7  C   UNL     1       0.358  -0.415  -2.946  1.00  0.00     0.094 A 
ATOM      8  C   UNL     1      -0.131  -1.101  -4.031  1.00  0.00     0.123 A 
ATOM      9  C   UNL     1      -1.087  -2.072  -3.834  1.00  0.00     0.093 A 
ATOM     10  C   UNL     1      -1.530  -2.334  -2.556  1.00  0.00     0.134 A 
ATOM     11  C   UNL     1      -1.019  -1.624  -1.463  1.00  0.00     0.107 A 
ENDROOT
BRANCH   4  12
ATOM     12  C   UNL     1       0.661   0.640   1.703  1.00  0.00     0.017 A 
ATOM     13  C   UNL     1       0.330   0.502   3.025  1.00  0.00     0.012 A 
ATOM     14  C   UNL     1       1.616   1.592   1.393  1.00  0.00     0.012 A 
ATOM     15  C   UNL     1       0.922   1.281   4.022  1.00  0.00     0.001 A 
ATOM     16  C   UNL     1       2.221   2.380   2.360  1.00  0.00     0.001 A 
ATOM     17  C   UNL     1       1.872   2.225   3.695  1.00  0.00     0.000 A 
ENDBRANCH   4  12
BRANCH  10  18
ATOM     18  O   UNL     1      -2.484  -3.304  -2.361  1.00  0.00    -0.507 OA
ATOM     19  H   UNL     1      -3.412  -3.054  -2.070  1.00  0.00     0.293 HD
ENDBRANCH  10  18
BRANCH   8  20
ATOM     20  O   UNL     1       0.321  -0.831  -5.325  1.00  0.00    -0.508 OA
ATOM     21  H   UNL     1       0.161   0.051  -5.790  1.00  0.00     0.293 HD
ENDBRANCH   8  20
TORSDOF 3
