REMARK SMILES O=c1cc(-c2ccccc2)oc2cc([O-])cc([O-])c12
REMARK SMILES IDX 1 1 2 2 3 3 4 4 11 5 12 6 13 7 14 8 15 9 16 10 17 11 18 12
REMARK SMILES IDX 19 13 5 14 6 15 10 16 7 17 9 18 8 19
REMARK H PARENT
ROOT
ATOM      1  O   UNL     1      -3.439  -0.263  -1.075  1.00  0.00    -0.289 OA
ATOM      2  C   UNL     1      -2.190  -0.263  -1.003  1.00  0.00     0.192 A 
ATOM      3  C   UNL     1      -1.519   0.012   0.190  1.00  0.00     0.100 A 
ATOM      4  C   UNL     1      -0.146   0.010   0.262  1.00  0.00     0.138 A 
ATOM      5  O   UNL     1       0.505  -0.267  -0.867  1.00  0.00    -0.456 OA
ATOM      6  C   UNL     1      -0.091  -0.529  -2.002  1.00  0.00     0.137 A 
ATOM      7  C   UNL     1       0.645  -0.812  -3.152  1.00  0.00     0.039 A 
ATOM      8  C   UNL     1       0.026  -1.089  -4.351  1.00  0.00    -0.106 A 
ATOM      9  O   UNL     1       0.779  -1.368  -5.484  1.00  0.00    -0.872 OA
ATOM     10  C   UNL     1      -1.342  -1.100  -4.474  1.00  0.00    -0.016 A 
ATOM     11  C   UNL     1      -2.091  -0.822  -3.349  1.00  0.00    -0.094 A 
ATOM     12  O   UNL     1      -3.480  -0.819  -3.416  1.00  0.00    -0.872 OA
ATOM     13  C   UNL     1      -1.463  -0.543  -2.139  1.00  0.00     0.057 A 
ENDROOT
BRANCH   4  14
ATOM     14  C   UNL     1       0.612   0.290   1.482  1.00  0.00     0.017 A 
ATOM     15  C   UNL     1      -0.017   0.578   2.659  1.00  0.00     0.012 A 
ATOM     16  C   UNL     1       1.990   0.275   1.499  1.00  0.00     0.012 A 
ATOM     17  C   UNL     1       0.716   0.846   3.826  1.00  0.00     0.001 A 
ATOM     18  C   UNL     1       2.753   0.530   2.616  1.00  0.00     0.001 A 
ATOM     19  C   UNL     1       2.091   0.824   3.811  1.00  0.00     0.000 A 
ENDBRANCH   4  14
TORSDOF 1
