REMARK SMILES COc1ccc(C=C2SC(=O)N(CNc3ccc(Br)cc3C)C2=O)cc1
REMARK SMILES IDX 7 1 8 2 9 3 10 4 11 5 12 6 23 7 24 8 6 9 3 10 4 11 26 12
REMARK SMILES IDX 5 13 25 14 2 15 1 16 13 17 14 18 15 20 16 21 21 22 17 23
REMARK SMILES IDX 20 24 18 25 22 26 19 27
REMARK H PARENT 14 19
ROOT
ATOM      1  C   UNL     1       1.440  -1.483   1.769  1.00  0.00     0.029 C 
ATOM      2  C   UNL     1       0.971  -1.227   0.566  1.00  0.00     0.083 C 
ATOM      3  S   UNL     1      -0.081  -2.242  -0.455  1.00  0.00    -0.022 SA
ATOM      4  C   UNL     1       0.188  -1.314  -1.963  1.00  0.00     0.295 C 
ATOM      5  O   UNL     1      -0.165  -1.793  -3.093  1.00  0.00    -0.261 OA
ATOM      6  N   UNL     1       0.782  -0.129  -1.594  1.00  0.00    -0.250 N 
ATOM      7  C   UNL     1       1.223  -0.023  -0.249  1.00  0.00     0.269 C 
ATOM      8  O   UNL     1       1.785   0.984   0.267  1.00  0.00    -0.268 OA
ENDROOT
BRANCH   1   9
ATOM      9  C   UNL     1       1.154  -2.709   2.487  1.00  0.00    -0.024 A 
ATOM     10  C   UNL     1       0.654  -5.142   3.925  1.00  0.00     0.118 A 
ATOM     11  C   UNL     1      -0.299  -4.500   3.110  1.00  0.00     0.047 A 
ATOM     12  C   UNL     1       1.882  -4.484   3.974  1.00  0.00     0.047 A 
ATOM     13  C   UNL     1      -0.064  -3.354   2.433  1.00  0.00     0.012 A 
ATOM     14  C   UNL     1       2.111  -3.325   3.289  1.00  0.00     0.012 A 
BRANCH  10  15
ATOM     15  O   UNL     1       0.403  -6.284   4.603  1.00  0.00    -0.497 OA
ATOM     16  C   UNL     1      -0.780  -7.018   4.629  1.00  0.00     0.278 C 
ENDBRANCH  10  15
ENDBRANCH   1   9
BRANCH   6  17
ATOM     17  C   UNL     1       1.031   0.998  -2.514  1.00  0.00     0.247 C 
BRANCH  17  18
ATOM     18  N   UNL     1       0.075   1.949  -2.675  1.00  0.00    -0.367 N 
ATOM     19  H   UNL     1       0.915   2.593  -3.533  1.00  0.00     0.162 HD
BRANCH  18  20
ATOM     20  C   UNL     1      -0.878   2.911  -2.843  1.00  0.00     0.038 A 
ATOM     21  C   UNL     1      -0.756   4.175  -3.381  1.00  0.00     0.027 A 
ATOM     22  C   UNL     1      -2.145   2.600  -2.241  1.00  0.00    -0.027 A 
ATOM     23  C   UNL     1      -1.740   5.147  -3.378  1.00  0.00     0.018 A 
ATOM     24  C   UNL     1      -3.082   3.563  -2.249  1.00  0.00     0.021 A 
ATOM     25  C   UNL     1      -2.965   4.825  -2.780  1.00  0.00     0.018 A 
ATOM     26  C   UNL     1      -2.422   1.276  -1.660  1.00  0.00     0.046 C 
ATOM     27  Br  UNL     1      -4.298   6.148  -2.698  1.00  0.00    -0.051 Br
ENDBRANCH  18  20
ENDBRANCH  17  18
ENDBRANCH   6  17
TORSDOF 5
