REMARK SMILES COc1ccccc1OCCSc1nnc2nc(C)cc(C)n12
REMARK SMILES IDX 10 1 9 2 8 3 3 4 4 5 5 6 7 7 6 8 2 9 1 10 11 11 12 12 13 13
REMARK SMILES IDX 14 14 23 15 15 16 21 17 16 18 20 19 17 20 18 21 22 22 19 23
REMARK H PARENT
ROOT
ATOM      1  C   UNL     1       3.007   0.575  -0.445  1.00  0.00     0.241 C 
ENDROOT
BRANCH   1   2
ATOM      2  O   UNL     1       2.094   1.428   0.102  1.00  0.00    -0.489 OA
BRANCH   2   3
ATOM      3  C   UNL     1       1.345   1.468   1.206  1.00  0.00     0.161 A 
ATOM      4  C   UNL     1       0.472   2.544   1.422  1.00  0.00     0.160 A 
ATOM      5  C   UNL     1      -0.321   2.633   2.538  1.00  0.00     0.050 A 
ATOM      6  C   UNL     1      -0.283   1.650   3.498  1.00  0.00     0.004 A 
ATOM      7  C   UNL     1       1.376   0.495   2.168  1.00  0.00     0.050 A 
ATOM      8  C   UNL     1       0.567   0.593   3.300  1.00  0.00     0.004 A 
BRANCH   4   9
ATOM      9  O   UNL     1       0.402   3.555   0.481  1.00  0.00    -0.493 OA
ATOM     10  C   UNL     1      -0.459   4.664   0.644  1.00  0.00     0.278 C 
ENDBRANCH   4   9
ENDBRANCH   2   3
ENDBRANCH   1   2
BRANCH   1  11
ATOM     11  C   UNL     1       2.518  -0.808  -0.803  1.00  0.00     0.120 C 
BRANCH  11  12
ATOM     12  S   UNL     1       1.182  -0.580  -2.012  1.00  0.00    -0.082 SA
BRANCH  12  13
ATOM     13  C   UNL     1       0.463  -2.117  -2.538  1.00  0.00     0.197 A 
ATOM     14  N   UNL     1       0.825  -2.926  -3.548  1.00  0.00    -0.121 NA
ATOM     15  N   UNL     1      -0.602  -2.698  -1.963  1.00  0.00    -0.259 N 
ATOM     16  N   UNL     1       0.015  -3.969  -3.597  1.00  0.00    -0.108 NA
ATOM     17  C   UNL     1      -1.405  -2.369  -0.916  1.00  0.00     0.027 A 
ATOM     18  C   UNL     1      -0.904  -3.851  -2.599  1.00  0.00     0.256 A 
ATOM     19  C   UNL     1      -2.469  -3.145  -0.505  1.00  0.00     0.045 A 
ATOM     20  N   UNL     1      -1.937  -4.611  -2.205  1.00  0.00    -0.216 NA
ATOM     21  C   UNL     1      -2.747  -4.316  -1.177  1.00  0.00     0.043 A 
ATOM     22  C   UNL     1      -1.090  -1.083  -0.204  1.00  0.00     0.065 C 
ATOM     23  C   UNL     1      -3.891  -5.196  -0.771  1.00  0.00     0.067 C 
ENDBRANCH  12  13
ENDBRANCH  11  12
ENDBRANCH   1  11
TORSDOF 6
