REMARK SMILES COc1cc2ccc(=O)oc2c(O)c1OC1OC(CO)C(O)C(O)C1O
REMARK SMILES IDX 16 1 17 2 18 3 21 4 23 5 25 6 15 7 14 8 3 9 4 10 5 11 12 12
REMARK SMILES IDX 6 13 11 14 7 15 10 16 8 17 9 18 2 19 1 20 13 21 26 23 19 25
REMARK SMILES IDX 20 26 24 28 22 30
REMARK H PARENT 13 22 26 24 20 27 24 29 22 31
ROOT
ATOM      1  C   UNL     1      -0.977  -2.102   0.662  1.00  0.00     0.339 C 
ATOM      2  O   UNL     1      -0.711  -3.240  -0.081  1.00  0.00    -0.332 OA
ATOM      3  C   UNL     1      -1.479  -3.440  -1.179  1.00  0.00     0.179 C 
ATOM      4  C   UNL     1      -2.632  -2.544  -1.395  1.00  0.00     0.177 C 
ATOM      5  C   UNL     1      -3.238  -1.934  -0.180  1.00  0.00     0.180 C 
ATOM      6  C   UNL     1      -2.420  -2.177   1.068  1.00  0.00     0.214 C 
ENDROOT
BRANCH   1   7
ATOM      7  O   UNL     1      -0.622  -0.993  -0.084  1.00  0.00    -0.454 OA
BRANCH   7   8
ATOM      8  C   UNL     1       0.348  -0.074   0.172  1.00  0.00     0.210 A 
ATOM      9  C   UNL     1       0.046   1.052   0.902  1.00  0.00     0.165 A 
ATOM     10  C   UNL     1       1.022   1.993   1.168  1.00  0.00     0.062 A 
ATOM     11  C   UNL     1       2.299   1.837   0.723  1.00  0.00     0.025 A 
ATOM     12  C   UNL     1       1.635  -0.252  -0.289  1.00  0.00     0.206 A 
ATOM     13  C   UNL     1       3.266   2.793   1.002  1.00  0.00     0.020 A 
ATOM     14  C   UNL     1       2.594   0.703  -0.009  1.00  0.00     0.184 A 
ATOM     15  C   UNL     1       4.535   2.577   0.524  1.00  0.00     0.094 A 
ATOM     16  O   UNL     1       3.822   0.541  -0.444  1.00  0.00    -0.419 OA
ATOM     17  C   UNL     1       4.761   1.422  -0.201  1.00  0.00     0.336 A 
ATOM     18  O   UNL     1       5.944   1.244  -0.632  1.00  0.00    -0.246 OA
BRANCH   9  19
ATOM     19  O   UNL     1      -1.255   1.230   1.366  1.00  0.00    -0.493 OA
ATOM     20  C   UNL     1      -1.684   2.321   2.110  1.00  0.00     0.278 C 
ENDBRANCH   9  19
BRANCH  12  21
ATOM     21  O   UNL     1       2.004  -1.375  -1.035  1.00  0.00    -0.502 OA
ATOM     22  H   UNL     1       2.706  -1.982  -0.612  1.00  0.00     0.293 HD
ENDBRANCH  12  21
ENDBRANCH   7   8
ENDBRANCH   1   7
BRANCH   6  23
ATOM     23  O   UNL     1      -2.779  -1.361   2.103  1.00  0.00    -0.384 OA
ATOM     24  H   UNL     1      -1.960  -1.125   2.611  1.00  0.00     0.211 HD
ENDBRANCH   6  23
BRANCH   3  25
ATOM     25  C   UNL     1      -0.544  -3.495  -2.395  1.00  0.00     0.191 C 
BRANCH  25  26
ATOM     26  O   UNL     1       0.352  -4.548  -2.216  1.00  0.00    -0.394 OA
ATOM     27  H   UNL     1      -0.129  -5.266  -1.734  1.00  0.00     0.210 HD
ENDBRANCH  25  26
ENDBRANCH   3  25
BRANCH   5  28
ATOM     28  O   UNL     1      -4.527  -2.420   0.086  1.00  0.00    -0.387 OA
ATOM     29  H   UNL     1      -4.753  -2.328   1.046  1.00  0.00     0.211 HD
ENDBRANCH   5  28
BRANCH   4  30
ATOM     30  O   UNL     1      -2.252  -1.507  -2.257  1.00  0.00    -0.387 OA
ATOM     31  H   UNL     1      -3.070  -0.928  -2.359  1.00  0.00     0.211 HD
ENDBRANCH   4  30
TORSDOF 9
