REMARK SMILES COc1cc2ccc(=O)oc2c([O-])c1OC1OC(CO)C(O)C(O)C1O
REMARK SMILES IDX 16 1 17 2 18 3 21 4 23 5 25 6 15 7 14 8 3 9 4 10 5 11 12 12
REMARK SMILES IDX 6 13 11 14 7 15 10 16 8 17 9 18 13 19 2 20 1 21 26 22 19 24
REMARK SMILES IDX 20 25 24 27 22 29
REMARK H PARENT 26 23 20 26 24 28 22 30
ROOT
ATOM      1  C   UNL     1      -0.637  -1.721  -0.282  1.00  0.00     0.339 C 
ATOM      2  O   UNL     1      -0.647  -1.922  -1.621  1.00  0.00    -0.332 OA
ATOM      3  C   UNL     1       0.127  -2.859  -2.190  1.00  0.00     0.179 C 
ATOM      4  C   UNL     1       0.750  -3.911  -1.368  1.00  0.00     0.177 C 
ATOM      5  C   UNL     1       0.428  -3.957   0.075  1.00  0.00     0.180 C 
ATOM      6  C   UNL     1      -0.704  -3.039   0.460  1.00  0.00     0.214 C 
ENDROOT
BRANCH   1   7
ATOM      7  O   UNL     1       0.351  -0.852   0.191  1.00  0.00    -0.459 OA
BRANCH   7   8
ATOM      8  C   UNL     1       0.106   0.361   0.819  1.00  0.00     0.160 A 
ATOM      9  C   UNL     1      -0.001   1.516   0.091  1.00  0.00     0.161 A 
ATOM     10  C   UNL     1      -0.244   2.712   0.720  1.00  0.00     0.062 A 
ATOM     11  C   UNL     1      -0.389   2.807   2.089  1.00  0.00     0.021 A 
ATOM     12  C   UNL     1      -0.031   0.412   2.177  1.00  0.00    -0.016 A 
ATOM     13  C   UNL     1      -0.635   4.033   2.706  1.00  0.00     0.019 A 
ATOM     14  C   UNL     1      -0.274   1.621   2.790  1.00  0.00     0.134 A 
ATOM     15  C   UNL     1      -0.765   4.034   4.075  1.00  0.00     0.094 A 
ATOM     16  O   UNL     1      -0.412   1.697   4.110  1.00  0.00    -0.423 OA
ATOM     17  C   UNL     1      -0.643   2.828   4.724  1.00  0.00     0.336 A 
ATOM     18  O   UNL     1      -0.767   2.850   5.995  1.00  0.00    -0.246 OA
ATOM     19  O   UNL     1       0.070  -0.744   2.971  1.00  0.00    -0.867 OA
BRANCH   9  20
ATOM     20  O   UNL     1       0.135   1.498  -1.296  1.00  0.00    -0.493 OA
ATOM     21  C   UNL     1       0.029   2.667  -2.067  1.00  0.00     0.278 C 
ENDBRANCH   9  20
ENDBRANCH   7   8
ENDBRANCH   1   7
BRANCH   6  22
ATOM     22  O   UNL     1      -1.894  -3.660   0.036  1.00  0.00    -0.384 OA
ATOM     23  H   UNL     1      -2.678  -3.086   0.230  1.00  0.00     0.211 HD
ENDBRANCH   6  22
BRANCH   3  24
ATOM     24  C   UNL     1      -0.746  -3.565  -3.247  1.00  0.00     0.191 C 
BRANCH  24  25
ATOM     25  O   UNL     1      -1.195  -2.681  -4.201  1.00  0.00    -0.394 OA
ATOM     26  H   UNL     1      -0.639  -2.830  -5.025  1.00  0.00     0.210 HD
ENDBRANCH  24  25
ENDBRANCH   3  24
BRANCH   5  27
ATOM     27  O   UNL     1       0.034  -5.244   0.462  1.00  0.00    -0.387 OA
ATOM     28  H   UNL     1      -0.420  -5.230   1.346  1.00  0.00     0.211 HD
ENDBRANCH   5  27
BRANCH   4  29
ATOM     29  O   UNL     1       0.529  -5.201  -1.910  1.00  0.00    -0.387 OA
ATOM     30  H   UNL     1       0.809  -5.868  -1.256  1.00  0.00     0.211 HD
ENDBRANCH   4  29
TORSDOF 8
