REMARK SMILES O=C1CSC(=O)N1CNc1ccc(F)cc1
REMARK SMILES IDX 9 1 8 3 7 4 1 5 2 6 3 7 4 8 5 9 6 10 10 11 11 12 16 13 12 14
REMARK SMILES IDX 15 15 13 16 14 17
REMARK H PARENT 9 2
ROOT
ATOM      1  N   UNL     1      -0.206  -0.332  -0.311  1.00  0.00    -0.367 N 
ATOM      2  H   UNL     1      -1.239  -0.426  -0.376  1.00  0.00     0.162 HD
ENDROOT
BRANCH   1   3
ATOM      3  C   UNL     1       0.373  -0.144   0.991  1.00  0.00     0.246 C 
BRANCH   3   4
ATOM      4  N   UNL     1      -0.652  -0.117   2.042  1.00  0.00    -0.254 N 
ATOM      5  O   UNL     1      -0.735   2.180   2.679  1.00  0.00    -0.273 OA
ATOM      6  C   UNL     1      -1.299   1.044   2.485  1.00  0.00     0.241 C 
ATOM      7  C   UNL     1      -2.755   0.847   2.723  1.00  0.00     0.180 C 
ATOM      8  S   UNL     1      -2.717  -0.886   3.342  1.00  0.00    -0.054 SA
ATOM      9  C   UNL     1      -1.070  -1.299   2.707  1.00  0.00     0.290 C 
ATOM     10  O   UNL     1      -0.466  -2.411   2.850  1.00  0.00    -0.261 OA
ENDBRANCH   3   4
ENDBRANCH   1   3
BRANCH   1  11
ATOM     11  C   UNL     1       0.565  -0.395  -1.496  1.00  0.00     0.036 A 
ATOM     12  C   UNL     1      -0.042  -0.575  -2.706  1.00  0.00     0.029 A 
ATOM     13  C   UNL     1       1.942  -0.278  -1.486  1.00  0.00     0.029 A 
ATOM     14  C   UNL     1       0.675  -0.643  -3.899  1.00  0.00     0.041 A 
ATOM     15  C   UNL     1       2.664  -0.343  -2.663  1.00  0.00     0.041 A 
ATOM     16  C   UNL     1       2.050  -0.526  -3.884  1.00  0.00     0.123 A 
ATOM     17  F   UNL     1       2.766  -0.590  -5.041  1.00  0.00    -0.207 F 
ENDBRANCH   1  11
TORSDOF 3
