REMARK SMILES O=C(NCc1ccc(Cl)cc1)c1ccc2c(c1)OCCO2
REMARK SMILES IDX 4 1 3 2 1 3 2 4 12 6 13 7 17 8 14 9 16 10 15 11 18 12 21 13
REMARK SMILES IDX 19 14 20 15 5 16 6 17 11 18 7 19 10 20 8 21 9 22
REMARK H PARENT 3 5
ROOT
ATOM      1  C   UNL     1      -1.227   2.360   0.916  1.00  0.00     0.152 C 
ENDROOT
BRANCH   1   2
ATOM      2  N   UNL     1      -1.137   0.951   0.691  1.00  0.00    -0.348 N 
ATOM      3  O   UNL     1      -1.276   1.063  -1.599  1.00  0.00    -0.269 OA
ATOM      4  C   UNL     1      -1.163   0.330  -0.569  1.00  0.00     0.251 C 
ATOM      5  H   UNL     1      -1.044   0.355   1.570  1.00  0.00     0.164 HD
BRANCH   4   6
ATOM      6  C   UNL     1      -1.064  -1.137  -0.742  1.00  0.00     0.043 A 
ATOM      7  C   UNL     1      -1.084  -1.673  -2.010  1.00  0.00     0.018 A 
ATOM      8  C   UNL     1      -0.953  -1.999   0.320  1.00  0.00     0.064 A 
ATOM      9  C   UNL     1      -0.993  -3.056  -2.196  1.00  0.00     0.051 A 
ATOM     10  C   UNL     1      -0.862  -3.373   0.158  1.00  0.00     0.162 A 
ATOM     11  C   UNL     1      -0.883  -3.893  -1.105  1.00  0.00     0.161 A 
ATOM     12  O   UNL     1      -0.751  -4.240   1.230  1.00  0.00    -0.486 OA
ATOM     13  O   UNL     1      -0.790  -5.272  -1.229  1.00  0.00    -0.486 OA
ATOM     14  C   UNL     1      -0.394  -5.603   1.139  1.00  0.00     0.271 C 
ATOM     15  C   UNL     1      -0.888  -6.160  -0.154  1.00  0.00     0.271 C 
ENDBRANCH   4   6
ENDBRANCH   1   2
BRANCH   1  16
ATOM     16  C   UNL     1       0.063   3.016   0.634  1.00  0.00    -0.029 A 
ATOM     17  C   UNL     1       1.061   3.066   1.602  1.00  0.00     0.007 A 
ATOM     18  C   UNL     1       0.283   3.603  -0.585  1.00  0.00     0.007 A 
ATOM     19  C   UNL     1       2.254   3.690   1.352  1.00  0.00     0.021 A 
ATOM     20  C   UNL     1       1.482   4.243  -0.870  1.00  0.00     0.021 A 
ATOM     21  C   UNL     1       2.444   4.270   0.115  1.00  0.00     0.041 A 
ATOM     22  Cl  UNL     1       3.957   5.089  -0.269  1.00  0.00    -0.084 Cl
ENDBRANCH   1  16
TORSDOF 3
