REMARK SMILES O=C(Nc1cccnc1)c1ccccc1F
REMARK SMILES IDX 10 1 11 2 12 3 13 4 14 5 15 6 16 7 2 8 1 9 3 10 4 12 5 13
REMARK SMILES IDX 9 14 6 15 8 16 7 17
REMARK H PARENT 3 11
ROOT
ATOM      1  C   UNL     1       0.353  -0.688  -1.865  1.00  0.00     0.075 A 
ATOM      2  C   UNL     1       1.506  -0.875  -2.643  1.00  0.00     0.017 A 
ATOM      3  C   UNL     1       1.491  -1.444  -3.889  1.00  0.00     0.001 A 
ATOM      4  C   UNL     1       0.301  -1.865  -4.438  1.00  0.00     0.003 A 
ATOM      5  C   UNL     1      -0.846  -1.697  -3.704  1.00  0.00     0.040 A 
ATOM      6  C   UNL     1      -0.805  -1.109  -2.426  1.00  0.00     0.135 A 
ATOM      7  F   UNL     1      -1.996  -0.964  -1.781  1.00  0.00    -0.206 F 
ENDROOT
BRANCH   1   8
ATOM      8  C   UNL     1       0.481  -0.093  -0.541  1.00  0.00     0.258 C 
ATOM      9  O   UNL     1       1.589   0.512  -0.263  1.00  0.00    -0.269 OA
ATOM     10  N   UNL     1      -0.498  -0.124   0.461  1.00  0.00    -0.320 N 
ATOM     11  H   UNL     1      -1.395  -0.656   0.194  1.00  0.00     0.170 HD
BRANCH  10  12
ATOM     12  C   UNL     1      -0.416   0.444   1.754  1.00  0.00     0.059 A 
ATOM     13  C   UNL     1       0.624   1.133   2.288  1.00  0.00     0.029 A 
ATOM     14  C   UNL     1      -1.523   0.292   2.600  1.00  0.00     0.137 A 
ATOM     15  C   UNL     1       0.577   1.650   3.597  1.00  0.00     0.022 A 
ATOM     16  N   UNL     1      -1.557   0.790   3.847  1.00  0.00    -0.263 NA
ATOM     17  C   UNL     1      -0.535   1.469   4.379  1.00  0.00     0.111 A 
ENDBRANCH  10  12
ENDBRANCH   1   8
TORSDOF 2
