REMARK SMILES Cc1ccccc1OCC(=O)Nc1ccc(F)c(F)c1
REMARK SMILES IDX 9 1 8 2 7 3 2 4 3 5 4 6 6 7 5 8 1 9 10 10 11 11 12 12 13 14
REMARK SMILES IDX 14 15 20 16 15 17 18 18 16 19 19 20 17 21
REMARK H PARENT 12 13
ROOT
ATOM      1  C   UNL     1       0.543   0.214   0.135  1.00  0.00     0.329 C 
ENDROOT
BRANCH   1   2
ATOM      2  O   UNL     1       0.177  -0.577   1.250  1.00  0.00    -0.483 OA
BRANCH   2   3
ATOM      3  C   UNL     1       0.846  -0.421   2.444  1.00  0.00     0.122 A 
ATOM      4  C   UNL     1       0.473  -1.201   3.518  1.00  0.00    -0.009 A 
ATOM      5  C   UNL     1       1.108  -1.085   4.733  1.00  0.00     0.007 A 
ATOM      6  C   UNL     1       2.147  -0.168   4.895  1.00  0.00     0.001 A 
ATOM      7  C   UNL     1       1.885   0.499   2.601  1.00  0.00     0.047 A 
ATOM      8  C   UNL     1       2.516   0.609   3.821  1.00  0.00     0.004 A 
ATOM      9  C   UNL     1      -0.618  -2.174   3.372  1.00  0.00     0.048 C 
ENDBRANCH   2   3
ENDBRANCH   1   2
BRANCH   1  10
ATOM     10  C   UNL     1      -0.298  -0.113  -1.040  1.00  0.00     0.262 C 
ATOM     11  O   UNL     1      -1.180  -0.996  -0.917  1.00  0.00    -0.271 OA
ATOM     12  N   UNL     1      -0.166   0.515  -2.302  1.00  0.00    -0.323 N 
ATOM     13  H   UNL     1       0.572   1.249  -2.392  1.00  0.00     0.170 HD
BRANCH  12  14
ATOM     14  C   UNL     1      -0.972   0.203  -3.430  1.00  0.00     0.044 A 
ATOM     15  C   UNL     1      -2.162   0.862  -3.686  1.00  0.00     0.029 A 
ATOM     16  C   UNL     1      -0.599  -0.776  -4.324  1.00  0.00     0.068 A 
ATOM     17  C   UNL     1      -2.944   0.559  -4.780  1.00  0.00     0.044 A 
ATOM     18  C   UNL     1      -1.379  -1.092  -5.434  1.00  0.00     0.160 A 
ATOM     19  C   UNL     1      -2.563  -0.421  -5.669  1.00  0.00     0.158 A 
ATOM     20  F   UNL     1      -1.016  -2.055  -6.317  1.00  0.00    -0.204 F 
ATOM     21  F   UNL     1      -3.349  -0.704  -6.742  1.00  0.00    -0.204 F 
ENDBRANCH  12  14
ENDBRANCH   1  10
TORSDOF 4
