REMARK SMILES CC(=O)N(C)Cc1nc2ccccc2n1Cc1ccc(C)cc1
REMARK SMILES IDX 7 1 8 2 9 3 10 4 11 5 12 6 13 7 14 8 15 9 6 10 4 11 5 12
REMARK SMILES IDX 2 13 3 14 1 15 16 16 17 17 18 18 23 19 19 20 22 21 20 22
REMARK SMILES IDX 21 23
REMARK H PARENT
ROOT
ATOM      1  C   UNL     1       0.595   0.385  -0.443  1.00  0.00     0.129 A 
ATOM      2  N   UNL     1       1.906   0.792  -0.259  1.00  0.00    -0.231 NA
ATOM      3  C   UNL     1       2.656  -0.266  -0.016  1.00  0.00     0.089 A 
ATOM      4  C   UNL     1       4.025  -0.420   0.232  1.00  0.00     0.030 A 
ATOM      5  C   UNL     1       4.567  -1.661   0.452  1.00  0.00     0.002 A 
ATOM      6  C   UNL     1       3.752  -2.771   0.428  1.00  0.00     0.002 A 
ATOM      7  C   UNL     1       2.408  -2.604   0.182  1.00  0.00     0.028 A 
ATOM      8  C   UNL     1       1.844  -1.377  -0.039  1.00  0.00     0.068 A 
ATOM      9  N   UNL     1       0.566  -0.927  -0.307  1.00  0.00    -0.322 N 
ENDROOT
BRANCH   1  10
ATOM     10  C   UNL     1      -0.466   1.348  -0.704  1.00  0.00     0.194 C 
BRANCH  10  11
ATOM     11  N   UNL     1      -0.584   1.832  -2.039  1.00  0.00    -0.339 N 
ATOM     12  C   UNL     1       0.196   2.976  -2.458  1.00  0.00     0.147 C 
BRANCH  11  13
ATOM     13  C   UNL     1      -1.416   1.217  -2.981  1.00  0.00     0.219 C 
ATOM     14  O   UNL     1      -2.122   0.250  -2.650  1.00  0.00    -0.275 OA
ATOM     15  C   UNL     1      -1.502   1.678  -4.404  1.00  0.00     0.114 C 
ENDBRANCH  11  13
ENDBRANCH  10  11
ENDBRANCH   1  10
BRANCH   9  16
ATOM     16  C   UNL     1      -0.516  -1.843  -0.357  1.00  0.00     0.159 C 
BRANCH  16  17
ATOM     17  C   UNL     1      -1.240  -2.032   0.936  1.00  0.00    -0.028 A 
ATOM     18  C   UNL     1      -0.780  -2.823   1.965  1.00  0.00     0.006 A 
ATOM     19  C   UNL     1      -2.459  -1.394   1.131  1.00  0.00     0.006 A 
ATOM     20  C   UNL     1      -1.498  -2.971   3.134  1.00  0.00     0.004 A 
ATOM     21  C   UNL     1      -3.159  -1.556   2.307  1.00  0.00     0.004 A 
ATOM     22  C   UNL     1      -2.706  -2.344   3.341  1.00  0.00    -0.051 A 
ATOM     23  C   UNL     1      -3.474  -2.508   4.603  1.00  0.00     0.044 C 
ENDBRANCH  16  17
ENDBRANCH   9  16
TORSDOF 5
