REMARK SMILES Cc1ccccc1-n1cnc2cc(NC(=O)c3cccs3)ccc21
REMARK SMILES IDX 8 1 9 2 10 3 11 4 12 5 13 6 22 7 23 8 24 9 7 10 2 11 3 12
REMARK SMILES IDX 4 13 6 14 5 15 1 16 14 17 15 18 16 19 17 21 18 22 21 23
REMARK SMILES IDX 19 24 20 25
REMARK H PARENT 14 20
ROOT
ATOM      1  N   UNL     1       1.495   1.408   0.561  1.00  0.00    -0.299 N 
ATOM      2  C   UNL     1       1.481   2.361  -0.409  1.00  0.00     0.205 A 
ATOM      3  N   UNL     1       0.876   1.892  -1.516  1.00  0.00    -0.236 NA
ATOM      4  C   UNL     1       0.481   0.625  -1.296  1.00  0.00     0.091 A 
ATOM      5  C   UNL     1      -0.180  -0.327  -2.074  1.00  0.00     0.056 A 
ATOM      6  C   UNL     1      -0.464  -1.583  -1.580  1.00  0.00     0.043 A 
ATOM      7  C   UNL     1      -0.065  -1.847  -0.285  1.00  0.00     0.028 A 
ATOM      8  C   UNL     1       0.589  -0.912   0.490  1.00  0.00     0.031 A 
ATOM      9  C   UNL     1       0.874   0.346  -0.005  1.00  0.00     0.073 A 
ENDROOT
BRANCH   1  10
ATOM     10  C   UNL     1       2.040   1.522   1.860  1.00  0.00     0.050 A 
ATOM     11  C   UNL     1       1.257   1.838   2.941  1.00  0.00    -0.027 A 
ATOM     12  C   UNL     1       1.743   1.960   4.223  1.00  0.00     0.005 A 
ATOM     13  C   UNL     1       3.077   1.757   4.449  1.00  0.00     0.000 A 
ATOM     14  C   UNL     1       3.376   1.321   2.101  1.00  0.00     0.027 A 
ATOM     15  C   UNL     1       3.896   1.438   3.396  1.00  0.00     0.002 A 
ATOM     16  C   UNL     1      -0.192   2.060   2.705  1.00  0.00     0.046 C 
ENDBRANCH   1  10
BRANCH   6  17
ATOM     17  N   UNL     1      -1.136  -2.580  -2.340  1.00  0.00    -0.321 N 
ATOM     18  C   UNL     1      -2.548  -2.709  -2.336  1.00  0.00     0.265 C 
ATOM     19  O   UNL     1      -3.182  -1.895  -1.624  1.00  0.00    -0.268 OA
ATOM     20  H   UNL     1      -0.562  -3.228  -2.913  1.00  0.00     0.170 HD
BRANCH  18  21
ATOM     21  C   UNL     1      -3.244  -3.727  -3.112  1.00  0.00     0.092 A 
ATOM     22  C   UNL     1      -4.543  -4.017  -3.248  1.00  0.00     0.025 A 
ATOM     23  S   UNL     1      -2.467  -4.940  -4.161  1.00  0.00    -0.139 S 
ATOM     24  C   UNL     1      -4.941  -5.019  -4.034  1.00  0.00     0.012 A 
ATOM     25  C   UNL     1      -3.990  -5.749  -4.702  1.00  0.00     0.065 A 
ENDBRANCH  18  21
ENDBRANCH   6  17
TORSDOF 3
