REMARK SMILES Nc1ccn([C@@H]2O[C@H](CO)[C@@H](O)C2(F)F)c(=O)n1
REMARK SMILES IDX 6 1 7 2 8 3 11 4 13 5 14 6 15 7 5 8 2 9 3 10 18 11 4 12
REMARK SMILES IDX 16 13 17 14 1 15 9 18 10 19 12 21
REMARK H PARENT 1 16 1 17 10 20 12 22
ROOT
ATOM      1  C   UNL     1       0.147  -1.270  -0.690  1.00  0.00     0.297 C 
ATOM      2  O   UNL     1       1.171  -1.278   0.209  1.00  0.00    -0.343 OA
ATOM      3  C   UNL     1       2.305  -0.771  -0.360  1.00  0.00     0.181 C 
ATOM      4  C   UNL     1       2.113  -0.742  -1.853  1.00  0.00     0.220 C 
ATOM      5  C   UNL     1       0.590  -0.563  -1.935  1.00  0.00     0.320 C 
ATOM      6  F   UNL     1       0.346   0.785  -1.925  1.00  0.00    -0.198 F 
ATOM      7  F   UNL     1       0.184  -1.188  -3.090  1.00  0.00    -0.198 F 
ENDROOT
BRANCH   1   8
ATOM      8  N   UNL     1      -1.035  -0.714  -0.093  1.00  0.00    -0.266 N 
ATOM      9  C   UNL     1      -3.311   0.357   1.132  1.00  0.00     0.130 A 
ATOM     10  C   UNL     1      -2.254  -0.136   1.883  1.00  0.00     0.065 A 
ATOM     11  N   UNL     1      -3.170   0.285  -0.212  1.00  0.00    -0.176 NA
ATOM     12  C   UNL     1      -1.139  -0.661   1.248  1.00  0.00     0.097 A 
ATOM     13  C   UNL     1      -2.074  -0.230  -0.802  1.00  0.00     0.351 A 
ATOM     14  O   UNL     1      -2.023  -0.259  -2.062  1.00  0.00    -0.246 OA
BRANCH   9  15
ATOM     15  N   UNL     1      -4.467   0.900   1.747  1.00  0.00    -0.383 N 
ATOM     16  H   UNL     1      -4.759   1.860   1.475  1.00  0.00     0.158 HD
ATOM     17  H   UNL     1      -5.043   0.403   2.453  1.00  0.00     0.158 HD
ENDBRANCH   9  15
ENDBRANCH   1   8
BRANCH   3  18
ATOM     18  C   UNL     1       2.684   0.592   0.183  1.00  0.00     0.191 C 
BRANCH  18  19
ATOM     19  O   UNL     1       3.844   1.057  -0.432  1.00  0.00    -0.394 OA
ATOM     20  H   UNL     1       3.603   1.629  -1.228  1.00  0.00     0.210 HD
ENDBRANCH  18  19
ENDBRANCH   3  18
BRANCH   4  21
ATOM     21  O   UNL     1       2.454  -1.999  -2.362  1.00  0.00    -0.384 OA
ATOM     22  H   UNL     1       2.415  -2.670  -1.630  1.00  0.00     0.211 HD
ENDBRANCH   4  21
TORSDOF 5
