REMARK SMILES Cc1ccnc(SCc2cc(=O)n3[n-]c(C)c(-c4ccc(F)cc4)c3n2)n1
REMARK SMILES IDX 8 1 7 2 6 3 2 4 3 5 27 6 4 7 5 8 1 9 9 10 10 11 26 12 11 13
REMARK SMILES IDX 25 14 12 15 13 16 17 17 14 18 15 19 16 20 18 21 19 22 24 23
REMARK SMILES IDX 20 24 23 25 21 26 22 27
REMARK H PARENT
ROOT
ATOM      1  C   UNL     1       2.120  -0.251   2.147  1.00  0.00     0.134 C 
ENDROOT
BRANCH   1   2
ATOM      2  S   UNL     1       1.470   1.415   2.503  1.00  0.00    -0.080 SA
BRANCH   2   3
ATOM      3  C   UNL     1       1.944   2.555   1.218  1.00  0.00     0.188 A 
ATOM      4  C   UNL     1       1.591   3.645  -0.811  1.00  0.00     0.042 A 
ATOM      5  C   UNL     1       2.776   4.338  -0.706  1.00  0.00     0.043 A 
ATOM      6  N   UNL     1       1.186   2.775   0.129  1.00  0.00    -0.228 NA
ATOM      7  C   UNL     1       3.540   4.100   0.417  1.00  0.00     0.116 A 
ATOM      8  N   UNL     1       3.100   3.230   1.321  1.00  0.00    -0.231 NA
ATOM      9  C   UNL     1       0.764   3.910  -2.036  1.00  0.00     0.067 C 
ENDBRANCH   2   3
ENDBRANCH   1   2
BRANCH   1  10
ATOM     10  C   UNL     1       1.424  -0.731   0.927  1.00  0.00     0.059 A 
ATOM     11  C   UNL     1       1.966  -0.471  -0.301  1.00  0.00     0.095 A 
ATOM     12  N   UNL     1       0.291  -1.406   0.994  1.00  0.00    -0.235 NA
ATOM     13  C   UNL     1       1.309  -0.922  -1.401  1.00  0.00     0.240 A 
ATOM     14  C   UNL     1      -0.402  -1.877  -0.080  1.00  0.00     0.128 A 
ATOM     15  O   UNL     1       1.765  -0.708  -2.548  1.00  0.00    -0.271 OA
ATOM     16  N   UNL     1       0.138  -1.616  -1.282  1.00  0.00    -0.367 N 
ATOM     17  C   UNL     1      -1.575  -2.586  -0.222  1.00  0.00     0.006 A 
ATOM     18  N   UNL     1      -0.683  -2.154  -2.164  1.00  0.00    -0.589 NA
ATOM     19  C   UNL     1      -1.731  -2.750  -1.578  1.00  0.00    -0.138 A 
ATOM     20  C   UNL     1      -2.831  -3.446  -2.292  1.00  0.00     0.019 C 
BRANCH  17  21
ATOM     21  C   UNL     1      -2.418  -3.035   0.842  1.00  0.00    -0.016 A 
ATOM     22  C   UNL     1      -2.210  -4.296   1.420  1.00  0.00     0.012 A 
ATOM     23  C   UNL     1      -3.447  -2.273   1.339  1.00  0.00     0.012 A 
ATOM     24  C   UNL     1      -3.008  -4.754   2.448  1.00  0.00     0.040 A 
ATOM     25  C   UNL     1      -4.224  -2.738   2.352  1.00  0.00     0.040 A 
ATOM     26  C   UNL     1      -4.041  -3.987   2.946  1.00  0.00     0.123 A 
ATOM     27  F   UNL     1      -4.852  -4.392   3.954  1.00  0.00    -0.207 F 
ENDBRANCH  17  21
ENDBRANCH   1  10
TORSDOF 4
