REMARK SMILES Cc1ccnc(SCc2cc(=O)n3[nH]c(C)c(-c4ccc(F)cc4)c3n2)n1
REMARK SMILES IDX 8 1 7 2 6 3 2 4 3 5 27 6 4 7 5 8 1 9 9 10 10 11 26 12 11 13
REMARK SMILES IDX 25 14 12 15 13 16 17 17 14 18 15 19 16 21 18 22 19 23 24 24
REMARK SMILES IDX 20 25 23 26 21 27 22 28
REMARK H PARENT 14 20
ROOT
ATOM      1  C   UNL     1       2.022  -0.471   2.160  1.00  0.00     0.134 C 
ENDROOT
BRANCH   1   2
ATOM      2  S   UNL     1       1.281   1.019   2.864  1.00  0.00    -0.080 SA
BRANCH   2   3
ATOM      3  C   UNL     1       1.665   2.482   1.944  1.00  0.00     0.188 A 
ATOM      4  C   UNL     1       1.154   4.025   0.219  1.00  0.00     0.042 A 
ATOM      5  C   UNL     1       2.278   4.773   0.513  1.00  0.00     0.043 A 
ATOM      6  N   UNL     1       0.878   2.920   0.925  1.00  0.00    -0.228 NA
ATOM      7  C   UNL     1       3.076   4.329   1.545  1.00  0.00     0.116 A 
ATOM      8  N   UNL     1       2.763   3.208   2.234  1.00  0.00    -0.231 NA
ATOM      9  C   UNL     1       0.294   4.508  -0.897  1.00  0.00     0.067 C 
ENDBRANCH   2   3
ENDBRANCH   1   2
BRANCH   1  10
ATOM     10  C   UNL     1       1.438  -0.790   0.827  1.00  0.00     0.059 A 
ATOM     11  C   UNL     1       1.958  -0.311  -0.359  1.00  0.00     0.098 A 
ATOM     12  N   UNL     1       0.357  -1.576   0.744  1.00  0.00    -0.232 NA
ATOM     13  C   UNL     1       1.350  -0.660  -1.546  1.00  0.00     0.272 A 
ATOM     14  C   UNL     1      -0.254  -1.929  -0.402  1.00  0.00     0.165 A 
ATOM     15  O   UNL     1       1.848  -0.207  -2.605  1.00  0.00    -0.267 OA
ATOM     16  N   UNL     1       0.265  -1.453  -1.572  1.00  0.00    -0.201 N 
ATOM     17  C   UNL     1      -1.358  -2.714  -0.700  1.00  0.00     0.047 A 
ATOM     18  N   UNL     1      -0.476  -1.914  -2.564  1.00  0.00    -0.293 N 
ATOM     19  C   UNL     1      -1.468  -2.681  -2.073  1.00  0.00     0.041 A 
ATOM     20  H   UNL     1      -0.337  -1.729  -3.578  1.00  0.00     0.188 HD
ATOM     21  C   UNL     1      -2.522  -3.390  -2.858  1.00  0.00     0.067 C 
BRANCH  17  22
ATOM     22  C   UNL     1      -2.211  -3.417   0.248  1.00  0.00    -0.013 A 
ATOM     23  C   UNL     1      -3.336  -2.868   0.821  1.00  0.00     0.012 A 
ATOM     24  C   UNL     1      -1.900  -4.709   0.614  1.00  0.00     0.012 A 
ATOM     25  C   UNL     1      -4.133  -3.544   1.718  1.00  0.00     0.040 A 
ATOM     26  C   UNL     1      -2.689  -5.417   1.519  1.00  0.00     0.040 A 
ATOM     27  C   UNL     1      -3.808  -4.848   2.080  1.00  0.00     0.123 A 
ATOM     28  F   UNL     1      -4.595  -5.522   2.968  1.00  0.00    -0.207 F 
ENDBRANCH  17  22
ENDBRANCH   1  10
TORSDOF 4
