REMARK SMILES [NH3+][C@@H](Cc1ccc(N(CCCl)CCCl)cc1)C(=O)[O-]
REMARK SMILES IDX 4 1 5 2 6 3 7 4 15 5 16 6 3 7 2 8 1 9 17 13 18 14 19 15 8 16
REMARK SMILES IDX 9 17 10 18 11 19 12 20 13 21 14 22
REMARK H PARENT 1 10 1 11 1 12
ROOT
ATOM      1  C   UNL     1      -1.632  -0.927  -0.967  1.00  0.00    -0.042 A 
ATOM      2  C   UNL     1      -1.435  -1.292   0.315  1.00  0.00     0.006 A 
ATOM      3  C   UNL     1      -0.212  -1.110   0.931  1.00  0.00     0.026 A 
ATOM      4  C   UNL     1       0.896  -0.545   0.287  1.00  0.00     0.037 A 
ATOM      5  C   UNL     1       0.652  -0.187  -1.020  1.00  0.00     0.026 A 
ATOM      6  C   UNL     1      -0.591  -0.371  -1.650  1.00  0.00     0.006 A 
ENDROOT
BRANCH   1   7
ATOM      7  C   UNL     1      -2.916  -1.087  -1.701  1.00  0.00     0.107 C 
BRANCH   7   8
ATOM      8  C   UNL     1      -3.817   0.098  -1.627  1.00  0.00     0.232 C 
BRANCH   8   9
ATOM      9  N   UNL     1      -4.172   0.385  -0.254  1.00  0.00    -0.350 N 
ATOM     10  H   UNL     1      -3.601   1.187   0.149  1.00  0.00     0.345 HD
ATOM     11  H   UNL     1      -4.144  -0.462   0.354  1.00  0.00     0.345 HD
ATOM     12  H   UNL     1      -5.178   0.738  -0.203  1.00  0.00     0.345 HD
ENDBRANCH   8   9
BRANCH   8  13
ATOM     13  C   UNL     1      -5.059  -0.243  -2.375  1.00  0.00     0.099 C 
ATOM     14  O   UNL     1      -5.111  -0.241  -3.629  1.00  0.00    -0.544 OA
ATOM     15  O   UNL     1      -6.206  -0.577  -1.676  1.00  0.00    -0.544 OA
ENDBRANCH   8  13
ENDBRANCH   7   8
ENDBRANCH   1   7
BRANCH   4  16
ATOM     16  N   UNL     1       2.123  -0.309   0.928  1.00  0.00    -0.369 N 
BRANCH  16  17
ATOM     17  C   UNL     1       3.386   0.095   0.445  1.00  0.00     0.132 C 
BRANCH  17  18
ATOM     18  C   UNL     1       3.743   0.123  -0.973  1.00  0.00     0.131 C 
ATOM     19  Cl  UNL     1       3.622  -1.494  -1.750  1.00  0.00    -0.125 Cl
ENDBRANCH  17  18
ENDBRANCH  16  17
BRANCH  16  20
ATOM     20  C   UNL     1       2.089  -0.418   2.420  1.00  0.00     0.132 C 
BRANCH  20  21
ATOM     21  C   UNL     1       2.909  -1.569   2.863  1.00  0.00     0.131 C 
ATOM     22  Cl  UNL     1       2.336  -3.073   2.123  1.00  0.00    -0.125 Cl
ENDBRANCH  20  21
ENDBRANCH  16  20
ENDBRANCH   4  16
TORSDOF 9
