REMARK SMILES N[C@@H](Cc1ccc(N(CCCl)CCCl)cc1)C(=O)[O-]
REMARK SMILES IDX 4 1 5 2 6 3 7 4 15 5 16 6 3 7 2 8 1 9 17 12 18 13 19 14 8 15
REMARK SMILES IDX 9 16 10 17 11 18 12 19 13 20 14 21
REMARK H PARENT 1 10 1 11
ROOT
ATOM      1  C   UNL     1      -2.102  -0.894   0.647  1.00  0.00    -0.046 A 
ATOM      2  C   UNL     1      -1.390   0.199   1.076  1.00  0.00     0.006 A 
ATOM      3  C   UNL     1      -0.074   0.372   0.730  1.00  0.00     0.026 A 
ATOM      4  C   UNL     1       0.646  -0.537  -0.079  1.00  0.00     0.037 A 
ATOM      5  C   UNL     1      -0.074  -1.614  -0.496  1.00  0.00     0.026 A 
ATOM      6  C   UNL     1      -1.425  -1.787  -0.137  1.00  0.00     0.006 A 
ENDROOT
BRANCH   1   7
ATOM      7  C   UNL     1      -3.531  -1.065   1.010  1.00  0.00     0.060 C 
BRANCH   7   8
ATOM      8  C   UNL     1      -4.415  -0.474  -0.061  1.00  0.00     0.101 C 
BRANCH   8   9
ATOM      9  N   UNL     1      -4.180   0.953  -0.261  1.00  0.00    -0.323 NA
ATOM     10  H   UNL     1      -3.155   1.086  -0.341  1.00  0.00     0.119 HD
ATOM     11  H   UNL     1      -4.564   1.157  -1.228  1.00  0.00     0.119 HD
ENDBRANCH   8   9
BRANCH   8  12
ATOM     12  C   UNL     1      -5.829  -0.728   0.268  1.00  0.00     0.059 C 
ATOM     13  O   UNL     1      -6.692  -0.576  -0.627  1.00  0.00    -0.548 OA
ATOM     14  O   UNL     1      -6.203  -1.125   1.535  1.00  0.00    -0.548 OA
ENDBRANCH   8  12
ENDBRANCH   7   8
ENDBRANCH   1   7
BRANCH   4  15
ATOM     15  N   UNL     1       1.999  -0.233  -0.398  1.00  0.00    -0.369 N 
BRANCH  15  16
ATOM     16  C   UNL     1       2.522   1.093   0.014  1.00  0.00     0.132 C 
BRANCH  16  17
ATOM     17  C   UNL     1       3.438   1.091   1.182  1.00  0.00     0.131 C 
ATOM     18  Cl  UNL     1       4.947   0.241   0.979  1.00  0.00    -0.125 Cl
ENDBRANCH  16  17
ENDBRANCH  15  16
BRANCH  15  19
ATOM     19  C   UNL     1       2.961  -1.065  -0.999  1.00  0.00     0.132 C 
BRANCH  19  20
ATOM     20  C   UNL     1       2.675  -2.341  -1.660  1.00  0.00     0.131 C 
ATOM     21  Cl  UNL     1       4.290  -2.981  -2.283  1.00  0.00    -0.125 Cl
ENDBRANCH  19  20
ENDBRANCH  15  19
ENDBRANCH   4  15
TORSDOF 9
