REMARK SMILES Cc1ccc([NH2+]C=C2C=C(Br)C=CC2=O)c(C(=O)c2ccccc2)c1
REMARK SMILES IDX 1 1 2 2 3 3 4 4 5 5 16 6 25 7 17 8 18 9 19 10 20 11 24 12
REMARK SMILES IDX 21 13 23 14 22 15 6 16 7 19 8 20 9 21 14 22 10 23 13 24
REMARK SMILES IDX 15 25 12 26 11 27
REMARK H PARENT 6 17 6 18
ROOT
ATOM      1  C   UNL     1      -4.693   0.049   0.419  1.00  0.00     0.044 C 
ATOM      2  C   UNL     1      -3.253   0.367   0.646  1.00  0.00    -0.050 A 
ATOM      3  C   UNL     1      -2.859   1.683   0.735  1.00  0.00     0.009 A 
ATOM      4  C   UNL     1      -1.539   1.981   0.942  1.00  0.00     0.069 A 
ATOM      5  C   UNL     1      -0.605   0.926   1.062  1.00  0.00     0.145 A 
ATOM      6  C   UNL     1      -0.990  -0.399   0.976  1.00  0.00     0.084 A 
ATOM      7  C   UNL     1      -2.348  -0.663   0.762  1.00  0.00     0.022 A 
ENDROOT
BRANCH   6   8
ATOM      8  C   UNL     1      -0.026  -1.462   1.076  1.00  0.00     0.199 C 
ATOM      9  O   UNL     1       1.197  -1.203   1.013  1.00  0.00    -0.288 OA
BRANCH   8  10
ATOM     10  C   UNL     1      -0.360  -2.854   1.249  1.00  0.00     0.023 A 
ATOM     11  C   UNL     1       0.409  -3.831   0.625  1.00  0.00     0.012 A 
ATOM     12  C   UNL     1      -1.373  -3.293   2.044  1.00  0.00     0.012 A 
ATOM     13  C   UNL     1       0.182  -5.176   0.783  1.00  0.00     0.001 A 
ATOM     14  C   UNL     1      -1.629  -4.658   2.223  1.00  0.00     0.001 A 
ATOM     15  C   UNL     1      -0.854  -5.607   1.595  1.00  0.00     0.000 A 
ENDBRANCH   8  10
ENDBRANCH   6   8
BRANCH   5  16
ATOM     16  N   UNL     1       0.691   1.309   1.308  1.00  0.00    -0.286 N 
ATOM     17  H   UNL     1       0.657   2.295   1.800  1.00  0.00     0.357 HD
ATOM     18  H   UNL     1       0.955   0.732   2.218  1.00  0.00     0.357 HD
BRANCH  16  19
ATOM     19  C   UNL     1       1.733   1.335   0.442  1.00  0.00     0.238 C 
ATOM     20  C   UNL     1       1.979   1.304  -0.831  1.00  0.00     0.076 C 
ATOM     21  C   UNL     1       3.395   1.362  -1.329  1.00  0.00     0.033 C 
ATOM     22  C   UNL     1       0.995   1.214  -1.891  1.00  0.00     0.191 C 
ATOM     23  C   UNL     1       3.709   1.334  -2.604  1.00  0.00     0.019 C 
ATOM     24  C   UNL     1       1.430   1.188  -3.312  1.00  0.00     0.054 C 
ATOM     25  O   UNL     1      -0.218   1.159  -1.631  1.00  0.00    -0.289 OA
ATOM     26  C   UNL     1       2.703   1.244  -3.650  1.00  0.00     0.020 C 
ATOM     27  Br  UNL     1       5.549   1.413  -3.121  1.00  0.00    -0.051 Br
ENDBRANCH  16  19
ENDBRANCH   5  16
TORSDOF 4
