REMARK SMILES Cc1ccc(NC=C2C=C(Br)C=CC2=O)c(C(=O)c2ccccc2)c1
REMARK SMILES IDX 1 1 2 2 3 3 4 4 5 5 16 6 25 7 17 8 18 9 19 10 20 11 24 12
REMARK SMILES IDX 21 13 23 14 22 15 6 16 7 18 8 19 9 20 14 21 10 22 13 23
REMARK SMILES IDX 15 24 12 25 11 26
REMARK H PARENT 6 17
ROOT
ATOM      1  C   UNL     1      -3.944   0.860   3.241  1.00  0.00     0.044 C 
ATOM      2  C   UNL     1      -2.583   0.638   2.687  1.00  0.00    -0.050 A 
ATOM      3  C   UNL     1      -1.491   1.251   3.252  1.00  0.00     0.005 A 
ATOM      4  C   UNL     1      -0.217   1.057   2.754  1.00  0.00     0.027 A 
ATOM      5  C   UNL     1      -0.067   0.220   1.660  1.00  0.00     0.049 A 
ATOM      6  C   UNL     1      -1.162  -0.399   1.087  1.00  0.00     0.046 A 
ATOM      7  C   UNL     1      -2.438  -0.200   1.593  1.00  0.00     0.017 A 
ENDROOT
BRANCH   6   8
ATOM      8  C   UNL     1      -0.904  -1.292  -0.010  1.00  0.00     0.195 C 
ATOM      9  O   UNL     1       0.267  -1.638  -0.287  1.00  0.00    -0.289 OA
BRANCH   8  10
ATOM     10  C   UNL     1      -1.951  -1.839  -0.842  1.00  0.00     0.023 A 
ATOM     11  C   UNL     1      -1.811  -3.161  -1.300  1.00  0.00     0.012 A 
ATOM     12  C   UNL     1      -3.063  -1.144  -1.244  1.00  0.00     0.012 A 
ATOM     13  C   UNL     1      -2.787  -3.680  -2.115  1.00  0.00     0.001 A 
ATOM     14  C   UNL     1      -4.044  -1.692  -2.073  1.00  0.00     0.001 A 
ATOM     15  C   UNL     1      -3.902  -2.980  -2.514  1.00  0.00     0.000 A 
ENDBRANCH   8  10
ENDBRANCH   6   8
BRANCH   5  16
ATOM     16  N   UNL     1       1.245  -0.021   1.165  1.00  0.00    -0.360 N 
ATOM     17  H   UNL     1       1.703  -0.946   1.446  1.00  0.00     0.166 HD
BRANCH  16  18
ATOM     18  C   UNL     1       1.988   0.840   0.353  1.00  0.00     0.095 C 
ATOM     19  C   UNL     1       2.996   0.406  -0.378  1.00  0.00     0.039 C 
ATOM     20  C   UNL     1       3.466  -0.967  -0.452  1.00  0.00     0.029 C 
ATOM     21  C   UNL     1       3.780   1.366  -1.207  1.00  0.00     0.187 C 
ATOM     22  C   UNL     1       4.502  -1.368  -1.187  1.00  0.00     0.018 C 
ATOM     23  C   UNL     1       4.883   0.899  -1.981  1.00  0.00     0.054 C 
ATOM     24  O   UNL     1       3.405   2.572  -1.172  1.00  0.00    -0.289 OA
ATOM     25  C   UNL     1       5.237  -0.388  -1.981  1.00  0.00     0.020 C 
ATOM     26  Br  UNL     1       5.034  -3.201  -1.210  1.00  0.00    -0.051 Br
ENDBRANCH  16  18
ENDBRANCH   5  16
TORSDOF 4
