REMARK SMILES COC(=O)[C@@H](N)CSC/C=C(\C)CC/C=C(\C)CCC=C(C)C
REMARK SMILES IDX 10 1 11 2 12 3 9 4 8 5 7 6 5 7 3 8 4 9 2 10 1 11 6 12 13 15
REMARK SMILES IDX 14 16 15 17 16 18 17 19 18 20 19 21 20 22 21 23 22 24 23 25
REMARK H PARENT 6 13 6 14
ROOT
ATOM      1  C   UNL     1       0.150  -1.762   1.437  1.00  0.00    -0.017 C 
ATOM      2  C   UNL     1       0.814  -2.165   0.358  1.00  0.00    -0.076 C 
ATOM      3  C   UNL     1       2.017  -1.403  -0.054  1.00  0.00     0.039 C 
ENDROOT
BRANCH   1   4
ATOM      4  C   UNL     1       0.612  -0.576   2.198  1.00  0.00     0.096 C 
BRANCH   4   5
ATOM      5  S   UNL     1      -0.806   0.597   2.148  1.00  0.00    -0.156 SA
BRANCH   5   6
ATOM      6  C   UNL     1      -2.145  -0.143   3.080  1.00  0.00     0.100 C 
BRANCH   6   7
ATOM      7  C   UNL     1      -1.891  -0.285   4.546  1.00  0.00     0.172 C 
BRANCH   7   8
ATOM      8  C   UNL     1      -3.088  -0.907   5.158  1.00  0.00     0.323 C 
ATOM      9  O   UNL     1      -2.958  -1.941   5.873  1.00  0.00    -0.250 OA
BRANCH   8  10
ATOM     10  O   UNL     1      -4.370  -0.405   4.984  1.00  0.00    -0.468 OA
ATOM     11  C   UNL     1      -5.461  -1.067   5.609  1.00  0.00     0.282 C 
ENDBRANCH   8  10
ENDBRANCH   7   8
BRANCH   7  12
ATOM     12  N   UNL     1      -0.734  -1.027   4.903  1.00  0.00    -0.318 NA
ATOM     13  H   UNL     1      -0.234  -0.721   5.745  1.00  0.00     0.119 HD
ATOM     14  H   UNL     1      -0.776  -2.040   4.747  1.00  0.00     0.119 HD
ENDBRANCH   7  12
ENDBRANCH   6   7
ENDBRANCH   5   6
ENDBRANCH   4   5
ENDBRANCH   1   4
BRANCH   2  15
ATOM     15  C   UNL     1       0.320  -3.347  -0.355  1.00  0.00     0.034 C 
BRANCH  15  16
ATOM     16  C   UNL     1      -0.096  -3.136  -1.773  1.00  0.00     0.032 C 
BRANCH  16  17
ATOM     17  C   UNL     1       1.041  -2.657  -2.584  1.00  0.00    -0.028 C 
ATOM     18  C   UNL     1       1.017  -1.518  -3.277  1.00  0.00    -0.077 C 
ATOM     19  C   UNL     1      -0.220  -0.687  -3.233  1.00  0.00     0.039 C 
BRANCH  18  20
ATOM     20  C   UNL     1       2.223  -1.148  -4.052  1.00  0.00     0.034 C 
BRANCH  20  21
ATOM     21  C   UNL     1       2.829   0.174  -3.658  1.00  0.00     0.032 C 
BRANCH  21  22
ATOM     22  C   UNL     1       1.898   1.289  -3.894  1.00  0.00    -0.028 C 
ATOM     23  C   UNL     1       1.446   2.167  -3.038  1.00  0.00    -0.080 C 
ATOM     24  C   UNL     1       1.815   2.190  -1.608  1.00  0.00     0.039 C 
ATOM     25  C   UNL     1       0.483   3.246  -3.489  1.00  0.00     0.039 C 
ENDBRANCH  21  22
ENDBRANCH  20  21
ENDBRANCH  18  20
ENDBRANCH  16  17
ENDBRANCH  15  16
ENDBRANCH   2  15
TORSDOF 13
