REMARK SMILES O=[N+]([O-])[O-]
REMARK SMILES IDX 1 1 2 2 3 3 4 4
REMARK H PARENT
ROOT
ATOM      1  O   UNL     1      -1.910   0.248   0.338  1.00  0.00    -0.356 OA
ATOM      2  N   UNL     1      -2.122  -0.550   1.255  1.00  0.00     0.069 N 
ATOM      3  O   UNL     1      -2.546  -0.137   2.475  1.00  0.00    -0.356 OA
ATOM      4  O   UNL     1      -1.914  -1.885   1.006  1.00  0.00    -0.356 OA
ENDROOT
TORSDOF 0
