REMARK SMILES Cc1cc2c(cc1C)OC(=C1C=C([NH3+])C=CC1=O)N2
REMARK SMILES IDX 1 1 2 2 3 3 4 4 5 5 6 6 7 7 8 8 9 9 10 10 11 11 12 12 13 13
REMARK SMILES IDX 15 14 16 15 17 16 18 17 19 18 14 20
REMARK H PARENT 19 19 14 21 14 22 14 23
ROOT
ATOM      1  C   UNL     1      -2.175   2.355   3.772  1.00  0.00     0.044 C 
ATOM      2  C   UNL     1      -1.504   1.781   2.559  1.00  0.00    -0.046 A 
ATOM      3  C   UNL     1      -1.426   0.428   2.343  1.00  0.00     0.033 A 
ATOM      4  C   UNL     1      -0.815  -0.119   1.236  1.00  0.00     0.085 A 
ATOM      5  C   UNL     1      -0.261   0.742   0.314  1.00  0.00     0.153 A 
ATOM      6  C   UNL     1      -0.332   2.122   0.520  1.00  0.00     0.053 A 
ATOM      7  C   UNL     1      -0.950   2.630   1.634  1.00  0.00    -0.044 A 
ATOM      8  C   UNL     1      -1.032   4.097   1.865  1.00  0.00     0.045 C 
ATOM      9  O   UNL     1       0.294  -0.015  -0.706  1.00  0.00    -0.438 OA
ATOM     10  C   UNL     1       0.112  -1.380  -0.467  1.00  0.00     0.209 C 
ATOM     11  C   UNL     1       0.523  -2.365  -1.248  1.00  0.00     0.088 C 
ATOM     12  C   UNL     1       1.241  -2.044  -2.490  1.00  0.00     0.085 C 
ATOM     13  C   UNL     1       1.678  -2.981  -3.313  1.00  0.00     0.129 C 
ATOM     14  C   UNL     1       1.473  -4.397  -3.036  1.00  0.00     0.072 C 
ATOM     15  C   UNL     1       0.836  -4.758  -1.937  1.00  0.00     0.059 C 
ATOM     16  C   UNL     1       0.317  -3.772  -0.966  1.00  0.00     0.191 C 
ATOM     17  O   UNL     1      -0.276  -4.136   0.054  1.00  0.00    -0.289 OA
ATOM     18  N   UNL     1      -0.587  -1.460   0.757  1.00  0.00    -0.322 N 
ATOM     19  H   UNL     1      -0.906  -2.298   1.269  1.00  0.00     0.170 HD
ENDROOT
BRANCH  13  20
ATOM     20  N   UNL     1       2.362  -2.574  -4.492  1.00  0.00    -0.325 N 
ATOM     21  H   UNL     1       2.326  -3.301  -5.239  1.00  0.00     0.350 HD
ATOM     22  H   UNL     1       1.940  -1.670  -4.797  1.00  0.00     0.350 HD
ATOM     23  H   UNL     1       3.353  -2.360  -4.193  1.00  0.00     0.350 HD
ENDBRANCH  13  20
TORSDOF 1
