REMARK SMILES CC1CC(C)(C)[NH+](C(=O)Nc2ccc(Cl)c(Cl)c2)c2ccccc21
REMARK SMILES IDX 8 1 9 2 10 3 7 5 2 6 3 7 24 8 4 9 23 10 19 11 22 12 20 13
REMARK SMILES IDX 21 14 1 15 5 16 6 17 11 19 12 20 18 21 13 22 16 23 14 24
REMARK SMILES IDX 17 25 15 26
REMARK H PARENT 10 4 7 18
ROOT
ATOM      1  C   UNL     1       1.020  -0.488  -0.058  1.00  0.00     0.424 C 
ATOM      2  O   UNL     1      -0.078  -0.250  -0.537  1.00  0.00    -0.207 OA
ATOM      3  N   UNL     1       2.103  -0.176  -0.870  1.00  0.00    -0.275 N 
ATOM      4  H   UNL     1       3.015  -0.369  -0.471  1.00  0.00     0.175 HD
ENDROOT
BRANCH   1   5
ATOM      5  N   UNL     1       0.502  -0.947   1.057  1.00  0.00    -0.215 N 
ATOM      6  C   UNL     1      -2.471  -0.398   0.816  1.00  0.00     0.028 C 
ATOM      7  C   UNL     1      -1.441   0.630   1.235  1.00  0.00     0.077 C 
ATOM      8  C   UNL     1      -1.851  -1.734   0.808  1.00  0.00     0.017 A 
ATOM      9  C   UNL     1      -0.249   0.055   1.878  1.00  0.00     0.106 C 
ATOM     10  C   UNL     1      -2.756  -2.800   0.672  1.00  0.00     0.010 A 
ATOM     11  C   UNL     1      -0.521  -2.016   0.921  1.00  0.00     0.144 A 
ATOM     12  C   UNL     1      -2.351  -4.102   0.648  1.00  0.00     0.001 A 
ATOM     13  C   UNL     1      -0.135  -3.343   0.894  1.00  0.00     0.069 A 
ATOM     14  C   UNL     1      -1.008  -4.392   0.762  1.00  0.00     0.006 A 
ATOM     15  C   UNL     1      -3.733  -0.355   1.645  1.00  0.00     0.013 C 
ATOM     16  C   UNL     1       0.686   1.151   2.280  1.00  0.00     0.080 C 
ATOM     17  C   UNL     1      -0.741  -0.628   3.164  1.00  0.00     0.080 C 
ATOM     18  H   UNL     1       0.928  -1.364   1.792  1.00  0.00     0.365 HD
ENDBRANCH   1   5
BRANCH   3  19
ATOM     19  C   UNL     1       1.997   0.387  -2.193  1.00  0.00     0.048 A 
ATOM     20  C   UNL     1       1.973   1.744  -2.419  1.00  0.00     0.028 A 
ATOM     21  C   UNL     1       1.914  -0.455  -3.277  1.00  0.00     0.048 A 
ATOM     22  C   UNL     1       1.869   2.250  -3.720  1.00  0.00     0.024 A 
ATOM     23  C   UNL     1       1.810   0.049  -4.579  1.00  0.00     0.061 A 
ATOM     24  C   UNL     1       1.786   1.408  -4.808  1.00  0.00     0.059 A 
ATOM     25  Cl  UNL     1       1.707  -1.041  -5.937  1.00  0.00    -0.083 Cl
ATOM     26  Cl  UNL     1       1.655   2.054  -6.440  1.00  0.00    -0.083 Cl
ENDBRANCH   3  19
TORSDOF 2
