REMARK SMILES O=c1cc(Nc2ccc(C3CCCCC3)cc2)[nH]c(=O)[nH]1
REMARK SMILES IDX 5 1 4 3 1 4 2 5 3 6 21 7 19 8 18 9 20 10 6 13 7 14 17 15
REMARK SMILES IDX 8 16 16 17 9 18 10 19 11 20 15 21 12 22 14 23 13 24
REMARK H PARENT 5 2 21 11 18 12
ROOT
ATOM      1  N   UNL     1      -0.682   0.088   2.944  1.00  0.00    -0.342 N 
ATOM      2  H   UNL     1      -0.021  -0.288   3.675  1.00  0.00     0.168 HD
ENDROOT
BRANCH   1   3
ATOM      3  C   UNL     1      -1.794   0.864   3.331  1.00  0.00     0.117 A 
ATOM      4  O   UNL     1      -2.615   4.282   3.895  1.00  0.00    -0.269 OA
ATOM      5  C   UNL     1      -2.745   3.033   3.810  1.00  0.00     0.255 A 
ATOM      6  C   UNL     1      -1.663   2.229   3.428  1.00  0.00     0.116 A 
ATOM      7  N   UNL     1      -3.928   2.454   4.085  1.00  0.00    -0.274 N 
ATOM      8  C   UNL     1      -4.039   1.122   3.986  1.00  0.00     0.327 A 
ATOM      9  N   UNL     1      -2.997   0.344   3.618  1.00  0.00    -0.293 N 
ATOM     10  O   UNL     1      -5.143   0.590   4.243  1.00  0.00    -0.248 OA
ATOM     11  H   UNL     1      -4.752   3.063   4.375  1.00  0.00     0.175 HD
ATOM     12  H   UNL     1      -3.102  -0.705   3.545  1.00  0.00     0.173 HD
ENDBRANCH   1   3
BRANCH   1  13
ATOM     13  C   UNL     1      -0.475  -0.173   1.564  1.00  0.00     0.039 A 
ATOM     14  C   UNL     1       0.611  -0.932   1.189  1.00  0.00     0.026 A 
ATOM     15  C   UNL     1      -1.285   0.278   0.552  1.00  0.00     0.026 A 
ATOM     16  C   UNL     1       0.876  -1.226  -0.127  1.00  0.00     0.006 A 
ATOM     17  C   UNL     1      -1.038  -0.005  -0.782  1.00  0.00     0.006 A 
ATOM     18  C   UNL     1       0.056  -0.767  -1.132  1.00  0.00    -0.045 A 
BRANCH  18  19
ATOM     19  C   UNL     1       0.376  -1.109  -2.549  1.00  0.00     0.019 C 
ATOM     20  C   UNL     1       1.679  -0.516  -2.935  1.00  0.00     0.008 C 
ATOM     21  C   UNL     1       0.196  -2.559  -2.857  1.00  0.00     0.008 C 
ATOM     22  C   UNL     1       2.642  -1.464  -3.579  1.00  0.00     0.001 C 
ATOM     23  C   UNL     1       1.375  -3.430  -2.661  1.00  0.00     0.001 C 
ATOM     24  C   UNL     1       2.703  -2.814  -2.931  1.00  0.00     0.000 C 
ENDBRANCH  18  19
ENDBRANCH   1  13
TORSDOF 3
