REMARK SMILES O=c1cc(Nc2ccc(C3CCCCC3)cc2)[nH]c(=O)[n-]1
REMARK SMILES IDX 5 1 4 3 1 4 2 5 3 6 21 7 19 8 18 9 20 10 6 12 7 13 17 14
REMARK SMILES IDX 8 15 16 16 9 17 10 18 11 19 15 20 12 21 14 22 13 23
REMARK H PARENT 5 2 18 11
ROOT
ATOM      1  N   UNL     1      -0.364   1.629   2.410  1.00  0.00    -0.359 N 
ATOM      2  H   UNL     1       0.286   2.397   2.677  1.00  0.00     0.166 HD
ENDROOT
BRANCH   1   3
ATOM      3  C   UNL     1      -1.370   1.104   3.231  1.00  0.00     0.029 A 
ATOM      4  O   UNL     1      -4.679   1.773   4.368  1.00  0.00    -0.294 OA
ATOM      5  C   UNL     1      -3.576   1.217   4.205  1.00  0.00     0.175 A 
ATOM      6  C   UNL     1      -2.574   1.743   3.387  1.00  0.00     0.069 A 
ATOM      7  N   UNL     1      -3.326   0.064   4.834  1.00  0.00    -0.365 NA
ATOM      8  C   UNL     1      -2.155  -0.568   4.688  1.00  0.00     0.163 A 
ATOM      9  N   UNL     1      -1.192  -0.050   3.895  1.00  0.00    -0.411 N 
ATOM     10  O   UNL     1      -1.983  -1.649   5.309  1.00  0.00    -0.298 OA
ATOM     11  H   UNL     1      -0.297  -0.572   3.807  1.00  0.00     0.030 HD
ENDBRANCH   1   3
BRANCH   1  12
ATOM     12  C   UNL     1      -0.196   1.088   1.112  1.00  0.00     0.038 A 
ATOM     13  C   UNL     1       0.662   0.007   0.924  1.00  0.00     0.026 A 
ATOM     14  C   UNL     1      -0.823   1.551  -0.018  1.00  0.00     0.026 A 
ATOM     15  C   UNL     1       0.874  -0.565  -0.302  1.00  0.00     0.006 A 
ATOM     16  C   UNL     1      -0.638   1.005  -1.266  1.00  0.00     0.006 A 
ATOM     17  C   UNL     1       0.231  -0.078  -1.412  1.00  0.00    -0.045 A 
BRANCH  17  18
ATOM     18  C   UNL     1       0.444  -0.715  -2.743  1.00  0.00     0.019 C 
ATOM     19  C   UNL     1       1.874  -1.030  -2.975  1.00  0.00     0.008 C 
ATOM     20  C   UNL     1      -0.486  -1.886  -2.873  1.00  0.00     0.008 C 
ATOM     21  C   UNL     1       2.148  -2.478  -3.283  1.00  0.00     0.001 C 
ATOM     22  C   UNL     1      -0.024  -3.121  -2.170  1.00  0.00     0.001 C 
ATOM     23  C   UNL     1       1.413  -3.456  -2.408  1.00  0.00     0.000 C 
ENDBRANCH  17  18
ENDBRANCH   1  12
TORSDOF 3
