REMARK SMILES CCOC(=O)c1c(CSc2ccc(Cl)cc2)n(C)c2cc(Br)c([O-])c(CN(C)C)c12
REMARK SMILES IDX 6 1 7 2 17 3 18 4 19 5 20 6 21 7 22 8 23 9 24 10 25 11 30 12
REMARK SMILES IDX 4 13 5 14 3 15 2 16 1 17 8 18 9 19 10 20 11 21 16 22 12 23
REMARK SMILES IDX 15 24 13 25 14 26 26 27 27 28 28 29 29 30
REMARK H PARENT
ROOT
ATOM      1  C   UNL     1      -0.790  -1.236   0.317  1.00  0.00     0.090 A 
ATOM      2  C   UNL     1      -1.219  -2.149  -0.610  1.00  0.00     0.043 A 
ATOM      3  N   UNL     1      -2.142  -1.524  -1.370  1.00  0.00    -0.346 N 
ATOM      4  C   UNL     1      -2.822  -2.158  -2.487  1.00  0.00     0.150 C 
ATOM      5  C   UNL     1      -2.308  -0.259  -0.959  1.00  0.00     0.050 A 
ATOM      6  C   UNL     1      -3.141   0.772  -1.414  1.00  0.00     0.042 A 
ATOM      7  C   UNL     1      -3.102   1.988  -0.784  1.00  0.00     0.012 A 
ATOM      8  Br  UNL     1      -4.238   3.406  -1.426  1.00  0.00    -0.051 Br
ATOM      9  C   UNL     1      -2.257   2.189   0.278  1.00  0.00    -0.089 A 
ATOM     10  O   UNL     1      -2.224   3.422   0.911  1.00  0.00    -0.871 OA
ATOM     11  C   UNL     1      -1.404   1.174   0.764  1.00  0.00    -0.030 A 
ATOM     12  C   UNL     1      -1.473  -0.030   0.106  1.00  0.00     0.018 A 
ENDROOT
BRANCH   1  13
ATOM     13  C   UNL     1       0.137  -1.423   1.409  1.00  0.00     0.340 C 
ATOM     14  O   UNL     1       1.346  -1.236   1.405  1.00  0.00    -0.246 OA
BRANCH  13  15
ATOM     15  O   UNL     1      -0.443  -1.884   2.622  1.00  0.00    -0.462 OA
BRANCH  15  16
ATOM     16  C   UNL     1       0.453  -2.066   3.712  1.00  0.00     0.230 C 
ATOM     17  C   UNL     1      -0.355  -2.591   4.885  1.00  0.00     0.049 C 
ENDBRANCH  15  16
ENDBRANCH  13  15
ENDBRANCH   1  13
BRANCH   2  18
ATOM     18  C   UNL     1      -0.718  -3.535  -0.853  1.00  0.00     0.129 C 
BRANCH  18  19
ATOM     19  S   UNL     1      -0.055  -3.713  -2.495  1.00  0.00    -0.120 SA
BRANCH  19  20
ATOM     20  C   UNL     1       1.382  -2.834  -2.878  1.00  0.00     0.008 A 
ATOM     21  C   UNL     1       1.866  -2.868  -4.200  1.00  0.00     0.016 A 
ATOM     22  C   UNL     1       2.123  -2.089  -1.985  1.00  0.00     0.016 A 
ATOM     23  C   UNL     1       3.007  -2.192  -4.548  1.00  0.00     0.021 A 
ATOM     24  C   UNL     1       3.259  -1.415  -2.329  1.00  0.00     0.021 A 
ATOM     25  C   UNL     1       3.742  -1.444  -3.629  1.00  0.00     0.041 A 
ATOM     26  Cl  UNL     1       5.195  -0.592  -4.109  1.00  0.00    -0.084 Cl
ENDBRANCH  19  20
ENDBRANCH  18  19
ENDBRANCH   2  18
BRANCH  11  27
ATOM     27  C   UNL     1      -0.518   1.521   1.886  1.00  0.00     0.119 C 
BRANCH  27  28
ATOM     28  N   UNL     1       0.564   2.365   1.493  1.00  0.00    -0.305 NA
ATOM     29  C   UNL     1       1.471   1.814   0.543  1.00  0.00     0.105 C 
ATOM     30  C   UNL     1       1.277   3.008   2.564  1.00  0.00     0.105 C 
ENDBRANCH  27  28
ENDBRANCH  11  27
TORSDOF 8
