REMARK SMILES CCOC(=O)c1c(CSc2ccc(Cl)cc2)n(C)c2cc(Br)c([O-])c(C[NH+](C)C)c12
REMARK SMILES IDX 6 1 7 2 17 3 18 4 19 5 20 6 21 7 22 8 23 9 24 10 25 11 30 12
REMARK SMILES IDX 4 13 5 14 3 15 2 16 1 17 8 18 9 19 10 20 11 21 16 22 12 23
REMARK SMILES IDX 15 24 13 25 14 26 26 27 27 28 28 29 29 30
REMARK H PARENT 27 31
ROOT
ATOM      1  C   UNL     1      -0.722  -1.395   0.033  1.00  0.00     0.090 A 
ATOM      2  C   UNL     1      -2.104  -1.646   0.092  1.00  0.00     0.043 A 
ATOM      3  N   UNL     1      -2.494  -2.300  -0.987  1.00  0.00    -0.346 N 
ATOM      4  C   UNL     1      -3.873  -2.742  -1.281  1.00  0.00     0.150 C 
ATOM      5  C   UNL     1      -1.413  -2.485  -1.759  1.00  0.00     0.050 A 
ATOM      6  C   UNL     1      -1.324  -3.119  -2.986  1.00  0.00     0.042 A 
ATOM      7  C   UNL     1      -0.118  -3.207  -3.621  1.00  0.00     0.012 A 
ATOM      8  Br  UNL     1       0.028  -4.075  -5.312  1.00  0.00    -0.051 Br
ATOM      9  C   UNL     1       1.026  -2.661  -3.038  1.00  0.00    -0.085 A 
ATOM     10  O   UNL     1       2.239  -2.744  -3.668  1.00  0.00    -0.871 OA
ATOM     11  C   UNL     1       0.939  -2.030  -1.815  1.00  0.00     0.010 A 
ATOM     12  C   UNL     1      -0.290  -1.940  -1.168  1.00  0.00     0.023 A 
ENDROOT
BRANCH   1  13
ATOM     13  C   UNL     1       0.037  -0.783   1.098  1.00  0.00     0.340 C 
ATOM     14  O   UNL     1       1.200  -0.463   1.140  1.00  0.00    -0.246 OA
BRANCH  13  15
ATOM     15  O   UNL     1      -0.628  -0.491   2.326  1.00  0.00    -0.462 OA
BRANCH  15  16
ATOM     16  C   UNL     1       0.102   0.106   3.403  1.00  0.00     0.230 C 
ATOM     17  C   UNL     1      -0.781   0.297   4.594  1.00  0.00     0.049 C 
ENDBRANCH  15  16
ENDBRANCH  13  15
ENDBRANCH   1  13
BRANCH   2  18
ATOM     18  C   UNL     1      -3.030  -1.177   1.155  1.00  0.00     0.129 C 
BRANCH  18  19
ATOM     19  S   UNL     1      -3.538   0.517   0.808  1.00  0.00    -0.120 SA
BRANCH  19  20
ATOM     20  C   UNL     1      -2.269   1.723   0.863  1.00  0.00     0.008 A 
ATOM     21  C   UNL     1      -1.477   2.035  -0.247  1.00  0.00     0.016 A 
ATOM     22  C   UNL     1      -1.988   2.434   2.010  1.00  0.00     0.016 A 
ATOM     23  C   UNL     1      -0.486   2.984  -0.204  1.00  0.00     0.021 A 
ATOM     24  C   UNL     1      -0.994   3.393   2.069  1.00  0.00     0.021 A 
ATOM     25  C   UNL     1      -0.235   3.676   0.964  1.00  0.00     0.041 A 
ATOM     26  Cl  UNL     1       1.043   4.886   0.985  1.00  0.00    -0.084 Cl
ENDBRANCH  19  20
ENDBRANCH  18  19
ENDBRANCH   2  18
BRANCH  11  27
ATOM     27  C   UNL     1       2.108  -1.453  -1.201  1.00  0.00     0.298 C 
BRANCH  27  28
ATOM     28  N   UNL     1       3.375  -1.527  -1.901  1.00  0.00    -0.336 N 
ATOM     29  C   UNL     1       4.038  -2.776  -1.669  1.00  0.00     0.332 C 
ATOM     30  C   UNL     1       4.208  -0.545  -1.123  1.00  0.00     0.332 C 
ATOM     31  H   UNL     1       3.408  -1.117  -2.826  1.00  0.00     0.347 HD
ENDBRANCH  27  28
ENDBRANCH  11  27
TORSDOF 8
