REMARK SMILES COC(=O)C1=C(C)[NH2+]C(C)=C(C(=O)OCCCN2CCC(c3ccccc3)(c3ccccc3)CC2)C1c1cccc([N+](=O)[O-])c1
REMARK SMILES IDX 14 1 12 2 13 3 11 4 5 5 6 6 36 7 8 8 9 9 7 10 10 13 3 14
REMARK SMILES IDX 4 15 2 16 1 17 37 18 38 19 45 20 39 21 41 22 40 23 42 24
REMARK SMILES IDX 43 25 44 26 15 27 16 28 17 29 18 30 19 31 35 32 20 33 34 34
REMARK SMILES IDX 21 35 22 36 23 37 27 38 24 39 26 40 25 41 28 42 29 43 33 44
REMARK SMILES IDX 30 45 32 46 31 47
REMARK H PARENT 8 11 8 12
ROOT
ATOM      1  O   UNL     1      -0.181  -1.711   0.131  1.00  0.00    -0.462 OA
ENDROOT
BRANCH   1   2
ATOM      2  C   UNL     1       1.133  -1.315   0.245  1.00  0.00     0.340 C 
ATOM      3  O   UNL     1       1.367  -0.166  -0.253  1.00  0.00    -0.246 OA
BRANCH   2   4
ATOM      4  C   UNL     1       2.211  -2.025   0.824  1.00  0.00     0.106 C 
ATOM      5  C   UNL     1       3.116  -4.139   0.762  1.00  0.00     0.106 C 
ATOM      6  C   UNL     1       4.375  -3.614   0.768  1.00  0.00     0.119 C 
ATOM      7  C   UNL     1       2.200  -3.326   1.562  1.00  0.00     0.106 C 
ATOM      8  N   UNL     1       4.544  -2.283   1.372  1.00  0.00    -0.288 N 
ATOM      9  C   UNL     1       3.465  -1.509   0.778  1.00  0.00     0.119 C 
ATOM     10  C   UNL     1       5.481  -4.269   0.071  1.00  0.00     0.112 C 
ATOM     11  H   UNL     1       5.456  -1.925   1.000  1.00  0.00     0.357 HD
ATOM     12  H   UNL     1       4.489  -2.364   2.361  1.00  0.00     0.357 HD
ATOM     13  C   UNL     1       3.784  -0.214   0.152  1.00  0.00     0.112 C 
BRANCH   5  14
ATOM     14  C   UNL     1       2.892  -5.350   0.038  1.00  0.00     0.340 C 
ATOM     15  O   UNL     1       3.858  -5.977  -0.533  1.00  0.00    -0.246 OA
BRANCH  14  16
ATOM     16  O   UNL     1       1.625  -5.942  -0.123  1.00  0.00    -0.465 OA
ATOM     17  C   UNL     1       1.473  -7.135  -0.864  1.00  0.00     0.282 C 
ENDBRANCH  14  16
ENDBRANCH   5  14
BRANCH   7  18
ATOM     18  C   UNL     1       1.017  -3.779   2.180  1.00  0.00    -0.028 A 
ATOM     19  C   UNL     1       0.102  -2.818   2.617  1.00  0.00     0.005 A 
ATOM     20  C   UNL     1       0.694  -5.080   2.427  1.00  0.00     0.090 A 
ATOM     21  C   UNL     1      -1.055  -3.193   3.251  1.00  0.00     0.007 A 
ATOM     22  C   UNL     1      -0.488  -5.477   3.076  1.00  0.00     0.269 A 
ATOM     23  C   UNL     1      -1.372  -4.513   3.491  1.00  0.00     0.085 A 
BRANCH  22  24
ATOM     24  N   UNL     1      -0.792  -6.839   3.316  1.00  0.00     0.062 N 
ATOM     25  O   UNL     1      -0.048  -7.777   2.976  1.00  0.00    -0.258 OA
ATOM     26  O   UNL     1      -1.961  -7.155   3.955  1.00  0.00    -0.258 OA
ENDBRANCH  22  24
ENDBRANCH   7  18
ENDBRANCH   2   4
ENDBRANCH   1   2
BRANCH   1  27
ATOM     27  C   UNL     1      -1.208  -0.951  -0.480  1.00  0.00     0.234 C 
BRANCH  27  28
ATOM     28  C   UNL     1      -0.945  -0.656  -1.909  1.00  0.00     0.057 C 
BRANCH  28  29
ATOM     29  C   UNL     1      -2.016   0.104  -2.642  1.00  0.00     0.088 C 
BRANCH  29  30
ATOM     30  N   UNL     1      -2.394   1.354  -2.162  1.00  0.00    -0.303 NA
ATOM     31  C   UNL     1      -3.133   1.509  -0.986  1.00  0.00     0.086 C 
ATOM     32  C   UNL     1      -2.486   2.463  -3.026  1.00  0.00     0.086 C 
ATOM     33  C   UNL     1      -2.523   2.603  -0.130  1.00  0.00     0.032 C 
ATOM     34  C   UNL     1      -3.009   3.691  -2.300  1.00  0.00     0.032 C 
ATOM     35  C   UNL     1      -2.287   3.805  -0.978  1.00  0.00     0.023 C 
BRANCH  35  36
ATOM     36  C   UNL     1      -0.869   4.097  -1.256  1.00  0.00    -0.037 A 
ATOM     37  C   UNL     1      -0.610   5.330  -1.861  1.00  0.00     0.004 A 
ATOM     38  C   UNL     1       0.197   3.300  -0.990  1.00  0.00     0.004 A 
ATOM     39  C   UNL     1       0.671   5.728  -2.178  1.00  0.00     0.000 A 
ATOM     40  C   UNL     1       1.483   3.681  -1.300  1.00  0.00     0.000 A 
ATOM     41  C   UNL     1       1.753   4.910  -1.904  1.00  0.00     0.000 A 
ENDBRANCH  35  36
BRANCH  35  42
ATOM     42  C   UNL     1      -2.782   5.001  -0.205  1.00  0.00    -0.037 A 
ATOM     43  C   UNL     1      -2.199   5.203   1.033  1.00  0.00     0.004 A 
ATOM     44  C   UNL     1      -3.743   5.853  -0.662  1.00  0.00     0.004 A 
ATOM     45  C   UNL     1      -2.545   6.253   1.859  1.00  0.00     0.000 A 
ATOM     46  C   UNL     1      -4.113   6.914   0.140  1.00  0.00     0.000 A 
ATOM     47  C   UNL     1      -3.526   7.112   1.377  1.00  0.00     0.000 A 
ENDBRANCH  35  42
ENDBRANCH  29  30
ENDBRANCH  28  29
ENDBRANCH  27  28
ENDBRANCH   1  27
TORSDOF 12
