REMARK SMILES C[C@@H]1CC[C@H]2C(C)(C)C3CC12CC[C@@]3(C)O
REMARK SMILES IDX 1 1 2 2 3 3 4 4 5 5 6 6 7 7 8 8 9 9 10 10 11 11 12 12 13 13
REMARK SMILES IDX 14 14 15 15 16 16
REMARK H PARENT 16 17
ROOT
ATOM      1  C   UNL     1      -2.440  -2.981   1.182  1.00  0.00     0.008 C 
ATOM      2  C   UNL     1      -2.134  -2.155  -0.012  1.00  0.00    -0.008 C 
ATOM      3  C   UNL     1      -1.488  -2.961  -1.144  1.00  0.00     0.004 C 
ATOM      4  C   UNL     1      -0.074  -2.376  -1.321  1.00  0.00     0.005 C 
ATOM      5  C   UNL     1       0.120  -1.719  -0.065  1.00  0.00     0.001 C 
ATOM      6  C   UNL     1       1.073  -0.663   0.204  1.00  0.00    -0.026 C 
ATOM      7  C   UNL     1       1.712  -0.042  -0.973  1.00  0.00     0.012 C 
ATOM      8  C   UNL     1       2.220  -1.290   1.033  1.00  0.00     0.012 C 
ATOM      9  C   UNL     1       0.373   0.243   1.169  1.00  0.00     0.027 C 
ATOM     10  C   UNL     1      -0.916  -0.545   1.537  1.00  0.00     0.014 C 
ATOM     11  C   UNL     1      -1.235  -1.017   0.157  1.00  0.00    -0.023 C 
ATOM     12  C   UNL     1      -1.520   0.043  -0.826  1.00  0.00     0.010 C 
ATOM     13  C   UNL     1      -0.940   1.380  -0.607  1.00  0.00     0.036 C 
ATOM     14  C   UNL     1      -0.150   1.539   0.671  1.00  0.00     0.065 C 
ATOM     15  C   UNL     1       0.845   2.657   0.623  1.00  0.00     0.042 C 
ENDROOT
BRANCH  14  16
ATOM     16  O   UNL     1      -1.118   1.928   1.642  1.00  0.00    -0.390 OA
ATOM     17  H   UNL     1      -1.141   2.911   1.731  1.00  0.00     0.211 HD
ENDBRANCH  14  16
TORSDOF 1
