REMARK SMILES O=C1C=C2C=C[C@@H]3C[C@@]2(O1)[C@H]1CCCC[NH+]31
REMARK SMILES IDX 1 1 2 2 3 3 4 4 5 5 6 6 7 7 8 8 9 9 10 10 11 11 12 12 13 13
REMARK SMILES IDX 14 14 15 15 16 16
REMARK H PARENT 16 17
ROOT
ATOM      1  O   UNL     1      -4.160  -0.121  -2.073  1.00  0.00    -0.247 OA
ATOM      2  C   UNL     1      -3.200  -0.214  -1.230  1.00  0.00     0.332 C 
ATOM      3  C   UNL     1      -3.254  -0.937   0.031  1.00  0.00     0.101 C 
ATOM      4  C   UNL     1      -2.095  -0.820   0.630  1.00  0.00     0.009 C 
ATOM      5  C   UNL     1      -1.502  -1.283   1.884  1.00  0.00     0.010 C 
ATOM      6  C   UNL     1      -0.428  -0.620   2.324  1.00  0.00     0.037 C 
ATOM      7  C   UNL     1       0.395   0.166   1.387  1.00  0.00     0.212 C 
ATOM      8  C   UNL     1      -0.506   1.042   0.537  1.00  0.00     0.130 C 
ATOM      9  C   UNL     1      -1.200  -0.043  -0.245  1.00  0.00     0.195 C 
ATOM     10  O   UNL     1      -1.939   0.332  -1.325  1.00  0.00    -0.444 OA
ATOM     11  C   UNL     1       0.015  -0.912  -0.641  1.00  0.00     0.234 C 
ATOM     12  C   UNL     1       0.318  -0.616  -2.051  1.00  0.00     0.070 C 
ATOM     13  C   UNL     1       1.570   0.151  -2.314  1.00  0.00     0.012 C 
ATOM     14  C   UNL     1       2.674  -0.345  -1.411  1.00  0.00     0.062 C 
ATOM     15  C   UNL     1       2.223  -0.140  -0.008  1.00  0.00     0.263 C 
ATOM     16  N   UNL     1       0.970  -0.703   0.342  1.00  0.00    -0.323 N 
ATOM     17  H   UNL     1       1.177  -1.607   0.870  1.00  0.00     0.348 HD
ENDROOT
TORSDOF 0
