REMARK SMILES COc1cc(-c2coc3cc(O)c(OC)c(O)c3c2=O)cc(O)c1OC
REMARK SMILES IDX 6 1 7 2 8 3 9 4 10 5 11 6 13 7 16 8 18 9 19 10 20 11 5 12
REMARK SMILES IDX 3 13 4 14 24 15 22 16 21 17 2 18 1 19 25 20 26 21 23 22
REMARK SMILES IDX 17 24 14 26 15 27 12 28
REMARK H PARENT 23 23 17 25 12 29
ROOT
ATOM      1  C   UNL     1       0.075   0.305   0.364  1.00  0.00     0.065 A 
ATOM      2  C   UNL     1       0.338   1.594  -0.094  1.00  0.00     0.208 A 
ATOM      3  O   UNL     1       0.997   1.814  -1.203  1.00  0.00    -0.463 OA
ATOM      4  C   UNL     1       1.465   0.866  -1.973  1.00  0.00     0.145 A 
ATOM      5  C   UNL     1       2.156   1.204  -3.137  1.00  0.00     0.098 A 
ATOM      6  C   UNL     1       2.652   0.202  -3.955  1.00  0.00     0.165 A 
ATOM      7  C   UNL     1       2.444  -1.115  -3.588  1.00  0.00     0.203 A 
ATOM      8  C   UNL     1       1.754  -1.431  -2.427  1.00  0.00     0.176 A 
ATOM      9  C   UNL     1       1.249  -0.443  -1.594  1.00  0.00     0.111 A 
ATOM     10  C   UNL     1       0.557  -0.715  -0.431  1.00  0.00     0.204 A 
ATOM     11  O   UNL     1       0.361  -1.905  -0.087  1.00  0.00    -0.288 OA
ENDROOT
BRANCH   1  12
ATOM     12  C   UNL     1      -0.658   0.074   1.602  1.00  0.00    -0.004 A 
ATOM     13  C   UNL     1      -2.343  -1.056   2.931  1.00  0.00     0.165 A 
ATOM     14  C   UNL     1      -1.661  -0.852   1.765  1.00  0.00     0.059 A 
ATOM     15  C   UNL     1      -1.991  -0.268   4.023  1.00  0.00     0.203 A 
ATOM     16  C   UNL     1      -0.992   0.673   3.908  1.00  0.00     0.162 A 
ATOM     17  C   UNL     1      -0.322   0.847   2.696  1.00  0.00     0.059 A 
BRANCH  13  18
ATOM     18  O   UNL     1      -3.345  -2.005   3.035  1.00  0.00    -0.493 OA
ATOM     19  C   UNL     1      -3.775  -2.844   2.013  1.00  0.00     0.278 C 
ENDBRANCH  13  18
BRANCH  15  20
ATOM     20  O   UNL     1      -2.679  -0.468   5.215  1.00  0.00    -0.490 OA
ATOM     21  C   UNL     1      -3.866   0.233   5.550  1.00  0.00     0.278 C 
ENDBRANCH  15  20
BRANCH  16  22
ATOM     22  O   UNL     1      -0.650   1.455   5.008  1.00  0.00    -0.504 OA
ATOM     23  H   UNL     1       0.149   1.157   5.559  1.00  0.00     0.293 HD
ENDBRANCH  16  22
ENDBRANCH   1  12
BRANCH   8  24
ATOM     24  O   UNL     1       1.538  -2.748  -2.048  1.00  0.00    -0.504 OA
ATOM     25  H   UNL     1       0.690  -3.200  -2.417  1.00  0.00     0.293 HD
ENDBRANCH   8  24
BRANCH   7  26
ATOM     26  O   UNL     1       2.949  -2.101  -4.422  1.00  0.00    -0.490 OA
ATOM     27  C   UNL     1       2.095  -2.569  -5.463  1.00  0.00     0.278 C 
ENDBRANCH   7  26
BRANCH   6  28
ATOM     28  O   UNL     1       3.340   0.548  -5.112  1.00  0.00    -0.504 OA
ATOM     29  H   UNL     1       4.275   0.936  -5.094  1.00  0.00     0.293 HD
ENDBRANCH   6  28
TORSDOF 7
