REMARK SMILES COc1cc(-c2coc3cc(O)c(OC)c([O-])c3c2=O)cc(O)c1OC
REMARK SMILES IDX 6 1 7 2 8 3 9 4 10 5 11 6 13 7 16 8 17 9 18 10 19 11 20 12
REMARK SMILES IDX 5 13 3 14 4 15 24 16 22 17 21 18 2 19 1 20 25 21 26 22 23 23
REMARK SMILES IDX 14 25 15 26 12 27
REMARK H PARENT 23 24 12 28
ROOT
ATOM      1  C   UNL     1       0.696  -0.585   0.422  1.00  0.00     0.065 A 
ATOM      2  C   UNL     1       1.792   0.104   0.910  1.00  0.00     0.208 A 
ATOM      3  O   UNL     1       2.415   1.013   0.197  1.00  0.00    -0.463 OA
ATOM      4  C   UNL     1       2.053   1.335  -1.021  1.00  0.00     0.141 A 
ATOM      5  C   UNL     1       2.739   2.304  -1.746  1.00  0.00     0.098 A 
ATOM      6  C   UNL     1       2.356   2.644  -3.032  1.00  0.00     0.160 A 
ATOM      7  C   UNL     1       1.274   2.015  -3.612  1.00  0.00     0.153 A 
ATOM      8  C   UNL     1       0.589   1.045  -2.882  1.00  0.00    -0.046 A 
ATOM      9  O   UNL     1      -0.493   0.407  -3.445  1.00  0.00    -0.869 OA
ATOM     10  C   UNL     1       0.969   0.705  -1.603  1.00  0.00     0.061 A 
ATOM     11  C   UNL     1       0.292  -0.266  -0.859  1.00  0.00     0.200 A 
ATOM     12  O   UNL     1      -0.695  -0.853  -1.362  1.00  0.00    -0.288 OA
ENDROOT
BRANCH   1  13
ATOM     13  C   UNL     1       0.022  -1.591   1.239  1.00  0.00    -0.004 A 
ATOM     14  C   UNL     1      -2.017  -2.584   2.094  1.00  0.00     0.165 A 
ATOM     15  C   UNL     1      -1.360  -1.659   1.342  1.00  0.00     0.059 A 
ATOM     16  C   UNL     1      -1.288  -3.517   2.803  1.00  0.00     0.203 A 
ATOM     17  C   UNL     1       0.107  -3.489   2.730  1.00  0.00     0.162 A 
ATOM     18  C   UNL     1       0.732  -2.533   1.955  1.00  0.00     0.059 A 
BRANCH  14  19
ATOM     19  O   UNL     1      -3.416  -2.639   2.188  1.00  0.00    -0.493 OA
ATOM     20  C   UNL     1      -4.248  -1.736   1.507  1.00  0.00     0.278 C 
ENDBRANCH  14  19
BRANCH  16  21
ATOM     21  O   UNL     1      -1.930  -4.473   3.578  1.00  0.00    -0.490 OA
ATOM     22  C   UNL     1      -2.240  -4.245   4.935  1.00  0.00     0.278 C 
ENDBRANCH  16  21
BRANCH  17  23
ATOM     23  O   UNL     1       0.837  -4.429   3.444  1.00  0.00    -0.504 OA
ATOM     24  H   UNL     1       0.614  -5.417   3.290  1.00  0.00     0.293 HD
ENDBRANCH  17  23
ENDBRANCH   1  13
BRANCH   7  25
ATOM     25  O   UNL     1       0.898   2.364  -4.904  1.00  0.00    -0.493 OA
ATOM     26  C   UNL     1      -0.040   3.408  -5.116  1.00  0.00     0.278 C 
ENDBRANCH   7  25
BRANCH   6  27
ATOM     27  O   UNL     1       3.086   3.631  -3.720  1.00  0.00    -0.504 OA
ATOM     28  H   UNL     1       2.745   4.572  -3.780  1.00  0.00     0.293 HD
ENDBRANCH   6  27
TORSDOF 6
