REMARK SMILES Cc1cccc(C=C2SC(=O)[N-]C2=O)c1
REMARK SMILES IDX 1 1 2 2 3 3 4 4 5 5 6 6 15 7 7 8 8 9 9 10 13 11 10 12 12 13
REMARK SMILES IDX 14 14 11 15
REMARK H PARENT
ROOT
ATOM      1  C   UNL     1      -3.740   0.803  -0.641  1.00  0.00     0.044 C 
ATOM      2  C   UNL     1      -2.514   0.148  -0.115  1.00  0.00    -0.051 A 
ATOM      3  C   UNL     1      -2.517  -1.172   0.276  1.00  0.00     0.003 A 
ATOM      4  C   UNL     1      -1.365  -1.752   0.761  1.00  0.00     0.001 A 
ATOM      5  C   UNL     1      -0.213  -0.994   0.849  1.00  0.00     0.008 A 
ATOM      6  C   UNL     1      -0.153   0.326   0.473  1.00  0.00    -0.024 A 
ATOM      7  C   UNL     1      -1.347   0.871  -0.013  1.00  0.00     0.011 A 
ENDROOT
BRANCH   6   8
ATOM      8  C   UNL     1       1.050   1.144   0.529  1.00  0.00     0.025 C 
ATOM      9  C   UNL     1       2.159   0.716   0.002  1.00  0.00     0.039 C 
ATOM     10  S   UNL     1       3.695   1.690   0.045  1.00  0.00    -0.069 SA
ATOM     11  C   UNL     1       2.549  -0.462  -0.738  1.00  0.00     0.095 C 
ATOM     12  C   UNL     1       4.745   0.343  -0.442  1.00  0.00     0.120 C 
ATOM     13  N   UNL     1       3.905  -0.636  -0.956  1.00  0.00    -0.581 NA
ATOM     14  O   UNL     1       1.698  -1.316  -1.183  1.00  0.00    -0.314 OA
ATOM     15  O   UNL     1       5.974   0.298  -0.337  1.00  0.00    -0.307 OA
ENDBRANCH   6   8
TORSDOF 1
