REMARK SMILES Cc1cccc(/C=C2/SC(=O)[N-]C2=O)c1
REMARK SMILES IDX 1 1 2 2 3 3 4 4 5 5 6 6 15 7 7 8 8 9 9 10 13 11 10 12 12 13
REMARK SMILES IDX 14 14 11 15
REMARK H PARENT
ROOT
ATOM      1  C   UNL     1      -2.874   0.670  -1.487  1.00  0.00     0.044 C 
ATOM      2  C   UNL     1      -2.153   0.169  -0.279  1.00  0.00    -0.051 A 
ATOM      3  C   UNL     1      -2.806  -0.593   0.650  1.00  0.00     0.003 A 
ATOM      4  C   UNL     1      -2.092  -1.031   1.752  1.00  0.00     0.001 A 
ATOM      5  C   UNL     1      -0.766  -0.697   1.885  1.00  0.00     0.008 A 
ATOM      6  C   UNL     1      -0.098   0.083   0.932  1.00  0.00    -0.024 A 
ATOM      7  C   UNL     1      -0.810   0.506  -0.140  1.00  0.00     0.011 A 
ENDROOT
BRANCH   6   8
ATOM      8  C   UNL     1       1.315   0.416   1.179  1.00  0.00     0.025 C 
ATOM      9  C   UNL     1       2.261   0.218   0.289  1.00  0.00     0.039 C 
ATOM     10  S   UNL     1       4.034   0.580   0.443  1.00  0.00    -0.069 SA
ATOM     11  C   UNL     1       2.170  -0.377  -1.028  1.00  0.00     0.095 C 
ATOM     12  C   UNL     1       4.368   0.495  -1.318  1.00  0.00     0.120 C 
ATOM     13  N   UNL     1       3.276  -0.219  -1.845  1.00  0.00    -0.581 NA
ATOM     14  O   UNL     1       1.126  -1.015  -1.415  1.00  0.00    -0.314 OA
ATOM     15  O   UNL     1       5.332   0.951  -1.958  1.00  0.00    -0.307 OA
ENDBRANCH   6   8
TORSDOF 1
