REMARK SMILES Cc1ccc2nc(-c3ccccc3)[nH]c2c1
REMARK SMILES IDX 1 1 2 2 3 3 4 4 5 5 6 6 7 7 14 8 15 9 16 10 8 12 9 13 13 14
REMARK SMILES IDX 10 15 12 16 11 17
REMARK H PARENT 14 11
ROOT
ATOM      1  C   UNL     1      -4.704   1.860  -0.969  1.00  0.00     0.044 C 
ATOM      2  C   UNL     1      -3.381   1.461  -0.421  1.00  0.00    -0.049 A 
ATOM      3  C   UNL     1      -3.031   1.842   0.859  1.00  0.00     0.006 A 
ATOM      4  C   UNL     1      -1.809   1.492   1.410  1.00  0.00     0.031 A 
ATOM      5  C   UNL     1      -0.891   0.748   0.698  1.00  0.00     0.089 A 
ATOM      6  N   UNL     1       0.342   0.264   0.947  1.00  0.00    -0.229 NA
ATOM      7  C   UNL     1       0.799  -0.412  -0.122  1.00  0.00     0.138 A 
ATOM      8  N   UNL     1      -0.183  -0.334  -1.037  1.00  0.00    -0.338 N 
ATOM      9  C   UNL     1      -1.238   0.366  -0.581  1.00  0.00     0.066 A 
ATOM     10  C   UNL     1      -2.467   0.717  -1.138  1.00  0.00     0.031 A 
ATOM     11  H   UNL     1      -0.154  -0.757  -1.992  1.00  0.00     0.168 HD
ENDROOT
BRANCH   7  12
ATOM     12  C   UNL     1       2.092  -1.088  -0.254  1.00  0.00     0.017 A 
ATOM     13  C   UNL     1       3.002  -1.090   0.759  1.00  0.00     0.012 A 
ATOM     14  C   UNL     1       2.404  -1.740  -1.427  1.00  0.00     0.012 A 
ATOM     15  C   UNL     1       4.222  -1.747   0.589  1.00  0.00     0.001 A 
ATOM     16  C   UNL     1       3.607  -2.389  -1.601  1.00  0.00     0.001 A 
ATOM     17  C   UNL     1       4.528  -2.392  -0.576  1.00  0.00     0.000 A 
ENDBRANCH   7  12
TORSDOF 1
