REMARK SMILES Cc1ccc2nc(-c3ccccc3)[n-]c2c1
REMARK SMILES IDX 1 1 2 2 3 3 4 4 5 5 6 6 7 7 14 8 15 9 16 10 8 11 9 12 13 13
REMARK SMILES IDX 10 14 12 15 11 16
REMARK H PARENT
ROOT
ATOM      1  C   UNL     1      -4.166   2.663  -1.216  1.00  0.00     0.044 C 
ATOM      2  C   UNL     1      -3.004   1.979  -0.575  1.00  0.00    -0.051 A 
ATOM      3  C   UNL     1      -2.775   2.113   0.777  1.00  0.00     0.003 A 
ATOM      4  C   UNL     1      -1.705   1.492   1.405  1.00  0.00     0.004 A 
ATOM      5  C   UNL     1      -0.826   0.711   0.687  1.00  0.00    -0.038 A 
ATOM      6  N   UNL     1       0.276  -0.004   0.992  1.00  0.00    -0.435 NA
ATOM      7  C   UNL     1       0.764  -0.593  -0.112  1.00  0.00    -0.051 A 
ATOM      8  N   UNL     1      -0.059  -0.229  -1.111  1.00  0.00    -0.435 NA
ATOM      9  C   UNL     1      -1.047   0.569  -0.668  1.00  0.00    -0.038 A 
ATOM     10  C   UNL     1      -2.126   1.198  -1.294  1.00  0.00     0.007 A 
ENDROOT
BRANCH   7  11
ATOM     11  C   UNL     1       1.951  -1.453  -0.189  1.00  0.00    -0.027 A 
ATOM     12  C   UNL     1       3.213  -1.008   0.151  1.00  0.00     0.008 A 
ATOM     13  C   UNL     1       1.808  -2.757  -0.618  1.00  0.00     0.008 A 
ATOM     14  C   UNL     1       4.313  -1.836   0.070  1.00  0.00     0.001 A 
ATOM     15  C   UNL     1       2.895  -3.604  -0.707  1.00  0.00     0.001 A 
ATOM     16  C   UNL     1       4.125  -3.119  -0.359  1.00  0.00     0.000 A 
ENDBRANCH   7  11
TORSDOF 1
