REMARK SMILES COc1ccc2c(C)c(C)c(=O)oc2c1C
REMARK SMILES IDX 3 1 4 2 5 3 6 4 7 5 8 6 9 7 10 8 11 9 12 10 13 11 14 12
REMARK SMILES IDX 15 13 16 14 2 15 1 16
REMARK H PARENT
ROOT
ATOM      1  C   UNL     1      -2.084  -1.497  -0.464  1.00  0.00     0.125 A 
ATOM      2  C   UNL     1      -1.874  -0.900   0.760  1.00  0.00     0.047 A 
ATOM      3  C   UNL     1      -0.743  -0.156   1.042  1.00  0.00     0.016 A 
ATOM      4  C   UNL     1       0.239   0.024   0.089  1.00  0.00     0.021 A 
ATOM      5  C   UNL     1       1.359   0.769   0.390  1.00  0.00    -0.030 A 
ATOM      6  C   UNL     1       1.571   1.407   1.719  1.00  0.00     0.045 C 
ATOM      7  C   UNL     1       2.314   0.913  -0.615  1.00  0.00     0.038 A 
ATOM      8  C   UNL     1       3.519   1.706  -0.316  1.00  0.00     0.052 C 
ATOM      9  C   UNL     1       2.060   0.301  -1.819  1.00  0.00     0.339 A 
ATOM     10  O   UNL     1       2.945   0.447  -2.719  1.00  0.00    -0.246 OA
ATOM     11  O   UNL     1       0.975  -0.396  -2.045  1.00  0.00    -0.422 OA
ATOM     12  C   UNL     1       0.032  -0.572  -1.140  1.00  0.00     0.145 A 
ATOM     13  C   UNL     1      -1.100  -1.314  -1.414  1.00  0.00     0.034 A 
ATOM     14  C   UNL     1      -1.273  -1.933  -2.750  1.00  0.00     0.052 C 
ENDROOT
BRANCH   1  15
ATOM     15  O   UNL     1      -3.234  -2.247  -0.733  1.00  0.00    -0.496 OA
ATOM     16  C   UNL     1      -4.188  -2.378   0.304  1.00  0.00     0.278 C 
ENDBRANCH   1  15
TORSDOF 1
