REMARK SMILES Nc1nc2ccccc2n1CCN1CCCC1
REMARK SMILES IDX 2 1 3 2 4 3 5 4 6 5 7 6 8 7 9 8 10 9 1 10 11 13 12 14 13 15
REMARK SMILES IDX 14 16 17 17 15 18 16 19
REMARK H PARENT 1 11 1 12
ROOT
ATOM      1  C   UNL     1      -0.204   2.109   0.765  1.00  0.00     0.201 A 
ATOM      2  N   UNL     1       0.671   2.755   1.547  1.00  0.00    -0.213 NA
ATOM      3  C   UNL     1       1.407   1.874   2.234  1.00  0.00     0.091 A 
ATOM      4  C   UNL     1       2.439   2.009   3.170  1.00  0.00     0.031 A 
ATOM      5  C   UNL     1       3.016   0.887   3.719  1.00  0.00     0.002 A 
ATOM      6  C   UNL     1       2.608  -0.384   3.373  1.00  0.00     0.002 A 
ATOM      7  C   UNL     1       1.588  -0.472   2.448  1.00  0.00     0.028 A 
ATOM      8  C   UNL     1       0.982   0.633   1.874  1.00  0.00     0.070 A 
ATOM      9  N   UNL     1      -0.016   0.789   0.963  1.00  0.00    -0.309 N 
ENDROOT
BRANCH   1  10
ATOM     10  N   UNL     1      -1.169   2.637  -0.123  1.00  0.00    -0.369 N 
ATOM     11  H   UNL     1      -0.833   2.942  -1.067  1.00  0.00     0.159 HD
ATOM     12  H   UNL     1      -2.175   2.748   0.077  1.00  0.00     0.159 HD
ENDBRANCH   1  10
BRANCH   9  13
ATOM     13  C   UNL     1      -0.672  -0.331   0.389  1.00  0.00     0.141 C 
BRANCH  13  14
ATOM     14  C   UNL     1      -0.103  -0.893  -0.850  1.00  0.00     0.106 C 
BRANCH  14  15
ATOM     15  N   UNL     1      -0.952  -2.032  -1.242  1.00  0.00    -0.302 NA
ATOM     16  C   UNL     1      -0.463  -2.646  -2.455  1.00  0.00     0.084 C 
ATOM     17  C   UNL     1      -2.301  -1.627  -1.476  1.00  0.00     0.084 C 
ATOM     18  C   UNL     1      -1.688  -3.101  -3.208  1.00  0.00     0.017 C 
ATOM     19  C   UNL     1      -2.874  -2.426  -2.599  1.00  0.00     0.017 C 
ENDBRANCH  14  15
ENDBRANCH  13  14
ENDBRANCH   9  13
TORSDOF 4
