REMARK SMILES Nc1nc2ccccc2n1CC[NH+]1CCCC1
REMARK SMILES IDX 11 1 10 2 2 3 3 4 4 5 9 6 5 7 8 8 6 9 7 10 1 11 12 14 13 15
REMARK SMILES IDX 14 16 17 17 15 18 16 19
REMARK H PARENT 1 12 1 13 13 20
ROOT
ATOM      1  C   UNL     1      -0.696   0.282  -0.627  1.00  0.00     0.187 C 
ENDROOT
BRANCH   1   2
ATOM      2  N   UNL     1       0.330   1.107  -0.067  1.00  0.00    -0.305 N 
ATOM      3  C   UNL     1       1.143   1.886  -0.800  1.00  0.00     0.201 A 
ATOM      4  N   UNL     1       1.992   2.528   0.053  1.00  0.00    -0.213 NA
ATOM      5  C   UNL     1       1.707   2.148   1.306  1.00  0.00     0.091 A 
ATOM      6  C   UNL     1       0.646   1.242   1.227  1.00  0.00     0.070 A 
ATOM      7  C   UNL     1       2.240   2.476   2.550  1.00  0.00     0.031 A 
ATOM      8  C   UNL     1       0.154   0.693   2.400  1.00  0.00     0.028 A 
ATOM      9  C   UNL     1       1.754   1.932   3.719  1.00  0.00     0.002 A 
ATOM     10  C   UNL     1       0.702   1.038   3.598  1.00  0.00     0.002 A 
BRANCH   3  11
ATOM     11  N   UNL     1       1.149   2.042  -2.217  1.00  0.00    -0.369 N 
ATOM     12  H   UNL     1       1.925   1.604  -2.744  1.00  0.00     0.159 HD
ATOM     13  H   UNL     1       0.427   2.563  -2.744  1.00  0.00     0.159 HD
ENDBRANCH   3  11
ENDBRANCH   1   2
BRANCH   1  14
ATOM     14  C   UNL     1      -0.251  -1.103  -0.977  1.00  0.00     0.284 C 
BRANCH  14  15
ATOM     15  N   UNL     1      -1.390  -1.810  -1.527  1.00  0.00    -0.333 N 
ATOM     16  C   UNL     1      -1.054  -3.121  -2.009  1.00  0.00     0.262 C 
ATOM     17  C   UNL     1      -2.488  -1.922  -0.626  1.00  0.00     0.262 C 
ATOM     18  C   UNL     1      -1.594  -4.112  -0.995  1.00  0.00     0.067 C 
ATOM     19  C   UNL     1      -2.849  -3.394  -0.523  1.00  0.00     0.067 C 
ATOM     20  H   UNL     1      -1.711  -1.229  -2.355  1.00  0.00     0.348 HD
ENDBRANCH  14  15
ENDBRANCH   1  14
TORSDOF 4
