REMARK SMILES COc1ccc(C2Oc3ccccc3C=C2[N+](=O)[O-])cc1O
REMARK SMILES IDX 7 1 8 2 9 3 10 4 11 5 12 6 13 7 14 8 15 9 16 10 6 11 3 12
REMARK SMILES IDX 4 13 21 14 5 15 20 16 2 17 1 18 22 19 17 21 18 22 19 23
REMARK H PARENT 22 20
ROOT
ATOM      1  C   UNL     1       0.064  -1.797   0.629  1.00  0.00     0.305 C 
ATOM      2  O   UNL     1       1.423  -1.544   0.599  1.00  0.00    -0.474 OA
ATOM      3  C   UNL     1       2.165  -1.796  -0.543  1.00  0.00     0.128 A 
ATOM      4  C   UNL     1       3.542  -1.528  -0.540  1.00  0.00     0.047 A 
ATOM      5  C   UNL     1       4.263  -1.777  -1.663  1.00  0.00     0.004 A 
ATOM      6  C   UNL     1       3.680  -2.285  -2.804  1.00  0.00     0.001 A 
ATOM      7  C   UNL     1       2.339  -2.547  -2.812  1.00  0.00     0.012 A 
ATOM      8  C   UNL     1       1.580  -2.303  -1.681  1.00  0.00     0.023 A 
ATOM      9  C   UNL     1       0.148  -2.573  -1.662  1.00  0.00     0.097 C 
ATOM     10  C   UNL     1      -0.540  -2.337  -0.593  1.00  0.00     0.291 C 
ENDROOT
BRANCH   1  11
ATOM     11  C   UNL     1      -0.728  -0.555   0.953  1.00  0.00     0.007 A 
ATOM     12  C   UNL     1      -2.247   1.731   1.601  1.00  0.00     0.160 A 
ATOM     13  C   UNL     1      -1.218   1.796   0.689  1.00  0.00     0.051 A 
ATOM     14  C   UNL     1      -2.508   0.514   2.185  1.00  0.00     0.158 A 
ATOM     15  C   UNL     1      -0.464   0.661   0.367  1.00  0.00     0.012 A 
ATOM     16  C   UNL     1      -1.755  -0.619   1.864  1.00  0.00     0.058 A 
BRANCH  12  17
ATOM     17  O   UNL     1      -3.007   2.869   1.927  1.00  0.00    -0.493 OA
ATOM     18  C   UNL     1      -2.773   4.120   1.357  1.00  0.00     0.278 C 
ENDBRANCH  12  17
BRANCH  14  19
ATOM     19  O   UNL     1      -3.545   0.435   3.109  1.00  0.00    -0.504 OA
ATOM     20  H   UNL     1      -4.392  -0.043   2.802  1.00  0.00     0.293 HD
ENDBRANCH  14  19
ENDBRANCH   1  11
BRANCH  10  21
ATOM     21  N   UNL     1      -1.944  -2.601  -0.572  1.00  0.00     0.062 N 
ATOM     22  O   UNL     1      -2.380  -3.424   0.230  1.00  0.00    -0.258 OA
ATOM     23  O   UNL     1      -2.798  -1.953  -1.428  1.00  0.00    -0.258 OA
ENDBRANCH  10  21
TORSDOF 4
