REMARK SMILES CC(=O)NC1C(=O)N(C)c2ccc(Cl)cc21
REMARK SMILES IDX 5 1 6 2 7 3 8 4 9 5 10 6 11 7 12 8 13 9 14 10 15 11 16 12
REMARK SMILES IDX 4 13 2 14 3 15 1 16
REMARK H PARENT 4 17
ROOT
ATOM      1  C   UNL     1       0.008   0.864   0.412  1.00  0.00     0.205 C 
ATOM      2  C   UNL     1       0.303  -0.030   1.535  1.00  0.00     0.254 C 
ATOM      3  O   UNL     1      -0.047   0.081   2.753  1.00  0.00    -0.272 OA
ATOM      4  N   UNL     1       1.081  -1.105   1.051  1.00  0.00    -0.313 N 
ATOM      5  C   UNL     1       1.609  -2.246   1.825  1.00  0.00     0.153 C 
ATOM      6  C   UNL     1       1.283  -0.913  -0.342  1.00  0.00     0.049 A 
ATOM      7  C   UNL     1       1.992  -1.717  -1.253  1.00  0.00     0.028 A 
ATOM      8  C   UNL     1       2.092  -1.381  -2.585  1.00  0.00     0.022 A 
ATOM      9  C   UNL     1       1.466  -0.223  -2.984  1.00  0.00     0.041 A 
ATOM     10  Cl  UNL     1       1.572   0.234  -4.669  1.00  0.00    -0.084 Cl
ATOM     11  C   UNL     1       0.776   0.557  -2.092  1.00  0.00     0.029 A 
ATOM     12  C   UNL     1       0.664   0.236  -0.744  1.00  0.00     0.009 A 
ENDROOT
BRANCH   1  13
ATOM     13  N   UNL     1      -1.424   0.759   0.174  1.00  0.00    -0.341 N 
ATOM     14  C   UNL     1      -2.309   1.840   0.157  1.00  0.00     0.217 C 
ATOM     15  O   UNL     1      -1.856   2.992   0.359  1.00  0.00    -0.275 OA
ATOM     16  C   UNL     1      -3.769   1.597  -0.102  1.00  0.00     0.114 C 
ATOM     17  H   UNL     1      -1.790  -0.202   0.007  1.00  0.00     0.164 HD
ENDBRANCH   1  13
TORSDOF 1
