REMARK SMILES O=C(/C=C/c1ccccc1)c1ccc([O-])cc1
REMARK SMILES IDX 1 1 2 2 3 3 4 4 5 5 6 6 10 7 7 8 9 9 8 10 11 11 12 12 17 13
REMARK SMILES IDX 13 14 16 15 14 16 15 17
REMARK H PARENT
ROOT
ATOM      1  O   UNL     1      -2.024  -2.324  -0.991  1.00  0.00    -0.289 OA
ATOM      2  C   UNL     1      -1.023  -1.458  -1.083  1.00  0.00     0.185 C 
ENDROOT
BRANCH   2   3
ATOM      3  C   UNL     1      -0.897  -0.648   0.078  1.00  0.00     0.053 C 
ATOM      4  C   UNL     1      -0.056   0.275   0.426  1.00  0.00     0.012 C 
BRANCH   4   5
ATOM      5  C   UNL     1      -0.106   1.021   1.717  1.00  0.00    -0.026 A 
ATOM      6  C   UNL     1      -1.063   0.787   2.659  1.00  0.00     0.008 A 
ATOM      7  C   UNL     1       0.871   1.987   1.945  1.00  0.00     0.008 A 
ATOM      8  C   UNL     1      -1.049   1.527   3.848  1.00  0.00     0.001 A 
ATOM      9  C   UNL     1       0.843   2.681   3.120  1.00  0.00     0.001 A 
ATOM     10  C   UNL     1      -0.099   2.487   4.106  1.00  0.00     0.000 A 
ENDBRANCH   4   5
ENDBRANCH   2   3
BRANCH   2  11
ATOM     11  C   UNL     1      -0.316  -1.541  -2.305  1.00  0.00     0.022 A 
ATOM     12  C   UNL     1      -0.547  -2.619  -3.176  1.00  0.00     0.011 A 
ATOM     13  C   UNL     1       0.567  -0.619  -2.766  1.00  0.00     0.011 A 
ATOM     14  C   UNL     1       0.052  -2.762  -4.398  1.00  0.00    -0.008 A 
ATOM     15  C   UNL     1       1.211  -0.723  -4.018  1.00  0.00    -0.008 A 
ATOM     16  C   UNL     1       0.941  -1.801  -4.820  1.00  0.00    -0.109 A 
ATOM     17  O   UNL     1       1.563  -1.917  -6.048  1.00  0.00    -0.872 OA
ENDBRANCH   2  11
TORSDOF 3
