REMARK SMILES CCCC[NH+]1C(=O)C(=Cc2ccco2)SC1=S
REMARK SMILES IDX 3 1 2 2 1 3 4 4 5 5 6 6 16 7 7 8 8 9 15 10 17 11 9 12 10 14
REMARK SMILES IDX 11 15 14 16 12 17 13 18
REMARK H PARENT 5 13
ROOT
ATOM      1  C   UNL     1      -1.895  -0.796   1.781  1.00  0.00     0.062 C 
ENDROOT
BRANCH   1   2
ATOM      2  C   UNL     1      -3.114  -0.338   1.041  1.00  0.00     0.002 C 
ATOM      3  C   UNL     1      -3.107  -0.762  -0.403  1.00  0.00     0.004 C 
ENDBRANCH   1   2
BRANCH   1   4
ATOM      4  C   UNL     1      -0.591  -0.349   1.255  1.00  0.00     0.277 C 
BRANCH   4   5
ATOM      5  N   UNL     1      -0.336   1.066   1.203  1.00  0.00    -0.219 N 
ATOM      6  C   UNL     1       1.110   1.150   1.090  1.00  0.00     0.357 C 
ATOM      7  C   UNL     1      -0.817   1.690   0.020  1.00  0.00     0.244 C 
ATOM      8  O   UNL     1       1.874   1.708   1.877  1.00  0.00    -0.225 OA
ATOM      9  C   UNL     1       1.512   0.453  -0.128  1.00  0.00     0.127 C 
ATOM     10  S   UNL     1       0.131   0.867  -1.259  1.00  0.00    -0.008 SA
ATOM     11  S   UNL     1      -1.762   2.689  -0.164  1.00  0.00    -0.009 S 
ATOM     12  C   UNL     1       2.510  -0.286  -0.439  1.00  0.00     0.072 C 
ATOM     13  H   UNL     1      -0.609   1.526   2.075  1.00  0.00     0.364 HD
BRANCH  12  14
ATOM     14  C   UNL     1       2.588  -0.827  -1.788  1.00  0.00     0.128 A 
ATOM     15  C   UNL     1       2.902  -2.125  -2.155  1.00  0.00     0.050 A 
ATOM     16  O   UNL     1       2.373  -0.147  -2.876  1.00  0.00    -0.465 OA
ATOM     17  C   UNL     1       2.864  -2.190  -3.530  1.00  0.00     0.042 A 
ATOM     18  C   UNL     1       2.526  -0.918  -3.935  1.00  0.00     0.195 A 
ENDBRANCH  12  14
ENDBRANCH   4   5
ENDBRANCH   1   4
TORSDOF 4
