REMARK SMILES c1ccc2c(CN3CC[NH+](Cc4c[nH]c5ccccc45)CC3)cccc2c1
REMARK SMILES IDX 7 1 8 2 9 3 10 4 21 5 22 6 6 8 5 9 1 10 2 11 27 12 3 13
REMARK SMILES IDX 26 14 4 15 25 16 24 17 23 18 11 19 12 20 13 21 20 22 14 23
REMARK SMILES IDX 19 24 15 25 18 26 16 27 17 28
REMARK H PARENT 10 7 14 29
ROOT
ATOM      1  N   UNL     1       1.298  -2.310   1.974  1.00  0.00    -0.288 NA
ATOM      2  C   UNL     1       0.008  -2.472   1.538  1.00  0.00     0.146 C 
ATOM      3  C   UNL     1      -0.072  -1.941   0.094  1.00  0.00     0.278 C 
ATOM      4  N   UNL     1       0.829  -2.619  -0.768  1.00  0.00    -0.329 N 
ATOM      5  C   UNL     1       2.099  -2.978  -0.250  1.00  0.00     0.278 C 
ATOM      6  C   UNL     1       2.238  -3.097   1.219  1.00  0.00     0.146 C 
ATOM      7  H   UNL     1       0.351  -3.526  -1.064  1.00  0.00     0.348 HD
ENDROOT
BRANCH   1   8
ATOM      8  C   UNL     1       1.828  -1.248   2.692  1.00  0.00     0.121 C 
BRANCH   8   9
ATOM      9  C   UNL     1       1.756   0.101   2.107  1.00  0.00    -0.026 A 
ATOM     10  C   UNL     1      -1.568   2.637   2.417  1.00  0.00     0.001 A 
ATOM     11  C   UNL     1      -1.517   1.399   3.038  1.00  0.00     0.001 A 
ATOM     12  C   UNL     1      -0.469   3.005   1.680  1.00  0.00     0.009 A 
ATOM     13  C   UNL     1      -0.412   0.582   2.916  1.00  0.00     0.009 A 
ATOM     14  C   UNL     1       0.638   2.173   1.565  1.00  0.00    -0.018 A 
ATOM     15  C   UNL     1       0.675   0.943   2.187  1.00  0.00    -0.014 A 
ATOM     16  C   UNL     1       1.736   2.594   0.822  1.00  0.00     0.009 A 
ATOM     17  C   UNL     1       2.841   1.782   0.718  1.00  0.00     0.001 A 
ATOM     18  C   UNL     1       2.835   0.577   1.346  1.00  0.00     0.006 A 
ENDBRANCH   8   9
ENDBRANCH   1   8
BRANCH   4  19
ATOM     19  C   UNL     1       0.963  -1.860  -2.009  1.00  0.00     0.301 C 
BRANCH  19  20
ATOM     20  C   UNL     1      -0.161  -0.929  -2.205  1.00  0.00     0.031 A 
ATOM     21  C   UNL     1      -0.185   0.452  -2.031  1.00  0.00     0.093 A 
ATOM     22  C   UNL     1      -1.453  -1.250  -2.616  1.00  0.00     0.008 A 
ATOM     23  N   UNL     1      -1.413   0.917  -2.319  1.00  0.00    -0.361 N 
ATOM     24  C   UNL     1      -2.038  -2.470  -2.944  1.00  0.00     0.011 A 
ATOM     25  C   UNL     1      -2.225  -0.103  -2.685  1.00  0.00     0.046 A 
ATOM     26  C   UNL     1      -3.348  -2.527  -3.325  1.00  0.00     0.001 A 
ATOM     27  C   UNL     1      -3.546  -0.181  -3.072  1.00  0.00     0.026 A 
ATOM     28  C   UNL     1      -4.123  -1.387  -3.396  1.00  0.00     0.002 A 
ATOM     29  H   UNL     1      -1.732   1.900  -2.280  1.00  0.00     0.166 HD
ENDBRANCH  19  20
ENDBRANCH   4  19
TORSDOF 4
