REMARK SMILES C=CCN1C(=O)C(=Cc2ccco2)SC1=S
REMARK SMILES IDX 4 1 5 2 6 3 7 4 8 5 14 6 15 7 16 8 3 9 2 10 1 11 9 12 10 13
REMARK SMILES IDX 13 14 11 15 12 16
REMARK H PARENT
ROOT
ATOM      1  N   UNL     1      -1.565   0.415   0.812  1.00  0.00    -0.289 N 
ATOM      2  C   UNL     1      -0.632  -0.621   0.937  1.00  0.00     0.266 C 
ATOM      3  O   UNL     1      -0.729  -1.617   1.752  1.00  0.00    -0.268 OA
ATOM      4  C   UNL     1       0.523  -0.528   0.057  1.00  0.00     0.084 C 
ATOM      5  C   UNL     1       1.734  -1.051   0.145  1.00  0.00     0.068 C 
ATOM      6  S   UNL     1      -0.111   0.551  -1.264  1.00  0.00    -0.054 SA
ATOM      7  C   UNL     1      -1.265   1.410  -0.145  1.00  0.00     0.148 C 
ATOM      8  S   UNL     1      -1.738   2.936  -0.319  1.00  0.00    -0.052 S 
ENDROOT
BRANCH   1   9
ATOM      9  C   UNL     1      -2.811   0.512   1.606  1.00  0.00     0.154 C 
BRANCH   9  10
ATOM     10  C   UNL     1      -3.939  -0.181   0.909  1.00  0.00    -0.013 C 
ATOM     11  C   UNL     1      -3.710  -0.754  -0.245  1.00  0.00     0.006 C 
ENDBRANCH   9  10
ENDBRANCH   1   9
BRANCH   5  12
ATOM     12  C   UNL     1       2.664  -0.745  -0.942  1.00  0.00     0.127 A 
ATOM     13  C   UNL     1       4.002  -0.503  -0.755  1.00  0.00     0.050 A 
ATOM     14  O   UNL     1       2.383  -0.653  -2.234  1.00  0.00    -0.465 OA
ATOM     15  C   UNL     1       4.535  -0.254  -2.024  1.00  0.00     0.042 A 
ATOM     16  C   UNL     1       3.467  -0.365  -2.895  1.00  0.00     0.195 A 
ENDBRANCH   5  12
TORSDOF 3
