REMARK SMILES C=CCN1C(=O)/C(=C/c2ccco2)SC1=S
REMARK SMILES IDX 4 1 5 2 6 3 7 4 8 5 14 6 15 7 16 8 3 9 2 10 1 11 9 12 10 13
REMARK SMILES IDX 13 14 11 15 12 16
REMARK H PARENT
ROOT
ATOM      1  N   UNL     1      -1.570   0.394   0.800  1.00  0.00    -0.289 N 
ATOM      2  C   UNL     1      -0.623  -0.641   0.954  1.00  0.00     0.266 C 
ATOM      3  O   UNL     1      -0.751  -1.621   1.773  1.00  0.00    -0.268 OA
ATOM      4  C   UNL     1       0.549  -0.544   0.116  1.00  0.00     0.084 C 
ATOM      5  C   UNL     1       1.759  -0.978   0.221  1.00  0.00     0.068 C 
ATOM      6  S   UNL     1      -0.075   0.468  -1.266  1.00  0.00    -0.054 SA
ATOM      7  C   UNL     1      -1.221   1.375  -0.165  1.00  0.00     0.148 C 
ATOM      8  S   UNL     1      -1.673   2.914  -0.311  1.00  0.00    -0.052 S 
ENDROOT
BRANCH   1   9
ATOM      9  C   UNL     1      -2.829   0.474   1.572  1.00  0.00     0.154 C 
BRANCH   9  10
ATOM     10  C   UNL     1      -3.948  -0.213   0.891  1.00  0.00    -0.013 C 
ATOM     11  C   UNL     1      -3.744  -0.803  -0.273  1.00  0.00     0.006 C 
ENDBRANCH   9  10
ENDBRANCH   1   9
BRANCH   5  12
ATOM     12  C   UNL     1       2.738  -0.692  -0.855  1.00  0.00     0.127 A 
ATOM     13  C   UNL     1       4.037  -0.300  -0.767  1.00  0.00     0.050 A 
ATOM     14  O   UNL     1       2.457  -0.785  -2.130  1.00  0.00    -0.465 OA
ATOM     15  C   UNL     1       4.514  -0.166  -2.061  1.00  0.00     0.042 A 
ATOM     16  C   UNL     1       3.466  -0.487  -2.894  1.00  0.00     0.195 A 
ENDBRANCH   5  12
TORSDOF 3
