REMARK SMILES O=C1C=Cc2ccccc2C1=CN[N-]C(=O)c1ccc[n+](CC(=O)c2ccccc2)c1
REMARK SMILES IDX 17 1 18 2 19 3 20 4 21 5 31 6 15 7 16 8 14 9 13 10 12 12
REMARK SMILES IDX 1 13 2 14 3 15 11 16 4 17 10 18 5 19 9 20 6 21 8 22 7 23
REMARK SMILES IDX 22 24 23 25 24 26 25 27 26 28 30 29 27 30 29 31 28 32
REMARK H PARENT 13 11
ROOT
ATOM      1  C   UNL     1       1.428   1.015  -1.770  1.00  0.00     0.064 A 
ATOM      2  C   UNL     1       2.657   1.307  -1.220  1.00  0.00     0.022 A 
ATOM      3  C   UNL     1       3.288   0.398  -0.404  1.00  0.00     0.071 A 
ATOM      4  C   UNL     1       2.675  -0.807  -0.145  1.00  0.00     0.308 A 
ATOM      5  N   UNL     1       1.471  -1.112  -0.675  1.00  0.00    -0.197 N 
ATOM      6  C   UNL     1       0.872  -0.234  -1.457  1.00  0.00     0.318 A 
ENDROOT
BRANCH   1   7
ATOM      7  C   UNL     1       0.739   1.970  -2.610  1.00  0.00     0.103 C 
ATOM      8  O   UNL     1       1.202   2.277  -3.722  1.00  0.00    -0.313 OA
BRANCH   7   9
ATOM      9  N   UNL     1      -0.461   2.552  -2.153  1.00  0.00    -0.563 NA
BRANCH   9  10
ATOM     10  N   UNL     1      -1.310   1.957  -1.184  1.00  0.00    -0.463 N 
ATOM     11  H   UNL     1      -2.270   1.786  -1.498  1.00  0.00     0.140 HD
BRANCH  10  12
ATOM     12  C   UNL     1      -0.816   1.637   0.103  1.00  0.00     0.076 C 
ATOM     13  O   UNL     1      -3.584   0.968  -0.050  1.00  0.00    -0.289 OA
ATOM     14  C   UNL     1      -2.895   0.772   0.984  1.00  0.00     0.187 C 
ATOM     15  C   UNL     1      -3.579   0.164   2.142  1.00  0.00     0.053 C 
ATOM     16  C   UNL     1      -1.491   1.114   1.075  1.00  0.00     0.044 C 
ATOM     17  C   UNL     1      -2.959  -0.083   3.264  1.00  0.00     0.013 C 
ATOM     18  C   UNL     1      -0.805   0.822   2.363  1.00  0.00    -0.006 A 
ATOM     19  C   UNL     1      -1.537   0.254   3.377  1.00  0.00    -0.017 A 
ATOM     20  C   UNL     1       0.534   1.096   2.560  1.00  0.00     0.009 A 
ATOM     21  C   UNL     1      -0.937  -0.043   4.592  1.00  0.00     0.009 A 
ATOM     22  C   UNL     1       1.134   0.794   3.788  1.00  0.00     0.001 A 
ATOM     23  C   UNL     1       0.396   0.231   4.787  1.00  0.00     0.001 A 
ENDBRANCH  10  12
ENDBRANCH   9  10
ENDBRANCH   7   9
ENDBRANCH   1   7
BRANCH   5  24
ATOM     24  C   UNL     1       0.917  -2.395  -0.302  1.00  0.00     0.438 C 
BRANCH  24  25
ATOM     25  C   UNL     1       1.274  -3.517  -1.144  1.00  0.00     0.227 C 
ATOM     26  O   UNL     1       2.363  -4.114  -0.947  1.00  0.00    -0.287 OA
BRANCH  25  27
ATOM     27  C   UNL     1       0.408  -3.982  -2.216  1.00  0.00     0.024 A 
ATOM     28  C   UNL     1      -0.799  -3.400  -2.529  1.00  0.00     0.012 A 
ATOM     29  C   UNL     1       0.773  -5.086  -2.997  1.00  0.00     0.012 A 
ATOM     30  C   UNL     1      -1.621  -3.850  -3.539  1.00  0.00     0.001 A 
ATOM     31  C   UNL     1      -0.040  -5.540  -4.005  1.00  0.00     0.001 A 
ATOM     32  C   UNL     1      -1.242  -4.943  -4.299  1.00  0.00     0.000 A 
ENDBRANCH  25  27
ENDBRANCH  24  25
ENDBRANCH   5  24
TORSDOF 7
