REMARK SMILES O=C(C[n+]1cccc(C(=O)[N-]N=Cc2c([O-])ccc3ccccc23)c1)c1ccccc1
REMARK SMILES IDX 9 1 10 2 8 3 4 4 5 5 25 6 6 7 7 8 3 9 2 10 1 11 26 12 27 13
REMARK SMILES IDX 31 14 28 15 30 16 29 17 11 18 12 19 13 20 14 21 15 22 24 23
REMARK SMILES IDX 17 24 23 25 19 26 18 27 22 28 20 29 21 30 16 31
REMARK H PARENT
ROOT
ATOM      1  C   UNL     1       1.955   2.799   0.341  1.00  0.00     0.105 C 
ATOM      2  O   UNL     1       3.102   3.132  -0.010  1.00  0.00    -0.313 OA
ENDROOT
BRANCH   1   3
ATOM      3  C   UNL     1       1.770   1.629   1.169  1.00  0.00     0.065 A 
ATOM      4  N   UNL     1       2.131  -0.733   1.420  1.00  0.00    -0.197 N 
ATOM      5  C   UNL     1       1.508  -0.677   2.609  1.00  0.00     0.308 A 
ATOM      6  C   UNL     1       2.255   0.406   0.719  1.00  0.00     0.318 A 
ATOM      7  C   UNL     1       1.005   0.518   3.104  1.00  0.00     0.071 A 
ATOM      8  C   UNL     1       1.132   1.684   2.387  1.00  0.00     0.022 A 
BRANCH   4   9
ATOM      9  C   UNL     1       2.664  -1.996   0.893  1.00  0.00     0.438 C 
BRANCH   9  10
ATOM     10  C   UNL     1       1.614  -2.651   0.100  1.00  0.00     0.227 C 
ATOM     11  O   UNL     1       0.461  -2.114  -0.030  1.00  0.00    -0.287 OA
BRANCH  10  12
ATOM     12  C   UNL     1       1.810  -3.926  -0.573  1.00  0.00     0.024 A 
ATOM     13  C   UNL     1       0.802  -4.533  -1.315  1.00  0.00     0.012 A 
ATOM     14  C   UNL     1       3.011  -4.613  -0.518  1.00  0.00     0.012 A 
ATOM     15  C   UNL     1       0.989  -5.736  -1.951  1.00  0.00     0.001 A 
ATOM     16  C   UNL     1       3.234  -5.821  -1.143  1.00  0.00     0.001 A 
ATOM     17  C   UNL     1       2.190  -6.395  -1.879  1.00  0.00     0.000 A 
ENDBRANCH  10  12
ENDBRANCH   9  10
ENDBRANCH   4   9
ENDBRANCH   1   3
BRANCH   1  18
ATOM     18  N   UNL     1       0.849   3.562  -0.069  1.00  0.00    -0.540 NA
BRANCH  18  19
ATOM     19  N   UNL     1      -0.444   3.133  -0.259  1.00  0.00    -0.372 NA
ATOM     20  C   UNL     1      -0.789   2.232  -1.116  1.00  0.00     0.094 C 
BRANCH  20  21
ATOM     21  C   UNL     1      -2.146   1.787  -1.311  1.00  0.00    -0.009 A 
ATOM     22  C   UNL     1      -2.942   2.428  -2.228  1.00  0.00    -0.099 A 
ATOM     23  C   UNL     1      -2.683   0.732  -0.607  1.00  0.00    -0.010 A 
ATOM     24  C   UNL     1      -4.258   2.041  -2.460  1.00  0.00    -0.007 A 
ATOM     25  C   UNL     1      -1.937   0.036   0.337  1.00  0.00     0.009 A 
ATOM     26  C   UNL     1      -3.984   0.316  -0.806  1.00  0.00    -0.018 A 
ATOM     27  C   UNL     1      -4.769   0.970  -1.731  1.00  0.00     0.008 A 
ATOM     28  C   UNL     1      -2.458  -1.022   1.051  1.00  0.00     0.001 A 
ATOM     29  C   UNL     1      -4.521  -0.741  -0.102  1.00  0.00     0.009 A 
ATOM     30  C   UNL     1      -3.761  -1.419   0.834  1.00  0.00     0.001 A 
ATOM     31  O   UNL     1      -2.478   3.510  -2.988  1.00  0.00    -0.872 OA
ENDBRANCH  20  21
ENDBRANCH  18  19
ENDBRANCH   1  18
TORSDOF 7
