REMARK SMILES COc1cc(C2C(C#N)=C([NH3+])Oc3c2c(=O)oc2ccccc32)cc(OC)c1OC
REMARK SMILES IDX 6 1 7 2 8 3 9 4 10 5 12 6 13 7 14 8 15 9 16 10 17 11 18 12
REMARK SMILES IDX 19 13 20 14 21 15 22 16 23 17 5 18 3 19 4 20 28 21 25 22
REMARK SMILES IDX 24 23 2 24 1 25 29 26 30 27 26 28 27 29 11 30
REMARK H PARENT 11 31 11 32 11 33
ROOT
ATOM      1  C   UNL     1       0.779  -0.494  -1.114  1.00  0.00     0.112 C 
ATOM      2  C   UNL     1       2.118  -0.180  -0.572  1.00  0.00     0.142 C 
ATOM      3  C   UNL     1       3.191  -1.183  -0.679  1.00  0.00     0.106 C 
ATOM      4  N   UNL     1       4.044  -1.953  -0.763  1.00  0.00    -0.192 NA
ATOM      5  C   UNL     1       2.348   0.977   0.001  1.00  0.00     0.307 C 
ATOM      6  O   UNL     1       1.427   1.995   0.169  1.00  0.00    -0.411 OA
ATOM      7  C   UNL     1       0.148   1.798  -0.300  1.00  0.00     0.155 A 
ATOM      8  C   UNL     1      -0.168   0.595  -0.918  1.00  0.00     0.094 A 
ATOM      9  C   UNL     1      -1.491   0.485  -1.361  1.00  0.00     0.344 A 
ATOM     10  O   UNL     1      -1.788  -0.618  -1.929  1.00  0.00    -0.246 OA
ATOM     11  O   UNL     1      -2.355   1.446  -1.200  1.00  0.00    -0.422 OA
ATOM     12  C   UNL     1      -2.078   2.603  -0.613  1.00  0.00     0.142 A 
ATOM     13  C   UNL     1      -2.996   3.605  -0.451  1.00  0.00     0.048 A 
ATOM     14  C   UNL     1      -2.692   4.813   0.168  1.00  0.00     0.004 A 
ATOM     15  C   UNL     1      -1.409   5.006   0.636  1.00  0.00     0.001 A 
ATOM     16  C   UNL     1      -0.476   4.000   0.475  1.00  0.00     0.016 A 
ATOM     17  C   UNL     1      -0.798   2.796  -0.147  1.00  0.00     0.061 A 
ENDROOT
BRANCH   1  18
ATOM     18  C   UNL     1       0.331  -1.811  -0.584  1.00  0.00    -0.027 A 
ATOM     19  C   UNL     1      -0.707  -3.205   1.110  1.00  0.00     0.164 A 
ATOM     20  C   UNL     1      -0.330  -1.966   0.623  1.00  0.00     0.055 A 
ATOM     21  C   UNL     1      -0.425  -4.333   0.385  1.00  0.00     0.203 A 
ATOM     22  C   UNL     1       0.239  -4.211  -0.833  1.00  0.00     0.164 A 
ATOM     23  C   UNL     1       0.604  -2.965  -1.298  1.00  0.00     0.055 A 
BRANCH  19  24
ATOM     24  O   UNL     1      -1.362  -3.277   2.320  1.00  0.00    -0.493 OA
ATOM     25  C   UNL     1      -1.681  -2.132   3.085  1.00  0.00     0.278 C 
ENDBRANCH  19  24
BRANCH  21  26
ATOM     26  O   UNL     1      -0.769  -5.597   0.805  1.00  0.00    -0.490 OA
ATOM     27  C   UNL     1      -1.966  -6.259   0.466  1.00  0.00     0.278 C 
ENDBRANCH  21  26
BRANCH  22  28
ATOM     28  O   UNL     1       0.523  -5.352  -1.564  1.00  0.00    -0.493 OA
ATOM     29  C   UNL     1       1.200  -5.248  -2.803  1.00  0.00     0.278 C 
ENDBRANCH  22  28
ENDBRANCH   1  18
BRANCH   5  30
ATOM     30  N   UNL     1       3.679   1.215   0.507  1.00  0.00    -0.293 N 
ATOM     31  H   UNL     1       3.917   2.227   0.310  1.00  0.00     0.353 HD
ATOM     32  H   UNL     1       4.340   0.647  -0.050  1.00  0.00     0.353 HD
ATOM     33  H   UNL     1       3.730   1.026   1.523  1.00  0.00     0.353 HD
ENDBRANCH   5  30
TORSDOF 5
