REMARK SMILES Cc1ccc(OC(C)c2nc(-c3ccncc3)no2)cc1C
REMARK SMILES IDX 6 1 5 2 2 3 3 4 21 5 4 6 20 7 1 8 22 9 7 10 8 11 9 12 10 13
REMARK SMILES IDX 19 14 11 15 18 16 12 17 13 18 17 19 14 20 16 21 15 22
REMARK H PARENT
ROOT
ATOM      1  O   UNL     1      -0.208  -1.395   1.624  1.00  0.00    -0.481 OA
ENDROOT
BRANCH   1   2
ATOM      2  C   UNL     1      -1.465  -1.849   1.377  1.00  0.00     0.120 A 
ATOM      3  C   UNL     1      -4.018  -2.912   0.911  1.00  0.00    -0.048 A 
ATOM      4  C   UNL     1      -2.997  -3.693   1.401  1.00  0.00     0.007 A 
ATOM      5  C   UNL     1      -3.751  -1.585   0.654  1.00  0.00    -0.045 A 
ATOM      6  C   UNL     1      -1.742  -3.175   1.631  1.00  0.00     0.047 A 
ATOM      7  C   UNL     1      -2.480  -1.066   0.888  1.00  0.00     0.050 A 
ATOM      8  C   UNL     1      -5.389  -3.446   0.651  1.00  0.00     0.044 C 
ATOM      9  C   UNL     1      -4.838  -0.736   0.127  1.00  0.00     0.045 C 
ENDBRANCH   1   2
BRANCH   1  10
ATOM     10  C   UNL     1       0.320  -0.111   1.454  1.00  0.00     0.259 C 
ATOM     11  C   UNL     1       0.714   0.423   2.813  1.00  0.00     0.064 C 
BRANCH  10  12
ATOM     12  C   UNL     1       1.504  -0.120   0.525  1.00  0.00     0.267 A 
ATOM     13  N   UNL     1       1.798   0.708  -0.485  1.00  0.00    -0.188 NA
ATOM     14  O   UNL     1       2.477  -0.994   0.574  1.00  0.00    -0.335 OA
ATOM     15  C   UNL     1       2.965   0.340  -1.063  1.00  0.00     0.202 A 
ATOM     16  N   UNL     1       3.358  -0.739  -0.362  1.00  0.00    -0.057 NA
BRANCH  15  17
ATOM     17  C   UNL     1       3.649   0.974  -2.200  1.00  0.00     0.026 A 
ATOM     18  C   UNL     1       5.013   0.798  -2.367  1.00  0.00     0.032 A 
ATOM     19  C   UNL     1       2.967   1.746  -3.113  1.00  0.00     0.032 A 
ATOM     20  C   UNL     1       5.630   1.402  -3.439  1.00  0.00     0.111 A 
ATOM     21  C   UNL     1       3.596   2.342  -4.177  1.00  0.00     0.111 A 
ATOM     22  N   UNL     1       4.926   2.145  -4.303  1.00  0.00    -0.265 NA
ENDBRANCH  15  17
ENDBRANCH  10  12
ENDBRANCH   1  10
TORSDOF 4
