REMARK SMILES Cc1ccc2c(c1)C(=NO)CC(O)(C(F)(F)F)O2
REMARK SMILES IDX 1 1 2 2 3 3 4 4 5 5 6 6 7 7 8 8 9 9 11 10 12 11 18 12 10 13
REMARK SMILES IDX 13 15 14 17 15 18 16 19 17 20
REMARK H PARENT 10 14 13 16
ROOT
ATOM      1  C   UNL     1      -2.336  -1.466   2.876  1.00  0.00     0.044 C 
ATOM      2  C   UNL     1      -1.559  -0.626   1.921  1.00  0.00    -0.050 A 
ATOM      3  C   UNL     1      -1.625   0.750   1.945  1.00  0.00     0.007 A 
ATOM      4  C   UNL     1      -0.910   1.539   1.066  1.00  0.00     0.047 A 
ATOM      5  C   UNL     1      -0.086   0.973   0.113  1.00  0.00     0.132 A 
ATOM      6  C   UNL     1      -0.022  -0.406   0.091  1.00  0.00     0.042 A 
ATOM      7  C   UNL     1      -0.737  -1.196   0.970  1.00  0.00     0.017 A 
ATOM      8  C   UNL     1       0.860  -0.998  -0.929  1.00  0.00     0.097 C 
ATOM      9  N   UNL     1       0.698  -2.249  -1.197  1.00  0.00    -0.093 NA
ATOM     10  C   UNL     1       1.853  -0.129  -1.567  1.00  0.00     0.150 C 
ATOM     11  C   UNL     1       1.198   1.176  -1.966  1.00  0.00     0.311 C 
ATOM     12  O   UNL     1       0.647   1.738  -0.787  1.00  0.00    -0.452 OA
ENDROOT
BRANCH   9  13
ATOM     13  O   UNL     1       1.495  -2.851  -2.142  1.00  0.00    -0.411 OA
ATOM     14  H   UNL     1       2.482  -2.988  -2.041  1.00  0.00     0.330 HD
ENDBRANCH   9  13
BRANCH  11  15
ATOM     15  O   UNL     1       2.120   2.048  -2.522  1.00  0.00    -0.349 OA
ATOM     16  H   UNL     1       1.724   2.956  -2.484  1.00  0.00     0.215 HD
ENDBRANCH  11  15
BRANCH  11  17
ATOM     17  C   UNL     1       0.140   0.876  -2.997  1.00  0.00     0.455 C 
ATOM     18  F   UNL     1       0.780   0.284  -4.075  1.00  0.00    -0.164 F 
ATOM     19  F   UNL     1      -0.555   1.981  -3.396  1.00  0.00    -0.164 F 
ATOM     20  F   UNL     1      -0.755  -0.082  -2.510  1.00  0.00    -0.164 F 
ENDBRANCH  11  17
TORSDOF 3
