REMARK SMILES Cc1ccc2c(c1)/C(=N/O)CC(O)(C(F)(F)F)O2
REMARK SMILES IDX 1 1 2 2 3 3 4 4 5 5 6 6 7 7 8 8 9 9 11 10 12 11 18 12 10 13
REMARK SMILES IDX 13 15 14 17 15 18 16 19 17 20
REMARK H PARENT 10 14 13 16
ROOT
ATOM      1  C   UNL     1      -2.442  -1.546   2.748  1.00  0.00     0.044 C 
ATOM      2  C   UNL     1      -1.632  -0.685   1.845  1.00  0.00    -0.050 A 
ATOM      3  C   UNL     1      -1.747   0.689   1.870  1.00  0.00     0.007 A 
ATOM      4  C   UNL     1      -1.000   1.497   1.037  1.00  0.00     0.047 A 
ATOM      5  C   UNL     1      -0.100   0.967   0.135  1.00  0.00     0.132 A 
ATOM      6  C   UNL     1       0.018  -0.409   0.108  1.00  0.00     0.042 A 
ATOM      7  C   UNL     1      -0.733  -1.218   0.945  1.00  0.00     0.017 A 
ATOM      8  C   UNL     1       0.970  -0.987  -0.845  1.00  0.00     0.097 C 
ATOM      9  N   UNL     1       0.980  -2.293  -0.951  1.00  0.00    -0.093 NA
ATOM     10  C   UNL     1       1.864  -0.131  -1.634  1.00  0.00     0.150 C 
ATOM     11  C   UNL     1       1.207   1.210  -1.904  1.00  0.00     0.311 C 
ATOM     12  O   UNL     1       0.665   1.754  -0.715  1.00  0.00    -0.452 OA
ENDROOT
BRANCH   9  13
ATOM     13  O   UNL     1       1.890  -2.829  -1.860  1.00  0.00    -0.411 OA
ATOM     14  H   UNL     1       2.865  -2.944  -1.596  1.00  0.00     0.330 HD
ENDBRANCH   9  13
BRANCH  11  15
ATOM     15  O   UNL     1       2.114   2.101  -2.461  1.00  0.00    -0.349 OA
ATOM     16  H   UNL     1       1.576   2.872  -2.800  1.00  0.00     0.215 HD
ENDBRANCH  11  15
BRANCH  11  17
ATOM     17  C   UNL     1       0.118   0.976  -2.933  1.00  0.00     0.455 C 
ATOM     18  F   UNL     1       0.694   0.469  -4.079  1.00  0.00    -0.164 F 
ATOM     19  F   UNL     1      -0.537   2.147  -3.260  1.00  0.00    -0.164 F 
ATOM     20  F   UNL     1      -0.802   0.043  -2.494  1.00  0.00    -0.164 F 
ENDBRANCH  11  17
TORSDOF 3
