REMARK SMILES Cn1c(SCc2c(F)cccc2Cl)nc2c(=O)nc[nH]c21
REMARK SMILES IDX 4 1 3 2 2 3 21 4 14 5 20 6 15 7 19 8 16 9 18 10 17 11 1 12
REMARK SMILES IDX 5 14 6 15 7 16 12 17 9 18 11 19 10 20 8 21 13 22
REMARK H PARENT 20 13
ROOT
ATOM      1  S   UNL     1      -0.209  -2.314   1.152  1.00  0.00    -0.083 SA
ENDROOT
BRANCH   1   2
ATOM      2  C   UNL     1      -1.164  -1.837  -0.196  1.00  0.00     0.170 A 
ATOM      3  N   UNL     1      -1.408  -0.635  -0.723  1.00  0.00    -0.308 N 
ATOM      4  C   UNL     1      -2.193  -0.731  -1.839  1.00  0.00     0.145 A 
ATOM      5  N   UNL     1      -1.831  -2.726  -1.034  1.00  0.00    -0.215 NA
ATOM      6  N   UNL     1      -2.687   0.156  -2.709  1.00  0.00    -0.330 N 
ATOM      7  C   UNL     1      -2.434  -2.076  -1.999  1.00  0.00     0.174 A 
ATOM      8  C   UNL     1      -3.442  -0.227  -3.781  1.00  0.00     0.202 A 
ATOM      9  C   UNL     1      -3.207  -2.473  -3.096  1.00  0.00     0.300 A 
ATOM     10  N   UNL     1      -3.658  -1.542  -3.911  1.00  0.00    -0.198 NA
ATOM     11  O   UNL     1      -3.414  -3.705  -3.211  1.00  0.00    -0.265 OA
ATOM     12  C   UNL     1      -0.961   0.651  -0.244  1.00  0.00     0.154 C 
ATOM     13  H   UNL     1      -2.476   1.176  -2.547  1.00  0.00     0.169 HD
ENDBRANCH   1   2
BRANCH   1  14
ATOM     14  C   UNL     1       0.703  -1.256   2.150  1.00  0.00     0.118 C 
BRANCH  14  15
ATOM     15  C   UNL     1       1.810  -0.453   1.656  1.00  0.00     0.017 A 
ATOM     16  C   UNL     1       1.759   0.922   1.739  1.00  0.00     0.128 A 
ATOM     17  C   UNL     1       2.924  -1.004   1.030  1.00  0.00     0.048 A 
ATOM     18  C   UNL     1       2.760   1.730   1.232  1.00  0.00     0.039 A 
ATOM     19  C   UNL     1       3.931  -0.240   0.519  1.00  0.00     0.021 A 
ATOM     20  C   UNL     1       3.847   1.139   0.621  1.00  0.00     0.005 A 
ATOM     21  F   UNL     1       0.734   1.563   2.353  1.00  0.00    -0.207 F 
ATOM     22  Cl  UNL     1       2.963  -2.759   0.893  1.00  0.00    -0.084 Cl
ENDBRANCH  14  15
ENDBRANCH   1  14
TORSDOF 3
