REMARK SMILES Cn1c(SCc2c(F)cccc2Cl)nc2c(=O)nc[n-]c21
REMARK SMILES IDX 4 1 3 2 2 3 21 4 14 5 20 6 15 7 19 8 16 9 18 10 17 11 1 12
REMARK SMILES IDX 5 13 6 14 7 15 12 16 9 17 11 18 10 19 8 20 13 21
REMARK H PARENT
ROOT
ATOM      1  S   UNL     1      -0.167  -1.092   2.317  1.00  0.00    -0.099 SA
ENDROOT
BRANCH   1   2
ATOM      2  C   UNL     1       1.098  -0.854   1.118  1.00  0.00     0.113 A 
ATOM      3  N   UNL     1       1.928   0.192   0.958  1.00  0.00    -0.381 N 
ATOM      4  C   UNL     1       2.768  -0.013  -0.078  1.00  0.00     0.036 A 
ATOM      5  N   UNL     1       1.428  -1.735   0.158  1.00  0.00    -0.234 NA
ATOM      6  N   UNL     1       3.766   0.713  -0.640  1.00  0.00    -0.364 NA
ATOM      7  C   UNL     1       2.448  -1.253  -0.595  1.00  0.00     0.127 A 
ATOM      8  C   UNL     1       4.449   0.225  -1.708  1.00  0.00     0.045 A 
ATOM      9  C   UNL     1       3.153  -1.729  -1.677  1.00  0.00     0.229 A 
ATOM     10  N   UNL     1       4.145  -0.987  -2.222  1.00  0.00    -0.332 NA
ATOM     11  O   UNL     1       2.878  -2.844  -2.156  1.00  0.00    -0.284 OA
ATOM     12  C   UNL     1       1.958   1.408   1.761  1.00  0.00     0.059 C 
ENDBRANCH   1   2
BRANCH   1  13
ATOM     13  C   UNL     1      -1.778  -0.467   1.820  1.00  0.00     0.117 C 
BRANCH  13  14
ATOM     14  C   UNL     1      -2.363  -1.199   0.660  1.00  0.00     0.017 A 
ATOM     15  C   UNL     1      -1.929  -0.962  -0.632  1.00  0.00     0.128 A 
ATOM     16  C   UNL     1      -3.362  -2.149   0.834  1.00  0.00     0.048 A 
ATOM     17  C   UNL     1      -2.485  -1.655  -1.682  1.00  0.00     0.039 A 
ATOM     18  C   UNL     1      -3.918  -2.843  -0.217  1.00  0.00     0.021 A 
ATOM     19  C   UNL     1      -3.490  -2.610  -1.505  1.00  0.00     0.005 A 
ATOM     20  F   UNL     1      -0.949  -0.022  -0.826  1.00  0.00    -0.207 F 
ATOM     21  Cl  UNL     1      -3.927  -2.468   2.482  1.00  0.00    -0.084 Cl
ENDBRANCH  13  14
ENDBRANCH   1  13
TORSDOF 3
