REMARK SMILES COC(=O)c1sccc1N[NH2+]C=C1C=Nc2ccccc21
REMARK SMILES IDX 5 1 6 2 7 3 8 4 9 5 3 6 4 7 2 8 1 9 10 10 11 12 12 15 13 16
REMARK SMILES IDX 14 17 21 18 15 19 20 20 16 21 19 22 17 23 18 24
REMARK H PARENT 10 11 11 13 11 14
ROOT
ATOM      1  C   UNL     1       1.346   0.501   1.946  1.00  0.00     0.141 A 
ATOM      2  S   UNL     1       1.872  -0.398   3.429  1.00  0.00    -0.135 S 
ATOM      3  C   UNL     1       3.316  -1.107   2.639  1.00  0.00     0.068 A 
ATOM      4  C   UNL     1       3.295  -0.620   1.334  1.00  0.00     0.043 A 
ATOM      5  C   UNL     1       2.281   0.199   1.005  1.00  0.00     0.111 A 
ENDROOT
BRANCH   1   6
ATOM      6  C   UNL     1       0.165   1.340   1.897  1.00  0.00     0.350 C 
ATOM      7  O   UNL     1      -0.521   1.440   2.951  1.00  0.00    -0.245 OA
BRANCH   6   8
ATOM      8  O   UNL     1      -0.272   2.032   0.804  1.00  0.00    -0.465 OA
ATOM      9  C   UNL     1      -1.463   2.829   0.888  1.00  0.00     0.282 C 
ENDBRANCH   6   8
ENDBRANCH   1   6
BRANCH   5  10
ATOM     10  N   UNL     1       2.138   0.770  -0.336  1.00  0.00    -0.234 N 
ATOM     11  H   UNL     1       2.242   1.785  -0.487  1.00  0.00     0.227 HD
BRANCH  10  12
ATOM     12  N   UNL     1       1.857  -0.040  -1.436  1.00  0.00    -0.220 N 
ATOM     13  H   UNL     1       1.497   0.539  -2.236  1.00  0.00     0.382 HD
ATOM     14  H   UNL     1       2.753  -0.499  -1.764  1.00  0.00     0.382 HD
BRANCH  12  15
ATOM     15  C   UNL     1       0.943  -1.076  -1.124  1.00  0.00     0.257 C 
ATOM     16  C   UNL     1      -0.345  -0.925  -1.314  1.00  0.00     0.058 C 
ATOM     17  C   UNL     1      -0.979   0.292  -1.859  1.00  0.00     0.126 C 
ATOM     18  C   UNL     1      -1.414  -1.856  -1.054  1.00  0.00     0.014 A 
ATOM     19  N   UNL     1      -2.268   0.090  -1.908  1.00  0.00    -0.255 NA
ATOM     20  C   UNL     1      -1.480  -3.148  -0.551  1.00  0.00     0.011 A 
ATOM     21  C   UNL     1      -2.591  -1.208  -1.428  1.00  0.00     0.071 A 
ATOM     22  C   UNL     1      -2.675  -3.807  -0.410  1.00  0.00     0.001 A 
ATOM     23  C   UNL     1      -3.783  -1.866  -1.287  1.00  0.00     0.029 A 
ATOM     24  C   UNL     1      -3.842  -3.148  -0.787  1.00  0.00     0.002 A 
ENDBRANCH  12  15
ENDBRANCH  10  12
ENDBRANCH   5  10
TORSDOF 5
