REMARK SMILES O=C(C[n+]1cccc(NC(=O)c2ccccc2)c1)c1ccc(NC(=O)c2ccccc2)cc1
REMARK SMILES IDX 1 1 2 2 3 3 4 4 5 5 18 6 6 7 8 8 7 9 9 10 10 11 11 12 12 14
REMARK SMILES IDX 13 15 17 16 14 17 16 18 15 19 19 20 20 21 33 22 21 23 32 24
REMARK SMILES IDX 22 25 23 26 24 27 25 28 26 30 27 31 31 32 28 33 30 34 29 35
REMARK H PARENT 9 13 23 29
ROOT
ATOM      1  O   UNL     1      -3.320  -2.209   3.561  1.00  0.00    -0.287 OA
ATOM      2  C   UNL     1      -2.099  -2.012   3.350  1.00  0.00     0.227 C 
ENDROOT
BRANCH   2   3
ATOM      3  C   UNL     1      -1.344  -1.205   4.304  1.00  0.00     0.438 C 
BRANCH   3   4
ATOM      4  N   UNL     1      -1.453   0.205   4.127  1.00  0.00    -0.195 N 
ATOM      5  C   UNL     1      -2.438   0.870   4.769  1.00  0.00     0.308 A 
ATOM      6  C   UNL     1      -0.624   0.938   3.349  1.00  0.00     0.334 A 
ATOM      7  C   UNL     1      -2.633   2.227   4.670  1.00  0.00     0.073 A 
ATOM      8  C   UNL     1      -0.769   2.301   3.211  1.00  0.00     0.106 A 
ATOM      9  C   UNL     1      -1.775   2.973   3.867  1.00  0.00     0.038 A 
BRANCH   8  10
ATOM     10  N   UNL     1       0.143   3.002   2.376  1.00  0.00    -0.317 N 
ATOM     11  C   UNL     1      -0.062   3.215   0.995  1.00  0.00     0.255 C 
ATOM     12  O   UNL     1      -1.135   2.733   0.516  1.00  0.00    -0.269 OA
ATOM     13  H   UNL     1       1.012   3.381   2.807  1.00  0.00     0.170 HD
BRANCH  11  14
ATOM     14  C   UNL     1       0.825   3.920   0.099  1.00  0.00     0.040 A 
ATOM     15  C   UNL     1       0.517   4.055  -1.238  1.00  0.00     0.014 A 
ATOM     16  C   UNL     1       2.015   4.494   0.534  1.00  0.00     0.014 A 
ATOM     17  C   UNL     1       1.341   4.720  -2.095  1.00  0.00     0.001 A 
ATOM     18  C   UNL     1       2.855   5.168  -0.326  1.00  0.00     0.001 A 
ATOM     19  C   UNL     1       2.515   5.282  -1.654  1.00  0.00     0.000 A 
ENDBRANCH  11  14
ENDBRANCH   8  10
ENDBRANCH   3   4
ENDBRANCH   2   3
BRANCH   2  20
ATOM     20  C   UNL     1      -1.536  -2.630   2.134  1.00  0.00     0.024 A 
ATOM     21  C   UNL     1      -0.210  -2.500   1.817  1.00  0.00     0.014 A 
ATOM     22  C   UNL     1      -2.346  -3.355   1.296  1.00  0.00     0.014 A 
ATOM     23  C   UNL     1       0.306  -3.075   0.694  1.00  0.00     0.027 A 
ATOM     24  C   UNL     1      -1.810  -3.925   0.174  1.00  0.00     0.027 A 
ATOM     25  C   UNL     1      -0.482  -3.815  -0.175  1.00  0.00     0.041 A 
BRANCH  25  26
ATOM     26  N   UNL     1       0.033  -4.431  -1.351  1.00  0.00    -0.322 N 
ATOM     27  C   UNL     1       0.110  -3.802  -2.613  1.00  0.00     0.255 C 
ATOM     28  O   UNL     1      -0.311  -2.616  -2.671  1.00  0.00    -0.269 OA
ATOM     29  H   UNL     1       0.367  -5.403  -1.246  1.00  0.00     0.170 HD
BRANCH  27  30
ATOM     30  C   UNL     1       0.634  -4.429  -3.816  1.00  0.00     0.040 A 
ATOM     31  C   UNL     1       1.030  -5.747  -3.876  1.00  0.00     0.014 A 
ATOM     32  C   UNL     1       0.762  -3.682  -4.976  1.00  0.00     0.014 A 
ATOM     33  C   UNL     1       1.527  -6.286  -5.037  1.00  0.00     0.001 A 
ATOM     34  C   UNL     1       1.259  -4.219  -6.137  1.00  0.00     0.001 A 
ATOM     35  C   UNL     1       1.649  -5.537  -6.177  1.00  0.00     0.000 A 
ENDBRANCH  27  30
ENDBRANCH  25  26
ENDBRANCH   2  20
TORSDOF 7
