REMARK SMILES O=c1c([O-])c(-c2ccccc2)oc2cc([O-])cc([O-])c12
REMARK SMILES IDX 1 1 2 2 3 3 4 4 5 5 12 6 13 7 14 8 15 9 16 10 17 11 18 12
REMARK SMILES IDX 19 13 20 14 6 15 7 16 11 17 8 18 10 19 9 20
REMARK H PARENT
ROOT
ATOM      1  O   UNL     1      -3.498  -0.713  -0.515  1.00  0.00    -0.290 OA
ATOM      2  C   UNL     1      -2.281  -0.495  -0.689  1.00  0.00     0.184 A 
ATOM      3  C   UNL     1      -1.485  -0.405   0.472  1.00  0.00    -0.014 A 
ATOM      4  O   UNL     1      -2.064  -0.556   1.702  1.00  0.00    -0.867 OA
ATOM      5  C   UNL     1      -0.151  -0.168   0.315  1.00  0.00     0.130 A 
ATOM      6  O   UNL     1       0.342  -0.030  -0.933  1.00  0.00    -0.457 OA
ATOM      7  C   UNL     1      -0.373  -0.110  -1.992  1.00  0.00     0.137 A 
ATOM      8  C   UNL     1       0.188   0.038  -3.231  1.00  0.00     0.039 A 
ATOM      9  C   UNL     1      -0.552  -0.042  -4.391  1.00  0.00    -0.106 A 
ATOM     10  O   UNL     1       0.050   0.114  -5.640  1.00  0.00    -0.872 OA
ATOM     11  C   UNL     1      -1.924  -0.284  -4.296  1.00  0.00    -0.016 A 
ATOM     12  C   UNL     1      -2.518  -0.437  -3.070  1.00  0.00    -0.094 A 
ATOM     13  O   UNL     1      -3.873  -0.675  -2.986  1.00  0.00    -0.872 OA
ATOM     14  C   UNL     1      -1.737  -0.349  -1.945  1.00  0.00     0.056 A 
ENDROOT
BRANCH   5  15
ATOM     15  C   UNL     1       0.769  -0.054   1.432  1.00  0.00     0.017 A 
ATOM     16  C   UNL     1       0.487  -0.158   2.757  1.00  0.00     0.012 A 
ATOM     17  C   UNL     1       2.121   0.192   1.139  1.00  0.00     0.012 A 
ATOM     18  C   UNL     1       1.444  -0.034   3.753  1.00  0.00     0.001 A 
ATOM     19  C   UNL     1       3.083   0.318   2.115  1.00  0.00     0.001 A 
ATOM     20  C   UNL     1       2.755   0.206   3.446  1.00  0.00     0.000 A 
ENDBRANCH   5  15
TORSDOF 1
