REMARK SMILES CC(=O)OC(OC(C)=O)C12C=CC(O1)C1C(=O)N(c3cccc(C(F)(F)F)c3)C(=O)C12
REMARK SMILES IDX 10 1 11 2 12 3 13 4 14 5 15 6 16 7 17 8 18 9 29 10 30 11
REMARK SMILES IDX 31 12 5 13 4 14 2 15 3 16 1 17 6 18 7 19 9 20 8 21 19 22
REMARK SMILES IDX 20 23 28 24 21 25 23 26 22 27 24 28 25 29 26 30 27 31
REMARK H PARENT
ROOT
ATOM      1  C   UNL     1       0.218   0.071   1.571  1.00  0.00     0.173 C 
ATOM      2  C   UNL     1       0.743   0.602   0.260  1.00  0.00     0.015 C 
ATOM      3  C   UNL     1       0.242   1.828   0.148  1.00  0.00     0.004 C 
ATOM      4  C   UNL     1      -0.605   2.008   1.358  1.00  0.00     0.156 C 
ATOM      5  O   UNL     1       0.168   1.282   2.298  1.00  0.00    -0.354 OA
ATOM      6  C   UNL     1      -1.817   1.127   1.182  1.00  0.00     0.128 C 
ATOM      7  C   UNL     1      -2.198   0.996  -0.246  1.00  0.00     0.240 C 
ATOM      8  O   UNL     1      -2.597   1.939  -1.012  1.00  0.00    -0.274 OA
ATOM      9  N   UNL     1      -2.067  -0.346  -0.693  1.00  0.00    -0.250 N 
ATOM     10  C   UNL     1      -1.613  -1.128   0.399  1.00  0.00     0.241 C 
ATOM     11  O   UNL     1      -1.554  -2.381   0.402  1.00  0.00    -0.274 OA
ATOM     12  C   UNL     1      -1.237  -0.249   1.492  1.00  0.00     0.139 C 
ENDROOT
BRANCH   1  13
ATOM     13  C   UNL     1       1.082  -0.947   2.184  1.00  0.00     0.406 C 
BRANCH  13  14
ATOM     14  O   UNL     1       0.623  -1.257   3.466  1.00  0.00    -0.422 OA
BRANCH  14  15
ATOM     15  C   UNL     1       0.199  -2.484   3.893  1.00  0.00     0.305 C 
ATOM     16  O   UNL     1       0.218  -3.443   3.058  1.00  0.00    -0.253 OA
ATOM     17  C   UNL     1      -0.284  -2.737   5.298  1.00  0.00     0.139 C 
ENDBRANCH  14  15
ENDBRANCH  13  14
BRANCH  13  18
ATOM     18  O   UNL     1       2.421  -0.430   2.200  1.00  0.00    -0.422 OA
BRANCH  18  19
ATOM     19  C   UNL     1       3.442  -1.087   1.509  1.00  0.00     0.305 C 
ATOM     20  O   UNL     1       3.105  -2.136   0.890  1.00  0.00    -0.253 OA
ATOM     21  C   UNL     1       4.837  -0.622   1.476  1.00  0.00     0.139 C 
ENDBRANCH  18  19
ENDBRANCH  13  18
ENDBRANCH   1  13
BRANCH   9  22
ATOM     22  C   UNL     1      -2.350  -0.808  -2.028  1.00  0.00     0.052 A 
ATOM     23  C   UNL     1      -3.600  -1.254  -2.403  1.00  0.00     0.027 A 
ATOM     24  C   UNL     1      -1.355  -0.811  -2.972  1.00  0.00     0.040 A 
ATOM     25  C   UNL     1      -3.887  -1.700  -3.678  1.00  0.00     0.003 A 
ATOM     26  C   UNL     1      -1.621  -1.256  -4.264  1.00  0.00     0.058 A 
ATOM     27  C   UNL     1      -2.875  -1.704  -4.639  1.00  0.00     0.013 A 
BRANCH  26  28
ATOM     28  C   UNL     1      -0.542  -1.257  -5.277  1.00  0.00     0.416 C 
ATOM     29  F   UNL     1      -0.795  -0.345  -6.283  1.00  0.00    -0.166 F 
ATOM     30  F   UNL     1       0.661  -0.900  -4.672  1.00  0.00    -0.166 F 
ATOM     31  F   UNL     1      -0.389  -2.494  -5.886  1.00  0.00    -0.166 F 
ENDBRANCH  26  28
ENDBRANCH   9  22
TORSDOF 7
