REMARK SMILES COc1ccc(-c2cc3ccc(O)cc3oc2=O)cc1
REMARK SMILES IDX 7 1 8 2 9 3 10 4 11 5 12 6 14 7 15 8 16 9 17 10 18 11 6 12
REMARK SMILES IDX 3 13 4 14 20 15 5 16 19 17 2 18 1 19 13 20
REMARK H PARENT 13 21
ROOT
ATOM      1  C   UNL     1       0.368  -0.423  -0.449  1.00  0.00     0.068 A 
ATOM      2  C   UNL     1       0.685   0.894  -0.143  1.00  0.00     0.028 A 
ATOM      3  C   UNL     1       2.010   1.259  -0.058  1.00  0.00     0.018 A 
ATOM      4  C   UNL     1       2.353   2.575   0.248  1.00  0.00     0.016 A 
ATOM      5  C   UNL     1       3.676   2.943   0.334  1.00  0.00     0.047 A 
ATOM      6  C   UNL     1       4.697   2.028   0.123  1.00  0.00     0.119 A 
ATOM      7  C   UNL     1       4.335   0.732  -0.178  1.00  0.00     0.094 A 
ATOM      8  C   UNL     1       3.026   0.340  -0.270  1.00  0.00     0.142 A 
ATOM      9  O   UNL     1       2.685  -0.895  -0.557  1.00  0.00    -0.422 OA
ATOM     10  C   UNL     1       1.434  -1.280  -0.647  1.00  0.00     0.344 A 
ATOM     11  O   UNL     1       1.174  -2.478  -0.926  1.00  0.00    -0.246 OA
ENDROOT
BRANCH   1  12
ATOM     12  C   UNL     1      -1.017  -0.863  -0.552  1.00  0.00    -0.011 A 
ATOM     13  C   UNL     1      -3.662  -1.718  -0.740  1.00  0.00     0.118 A 
ATOM     14  C   UNL     1      -2.736  -2.466  -0.057  1.00  0.00     0.047 A 
ATOM     15  C   UNL     1      -3.273  -0.541  -1.331  1.00  0.00     0.047 A 
ATOM     16  C   UNL     1      -1.408  -2.043   0.041  1.00  0.00     0.013 A 
ATOM     17  C   UNL     1      -1.953  -0.121  -1.233  1.00  0.00     0.013 A 
BRANCH  13  18
ATOM     18  O   UNL     1      -4.967  -2.183  -0.806  1.00  0.00    -0.497 OA
ATOM     19  C   UNL     1      -5.350  -3.396  -0.192  1.00  0.00     0.278 C 
ENDBRANCH  13  18
ENDBRANCH   1  12
BRANCH   6  20
ATOM     20  O   UNL     1       6.035   2.386   0.207  1.00  0.00    -0.508 OA
ATOM     21  H   UNL     1       6.412   2.595   1.132  1.00  0.00     0.293 HD
ENDBRANCH   6  20
TORSDOF 3
