REMARK SMILES CCC(C)c1nn2c(=O)c(NC(=O)c3ccc(OC)c(OC)c3)cnc2s1
REMARK SMILES IDX 5 1 6 2 7 3 8 4 9 5 10 6 24 7 25 8 26 9 27 10 3 11 4 12 2 13
REMARK SMILES IDX 1 14 11 15 12 16 13 17 14 19 15 20 23 21 16 22 20 23 17 24
REMARK SMILES IDX 21 25 22 26 18 27 19 28
REMARK H PARENT 11 18
ROOT
ATOM      1  C   UNL     1      -0.579   3.351   2.855  1.00  0.00     0.120 A 
ATOM      2  N   UNL     1      -0.583   2.270   2.402  1.00  0.00    -0.156 NA
ATOM      3  N   UNL     1       0.315   1.614   1.761  1.00  0.00    -0.166 N 
ATOM      4  C   UNL     1       0.276   0.339   1.241  1.00  0.00     0.298 A 
ATOM      5  O   UNL     1      -0.761  -0.381   1.359  1.00  0.00    -0.265 OA
ATOM      6  C   UNL     1       1.315  -0.241   0.576  1.00  0.00     0.128 A 
ATOM      7  C   UNL     1       2.491   0.459   0.394  1.00  0.00     0.146 A 
ATOM      8  N   UNL     1       2.542   1.730   0.908  1.00  0.00    -0.225 NA
ATOM      9  C   UNL     1       1.466   2.217   1.548  1.00  0.00     0.215 A 
ATOM     10  S   UNL     1       1.206   3.859   2.344  1.00  0.00    -0.079 S 
ENDROOT
BRANCH   1  11
ATOM     11  C   UNL     1      -1.372   4.373   3.605  1.00  0.00     0.047 C 
ATOM     12  C   UNL     1      -1.902   3.795   4.907  1.00  0.00     0.015 C 
BRANCH  11  13
ATOM     13  C   UNL     1      -2.616   4.657   2.752  1.00  0.00     0.007 C 
ATOM     14  C   UNL     1      -3.485   5.632   3.481  1.00  0.00     0.004 C 
ENDBRANCH  11  13
ENDBRANCH   1  11
BRANCH   6  15
ATOM     15  N   UNL     1       1.203  -1.588   0.056  1.00  0.00    -0.316 N 
ATOM     16  C   UNL     1       0.738  -1.917  -1.225  1.00  0.00     0.255 C 
ATOM     17  O   UNL     1       0.396  -0.965  -1.971  1.00  0.00    -0.269 OA
ATOM     18  H   UNL     1       1.492  -2.350   0.692  1.00  0.00     0.170 HD
BRANCH  16  19
ATOM     19  C   UNL     1       0.625  -3.278  -1.750  1.00  0.00     0.044 A 
ATOM     20  C   UNL     1       0.975  -4.389  -1.011  1.00  0.00     0.018 A 
ATOM     21  C   UNL     1       0.156  -3.520  -3.029  1.00  0.00     0.064 A 
ATOM     22  C   UNL     1       0.856  -5.660  -1.536  1.00  0.00     0.051 A 
ATOM     23  C   UNL     1       0.034  -4.785  -3.561  1.00  0.00     0.161 A 
ATOM     24  C   UNL     1       0.386  -5.891  -2.815  1.00  0.00     0.160 A 
BRANCH  23  25
ATOM     25  O   UNL     1      -0.438  -5.013  -4.845  1.00  0.00    -0.493 OA
ATOM     26  C   UNL     1      -0.837  -4.010  -5.731  1.00  0.00     0.278 C 
ENDBRANCH  23  25
BRANCH  24  27
ATOM     27  O   UNL     1       0.275  -7.179  -3.323  1.00  0.00    -0.493 OA
ATOM     28  C   UNL     1       0.653  -8.268  -2.505  1.00  0.00     0.278 C 
ENDBRANCH  24  27
ENDBRANCH  16  19
ENDBRANCH   6  15
TORSDOF 6
