REMARK SMILES CC12CCC3C(CCC4CCCCC43C)C1CCC2N
REMARK SMILES IDX 1 1 2 2 3 3 4 4 5 5 6 6 7 7 8 8 9 9 10 10 11 11 12 12 13 13
REMARK SMILES IDX 14 14 15 15 16 16 17 17 18 18 19 19 20 20
REMARK H PARENT 20 21 20 22
ROOT
ATOM      1  C   UNL     1       0.842  -0.299  -2.723  1.00  0.00     0.013 C 
ATOM      2  C   UNL     1      -0.047  -1.442  -2.311  1.00  0.00    -0.014 C 
ATOM      3  C   UNL     1      -1.443  -1.017  -2.016  1.00  0.00     0.009 C 
ATOM      4  C   UNL     1      -1.417  -0.065  -0.845  1.00  0.00     0.005 C 
ATOM      5  C   UNL     1      -0.817  -0.711   0.366  1.00  0.00    -0.001 C 
ATOM      6  C   UNL     1       0.611  -1.193   0.066  1.00  0.00    -0.004 C 
ATOM      7  C   UNL     1       1.142  -1.987   1.240  1.00  0.00     0.004 C 
ATOM      8  C   UNL     1       0.918  -1.309   2.560  1.00  0.00     0.004 C 
ATOM      9  C   UNL     1       0.447   0.084   2.290  1.00  0.00    -0.005 C 
ATOM     10  C   UNL     1       0.467   0.977   3.506  1.00  0.00     0.004 C 
ATOM     11  C   UNL     1       0.384   2.413   2.979  1.00  0.00     0.000 C 
ATOM     12  C   UNL     1      -0.111   2.472   1.573  1.00  0.00     0.001 C 
ATOM     13  C   UNL     1      -1.303   1.523   1.418  1.00  0.00     0.007 C 
ATOM     14  C   UNL     1      -0.914   0.087   1.604  1.00  0.00    -0.027 C 
ATOM     15  C   UNL     1      -1.929  -0.526   2.580  1.00  0.00     0.012 C 
ATOM     16  C   UNL     1       0.454  -2.151  -1.071  1.00  0.00    -0.000 C 
ATOM     17  C   UNL     1       1.687  -2.810  -1.539  1.00  0.00     0.006 C 
ATOM     18  C   UNL     1       1.203  -3.443  -2.849  1.00  0.00     0.019 C 
ATOM     19  C   UNL     1       0.078  -2.523  -3.342  1.00  0.00     0.056 C 
ENDROOT
BRANCH  19  20
ATOM     20  N   UNL     1       0.476  -2.031  -4.627  1.00  0.00    -0.327 NA
ATOM     21  H   UNL     1       1.401  -1.578  -4.645  1.00  0.00     0.119 HD
ATOM     22  H   UNL     1      -0.259  -1.554  -5.155  1.00  0.00     0.119 HD
ENDBRANCH  19  20
TORSDOF 1
