REMARK SMILES CN(C)c1ccc(CN2CCCC2)cc1
REMARK SMILES IDX 4 1 5 2 6 3 7 4 14 5 15 6 2 7 1 8 3 9 8 10 9 11 10 12 13 13
REMARK SMILES IDX 11 14 12 15
REMARK H PARENT
ROOT
ATOM      1  C   UNL     1      -1.926  -0.786   1.023  1.00  0.00     0.036 A 
ATOM      2  C   UNL     1      -1.425   0.488   0.867  1.00  0.00     0.026 A 
ATOM      3  C   UNL     1      -0.085   0.752   0.788  1.00  0.00     0.007 A 
ATOM      4  C   UNL     1       0.835  -0.268   0.864  1.00  0.00    -0.034 A 
ATOM      5  C   UNL     1       0.362  -1.548   1.020  1.00  0.00     0.007 A 
ATOM      6  C   UNL     1      -0.989  -1.794   1.097  1.00  0.00     0.026 A 
ENDROOT
BRANCH   1   7
ATOM      7  N   UNL     1      -3.337  -1.036   1.103  1.00  0.00    -0.378 N 
ATOM      8  C   UNL     1      -4.235   0.094   1.015  1.00  0.00     0.143 C 
ATOM      9  C   UNL     1      -3.847  -2.364   1.266  1.00  0.00     0.143 C 
ENDBRANCH   1   7
BRANCH   4  10
ATOM     10  C   UNL     1       2.295  -0.010   0.797  1.00  0.00     0.120 C 
BRANCH  10  11
ATOM     11  N   UNL     1       2.873   0.066  -0.480  1.00  0.00    -0.299 NA
ATOM     12  C   UNL     1       2.770  -1.105  -1.277  1.00  0.00     0.085 C 
ATOM     13  C   UNL     1       2.493   1.151  -1.316  1.00  0.00     0.085 C 
ATOM     14  C   UNL     1       1.595  -0.842  -2.222  1.00  0.00     0.017 C 
ATOM     15  C   UNL     1       1.475   0.644  -2.312  1.00  0.00     0.017 C 
ENDBRANCH  10  11
ENDBRANCH   4  10
TORSDOF 3
