REMARK SMILES CCCOc1ccc(S(=O)(=O)N(C)C)cc1C
REMARK SMILES IDX 5 1 6 2 7 3 8 4 15 5 16 6 17 7 4 8 3 9 2 10 1 11 9 12 10 13
REMARK SMILES IDX 11 14 12 15 13 16 14 17
REMARK H PARENT
ROOT
ATOM      1  C   UNL     1      -0.922  -1.623   0.339  1.00  0.00     0.122 A 
ATOM      2  C   UNL     1       0.408  -1.359   0.383  1.00  0.00     0.048 A 
ATOM      3  C   UNL     1       0.882  -0.060   0.155  1.00  0.00     0.025 A 
ATOM      4  C   UNL     1       0.051   0.999  -0.121  1.00  0.00     0.083 A 
ATOM      5  C   UNL     1      -1.291   0.737  -0.167  1.00  0.00     0.029 A 
ATOM      6  C   UNL     1      -1.759  -0.531   0.056  1.00  0.00    -0.008 A 
ATOM      7  C   UNL     1      -3.235  -0.803   0.002  1.00  0.00     0.048 C 
ENDROOT
BRANCH   1   8
ATOM      8  O   UNL     1      -1.499  -2.834   0.539  1.00  0.00    -0.493 OA
BRANCH   8   9
ATOM      9  C   UNL     1      -0.942  -4.056   0.850  1.00  0.00     0.229 C 
BRANCH   9  10
ATOM     10  C   UNL     1      -0.249  -4.152   2.184  1.00  0.00     0.038 C 
ATOM     11  C   UNL     1      -1.277  -3.840   3.278  1.00  0.00     0.007 C 
ENDBRANCH   9  10
ENDBRANCH   8   9
ENDBRANCH   1   8
BRANCH   4  12
ATOM     12  S   UNL     1       0.739   2.574  -0.389  1.00  0.00     0.242 S 
ATOM     13  O   UNL     1      -0.214   3.634   0.126  1.00  0.00    -0.207 OA
ATOM     14  O   UNL     1       1.984   2.678   0.456  1.00  0.00    -0.207 OA
BRANCH  12  15
ATOM     15  N   UNL     1       1.127   2.917  -1.982  1.00  0.00    -0.204 NA
ATOM     16  C   UNL     1       0.047   2.919  -2.914  1.00  0.00     0.124 C 
ATOM     17  C   UNL     1       2.372   2.475  -2.466  1.00  0.00     0.124 C 
ENDBRANCH  12  15
ENDBRANCH   4  12
TORSDOF 5
