REMARK SMILES Fc1cccc(C=NNc2nc(N3CCCC3)nc(N3CCCC3)n2)c1
REMARK SMILES IDX 7 1 8 2 6 3 2 4 3 5 26 6 4 7 5 8 1 9 9 10 10 12 11 13 25 14
REMARK SMILES IDX 12 15 19 16 18 17 13 18 14 19 17 20 15 21 16 22 20 23 21 24
REMARK SMILES IDX 24 25 22 26 23 27
REMARK H PARENT 9 11
ROOT
ATOM      1  C   UNL     1       1.363   1.239   1.829  1.00  0.00     0.141 C 
ATOM      2  N   UNL     1       2.331   0.961   1.035  1.00  0.00    -0.181 NA
ENDROOT
BRANCH   1   3
ATOM      3  C   UNL     1       1.266   2.554   2.450  1.00  0.00    -0.003 A 
ATOM      4  C   UNL     1       2.114   4.790   2.777  1.00  0.00     0.123 A 
ATOM      5  C   UNL     1       1.079   5.059   3.618  1.00  0.00     0.039 A 
ATOM      6  C   UNL     1       2.206   3.550   2.200  1.00  0.00     0.049 A 
ATOM      7  C   UNL     1       0.115   4.083   3.894  1.00  0.00     0.004 A 
ATOM      8  C   UNL     1       0.229   2.837   3.298  1.00  0.00     0.010 A 
ATOM      9  F   UNL     1       3.038   5.734   2.510  1.00  0.00    -0.207 F 
ENDBRANCH   1   3
BRANCH   2  10
ATOM     10  N   UNL     1       2.513  -0.252   0.399  1.00  0.00    -0.245 N 
ATOM     11  H   UNL     1       3.497  -0.592   0.278  1.00  0.00     0.193 HD
BRANCH  10  12
ATOM     12  C   UNL     1       1.485  -1.089  -0.106  1.00  0.00     0.250 A 
ATOM     13  N   UNL     1       0.920  -0.725  -1.278  1.00  0.00    -0.175 NA
ATOM     14  N   UNL     1       1.053  -2.219   0.483  1.00  0.00    -0.175 NA
ATOM     15  C   UNL     1      -0.059  -1.444  -1.886  1.00  0.00     0.232 A 
ATOM     16  C   UNL     1       0.080  -2.981  -0.071  1.00  0.00     0.232 A 
ATOM     17  N   UNL     1      -0.432  -2.556  -1.236  1.00  0.00    -0.176 NA
BRANCH  15  18
ATOM     18  N   UNL     1      -0.636  -1.007  -3.080  1.00  0.00    -0.341 N 
ATOM     19  C   UNL     1      -0.438   0.278  -3.700  1.00  0.00     0.120 C 
ATOM     20  C   UNL     1      -1.549  -1.701  -3.944  1.00  0.00     0.120 C 
ATOM     21  C   UNL     1      -1.929   0.676  -3.836  1.00  0.00     0.023 C 
ATOM     22  C   UNL     1      -2.443  -0.594  -4.539  1.00  0.00     0.023 C 
ENDBRANCH  15  18
BRANCH  16  23
ATOM     23  N   UNL     1      -0.355  -4.161   0.548  1.00  0.00    -0.341 N 
ATOM     24  C   UNL     1      -0.158  -4.570   1.913  1.00  0.00     0.120 C 
ATOM     25  C   UNL     1      -1.114  -5.226  -0.121  1.00  0.00     0.120 C 
ATOM     26  C   UNL     1      -1.445  -5.309   2.292  1.00  0.00     0.023 C 
ATOM     27  C   UNL     1      -2.020  -5.777   0.970  1.00  0.00     0.023 C 
ENDBRANCH  16  23
ENDBRANCH  10  12
ENDBRANCH   2  10
TORSDOF 5
