REMARK SMILES CCN1CCN(c2cc3c(nn2)Oc2ccccc2N3C)CC1
REMARK SMILES IDX 3 1 4 2 5 3 6 4 22 5 23 6 2 7 1 8 7 9 8 10 12 11 9 12 11 13
REMARK SMILES IDX 10 14 20 15 13 16 19 17 14 18 18 19 15 20 17 21 16 22 21 23
REMARK H PARENT
ROOT
ATOM      1  N   UNL     1      -0.616  -2.708   3.632  1.00  0.00    -0.300 NA
ATOM      2  C   UNL     1       0.666  -3.211   3.377  1.00  0.00     0.106 C 
ATOM      3  C   UNL     1       1.661  -2.298   2.734  1.00  0.00     0.133 C 
ATOM      4  N   UNL     1       0.923  -1.200   2.134  1.00  0.00    -0.352 N 
ATOM      5  C   UNL     1       0.121  -0.435   3.040  1.00  0.00     0.133 C 
ATOM      6  C   UNL     1      -0.755  -1.317   3.904  1.00  0.00     0.106 C 
ENDROOT
BRANCH   1   7
ATOM      7  C   UNL     1      -1.670  -3.251   2.809  1.00  0.00     0.081 C 
ATOM      8  C   UNL     1      -1.942  -4.716   3.104  1.00  0.00     0.021 C 
ENDBRANCH   1   7
BRANCH   4   9
ATOM      9  C   UNL     1       0.984  -0.895   0.761  1.00  0.00     0.153 A 
ATOM     10  C   UNL     1       0.223   0.067   0.137  1.00  0.00     0.081 A 
ATOM     11  N   UNL     1       1.849  -1.572  -0.064  1.00  0.00    -0.129 NA
ATOM     12  C   UNL     1       0.326   0.329  -1.222  1.00  0.00     0.110 A 
ATOM     13  N   UNL     1       1.947  -1.325  -1.353  1.00  0.00    -0.107 NA
ATOM     14  C   UNL     1       1.219  -0.389  -2.004  1.00  0.00     0.263 A 
ATOM     15  N   UNL     1      -0.439   1.311  -1.907  1.00  0.00    -0.337 N 
ATOM     16  O   UNL     1       1.359  -0.168  -3.368  1.00  0.00    -0.434 OA
ATOM     17  C   UNL     1      -0.294   1.538  -3.313  1.00  0.00     0.084 A 
ATOM     18  C   UNL     1       0.610   0.796  -4.050  1.00  0.00     0.153 A 
ATOM     19  C   UNL     1      -1.015   2.473  -4.017  1.00  0.00     0.030 A 
ATOM     20  C   UNL     1       0.782   0.980  -5.408  1.00  0.00     0.049 A 
ATOM     21  C   UNL     1      -0.864   2.678  -5.370  1.00  0.00     0.002 A 
ATOM     22  C   UNL     1       0.038   1.937  -6.100  1.00  0.00     0.004 A 
ATOM     23  C   UNL     1      -1.377   2.114  -1.151  1.00  0.00     0.150 C 
ENDBRANCH   4   9
TORSDOF 2
