REMARK SMILES C[C@H]1O[C@@H](O[C@H]2[C@@H](O)C[C@H](O[C@H]3[C@@H](O)C[C@H](O[C@H]4CC[C@]5(C)C6CC[C@]7(C)[C@@H](C8=CC(=O)OC8)CC[C@]7(O)C6CC[C@@H]5C4)O[C@@H]3C)O[C@@H]2C)C[C@H](O)[C@@H]1O
REMARK SMILES IDX 11 1 10 2 6 3 7 4 48 5 9 6 47 7 49 8 5 9 4 10 2 11 3 12
REMARK SMILES IDX 53 13 51 14 50 15 1 16 54 17 52 19 8 21 12 23 13 24 45 25
REMARK SMILES IDX 15 26 44 27 16 28 46 29 14 30 17 32 18 33 19 34 43 35 20 36
REMARK SMILES IDX 42 37 21 38 41 39 23 40 40 41 24 42 39 43 25 44 37 45 26 46
REMARK SMILES IDX 36 47 28 48 35 49 22 50 27 51 38 52 29 54 30 55 34 56 31 57
REMARK SMILES IDX 33 58 32 59
REMARK H PARENT 54 18 52 20 8 22 14 31 38 53
ROOT
ATOM      1  O   UNL     1       5.019  -0.358  -1.277  1.00  0.00    -0.344 OA
ENDROOT
BRANCH   1   2
ATOM      2  C   UNL     1       5.833  -1.033  -0.367  1.00  0.00     0.253 C 
ATOM      3  C   UNL     1       4.175  -1.478   1.851  1.00  0.00     0.179 C 
ATOM      4  C   UNL     1       5.648  -1.089   2.128  1.00  0.00     0.151 C 
ATOM      5  C   UNL     1       4.225  -2.369   0.663  1.00  0.00     0.150 C 
ATOM      6  C   UNL     1       6.025  -0.240   0.919  1.00  0.00     0.096 C 
ATOM      7  O   UNL     1       5.428  -2.294  -0.051  1.00  0.00    -0.347 OA
ATOM      8  C   UNL     1       3.046  -2.218  -0.274  1.00  0.00     0.041 C 
BRANCH   3   9
ATOM      9  O   UNL     1       3.579  -2.060   2.937  1.00  0.00    -0.344 OA
BRANCH   9  10
ATOM     10  C   UNL     1       2.523  -1.275   3.427  1.00  0.00     0.253 C 
ATOM     11  C   UNL     1       1.832  -0.654   5.568  1.00  0.00     0.149 C 
ATOM     12  O   UNL     1       2.856  -0.914   4.703  1.00  0.00    -0.347 OA
ATOM     13  C   UNL     1       0.583  -0.103   4.918  1.00  0.00     0.172 C 
ATOM     14  C   UNL     1       0.162  -0.854   3.693  1.00  0.00     0.150 C 
ATOM     15  C   UNL     1       1.194  -1.954   3.397  1.00  0.00     0.096 C 
ATOM     16  C   UNL     1       1.534  -1.823   6.481  1.00  0.00     0.041 C 
BRANCH  13  17
ATOM     17  O   UNL     1       0.707   1.282   4.659  1.00  0.00    -0.388 OA
ATOM     18  H   UNL     1       1.698   1.467   4.716  1.00  0.00     0.211 HD
ENDBRANCH  13  17
BRANCH  14  19
ATOM     19  O   UNL     1       0.131   0.016   2.582  1.00  0.00    -0.390 OA
ATOM     20  H   UNL     1      -0.312   0.849   2.937  1.00  0.00     0.211 HD
ENDBRANCH  14  19
ENDBRANCH   9  10
ENDBRANCH   3   9
BRANCH   4  21
ATOM     21  O   UNL     1       6.368  -2.277   2.119  1.00  0.00    -0.390 OA
ATOM     22  H   UNL     1       5.804  -3.078   2.355  1.00  0.00     0.211 HD
ENDBRANCH   4  21
ENDBRANCH   1   2
BRANCH   1  23
ATOM     23  C   UNL     1       5.718   0.177  -2.333  1.00  0.00     0.179 C 
ATOM     24  C   UNL     1       5.327  -0.352  -3.696  1.00  0.00     0.151 C 
ATOM     25  C   UNL     1       5.376   1.657  -2.346  1.00  0.00     0.150 C 
ATOM     26  C   UNL     1       3.837  -0.289  -3.802  1.00  0.00     0.096 C 
ATOM     27  O   UNL     1       4.263   1.948  -3.116  1.00  0.00    -0.347 OA
ATOM     28  C   UNL     1       3.327   0.968  -3.079  1.00  0.00     0.253 C 
ATOM     29  C   UNL     1       6.606   2.360  -2.926  1.00  0.00     0.041 C 
BRANCH  24  30
ATOM     30  O   UNL     1       5.697  -1.693  -3.844  1.00  0.00    -0.390 OA
ATOM     31  H   UNL     1       4.982  -2.311  -3.552  1.00  0.00     0.211 HD
ENDBRANCH  24  30
BRANCH  28  32
ATOM     32  O   UNL     1       2.108   1.356  -3.689  1.00  0.00    -0.349 OA
BRANCH  32  33
ATOM     33  C   UNL     1       1.023   1.188  -2.834  1.00  0.00     0.121 C 
ATOM     34  C   UNL     1       0.318   2.505  -2.622  1.00  0.00     0.033 C 
ATOM     35  C   UNL     1      -0.001   0.257  -3.468  1.00  0.00     0.036 C 
ATOM     36  C   UNL     1      -0.983   2.433  -1.909  1.00  0.00     0.010 C 
ATOM     37  C   UNL     1      -1.049  -0.007  -2.444  1.00  0.00    -0.002 C 
ATOM     38  C   UNL     1      -1.847   1.275  -2.299  1.00  0.00    -0.026 C 
ATOM     39  C   UNL     1      -0.475  -0.302  -1.053  1.00  0.00     0.005 C 
ATOM     40  C   UNL     1      -3.000   1.027  -1.337  1.00  0.00     0.001 C 
ATOM     41  C   UNL     1      -1.691  -0.855  -0.286  1.00  0.00     0.007 C 
ATOM     42  C   UNL     1      -4.151   0.383  -2.061  1.00  0.00     0.005 C 
ATOM     43  C   UNL     1      -2.588   0.342  -0.097  1.00  0.00     0.025 C 
ATOM     44  C   UNL     1      -4.787  -0.752  -1.343  1.00  0.00     0.010 C 
ATOM     45  C   UNL     1      -3.722   0.040   0.810  1.00  0.00     0.074 C 
ATOM     46  C   UNL     1      -4.947  -0.533   0.138  1.00  0.00     0.003 C 
ATOM     47  C   UNL     1      -4.155   1.192   1.649  1.00  0.00     0.037 C 
ATOM     48  C   UNL     1      -5.988   0.503   0.402  1.00  0.00     0.028 C 
ATOM     49  C   UNL     1      -5.660   0.983   1.818  1.00  0.00     0.012 C 
ATOM     50  C   UNL     1      -2.460   1.632  -3.655  1.00  0.00     0.012 C 
ATOM     51  C   UNL     1      -5.268  -1.856   0.790  1.00  0.00     0.015 C 
BRANCH  45  52
ATOM     52  O   UNL     1      -3.211  -0.923   1.729  1.00  0.00    -0.389 OA
ATOM     53  H   UNL     1      -2.961  -0.505   2.586  1.00  0.00     0.211 HD
ENDBRANCH  45  52
BRANCH  48  54
ATOM     54  C   UNL     1      -7.398   0.125   0.263  1.00  0.00    -0.022 C 
ATOM     55  C   UNL     1      -7.910  -1.010  -0.113  1.00  0.00     0.096 C 
ATOM     56  C   UNL     1      -8.539   1.075   0.561  1.00  0.00     0.265 C 
ATOM     57  C   UNL     1      -9.377  -0.909  -0.094  1.00  0.00     0.331 C 
ATOM     58  O   UNL     1      -9.705   0.361   0.318  1.00  0.00    -0.458 OA
ATOM     59  O   UNL     1     -10.216  -1.795  -0.393  1.00  0.00    -0.247 OA
ENDBRANCH  48  54
ENDBRANCH  32  33
ENDBRANCH  28  32
ENDBRANCH   1  23
TORSDOF 12
