REMARK SMILES CC1OC(OC2C(O)CC(OC3C(O)CC(OC4CCC5(C)C(CCC6C5CCC5(C)C(C7=CC(=O)OC7)CCC65O)C4)OC3C)OC2C)CC(O)C1O
REMARK SMILES IDX 11 1 10 2 6 3 7 4 48 5 9 6 47 7 49 8 5 9 4 10 2 11 3 12
REMARK SMILES IDX 53 13 51 14 50 15 1 16 54 17 52 19 8 21 12 23 13 24 45 25
REMARK SMILES IDX 15 26 44 27 16 28 46 29 14 30 17 32 18 33 19 34 43 35 20 36
REMARK SMILES IDX 23 37 21 38 24 39 27 40 25 41 26 42 28 43 41 44 29 45 40 46
REMARK SMILES IDX 30 47 39 48 32 49 22 50 31 51 42 52 33 54 34 55 38 56 35 57
REMARK SMILES IDX 37 58 36 59
REMARK H PARENT 54 18 52 20 8 22 14 31 42 53
ROOT
ATOM      1  O   UNL     1       4.431   0.309  -2.002  1.00  0.00    -0.344 OA
ENDROOT
BRANCH   1   2
ATOM      2  C   UNL     1       5.733   0.340  -2.444  1.00  0.00     0.253 C 
ATOM      3  C   UNL     1       6.171   1.787  -0.310  1.00  0.00     0.179 C 
ATOM      4  C   UNL     1       6.840   0.447  -0.183  1.00  0.00     0.151 C 
ATOM      5  C   UNL     1       6.540   2.378  -1.646  1.00  0.00     0.150 C 
ATOM      6  C   UNL     1       6.749  -0.248  -1.520  1.00  0.00     0.096 C 
ATOM      7  O   UNL     1       6.140   1.649  -2.732  1.00  0.00    -0.347 OA
ATOM      8  C   UNL     1       5.825   3.734  -1.706  1.00  0.00     0.041 C 
BRANCH   3   9
ATOM      9  O   UNL     1       6.624   2.678   0.684  1.00  0.00    -0.344 OA
BRANCH   9  10
ATOM     10  C   UNL     1       5.562   3.145   1.446  1.00  0.00     0.253 C 
ATOM     11  C   UNL     1       4.063   4.753   1.743  1.00  0.00     0.149 C 
ATOM     12  O   UNL     1       5.390   4.509   1.325  1.00  0.00    -0.347 OA
ATOM     13  C   UNL     1       4.003   4.567   3.217  1.00  0.00     0.172 C 
ATOM     14  C   UNL     1       4.579   3.299   3.742  1.00  0.00     0.150 C 
ATOM     15  C   UNL     1       5.652   2.703   2.888  1.00  0.00     0.096 C 
ATOM     16  C   UNL     1       3.651   6.160   1.398  1.00  0.00     0.041 C 
BRANCH  13  17
ATOM     17  O   UNL     1       2.665   4.746   3.638  1.00  0.00    -0.388 OA
ATOM     18  H   UNL     1       2.192   3.886   3.643  1.00  0.00     0.211 HD
ENDBRANCH  13  17
BRANCH  14  19
ATOM     19  O   UNL     1       5.029   3.465   5.072  1.00  0.00    -0.390 OA
ATOM     20  H   UNL     1       5.414   2.600   5.376  1.00  0.00     0.211 HD
ENDBRANCH  14  19
ENDBRANCH   9  10
ENDBRANCH   3   9
BRANCH   4  21
ATOM     21  O   UNL     1       6.226  -0.363   0.777  1.00  0.00    -0.390 OA
ATOM     22  H   UNL     1       6.694  -1.236   0.747  1.00  0.00     0.211 HD
ENDBRANCH   4  21
ENDBRANCH   1   2
BRANCH   1  23
ATOM     23  C   UNL     1       3.593  -0.403  -2.861  1.00  0.00     0.179 C 
ATOM     24  C   UNL     1       2.514   0.492  -3.432  1.00  0.00     0.151 C 
ATOM     25  C   UNL     1       2.947  -1.590  -2.238  1.00  0.00     0.150 C 
ATOM     26  C   UNL     1       1.213  -0.272  -3.422  1.00  0.00     0.096 C 
ATOM     27  O   UNL     1       1.934  -1.289  -1.359  1.00  0.00    -0.347 OA
ATOM     28  C   UNL     1       0.884  -0.677  -2.011  1.00  0.00     0.253 C 
ATOM     29  C   UNL     1       4.016  -2.398  -1.517  1.00  0.00     0.041 C 
BRANCH  24  30
ATOM     30  O   UNL     1       2.838   0.728  -4.771  1.00  0.00    -0.390 OA
ATOM     31  H   UNL     1       2.920   1.688  -4.988  1.00  0.00     0.211 HD
ENDBRANCH  24  30
BRANCH  28  32
ATOM     32  O   UNL     1       0.395   0.419  -1.323  1.00  0.00    -0.349 OA
BRANCH  32  33
ATOM     33  C   UNL     1      -0.927   0.236  -0.877  1.00  0.00     0.121 C 
ATOM     34  C   UNL     1      -0.914   0.292   0.609  1.00  0.00     0.033 C 
ATOM     35  C   UNL     1      -1.807   1.338  -1.400  1.00  0.00     0.036 C 
ATOM     36  C   UNL     1      -2.094   1.060   1.191  1.00  0.00     0.010 C 
ATOM     37  C   UNL     1      -3.249   1.195  -0.948  1.00  0.00    -0.002 C 
ATOM     38  C   UNL     1      -3.394   0.772   0.475  1.00  0.00    -0.026 C 
ATOM     39  C   UNL     1      -4.047   0.369  -1.908  1.00  0.00     0.005 C 
ATOM     40  C   UNL     1      -3.819  -0.637   0.504  1.00  0.00     0.001 C 
ATOM     41  C   UNL     1      -5.338  -0.143  -1.374  1.00  0.00     0.007 C 
ATOM     42  C   UNL     1      -5.265  -0.715   0.002  1.00  0.00     0.025 C 
ATOM     43  C   UNL     1      -3.820  -1.239   1.891  1.00  0.00     0.005 C 
ATOM     44  C   UNL     1      -5.812  -2.117   0.075  1.00  0.00     0.074 C 
ATOM     45  C   UNL     1      -3.998  -2.710   1.750  1.00  0.00     0.010 C 
ATOM     46  C   UNL     1      -7.187  -2.190   0.694  1.00  0.00     0.037 C 
ATOM     47  C   UNL     1      -5.001  -3.137   0.748  1.00  0.00     0.003 C 
ATOM     48  C   UNL     1      -7.341  -3.700   0.837  1.00  0.00     0.012 C 
ATOM     49  C   UNL     1      -6.012  -4.040   1.481  1.00  0.00     0.028 C 
ATOM     50  C   UNL     1      -4.426   1.676   1.170  1.00  0.00     0.012 C 
ATOM     51  C   UNL     1      -4.256  -3.991  -0.293  1.00  0.00     0.015 C 
BRANCH  44  52
ATOM     52  O   UNL     1      -6.001  -2.544  -1.265  1.00  0.00    -0.389 OA
ATOM     53  H   UNL     1      -6.935  -2.447  -1.559  1.00  0.00     0.211 HD
ENDBRANCH  44  52
BRANCH  49  54
ATOM     54  C   UNL     1      -5.661  -5.458   1.425  1.00  0.00    -0.022 C 
ATOM     55  C   UNL     1      -6.357  -6.452   0.868  1.00  0.00     0.096 C 
ATOM     56  C   UNL     1      -4.434  -6.053   2.022  1.00  0.00     0.265 C 
ATOM     57  C   UNL     1      -5.649  -7.714   1.035  1.00  0.00     0.331 C 
ATOM     58  O   UNL     1      -4.479  -7.435   1.727  1.00  0.00    -0.458 OA
ATOM     59  O   UNL     1      -6.071  -8.819   0.609  1.00  0.00    -0.247 OA
ENDBRANCH  49  54
ENDBRANCH  32  33
ENDBRANCH  28  32
ENDBRANCH   1  23
TORSDOF 12
