REMARK SMILES Oc1ncnc2nn(-c3ccccc3)nc12
REMARK SMILES IDX 2 1 3 2 4 3 5 4 6 5 7 6 8 7 15 8 16 9 1 10 9 12 10 13 14 14
REMARK SMILES IDX 11 15 13 16 12 17
REMARK H PARENT 1 11
ROOT
ATOM      1  C   UNL     1      -2.987   0.645   1.950  1.00  0.00     0.244 A 
ATOM      2  N   UNL     1      -3.147   0.600   3.272  1.00  0.00    -0.200 NA
ATOM      3  C   UNL     1      -2.089   0.287   4.068  1.00  0.00     0.228 A 
ATOM      4  N   UNL     1      -0.877   0.019   3.537  1.00  0.00    -0.213 NA
ATOM      5  C   UNL     1      -0.660   0.050   2.214  1.00  0.00     0.209 A 
ATOM      6  N   UNL     1       0.384  -0.158   1.394  1.00  0.00    -0.127 NA
ATOM      7  N   UNL     1       0.023   0.013   0.135  1.00  0.00    -0.149 N 
ATOM      8  N   UNL     1      -1.258   0.330   0.148  1.00  0.00    -0.141 NA
ATOM      9  C   UNL     1      -1.756   0.374   1.402  1.00  0.00     0.194 A 
ENDROOT
BRANCH   1  10
ATOM     10  O   UNL     1      -4.058   0.962   1.150  1.00  0.00    -0.492 OA
ATOM     11  H   UNL     1      -4.181   0.611   0.198  1.00  0.00     0.295 HD
ENDBRANCH   1  10
BRANCH   7  12
ATOM     12  C   UNL     1       0.893  -0.132  -0.989  1.00  0.00     0.086 A 
ATOM     13  C   UNL     1       1.993  -0.964  -0.962  1.00  0.00     0.030 A 
ATOM     14  C   UNL     1       0.655   0.566  -2.152  1.00  0.00     0.030 A 
ATOM     15  C   UNL     1       2.806  -1.069  -2.080  1.00  0.00     0.002 A 
ATOM     16  C   UNL     1       1.465   0.464  -3.273  1.00  0.00     0.002 A 
ATOM     17  C   UNL     1       2.565  -0.368  -3.245  1.00  0.00     0.000 A 
ENDBRANCH   7  12
TORSDOF 2
