REMARK SMILES COc1cc(OC)c2c(C)cc(=O)oc2c1
REMARK SMILES IDX 3 1 4 2 5 3 8 4 9 5 10 6 11 7 12 8 13 9 14 10 15 11 16 12
REMARK SMILES IDX 2 13 1 14 6 15 7 16
REMARK H PARENT
ROOT
ATOM      1  C   UNL     1      -2.026  -0.289  -0.241  1.00  0.00     0.126 A 
ATOM      2  C   UNL     1      -1.151  -0.219   0.820  1.00  0.00     0.093 A 
ATOM      3  C   UNL     1       0.215  -0.083   0.616  1.00  0.00     0.133 A 
ATOM      4  C   UNL     1       0.673  -0.020  -0.679  1.00  0.00     0.063 A 
ATOM      5  C   UNL     1       2.031   0.116  -0.949  1.00  0.00    -0.029 A 
ATOM      6  C   UNL     1       3.009   0.196   0.161  1.00  0.00     0.045 C 
ATOM      7  C   UNL     1       2.461   0.177  -2.280  1.00  0.00     0.098 A 
ATOM      8  C   UNL     1       1.504   0.098  -3.248  1.00  0.00     0.336 A 
ATOM      9  O   UNL     1       1.885   0.153  -4.452  1.00  0.00    -0.246 OA
ATOM     10  O   UNL     1       0.242  -0.028  -3.001  1.00  0.00    -0.422 OA
ATOM     11  C   UNL     1      -0.193  -0.089  -1.764  1.00  0.00     0.146 A 
ATOM     12  C   UNL     1      -1.556  -0.225  -1.529  1.00  0.00     0.094 A 
ENDROOT
BRANCH   1  13
ATOM     13  O   UNL     1      -3.386  -0.425  -0.041  1.00  0.00    -0.496 OA
ATOM     14  C   UNL     1      -4.293  -0.498  -1.104  1.00  0.00     0.278 C 
ENDBRANCH   1  13
BRANCH   3  15
ATOM     15  O   UNL     1       1.100  -0.012   1.677  1.00  0.00    -0.496 OA
ATOM     16  C   UNL     1       0.607  -0.079   3.003  1.00  0.00     0.278 C 
ENDBRANCH   3  15
TORSDOF 2
