REMARK SMILES C=CCc1c(C)nc2c(-c3ccccc3)cnn2c1NCc1cccnc1
REMARK SMILES IDX 4 1 5 2 6 3 7 4 8 5 9 6 16 7 17 8 18 9 19 10 3 11 2 12 1 13
REMARK SMILES IDX 20 14 21 16 22 17 23 18 27 19 24 20 26 21 25 22 10 23 11 24
REMARK SMILES IDX 15 25 12 26 14 27 13 28
REMARK H PARENT 20 15
ROOT
ATOM      1  C   UNL     1      -1.526  -1.072   0.819  1.00  0.00     0.020 A 
ATOM      2  C   UNL     1      -1.888   0.249   0.927  1.00  0.00     0.047 A 
ATOM      3  C   UNL     1      -3.122   0.688   1.655  1.00  0.00     0.067 C 
ATOM      4  N   UNL     1      -1.117   1.222   0.360  1.00  0.00    -0.233 NA
ATOM      5  C   UNL     1      -0.000   0.876  -0.305  1.00  0.00     0.165 A 
ATOM      6  C   UNL     1       0.931   1.672  -0.957  1.00  0.00     0.047 A 
ATOM      7  C   UNL     1       1.857   0.777  -1.454  1.00  0.00     0.146 A 
ATOM      8  N   UNL     1       1.466  -0.476  -1.099  1.00  0.00    -0.172 NA
ATOM      9  N   UNL     1       0.342  -0.420  -0.403  1.00  0.00    -0.198 N 
ATOM     10  C   UNL     1      -0.371  -1.434   0.131  1.00  0.00     0.135 A 
ENDROOT
BRANCH   1  11
ATOM     11  C   UNL     1      -2.373  -2.115   1.438  1.00  0.00     0.068 C 
BRANCH  11  12
ATOM     12  C   UNL     1      -3.601  -2.379   0.640  1.00  0.00    -0.030 C 
ATOM     13  C   UNL     1      -3.774  -1.697  -0.484  1.00  0.00     0.004 C 
ENDBRANCH  11  12
ENDBRANCH   1  11
BRANCH  10  14
ATOM     14  N   UNL     1       0.013  -2.796   0.012  1.00  0.00    -0.366 N 
ATOM     15  H   UNL     1      -0.335  -3.351  -0.796  1.00  0.00     0.162 HD
BRANCH  14  16
ATOM     16  C   UNL     1       0.885  -3.444   0.995  1.00  0.00     0.152 C 
BRANCH  16  17
ATOM     17  C   UNL     1       1.139  -4.844   0.672  1.00  0.00    -0.010 A 
ATOM     18  C   UNL     1       2.200  -5.233  -0.113  1.00  0.00     0.009 A 
ATOM     19  C   UNL     1       0.302  -5.823   1.156  1.00  0.00     0.116 A 
ATOM     20  C   UNL     1       2.423  -6.583  -0.411  1.00  0.00     0.020 A 
ATOM     21  N   UNL     1       0.525  -7.137   0.862  1.00  0.00    -0.264 NA
ATOM     22  C   UNL     1       1.556  -7.528   0.098  1.00  0.00     0.111 A 
ENDBRANCH  16  17
ENDBRANCH  14  16
ENDBRANCH  10  14
BRANCH   6  23
ATOM     23  C   UNL     1       0.902   3.127  -1.069  1.00  0.00    -0.013 A 
ATOM     24  C   UNL     1      -0.278   3.771  -1.383  1.00  0.00     0.009 A 
ATOM     25  C   UNL     1       2.016   3.917  -0.875  1.00  0.00     0.009 A 
ATOM     26  C   UNL     1      -0.313   5.160  -1.493  1.00  0.00     0.001 A 
ATOM     27  C   UNL     1       1.987   5.295  -0.983  1.00  0.00     0.001 A 
ATOM     28  C   UNL     1       0.804   5.938  -1.298  1.00  0.00     0.000 A 
ENDBRANCH   6  23
TORSDOF 6
