REMARK SMILES CCOc1ccc(Nc2nc3ccccc3n3nnnc23)cc1
REMARK SMILES IDX 4 1 5 2 6 3 7 4 22 5 23 6 3 7 2 8 1 9 8 10 9 12 10 13 21 14
REMARK SMILES IDX 11 15 20 16 17 17 12 18 16 19 19 20 18 21 13 22 15 23 14 24
REMARK H PARENT 8 11
ROOT
ATOM      1  C   UNL     1      -2.255  -2.386   1.934  1.00  0.00     0.119 A 
ATOM      2  C   UNL     1      -1.721  -1.153   1.668  1.00  0.00     0.048 A 
ATOM      3  C   UNL     1      -0.622  -1.075   0.811  1.00  0.00     0.030 A 
ATOM      4  C   UNL     1      -0.062  -2.169   0.232  1.00  0.00     0.040 A 
ATOM      5  C   UNL     1      -0.617  -3.401   0.514  1.00  0.00     0.030 A 
ATOM      6  C   UNL     1      -1.720  -3.516   1.369  1.00  0.00     0.048 A 
ENDROOT
BRANCH   1   7
ATOM      7  O   UNL     1      -3.339  -2.558   2.767  1.00  0.00    -0.494 OA
BRANCH   7   8
ATOM      8  C   UNL     1      -3.997  -1.496   3.423  1.00  0.00     0.226 C 
ATOM      9  C   UNL     1      -5.147  -1.962   4.265  1.00  0.00     0.049 C 
ENDBRANCH   7   8
ENDBRANCH   1   7
BRANCH   4  10
ATOM     10  N   UNL     1       1.033  -2.083  -0.641  1.00  0.00    -0.337 N 
ATOM     11  H   UNL     1       1.600  -2.985  -0.848  1.00  0.00     0.168 HD
BRANCH  10  12
ATOM     12  C   UNL     1       1.497  -0.910  -1.307  1.00  0.00     0.178 A 
ATOM     13  N   UNL     1       0.922   0.295  -1.237  1.00  0.00    -0.225 NA
ATOM     14  C   UNL     1       2.640  -0.965  -2.115  1.00  0.00     0.222 A 
ATOM     15  C   UNL     1       1.373   1.391  -1.875  1.00  0.00     0.091 A 
ATOM     16  N   UNL     1       3.454  -1.992  -2.408  1.00  0.00    -0.105 NA
ATOM     17  N   UNL     1       3.102   0.121  -2.758  1.00  0.00    -0.188 N 
ATOM     18  C   UNL     1       0.761   2.623  -1.787  1.00  0.00     0.031 A 
ATOM     19  C   UNL     1       2.501   1.322  -2.668  1.00  0.00     0.095 A 
ATOM     20  N   UNL     1       4.393  -1.508  -3.222  1.00  0.00    -0.023 NA
ATOM     21  N   UNL     1       4.178  -0.221  -3.435  1.00  0.00    -0.039 NA
ATOM     22  C   UNL     1       1.225   3.742  -2.443  1.00  0.00     0.002 A 
ATOM     23  C   UNL     1       2.974   2.437  -3.329  1.00  0.00     0.031 A 
ATOM     24  C   UNL     1       2.362   3.670  -3.241  1.00  0.00     0.002 A 
ENDBRANCH  10  12
ENDBRANCH   4  10
TORSDOF 4
