REMARK SMILES Cc1cccc(NC(=O)CC2Nc3ccccc3OC2=O)c1
REMARK SMILES IDX 7 1 8 2 9 3 6 5 2 6 3 7 22 8 4 9 5 10 1 11 10 12 11 13 12 14
REMARK SMILES IDX 20 15 13 16 19 17 21 18 14 19 18 20 15 21 17 22 16 23
REMARK H PARENT 7 4 12 24
ROOT
ATOM      1  N   UNL     1       0.878  -0.221   2.098  1.00  0.00    -0.326 N 
ATOM      2  C   UNL     1       1.246  -0.602   0.787  1.00  0.00     0.227 C 
ATOM      3  O   UNL     1       0.444  -0.319  -0.136  1.00  0.00    -0.275 OA
ATOM      4  H   UNL     1       1.489  -0.421   2.912  1.00  0.00     0.169 HD
ENDROOT
BRANCH   1   5
ATOM      5  C   UNL     1      -0.356   0.447   2.290  1.00  0.00     0.041 A 
ATOM      6  C   UNL     1      -2.735   0.461   2.723  1.00  0.00    -0.049 A 
ATOM      7  C   UNL     1      -2.787   1.840   2.664  1.00  0.00     0.003 A 
ATOM      8  C   UNL     1      -1.544  -0.212   2.540  1.00  0.00     0.029 A 
ATOM      9  C   UNL     1      -1.616   2.517   2.416  1.00  0.00     0.002 A 
ATOM     10  C   UNL     1      -0.433   1.837   2.235  1.00  0.00     0.026 A 
ATOM     11  C   UNL     1      -4.023  -0.265   2.994  1.00  0.00     0.044 C 
ENDBRANCH   1   5
BRANCH   2  12
ATOM     12  C   UNL     1       2.500  -1.299   0.464  1.00  0.00     0.137 C 
BRANCH  12  13
ATOM     13  C   UNL     1       2.641  -1.585  -1.020  1.00  0.00     0.200 C 
ATOM     14  N   UNL     1       1.607  -2.396  -1.535  1.00  0.00    -0.369 N 
ATOM     15  C   UNL     1       2.849  -0.365  -1.803  1.00  0.00     0.334 C 
ATOM     16  C   UNL     1       0.785  -2.007  -2.608  1.00  0.00     0.078 A 
ATOM     17  O   UNL     1       2.013  -0.035  -2.847  1.00  0.00    -0.423 OA
ATOM     18  O   UNL     1       3.808   0.436  -1.550  1.00  0.00    -0.249 OA
ATOM     19  C   UNL     1      -0.238  -2.889  -2.957  1.00  0.00     0.030 A 
ATOM     20  C   UNL     1       0.964  -0.819  -3.293  1.00  0.00     0.154 A 
ATOM     21  C   UNL     1      -1.060  -2.551  -3.994  1.00  0.00     0.002 A 
ATOM     22  C   UNL     1       0.143  -0.485  -4.325  1.00  0.00     0.049 A 
ATOM     23  C   UNL     1      -0.868  -1.352  -4.674  1.00  0.00     0.004 A 
ATOM     24  H   UNL     1       1.465  -3.336  -1.074  1.00  0.00     0.161 HD
ENDBRANCH  12  13
ENDBRANCH   2  12
TORSDOF 3
