REMARK SMILES COc1ccccc1NC(=O)c1cccc(Cl)c1
REMARK SMILES IDX 3 1 4 2 5 3 6 4 7 5 8 6 2 7 1 8 9 9 10 10 11 11 12 13 13 14
REMARK SMILES IDX 18 15 14 16 16 17 15 18 17 19
REMARK H PARENT 9 12
ROOT
ATOM      1  C   UNL     1      -0.567   0.059   1.970  1.00  0.00     0.142 A 
ATOM      2  C   UNL     1      -0.313   0.376   3.290  1.00  0.00     0.048 A 
ATOM      3  C   UNL     1       0.804  -0.126   3.931  1.00  0.00     0.004 A 
ATOM      4  C   UNL     1       1.654  -0.946   3.229  1.00  0.00     0.002 A 
ATOM      5  C   UNL     1       1.402  -1.261   1.920  1.00  0.00     0.030 A 
ATOM      6  C   UNL     1       0.282  -0.764   1.257  1.00  0.00     0.084 A 
ENDROOT
BRANCH   1   7
ATOM      7  O   UNL     1      -1.695   0.574   1.345  1.00  0.00    -0.495 OA
ATOM      8  C   UNL     1      -2.585   1.420   2.048  1.00  0.00     0.278 C 
ENDBRANCH   1   7
BRANCH   6   9
ATOM      9  N   UNL     1       0.015  -1.087  -0.101  1.00  0.00    -0.319 N 
ATOM     10  C   UNL     1       0.538  -0.258  -1.116  1.00  0.00     0.255 C 
ATOM     11  O   UNL     1       1.222   0.739  -0.769  1.00  0.00    -0.269 OA
ATOM     12  H   UNL     1      -0.557  -1.926  -0.299  1.00  0.00     0.170 HD
BRANCH  10  13
ATOM     13  C   UNL     1       0.307  -0.526  -2.521  1.00  0.00     0.041 A 
ATOM     14  C   UNL     1       0.846   0.325  -3.477  1.00  0.00     0.014 A 
ATOM     15  C   UNL     1      -0.433  -1.600  -2.951  1.00  0.00     0.034 A 
ATOM     16  C   UNL     1       0.661   0.123  -4.819  1.00  0.00     0.002 A 
ATOM     17  C   UNL     1      -0.615  -1.798  -4.320  1.00  0.00     0.041 A 
ATOM     18  C   UNL     1      -0.079  -0.951  -5.266  1.00  0.00     0.020 A 
ATOM     19  Cl  UNL     1      -1.560  -3.174  -4.812  1.00  0.00    -0.084 Cl
ENDBRANCH  10  13
ENDBRANCH   6   9
TORSDOF 3
