REMARK SMILES CN(C)c1ccc(C2=CC(=C3C=CC(=[N+](C)C)C=C3)OC(c3ccc(N(C)C)cc3)=C2)cc1
REMARK SMILES IDX 8 1 9 2 10 3 11 4 12 5 13 6 14 7 15 8 16 9 17 10 18 11 19 12
REMARK SMILES IDX 20 13 21 14 31 15 7 16 4 17 5 18 33 19 6 20 32 21 2 22 1 23
REMARK SMILES IDX 3 24 22 25 23 26 30 27 24 28 29 29 25 30 26 31 27 32 28 33
REMARK H PARENT
ROOT
ATOM      1  C   UNL     1      -0.199  -1.008   1.230  1.00  0.00    -0.011 C 
ATOM      2  C   UNL     1       0.749  -1.554   0.471  1.00  0.00     0.056 C 
ATOM      3  C   UNL     1       1.026  -1.097  -0.880  1.00  0.00     0.135 C 
ATOM      4  C   UNL     1       1.972  -1.652  -1.617  1.00  0.00     0.018 C 
ATOM      5  C   UNL     1       2.831  -2.743  -1.215  1.00  0.00     0.019 C 
ATOM      6  C   UNL     1       3.774  -3.252  -2.032  1.00  0.00     0.079 C 
ATOM      7  C   UNL     1       3.973  -2.723  -3.370  1.00  0.00     0.199 C 
ATOM      8  N   UNL     1       4.877  -3.214  -4.148  1.00  0.00    -0.235 N 
ATOM      9  C   UNL     1       5.101  -2.706  -5.492  1.00  0.00     0.433 C 
ATOM     10  C   UNL     1       5.699  -4.308  -3.673  1.00  0.00     0.433 C 
ATOM     11  C   UNL     1       3.113  -1.624  -3.785  1.00  0.00     0.079 C 
ATOM     12  C   UNL     1       2.188  -1.123  -2.987  1.00  0.00     0.019 C 
ATOM     13  O   UNL     1       0.248  -0.052  -1.348  1.00  0.00    -0.456 OA
ATOM     14  C   UNL     1      -0.767   0.561  -0.585  1.00  0.00     0.135 C 
ATOM     15  C   UNL     1      -0.948   0.087   0.617  1.00  0.00     0.056 C 
ENDROOT
BRANCH   1  16
ATOM     16  C   UNL     1      -0.455  -1.486   2.580  1.00  0.00    -0.018 A 
ATOM     17  C   UNL     1      -0.944  -2.439   5.230  1.00  0.00     0.036 A 
ATOM     18  C   UNL     1      -1.668  -1.407   4.683  1.00  0.00     0.026 A 
ATOM     19  C   UNL     1       0.028  -2.989   4.434  1.00  0.00     0.026 A 
ATOM     20  C   UNL     1      -1.435  -0.934   3.387  1.00  0.00     0.011 A 
ATOM     21  C   UNL     1       0.261  -2.518   3.139  1.00  0.00     0.011 A 
BRANCH  17  22
ATOM     22  N   UNL     1      -1.174  -2.924   6.542  1.00  0.00    -0.378 N 
ATOM     23  C   UNL     1      -2.186  -2.378   7.420  1.00  0.00     0.143 C 
ATOM     24  C   UNL     1      -0.366  -4.012   7.034  1.00  0.00     0.143 C 
ENDBRANCH  17  22
ENDBRANCH   1  16
BRANCH  14  25
ATOM     25  C   UNL     1      -1.533   1.659  -1.174  1.00  0.00     0.017 A 
ATOM     26  C   UNL     1      -1.270   2.094  -2.458  1.00  0.00     0.014 A 
ATOM     27  C   UNL     1      -2.521   2.268  -0.454  1.00  0.00     0.014 A 
ATOM     28  C   UNL     1      -1.983   3.120  -3.013  1.00  0.00     0.026 A 
ATOM     29  C   UNL     1      -3.252   3.322  -1.027  1.00  0.00     0.026 A 
ATOM     30  C   UNL     1      -2.993   3.758  -2.304  1.00  0.00     0.036 A 
BRANCH  30  31
ATOM     31  N   UNL     1      -3.735   4.820  -2.870  1.00  0.00    -0.378 N 
ATOM     32  C   UNL     1      -3.430   5.245  -4.214  1.00  0.00     0.143 C 
ATOM     33  C   UNL     1      -4.773   5.453  -2.101  1.00  0.00     0.143 C 
ENDBRANCH  30  31
ENDBRANCH  14  25
TORSDOF 4
