REMARK SMILES CCc1ccc(CN2CC[NH+](C(=O)Cc3ccccc3)CC2)cc1
REMARK SMILES IDX 8 1 9 2 10 3 11 4 21 5 22 6 7 8 6 9 3 10 4 11 24 12 5 13
REMARK SMILES IDX 23 14 2 15 1 16 12 17 13 18 14 19 15 20 16 21 20 22 17 23
REMARK SMILES IDX 19 24 18 25
REMARK H PARENT 11 7
ROOT
ATOM      1  N   UNL     1       1.666  -1.508   1.950  1.00  0.00    -0.288 NA
ATOM      2  C   UNL     1       2.294  -0.963   0.823  1.00  0.00     0.147 C 
ATOM      3  C   UNL     1       1.811  -1.637  -0.427  1.00  0.00     0.285 C 
ATOM      4  N   UNL     1       0.312  -1.852  -0.364  1.00  0.00    -0.269 N 
ATOM      5  C   UNL     1       0.329  -2.991   0.505  1.00  0.00     0.285 C 
ATOM      6  C   UNL     1       0.991  -2.735   1.834  1.00  0.00     0.147 C 
ATOM      7  H   UNL     1       0.151  -0.969  -0.028  1.00  0.00     0.356 HD
ENDROOT
BRANCH   1   8
ATOM      8  C   UNL     1       1.485  -0.724   3.100  1.00  0.00     0.120 C 
BRANCH   8   9
ATOM      9  C   UNL     1       0.676   0.510   2.923  1.00  0.00    -0.034 A 
ATOM     10  C   UNL     1      -0.750   2.849   2.580  1.00  0.00    -0.048 A 
ATOM     11  C   UNL     1      -1.391   1.669   2.903  1.00  0.00     0.004 A 
ATOM     12  C   UNL     1       0.620   2.820   2.434  1.00  0.00     0.004 A 
ATOM     13  C   UNL     1      -0.688   0.503   3.075  1.00  0.00     0.005 A 
ATOM     14  C   UNL     1       1.348   1.665   2.601  1.00  0.00     0.005 A 
BRANCH  10  15
ATOM     15  C   UNL     1      -1.491   4.119   2.390  1.00  0.00     0.032 C 
ATOM     16  C   UNL     1      -1.927   4.320   0.965  1.00  0.00     0.009 C 
ENDBRANCH  10  15
ENDBRANCH   8   9
ENDBRANCH   1   8
BRANCH   4  17
ATOM     17  C   UNL     1      -0.306  -2.079  -1.559  1.00  0.00     0.316 C 
ATOM     18  O   UNL     1       0.526  -2.887  -1.937  1.00  0.00    -0.231 OA
BRANCH  17  19
ATOM     19  C   UNL     1      -1.322  -1.919  -2.567  1.00  0.00     0.180 C 
BRANCH  19  20
ATOM     20  C   UNL     1      -1.167  -2.785  -3.781  1.00  0.00    -0.035 A 
ATOM     21  C   UNL     1      -1.744  -4.034  -3.867  1.00  0.00     0.004 A 
ATOM     22  C   UNL     1      -0.431  -2.351  -4.865  1.00  0.00     0.004 A 
ATOM     23  C   UNL     1      -1.617  -4.848  -4.965  1.00  0.00     0.000 A 
ATOM     24  C   UNL     1      -0.293  -3.165  -5.988  1.00  0.00     0.000 A 
ATOM     25  C   UNL     1      -0.882  -4.406  -6.038  1.00  0.00     0.000 A 
ENDBRANCH  19  20
ENDBRANCH  17  19
ENDBRANCH   4  17
TORSDOF 6
