REMARK SMILES CCc1ccc(C[NH+]2CC[NH+](C(=O)Cc3ccccc3)CC2)cc1
REMARK SMILES IDX 8 1 9 2 10 3 11 4 21 5 22 6 7 9 6 10 3 11 4 12 24 13 5 14
REMARK SMILES IDX 23 15 2 16 1 17 12 18 13 19 14 20 15 21 16 22 20 23 17 24
REMARK SMILES IDX 19 25 18 26
REMARK H PARENT 8 7 11 8
ROOT
ATOM      1  N   UNL     1       1.880  -0.939   1.877  1.00  0.00    -0.322 N 
ATOM      2  C   UNL     1       1.780   0.273   1.151  1.00  0.00     0.325 C 
ATOM      3  C   UNL     1       0.749   0.206  -0.010  1.00  0.00     0.332 C 
ATOM      4  N   UNL     1       1.188  -0.813  -0.809  1.00  0.00    -0.262 N 
ATOM      5  C   UNL     1       1.872  -1.921  -0.298  1.00  0.00     0.332 C 
ATOM      6  C   UNL     1       1.373  -2.097   1.165  1.00  0.00     0.325 C 
ATOM      7  H   UNL     1       2.925  -1.145   1.977  1.00  0.00     0.348 HD
ATOM      8  H   UNL     1       0.243  -1.407  -0.720  1.00  0.00     0.357 HD
ENDROOT
BRANCH   1   9
ATOM      9  C   UNL     1       1.404  -0.909   3.238  1.00  0.00     0.299 C 
BRANCH   9  10
ATOM     10  C   UNL     1      -0.072  -0.890   3.364  1.00  0.00     0.006 A 
ATOM     11  C   UNL     1      -2.839  -0.923   3.610  1.00  0.00    -0.048 A 
ATOM     12  C   UNL     1      -2.110  -2.091   3.539  1.00  0.00     0.004 A 
ATOM     13  C   UNL     1      -2.131   0.266   3.553  1.00  0.00     0.004 A 
ATOM     14  C   UNL     1      -0.740  -2.087   3.417  1.00  0.00     0.010 A 
ATOM     15  C   UNL     1      -0.763   0.287   3.431  1.00  0.00     0.010 A 
BRANCH  11  16
ATOM     16  C   UNL     1      -4.324  -0.928   3.742  1.00  0.00     0.032 C 
ATOM     17  C   UNL     1      -5.026  -0.923   2.419  1.00  0.00     0.009 C 
ENDBRANCH  11  16
ENDBRANCH   9  10
ENDBRANCH   1   9
BRANCH   4  18
ATOM     18  C   UNL     1       1.554  -0.478  -2.088  1.00  0.00     0.316 C 
ATOM     19  O   UNL     1       0.474  -0.828  -2.528  1.00  0.00    -0.231 OA
BRANCH  18  20
ATOM     20  C   UNL     1       2.347  -0.003  -3.199  1.00  0.00     0.180 C 
BRANCH  20  21
ATOM     21  C   UNL     1       1.608  -0.082  -4.493  1.00  0.00    -0.035 A 
ATOM     22  C   UNL     1       0.860   0.934  -5.007  1.00  0.00     0.004 A 
ATOM     23  C   UNL     1       1.695  -1.263  -5.198  1.00  0.00     0.004 A 
ATOM     24  C   UNL     1       0.211   0.748  -6.221  1.00  0.00     0.000 A 
ATOM     25  C   UNL     1       1.053  -1.459  -6.405  1.00  0.00     0.000 A 
ATOM     26  C   UNL     1       0.293  -0.432  -6.931  1.00  0.00     0.000 A 
ENDBRANCH  20  21
ENDBRANCH  18  20
ENDBRANCH   4  18
TORSDOF 6
