REMARK SMILES CC1=CC(=O)C2C(C)(C)CCCC2(C)C1(O)CCc1ccoc1
REMARK SMILES IDX 1 1 2 2 3 3 4 4 5 5 6 6 7 7 8 8 9 9 10 10 11 11 12 12 13 13
REMARK SMILES IDX 14 14 15 15 16 16 17 18 18 19 19 20 20 21 23 22 21 23 22 24
REMARK H PARENT 16 17
ROOT
ATOM      1  C   UNL     1      -3.191   0.535  -2.007  1.00  0.00     0.043 C 
ATOM      2  C   UNL     1      -2.208   0.367  -0.862  1.00  0.00    -0.038 C 
ATOM      3  C   UNL     1      -2.479   0.881   0.310  1.00  0.00     0.049 C 
ATOM      4  C   UNL     1      -1.529   0.704   1.394  1.00  0.00     0.160 C 
ATOM      5  O   UNL     1      -1.346   1.676   2.153  1.00  0.00    -0.295 OA
ATOM      6  C   UNL     1      -0.890  -0.631   1.458  1.00  0.00     0.075 C 
ATOM      7  C   UNL     1      -0.078  -0.895   2.648  1.00  0.00    -0.025 C 
ATOM      8  C   UNL     1      -0.713  -2.082   3.406  1.00  0.00     0.012 C 
ATOM      9  C   UNL     1      -0.160   0.241   3.699  1.00  0.00     0.012 C 
ATOM     10  C   UNL     1       1.365  -1.214   2.545  1.00  0.00     0.007 C 
ATOM     11  C   UNL     1       2.007  -0.888   1.223  1.00  0.00     0.001 C 
ATOM     12  C   UNL     1       1.104  -0.103   0.335  1.00  0.00     0.011 C 
ATOM     13  C   UNL     1      -0.218  -0.870   0.096  1.00  0.00     0.011 C 
ATOM     14  C   UNL     1       0.056  -2.364   0.104  1.00  0.00     0.015 C 
ATOM     15  C   UNL     1      -0.890  -0.338  -1.087  1.00  0.00     0.092 C 
ENDROOT
BRANCH  15  16
ATOM     16  O   UNL     1      -0.074   0.773  -1.550  1.00  0.00    -0.385 OA
ATOM     17  H   UNL     1      -0.629   1.212  -2.261  1.00  0.00     0.211 HD
ENDBRANCH  15  16
BRANCH  15  18
ATOM     18  C   UNL     1      -1.112  -1.128  -2.304  1.00  0.00     0.045 C 
BRANCH  18  19
ATOM     19  C   UNL     1      -0.140  -1.966  -2.994  1.00  0.00     0.042 C 
BRANCH  19  20
ATOM     20  C   UNL     1       1.084  -1.368  -3.498  1.00  0.00    -0.010 A 
ATOM     21  C   UNL     1       2.302  -1.269  -2.871  1.00  0.00     0.045 A 
ATOM     22  C   UNL     1       1.293  -0.755  -4.735  1.00  0.00     0.198 A 
ATOM     23  C   UNL     1       3.178  -0.623  -3.718  1.00  0.00     0.195 A 
ATOM     24  O   UNL     1       2.534  -0.337  -4.814  1.00  0.00    -0.472 OA
ENDBRANCH  19  20
ENDBRANCH  18  19
ENDBRANCH  15  18
TORSDOF 4
