REMARK SMILES Cc1c(-c2ccccc2Cl)c(=O)oc2cc([O-])ccc12
REMARK SMILES IDX 1 1 2 2 3 3 11 4 12 5 13 6 14 7 15 8 16 9 17 10 18 11 19 12
REMARK SMILES IDX 20 13 4 14 5 15 9 16 6 17 8 18 7 19 10 20
REMARK H PARENT
ROOT
ATOM      1  C   UNL     1      -1.455  -0.590   0.910  1.00  0.00     0.046 C 
ATOM      2  C   UNL     1      -0.736  -0.521  -0.374  1.00  0.00    -0.025 A 
ATOM      3  C   UNL     1       0.597  -0.172  -0.387  1.00  0.00     0.072 A 
ATOM      4  C   UNL     1       1.220  -0.122  -1.615  1.00  0.00     0.344 A 
ATOM      5  O   UNL     1       2.426   0.185  -1.722  1.00  0.00    -0.246 OA
ATOM      6  O   UNL     1       0.564  -0.399  -2.733  1.00  0.00    -0.422 OA
ATOM      7  C   UNL     1      -0.704  -0.733  -2.738  1.00  0.00     0.138 A 
ATOM      8  C   UNL     1      -1.353  -1.015  -3.935  1.00  0.00     0.039 A 
ATOM      9  C   UNL     1      -2.680  -1.362  -3.921  1.00  0.00    -0.105 A 
ATOM     10  O   UNL     1      -3.321  -1.644  -5.135  1.00  0.00    -0.872 OA
ATOM     11  C   UNL     1      -3.400  -1.442  -2.746  1.00  0.00    -0.008 A 
ATOM     12  C   UNL     1      -2.757  -1.163  -1.565  1.00  0.00     0.011 A 
ATOM     13  C   UNL     1      -1.430  -0.812  -1.545  1.00  0.00     0.021 A 
ENDROOT
BRANCH   3  14
ATOM     14  C   UNL     1       1.332   0.136   0.834  1.00  0.00     0.008 A 
ATOM     15  C   UNL     1       2.003  -0.823   1.565  1.00  0.00     0.010 A 
ATOM     16  C   UNL     1       1.375   1.434   1.301  1.00  0.00     0.049 A 
ATOM     17  C   UNL     1       2.697  -0.515   2.724  1.00  0.00     0.001 A 
ATOM     18  C   UNL     1       2.070   1.745   2.462  1.00  0.00     0.021 A 
ATOM     19  C   UNL     1       2.740   0.783   3.190  1.00  0.00     0.002 A 
ATOM     20  Cl  UNL     1       0.527   2.665   0.384  1.00  0.00    -0.084 Cl
ENDBRANCH   3  14
TORSDOF 1
