REMARK SMILES COc1ccc(CC(=O)c2ccc([O-])cc2O)cc1
REMARK SMILES IDX 8 1 9 2 7 3 6 4 3 5 4 6 19 7 5 8 18 9 2 10 1 11 10 12 11 13
REMARK SMILES IDX 16 14 12 15 15 16 13 17 14 18 17 19
REMARK H PARENT 17 20
ROOT
ATOM      1  C   UNL     1       1.970  -0.345  -0.585  1.00  0.00     0.170 C 
ATOM      2  O   UNL     1       2.492   0.832  -0.455  1.00  0.00    -0.294 OA
ENDROOT
BRANCH   1   3
ATOM      3  C   UNL     1       1.688  -1.008   0.698  1.00  0.00     0.116 C 
BRANCH   3   4
ATOM      4  C   UNL     1       0.502  -0.272   1.302  1.00  0.00    -0.040 A 
ATOM      5  C   UNL     1      -1.729   1.101   2.315  1.00  0.00     0.118 A 
ATOM      6  C   UNL     1      -0.455   1.489   2.646  1.00  0.00     0.047 A 
ATOM      7  C   UNL     1      -1.875   0.024   1.478  1.00  0.00     0.047 A 
ATOM      8  C   UNL     1       0.652   0.796   2.134  1.00  0.00     0.008 A 
ATOM      9  C   UNL     1      -0.779  -0.662   0.970  1.00  0.00     0.008 A 
BRANCH   5  10
ATOM     10  O   UNL     1      -2.860   1.780   2.811  1.00  0.00    -0.497 OA
ATOM     11  C   UNL     1      -4.163   1.309   2.417  1.00  0.00     0.278 C 
ENDBRANCH   5  10
ENDBRANCH   3   4
ENDBRANCH   1   3
BRANCH   1  12
ATOM     12  C   UNL     1       1.742  -0.818  -1.923  1.00  0.00     0.060 A 
ATOM     13  C   UNL     1       2.018   0.046  -2.981  1.00  0.00     0.015 A 
ATOM     14  C   UNL     1       1.224  -2.049  -2.224  1.00  0.00     0.125 A 
ATOM     15  C   UNL     1       1.783  -0.317  -4.281  1.00  0.00    -0.008 A 
ATOM     16  C   UNL     1       0.992  -2.390  -3.561  1.00  0.00     0.038 A 
ATOM     17  C   UNL     1       1.263  -1.547  -4.605  1.00  0.00    -0.105 A 
ATOM     18  O   UNL     1       1.022  -1.906  -5.948  1.00  0.00    -0.872 OA
BRANCH  14  19
ATOM     19  O   UNL     1       0.910  -2.990  -1.251  1.00  0.00    -0.507 OA
ATOM     20  H   UNL     1      -0.003  -3.382  -1.245  1.00  0.00     0.293 HD
ENDBRANCH  14  19
ENDBRANCH   1  12
TORSDOF 5
