REMARK SMILES CCn1c(C)cc(C(=O)Cn2cnc3ccccc32)c1C
REMARK SMILES IDX 3 1 4 2 5 3 6 4 7 5 20 6 21 7 2 8 1 9 8 10 9 11 10 12 11 13
REMARK SMILES IDX 12 14 19 15 13 16 18 17 14 18 17 19 15 20 16 21
REMARK H PARENT
ROOT
ATOM      1  N   UNL     1      -1.928   0.939   1.686  1.00  0.00    -0.349 N 
ATOM      2  C   UNL     1      -1.418   1.796   0.796  1.00  0.00     0.015 A 
ATOM      3  C   UNL     1      -1.938   3.124   0.396  1.00  0.00     0.064 C 
ATOM      4  C   UNL     1      -0.284   1.202   0.287  1.00  0.00     0.035 A 
ATOM      5  C   UNL     1      -0.100  -0.035   0.874  1.00  0.00     0.040 A 
ATOM      6  C   UNL     1      -1.173  -0.161   1.762  1.00  0.00     0.025 A 
ATOM      7  C   UNL     1      -1.373  -1.363   2.636  1.00  0.00     0.065 C 
ENDROOT
BRANCH   1   8
ATOM      8  C   UNL     1      -3.128   1.099   2.507  1.00  0.00     0.118 C 
ATOM      9  C   UNL     1      -2.880   1.712   3.833  1.00  0.00     0.027 C 
ENDBRANCH   1   8
BRANCH   5  10
ATOM     10  C   UNL     1       0.942  -1.013   0.620  1.00  0.00     0.184 C 
ATOM     11  O   UNL     1       0.852  -2.117   1.278  1.00  0.00    -0.292 OA
BRANCH  10  12
ATOM     12  C   UNL     1       2.074  -0.879  -0.300  1.00  0.00     0.204 C 
BRANCH  12  13
ATOM     13  N   UNL     1       1.755  -1.021  -1.703  1.00  0.00    -0.323 N 
ATOM     14  C   UNL     1       1.538  -0.020  -2.569  1.00  0.00     0.201 A 
ATOM     15  C   UNL     1       1.676  -2.223  -2.319  1.00  0.00     0.068 A 
ATOM     16  N   UNL     1       1.316  -0.603  -3.763  1.00  0.00    -0.237 NA
ATOM     17  C   UNL     1       1.807  -3.531  -1.888  1.00  0.00     0.028 A 
ATOM     18  C   UNL     1       1.391  -1.936  -3.652  1.00  0.00     0.088 A 
ATOM     19  C   UNL     1       1.663  -4.595  -2.746  1.00  0.00     0.002 A 
ATOM     20  C   UNL     1       1.248  -3.001  -4.513  1.00  0.00     0.030 A 
ATOM     21  C   UNL     1       1.381  -4.305  -4.068  1.00  0.00     0.002 A 
ENDBRANCH  12  13
ENDBRANCH  10  12
ENDBRANCH   5  10
TORSDOF 4
