REMARK SMILES CC(C)[C@H](NC(=O)CNC(=O)OC(C)(C)C)C(=O)N[C@H](C=O)C(C)C
REMARK SMILES IDX 5 1 6 2 7 3 4 5 2 6 1 7 3 8 17 9 18 10 19 11 20 13 21 14
REMARK SMILES IDX 22 15 23 16 24 17 25 18 8 19 9 20 10 21 11 22 12 24 13 25
REMARK SMILES IDX 14 26 15 27 16 28
REMARK H PARENT 5 4 19 12 9 23
ROOT
ATOM      1  N   UNL     1      -0.598  -0.042   1.793  1.00  0.00    -0.343 N 
ATOM      2  C   UNL     1      -0.244   0.933   2.750  1.00  0.00     0.240 C 
ATOM      3  O   UNL     1      -0.756   0.879   3.897  1.00  0.00    -0.273 OA
ATOM      4  H   UNL     1      -0.200  -0.074   0.830  1.00  0.00     0.164 HD
ENDROOT
BRANCH   1   5
ATOM      5  C   UNL     1      -1.543  -1.112   2.076  1.00  0.00     0.173 C 
BRANCH   5   6
ATOM      6  C   UNL     1      -2.719  -1.108   1.142  1.00  0.00     0.015 C 
ATOM      7  C   UNL     1      -2.333  -1.275  -0.295  1.00  0.00     0.010 C 
ATOM      8  C   UNL     1      -3.599  -2.282   1.521  1.00  0.00     0.010 C 
ENDBRANCH   5   6
BRANCH   5   9
ATOM      9  C   UNL     1      -0.835  -2.411   1.955  1.00  0.00     0.243 C 
ATOM     10  O   UNL     1      -1.398  -3.518   2.143  1.00  0.00    -0.273 OA
ATOM     11  N   UNL     1       0.549  -2.460   1.610  1.00  0.00    -0.345 N 
ATOM     12  H   UNL     1       1.068  -1.580   1.442  1.00  0.00     0.164 HD
BRANCH  11  13
ATOM     13  C   UNL     1       1.277  -3.707   1.482  1.00  0.00     0.148 C 
BRANCH  13  14
ATOM     14  C   UNL     1       2.460  -3.684   2.382  1.00  0.00     0.249 C 
ATOM     15  O   UNL     1       3.234  -4.622   2.456  1.00  0.00    -0.301 OA
ENDBRANCH  13  14
BRANCH  13  16
ATOM     16  C   UNL     1       1.784  -3.798   0.065  1.00  0.00     0.012 C 
ATOM     17  C   UNL     1       2.696  -2.654  -0.272  1.00  0.00     0.010 C 
ATOM     18  C   UNL     1       0.702  -3.926  -0.955  1.00  0.00     0.010 C 
ENDBRANCH  13  16
ENDBRANCH  11  13
ENDBRANCH   5   9
ENDBRANCH   1   5
BRANCH   2  19
ATOM     19  C   UNL     1       0.716   2.001   2.410  1.00  0.00     0.219 C 
BRANCH  19  20
ATOM     20  N   UNL     1       1.196   2.002   1.071  1.00  0.00    -0.312 N 
ATOM     21  C   UNL     1       0.394   2.192  -0.081  1.00  0.00     0.408 C 
ATOM     22  O   UNL     1      -0.822   2.384   0.038  1.00  0.00    -0.225 OA
ATOM     23  H   UNL     1       2.227   1.852   0.870  1.00  0.00     0.167 HD
BRANCH  21  24
ATOM     24  O   UNL     1       0.938   2.168  -1.350  1.00  0.00    -0.444 OA
BRANCH  24  25
ATOM     25  C   UNL     1       0.171   2.354  -2.523  1.00  0.00     0.106 C 
ATOM     26  C   UNL     1       1.133   2.257  -3.701  1.00  0.00     0.056 C 
ATOM     27  C   UNL     1      -0.887   1.305  -2.704  1.00  0.00     0.056 C 
ATOM     28  C   UNL     1      -0.452   3.743  -2.570  1.00  0.00     0.056 C 
ENDBRANCH  24  25
ENDBRANCH  21  24
ENDBRANCH  19  20
ENDBRANCH   2  19
TORSDOF 10
