REMARK SMILES O=C(c1ccccc1Cl)N1CCN(Cc2ccccc2Cl)CC1
REMARK SMILES IDX 1 1 2 2 10 3 11 4 12 5 13 6 22 7 23 8 3 9 4 10 8 11 5 12
REMARK SMILES IDX 7 13 6 14 9 15 14 16 15 17 16 18 20 19 17 20 19 21 18 22
REMARK SMILES IDX 21 23
REMARK H PARENT
ROOT
ATOM      1  O   UNL     1      -0.210   0.096   3.621  1.00  0.00    -0.269 OA
ATOM      2  C   UNL     1       0.549   0.066   2.628  1.00  0.00     0.255 C 
ATOM      3  N   UNL     1       0.056  -0.329   1.360  1.00  0.00    -0.336 N 
ATOM      4  C   UNL     1       0.885  -0.376   0.178  1.00  0.00     0.135 C 
ATOM      5  C   UNL     1       0.290   0.244  -1.011  1.00  0.00     0.106 C 
ATOM      6  N   UNL     1      -1.138   0.317  -1.083  1.00  0.00    -0.296 NA
ATOM      7  C   UNL     1      -1.895  -0.031   0.009  1.00  0.00     0.106 C 
ATOM      8  C   UNL     1      -1.315  -0.730   1.173  1.00  0.00     0.135 C 
ENDROOT
BRANCH   2   9
ATOM      9  C   UNL     1       1.938   0.433   2.773  1.00  0.00     0.058 A 
ATOM     10  C   UNL     1       2.868  -0.548   3.117  1.00  0.00     0.015 A 
ATOM     11  C   UNL     1       2.384   1.719   2.602  1.00  0.00     0.053 A 
ATOM     12  C   UNL     1       4.208  -0.244   3.285  1.00  0.00     0.001 A 
ATOM     13  C   UNL     1       3.719   2.044   2.765  1.00  0.00     0.021 A 
ATOM     14  C   UNL     1       4.630   1.049   3.110  1.00  0.00     0.002 A 
ATOM     15  Cl  UNL     1       1.268   3.016   2.165  1.00  0.00    -0.083 Cl
ENDBRANCH   2   9
BRANCH   6  16
ATOM     16  C   UNL     1      -1.609   0.007  -2.395  1.00  0.00     0.121 C 
BRANCH  16  17
ATOM     17  C   UNL     1      -2.409  -1.211  -2.522  1.00  0.00    -0.015 A 
ATOM     18  C   UNL     1      -1.723  -2.424  -2.731  1.00  0.00     0.006 A 
ATOM     19  C   UNL     1      -3.788  -1.251  -2.381  1.00  0.00     0.045 A 
ATOM     20  C   UNL     1      -2.436  -3.575  -2.782  1.00  0.00     0.000 A 
ATOM     21  C   UNL     1      -4.494  -2.446  -2.437  1.00  0.00     0.021 A 
ATOM     22  C   UNL     1      -3.821  -3.627  -2.639  1.00  0.00     0.002 A 
ATOM     23  Cl  UNL     1      -4.691   0.247  -2.189  1.00  0.00    -0.084 Cl
ENDBRANCH  16  17
ENDBRANCH   6  16
TORSDOF 3
