REMARK SMILES CC(=O)N1CCN(c2c(Cl)cccc2NC(=O)c2ccc(C)c(C)c2)CC1
REMARK SMILES IDX 8 1 9 2 10 3 11 4 12 5 13 6 14 7 7 8 2 9 3 10 4 11 5 12
REMARK SMILES IDX 27 13 6 14 26 15 1 16 15 17 16 18 17 19 18 21 19 22 25 23
REMARK SMILES IDX 20 24 23 25 21 26 24 27 22 28
REMARK H PARENT 15 20
ROOT
ATOM      1  C   UNL     1       1.107   1.368  -1.954  1.00  0.00     0.080 A 
ATOM      2  C   UNL     1       1.487   2.462  -2.737  1.00  0.00     0.066 A 
ATOM      3  Cl  UNL     1       1.914   3.928  -1.909  1.00  0.00    -0.082 Cl
ATOM      4  C   UNL     1       1.474   2.431  -4.124  1.00  0.00     0.023 A 
ATOM      5  C   UNL     1       1.069   1.279  -4.757  1.00  0.00     0.004 A 
ATOM      6  C   UNL     1       0.682   0.171  -4.055  1.00  0.00     0.028 A 
ATOM      7  C   UNL     1       0.711   0.244  -2.642  1.00  0.00     0.066 A 
ENDROOT
BRANCH   1   8
ATOM      8  N   UNL     1       1.247   1.437  -0.569  1.00  0.00    -0.365 N 
ATOM      9  C   UNL     1      -0.367   2.636   3.017  1.00  0.00     0.219 C 
ATOM     10  O   UNL     1      -0.555   3.862   3.182  1.00  0.00    -0.275 OA
ATOM     11  N   UNL     1       0.466   2.194   1.965  1.00  0.00    -0.339 N 
ATOM     12  C   UNL     1       0.683   0.783   1.774  1.00  0.00     0.141 C 
ATOM     13  C   UNL     1       1.120   3.158   1.057  1.00  0.00     0.141 C 
ATOM     14  C   UNL     1       0.591   0.446   0.268  1.00  0.00     0.138 C 
ATOM     15  C   UNL     1       2.045   2.346   0.208  1.00  0.00     0.138 C 
ATOM     16  C   UNL     1      -1.018   1.670   3.922  1.00  0.00     0.114 C 
ENDBRANCH   1   8
BRANCH   7  17
ATOM     17  N   UNL     1       0.343  -0.984  -2.009  1.00  0.00    -0.320 N 
ATOM     18  C   UNL     1      -0.963  -1.403  -1.726  1.00  0.00     0.255 C 
ATOM     19  O   UNL     1      -1.908  -0.639  -2.051  1.00  0.00    -0.269 OA
ATOM     20  H   UNL     1       1.123  -1.668  -1.749  1.00  0.00     0.170 HD
BRANCH  18  21
ATOM     21  C   UNL     1      -1.260  -2.662  -1.082  1.00  0.00     0.040 A 
ATOM     22  C   UNL     1      -2.593  -2.981  -0.851  1.00  0.00     0.014 A 
ATOM     23  C   UNL     1      -0.346  -3.595  -0.665  1.00  0.00     0.017 A 
ATOM     24  C   UNL     1      -2.985  -4.156  -0.244  1.00  0.00     0.004 A 
ATOM     25  C   UNL     1      -0.729  -4.788  -0.049  1.00  0.00    -0.047 A 
ATOM     26  C   UNL     1      -2.045  -5.074   0.164  1.00  0.00    -0.048 A 
ATOM     27  C   UNL     1       0.334  -5.720   0.358  1.00  0.00     0.044 C 
ATOM     28  C   UNL     1      -2.472  -6.352   0.824  1.00  0.00     0.044 C 
ENDBRANCH  18  21
ENDBRANCH   7  17
TORSDOF 3
