REMARK SMILES CC(=O)[NH+]1CCN(c2c(Cl)cccc2NC(=O)c2ccc(C)c(C)c2)CC1
REMARK SMILES IDX 8 1 9 2 10 3 11 4 12 5 13 6 14 7 7 8 4 9 5 10 27 11 6 12
REMARK SMILES IDX 26 13 2 15 3 16 1 17 15 18 16 19 17 20 18 22 19 23 25 24
REMARK SMILES IDX 20 25 23 26 21 27 24 28 22 29
REMARK H PARENT 4 14 15 21
ROOT
ATOM      1  C   UNL     1       2.098   1.347  -1.367  1.00  0.00     0.080 A 
ATOM      2  C   UNL     1       2.974   2.256  -1.883  1.00  0.00     0.066 A 
ATOM      3  Cl  UNL     1       3.027   3.931  -1.390  1.00  0.00    -0.082 Cl
ATOM      4  C   UNL     1       3.892   1.868  -2.857  1.00  0.00     0.023 A 
ATOM      5  C   UNL     1       3.914   0.581  -3.293  1.00  0.00     0.004 A 
ATOM      6  C   UNL     1       3.014  -0.337  -2.758  1.00  0.00     0.028 A 
ATOM      7  C   UNL     1       2.118   0.030  -1.812  1.00  0.00     0.066 A 
ENDROOT
BRANCH   1   8
ATOM      8  N   UNL     1       1.168   1.783  -0.368  1.00  0.00    -0.357 N 
ATOM      9  N   UNL     1      -0.829   1.781   1.445  1.00  0.00    -0.269 N 
ATOM     10  C   UNL     1       0.553   1.966   2.014  1.00  0.00     0.291 C 
ATOM     11  C   UNL     1      -0.865   2.813   0.382  1.00  0.00     0.291 C 
ATOM     12  C   UNL     1       1.592   1.684   0.990  1.00  0.00     0.178 C 
ATOM     13  C   UNL     1      -0.089   2.273  -0.827  1.00  0.00     0.178 C 
ATOM     14  H   UNL     1      -0.684   0.957   1.033  1.00  0.00     0.356 HD
BRANCH   9  15
ATOM     15  C   UNL     1      -1.841   1.809   2.349  1.00  0.00     0.309 C 
ATOM     16  O   UNL     1      -1.511   2.916   2.700  1.00  0.00    -0.231 OA
ATOM     17  C   UNL     1      -2.982   1.288   3.051  1.00  0.00     0.164 C 
ENDBRANCH   9  15
ENDBRANCH   1   8
BRANCH   7  18
ATOM     18  N   UNL     1       1.187  -0.853  -1.238  1.00  0.00    -0.320 N 
ATOM     19  C   UNL     1       1.005  -2.217  -1.511  1.00  0.00     0.255 C 
ATOM     20  O   UNL     1       1.738  -2.771  -2.367  1.00  0.00    -0.269 OA
ATOM     21  H   UNL     1       0.505  -0.474  -0.485  1.00  0.00     0.170 HD
BRANCH  19  22
ATOM     22  C   UNL     1      -0.017  -3.026  -0.828  1.00  0.00     0.040 A 
ATOM     23  C   UNL     1      -0.881  -2.554   0.122  1.00  0.00     0.014 A 
ATOM     24  C   UNL     1      -0.138  -4.384  -1.154  1.00  0.00     0.017 A 
ATOM     25  C   UNL     1      -1.826  -3.399   0.721  1.00  0.00     0.004 A 
ATOM     26  C   UNL     1      -1.066  -5.215  -0.566  1.00  0.00    -0.047 A 
ATOM     27  C   UNL     1      -1.930  -4.728   0.389  1.00  0.00    -0.048 A 
ATOM     28  C   UNL     1      -1.148  -6.649  -0.952  1.00  0.00     0.044 C 
ATOM     29  C   UNL     1      -2.949  -5.621   1.041  1.00  0.00     0.044 C 
ENDBRANCH  19  22
ENDBRANCH   7  18
TORSDOF 4
