REMARK SMILES OC(COCc1ccccc1)C(O)COCc1ccccc1
REMARK SMILES IDX 2 1 1 2 3 4 4 5 5 6 6 7 7 8 11 9 8 10 10 11 9 12 12 13 13 14
REMARK SMILES IDX 14 16 15 17 16 18 17 19 18 20 22 21 19 22 21 23 20 24
REMARK H PARENT 1 3 13 15
ROOT
ATOM      1  C   UNL     1       0.313   0.085  -2.572  1.00  0.00     0.171 C 
ENDROOT
BRANCH   1   2
ATOM      2  O   UNL     1      -0.599   0.798  -3.344  1.00  0.00    -0.388 OA
ATOM      3  H   UNL     1      -0.922   1.566  -2.818  1.00  0.00     0.211 HD
ENDBRANCH   1   2
BRANCH   1   4
ATOM      4  C   UNL     1       1.286   1.072  -1.959  1.00  0.00     0.195 C 
BRANCH   4   5
ATOM      5  O   UNL     1       0.574   1.949  -1.187  1.00  0.00    -0.374 OA
BRANCH   5   6
ATOM      6  C   UNL     1       1.313   2.920  -0.554  1.00  0.00     0.195 C 
BRANCH   6   7
ATOM      7  C   UNL     1       2.298   2.268   0.343  1.00  0.00    -0.022 A 
ATOM      8  C   UNL     1       3.568   1.918  -0.065  1.00  0.00     0.006 A 
ATOM      9  C   UNL     1       1.942   1.994   1.644  1.00  0.00     0.006 A 
ATOM     10  C   UNL     1       4.452   1.321   0.778  1.00  0.00     0.000 A 
ATOM     11  C   UNL     1       2.839   1.388   2.499  1.00  0.00     0.000 A 
ATOM     12  C   UNL     1       4.094   1.047   2.082  1.00  0.00     0.000 A 
ENDBRANCH   6   7
ENDBRANCH   5   6
ENDBRANCH   4   5
ENDBRANCH   1   4
BRANCH   1  13
ATOM     13  C   UNL     1      -0.431  -0.671  -1.489  1.00  0.00     0.171 C 
BRANCH  13  14
ATOM     14  O   UNL     1      -1.091   0.245  -0.722  1.00  0.00    -0.388 OA
ATOM     15  H   UNL     1      -0.626   0.459   0.148  1.00  0.00     0.211 HD
ENDBRANCH  13  14
BRANCH  13  16
ATOM     16  C   UNL     1      -1.201  -1.822  -2.006  1.00  0.00     0.195 C 
BRANCH  16  17
ATOM     17  O   UNL     1      -1.714  -2.612  -1.025  1.00  0.00    -0.374 OA
BRANCH  17  18
ATOM     18  C   UNL     1      -2.603  -2.095  -0.140  1.00  0.00     0.195 C 
BRANCH  18  19
ATOM     19  C   UNL     1      -3.071  -3.157   0.841  1.00  0.00    -0.022 A 
ATOM     20  C   UNL     1      -2.389  -3.359   2.022  1.00  0.00     0.006 A 
ATOM     21  C   UNL     1      -4.179  -3.932   0.568  1.00  0.00     0.006 A 
ATOM     22  C   UNL     1      -2.803  -4.310   2.908  1.00  0.00     0.000 A 
ATOM     23  C   UNL     1      -4.601  -4.896   1.461  1.00  0.00     0.000 A 
ATOM     24  C   UNL     1      -3.912  -5.094   2.645  1.00  0.00     0.000 A 
ENDBRANCH  18  19
ENDBRANCH  17  18
ENDBRANCH  16  17
ENDBRANCH  13  16
ENDBRANCH   1  13
TORSDOF 11
