REMARK SMILES O=C(c1ccc(S(=O)(=O)c2ccc(Br)cc2)c([N+](=O)[O-])c1)N1CCCC1
REMARK SMILES IDX 3 1 4 2 5 3 6 4 17 5 21 6 2 7 1 8 22 9 23 10 26 11 24 12
REMARK SMILES IDX 25 13 18 14 19 15 20 16 7 17 8 18 9 19 10 20 11 21 16 22
REMARK SMILES IDX 12 23 15 24 13 25 14 26
REMARK H PARENT
ROOT
ATOM      1  C   UNL     1      -1.875   0.539   1.035  1.00  0.00     0.046 A 
ATOM      2  C   UNL     1      -1.803   1.475   0.020  1.00  0.00     0.016 A 
ATOM      3  C   UNL     1      -0.601   1.962  -0.424  1.00  0.00     0.029 A 
ATOM      4  C   UNL     1       0.603   1.513   0.152  1.00  0.00     0.149 A 
ATOM      5  C   UNL     1       0.565   0.587   1.162  1.00  0.00     0.289 A 
ATOM      6  C   UNL     1      -0.695   0.128   1.570  1.00  0.00     0.101 A 
ENDROOT
BRANCH   1   7
ATOM      7  C   UNL     1      -3.142   0.007   1.512  1.00  0.00     0.254 C 
ATOM      8  O   UNL     1      -4.003   0.793   1.938  1.00  0.00    -0.269 OA
ATOM      9  N   UNL     1      -3.389  -1.405   1.488  1.00  0.00    -0.339 N 
ATOM     10  C   UNL     1      -4.604  -2.059   1.931  1.00  0.00     0.120 C 
ATOM     11  C   UNL     1      -2.507  -2.448   1.033  1.00  0.00     0.120 C 
ATOM     12  C   UNL     1      -4.788  -3.129   0.872  1.00  0.00     0.023 C 
ATOM     13  C   UNL     1      -3.371  -3.625   0.655  1.00  0.00     0.023 C 
ENDBRANCH   1   7
BRANCH   5  14
ATOM     14  N   UNL     1       1.719   0.088   1.805  1.00  0.00     0.064 N 
ATOM     15  O   UNL     1       2.709   0.774   2.015  1.00  0.00    -0.258 OA
ATOM     16  O   UNL     1       1.693  -1.219   2.242  1.00  0.00    -0.258 OA
ENDBRANCH   5  14
BRANCH   4  17
ATOM     17  S   UNL     1       2.086   2.138  -0.534  1.00  0.00     0.213 S 
ATOM     18  O   UNL     1       2.894   2.833   0.506  1.00  0.00    -0.218 OA
ATOM     19  O   UNL     1       1.759   3.173  -1.595  1.00  0.00    -0.218 OA
BRANCH  17  20
ATOM     20  C   UNL     1       3.019   0.871  -1.314  1.00  0.00     0.072 A 
ATOM     21  C   UNL     1       2.500   0.391  -2.530  1.00  0.00     0.022 A 
ATOM     22  C   UNL     1       4.169   0.396  -0.808  1.00  0.00     0.022 A 
ATOM     23  C   UNL     1       3.215  -0.588  -3.187  1.00  0.00     0.017 A 
ATOM     24  C   UNL     1       4.875  -0.593  -1.488  1.00  0.00     0.017 A 
ATOM     25  C   UNL     1       4.381  -1.077  -2.685  1.00  0.00     0.018 A 
ATOM     26  Br  UNL     1       5.315  -2.440  -3.659  1.00  0.00    -0.051 Br
ENDBRANCH  17  20
ENDBRANCH   4  17
TORSDOF 4
