REMARK SMILES COc1ccccc1-c1cc(=O)c2ccccc2o1
REMARK SMILES IDX 3 1 4 2 5 3 6 4 7 5 8 6 2 7 1 8 9 9 10 10 19 11 11 12 18 13
REMARK SMILES IDX 12 14 13 15 17 16 14 17 16 18 15 19
REMARK H PARENT
ROOT
ATOM      1  C   UNL     1      -0.189   0.019   1.851  1.00  0.00     0.129 A 
ATOM      2  C   UNL     1      -0.097   0.274   3.215  1.00  0.00     0.047 A 
ATOM      3  C   UNL     1       1.138   0.439   3.824  1.00  0.00     0.004 A 
ATOM      4  C   UNL     1       2.259   0.349   3.062  1.00  0.00     0.001 A 
ATOM      5  C   UNL     1       2.148   0.095   1.708  1.00  0.00     0.016 A 
ATOM      6  C   UNL     1       0.946  -0.073   1.079  1.00  0.00     0.059 A 
ENDROOT
BRANCH   1   7
ATOM      7  O   UNL     1      -1.466  -0.133   1.329  1.00  0.00    -0.496 OA
ATOM      8  C   UNL     1      -2.631  -0.043   2.098  1.00  0.00     0.278 C 
ENDBRANCH   1   7
BRANCH   6   9
ATOM      9  C   UNL     1       0.836  -0.340  -0.348  1.00  0.00     0.142 A 
ATOM     10  C   UNL     1       1.910  -0.449  -1.203  1.00  0.00     0.100 A 
ATOM     11  O   UNL     1      -0.364  -0.496  -0.911  1.00  0.00    -0.456 OA
ATOM     12  C   UNL     1       1.768  -0.704  -2.558  1.00  0.00     0.193 A 
ATOM     13  C   UNL     1      -0.539  -0.737  -2.184  1.00  0.00     0.138 A 
ATOM     14  O   UNL     1       2.742  -0.803  -3.328  1.00  0.00    -0.289 OA
ATOM     15  C   UNL     1       0.502  -0.856  -3.079  1.00  0.00     0.065 A 
ATOM     16  C   UNL     1      -1.823  -0.889  -2.706  1.00  0.00     0.048 A 
ATOM     17  C   UNL     1       0.278  -1.112  -4.424  1.00  0.00     0.016 A 
ATOM     18  C   UNL     1      -2.043  -1.144  -4.041  1.00  0.00     0.004 A 
ATOM     19  C   UNL     1      -0.996  -1.261  -4.931  1.00  0.00     0.001 A 
ENDBRANCH   6   9
TORSDOF 2
