REMARK SMILES CCC1CCCC[NH+]1C(=O)CCCN1C(=O)c2ccccc2C1=O
REMARK SMILES IDX 9 1 10 2 8 3 3 4 4 5 5 6 7 7 6 8 2 10 1 11 11 12 12 13 13 14
REMARK SMILES IDX 14 15 15 16 23 17 16 18 17 19 22 20 24 21 18 22 21 23 19 24
REMARK SMILES IDX 20 25
REMARK H PARENT 8 9
ROOT
ATOM      1  C   UNL     1       0.646  -0.030   1.075  1.00  0.00     0.312 C 
ATOM      2  O   UNL     1      -0.264   0.738   1.349  1.00  0.00    -0.231 OA
ENDROOT
BRANCH   1   3
ATOM      3  N   UNL     1       0.628  -0.543   2.350  1.00  0.00    -0.269 N 
ATOM      4  C   UNL     1      -0.535  -1.317   2.684  1.00  0.00     0.191 C 
ATOM      5  C   UNL     1      -0.786  -1.355   4.170  1.00  0.00     0.066 C 
ATOM      6  C   UNL     1      -1.316  -0.010   4.647  1.00  0.00     0.012 C 
ATOM      7  C   UNL     1       0.766   0.413   3.478  1.00  0.00     0.270 C 
ATOM      8  C   UNL     1      -0.486   1.032   3.952  1.00  0.00     0.062 C 
ATOM      9  H   UNL     1       1.474  -1.007   2.514  1.00  0.00     0.356 HD
BRANCH   4  10
ATOM     10  C   UNL     1      -1.778  -1.048   1.963  1.00  0.00     0.062 C 
ATOM     11  C   UNL     1      -2.830  -2.137   2.242  1.00  0.00     0.010 C 
ENDBRANCH   4  10
ENDBRANCH   1   3
BRANCH   1  12
ATOM     12  C   UNL     1       1.063   0.130  -0.287  1.00  0.00     0.147 C 
BRANCH  12  13
ATOM     13  C   UNL     1       0.216   1.121  -1.095  1.00  0.00     0.036 C 
BRANCH  13  14
ATOM     14  C   UNL     1       0.689   1.285  -2.509  1.00  0.00     0.130 C 
BRANCH  14  15
ATOM     15  N   UNL     1       0.675   0.040  -3.243  1.00  0.00    -0.274 N 
ATOM     16  C   UNL     1      -0.430  -0.520  -3.986  1.00  0.00     0.261 C 
ATOM     17  C   UNL     1       1.735  -0.889  -3.417  1.00  0.00     0.261 C 
ATOM     18  O   UNL     1      -1.553   0.019  -4.073  1.00  0.00    -0.269 OA
ATOM     19  C   UNL     1      -0.031  -1.778  -4.602  1.00  0.00     0.053 A 
ATOM     20  C   UNL     1       1.289  -2.019  -4.264  1.00  0.00     0.053 A 
ATOM     21  O   UNL     1       2.903  -0.799  -2.936  1.00  0.00    -0.269 OA
ATOM     22  C   UNL     1      -0.642  -2.722  -5.397  1.00  0.00     0.015 A 
ATOM     23  C   UNL     1       1.941  -3.146  -4.707  1.00  0.00     0.015 A 
ATOM     24  C   UNL     1      -0.024  -3.860  -5.859  1.00  0.00     0.001 A 
ATOM     25  C   UNL     1       1.306  -4.066  -5.496  1.00  0.00     0.001 A 
ENDBRANCH  14  15
ENDBRANCH  13  14
ENDBRANCH  12  13
ENDBRANCH   1  12
TORSDOF 6
