REMARK SMILES O=C(/C=C/c1cccs1)Nc1ncccn1
REMARK SMILES IDX 1 1 2 2 10 3 3 5 4 6 5 7 6 8 9 9 7 10 8 11 11 12 12 13 16 14
REMARK SMILES IDX 13 15 15 16 14 17
REMARK H PARENT 10 4
ROOT
ATOM      1  O   UNL     1       1.073  -0.831  -1.287  1.00  0.00    -0.270 OA
ATOM      2  C   UNL     1       0.129  -0.307  -0.655  1.00  0.00     0.250 C 
ATOM      3  N   UNL     1      -0.995   0.147  -1.383  1.00  0.00    -0.291 N 
ATOM      4  H   UNL     1      -1.770   0.578  -0.853  1.00  0.00     0.173 HD
ENDROOT
BRANCH   2   5
ATOM      5  C   UNL     1       0.244  -0.197   0.792  1.00  0.00     0.073 C 
ATOM      6  C   UNL     1       1.310  -0.634   1.427  1.00  0.00     0.024 C 
BRANCH   6   7
ATOM      7  C   UNL     1       1.443  -0.530   2.896  1.00  0.00     0.027 A 
ATOM      8  C   UNL     1       0.558  -0.003   3.807  1.00  0.00     0.020 A 
ATOM      9  S   UNL     1       2.807  -1.073   3.852  1.00  0.00    -0.144 S 
ATOM     10  C   UNL     1       0.906  -0.024   5.082  1.00  0.00     0.012 A 
ATOM     11  C   UNL     1       2.098  -0.549   5.473  1.00  0.00     0.065 A 
ENDBRANCH   6   7
ENDBRANCH   2   5
BRANCH   3  12
ATOM     12  C   UNL     1      -1.112   0.041  -2.801  1.00  0.00     0.229 A 
ATOM     13  N   UNL     1      -0.665   1.041  -3.584  1.00  0.00    -0.221 NA
ATOM     14  N   UNL     1      -1.654  -1.021  -3.418  1.00  0.00    -0.221 NA
ATOM     15  C   UNL     1      -0.742   1.010  -4.921  1.00  0.00     0.117 A 
ATOM     16  C   UNL     1      -1.761  -1.113  -4.757  1.00  0.00     0.117 A 
ATOM     17  C   UNL     1      -1.299  -0.082  -5.560  1.00  0.00     0.040 A 
ENDBRANCH   3  12
TORSDOF 3
