REMARK SMILES O=C(CN1C(=O)/C(=N\[N-]C(=O)c2ccccc2O)c2ccccc21)Nc1ccc(Br)cc1
REMARK SMILES IDX 4 1 5 2 6 3 7 4 8 5 19 6 20 7 21 8 22 9 23 10 24 11 3 12
REMARK SMILES IDX 2 13 1 14 25 15 26 17 27 18 32 19 28 20 31 21 29 22 30 23
REMARK SMILES IDX 9 24 10 25 11 26 12 27 13 28 17 29 14 30 16 31 15 32 18 33
REMARK H PARENT 25 16 18 34
ROOT
ATOM      1  N   UNL     1      -1.636   0.218   1.688  1.00  0.00    -0.297 N 
ATOM      2  C   UNL     1      -0.572   0.997   1.102  1.00  0.00     0.276 C 
ATOM      3  O   UNL     1      -0.630   1.522  -0.031  1.00  0.00    -0.267 OA
ATOM      4  C   UNL     1       0.563   1.067   2.027  1.00  0.00     0.117 C 
ATOM      5  N   UNL     1       1.681   1.668   1.814  1.00  0.00    -0.360 NA
ATOM      6  C   UNL     1       0.121   0.295   3.200  1.00  0.00     0.028 A 
ATOM      7  C   UNL     1       0.752   0.022   4.376  1.00  0.00     0.013 A 
ATOM      8  C   UNL     1       0.108  -0.742   5.350  1.00  0.00     0.001 A 
ATOM      9  C   UNL     1      -1.166  -1.243   5.167  1.00  0.00     0.002 A 
ATOM     10  C   UNL     1      -1.795  -0.955   3.963  1.00  0.00     0.027 A 
ATOM     11  C   UNL     1      -1.170  -0.193   2.974  1.00  0.00     0.054 A 
ENDROOT
BRANCH   1  12
ATOM     12  C   UNL     1      -2.907  -0.027   1.037  1.00  0.00     0.226 C 
BRANCH  12  13
ATOM     13  C   UNL     1      -2.824  -1.254   0.212  1.00  0.00     0.244 C 
ATOM     14  O   UNL     1      -3.833  -1.615  -0.416  1.00  0.00    -0.273 OA
ATOM     15  N   UNL     1      -1.647  -2.000   0.124  1.00  0.00    -0.325 N 
ATOM     16  H   UNL     1      -0.830  -1.628   0.687  1.00  0.00     0.169 HD
BRANCH  15  17
ATOM     17  C   UNL     1      -1.404  -3.175  -0.619  1.00  0.00     0.041 A 
ATOM     18  C   UNL     1      -2.342  -3.749  -1.433  1.00  0.00     0.027 A 
ATOM     19  C   UNL     1      -0.160  -3.812  -0.555  1.00  0.00     0.027 A 
ATOM     20  C   UNL     1      -2.040  -4.919  -2.155  1.00  0.00     0.018 A 
ATOM     21  C   UNL     1       0.120  -4.953  -1.264  1.00  0.00     0.018 A 
ATOM     22  C   UNL     1      -0.825  -5.538  -2.089  1.00  0.00     0.018 A 
ATOM     23  Br  UNL     1      -0.495  -7.104  -3.099  1.00  0.00    -0.051 Br
ENDBRANCH  15  17
ENDBRANCH  12  13
ENDBRANCH   1  12
BRANCH   5  24
ATOM     24  N   UNL     1       1.875   2.339   0.585  1.00  0.00    -0.540 NA
BRANCH  24  25
ATOM     25  C   UNL     1       2.613   1.719  -0.474  1.00  0.00     0.102 C 
ATOM     26  O   UNL     1       3.756   1.237  -0.310  1.00  0.00    -0.313 OA
BRANCH  25  27
ATOM     27  C   UNL     1       2.055   1.616  -1.844  1.00  0.00     0.042 A 
ATOM     28  C   UNL     1       1.456   2.702  -2.448  1.00  0.00     0.014 A 
ATOM     29  C   UNL     1       2.130   0.431  -2.550  1.00  0.00     0.124 A 
ATOM     30  C   UNL     1       0.934   2.648  -3.722  1.00  0.00     0.001 A 
ATOM     31  C   UNL     1       1.609   0.369  -3.827  1.00  0.00     0.047 A 
ATOM     32  C   UNL     1       1.011   1.450  -4.433  1.00  0.00     0.004 A 
BRANCH  29  33
ATOM     33  O   UNL     1       2.734  -0.649  -1.930  1.00  0.00    -0.507 OA
ATOM     34  H   UNL     1       2.531  -1.578  -2.266  1.00  0.00     0.293 HD
ENDBRANCH  29  33
ENDBRANCH  25  27
ENDBRANCH  24  25
ENDBRANCH   5  24
TORSDOF 7
