REMARK SMILES O=C(NC(=S)Nc1cccnc1)c1ccco1
REMARK SMILES IDX 1 1 2 2 3 3 4 4 5 5 6 6 13 9 14 10 17 11 15 12 16 13 7 14
REMARK SMILES IDX 8 15 12 16 9 17 11 18 10 19
REMARK H PARENT 3 7 6 8
ROOT
ATOM      1  O   UNL     1      -3.099   1.358  -0.538  1.00  0.00    -0.265 OA
ATOM      2  C   UNL     1      -2.156   0.566  -0.796  1.00  0.00     0.293 C 
ATOM      3  N   UNL     1      -1.005   0.668   0.028  1.00  0.00    -0.296 N 
ATOM      4  C   UNL     1      -0.885   1.605   1.097  1.00  0.00     0.177 C 
ATOM      5  S   UNL     1      -2.125   2.595   1.371  1.00  0.00    -0.040 S 
ATOM      6  N   UNL     1       0.311   1.592   1.854  1.00  0.00    -0.331 N 
ATOM      7  H   UNL     1      -0.233  -0.001  -0.209  1.00  0.00     0.172 HD
ATOM      8  H   UNL     1       0.400   2.283   2.625  1.00  0.00     0.169 HD
ENDROOT
BRANCH   2   9
ATOM      9  C   UNL     1      -2.276  -0.390  -1.891  1.00  0.00     0.191 A 
ATOM     10  C   UNL     1      -1.267  -1.286  -2.259  1.00  0.00     0.056 A 
ATOM     11  O   UNL     1      -3.256  -0.609  -2.698  1.00  0.00    -0.459 OA
ATOM     12  C   UNL     1      -1.729  -2.044  -3.340  1.00  0.00     0.043 A 
ATOM     13  C   UNL     1      -3.004  -1.561  -3.569  1.00  0.00     0.196 A 
ENDBRANCH   2   9
BRANCH   6  14
ATOM     14  C   UNL     1       1.366   0.685   1.597  1.00  0.00     0.059 A 
ATOM     15  C   UNL     1       1.444  -0.466   2.357  1.00  0.00     0.029 A 
ATOM     16  C   UNL     1       2.307   0.870   0.631  1.00  0.00     0.137 A 
ATOM     17  C   UNL     1       2.420  -1.419   2.178  1.00  0.00     0.022 A 
ATOM     18  N   UNL     1       3.274  -0.050   0.438  1.00  0.00    -0.263 NA
ATOM     19  C   UNL     1       3.355  -1.179   1.179  1.00  0.00     0.111 A 
ENDBRANCH   6  14
TORSDOF 2
