REMARK SMILES Cc1cccc(-c2nc3cc(N=Cc4cccc(Br)c4)ccc3o2)c1
REMARK SMILES IDX 7 1 8 2 9 3 10 4 11 5 21 6 22 7 23 8 24 9 6 10 2 11 3 12
REMARK SMILES IDX 25 13 4 14 5 15 1 16 12 17 13 18 14 19 15 20 20 21 16 22
REMARK SMILES IDX 18 23 17 24 19 25
REMARK H PARENT
ROOT
ATOM      1  C   UNL     1      -0.422  -0.244   2.642  1.00  0.00     0.227 A 
ATOM      2  N   UNL     1      -0.096  -1.054   1.623  1.00  0.00    -0.209 NA
ATOM      3  C   UNL     1      -0.005  -0.371   0.463  1.00  0.00     0.112 A 
ATOM      4  C   UNL     1       0.288  -0.687  -0.848  1.00  0.00     0.060 A 
ATOM      5  C   UNL     1       0.306   0.254  -1.854  1.00  0.00     0.065 A 
ATOM      6  C   UNL     1       0.009   1.561  -1.475  1.00  0.00     0.032 A 
ATOM      7  C   UNL     1      -0.284   1.884  -0.171  1.00  0.00     0.052 A 
ATOM      8  C   UNL     1      -0.301   0.939   0.832  1.00  0.00     0.155 A 
ATOM      9  O   UNL     1      -0.539   0.956   2.127  1.00  0.00    -0.436 OA
ENDROOT
BRANCH   1  10
ATOM     10  C   UNL     1      -0.617  -0.594   4.051  1.00  0.00     0.037 A 
ATOM     11  C   UNL     1      -1.139   0.031   6.329  1.00  0.00    -0.050 A 
ATOM     12  C   UNL     1      -0.991  -1.269   6.765  1.00  0.00     0.003 A 
ATOM     13  C   UNL     1      -0.953   0.356   4.991  1.00  0.00     0.017 A 
ATOM     14  C   UNL     1      -0.653  -2.237   5.831  1.00  0.00     0.001 A 
ATOM     15  C   UNL     1      -0.472  -1.890   4.499  1.00  0.00     0.014 A 
ATOM     16  C   UNL     1      -1.502   1.050   7.346  1.00  0.00     0.044 C 
ENDBRANCH   1  10
BRANCH   5  17
ATOM     17  N   UNL     1       0.609  -0.073  -3.205  1.00  0.00    -0.256 NA
ATOM     18  C   UNL     1      -0.114  -0.901  -3.881  1.00  0.00     0.119 C 
BRANCH  18  19
ATOM     19  C   UNL     1       0.178  -1.249  -5.263  1.00  0.00    -0.006 A 
ATOM     20  C   UNL     1      -0.614  -2.133  -5.948  1.00  0.00     0.010 A 
ATOM     21  C   UNL     1       1.260  -0.693  -5.912  1.00  0.00     0.025 A 
ATOM     22  C   UNL     1      -0.367  -2.488  -7.268  1.00  0.00     0.002 A 
ATOM     23  C   UNL     1       1.534  -1.028  -7.233  1.00  0.00     0.018 A 
ATOM     24  C   UNL     1       0.719  -1.919  -7.891  1.00  0.00     0.016 A 
ATOM     25  Br  UNL     1       3.027  -0.275  -8.162  1.00  0.00    -0.051 Br
ENDBRANCH  18  19
ENDBRANCH   5  17
TORSDOF 3
