REMARK SMILES Cc1cc(C(=O)N2CCc3ccccc32)no1
REMARK SMILES IDX 1 1 2 2 3 3 4 4 16 5 17 6 5 7 6 8 7 9 8 10 15 11 9 12 14 13
REMARK SMILES IDX 10 14 13 15 11 16 12 17
REMARK H PARENT
ROOT
ATOM      1  C   UNL     1      -4.185   1.348  -1.435  1.00  0.00     0.091 C 
ATOM      2  C   UNL     1      -3.394   0.766  -0.326  1.00  0.00     0.134 A 
ATOM      3  C   UNL     1      -2.008   0.880  -0.101  1.00  0.00     0.082 A 
ATOM      4  C   UNL     1      -1.654   0.200   1.020  1.00  0.00     0.172 A 
ATOM      5  N   UNL     1      -2.881  -0.314   1.448  1.00  0.00    -0.074 NA
ATOM      6  O   UNL     1      -3.820   0.034   0.658  1.00  0.00    -0.361 OA
ENDROOT
BRANCH   4   7
ATOM      7  C   UNL     1      -0.437  -0.061   1.726  1.00  0.00     0.280 C 
ATOM      8  O   UNL     1      -0.463   0.146   3.001  1.00  0.00    -0.267 OA
BRANCH   7   9
ATOM      9  N   UNL     1       0.765  -0.519   1.229  1.00  0.00    -0.306 N 
ATOM     10  C   UNL     1       1.662  -1.478   1.938  1.00  0.00     0.131 C 
ATOM     11  C   UNL     1       1.360  -0.368  -0.038  1.00  0.00     0.047 A 
ATOM     12  C   UNL     1       1.936  -2.469   0.783  1.00  0.00     0.059 C 
ATOM     13  C   UNL     1       1.394   0.662  -0.962  1.00  0.00     0.026 A 
ATOM     14  C   UNL     1       2.075  -1.532  -0.359  1.00  0.00    -0.022 A 
ATOM     15  C   UNL     1       2.074   0.601  -2.158  1.00  0.00     0.002 A 
ATOM     16  C   UNL     1       2.767  -1.630  -1.541  1.00  0.00     0.006 A 
ATOM     17  C   UNL     1       2.760  -0.562  -2.432  1.00  0.00     0.000 A 
ENDBRANCH   7   9
ENDBRANCH   4   7
TORSDOF 2
