REMARK SMILES O=C1C=CC(Br)=CC1=C[NH2+]c1nc(C23CC4CC(CC(C4)C2)C3)cs1
REMARK SMILES IDX 10 1 9 4 1 5 2 6 3 7 8 8 4 9 7 10 5 11 6 12 11 13 12 14
REMARK SMILES IDX 25 15 13 16 24 17 14 18 23 19 22 20 15 21 18 22 20 23 16 24
REMARK SMILES IDX 17 25 19 26 21 27
REMARK H PARENT 10 2 10 3
ROOT
ATOM      1  N   UNL     1       3.575   0.129  -0.472  1.00  0.00    -0.261 N 
ATOM      2  H   UNL     1       4.210  -0.696  -0.681  1.00  0.00     0.360 HD
ATOM      3  H   UNL     1       3.947   1.000  -0.909  1.00  0.00     0.360 HD
ENDROOT
BRANCH   1   4
ATOM      4  C   UNL     1       3.342   0.217   0.906  1.00  0.00     0.240 C 
ATOM      5  O   UNL     1       2.263   2.439  -0.328  1.00  0.00    -0.289 OA
ATOM      6  C   UNL     1       2.172   2.312   0.901  1.00  0.00     0.191 C 
ATOM      7  C   UNL     1       1.475   3.378   1.665  1.00  0.00     0.054 C 
ATOM      8  C   UNL     1       2.730   1.156   1.564  1.00  0.00     0.077 C 
ATOM      9  C   UNL     1       1.384   3.232   2.971  1.00  0.00     0.020 C 
ATOM     10  C   UNL     1       2.573   1.095   3.012  1.00  0.00     0.033 C 
ATOM     11  C   UNL     1       1.942   2.071   3.657  1.00  0.00     0.019 C 
ATOM     12  Br  UNL     1       1.765   1.934   5.569  1.00  0.00    -0.051 Br
ENDBRANCH   1   4
BRANCH   1  13
ATOM     13  C   UNL     1       2.275  -0.186  -1.123  1.00  0.00     0.287 A 
ATOM     14  N   UNL     1       1.252  -0.694  -0.835  1.00  0.00    -0.190 NA
ATOM     15  S   UNL     1       2.015   0.278  -2.868  1.00  0.00    -0.064 S 
ATOM     16  C   UNL     1       0.183  -0.887  -1.571  1.00  0.00     0.064 A 
ATOM     17  C   UNL     1       0.299  -0.418  -2.867  1.00  0.00     0.097 A 
BRANCH  16  18
ATOM     18  C   UNL     1      -1.079  -1.563  -1.052  1.00  0.00     0.015 C 
ATOM     19  C   UNL     1      -1.999  -0.532  -0.443  1.00  0.00     0.017 C 
ATOM     20  C   UNL     1      -0.678  -2.591  -0.055  1.00  0.00     0.017 C 
ATOM     21  C   UNL     1      -1.807  -2.166  -2.226  1.00  0.00     0.017 C 
ATOM     22  C   UNL     1      -3.190  -1.205   0.160  1.00  0.00    -0.010 C 
ATOM     23  C   UNL     1      -1.911  -3.257   0.523  1.00  0.00    -0.010 C 
ATOM     24  C   UNL     1      -3.030  -2.887  -1.646  1.00  0.00    -0.010 C 
ATOM     25  C   UNL     1      -3.941  -1.914  -0.943  1.00  0.00     0.007 C 
ATOM     26  C   UNL     1      -2.749  -2.209   1.182  1.00  0.00     0.007 C 
ATOM     27  C   UNL     1      -2.621  -3.933  -0.633  1.00  0.00     0.007 C 
ENDBRANCH  16  18
ENDBRANCH   1  13
TORSDOF 3
