REMARK SMILES c1ccc2c(c1)OCCOCCOc1ccccc1OCCOCCO2
REMARK SMILES IDX 11 1 10 2 9 3 8 4 7 5 5 6 1 7 2 8 6 9 3 10 4 11 26 12 25 13
REMARK SMILES IDX 12 15 13 16 14 17 15 18 19 19 16 20 18 21 17 22 20 23 21 24
REMARK SMILES IDX 22 25 23 26 24 27
REMARK H PARENT
REMARK Flexibility Score:  173.900
ROOT
ATOM      1  C   UNL     1       1.561   0.546  -1.617  1.00  0.00     0.201 C 
ENDROOT
BRANCH   1   2
ATOM      2  O   UNL     1       2.809   0.828  -1.225  1.00  0.00    -0.374 OA
BRANCH   2   3
ATOM      3  C   UNL     1       3.500  -0.077  -0.544  1.00  0.00     0.201 C 
BRANCH   3   4
ATOM      4  C   UNL     1       3.335  -0.415   0.871  1.00  0.00     0.258 C 
BRANCH   4   5
ATOM      5  O   UNL     1       2.260  -0.875   1.496  1.00  0.00    -0.487 OA
BRANCH   5   6
ATOM      6  C   UNL     1       0.991  -0.580   1.845  1.00  0.00     0.161 A 
ATOM      7  C   UNL     1      -0.759   1.094   2.131  1.00  0.00     0.004 A 
ATOM      8  C   UNL     1      -1.644   0.133   2.553  1.00  0.00     0.004 A 
ATOM      9  C   UNL     1       0.515   0.713   1.794  1.00  0.00     0.050 A 
ATOM     10  C   UNL     1      -1.189  -1.156   2.611  1.00  0.00     0.050 A 
ATOM     11  C   UNL     1       0.097  -1.570   2.277  1.00  0.00     0.161 A 
BRANCH  11  12
ATOM     12  O   UNL     1       0.470  -2.826   2.362  1.00  0.00    -0.487 OA
BRANCH  12  13
ATOM     13  C   UNL     1       0.960  -3.929   1.824  1.00  0.00     0.258 CG0
ATOM     14  G   UNL     1       0.084  -4.408   0.656  1.00  0.00     0.000 G0
ENDBRANCH  12  13
ENDBRANCH  11  12
ENDBRANCH   5   6
ENDBRANCH   4   5
ENDBRANCH   3   4
ENDBRANCH   2   3
ENDBRANCH   1   2
BRANCH   1  15
ATOM     15  C   UNL     1       0.896   1.714  -2.346  1.00  0.00     0.258 C 
BRANCH  15  16
ATOM     16  O   UNL     1      -0.379   1.338  -2.725  1.00  0.00    -0.487 OA
BRANCH  16  17
ATOM     17  C   UNL     1      -1.456   0.937  -2.006  1.00  0.00     0.161 A 
ATOM     18  C   UNL     1      -2.333   1.861  -1.538  1.00  0.00     0.050 A 
ATOM     19  C   UNL     1      -1.687  -0.437  -1.735  1.00  0.00     0.161 A 
ATOM     20  C   UNL     1      -3.457   1.558  -0.802  1.00  0.00     0.004 A 
ATOM     21  C   UNL     1      -2.806  -0.740  -1.003  1.00  0.00     0.050 A 
ATOM     22  C   UNL     1      -3.674   0.226  -0.544  1.00  0.00     0.004 A 
BRANCH  19  23
ATOM     23  O   UNL     1      -0.865  -1.373  -2.166  1.00  0.00    -0.487 OA
BRANCH  23  24
ATOM     24  C   UNL     1      -0.614  -2.631  -2.467  1.00  0.00     0.258 C 
BRANCH  24  25
ATOM     25  C   UNL     1      -0.745  -3.692  -1.390  1.00  0.00     0.201 C 
BRANCH  25  26
ATOM     26  O   UNL     1       0.064  -3.448  -0.319  1.00  0.00    -0.374 OA
BRANCH  26  27
ATOM     27  C   UNL     1       0.084  -4.408   0.656  1.00  0.00     0.201 CG0
ATOM     28  G   UNL     1       0.960  -3.929   1.824  1.00  0.00     0.000 G0
ENDBRANCH  26  27
ENDBRANCH  25  26
ENDBRANCH  24  25
ENDBRANCH  23  24
ENDBRANCH  19  23
ENDBRANCH  16  17
ENDBRANCH  15  16
ENDBRANCH   1  15
TORSDOF 0
