REMARK SMILES CN(C)c1ccc(/C=C(/C#N)C(N)=O)cc1Br
REMARK SMILES IDX 4 1 5 2 6 3 7 4 15 5 16 6 17 7 2 8 1 9 3 10 8 11 9 12 10 13
REMARK SMILES IDX 11 14 12 15 13 16 14 17
REMARK H PARENT 13 18 13 19
ROOT
ATOM      1  C   UNL     1      -0.227  -0.121   1.269  1.00  0.00     0.051 A 
ATOM      2  C   UNL     1       0.979   0.449   0.968  1.00  0.00     0.028 A 
ATOM      3  C   UNL     1       1.611   0.117  -0.184  1.00  0.00     0.010 A 
ATOM      4  C   UNL     1       1.047  -0.806  -1.077  1.00  0.00    -0.023 A 
ATOM      5  C   UNL     1      -0.154  -1.348  -0.737  1.00  0.00     0.026 A 
ATOM      6  C   UNL     1      -0.804  -1.025   0.418  1.00  0.00     0.041 A 
ATOM      7  Br  UNL     1      -2.486  -1.806   0.861  1.00  0.00    -0.049 Br
ENDROOT
BRANCH   1   8
ATOM      8  N   UNL     1      -0.877   0.245   2.489  1.00  0.00    -0.377 N 
ATOM      9  C   UNL     1      -2.183   0.852   2.382  1.00  0.00     0.143 C 
ATOM     10  C   UNL     1      -0.203  -0.014   3.721  1.00  0.00     0.143 C 
ENDBRANCH   1   8
BRANCH   4  11
ATOM     11  C   UNL     1       1.815  -1.153  -2.252  1.00  0.00     0.033 C 
ATOM     12  C   UNL     1       1.376  -1.008  -3.484  1.00  0.00     0.117 C 
ATOM     13  C   UNL     1       2.271  -1.416  -4.588  1.00  0.00     0.105 C 
ATOM     14  N   UNL     1       2.977  -1.759  -5.457  1.00  0.00    -0.192 NA
BRANCH  12  15
ATOM     15  C   UNL     1       0.116  -0.399  -3.820  1.00  0.00     0.259 C 
ATOM     16  N   UNL     1      -0.810   0.150  -2.930  1.00  0.00    -0.365 N 
ATOM     17  O   UNL     1      -0.208  -0.345  -5.055  1.00  0.00    -0.269 OA
ATOM     18  H   UNL     1      -1.783  -0.234  -2.809  1.00  0.00     0.159 HD
ATOM     19  H   UNL     1      -0.573   0.995  -2.334  1.00  0.00     0.159 HD
ENDBRANCH  12  15
ENDBRANCH   4  11
TORSDOF 3
