REMARK SMILES CN(C)c1ccc(C=C(C#N)C(N)=O)cc1Br
REMARK SMILES IDX 4 1 5 2 6 3 7 4 15 5 16 6 17 7 2 8 1 9 3 10 8 11 9 12 10 13
REMARK SMILES IDX 11 14 12 15 13 16 14 17
REMARK H PARENT 13 18 13 19
ROOT
ATOM      1  C   UNL     1      -0.857  -0.498   1.351  1.00  0.00     0.051 A 
ATOM      2  C   UNL     1       0.476  -0.244   1.599  1.00  0.00     0.028 A 
ATOM      3  C   UNL     1       1.426  -0.376   0.620  1.00  0.00     0.010 A 
ATOM      4  C   UNL     1       1.088  -0.775  -0.680  1.00  0.00    -0.023 A 
ATOM      5  C   UNL     1      -0.243  -1.031  -0.927  1.00  0.00     0.026 A 
ATOM      6  C   UNL     1      -1.194  -0.892   0.077  1.00  0.00     0.041 A 
ATOM      7  Br  UNL     1      -3.031  -1.263  -0.286  1.00  0.00    -0.049 Br
ENDROOT
BRANCH   1   8
ATOM      8  N   UNL     1      -1.829  -0.344   2.365  1.00  0.00    -0.377 N 
ATOM      9  C   UNL     1      -2.861   0.659   2.184  1.00  0.00     0.143 C 
ATOM     10  C   UNL     1      -1.759  -1.185   3.538  1.00  0.00     0.143 C 
ENDBRANCH   1   8
BRANCH   4  11
ATOM     11  C   UNL     1       2.146  -0.933  -1.666  1.00  0.00     0.033 C 
ATOM     12  C   UNL     1       2.194  -0.352  -2.839  1.00  0.00     0.117 C 
ATOM     13  C   UNL     1       3.353  -0.654  -3.687  1.00  0.00     0.105 C 
ATOM     14  N   UNL     1       4.265  -0.896  -4.331  1.00  0.00    -0.192 NA
BRANCH  12  15
ATOM     15  C   UNL     1       1.252   0.601  -3.370  1.00  0.00     0.259 C 
ATOM     16  N   UNL     1       1.437   1.136  -4.670  1.00  0.00    -0.365 N 
ATOM     17  O   UNL     1       0.249   0.991  -2.719  1.00  0.00    -0.269 OA
ATOM     18  H   UNL     1       2.289   1.723  -4.849  1.00  0.00     0.159 HD
ATOM     19  H   UNL     1       0.772   0.977  -5.452  1.00  0.00     0.159 HD
ENDBRANCH  12  15
ENDBRANCH   4  11
TORSDOF 3
