REMARK SMILES COc1cccc(CNc2cccc([N+](=O)[O-])c2)c1
REMARK SMILES IDX 8 1 7 2 3 3 4 4 19 5 5 6 6 7 2 8 1 9 9 10 10 12 11 13 18 14
REMARK SMILES IDX 12 15 14 16 13 17 15 18 16 19 17 20
REMARK H PARENT 9 11
ROOT
ATOM      1  C   UNL     1       0.127   0.327   0.022  1.00  0.00     0.149 C 
ENDROOT
BRANCH   1   2
ATOM      2  C   UNL     1       0.022   0.379   1.481  1.00  0.00    -0.025 A 
ATOM      3  C   UNL     1      -1.341  -0.108   3.432  1.00  0.00     0.119 A 
ATOM      4  C   UNL     1      -0.333   0.404   4.241  1.00  0.00     0.046 A 
ATOM      5  C   UNL     1      -1.125  -0.102   2.076  1.00  0.00     0.052 A 
ATOM      6  C   UNL     1       0.824   0.891   3.669  1.00  0.00     0.004 A 
ATOM      7  C   UNL     1       1.015   0.886   2.301  1.00  0.00     0.006 A 
BRANCH   3   8
ATOM      8  O   UNL     1      -2.515  -0.603   4.008  1.00  0.00    -0.497 OA
ATOM      9  C   UNL     1      -3.501  -1.110   3.125  1.00  0.00     0.278 C 
ENDBRANCH   3   8
ENDBRANCH   1   2
BRANCH   1  10
ATOM     10  N   UNL     1       0.698  -0.869  -0.492  1.00  0.00    -0.381 N 
ATOM     11  H   UNL     1       1.012  -1.635   0.127  1.00  0.00     0.160 HD
BRANCH  10  12
ATOM     12  C   UNL     1       0.849  -1.029  -1.890  1.00  0.00     0.041 A 
ATOM     13  C   UNL     1       1.396  -2.168  -2.438  1.00  0.00     0.026 A 
ATOM     14  C   UNL     1       0.441  -0.022  -2.770  1.00  0.00     0.111 A 
ATOM     15  C   UNL     1       1.531  -2.298  -3.802  1.00  0.00     0.009 A 
ATOM     16  C   UNL     1       0.572  -0.145  -4.135  1.00  0.00     0.271 A 
ATOM     17  C   UNL     1       1.119  -1.284  -4.676  1.00  0.00     0.086 A 
BRANCH  16  18
ATOM     18  N   UNL     1       0.142   0.905  -4.981  1.00  0.00     0.062 N 
ATOM     19  O   UNL     1      -0.362   1.963  -4.561  1.00  0.00    -0.258 OA
ATOM     20  O   UNL     1       0.278   0.772  -6.340  1.00  0.00    -0.258 OA
ENDBRANCH  16  18
ENDBRANCH  10  12
ENDBRANCH   1  10
TORSDOF 5
