REMARK SMILES CC(NC(=O)c1ccc(Cl)cc1)c1ccncc1
REMARK SMILES IDX 3 1 4 2 5 3 2 5 1 6 13 7 14 8 18 9 15 10 17 11 16 12 6 13
REMARK SMILES IDX 7 14 12 15 8 16 11 17 9 18 10 19
REMARK H PARENT 3 4
ROOT
ATOM      1  N   UNL     1      -0.360  -0.106   0.209  1.00  0.00    -0.346 N 
ATOM      2  C   UNL     1       0.667   0.817  -0.023  1.00  0.00     0.251 C 
ATOM      3  O   UNL     1       0.307   1.952  -0.461  1.00  0.00    -0.269 OA
ATOM      4  H   UNL     1      -0.153  -1.061   0.570  1.00  0.00     0.164 HD
ENDROOT
BRANCH   1   5
ATOM      5  C   UNL     1      -1.750   0.224  -0.039  1.00  0.00     0.109 C 
ATOM      6  C   UNL     1      -2.619   0.036   1.173  1.00  0.00     0.036 C 
BRANCH   5   7
ATOM      7  C   UNL     1      -2.246  -0.699  -1.091  1.00  0.00    -0.023 A 
ATOM      8  C   UNL     1      -1.950  -2.039  -0.976  1.00  0.00     0.026 A 
ATOM      9  C   UNL     1      -2.979  -0.245  -2.154  1.00  0.00     0.026 A 
ATOM     10  C   UNL     1      -2.394  -2.952  -1.944  1.00  0.00     0.111 A 
ATOM     11  C   UNL     1      -3.410  -1.161  -3.101  1.00  0.00     0.111 A 
ATOM     12  N   UNL     1      -3.110  -2.463  -2.970  1.00  0.00    -0.265 NA
ENDBRANCH   5   7
ENDBRANCH   1   5
BRANCH   2  13
ATOM     13  C   UNL     1       2.045   0.483   0.225  1.00  0.00     0.039 A 
ATOM     14  C   UNL     1       2.412  -0.745   0.696  1.00  0.00     0.015 A 
ATOM     15  C   UNL     1       3.037   1.409  -0.011  1.00  0.00     0.015 A 
ATOM     16  C   UNL     1       3.759  -1.049   0.931  1.00  0.00     0.021 A 
ATOM     17  C   UNL     1       4.369   1.149   0.207  1.00  0.00     0.021 A 
ATOM     18  C   UNL     1       4.714  -0.088   0.679  1.00  0.00     0.041 A 
ATOM     19  Cl  UNL     1       6.405  -0.428   0.959  1.00  0.00    -0.084 Cl
ENDBRANCH   2  13
TORSDOF 3
