REMARK SMILES C(=NNc1nc2ccccc2s1)c1ccco1
REMARK SMILES IDX 1 1 2 2 13 3 14 4 17 5 15 6 16 7 3 8 4 10 5 11 12 12 6 13
REMARK SMILES IDX 11 14 7 15 10 16 8 17 9 18
REMARK H PARENT 3 9
ROOT
ATOM      1  C   UNL     1      -3.063  -0.317  -1.543  1.00  0.00     0.180 C 
ATOM      2  N   UNL     1      -2.502  -0.194  -0.406  1.00  0.00    -0.178 NA
ENDROOT
BRANCH   1   3
ATOM      3  C   UNL     1      -2.596  -1.310  -2.482  1.00  0.00     0.146 A 
ATOM      4  C   UNL     1      -1.296  -1.448  -2.981  1.00  0.00     0.052 A 
ATOM      5  O   UNL     1      -3.324  -2.268  -3.036  1.00  0.00    -0.463 OA
ATOM      6  C   UNL     1      -1.292  -2.522  -3.847  1.00  0.00     0.043 A 
ATOM      7  C   UNL     1      -2.590  -2.994  -3.839  1.00  0.00     0.196 A 
ENDBRANCH   1   3
BRANCH   2   8
ATOM      8  N   UNL     1      -1.445  -1.007  -0.063  1.00  0.00    -0.252 N 
ATOM      9  H   UNL     1      -1.382  -2.025  -0.280  1.00  0.00     0.193 HD
BRANCH   8  10
ATOM     10  C   UNL     1      -0.372  -0.344   0.651  1.00  0.00     0.204 A 
ATOM     11  N   UNL     1      -0.100   0.765   1.063  1.00  0.00    -0.219 NA
ATOM     12  S   UNL     1       1.096  -1.286   1.174  1.00  0.00    -0.095 S 
ATOM     13  C   UNL     1       0.981   1.114   1.703  1.00  0.00     0.084 A 
ATOM     14  C   UNL     1       1.901   0.143   1.938  1.00  0.00     0.056 A 
ATOM     15  C   UNL     1       1.324   2.386   2.191  1.00  0.00     0.030 A 
ATOM     16  C   UNL     1       3.115   0.314   2.603  1.00  0.00     0.021 A 
ATOM     17  C   UNL     1       2.513   2.576   2.849  1.00  0.00     0.002 A 
ATOM     18  C   UNL     1       3.427   1.584   3.075  1.00  0.00     0.002 A 
ENDBRANCH   8  10
ENDBRANCH   2   8
TORSDOF 3
