REMARK SMILES O=C1C=CC(Cl)=CC1=C[NH2+]c1cccc(-c2nc3ccccc3s2)c1
REMARK SMILES IDX 10 1 9 4 1 5 2 6 3 7 8 8 4 9 7 10 5 11 6 12 11 13 12 14
REMARK SMILES IDX 25 15 13 16 15 17 14 18 16 19 17 20 24 21 18 22 23 23 19 24
REMARK SMILES IDX 22 25 20 26 21 27
REMARK H PARENT 10 2 10 3
ROOT
ATOM      1  N   UNL     1       2.361  -0.124  -0.022  1.00  0.00    -0.287 N 
ATOM      2  H   UNL     1       3.228   0.378  -0.314  1.00  0.00     0.357 HD
ATOM      3  H   UNL     1       2.611  -1.101   0.194  1.00  0.00     0.357 HD
ENDROOT
BRANCH   1   4
ATOM      4  C   UNL     1       1.738   0.479   1.106  1.00  0.00     0.238 C 
ATOM      5  O   UNL     1       0.446   1.601   3.209  1.00  0.00    -0.289 OA
ATOM      6  C   UNL     1       1.703   1.621   3.213  1.00  0.00     0.191 C 
ATOM      7  C   UNL     1       2.439   2.242   4.337  1.00  0.00     0.054 C 
ATOM      8  C   UNL     1       2.406   1.025   2.094  1.00  0.00     0.077 C 
ATOM      9  C   UNL     1       3.755   2.212   4.247  1.00  0.00     0.024 C 
ATOM     10  C   UNL     1       3.860   1.047   2.094  1.00  0.00     0.038 C 
ATOM     11  C   UNL     1       4.487   1.621   3.137  1.00  0.00     0.042 C 
ATOM     12  Cl  UNL     1       6.241   1.671   3.180  1.00  0.00    -0.084 Cl
ENDBRANCH   1   4
BRANCH   1  13
ATOM     13  C   UNL     1       1.457  -0.131  -1.123  1.00  0.00     0.134 A 
ATOM     14  C   UNL     1       1.745   0.529  -2.309  1.00  0.00     0.068 A 
ATOM     15  C   UNL     1       0.270  -0.816  -0.994  1.00  0.00     0.079 A 
ATOM     16  C   UNL     1       0.818   0.475  -3.328  1.00  0.00     0.007 A 
ATOM     17  C   UNL     1      -0.638  -0.855  -2.025  1.00  0.00     0.016 A 
ATOM     18  C   UNL     1      -0.375  -0.213  -3.197  1.00  0.00     0.012 A 
BRANCH  17  19
ATOM     19  C   UNL     1      -1.919  -1.624  -1.815  1.00  0.00     0.124 A 
ATOM     20  N   UNL     1      -2.474  -2.242  -1.059  1.00  0.00    -0.236 NA
ATOM     21  S   UNL     1      -3.147  -1.659  -3.253  1.00  0.00    -0.114 S 
ATOM     22  C   UNL     1      -3.662  -2.832  -1.152  1.00  0.00     0.082 A 
ATOM     23  C   UNL     1      -4.291  -2.665  -2.322  1.00  0.00     0.055 A 
ATOM     24  C   UNL     1      -4.331  -3.598  -0.193  1.00  0.00     0.030 A 
ATOM     25  C   UNL     1      -5.549  -3.196  -2.638  1.00  0.00     0.021 A 
ATOM     26  C   UNL     1      -5.569  -4.126  -0.491  1.00  0.00     0.002 A 
ATOM     27  C   UNL     1      -6.226  -3.960  -1.691  1.00  0.00     0.002 A 
ENDBRANCH  17  19
ENDBRANCH   1  13
TORSDOF 3
