REMARK SMILES COc1ccc(C=N[N-]C(=O)Cn2c(C)nc3ccccc32)cc1Cn1cc([N+](=O)[O-])cn1
REMARK SMILES IDX 7 1 8 2 6 3 3 4 4 5 24 6 5 7 23 8 2 9 1 10 25 11 26 12 27 13
REMARK SMILES IDX 33 14 28 15 32 16 29 17 30 18 31 19 9 20 10 21 11 22 12 23
REMARK SMILES IDX 13 24 14 25 22 26 16 27 21 28 17 29 20 30 18 31 19 32 15 33
REMARK H PARENT
ROOT
ATOM      1  C   UNL     1       3.364  -0.742  -1.499  1.00  0.00     0.094 C 
ATOM      2  N   UNL     1       2.772   0.073  -2.218  1.00  0.00    -0.372 NA
ENDROOT
BRANCH   1   3
ATOM      3  C   UNL     1       2.795  -1.518  -0.409  1.00  0.00    -0.009 A 
ATOM      4  C   UNL     1       1.754  -3.056   1.733  1.00  0.00     0.123 A 
ATOM      5  C   UNL     1       3.072  -3.148   1.345  1.00  0.00     0.047 A 
ATOM      6  C   UNL     1       0.971  -2.182   1.032  1.00  0.00     0.016 A 
ATOM      7  C   UNL     1       3.591  -2.410   0.309  1.00  0.00     0.013 A 
ATOM      8  C   UNL     1       1.486  -1.423  -0.026  1.00  0.00     0.019 A 
BRANCH   4   9
ATOM      9  O   UNL     1       1.227  -3.790   2.765  1.00  0.00    -0.496 OA
ATOM     10  C   UNL     1       1.899  -4.712   3.564  1.00  0.00     0.278 C 
ENDBRANCH   4   9
BRANCH   6  11
ATOM     11  C   UNL     1      -0.460  -2.030   1.426  1.00  0.00     0.183 C 
BRANCH  11  12
ATOM     12  N   UNL     1      -0.618  -1.204   2.601  1.00  0.00    -0.261 N 
ATOM     13  C   UNL     1      -0.649  -1.551   3.895  1.00  0.00     0.194 A 
ATOM     14  N   UNL     1      -0.761   0.126   2.549  1.00  0.00    -0.174 NA
ATOM     15  C   UNL     1      -0.815  -0.414   4.678  1.00  0.00     0.307 A 
ATOM     16  C   UNL     1      -0.881   0.636   3.768  1.00  0.00     0.220 A 
BRANCH  15  17
ATOM     17  N   UNL     1      -0.895  -0.356   6.088  1.00  0.00     0.066 N 
ATOM     18  O   UNL     1      -0.813  -1.404   6.746  1.00  0.00    -0.258 OA
ATOM     19  O   UNL     1      -1.058   0.827   6.756  1.00  0.00    -0.258 OA
ENDBRANCH  15  17
ENDBRANCH  11  12
ENDBRANCH   6  11
ENDBRANCH   1   3
BRANCH   2  20
ATOM     20  N   UNL     1       1.490   0.537  -2.290  1.00  0.00    -0.543 NA
BRANCH  20  21
ATOM     21  C   UNL     1       1.141   1.807  -1.782  1.00  0.00     0.088 C 
ATOM     22  O   UNL     1       1.951   2.390  -1.032  1.00  0.00    -0.317 OA
BRANCH  21  23
ATOM     23  C   UNL     1      -0.140   2.472  -2.098  1.00  0.00     0.180 C 
BRANCH  23  24
ATOM     24  N   UNL     1      -0.960   1.692  -2.989  1.00  0.00    -0.322 N 
ATOM     25  C   UNL     1      -1.016   1.706  -4.325  1.00  0.00     0.107 A 
ATOM     26  C   UNL     1      -1.840   0.764  -2.579  1.00  0.00     0.068 A 
ATOM     27  N   UNL     1      -1.912   0.808  -4.775  1.00  0.00    -0.234 NA
ATOM     28  C   UNL     1      -2.240   0.282  -1.338  1.00  0.00     0.028 A 
ATOM     29  C   UNL     1      -2.428   0.218  -3.683  1.00  0.00     0.089 A 
ATOM     30  C   UNL     1      -3.194  -0.708  -1.228  1.00  0.00     0.002 A 
ATOM     31  C   UNL     1      -3.384  -0.773  -3.607  1.00  0.00     0.030 A 
ATOM     32  C   UNL     1      -3.764  -1.233  -2.364  1.00  0.00     0.002 A 
ATOM     33  C   UNL     1      -0.205   2.590  -5.188  1.00  0.00     0.088 C 
ENDBRANCH  23  24
ENDBRANCH  21  23
ENDBRANCH  20  21
ENDBRANCH   2  20
TORSDOF 9
