REMARK SMILES CCOc1cc2c(cc1OCC)C(c1ccc(-c3ccccc3)cc1)NCC2
REMARK SMILES IDX 4 1 5 2 6 3 7 4 8 5 9 6 13 7 26 8 27 9 28 10 3 12 2 13 1 14
REMARK SMILES IDX 10 15 11 16 12 17 14 18 15 19 25 20 16 21 24 22 17 23 18 24
REMARK SMILES IDX 19 25 23 26 20 27 22 28 21 29
REMARK H PARENT 26 11
ROOT
ATOM      1  C   UNL     1      -0.827   0.791   3.412  1.00  0.00     0.161 A 
ATOM      2  C   UNL     1      -1.549   1.810   2.790  1.00  0.00     0.054 A 
ATOM      3  C   UNL     1      -1.633   1.827   1.433  1.00  0.00    -0.038 A 
ATOM      4  C   UNL     1      -1.005   0.841   0.696  1.00  0.00    -0.019 A 
ATOM      5  C   UNL     1      -0.284  -0.179   1.301  1.00  0.00     0.056 A 
ATOM      6  C   UNL     1      -0.198  -0.197   2.680  1.00  0.00     0.161 A 
ATOM      7  C   UNL     1      -1.159   0.951  -0.785  1.00  0.00     0.115 C 
ATOM      8  N   UNL     1      -0.752   2.276  -1.166  1.00  0.00    -0.306 NA
ATOM      9  C   UNL     1      -1.368   3.331  -0.401  1.00  0.00     0.086 C 
ATOM     10  C   UNL     1      -2.364   2.846   0.632  1.00  0.00     0.051 C 
ATOM     11  H   UNL     1      -0.972   2.448  -2.172  1.00  0.00     0.123 HD
ENDROOT
BRANCH   1  12
ATOM     12  O   UNL     1      -0.728   0.751   4.782  1.00  0.00    -0.490 OA
BRANCH  12  13
ATOM     13  C   UNL     1      -1.317   1.682   5.657  1.00  0.00     0.226 C 
ATOM     14  C   UNL     1      -2.808   1.764   5.577  1.00  0.00     0.049 C 
ENDBRANCH  12  13
ENDBRANCH   1  12
BRANCH   6  15
ATOM     15  O   UNL     1       0.496  -1.170   3.355  1.00  0.00    -0.490 OA
BRANCH  15  16
ATOM     16  C   UNL     1       1.183  -2.232   2.740  1.00  0.00     0.226 C 
ATOM     17  C   UNL     1       2.270  -1.807   1.811  1.00  0.00     0.049 C 
ENDBRANCH  15  16
ENDBRANCH   6  15
BRANCH   7  18
ATOM     18  C   UNL     1      -0.472  -0.119  -1.506  1.00  0.00    -0.026 A 
ATOM     19  C   UNL     1      -1.206  -1.179  -1.993  1.00  0.00     0.006 A 
ATOM     20  C   UNL     1       0.890  -0.154  -1.747  1.00  0.00     0.006 A 
ATOM     21  C   UNL     1      -0.615  -2.219  -2.682  1.00  0.00     0.009 A 
ATOM     22  C   UNL     1       1.474  -1.198  -2.437  1.00  0.00     0.009 A 
ATOM     23  C   UNL     1       0.743  -2.261  -2.925  1.00  0.00    -0.018 A 
BRANCH  23  24
ATOM     24  C   UNL     1       1.378  -3.354  -3.652  1.00  0.00    -0.018 A 
ATOM     25  C   UNL     1       2.667  -3.783  -3.417  1.00  0.00     0.009 A 
ATOM     26  C   UNL     1       0.681  -4.021  -4.638  1.00  0.00     0.009 A 
ATOM     27  C   UNL     1       3.244  -4.821  -4.118  1.00  0.00     0.001 A 
ATOM     28  C   UNL     1       1.245  -5.063  -5.352  1.00  0.00     0.001 A 
ATOM     29  C   UNL     1       2.535  -5.478  -5.101  1.00  0.00     0.000 A 
ENDBRANCH  23  24
ENDBRANCH   7  18
TORSDOF 6
