REMARK SMILES COC(=O)c1ccc(/C=C2/SC(=O)[NH+](CNc3ccc(Br)cc3C)C2=O)cc1
REMARK SMILES IDX 9 1 10 2 11 3 12 4 13 5 14 6 25 7 26 8 8 10 5 11 6 12 28 13
REMARK SMILES IDX 7 14 27 15 3 16 4 17 2 18 1 19 15 20 16 21 17 23 18 24 23 25
REMARK SMILES IDX 19 26 22 27 20 28 24 29 21 30
REMARK H PARENT 14 9 16 22
ROOT
ATOM      1  C   UNL     1       2.762   1.128  -0.825  1.00  0.00     0.034 C 
ATOM      2  C   UNL     1       2.023   1.108  -1.899  1.00  0.00     0.127 C 
ATOM      3  S   UNL     1       2.301   1.955  -3.489  1.00  0.00     0.025 SA
ATOM      4  C   UNL     1       0.724   1.501  -4.176  1.00  0.00     0.387 C 
ATOM      5  O   UNL     1       0.373   1.563  -5.307  1.00  0.00    -0.218 OA
ATOM      6  N   UNL     1      -0.056   1.040  -3.080  1.00  0.00    -0.177 N 
ATOM      7  C   UNL     1       0.782   0.381  -2.176  1.00  0.00     0.360 C 
ATOM      8  O   UNL     1       0.515  -0.737  -1.636  1.00  0.00    -0.224 OA
ATOM      9  H   UNL     1      -0.444   1.894  -2.635  1.00  0.00     0.368 HD
ENDROOT
BRANCH   1  10
ATOM     10  C   UNL     1       2.299   0.355   0.326  1.00  0.00    -0.024 A 
ATOM     11  C   UNL     1       1.341  -1.084   2.581  1.00  0.00     0.060 A 
ATOM     12  C   UNL     1       2.641  -1.204   2.145  1.00  0.00     0.016 A 
ATOM     13  C   UNL     1       0.519  -0.227   1.870  1.00  0.00     0.016 A 
ATOM     14  C   UNL     1       3.107  -0.498   1.040  1.00  0.00     0.009 A 
ATOM     15  C   UNL     1       0.981   0.471   0.778  1.00  0.00     0.009 A 
BRANCH  11  16
ATOM     16  C   UNL     1       0.839  -1.823   3.741  1.00  0.00     0.337 C 
ATOM     17  O   UNL     1      -0.360  -1.657   4.071  1.00  0.00    -0.246 OA
BRANCH  16  18
ATOM     18  O   UNL     1       1.620  -2.680   4.472  1.00  0.00    -0.465 OA
ATOM     19  C   UNL     1       1.139  -3.400   5.598  1.00  0.00     0.282 C 
ENDBRANCH  16  18
ENDBRANCH  11  16
ENDBRANCH   1  10
BRANCH   6  20
ATOM     20  C   UNL     1      -1.048   0.109  -3.576  1.00  0.00     0.404 C 
BRANCH  20  21
ATOM     21  N   UNL     1      -1.467  -0.864  -2.593  1.00  0.00    -0.338 N 
ATOM     22  H   UNL     1      -1.171  -1.889  -2.711  1.00  0.00     0.166 HD
BRANCH  21  23
ATOM     23  C   UNL     1      -2.259  -0.600  -1.459  1.00  0.00     0.041 A 
ATOM     24  C   UNL     1      -2.770   0.652  -1.217  1.00  0.00     0.027 A 
ATOM     25  C   UNL     1      -2.578  -1.609  -0.566  1.00  0.00    -0.027 A 
ATOM     26  C   UNL     1      -3.586   0.923  -0.115  1.00  0.00     0.018 A 
ATOM     27  C   UNL     1      -3.382  -1.352   0.524  1.00  0.00     0.021 A 
ATOM     28  C   UNL     1      -3.889  -0.095   0.758  1.00  0.00     0.018 A 
ATOM     29  C   UNL     1      -2.067  -2.997  -0.734  1.00  0.00     0.046 C 
ATOM     30  Br  UNL     1      -5.003   0.289   2.253  1.00  0.00    -0.051 Br
ENDBRANCH  21  23
ENDBRANCH  20  21
ENDBRANCH   6  20
TORSDOF 6
