REMARK SMILES COC(=O)c1cccc2c(C=C[N+](=O)[O-])c[nH]c12
REMARK SMILES IDX 5 1 6 2 7 3 8 4 9 5 10 6 16 7 17 8 18 9 3 11 4 12 2 13 1 14
REMARK SMILES IDX 11 15 12 16 13 17 14 18 15 19
REMARK H PARENT 17 10
ROOT
ATOM      1  C   UNL     1      -0.861   0.448   1.295  1.00  0.00     0.084 A 
ATOM      2  C   UNL     1      -0.070   0.525   2.427  1.00  0.00     0.018 A 
ATOM      3  C   UNL     1       1.276   0.226   2.428  1.00  0.00     0.002 A 
ATOM      4  C   UNL     1       1.835  -0.168   1.218  1.00  0.00     0.011 A 
ATOM      5  C   UNL     1       1.095  -0.260   0.073  1.00  0.00     0.008 A 
ATOM      6  C   UNL     1       1.441  -0.627  -1.227  1.00  0.00     0.006 A 
ATOM      7  C   UNL     1       0.268  -0.525  -1.937  1.00  0.00     0.091 A 
ATOM      8  N   UNL     1      -0.738  -0.116  -1.105  1.00  0.00    -0.360 N 
ATOM      9  C   UNL     1      -0.241   0.050   0.128  1.00  0.00     0.061 A 
ATOM     10  H   UNL     1      -1.734   0.046  -1.374  1.00  0.00     0.166 HD
ENDROOT
BRANCH   1  11
ATOM     11  C   UNL     1      -2.273   0.781   1.382  1.00  0.00     0.339 C 
ATOM     12  O   UNL     1      -2.760   1.136   2.485  1.00  0.00    -0.246 OA
BRANCH  11  13
ATOM     13  O   UNL     1      -3.137   0.735   0.318  1.00  0.00    -0.465 OA
ATOM     14  C   UNL     1      -4.525   1.067   0.421  1.00  0.00     0.282 C 
ENDBRANCH  11  13
ENDBRANCH   1  11
BRANCH   6  15
ATOM     15  C   UNL     1       2.759  -1.020  -1.677  1.00  0.00     0.087 C 
ATOM     16  C   UNL     1       3.096  -1.367  -2.892  1.00  0.00     0.381 C 
BRANCH  16  17
ATOM     17  N   UNL     1       2.242  -1.426  -4.008  1.00  0.00     0.054 N 
ATOM     18  O   UNL     1       2.119  -0.435  -4.740  1.00  0.00    -0.259 OA
ATOM     19  O   UNL     1       1.551  -2.568  -4.304  1.00  0.00    -0.259 OA
ENDBRANCH  16  17
ENDBRANCH   6  15
TORSDOF 4
