REMARK SMILES O=C(NCc1ccncc1)c1ccc(Cl)c(Cl)c1
REMARK SMILES IDX 1 1 2 2 3 3 11 5 12 6 18 7 13 8 16 9 14 10 17 11 15 12 4 13
REMARK SMILES IDX 5 14 6 15 10 16 7 17 9 18 8 19
REMARK H PARENT 3 4
ROOT
ATOM      1  O   UNL     1      -1.739  -0.256   0.336  1.00  0.00    -0.269 OA
ATOM      2  C   UNL     1      -0.879  -0.691  -0.508  1.00  0.00     0.251 C 
ATOM      3  N   UNL     1       0.296  -1.251   0.028  1.00  0.00    -0.348 N 
ATOM      4  H   UNL     1       1.035  -1.629  -0.643  1.00  0.00     0.164 HD
ENDROOT
BRANCH   2   5
ATOM      5  C   UNL     1      -1.160  -0.583  -1.944  1.00  0.00     0.041 A 
ATOM      6  C   UNL     1      -0.220  -1.011  -2.843  1.00  0.00     0.015 A 
ATOM      7  C   UNL     1      -2.377  -0.049  -2.375  1.00  0.00     0.036 A 
ATOM      8  C   UNL     1      -0.472  -0.916  -4.199  1.00  0.00     0.023 A 
ATOM      9  C   UNL     1      -2.610   0.038  -3.713  1.00  0.00     0.060 A 
ATOM     10  C   UNL     1      -1.664  -0.393  -4.629  1.00  0.00     0.059 A 
ATOM     11  Cl  UNL     1      -4.125   0.700  -4.280  1.00  0.00    -0.083 Cl
ATOM     12  Cl  UNL     1      -2.058  -0.238  -6.344  1.00  0.00    -0.083 Cl
ENDBRANCH   2   5
BRANCH   3  13
ATOM     13  C   UNL     1       0.544  -1.336   1.451  1.00  0.00     0.152 C 
BRANCH  13  14
ATOM     14  C   UNL     1       0.981  -0.074   2.070  1.00  0.00    -0.026 A 
ATOM     15  C   UNL     1       0.180   0.860   2.673  1.00  0.00     0.025 A 
ATOM     16  C   UNL     1       2.349   0.234   2.043  1.00  0.00     0.025 A 
ATOM     17  C   UNL     1       0.713   2.014   3.207  1.00  0.00     0.111 A 
ATOM     18  C   UNL     1       2.860   1.392   2.583  1.00  0.00     0.111 A 
ATOM     19  N   UNL     1       2.047   2.290   3.168  1.00  0.00    -0.265 NA
ENDBRANCH  13  14
ENDBRANCH   3  13
TORSDOF 3
