REMARK SMILES O=C(NCCC[NH+]1CCOCC1)c1sc2cc(Br)ccc2c1Cl
REMARK SMILES IDX 4 1 3 2 1 3 2 4 13 6 14 7 22 8 15 9 21 10 16 11 20 12 17 13
REMARK SMILES IDX 19 14 23 15 18 16 5 17 6 18 7 19 8 20 12 21 9 22 11 23 10 24
REMARK H PARENT 3 5 7 25
ROOT
ATOM      1  C   UNL     1       0.342  -0.431  -2.480  1.00  0.00     0.122 C 
ENDROOT
BRANCH   1   2
ATOM      2  N   UNL     1      -0.714  -0.146  -1.555  1.00  0.00    -0.351 N 
ATOM      3  O   UNL     1      -0.060   2.033  -1.150  1.00  0.00    -0.268 OA
ATOM      4  C   UNL     1      -0.874   1.111  -0.911  1.00  0.00     0.262 C 
ATOM      5  H   UNL     1      -1.413  -0.887  -1.328  1.00  0.00     0.163 HD
BRANCH   4   6
ATOM      6  C   UNL     1      -1.995   1.280   0.015  1.00  0.00     0.112 A 
ATOM      7  S   UNL     1      -3.196   0.033   0.415  1.00  0.00    -0.128 S 
ATOM      8  C   UNL     1      -2.382   2.329   0.747  1.00  0.00     0.072 A 
ATOM      9  C   UNL     1      -4.136   1.040   1.551  1.00  0.00     0.038 A 
ATOM     10  C   UNL     1      -3.480   2.228   1.543  1.00  0.00     0.012 A 
ATOM     11  C   UNL     1      -5.270   0.762   2.301  1.00  0.00     0.035 A 
ATOM     12  C   UNL     1      -4.055   3.201   2.386  1.00  0.00     0.012 A 
ATOM     13  C   UNL     1      -5.806   1.745   3.119  1.00  0.00     0.019 A 
ATOM     14  C   UNL     1      -5.169   2.957   3.135  1.00  0.00     0.016 A 
ATOM     15  Cl  UNL     1      -1.404   3.840   0.626  1.00  0.00    -0.082 Cl
ATOM     16  Br  UNL     1      -7.348   1.454   4.176  1.00  0.00    -0.051 Br
ENDBRANCH   4   6
ENDBRANCH   1   2
BRANCH   1  17
ATOM     17  C   UNL     1       1.717  -0.288  -1.899  1.00  0.00     0.083 C 
BRANCH  17  18
ATOM     18  C   UNL     1       1.984  -1.189  -0.735  1.00  0.00     0.264 C 
BRANCH  18  19
ATOM     19  N   UNL     1       1.868  -2.579  -1.029  1.00  0.00    -0.331 N 
ATOM     20  C   UNL     1       1.199  -3.284   0.045  1.00  0.00     0.291 C 
ATOM     21  C   UNL     1       3.171  -3.194  -1.191  1.00  0.00     0.291 C 
ATOM     22  C   UNL     1       2.118  -3.508   1.229  1.00  0.00     0.221 C 
ATOM     23  C   UNL     1       4.026  -3.050   0.030  1.00  0.00     0.221 C 
ATOM     24  O   UNL     1       3.276  -2.761   1.164  1.00  0.00    -0.370 OA
ATOM     25  H   UNL     1       1.335  -2.756  -1.898  1.00  0.00     0.348 HD
ENDBRANCH  18  19
ENDBRANCH  17  18
ENDBRANCH   1  17
TORSDOF 5
