REMARK SMILES O=S(=O)([N-]CC[NH2+]C/C=C/c1ccc(Br)cc1)c1cccc2cnccc12
REMARK SMILES IDX 6 1 5 2 4 3 2 4 1 5 3 6 18 7 19 8 27 9 20 10 26 11 22 12
REMARK SMILES IDX 21 13 25 14 23 15 24 16 7 17 8 20 9 21 10 22 11 23 12 24
REMARK SMILES IDX 17 25 13 26 16 27 14 28 15 29
REMARK H PARENT 7 18 7 19
ROOT
ATOM      1  C   UNL     1      -0.233   0.077   3.716  1.00  0.00     0.238 C 
ENDROOT
BRANCH   1   2
ATOM      2  C   UNL     1      -0.327  -1.428   3.619  1.00  0.00    -0.070 C 
BRANCH   2   3
ATOM      3  N   UNL     1      -1.687  -1.838   3.344  1.00  0.00    -0.540 NA
BRANCH   3   4
ATOM      4  S   UNL     1      -1.714  -3.501   2.776  1.00  0.00     0.102 S 
ATOM      5  O   UNL     1      -3.115  -3.871   2.792  1.00  0.00    -0.244 OA
ATOM      6  O   UNL     1      -0.991  -4.280   3.843  1.00  0.00    -0.244 OA
BRANCH   4   7
ATOM      7  C   UNL     1      -0.817  -3.543   1.338  1.00  0.00     0.056 A 
ATOM      8  C   UNL     1       0.307  -4.336   1.244  1.00  0.00     0.019 A 
ATOM      9  C   UNL     1      -1.168  -2.800   0.232  1.00  0.00     0.002 A 
ATOM     10  C   UNL     1       1.039  -4.366   0.067  1.00  0.00     0.002 A 
ATOM     11  C   UNL     1      -2.292  -2.010   0.329  1.00  0.00     0.030 A 
ATOM     12  C   UNL     1      -0.450  -2.812  -0.964  1.00  0.00     0.001 A 
ATOM     13  C   UNL     1       0.675  -3.616  -1.033  1.00  0.00     0.010 A 
ATOM     14  C   UNL     1      -2.669  -1.263  -0.749  1.00  0.00     0.111 A 
ATOM     15  C   UNL     1      -0.856  -2.044  -2.037  1.00  0.00     0.119 A 
ATOM     16  N   UNL     1      -1.957  -1.295  -1.885  1.00  0.00    -0.264 NA
ENDBRANCH   4   7
ENDBRANCH   3   4
ENDBRANCH   2   3
ENDBRANCH   1   2
BRANCH   1  17
ATOM     17  N   UNL     1      -0.636   0.741   2.511  1.00  0.00    -0.344 N 
ATOM     18  H   UNL     1      -1.279   0.150   1.975  1.00  0.00     0.346 HD
ATOM     19  H   UNL     1      -1.079   1.655   2.768  1.00  0.00     0.346 HD
BRANCH  17  20
ATOM     20  C   UNL     1       0.557   1.062   1.758  1.00  0.00     0.289 C 
BRANCH  20  21
ATOM     21  C   UNL     1       0.274   1.600   0.424  1.00  0.00     0.034 C 
ATOM     22  C   UNL     1       0.722   0.968  -0.645  1.00  0.00     0.009 C 
BRANCH  22  23
ATOM     23  C   UNL     1       0.506   1.403  -2.019  1.00  0.00    -0.026 A 
ATOM     24  C   UNL     1       1.019   0.667  -3.064  1.00  0.00     0.009 A 
ATOM     25  C   UNL     1      -0.199   2.535  -2.349  1.00  0.00     0.009 A 
ATOM     26  C   UNL     1       0.846   1.030  -4.387  1.00  0.00     0.016 A 
ATOM     27  C   UNL     1      -0.380   2.912  -3.686  1.00  0.00     0.016 A 
ATOM     28  C   UNL     1       0.139   2.166  -4.714  1.00  0.00     0.018 A 
ATOM     29  Br  UNL     1      -0.122   2.701  -6.536  1.00  0.00    -0.051 Br
ENDBRANCH  22  23
ENDBRANCH  20  21
ENDBRANCH  17  20
ENDBRANCH   1  17
TORSDOF 8
