REMARK SMILES O=C1CC([NH+]2CCC(Oc3ccc4c(c3)OCO4)CC2)C(=O)N1c1ccccc1
REMARK SMILES IDX 5 1 6 2 7 3 8 4 19 5 20 6 4 8 1 9 2 10 3 11 23 12 21 13
REMARK SMILES IDX 22 14 24 15 25 16 29 17 26 18 28 19 27 20 9 21 10 22 11 23
REMARK SMILES IDX 15 24 12 25 14 26 13 27 16 28 18 29 17 30
REMARK H PARENT 5 7
ROOT
ATOM      1  N   UNL     1      -0.547  -1.613   3.332  1.00  0.00    -0.324 N 
ATOM      2  C   UNL     1       0.468  -0.620   3.405  1.00  0.00     0.266 C 
ATOM      3  C   UNL     1       0.249   0.573   2.511  1.00  0.00     0.107 C 
ATOM      4  C   UNL     1      -0.437   0.278   1.206  1.00  0.00     0.184 C 
ATOM      5  C   UNL     1      -1.697  -0.545   1.413  1.00  0.00     0.107 C 
ATOM      6  C   UNL     1      -1.740  -0.949   2.841  1.00  0.00     0.266 C 
ATOM      7  H   UNL     1      -0.827  -1.817   4.351  1.00  0.00     0.348 HD
ENDROOT
BRANCH   1   8
ATOM      8  C   UNL     1      -0.218  -2.860   2.779  1.00  0.00     0.284 C 
ATOM      9  O   UNL     1      -1.506  -5.223   0.425  1.00  0.00    -0.274 OA
ATOM     10  C   UNL     1      -0.992  -4.252   0.990  1.00  0.00     0.240 C 
ATOM     11  C   UNL     1      -1.382  -3.687   2.307  1.00  0.00     0.176 C 
ATOM     12  N   UNL     1       0.084  -3.445   0.534  1.00  0.00    -0.245 N 
ATOM     13  C   UNL     1       0.757  -2.905   1.675  1.00  0.00     0.292 C 
ATOM     14  O   UNL     1       1.950  -2.563   1.653  1.00  0.00    -0.267 OA
BRANCH  12  15
ATOM     15  C   UNL     1       0.445  -3.194  -0.820  1.00  0.00     0.052 A 
ATOM     16  C   UNL     1      -0.298  -3.769  -1.852  1.00  0.00     0.027 A 
ATOM     17  C   UNL     1       1.501  -2.402  -1.211  1.00  0.00     0.027 A 
ATOM     18  C   UNL     1       0.013  -3.554  -3.169  1.00  0.00     0.002 A 
ATOM     19  C   UNL     1       1.847  -2.161  -2.532  1.00  0.00     0.002 A 
ATOM     20  C   UNL     1       1.079  -2.755  -3.504  1.00  0.00     0.000 A 
ENDBRANCH  12  15
ENDBRANCH   1   8
BRANCH   4  21
ATOM     21  O   UNL     1      -0.841   1.483   0.635  1.00  0.00    -0.490 OA
BRANCH  21  22
ATOM     22  C   UNL     1      -0.413   1.973  -0.578  1.00  0.00     0.123 A 
ATOM     23  C   UNL     1      -0.922   3.211  -1.020  1.00  0.00     0.050 A 
ATOM     24  C   UNL     1       0.480   1.371  -1.426  1.00  0.00     0.097 A 
ATOM     25  C   UNL     1      -0.538   3.755  -2.217  1.00  0.00     0.054 A 
ATOM     26  C   UNL     1       0.874   1.919  -2.644  1.00  0.00     0.169 A 
ATOM     27  C   UNL     1       0.361   3.132  -3.053  1.00  0.00     0.166 A 
ATOM     28  O   UNL     1       1.734   1.524  -3.653  1.00  0.00    -0.453 OA
ATOM     29  O   UNL     1       0.880   3.487  -4.278  1.00  0.00    -0.454 OA
ATOM     30  C   UNL     1       1.660   2.413  -4.749  1.00  0.00     0.468 C 
ENDBRANCH  21  22
ENDBRANCH   4  21
TORSDOF 4
