REMARK SMILES CC(C)c1c(O)ccc2c1CCC1C(C)(C)CCCC21C
REMARK SMILES IDX 4 1 5 2 7 3 8 4 9 5 10 6 11 7 12 8 13 9 14 10 15 11 16 12
REMARK SMILES IDX 17 13 18 14 19 15 20 16 21 17 2 18 1 19 3 20 6 21
REMARK H PARENT 6 22
ROOT
ATOM      1  C   UNL     1       0.205   0.386   2.356  1.00  0.00    -0.000 A 
ATOM      2  C   UNL     1       1.478   0.288   2.924  1.00  0.00     0.119 A 
ATOM      3  C   UNL     1       2.540  -0.240   2.252  1.00  0.00     0.047 A 
ATOM      4  C   UNL     1       2.324  -0.684   0.969  1.00  0.00     0.008 A 
ATOM      5  C   UNL     1       1.070  -0.616   0.338  1.00  0.00    -0.038 A 
ATOM      6  C   UNL     1       0.035  -0.076   1.063  1.00  0.00    -0.037 A 
ATOM      7  C   UNL     1      -1.320   0.015   0.490  1.00  0.00     0.036 C 
ATOM      8  C   UNL     1      -1.367  -1.061  -0.610  1.00  0.00     0.010 C 
ATOM      9  C   UNL     1      -0.288  -0.745  -1.657  1.00  0.00     0.005 C 
ATOM     10  C   UNL     1      -0.700  -1.469  -2.889  1.00  0.00    -0.032 C 
ATOM     11  C   UNL     1       0.016  -1.064  -4.153  1.00  0.00     0.011 C 
ATOM     12  C   UNL     1      -2.181  -1.146  -3.145  1.00  0.00     0.011 C 
ATOM     13  C   UNL     1      -0.614  -2.948  -2.634  1.00  0.00     0.007 C 
ATOM     14  C   UNL     1       0.730  -3.374  -2.148  1.00  0.00     0.001 C 
ATOM     15  C   UNL     1       1.215  -2.623  -0.950  1.00  0.00     0.012 C 
ATOM     16  C   UNL     1       1.007  -1.132  -1.051  1.00  0.00    -0.004 C 
ATOM     17  C   UNL     1       2.224  -0.503  -1.750  1.00  0.00     0.017 C 
ENDROOT
BRANCH   1  18
ATOM     18  C   UNL     1      -0.937   0.951   3.080  1.00  0.00     0.017 C 
ATOM     19  C   UNL     1      -1.862  -0.059   3.686  1.00  0.00     0.012 C 
ATOM     20  C   UNL     1      -1.634   2.089   2.374  1.00  0.00     0.012 C 
ENDBRANCH   1  18
BRANCH   2  21
ATOM     21  O   UNL     1       1.617   0.757   4.222  1.00  0.00    -0.508 OA
ATOM     22  H   UNL     1       1.500   0.074   4.979  1.00  0.00     0.293 HD
ENDBRANCH   2  21
TORSDOF 2
