REMARK SMILES CCC(Oc1ccc(C)cc1)C(=O)Nc1ccc(OC)cc1
REMARK SMILES IDX 12 1 13 2 14 3 3 5 2 6 1 7 4 8 5 9 6 10 11 11 7 12 10 13
REMARK SMILES IDX 8 14 9 15 15 16 16 17 22 18 17 19 21 20 18 21 19 22 20 23
REMARK H PARENT 14 4
ROOT
ATOM      1  C   UNL     1      -0.490  -0.793  -0.495  1.00  0.00     0.265 C 
ATOM      2  O   UNL     1       0.057  -1.664   0.212  1.00  0.00    -0.270 OA
ATOM      3  N   UNL     1      -1.846  -0.954  -0.840  1.00  0.00    -0.323 N 
ATOM      4  H   UNL     1      -2.262  -0.184  -1.443  1.00  0.00     0.170 HD
ENDROOT
BRANCH   1   5
ATOM      5  C   UNL     1       0.297   0.407  -0.966  1.00  0.00     0.262 C 
BRANCH   5   6
ATOM      6  C   UNL     1       0.179   0.546  -2.473  1.00  0.00     0.052 C 
ATOM      7  C   UNL     1       0.820  -0.583  -3.208  1.00  0.00     0.008 C 
ENDBRANCH   5   6
BRANCH   5   8
ATOM      8  O   UNL     1       1.597   0.364  -0.517  1.00  0.00    -0.481 OA
BRANCH   8   9
ATOM      9  C   UNL     1       2.287   1.181   0.325  1.00  0.00     0.120 A 
ATOM     10  C   UNL     1       1.692   2.280   0.894  1.00  0.00     0.047 A 
ATOM     11  C   UNL     1       3.605   0.908   0.616  1.00  0.00     0.047 A 
ATOM     12  C   UNL     1       2.431   3.089   1.749  1.00  0.00     0.007 A 
ATOM     13  C   UNL     1       4.301   1.723   1.458  1.00  0.00     0.007 A 
ATOM     14  C   UNL     1       3.750   2.847   2.062  1.00  0.00    -0.051 A 
ATOM     15  C   UNL     1       4.537   3.716   2.977  1.00  0.00     0.044 C 
ENDBRANCH   8   9
ENDBRANCH   5   8
ENDBRANCH   1   5
BRANCH   3  16
ATOM     16  C   UNL     1      -2.716  -2.007  -0.485  1.00  0.00     0.041 A 
ATOM     17  C   UNL     1      -2.366  -3.088   0.285  1.00  0.00     0.030 A 
ATOM     18  C   UNL     1      -4.048  -1.999  -0.924  1.00  0.00     0.030 A 
ATOM     19  C   UNL     1      -3.298  -4.097   0.593  1.00  0.00     0.048 A 
ATOM     20  C   UNL     1      -4.952  -2.986  -0.620  1.00  0.00     0.048 A 
ATOM     21  C   UNL     1      -4.596  -4.066   0.151  1.00  0.00     0.119 A 
BRANCH  21  22
ATOM     22  O   UNL     1      -5.484  -5.082   0.478  1.00  0.00    -0.497 OA
ATOM     23  C   UNL     1      -5.088  -6.175   1.271  1.00  0.00     0.278 C 
ENDBRANCH  21  22
ENDBRANCH   3  16
TORSDOF 6
