REMARK SMILES CN1CCN(C2=c3ccccc3=Nc3ccc(Cl)cc3N2)CC1
REMARK SMILES IDX 6 1 7 2 8 3 9 4 10 5 11 6 12 7 13 8 14 9 15 10 16 11 17 12
REMARK SMILES IDX 18 13 19 14 20 15 21 16 5 18 2 19 3 20 23 21 4 22 22 23 1 24
REMARK H PARENT 21 17
ROOT
ATOM      1  C   UNL     1       0.157  -0.504   0.495  1.00  0.00     0.116 C 
ATOM      2  C   UNL     1       1.462  -0.477   0.704  1.00  0.00     0.041 A 
ATOM      3  C   UNL     1       1.713  -0.450   2.071  1.00  0.00     0.014 A 
ATOM      4  C   UNL     1       3.018  -0.420   2.492  1.00  0.00     0.001 A 
ATOM      5  C   UNL     1       4.058  -0.416   1.595  1.00  0.00     0.002 A 
ATOM      6  C   UNL     1       3.830  -0.443   0.232  1.00  0.00     0.029 A 
ATOM      7  C   UNL     1       2.523  -0.473  -0.204  1.00  0.00     0.075 A 
ATOM      8  N   UNL     1       2.525  -0.495  -1.494  1.00  0.00    -0.246 NA
ATOM      9  C   UNL     1       1.453  -0.529  -2.417  1.00  0.00     0.087 A 
ATOM     10  C   UNL     1       1.814  -0.544  -3.740  1.00  0.00     0.032 A 
ATOM     11  C   UNL     1       0.845  -0.578  -4.725  1.00  0.00     0.023 A 
ATOM     12  C   UNL     1      -0.484  -0.595  -4.362  1.00  0.00     0.043 A 
ATOM     13  Cl  UNL     1      -1.740  -0.638  -5.587  1.00  0.00    -0.084 Cl
ATOM     14  C   UNL     1      -0.876  -0.580  -3.045  1.00  0.00     0.049 A 
ATOM     15  C   UNL     1       0.106  -0.547  -2.076  1.00  0.00     0.067 A 
ATOM     16  N   UNL     1      -0.479  -0.537  -0.808  1.00  0.00    -0.340 N 
ATOM     17  H   UNL     1      -1.518  -0.554  -0.767  1.00  0.00     0.168 HD
ENDROOT
BRANCH   1  18
ATOM     18  N   UNL     1      -0.750  -0.502   1.580  1.00  0.00    -0.355 N 
ATOM     19  N   UNL     1      -3.360  -0.722   1.799  1.00  0.00    -0.303 NA
ATOM     20  C   UNL     1      -2.657  -1.928   2.057  1.00  0.00     0.105 C 
ATOM     21  C   UNL     1      -2.834   0.489   2.317  1.00  0.00     0.105 C 
ATOM     22  C   UNL     1      -1.159  -1.703   2.265  1.00  0.00     0.133 C 
ATOM     23  C   UNL     1      -1.362   0.725   2.024  1.00  0.00     0.133 C 
ATOM     24  C   UNL     1      -4.079  -0.646   0.591  1.00  0.00     0.105 C 
ENDBRANCH   1  18
TORSDOF 1
