REMARK SMILES C=CCc1cccc2cc(C(=O)NCCOC)c(=O)oc12
REMARK SMILES IDX 11 1 12 2 13 3 10 5 4 6 5 7 21 8 6 9 20 10 8 11 7 12 18 13
REMARK SMILES IDX 9 14 19 15 3 16 2 17 1 18 14 19 15 20 16 21 17 22
REMARK H PARENT 13 4
ROOT
ATOM      1  C   UNL     1       0.963  -0.131  -2.131  1.00  0.00     0.258 C 
ATOM      2  O   UNL     1       2.027   0.472  -2.562  1.00  0.00    -0.269 OA
ATOM      3  N   UNL     1       0.117  -0.703  -3.096  1.00  0.00    -0.349 N 
ATOM      4  H   UNL     1      -0.747  -1.199  -2.829  1.00  0.00     0.163 HD
ENDROOT
BRANCH   1   5
ATOM      5  C   UNL     1       0.713  -0.180  -0.703  1.00  0.00     0.125 A 
ATOM      6  C   UNL     1       0.108  -0.254   3.443  1.00  0.00    -0.001 A 
ATOM      7  C   UNL     1       0.996   0.335   4.315  1.00  0.00     0.008 A 
ATOM      8  C   UNL     1       0.331  -0.215   2.080  1.00  0.00     0.141 A 
ATOM      9  C   UNL     1       2.105   0.958   3.774  1.00  0.00     0.001 A 
ATOM     10  O   UNL     1      -0.510  -0.773   1.248  1.00  0.00    -0.422 OA
ATOM     11  C   UNL     1       1.432   0.402   1.525  1.00  0.00     0.019 A 
ATOM     12  C   UNL     1       2.321   0.992   2.404  1.00  0.00     0.012 A 
ATOM     13  C   UNL     1      -0.346  -0.767  -0.074  1.00  0.00     0.349 A 
ATOM     14  C   UNL     1       1.636   0.430   0.168  1.00  0.00     0.033 A 
ATOM     15  O   UNL     1      -1.226  -1.336  -0.729  1.00  0.00    -0.246 OA
BRANCH   6  16
ATOM     16  C   UNL     1      -1.084  -0.922   4.028  1.00  0.00     0.066 C 
BRANCH  16  17
ATOM     17  C   UNL     1      -2.239  -0.023   3.802  1.00  0.00    -0.030 C 
ATOM     18  C   UNL     1      -2.958   0.479   4.790  1.00  0.00     0.004 C 
ENDBRANCH  16  17
ENDBRANCH   6  16
ENDBRANCH   1   5
BRANCH   3  19
ATOM     19  C   UNL     1       0.484  -0.585  -4.528  1.00  0.00     0.144 C 
BRANCH  19  20
ATOM     20  C   UNL     1      -0.597  -1.286  -5.320  1.00  0.00     0.181 C 
BRANCH  20  21
ATOM     21  O   UNL     1      -0.611  -2.611  -4.892  1.00  0.00    -0.383 OA
ATOM     22  C   UNL     1      -1.556  -3.385  -5.529  1.00  0.00     0.194 C 
ENDBRANCH  20  21
ENDBRANCH  19  20
ENDBRANCH   3  19
TORSDOF 6
