REMARK SMILES Cc1cccc(OCCn2c(C3CCCO3)nc3ccccc32)c1
REMARK SMILES IDX 8 1 7 2 6 3 2 4 3 5 24 6 4 7 5 8 1 9 9 10 10 11 11 12 23 13
REMARK SMILES IDX 17 14 22 15 18 16 21 17 19 18 20 19 12 20 13 21 16 22 14 23
REMARK SMILES IDX 15 24
REMARK H PARENT
ROOT
ATOM      1  C   UNL     1       0.726   1.513   1.531  1.00  0.00     0.251 C 
ENDROOT
BRANCH   1   2
ATOM      2  O   UNL     1       1.213   0.564   2.349  1.00  0.00    -0.492 OA
BRANCH   2   3
ATOM      3  C   UNL     1       1.588  -0.722   2.266  1.00  0.00     0.119 A 
ATOM      4  C   UNL     1       2.005  -2.830   1.088  1.00  0.00    -0.047 A 
ATOM      5  C   UNL     1       2.414  -3.400   2.271  1.00  0.00     0.003 A 
ATOM      6  C   UNL     1       1.611  -1.515   1.141  1.00  0.00     0.049 A 
ATOM      7  C   UNL     1       2.417  -2.652   3.450  1.00  0.00     0.004 A 
ATOM      8  C   UNL     1       2.019  -1.357   3.458  1.00  0.00     0.046 A 
ATOM      9  C   UNL     1       2.020  -3.662  -0.137  1.00  0.00     0.044 C 
ENDBRANCH   2   3
ENDBRANCH   1   2
BRANCH   1  10
ATOM     10  C   UNL     1      -0.636   1.406   0.938  1.00  0.00     0.165 C 
BRANCH  10  11
ATOM     11  N   UNL     1      -0.973   0.318   0.112  1.00  0.00    -0.322 N 
ATOM     12  C   UNL     1      -0.786   0.265  -1.233  1.00  0.00     0.139 A 
ATOM     13  C   UNL     1      -1.563  -0.822   0.546  1.00  0.00     0.068 A 
ATOM     14  N   UNL     1      -1.272  -0.926  -1.614  1.00  0.00    -0.230 NA
ATOM     15  C   UNL     1      -1.984  -1.328   1.756  1.00  0.00     0.028 A 
ATOM     16  C   UNL     1      -1.755  -1.625  -0.573  1.00  0.00     0.089 A 
ATOM     17  C   UNL     1      -2.573  -2.566   1.894  1.00  0.00     0.002 A 
ATOM     18  C   UNL     1      -2.340  -2.867  -0.470  1.00  0.00     0.030 A 
ATOM     19  C   UNL     1      -2.751  -3.349   0.746  1.00  0.00     0.002 A 
BRANCH  12  20
ATOM     20  C   UNL     1      -0.178   1.290  -2.122  1.00  0.00     0.184 C 
ATOM     21  C   UNL     1      -0.665   1.070  -3.560  1.00  0.00     0.043 C 
ATOM     22  O   UNL     1      -0.617   2.566  -1.880  1.00  0.00    -0.370 OA
ATOM     23  C   UNL     1      -2.050   1.679  -3.481  1.00  0.00     0.032 C 
ATOM     24  C   UNL     1      -1.871   2.723  -2.412  1.00  0.00     0.161 C 
ENDBRANCH  12  20
ENDBRANCH  10  11
ENDBRANCH   1  10
TORSDOF 5
