REMARK SMILES CCC([NH3+])Cc1c[nH]c2ccccc12
REMARK SMILES IDX 3 1 2 2 1 3 4 4 5 8 6 9 7 10 14 11 8 12 13 13 9 14 12 15
REMARK SMILES IDX 10 16 11 17
REMARK H PARENT 4 5 4 6 4 7 8 18
ROOT
ATOM      1  C   UNL     1      -1.647  -0.714   0.303  1.00  0.00     0.185 C 
ENDROOT
BRANCH   1   2
ATOM      2  C   UNL     1      -2.074   0.677  -0.034  1.00  0.00     0.062 C 
ATOM      3  C   UNL     1      -3.290   0.641  -0.949  1.00  0.00     0.010 C 
ENDBRANCH   1   2
BRANCH   1   4
ATOM      4  N   UNL     1      -2.776  -1.358   0.974  1.00  0.00    -0.355 N 
ATOM      5  H   UNL     1      -3.618  -1.330   0.359  1.00  0.00     0.344 HD
ATOM      6  H   UNL     1      -2.476  -2.332   1.202  1.00  0.00     0.344 HD
ATOM      7  H   UNL     1      -2.998  -0.908   1.891  1.00  0.00     0.344 HD
ENDBRANCH   1   4
BRANCH   1   8
ATOM      8  C   UNL     1      -0.430  -0.817   1.157  1.00  0.00     0.102 C 
BRANCH   8   9
ATOM      9  C   UNL     1       0.769  -0.203   0.548  1.00  0.00    -0.017 A 
ATOM     10  C   UNL     1       1.323   1.015   0.895  1.00  0.00     0.087 A 
ATOM     11  C   UNL     1       1.576  -0.683  -0.460  1.00  0.00     0.003 A 
ATOM     12  N   UNL     1       2.413   1.238   0.117  1.00  0.00    -0.361 N 
ATOM     13  C   UNL     1       1.514  -1.842  -1.185  1.00  0.00     0.010 A 
ATOM     14  C   UNL     1       2.606   0.215  -0.734  1.00  0.00     0.046 A 
ATOM     15  C   UNL     1       2.463  -2.092  -2.161  1.00  0.00     0.001 A 
ATOM     16  C   UNL     1       3.551  -0.043  -1.711  1.00  0.00     0.026 A 
ATOM     17  C   UNL     1       3.488  -1.211  -2.442  1.00  0.00     0.002 A 
ATOM     18  H   UNL     1       3.041   2.068   0.144  1.00  0.00     0.166 HD
ENDBRANCH   8   9
ENDBRANCH   1   8
TORSDOF 4
