REMARK SMILES COc1ccccc1-c1nn2c(-c3ccccn3)nnc2s1
REMARK SMILES IDX 3 1 4 2 5 3 6 4 7 5 8 6 2 7 1 8 9 9 10 10 22 11 11 12 21 13
REMARK SMILES IDX 12 14 20 15 19 16 13 17 14 18 18 19 15 20 17 21 16 22
REMARK H PARENT
ROOT
ATOM      1  C   UNL     1      -0.398   0.925   2.102  1.00  0.00     0.129 A 
ATOM      2  C   UNL     1      -0.915   1.661   3.177  1.00  0.00     0.047 A 
ATOM      3  C   UNL     1      -0.131   1.962   4.269  1.00  0.00     0.004 A 
ATOM      4  C   UNL     1       1.176   1.531   4.302  1.00  0.00     0.001 A 
ATOM      5  C   UNL     1       1.679   0.794   3.217  1.00  0.00     0.015 A 
ATOM      6  C   UNL     1       0.882   0.509   2.147  1.00  0.00     0.054 A 
ENDROOT
BRANCH   1   7
ATOM      7  O   UNL     1      -1.251   0.663   1.039  1.00  0.00    -0.496 OA
ATOM      8  C   UNL     1      -2.582   1.119   1.039  1.00  0.00     0.278 C 
ENDBRANCH   1   7
BRANCH   6   9
ATOM      9  C   UNL     1       1.370  -0.274   0.963  1.00  0.00     0.151 A 
ATOM     10  N   UNL     1       0.978  -0.683  -0.080  1.00  0.00    -0.152 NA
ATOM     11  S   UNL     1       3.092  -0.877   0.938  1.00  0.00    -0.073 S 
ATOM     12  N   UNL     1       1.626  -1.363  -0.959  1.00  0.00    -0.181 N 
ATOM     13  C   UNL     1       2.905  -1.656  -0.681  1.00  0.00     0.235 A 
ATOM     14  C   UNL     1       1.355  -1.916  -2.197  1.00  0.00     0.204 A 
ATOM     15  N   UNL     1       3.458  -2.374  -1.695  1.00  0.00    -0.117 NA
ATOM     16  N   UNL     1       2.481  -2.517  -2.612  1.00  0.00    -0.125 NA
BRANCH  14  17
ATOM     17  C   UNL     1       0.097  -1.866  -2.929  1.00  0.00     0.110 A 
ATOM     18  C   UNL     1      -0.043  -2.462  -4.163  1.00  0.00     0.032 A 
ATOM     19  N   UNL     1      -0.980  -1.236  -2.427  1.00  0.00    -0.253 NA
ATOM     20  C   UNL     1      -1.257  -2.406  -4.855  1.00  0.00     0.004 A 
ATOM     21  C   UNL     1      -2.160  -1.167  -3.070  1.00  0.00     0.112 A 
ATOM     22  C   UNL     1      -2.344  -1.750  -4.308  1.00  0.00     0.020 A 
ENDBRANCH  14  17
ENDBRANCH   6   9
TORSDOF 3
