MODEL 1
REMARK VINA RESULT:      -5.1      0.000      0.000
REMARK SMILES O=C1Nc2ccc(I)cc2/C1=C/c1cc(Br)c(O)c(Br)c1
REMARK SMILES IDX 13 1 14 2 15 3 16 4 17 5 19 6 20 7 21 8 12 9 1 10 2 11 3 12
REMARK SMILES IDX 11 13 4 14 10 15 5 16 9 17 6 18 7 19 8 21 18 22
REMARK H PARENT 3 20 18 23
ROOT
ATOM      1  C   UNL     1       1.214  17.766  -4.072  1.00  0.00    -0.022 A 
ATOM      2  C   UNL     1       1.702  17.557  -2.820  1.00  0.00     0.027 A 
ATOM      3  C   UNL     1       2.127  18.645  -2.079  1.00  0.00     0.061 A 
ATOM      4  Br  UNL     1       2.813  18.347  -0.316  1.00  0.00    -0.047 Br
ATOM      5  C   UNL     1       2.068  19.935  -2.579  1.00  0.00     0.143 A 
ATOM      6  C   UNL     1       1.571  20.106  -3.842  1.00  0.00     0.061 A 
ATOM      7  Br  UNL     1       1.460  21.858  -4.602  1.00  0.00    -0.047 Br
ATOM      8  C   UNL     1       1.145  19.043  -4.592  1.00  0.00     0.027 A 
ENDROOT
BRANCH   1   9
ATOM      9  C   UNL     1       0.708  16.698  -4.917  1.00  0.00     0.022 C 
ATOM     10  O   UNL     1       3.605  17.175  -5.660  1.00  0.00    -0.269 OA
ATOM     11  C   UNL     1       2.826  16.347  -6.189  1.00  0.00     0.256 C 
ATOM     12  N   UNL     1       3.146  15.453  -7.269  1.00  0.00    -0.321 N 
ATOM     13  C   UNL     1       1.437  16.097  -5.837  1.00  0.00     0.050 C 
ATOM     14  C   UNL     1       1.990  14.660  -7.590  1.00  0.00     0.049 A 
ATOM     15  C   UNL     1       0.962  15.040  -6.736  1.00  0.00     0.012 A 
ATOM     16  C   UNL     1       1.822  13.676  -8.547  1.00  0.00     0.028 A 
ATOM     17  C   UNL     1      -0.248  14.375  -6.896  1.00  0.00     0.025 A 
ATOM     18  C   UNL     1       0.593  13.050  -8.658  1.00  0.00     0.017 A 
ATOM     19  C   UNL     1      -0.458  13.392  -7.834  1.00  0.00     0.014 A 
ATOM     20  H   UNL     1       4.072  15.422  -7.713  1.00  0.00     0.170 HD
ATOM     21  I   UNL     1      -2.332  12.422  -8.015  1.00  0.00    -0.044 I 
ENDBRANCH   1   9
BRANCH   5  22
ATOM     22  O   UNL     1       2.497  21.021  -1.824  1.00  0.00    -0.506 OA
ATOM     23  H   UNL     1       3.280  20.917  -1.190  1.00  0.00     0.293 HD
ENDBRANCH   5  22
TORSDOF 2
ENDMDL
MODEL 2
REMARK VINA RESULT:      -5.1      0.300      2.059
REMARK SMILES O=C1Nc2ccc(I)cc2/C1=C/c1cc(Br)c(O)c(Br)c1
REMARK SMILES IDX 13 1 14 2 15 3 16 4 17 5 19 6 20 7 21 8 12 9 1 10 2 11 3 12
REMARK SMILES IDX 11 13 4 14 10 15 5 16 9 17 6 18 7 19 8 21 18 22
REMARK H PARENT 3 20 18 23
ROOT
ATOM      1  C   UNL     1       1.262  18.061  -4.254  1.00  0.00    -0.022 A 
ATOM      2  C   UNL     1       1.282  19.345  -4.701  1.00  0.00     0.027 A 
ATOM      3  C   UNL     1       1.758  20.337  -3.861  1.00  0.00     0.061 A 
ATOM      4  Br  UNL     1       1.787  22.143  -4.494  1.00  0.00    -0.047 Br
ATOM      5  C   UNL     1       2.211  20.053  -2.584  1.00  0.00     0.143 A 
ATOM      6  C   UNL     1       2.174  18.750  -2.169  1.00  0.00     0.061 A 
ATOM      7  Br  UNL     1       2.781  18.282  -0.416  1.00  0.00    -0.047 Br
ATOM      8  C   UNL     1       1.708  17.754  -2.984  1.00  0.00     0.027 A 
ENDROOT
BRANCH   1   9
ATOM      9  C   UNL     1       0.817  16.942  -5.068  1.00  0.00     0.022 C 
ATOM     10  O   UNL     1       3.755  17.397  -5.646  1.00  0.00    -0.269 OA
ATOM     11  C   UNL     1       3.015  16.535  -6.177  1.00  0.00     0.256 C 
ATOM     12  N   UNL     1       3.409  15.583  -7.180  1.00  0.00    -0.321 N 
ATOM     13  C   UNL     1       1.607  16.296  -5.903  1.00  0.00     0.050 C 
ATOM     14  C   UNL     1       2.279  14.766  -7.530  1.00  0.00     0.049 A 
ATOM     15  C   UNL     1       1.196  15.186  -6.769  1.00  0.00     0.012 A 
ATOM     16  C   UNL     1       2.178  13.727  -8.438  1.00  0.00     0.028 A 
ATOM     17  C   UNL     1       0.001  14.504  -6.970  1.00  0.00     0.025 A 
ATOM     18  C   UNL     1       0.960  13.087  -8.594  1.00  0.00     0.017 A 
ATOM     19  C   UNL     1      -0.144  13.468  -7.861  1.00  0.00     0.014 A 
ATOM     20  H   UNL     1       4.362  15.533  -7.560  1.00  0.00     0.170 HD
ATOM     21  I   UNL     1      -1.998  12.476  -8.109  1.00  0.00    -0.044 I 
ENDBRANCH   1   9
BRANCH   5  22
ATOM     22  O   UNL     1       2.688  21.058  -1.750  1.00  0.00    -0.506 OA
ATOM     23  H   UNL     1       2.285  21.183  -0.828  1.00  0.00     0.293 HD
ENDBRANCH   5  22
TORSDOF 2
ENDMDL
MODEL 3
REMARK VINA RESULT:      -5.0      4.518      7.263
REMARK SMILES O=C1Nc2ccc(I)cc2/C1=C/c1cc(Br)c(O)c(Br)c1
REMARK SMILES IDX 13 1 14 2 15 3 16 4 17 5 19 6 20 7 21 8 12 9 1 10 2 11 3 12
REMARK SMILES IDX 11 13 4 14 10 15 5 16 9 17 6 18 7 19 8 21 18 22
REMARK H PARENT 3 20 18 23
ROOT
ATOM      1  C   UNL     1       1.276  16.080  -6.952  1.00  0.00    -0.022 A 
ATOM      2  C   UNL     1       2.282  15.248  -7.333  1.00  0.00     0.027 A 
ATOM      3  C   UNL     1       1.960  14.023  -7.889  1.00  0.00     0.061 A 
ATOM      4  Br  UNL     1       3.378  12.854  -8.425  1.00  0.00    -0.047 Br
ATOM      5  C   UNL     1       0.645  13.626  -8.065  1.00  0.00     0.143 A 
ATOM      6  C   UNL     1      -0.340  14.489  -7.669  1.00  0.00     0.061 A 
ATOM      7  Br  UNL     1      -2.180  14.010  -7.879  1.00  0.00    -0.047 Br
ATOM      8  C   UNL     1      -0.043  15.707  -7.117  1.00  0.00     0.027 A 
ENDROOT
BRANCH   1   9
ATOM      9  C   UNL     1       1.505  17.401  -6.392  1.00  0.00     0.022 C 
ATOM     10  O   UNL     1       1.117  15.475  -4.088  1.00  0.00    -0.269 OA
ATOM     11  C   UNL     1       1.313  16.710  -4.002  1.00  0.00     0.256 C 
ATOM     12  N   UNL     1       1.388  17.473  -2.785  1.00  0.00    -0.321 N 
ATOM     13  C   UNL     1       1.513  17.647  -5.096  1.00  0.00     0.050 C 
ATOM     14  C   UNL     1       1.629  18.854  -3.104  1.00  0.00     0.049 A 
ATOM     15  C   UNL     1       1.706  18.967  -4.487  1.00  0.00     0.012 A 
ATOM     16  C   UNL     1       1.776  19.949  -2.271  1.00  0.00     0.028 A 
ATOM     17  C   UNL     1       1.939  20.242  -4.989  1.00  0.00     0.025 A 
ATOM     18  C   UNL     1       2.006  21.194  -2.831  1.00  0.00     0.017 A 
ATOM     19  C   UNL     1       2.090  21.356  -4.197  1.00  0.00     0.014 A 
ATOM     20  H   UNL     1       1.279  17.053  -1.854  1.00  0.00     0.170 HD
ATOM     21  I   UNL     1       2.445  23.267  -5.037  1.00  0.00    -0.044 I 
ENDBRANCH   1   9
BRANCH   5  22
ATOM     22  O   UNL     1       0.334  12.392  -8.626  1.00  0.00    -0.506 OA
ATOM     23  H   UNL     1      -0.349  12.336  -9.373  1.00  0.00     0.293 HD
ENDBRANCH   5  22
TORSDOF 2
ENDMDL
MODEL 4
REMARK VINA RESULT:      -5.0      4.531      7.322
REMARK SMILES O=C1Nc2ccc(I)cc2/C1=C/c1cc(Br)c(O)c(Br)c1
REMARK SMILES IDX 13 1 14 2 15 3 16 4 17 5 19 6 20 7 21 8 12 9 1 10 2 11 3 12
REMARK SMILES IDX 11 13 4 14 10 15 5 16 9 17 6 18 7 19 8 21 18 22
REMARK H PARENT 3 20 18 23
ROOT
ATOM      1  C   UNL     1       0.830  16.200  -6.872  1.00  0.00    -0.022 A 
ATOM      2  C   UNL     1      -0.438  15.714  -6.951  1.00  0.00     0.027 A 
ATOM      3  C   UNL     1      -0.636  14.446  -7.468  1.00  0.00     0.061 A 
ATOM      4  Br  UNL     1      -2.422  13.765  -7.576  1.00  0.00    -0.047 Br
ATOM      5  C   UNL     1       0.420  13.665  -7.905  1.00  0.00     0.143 A 
ATOM      6  C   UNL     1       1.681  14.188  -7.812  1.00  0.00     0.061 A 
ATOM      7  Br  UNL     1       3.190  13.169  -8.398  1.00  0.00    -0.047 Br
ATOM      8  C   UNL     1       1.899  15.440  -7.302  1.00  0.00     0.027 A 
ENDROOT
BRANCH   1   9
ATOM      9  C   UNL     1       1.149  17.503  -6.313  1.00  0.00     0.022 C 
ATOM     10  O   UNL     1       0.909  15.542  -4.017  1.00  0.00    -0.269 OA
ATOM     11  C   UNL     1       1.150  16.769  -3.928  1.00  0.00     0.256 C 
ATOM     12  N   UNL     1       1.357  17.504  -2.709  1.00  0.00    -0.321 N 
ATOM     13  C   UNL     1       1.280  17.721  -5.019  1.00  0.00     0.050 C 
ATOM     14  C   UNL     1       1.611  18.884  -3.024  1.00  0.00     0.049 A 
ATOM     15  C   UNL     1       1.567  19.022  -4.406  1.00  0.00     0.012 A 
ATOM     16  C   UNL     1       1.865  19.957  -2.188  1.00  0.00     0.028 A 
ATOM     17  C   UNL     1       1.793  20.300  -4.904  1.00  0.00     0.025 A 
ATOM     18  C   UNL     1       2.083  21.206  -2.744  1.00  0.00     0.017 A 
ATOM     19  C   UNL     1       2.049  21.393  -4.110  1.00  0.00     0.014 A 
ATOM     20  H   UNL     1       1.319  17.069  -1.780  1.00  0.00     0.170 HD
ATOM     21  I   UNL     1       2.387  23.309  -4.944  1.00  0.00    -0.044 I 
ENDBRANCH   1   9
BRANCH   5  22
ATOM     22  O   UNL     1       0.209  12.391  -8.422  1.00  0.00    -0.506 OA
ATOM     23  H   UNL     1      -0.411  11.749  -7.942  1.00  0.00     0.293 HD
ENDBRANCH   5  22
TORSDOF 2
ENDMDL
MODEL 5
REMARK VINA RESULT:      -4.8      5.237      8.080
REMARK SMILES O=C1Nc2ccc(I)cc2/C1=C/c1cc(Br)c(O)c(Br)c1
REMARK SMILES IDX 13 1 14 2 15 3 16 4 17 5 19 6 20 7 21 8 12 9 1 10 2 11 3 12
REMARK SMILES IDX 11 13 4 14 10 15 5 16 9 17 6 18 7 19 8 21 18 22
REMARK H PARENT 3 20 18 23
ROOT
ATOM      1  C   UNL     1      -0.957  13.767  -8.792  1.00  0.00    -0.022 A 
ATOM      2  C   UNL     1      -0.751  13.585 -10.124  1.00  0.00     0.027 A 
ATOM      3  C   UNL     1      -1.234  12.435 -10.722  1.00  0.00     0.061 A 
ATOM      4  Br  UNL     1      -0.944  12.182 -12.597  1.00  0.00    -0.047 Br
ATOM      5  C   UNL     1      -1.918  11.471 -10.001  1.00  0.00     0.143 A 
ATOM      6  C   UNL     1      -2.105  11.689  -8.664  1.00  0.00     0.061 A 
ATOM      7  Br  UNL     1      -3.039  10.401  -7.601  1.00  0.00    -0.047 Br
ATOM      8  C   UNL     1      -1.636  12.820  -8.052  1.00  0.00     0.027 A 
ENDROOT
BRANCH   1   9
ATOM      9  C   UNL     1      -0.523  14.955  -8.075  1.00  0.00     0.022 C 
ATOM     10  O   UNL     1       1.887  13.156  -8.432  1.00  0.00    -0.269 OA
ATOM     11  C   UNL     1       1.862  14.260  -7.839  1.00  0.00     0.256 C 
ATOM     12  N   UNL     1       2.977  14.901  -7.195  1.00  0.00    -0.321 N 
ATOM     13  C   UNL     1       0.718  15.141  -7.669  1.00  0.00     0.050 C 
ATOM     14  C   UNL     1       2.547  16.153  -6.634  1.00  0.00     0.049 A 
ATOM     15  C   UNL     1       1.195  16.305  -6.914  1.00  0.00     0.012 A 
ATOM     16  C   UNL     1       3.261  17.107  -5.930  1.00  0.00     0.028 A 
ATOM     17  C   UNL     1       0.596  17.469  -6.447  1.00  0.00     0.025 A 
ATOM     18  C   UNL     1       2.609  18.246  -5.491  1.00  0.00     0.017 A 
ATOM     19  C   UNL     1       1.267  18.441  -5.744  1.00  0.00     0.014 A 
ATOM     20  H   UNL     1       3.918  14.490  -7.166  1.00  0.00     0.170 HD
ATOM     21  I   UNL     1       0.286  20.191  -5.067  1.00  0.00    -0.044 I 
ENDBRANCH   1   9
BRANCH   5  22
ATOM     22  O   UNL     1      -2.400  10.320 -10.614  1.00  0.00    -0.506 OA
ATOM     23  H   UNL     1      -3.237   9.872 -10.259  1.00  0.00     0.293 HD
ENDBRANCH   5  22
TORSDOF 2
ENDMDL
MODEL 6
REMARK VINA RESULT:      -4.7      4.388      7.200
REMARK SMILES O=C1Nc2ccc(I)cc2/C1=C/c1cc(Br)c(O)c(Br)c1
REMARK SMILES IDX 13 1 14 2 15 3 16 4 17 5 19 6 20 7 21 8 12 9 1 10 2 11 3 12
REMARK SMILES IDX 11 13 4 14 10 15 5 16 9 17 6 18 7 19 8 21 18 22
REMARK H PARENT 3 20 18 23
ROOT
ATOM      1  C   UNL     1       1.381  15.708  -6.045  1.00  0.00    -0.022 A 
ATOM      2  C   UNL     1       0.241  14.996  -6.249  1.00  0.00     0.027 A 
ATOM      3  C   UNL     1       0.084  14.314  -7.442  1.00  0.00     0.061 A 
ATOM      4  Br  UNL     1      -1.522  13.311  -7.725  1.00  0.00    -0.047 Br
ATOM      5  C   UNL     1       1.056  14.339  -8.428  1.00  0.00     0.143 A 
ATOM      6  C   UNL     1       2.189  15.067  -8.188  1.00  0.00     0.061 A 
ATOM      7  Br  UNL     1       3.575  15.151  -9.504  1.00  0.00    -0.047 Br
ATOM      8  C   UNL     1       2.364  15.749  -7.014  1.00  0.00     0.027 A 
ENDROOT
BRANCH   1   9
ATOM      9  C   UNL     1       1.660  16.429  -4.814  1.00  0.00     0.022 C 
ATOM     10  O   UNL     1       0.480  18.395  -6.792  1.00  0.00    -0.269 OA
ATOM     11  C   UNL     1       0.871  18.652  -5.629  1.00  0.00     0.256 C 
ATOM     12  N   UNL     1       0.846  19.941  -4.992  1.00  0.00    -0.321 N 
ATOM     13  C   UNL     1       1.428  17.718  -4.663  1.00  0.00     0.050 C 
ATOM     14  C   UNL     1       1.373  19.823  -3.659  1.00  0.00     0.049 A 
ATOM     15  C   UNL     1       1.724  18.495  -3.455  1.00  0.00     0.012 A 
ATOM     16  C   UNL     1       1.544  20.786  -2.680  1.00  0.00     0.028 A 
ATOM     17  C   UNL     1       2.257  18.184  -2.209  1.00  0.00     0.025 A 
ATOM     18  C   UNL     1       2.080  20.414  -1.459  1.00  0.00     0.017 A 
ATOM     19  C   UNL     1       2.443  19.108  -1.208  1.00  0.00     0.014 A 
ATOM     20  H   UNL     1       0.496  20.788  -5.457  1.00  0.00     0.170 HD
ATOM     21  I   UNL     1       3.259  18.557   0.666  1.00  0.00    -0.044 I 
ENDBRANCH   1   9
BRANCH   5  22
ATOM     22  O   UNL     1       0.887  13.648  -9.623  1.00  0.00    -0.506 OA
ATOM     23  H   UNL     1       0.512  12.707  -9.613  1.00  0.00     0.293 HD
ENDBRANCH   5  22
TORSDOF 2
ENDMDL
MODEL 7
REMARK VINA RESULT:      -4.6      4.412      7.267
REMARK SMILES O=C1Nc2ccc(I)cc2/C1=C/c1cc(Br)c(O)c(Br)c1
REMARK SMILES IDX 13 1 14 2 15 3 16 4 17 5 19 6 20 7 21 8 12 9 1 10 2 11 3 12
REMARK SMILES IDX 11 13 4 14 10 15 5 16 9 17 6 18 7 19 8 21 18 22
REMARK H PARENT 3 20 18 23
ROOT
ATOM      1  C   UNL     1       1.758  15.818  -6.138  1.00  0.00    -0.022 A 
ATOM      2  C   UNL     1       2.674  15.854  -7.142  1.00  0.00     0.027 A 
ATOM      3  C   UNL     1       2.410  15.161  -8.311  1.00  0.00     0.061 A 
ATOM      4  Br  UNL     1       3.701  15.214  -9.723  1.00  0.00    -0.047 Br
ATOM      5  C   UNL     1       1.243  14.436  -8.479  1.00  0.00     0.143 A 
ATOM      6  C   UNL     1       0.346  14.423  -7.446  1.00  0.00     0.061 A 
ATOM      7  Br  UNL     1      -1.289  13.442  -7.605  1.00  0.00    -0.047 Br
ATOM      8  C   UNL     1       0.587  15.102  -6.282  1.00  0.00     0.027 A 
ENDROOT
BRANCH   1   9
ATOM      9  C   UNL     1       1.922  16.540  -4.887  1.00  0.00     0.022 C 
ATOM     10  O   UNL     1       0.555  18.393  -6.854  1.00  0.00    -0.269 OA
ATOM     11  C   UNL     1       0.888  18.669  -5.677  1.00  0.00     0.256 C 
ATOM     12  N   UNL     1       0.693  19.932  -5.016  1.00  0.00    -0.321 N 
ATOM     13  C   UNL     1       1.533  17.789  -4.716  1.00  0.00     0.050 C 
ATOM     14  C   UNL     1       1.203  19.849  -3.674  1.00  0.00     0.049 A 
ATOM     15  C   UNL     1       1.707  18.568  -3.486  1.00  0.00     0.012 A 
ATOM     16  C   UNL     1       1.235  20.803  -2.672  1.00  0.00     0.028 A 
ATOM     17  C   UNL     1       2.247  18.296  -2.235  1.00  0.00     0.025 A 
ATOM     18  C   UNL     1       1.786  20.472  -1.446  1.00  0.00     0.017 A 
ATOM     19  C   UNL     1       2.299  19.214  -1.212  1.00  0.00     0.014 A 
ATOM     20  H   UNL     1       0.254  20.740  -5.473  1.00  0.00     0.170 HD
ATOM     21  I   UNL     1       3.136  18.724   0.670  1.00  0.00    -0.044 I 
ENDBRANCH   1   9
BRANCH   5  22
ATOM     22  O   UNL     1       0.988  13.744  -9.659  1.00  0.00    -0.506 OA
ATOM     23  H   UNL     1       1.307  14.122 -10.543  1.00  0.00     0.293 HD
ENDBRANCH   5  22
TORSDOF 2
ENDMDL
MODEL 8
REMARK VINA RESULT:      -4.6      1.040      1.172
REMARK SMILES O=C1Nc2ccc(I)cc2/C1=C/c1cc(Br)c(O)c(Br)c1
REMARK SMILES IDX 13 1 14 2 15 3 16 4 17 5 19 6 20 7 21 8 12 9 1 10 2 11 3 12
REMARK SMILES IDX 11 13 4 14 10 15 5 16 9 17 6 18 7 19 8 21 18 22
REMARK H PARENT 3 20 18 23
ROOT
ATOM      1  C   UNL     1       1.214  18.609  -5.127  1.00  0.00    -0.022 A 
ATOM      2  C   UNL     1       1.385  18.572  -3.778  1.00  0.00     0.027 A 
ATOM      3  C   UNL     1       1.828  19.712  -3.130  1.00  0.00     0.061 A 
ATOM      4  Br  UNL     1       2.066  19.658  -1.232  1.00  0.00    -0.047 Br
ATOM      5  C   UNL     1       2.100  20.882  -3.820  1.00  0.00     0.143 A 
ATOM      6  C   UNL     1       1.918  20.880  -5.175  1.00  0.00     0.061 A 
ATOM      7  Br  UNL     1       2.276  22.458  -6.196  1.00  0.00    -0.047 Br
ATOM      8  C   UNL     1       1.479  19.763  -5.836  1.00  0.00     0.027 A 
ENDROOT
BRANCH   1   9
ATOM      9  C   UNL     1       0.719  17.480  -5.896  1.00  0.00     0.022 C 
ATOM     10  O   UNL     1       3.736  17.257  -5.762  1.00  0.00    -0.269 OA
ATOM     11  C   UNL     1       2.957  16.480  -6.362  1.00  0.00     0.256 C 
ATOM     12  N   UNL     1       3.338  15.319  -7.122  1.00  0.00    -0.321 N 
ATOM     13  C   UNL     1       1.507  16.565  -6.427  1.00  0.00     0.050 C 
ATOM     14  C   UNL     1       2.158  14.689  -7.651  1.00  0.00     0.049 A 
ATOM     15  C   UNL     1       1.057  15.430  -7.239  1.00  0.00     0.012 A 
ATOM     16  C   UNL     1       2.028  13.556  -8.433  1.00  0.00     0.028 A 
ATOM     17  C   UNL     1      -0.186  14.968  -7.656  1.00  0.00     0.025 A 
ATOM     18  C   UNL     1       0.763  13.146  -8.817  1.00  0.00     0.017 A 
ATOM     19  C   UNL     1      -0.360  13.848  -8.434  1.00  0.00     0.014 A 
ATOM     20  H   UNL     1       4.315  15.024  -7.240  1.00  0.00     0.170 HD
ATOM     21  I   UNL     1      -2.288  13.206  -9.029  1.00  0.00    -0.044 I 
ENDBRANCH   1   9
BRANCH   5  22
ATOM     22  O   UNL     1       2.544  22.021  -3.158  1.00  0.00    -0.506 OA
ATOM     23  H   UNL     1       3.365  21.973  -2.566  1.00  0.00     0.293 HD
ENDBRANCH   5  22
TORSDOF 2
ENDMDL
MODEL 9
REMARK VINA RESULT:      -4.5      5.216      7.813
REMARK SMILES O=C1Nc2ccc(I)cc2/C1=C/c1cc(Br)c(O)c(Br)c1
REMARK SMILES IDX 13 1 14 2 15 3 16 4 17 5 19 6 20 7 21 8 12 9 1 10 2 11 3 12
REMARK SMILES IDX 11 13 4 14 10 15 5 16 9 17 6 18 7 19 8 21 18 22
REMARK H PARENT 3 20 18 23
ROOT
ATOM      1  C   UNL     1      -1.145  13.801  -8.480  1.00  0.00    -0.022 A 
ATOM      2  C   UNL     1      -1.771  12.791  -7.818  1.00  0.00     0.027 A 
ATOM      3  C   UNL     1      -2.167  11.672  -8.529  1.00  0.00     0.061 A 
ATOM      4  Br  UNL     1      -3.048  10.252  -7.594  1.00  0.00    -0.047 Br
ATOM      5  C   UNL     1      -1.940  11.556  -9.890  1.00  0.00     0.143 A 
ATOM      6  C   UNL     1      -1.308  12.592 -10.521  1.00  0.00     0.061 A 
ATOM      7  Br  UNL     1      -0.962  12.505 -12.401  1.00  0.00    -0.047 Br
ATOM      8  C   UNL     1      -0.908  13.708  -9.837  1.00  0.00     0.027 A 
ENDROOT
BRANCH   1   9
ATOM      9  C   UNL     1      -0.658  15.001  -7.821  1.00  0.00     0.022 C 
ATOM     10  O   UNL     1       1.708  13.163  -8.262  1.00  0.00    -0.269 OA
ATOM     11  C   UNL     1       1.729  14.282  -7.699  1.00  0.00     0.256 C 
ATOM     12  N   UNL     1       2.885  14.926  -7.136  1.00  0.00    -0.321 N 
ATOM     13  C   UNL     1       0.606  15.182  -7.490  1.00  0.00     0.050 C 
ATOM     14  C   UNL     1       2.502  16.198  -6.587  1.00  0.00     0.049 A 
ATOM     15  C   UNL     1       1.137  16.359  -6.795  1.00  0.00     0.012 A 
ATOM     16  C   UNL     1       3.264  17.160  -5.950  1.00  0.00     0.028 A 
ATOM     17  C   UNL     1       0.579  17.543  -6.327  1.00  0.00     0.025 A 
ATOM     18  C   UNL     1       2.651  18.320  -5.507  1.00  0.00     0.017 A 
ATOM     19  C   UNL     1       1.300  18.525  -5.690  1.00  0.00     0.014 A 
ATOM     20  H   UNL     1       3.821  14.503  -7.148  1.00  0.00     0.170 HD
ATOM     21  I   UNL     1       0.378  20.305  -5.007  1.00  0.00    -0.044 I 
ENDBRANCH   1   9
BRANCH   5  22
ATOM     22  O   UNL     1      -2.341  10.425 -10.593  1.00  0.00    -0.506 OA
ATOM     23  H   UNL     1      -3.189   9.939 -10.326  1.00  0.00     0.293 HD
ENDBRANCH   5  22
TORSDOF 2
ENDMDL
