MODEL 1
REMARK VINA RESULT:      -5.2      0.000      0.000
REMARK SMILES CC/C(=C(\c1ccccc1)c1ccc(OCC[NH+](C)C)cc1)c1ccccc1
REMARK SMILES IDX 15 1 14 2 11 3 12 4 22 5 13 6 21 7 4 8 3 9 2 10 1 11 23 12
REMARK SMILES IDX 24 13 28 14 25 15 27 16 26 17 5 18 6 19 10 20 7 21 9 22 8 23
REMARK SMILES IDX 16 24 17 25 18 26 19 27 20 28
REMARK H PARENT 18 29
ROOT
ATOM      1  O   UNL     1      13.984 -23.124   7.325  1.00  0.00    -0.488 OA
ENDROOT
BRANCH   1   2
ATOM      2  C   UNL     1      15.345 -23.158   7.081  1.00  0.00     0.119 A 
ATOM      3  C   UNL     1      18.168 -23.296   6.670  1.00  0.00    -0.017 A 
ATOM      4  C   UNL     1      17.332 -22.663   5.771  1.00  0.00     0.012 A 
ATOM      5  C   UNL     1      17.550 -23.858   7.782  1.00  0.00     0.012 A 
ATOM      6  C   UNL     1      15.964 -22.604   5.985  1.00  0.00     0.047 A 
ATOM      7  C   UNL     1      16.197 -23.799   7.991  1.00  0.00     0.047 A 
BRANCH   3   8
ATOM      8  C   UNL     1      19.607 -23.352   6.485  1.00  0.00    -0.007 C 
ATOM      9  C   UNL     1      20.181 -24.184   5.655  1.00  0.00    -0.033 C 
BRANCH   9  10
ATOM     10  C   UNL     1      21.651 -24.316   5.461  1.00  0.00     0.033 C 
ATOM     11  C   UNL     1      22.120 -25.567   6.144  1.00  0.00     0.009 C 
ENDBRANCH   9  10
BRANCH   9  12
ATOM     12  C   UNL     1      19.379 -25.042   4.764  1.00  0.00    -0.022 A 
ATOM     13  C   UNL     1      18.759 -26.179   5.214  1.00  0.00     0.008 A 
ATOM     14  C   UNL     1      19.269 -24.685   3.454  1.00  0.00     0.008 A 
ATOM     15  C   UNL     1      18.032 -26.948   4.341  1.00  0.00     0.001 A 
ATOM     16  C   UNL     1      18.539 -25.439   2.531  1.00  0.00     0.001 A 
ATOM     17  C   UNL     1      17.928 -26.574   3.012  1.00  0.00     0.000 A 
ENDBRANCH   9  12
BRANCH   8  18
ATOM     18  C   UNL     1      20.429 -22.469   7.288  1.00  0.00    -0.018 A 
ATOM     19  C   UNL     1      20.664 -21.156   6.935  1.00  0.00     0.009 A 
ATOM     20  C   UNL     1      21.047 -22.963   8.433  1.00  0.00     0.009 A 
ATOM     21  C   UNL     1      21.490 -20.388   7.714  1.00  0.00     0.001 A 
ATOM     22  C   UNL     1      21.878 -22.207   9.227  1.00  0.00     0.001 A 
ATOM     23  C   UNL     1      22.099 -20.885   8.850  1.00  0.00     0.000 A 
ENDBRANCH   8  18
ENDBRANCH   3   8
ENDBRANCH   1   2
BRANCH   1  24
ATOM     24  C   UNL     1      13.062 -22.161   6.954  1.00  0.00     0.290 C 
BRANCH  24  25
ATOM     25  C   UNL     1      13.214 -20.818   7.619  1.00  0.00     0.303 C 
BRANCH  25  26
ATOM     26  N   UNL     1      13.414 -19.752   6.684  1.00  0.00    -0.337 N 
ATOM     27  C   UNL     1      13.169 -20.137   5.311  1.00  0.00     0.332 C 
ATOM     28  C   UNL     1      14.751 -19.199   6.740  1.00  0.00     0.332 C 
ATOM     29  H   UNL     1      12.761 -18.936   6.882  1.00  0.00     0.347 HD
ENDBRANCH  25  26
ENDBRANCH  24  25
ENDBRANCH   1  24
TORSDOF 8
ENDMDL
MODEL 2
REMARK VINA RESULT:      -5.1      3.951      9.205
REMARK SMILES CC/C(=C(\c1ccccc1)c1ccc(OCC[NH+](C)C)cc1)c1ccccc1
REMARK SMILES IDX 15 1 14 2 11 3 12 4 22 5 13 6 21 7 4 8 3 9 2 10 1 11 23 12
REMARK SMILES IDX 24 13 28 14 25 15 27 16 26 17 5 18 6 19 10 20 7 21 9 22 8 23
REMARK SMILES IDX 16 24 17 25 18 26 19 27 20 28
REMARK H PARENT 18 29
ROOT
ATOM      1  O   UNL     1      15.269 -20.640   5.241  1.00  0.00    -0.488 OA
ENDROOT
BRANCH   1   2
ATOM      2  C   UNL     1      14.769 -19.783   6.204  1.00  0.00     0.119 A 
ATOM      3  C   UNL     1      13.628 -18.036   8.155  1.00  0.00    -0.017 A 
ATOM      4  C   UNL     1      14.984 -18.295   8.115  1.00  0.00     0.012 A 
ATOM      5  C   UNL     1      12.858 -18.676   7.189  1.00  0.00     0.012 A 
ATOM      6  C   UNL     1      15.523 -19.145   7.162  1.00  0.00     0.047 A 
ATOM      7  C   UNL     1      13.392 -19.516   6.249  1.00  0.00     0.047 A 
BRANCH   3   8
ATOM      8  C   UNL     1      13.039 -17.132   9.127  1.00  0.00    -0.007 C 
ATOM      9  C   UNL     1      12.441 -17.551  10.212  1.00  0.00    -0.033 C 
BRANCH   9  10
ATOM     10  C   UNL     1      11.780 -16.672  11.215  1.00  0.00     0.033 C 
ATOM     11  C   UNL     1      10.314 -16.599  10.905  1.00  0.00     0.009 C 
ENDBRANCH   9  10
BRANCH   9  12
ATOM     12  C   UNL     1      12.434 -18.981  10.570  1.00  0.00    -0.022 A 
ATOM     13  C   UNL     1      11.445 -19.831  10.149  1.00  0.00     0.008 A 
ATOM     14  C   UNL     1      13.444 -19.454  11.352  1.00  0.00     0.008 A 
ATOM     15  C   UNL     1      11.480 -21.152  10.518  1.00  0.00     0.001 A 
ATOM     16  C   UNL     1      13.518 -20.791  11.753  1.00  0.00     0.001 A 
ATOM     17  C   UNL     1      12.512 -21.620  11.314  1.00  0.00     0.000 A 
ENDBRANCH   9  12
BRANCH   8  18
ATOM     18  C   UNL     1      13.092 -15.711   8.849  1.00  0.00    -0.018 A 
ATOM     19  C   UNL     1      12.170 -15.083   8.035  1.00  0.00     0.009 A 
ATOM     20  C   UNL     1      14.131 -14.948   9.375  1.00  0.00     0.009 A 
ATOM     21  C   UNL     1      12.306 -13.744   7.774  1.00  0.00     0.001 A 
ATOM     22  C   UNL     1      14.281 -13.604   9.125  1.00  0.00     0.001 A 
ATOM     23  C   UNL     1      13.339 -12.995   8.302  1.00  0.00     0.000 A 
ENDBRANCH   8  18
ENDBRANCH   3   8
ENDBRANCH   1   2
BRANCH   1  24
ATOM     24  C   UNL     1      15.137 -22.015   5.153  1.00  0.00     0.290 C 
BRANCH  24  25
ATOM     25  C   UNL     1      16.205 -22.820   5.845  1.00  0.00     0.303 C 
BRANCH  25  26
ATOM     26  N   UNL     1      15.762 -23.390   7.082  1.00  0.00    -0.337 N 
ATOM     27  C   UNL     1      14.348 -23.207   7.325  1.00  0.00     0.332 C 
ATOM     28  C   UNL     1      16.465 -22.856   8.231  1.00  0.00     0.332 C 
ATOM     29  H   UNL     1      15.932 -24.439   7.108  1.00  0.00     0.347 HD
ENDBRANCH  25  26
ENDBRANCH  24  25
ENDBRANCH   1  24
TORSDOF 8
ENDMDL
MODEL 3
REMARK VINA RESULT:      -5.0      0.799      4.554
REMARK SMILES CC/C(=C(\c1ccccc1)c1ccc(OCC[NH+](C)C)cc1)c1ccccc1
REMARK SMILES IDX 15 1 14 2 11 3 12 4 22 5 13 6 21 7 4 8 3 9 2 10 1 11 23 12
REMARK SMILES IDX 24 13 28 14 25 15 27 16 26 17 5 18 6 19 10 20 7 21 9 22 8 23
REMARK SMILES IDX 16 24 17 25 18 26 19 27 20 28
REMARK H PARENT 18 29
ROOT
ATOM      1  O   UNL     1      14.271 -22.206   8.243  1.00  0.00    -0.488 OA
ENDROOT
BRANCH   1   2
ATOM      2  C   UNL     1      15.369 -22.679   7.547  1.00  0.00     0.119 A 
ATOM      3  C   UNL     1      17.648 -23.738   6.190  1.00  0.00    -0.017 A 
ATOM      4  C   UNL     1      16.916 -22.687   5.672  1.00  0.00     0.012 A 
ATOM      5  C   UNL     1      17.207 -24.243   7.409  1.00  0.00     0.012 A 
ATOM      6  C   UNL     1      15.812 -22.184   6.343  1.00  0.00     0.047 A 
ATOM      7  C   UNL     1      16.115 -23.745   8.070  1.00  0.00     0.047 A 
BRANCH   3   8
ATOM      8  C   UNL     1      18.823 -24.270   5.522  1.00  0.00    -0.007 C 
ATOM      9  C   UNL     1      20.032 -23.833   5.765  1.00  0.00    -0.033 C 
BRANCH   9  10
ATOM     10  C   UNL     1      21.263 -24.308   5.077  1.00  0.00     0.033 C 
ATOM     11  C   UNL     1      21.861 -25.432   5.872  1.00  0.00     0.009 C 
ENDBRANCH   9  10
BRANCH   9  12
ATOM     12  C   UNL     1      20.282 -22.844   6.829  1.00  0.00    -0.022 A 
ATOM     13  C   UNL     1      20.407 -21.505   6.563  1.00  0.00     0.008 A 
ATOM     14  C   UNL     1      20.402 -23.293   8.110  1.00  0.00     0.008 A 
ATOM     15  C   UNL     1      20.650 -20.627   7.588  1.00  0.00     0.001 A 
ATOM     16  C   UNL     1      20.650 -22.434   9.184  1.00  0.00     0.001 A 
ATOM     17  C   UNL     1      20.769 -21.096   8.886  1.00  0.00     0.000 A 
ENDBRANCH   9  12
BRANCH   8  18
ATOM     18  C   UNL     1      18.626 -25.299   4.522  1.00  0.00    -0.018 A 
ATOM     19  C   UNL     1      18.554 -25.013   3.173  1.00  0.00     0.009 A 
ATOM     20  C   UNL     1      18.455 -26.620   4.924  1.00  0.00     0.009 A 
ATOM     21  C   UNL     1      18.319 -26.029   2.283  1.00  0.00     0.001 A 
ATOM     22  C   UNL     1      18.219 -27.651   4.044  1.00  0.00     0.001 A 
ATOM     23  C   UNL     1      18.151 -27.338   2.690  1.00  0.00     0.000 A 
ENDBRANCH   8  18
ENDBRANCH   3   8
ENDBRANCH   1   2
BRANCH   1  24
ATOM     24  C   UNL     1      13.132 -21.594   7.751  1.00  0.00     0.290 C 
BRANCH  24  25
ATOM     25  C   UNL     1      12.895 -20.181   8.216  1.00  0.00     0.303 C 
BRANCH  25  26
ATOM     26  N   UNL     1      13.329 -19.201   7.268  1.00  0.00    -0.337 N 
ATOM     27  C   UNL     1      13.223 -19.642   5.894  1.00  0.00     0.332 C 
ATOM     28  C   UNL     1      14.701 -18.785   7.476  1.00  0.00     0.332 C 
ATOM     29  H   UNL     1      12.750 -18.311   7.338  1.00  0.00     0.347 HD
ENDBRANCH  25  26
ENDBRANCH  24  25
ENDBRANCH   1  24
TORSDOF 8
ENDMDL
MODEL 4
REMARK VINA RESULT:      -5.0      0.505      1.477
REMARK SMILES CC/C(=C(\c1ccccc1)c1ccc(OCC[NH+](C)C)cc1)c1ccccc1
REMARK SMILES IDX 15 1 14 2 11 3 12 4 22 5 13 6 21 7 4 8 3 9 2 10 1 11 23 12
REMARK SMILES IDX 24 13 28 14 25 15 27 16 26 17 5 18 6 19 10 20 7 21 9 22 8 23
REMARK SMILES IDX 16 24 17 25 18 26 19 27 20 28
REMARK H PARENT 18 29
ROOT
ATOM      1  O   UNL     1      13.862 -22.888   6.479  1.00  0.00    -0.488 OA
ENDROOT
BRANCH   1   2
ATOM      2  C   UNL     1      15.237 -23.035   6.483  1.00  0.00     0.119 A 
ATOM      3  C   UNL     1      18.080 -23.286   6.387  1.00  0.00    -0.017 A 
ATOM      4  C   UNL     1      17.352 -23.678   7.493  1.00  0.00     0.012 A 
ATOM      5  C   UNL     1      17.343 -22.766   5.327  1.00  0.00     0.012 A 
ATOM      6  C   UNL     1      15.973 -23.549   7.524  1.00  0.00     0.047 A 
ATOM      7  C   UNL     1      15.980 -22.640   5.361  1.00  0.00     0.047 A 
BRANCH   3   8
ATOM      8  C   UNL     1      19.524 -23.431   6.316  1.00  0.00    -0.007 C 
ATOM      9  C   UNL     1      20.109 -24.293   5.525  1.00  0.00    -0.033 C 
BRANCH   9  10
ATOM     10  C   UNL     1      21.579 -24.516   5.447  1.00  0.00     0.033 C 
ATOM     11  C   UNL     1      21.916 -25.787   6.170  1.00  0.00     0.009 C 
ENDBRANCH   9  10
BRANCH   9  12
ATOM     12  C   UNL     1      19.329 -25.095   4.565  1.00  0.00    -0.022 A 
ATOM     13  C   UNL     1      18.591 -26.182   4.957  1.00  0.00     0.008 A 
ATOM     14  C   UNL     1      19.361 -24.737   3.252  1.00  0.00     0.008 A 
ATOM     15  C   UNL     1      17.890 -26.901   4.021  1.00  0.00     0.001 A 
ATOM     16  C   UNL     1      18.664 -25.441   2.266  1.00  0.00     0.001 A 
ATOM     17  C   UNL     1      17.931 -26.526   2.689  1.00  0.00     0.000 A 
ENDBRANCH   9  12
BRANCH   8  18
ATOM     18  C   UNL     1      20.332 -22.606   7.190  1.00  0.00    -0.018 A 
ATOM     19  C   UNL     1      20.764 -23.043   8.426  1.00  0.00     0.009 A 
ATOM     20  C   UNL     1      20.651 -21.307   6.804  1.00  0.00     0.009 A 
ATOM     21  C   UNL     1      21.485 -22.194   9.225  1.00  0.00     0.001 A 
ATOM     22  C   UNL     1      21.374 -20.442   7.592  1.00  0.00     0.001 A 
ATOM     23  C   UNL     1      21.799 -20.907   8.833  1.00  0.00     0.000 A 
ENDBRANCH   8  18
ENDBRANCH   3   8
ENDBRANCH   1   2
BRANCH   1  24
ATOM     24  C   UNL     1      13.111 -21.765   6.781  1.00  0.00     0.290 C 
BRANCH  24  25
ATOM     25  C   UNL     1      13.213 -20.626   5.801  1.00  0.00     0.303 C 
BRANCH  25  26
ATOM     26  N   UNL     1      13.644 -19.404   6.409  1.00  0.00    -0.337 N 
ATOM     27  C   UNL     1      15.084 -19.270   6.473  1.00  0.00     0.332 C 
ATOM     28  C   UNL     1      13.140 -19.237   7.756  1.00  0.00     0.332 C 
ATOM     29  H   UNL     1      13.293 -18.558   5.868  1.00  0.00     0.347 HD
ENDBRANCH  25  26
ENDBRANCH  24  25
ENDBRANCH   1  24
TORSDOF 8
ENDMDL
MODEL 5
REMARK VINA RESULT:      -4.9      3.799      9.181
REMARK SMILES CC/C(=C(\c1ccccc1)c1ccc(OCC[NH+](C)C)cc1)c1ccccc1
REMARK SMILES IDX 15 1 14 2 11 3 12 4 22 5 13 6 21 7 4 8 3 9 2 10 1 11 23 12
REMARK SMILES IDX 24 13 28 14 25 15 27 16 26 17 5 18 6 19 10 20 7 21 9 22 8 23
REMARK SMILES IDX 16 24 17 25 18 26 19 27 20 28
REMARK H PARENT 18 29
ROOT
ATOM      1  O   UNL     1      15.646 -20.783   5.305  1.00  0.00    -0.488 OA
ENDROOT
BRANCH   1   2
ATOM      2  C   UNL     1      14.971 -19.959   6.186  1.00  0.00     0.119 A 
ATOM      3  C   UNL     1      13.678 -18.227   8.054  1.00  0.00    -0.017 A 
ATOM      4  C   UNL     1      12.974 -18.889   7.068  1.00  0.00     0.012 A 
ATOM      5  C   UNL     1      15.050 -18.458   8.080  1.00  0.00     0.012 A 
ATOM      6  C   UNL     1      13.615 -19.726   6.169  1.00  0.00     0.047 A 
ATOM      7  C   UNL     1      15.682 -19.285   7.191  1.00  0.00     0.047 A 
BRANCH   3   8
ATOM      8  C   UNL     1      13.029 -17.363   9.025  1.00  0.00    -0.007 C 
ATOM      9  C   UNL     1      12.495 -17.817  10.129  1.00  0.00    -0.033 C 
BRANCH   9  10
ATOM     10  C   UNL     1      11.778 -16.985  11.133  1.00  0.00     0.033 C 
ATOM     11  C   UNL     1      10.302 -17.212  10.988  1.00  0.00     0.009 C 
ENDBRANCH   9  10
BRANCH   9  12
ATOM     12  C   UNL     1      12.627 -19.235  10.509  1.00  0.00    -0.022 A 
ATOM     13  C   UNL     1      13.668 -19.688  11.278  1.00  0.00     0.008 A 
ATOM     14  C   UNL     1      11.683 -20.110  10.065  1.00  0.00     0.008 A 
ATOM     15  C   UNL     1      13.749 -21.020  11.595  1.00  0.00     0.001 A 
ATOM     16  C   UNL     1      11.727 -21.475  10.364  1.00  0.00     0.001 A 
ATOM     17  C   UNL     1      12.782 -21.901  11.138  1.00  0.00     0.000 A 
ENDBRANCH   9  12
BRANCH   8  18
ATOM     18  C   UNL     1      12.947 -15.948   8.724  1.00  0.00    -0.018 A 
ATOM     19  C   UNL     1      11.995 -15.430   7.869  1.00  0.00     0.009 A 
ATOM     20  C   UNL     1      13.882 -15.076   9.273  1.00  0.00     0.009 A 
ATOM     21  C   UNL     1      12.002 -14.088   7.590  1.00  0.00     0.001 A 
ATOM     22  C   UNL     1      13.903 -13.727   9.005  1.00  0.00     0.001 A 
ATOM     23  C   UNL     1      12.933 -13.229   8.140  1.00  0.00     0.000 A 
ENDBRANCH   8  18
ENDBRANCH   3   8
ENDBRANCH   1   2
BRANCH   1  24
ATOM     24  C   UNL     1      15.751 -22.162   5.317  1.00  0.00     0.290 C 
BRANCH  24  25
ATOM     25  C   UNL     1      16.770 -22.733   6.269  1.00  0.00     0.303 C 
BRANCH  25  26
ATOM     26  N   UNL     1      17.137 -24.080   5.952  1.00  0.00    -0.337 N 
ATOM     27  C   UNL     1      17.894 -24.731   6.999  1.00  0.00     0.332 C 
ATOM     28  C   UNL     1      17.918 -24.179   4.737  1.00  0.00     0.332 C 
ATOM     29  H   UNL     1      16.279 -24.686   5.787  1.00  0.00     0.347 HD
ENDBRANCH  25  26
ENDBRANCH  24  25
ENDBRANCH   1  24
TORSDOF 8
ENDMDL
MODEL 6
REMARK VINA RESULT:      -4.9      2.228      4.582
REMARK SMILES CC/C(=C(\c1ccccc1)c1ccc(OCC[NH+](C)C)cc1)c1ccccc1
REMARK SMILES IDX 15 1 14 2 11 3 12 4 22 5 13 6 21 7 4 8 3 9 2 10 1 11 23 12
REMARK SMILES IDX 24 13 28 14 25 15 27 16 26 17 5 18 6 19 10 20 7 21 9 22 8 23
REMARK SMILES IDX 16 24 17 25 18 26 19 27 20 28
REMARK H PARENT 18 29
ROOT
ATOM      1  O   UNL     1      14.352 -19.505   5.761  1.00  0.00    -0.488 OA
ENDROOT
BRANCH   1   2
ATOM      2  C   UNL     1      15.258 -20.530   5.962  1.00  0.00     0.119 A 
ATOM      3  C   UNL     1      17.064 -22.716   6.307  1.00  0.00    -0.017 A 
ATOM      4  C   UNL     1      17.321 -21.469   6.841  1.00  0.00     0.012 A 
ATOM      5  C   UNL     1      15.874 -22.839   5.596  1.00  0.00     0.012 A 
ATOM      6  C   UNL     1      16.435 -20.418   6.664  1.00  0.00     0.047 A 
ATOM      7  C   UNL     1      15.000 -21.800   5.423  1.00  0.00     0.047 A 
BRANCH   3   8
ATOM      8  C   UNL     1      17.962 -23.842   6.496  1.00  0.00    -0.007 C 
ATOM      9  C   UNL     1      17.932 -24.598   7.563  1.00  0.00    -0.033 C 
BRANCH   9  10
ATOM     10  C   UNL     1      18.858 -25.732   7.830  1.00  0.00     0.033 C 
ATOM     11  C   UNL     1      18.236 -26.998   7.318  1.00  0.00     0.009 C 
ENDBRANCH   9  10
BRANCH   9  12
ATOM     12  C   UNL     1      16.893 -24.417   8.593  1.00  0.00    -0.022 A 
ATOM     13  C   UNL     1      15.641 -24.960   8.466  1.00  0.00     0.008 A 
ATOM     14  C   UNL     1      17.200 -23.676   9.694  1.00  0.00     0.008 A 
ATOM     15  C   UNL     1      14.706 -24.753   9.449  1.00  0.00     0.001 A 
ATOM     16  C   UNL     1      16.280 -23.440  10.719  1.00  0.00     0.001 A 
ATOM     17  C   UNL     1      15.031 -23.998  10.564  1.00  0.00     0.000 A 
ENDBRANCH   9  12
BRANCH   8  18
ATOM     18  C   UNL     1      18.950 -24.101   5.469  1.00  0.00    -0.018 A 
ATOM     19  C   UNL     1      20.250 -23.647   5.564  1.00  0.00     0.009 A 
ATOM     20  C   UNL     1      18.577 -24.789   4.318  1.00  0.00     0.009 A 
ATOM     21  C   UNL     1      21.122 -23.886   4.534  1.00  0.00     0.001 A 
ATOM     22  C   UNL     1      19.439 -25.038   3.276  1.00  0.00     0.001 A 
ATOM     23  C   UNL     1      20.744 -24.571   3.396  1.00  0.00     0.000 A 
ENDBRANCH   8  18
ENDBRANCH   3   8
ENDBRANCH   1   2
BRANCH   1  24
ATOM     24  C   UNL     1      13.119 -19.310   6.359  1.00  0.00     0.290 C 
BRANCH  24  25
ATOM     25  C   UNL     1      13.150 -18.972   7.827  1.00  0.00     0.303 C 
BRANCH  25  26
ATOM     26  N   UNL     1      12.430 -19.913   8.631  1.00  0.00    -0.337 N 
ATOM     27  C   UNL     1      12.206 -19.458   9.986  1.00  0.00     0.332 C 
ATOM     28  C   UNL     1      13.088 -21.200   8.717  1.00  0.00     0.332 C 
ATOM     29  H   UNL     1      11.468 -20.113   8.225  1.00  0.00     0.347 HD
ENDBRANCH  25  26
ENDBRANCH  24  25
ENDBRANCH   1  24
TORSDOF 8
ENDMDL
MODEL 7
REMARK VINA RESULT:      -4.9      4.164      9.572
REMARK SMILES CC/C(=C(\c1ccccc1)c1ccc(OCC[NH+](C)C)cc1)c1ccccc1
REMARK SMILES IDX 15 1 14 2 11 3 12 4 22 5 13 6 21 7 4 8 3 9 2 10 1 11 23 12
REMARK SMILES IDX 24 13 28 14 25 15 27 16 26 17 5 18 6 19 10 20 7 21 9 22 8 23
REMARK SMILES IDX 16 24 17 25 18 26 19 27 20 28
REMARK H PARENT 18 29
ROOT
ATOM      1  O   UNL     1      15.156 -20.513   5.618  1.00  0.00    -0.488 OA
ENDROOT
BRANCH   1   2
ATOM      2  C   UNL     1      14.665 -19.589   6.522  1.00  0.00     0.119 A 
ATOM      3  C   UNL     1      13.545 -17.699   8.348  1.00  0.00    -0.017 A 
ATOM      4  C   UNL     1      14.886 -18.031   8.375  1.00  0.00     0.012 A 
ATOM      5  C   UNL     1      12.780 -18.340   7.379  1.00  0.00     0.012 A 
ATOM      6  C   UNL     1      15.414 -18.950   7.482  1.00  0.00     0.047 A 
ATOM      7  C   UNL     1      13.305 -19.249   6.498  1.00  0.00     0.047 A 
BRANCH   3   8
ATOM      8  C   UNL     1      12.969 -16.722   9.255  1.00  0.00    -0.007 C 
ATOM      9  C   UNL     1      12.291 -17.062  10.321  1.00  0.00    -0.033 C 
BRANCH   9  10
ATOM     10  C   UNL     1      11.639 -16.104  11.257  1.00  0.00     0.033 C 
ATOM     11  C   UNL     1      10.211 -15.913  10.839  1.00  0.00     0.009 C 
ENDBRANCH   9  10
BRANCH   9  12
ATOM     12  C   UNL     1      12.174 -18.473  10.729  1.00  0.00    -0.022 A 
ATOM     13  C   UNL     1      11.119 -19.257  10.338  1.00  0.00     0.008 A 
ATOM     14  C   UNL     1      13.146 -18.996  11.526  1.00  0.00     0.008 A 
ATOM     15  C   UNL     1      11.051 -20.563  10.753  1.00  0.00     0.001 A 
ATOM     16  C   UNL     1      13.116 -20.320  11.973  1.00  0.00     0.001 A 
ATOM     17  C   UNL     1      12.046 -21.083  11.564  1.00  0.00     0.000 A 
ENDBRANCH   9  12
BRANCH   8  18
ATOM     18  C   UNL     1      13.128 -15.319   8.930  1.00  0.00    -0.018 A 
ATOM     19  C   UNL     1      14.097 -14.532   9.518  1.00  0.00     0.009 A 
ATOM     20  C   UNL     1      12.250 -14.720   8.032  1.00  0.00     0.009 A 
ATOM     21  C   UNL     1      14.163 -13.199   9.202  1.00  0.00     0.001 A 
ATOM     22  C   UNL     1      12.302 -13.386   7.702  1.00  0.00     0.001 A 
ATOM     23  C   UNL     1      13.289 -12.613   8.308  1.00  0.00     0.000 A 
ENDBRANCH   8  18
ENDBRANCH   3   8
ENDBRANCH   1   2
BRANCH   1  24
ATOM     24  C   UNL     1      14.720 -21.805   5.378  1.00  0.00     0.290 C 
BRANCH  24  25
ATOM     25  C   UNL     1      15.785 -22.869   5.400  1.00  0.00     0.303 C 
BRANCH  25  26
ATOM     26  N   UNL     1      15.991 -23.426   6.702  1.00  0.00    -0.337 N 
ATOM     27  C   UNL     1      14.854 -23.266   7.583  1.00  0.00     0.332 C 
ATOM     28  C   UNL     1      17.139 -22.861   7.382  1.00  0.00     0.332 C 
ATOM     29  H   UNL     1      16.179 -24.472   6.651  1.00  0.00     0.347 HD
ENDBRANCH  25  26
ENDBRANCH  24  25
ENDBRANCH   1  24
TORSDOF 8
ENDMDL
MODEL 8
REMARK VINA RESULT:      -4.9      0.966      4.608
REMARK SMILES CC/C(=C(\c1ccccc1)c1ccc(OCC[NH+](C)C)cc1)c1ccccc1
REMARK SMILES IDX 15 1 14 2 11 3 12 4 22 5 13 6 21 7 4 8 3 9 2 10 1 11 23 12
REMARK SMILES IDX 24 13 28 14 25 15 27 16 26 17 5 18 6 19 10 20 7 21 9 22 8 23
REMARK SMILES IDX 16 24 17 25 18 26 19 27 20 28
REMARK H PARENT 18 29
ROOT
ATOM      1  O   UNL     1      14.170 -21.989   8.630  1.00  0.00    -0.488 OA
ENDROOT
BRANCH   1   2
ATOM      2  C   UNL     1      15.284 -22.565   8.047  1.00  0.00     0.119 A 
ATOM      3  C   UNL     1      17.581 -23.671   6.759  1.00  0.00    -0.017 A 
ATOM      4  C   UNL     1      17.108 -24.168   7.957  1.00  0.00     0.012 A 
ATOM      5  C   UNL     1      16.868 -22.603   6.221  1.00  0.00     0.012 A 
ATOM      6  C   UNL     1      15.992 -23.621   8.570  1.00  0.00     0.047 A 
ATOM      7  C   UNL     1      15.766 -22.063   6.829  1.00  0.00     0.047 A 
BRANCH   3   8
ATOM      8  C   UNL     1      18.732 -24.240   6.082  1.00  0.00    -0.007 C 
ATOM      9  C   UNL     1      19.954 -23.821   6.292  1.00  0.00    -0.033 C 
BRANCH   9  10
ATOM     10  C   UNL     1      21.163 -24.335   5.592  1.00  0.00     0.033 C 
ATOM     11  C   UNL     1      21.512 -23.397   4.474  1.00  0.00     0.009 C 
ENDBRANCH   9  10
BRANCH   9  12
ATOM     12  C   UNL     1      20.243 -22.813   7.328  1.00  0.00    -0.022 A 
ATOM     13  C   UNL     1      20.544 -23.163   8.619  1.00  0.00     0.008 A 
ATOM     14  C   UNL     1      20.195 -21.498   6.977  1.00  0.00     0.008 A 
ATOM     15  C   UNL     1      20.795 -22.186   9.548  1.00  0.00     0.001 A 
ATOM     16  C   UNL     1      20.444 -20.470   7.891  1.00  0.00     0.001 A 
ATOM     17  C   UNL     1      20.744 -20.852   9.179  1.00  0.00     0.000 A 
ENDBRANCH   9  12
BRANCH   8  18
ATOM     18  C   UNL     1      18.498 -25.288   5.109  1.00  0.00    -0.018 A 
ATOM     19  C   UNL     1      18.172 -25.016   3.796  1.00  0.00     0.009 A 
ATOM     20  C   UNL     1      18.552 -26.619   5.511  1.00  0.00     0.009 A 
ATOM     21  C   UNL     1      17.916 -26.055   2.938  1.00  0.00     0.001 A 
ATOM     22  C   UNL     1      18.299 -27.674   4.665  1.00  0.00     0.001 A 
ATOM     23  C   UNL     1      17.973 -27.374   3.345  1.00  0.00     0.000 A 
ENDBRANCH   8  18
ENDBRANCH   3   8
ENDBRANCH   1   2
BRANCH   1  24
ATOM     24  C   UNL     1      13.061 -21.433   8.016  1.00  0.00     0.290 C 
BRANCH  24  25
ATOM     25  C   UNL     1      12.741 -20.013   8.405  1.00  0.00     0.303 C 
BRANCH  25  26
ATOM     26  N   UNL     1      13.186 -19.056   7.438  1.00  0.00    -0.337 N 
ATOM     27  C   UNL     1      13.137 -19.547   6.078  1.00  0.00     0.332 C 
ATOM     28  C   UNL     1      14.541 -18.602   7.678  1.00  0.00     0.332 C 
ATOM     29  H   UNL     1      12.586 -18.179   7.457  1.00  0.00     0.347 HD
ENDBRANCH  25  26
ENDBRANCH  24  25
ENDBRANCH   1  24
TORSDOF 8
ENDMDL
MODEL 9
REMARK VINA RESULT:      -4.9      0.606      1.142
REMARK SMILES CC/C(=C(\c1ccccc1)c1ccc(OCC[NH+](C)C)cc1)c1ccccc1
REMARK SMILES IDX 15 1 14 2 11 3 12 4 22 5 13 6 21 7 4 8 3 9 2 10 1 11 23 12
REMARK SMILES IDX 24 13 28 14 25 15 27 16 26 17 5 18 6 19 10 20 7 21 9 22 8 23
REMARK SMILES IDX 16 24 17 25 18 26 19 27 20 28
REMARK H PARENT 18 29
ROOT
ATOM      1  O   UNL     1      13.850 -22.933   6.750  1.00  0.00    -0.488 OA
ENDROOT
BRANCH   1   2
ATOM      2  C   UNL     1      15.221 -23.033   6.599  1.00  0.00     0.119 A 
ATOM      3  C   UNL     1      18.057 -23.301   6.388  1.00  0.00    -0.017 A 
ATOM      4  C   UNL     1      17.308 -22.698   5.397  1.00  0.00     0.012 A 
ATOM      5  C   UNL     1      17.346 -23.765   7.490  1.00  0.00     0.012 A 
ATOM      6  C   UNL     1      15.932 -22.575   5.515  1.00  0.00     0.047 A 
ATOM      7  C   UNL     1      15.987 -23.644   7.604  1.00  0.00     0.047 A 
BRANCH   3   8
ATOM      8  C   UNL     1      19.502 -23.421   6.304  1.00  0.00    -0.007 C 
ATOM      9  C   UNL     1      20.095 -24.258   5.492  1.00  0.00    -0.033 C 
BRANCH   9  10
ATOM     10  C   UNL     1      21.567 -24.456   5.399  1.00  0.00     0.033 C 
ATOM     11  C   UNL     1      21.932 -25.730   6.104  1.00  0.00     0.009 C 
ENDBRANCH   9  10
BRANCH   9  12
ATOM     12  C   UNL     1      19.320 -25.054   4.523  1.00  0.00    -0.022 A 
ATOM     13  C   UNL     1      18.588 -26.149   4.901  1.00  0.00     0.008 A 
ATOM     14  C   UNL     1      19.352 -24.681   3.213  1.00  0.00     0.008 A 
ATOM     15  C   UNL     1      17.892 -26.862   3.958  1.00  0.00     0.001 A 
ATOM     16  C   UNL     1      18.658 -25.378   2.219  1.00  0.00     0.001 A 
ATOM     17  C   UNL     1      17.932 -26.472   2.629  1.00  0.00     0.000 A 
ENDBRANCH   9  12
BRANCH   8  18
ATOM     18  C   UNL     1      20.304 -22.600   7.188  1.00  0.00    -0.018 A 
ATOM     19  C   UNL     1      20.715 -23.038   8.431  1.00  0.00     0.009 A 
ATOM     20  C   UNL     1      20.637 -21.304   6.804  1.00  0.00     0.009 A 
ATOM     21  C   UNL     1      21.431 -22.192   9.238  1.00  0.00     0.001 A 
ATOM     22  C   UNL     1      21.356 -20.443   7.600  1.00  0.00     0.001 A 
ATOM     23  C   UNL     1      21.759 -20.909   8.848  1.00  0.00     0.000 A 
ENDBRANCH   8  18
ENDBRANCH   3   8
ENDBRANCH   1   2
BRANCH   1  24
ATOM     24  C   UNL     1      13.117 -21.930   7.360  1.00  0.00     0.290 C 
BRANCH  24  25
ATOM     25  C   UNL     1      13.917 -20.781   7.917  1.00  0.00     0.303 C 
BRANCH  25  26
ATOM     26  N   UNL     1      13.832 -19.601   7.111  1.00  0.00    -0.337 N 
ATOM     27  C   UNL     1      15.097 -19.211   6.526  1.00  0.00     0.332 C 
ATOM     28  C   UNL     1      13.330 -18.455   7.842  1.00  0.00     0.332 C 
ATOM     29  H   UNL     1      13.160 -19.734   6.298  1.00  0.00     0.347 HD
ENDBRANCH  25  26
ENDBRANCH  24  25
ENDBRANCH   1  24
TORSDOF 8
ENDMDL
