MODEL 1
REMARK VINA RESULT:      -5.6      0.000      0.000
REMARK SMILES O=C(Nc1ccc(Cl)nc1)c1ccc(F)cc1
REMARK SMILES IDX 2 1 3 2 1 3 11 5 12 6 17 7 13 8 16 9 14 10 15 11 4 12 5 13
REMARK SMILES IDX 10 14 6 15 9 16 7 17 8 18
REMARK H PARENT 3 4
REMARK INDEX MAP 6 1 14 2 16 3 25 4 1 5 7 6 8 7 10 8 11 9 2 10 13 11 5 12 9 13
REMARK INDEX MAP 12 14 3 15 15 16 4 17 17 18
ROOT
ATOM      1  C   UNL     1      92.704 134.244 108.710  1.00  0.00     0.255 C 
ATOM      2  N   UNL     1      93.962 133.625 109.102  1.00  0.00    -0.321 N 
ATOM      3  O   UNL     1      92.108 134.959 109.436  1.00  0.00    -0.269 OA
ATOM      4  H   UNL     1      94.413 133.030 108.459  1.00  0.00     0.170 HD
ENDROOT
BRANCH   1   5
ATOM      5  C   UNL     1      92.155 133.944 107.310  1.00  0.00     0.040 A 
ATOM      6  C   UNL     1      91.604 132.568 106.974  1.00  0.00     0.017 A 
ATOM      7  C   UNL     1      92.150 134.887 106.401  1.00  0.00     0.017 A 
ATOM      8  C   UNL     1      91.133 132.320 105.770  1.00  0.00     0.040 A 
ATOM      9  C   UNL     1      91.604 134.600 105.007  1.00  0.00     0.040 A 
ATOM     10  C   UNL     1      91.135 133.413 104.713  1.00  0.00     0.123 A 
ATOM     11  F   UNL     1      90.648 133.159 103.465  1.00  0.00    -0.207 F 
ENDBRANCH   1   5
BRANCH   2  12
ATOM     12  C   UNL     1      94.586 133.843 110.399  1.00  0.00     0.060 A 
ATOM     13  C   UNL     1      95.487 134.737 110.493  1.00  0.00     0.031 A 
ATOM     14  C   UNL     1      94.187 133.044 111.625  1.00  0.00     0.138 A 
ATOM     15  C   UNL     1      96.152 135.002 111.801  1.00  0.00     0.043 A 
ATOM     16  N   UNL     1      94.760 133.272 112.750  1.00  0.00    -0.242 NA
ATOM     17  C   UNL     1      95.808 134.312 112.858  1.00  0.00     0.129 A 
ATOM     18  Cl  UNL     1      96.616 134.641 114.417  1.00  0.00    -0.062 Cl
ENDBRANCH   2  12
TORSDOF 2
ENDMDL
MODEL 2
REMARK VINA RESULT:      -5.5      0.734      1.679
REMARK SMILES O=C(Nc1ccc(Cl)nc1)c1ccc(F)cc1
REMARK SMILES IDX 2 1 3 2 1 3 11 5 12 6 17 7 13 8 16 9 14 10 15 11 4 12 5 13
REMARK SMILES IDX 10 14 6 15 9 16 7 17 8 18
REMARK H PARENT 3 4
REMARK INDEX MAP 6 1 14 2 16 3 25 4 1 5 7 6 8 7 10 8 11 9 2 10 13 11 5 12 9 13
REMARK INDEX MAP 12 14 3 15 15 16 4 17 17 18
ROOT
ATOM      1  C   UNL     1      92.633 134.363 108.581  1.00  0.00     0.255 C 
ATOM      2  N   UNL     1      93.703 133.539 109.127  1.00  0.00    -0.321 N 
ATOM      3  O   UNL     1      92.226 135.314 109.150  1.00  0.00    -0.269 OA
ATOM      4  H   UNL     1      93.998 132.753 108.614  1.00  0.00     0.170 HD
ENDROOT
BRANCH   1   5
ATOM      5  C   UNL     1      92.033 133.965 107.227  1.00  0.00     0.040 A 
ATOM      6  C   UNL     1      91.807 135.007 106.145  1.00  0.00     0.017 A 
ATOM      7  C   UNL     1      91.724 132.713 107.000  1.00  0.00     0.017 A 
ATOM      8  C   UNL     1      91.293 134.656 104.985  1.00  0.00     0.040 A 
ATOM      9  C   UNL     1      91.129 132.306 105.657  1.00  0.00     0.040 A 
ATOM     10  C   UNL     1      90.928 133.203 104.724  1.00  0.00     0.123 A 
ATOM     11  F   UNL     1      90.394 132.836 103.525  1.00  0.00    -0.207 F 
ENDBRANCH   1   5
BRANCH   2  12
ATOM     12  C   UNL     1      94.356 133.823 110.398  1.00  0.00     0.060 A 
ATOM     13  C   UNL     1      93.855 133.327 111.458  1.00  0.00     0.031 A 
ATOM     14  C   UNL     1      95.605 134.679 110.483  1.00  0.00     0.138 A 
ATOM     15  C   UNL     1      94.489 133.584 112.782  1.00  0.00     0.043 A 
ATOM     16  N   UNL     1      96.150 134.900 111.623  1.00  0.00    -0.242 NA
ATOM     17  C   UNL     1      95.567 134.323 112.856  1.00  0.00     0.129 A 
ATOM     18  Cl  UNL     1      96.313 134.622 114.451  1.00  0.00    -0.062 Cl
ENDBRANCH   2  12
TORSDOF 2
ENDMDL
MODEL 3
REMARK VINA RESULT:      -5.4      0.799      1.208
REMARK SMILES O=C(Nc1ccc(Cl)nc1)c1ccc(F)cc1
REMARK SMILES IDX 2 1 3 2 1 3 11 5 12 6 17 7 13 8 16 9 14 10 15 11 4 12 5 13
REMARK SMILES IDX 10 14 6 15 9 16 7 17 8 18
REMARK H PARENT 3 4
REMARK INDEX MAP 6 1 14 2 16 3 25 4 1 5 7 6 8 7 10 8 11 9 2 10 13 11 5 12 9 13
REMARK INDEX MAP 12 14 3 15 15 16 4 17 17 18
ROOT
ATOM      1  C   UNL     1      93.089 134.455 108.505  1.00  0.00     0.255 C 
ATOM      2  N   UNL     1      93.752 133.440 109.313  1.00  0.00    -0.321 N 
ATOM      3  O   UNL     1      93.063 135.590 108.829  1.00  0.00    -0.269 OA
ATOM      4  H   UNL     1      93.737 132.507 109.000  1.00  0.00     0.170 HD
ENDROOT
BRANCH   1   5
ATOM      5  C   UNL     1      92.412 134.014 107.203  1.00  0.00     0.040 A 
ATOM      6  C   UNL     1      91.726 132.662 107.107  1.00  0.00     0.017 A 
ATOM      7  C   UNL     1      92.415 134.817 106.168  1.00  0.00     0.017 A 
ATOM      8  C   UNL     1      91.144 132.292 105.985  1.00  0.00     0.040 A 
ATOM      9  C   UNL     1      91.742 134.389 104.869  1.00  0.00     0.040 A 
ATOM     10  C   UNL     1      91.155 133.221 104.782  1.00  0.00     0.123 A 
ATOM     11  F   UNL     1      90.555 132.842 103.618  1.00  0.00    -0.207 F 
ENDBRANCH   1   5
BRANCH   2  12
ATOM     12  C   UNL     1      94.437 133.741 110.563  1.00  0.00     0.060 A 
ATOM     13  C   UNL     1      93.829 133.503 111.656  1.00  0.00     0.031 A 
ATOM     14  C   UNL     1      95.841 134.316 110.590  1.00  0.00     0.138 A 
ATOM     15  C   UNL     1      94.489 133.788 112.962  1.00  0.00     0.043 A 
ATOM     16  N   UNL     1      96.407 134.560 111.714  1.00  0.00    -0.242 NA
ATOM     17  C   UNL     1      95.700 134.285 112.985  1.00  0.00     0.129 A 
ATOM     18  Cl  UNL     1      96.476 134.621 114.558  1.00  0.00    -0.062 Cl
ENDBRANCH   2  12
TORSDOF 2
ENDMDL
MODEL 4
REMARK VINA RESULT:      -5.2      0.744      1.396
REMARK SMILES O=C(Nc1ccc(Cl)nc1)c1ccc(F)cc1
REMARK SMILES IDX 2 1 3 2 1 3 11 5 12 6 17 7 13 8 16 9 14 10 15 11 4 12 5 13
REMARK SMILES IDX 10 14 6 15 9 16 7 17 8 18
REMARK H PARENT 3 4
REMARK INDEX MAP 6 1 14 2 16 3 25 4 1 5 7 6 8 7 10 8 11 9 2 10 13 11 5 12 9 13
REMARK INDEX MAP 12 14 3 15 15 16 4 17 17 18
ROOT
ATOM      1  C   UNL     1      92.835 134.342 108.182  1.00  0.00     0.255 C 
ATOM      2  N   UNL     1      93.544 133.330 108.952  1.00  0.00    -0.321 N 
ATOM      3  O   UNL     1      92.810 135.475 108.514  1.00  0.00    -0.269 OA
ATOM      4  H   UNL     1      93.526 132.399 108.633  1.00  0.00     0.170 HD
ENDROOT
BRANCH   1   5
ATOM      5  C   UNL     1      92.107 133.902 106.907  1.00  0.00     0.040 A 
ATOM      6  C   UNL     1      91.924 134.868 105.748  1.00  0.00     0.017 A 
ATOM      7  C   UNL     1      91.649 132.678 106.813  1.00  0.00     0.017 A 
ATOM      8  C   UNL     1      91.300 134.481 104.655  1.00  0.00     0.040 A 
ATOM      9  C   UNL     1      90.926 132.230 105.548  1.00  0.00     0.040 A 
ATOM     10  C   UNL     1      90.762 133.063 104.550  1.00  0.00     0.123 A 
ATOM     11  F   UNL     1      90.114 132.658 103.421  1.00  0.00    -0.207 F 
ENDBRANCH   1   5
BRANCH   2  12
ATOM     12  C   UNL     1      94.279 133.630 110.174  1.00  0.00     0.060 A 
ATOM     13  C   UNL     1      95.550 133.666 110.119  1.00  0.00     0.031 A 
ATOM     14  C   UNL     1      93.573 133.901 111.488  1.00  0.00     0.138 A 
ATOM     15  C   UNL     1      96.348 133.974 111.341  1.00  0.00     0.043 A 
ATOM     16  N   UNL     1      94.260 134.165 112.538  1.00  0.00    -0.242 NA
ATOM     17  C   UNL     1      95.738 134.208 112.475  1.00  0.00     0.129 A 
ATOM     18  Cl  UNL     1      96.709 134.573 113.929  1.00  0.00    -0.062 Cl
ENDBRANCH   2  12
TORSDOF 2
ENDMDL
MODEL 5
REMARK VINA RESULT:      -5.1      1.068      1.098
REMARK SMILES O=C(Nc1ccc(Cl)nc1)c1ccc(F)cc1
REMARK SMILES IDX 2 1 3 2 1 3 11 5 12 6 17 7 13 8 16 9 14 10 15 11 4 12 5 13
REMARK SMILES IDX 10 14 6 15 9 16 7 17 8 18
REMARK H PARENT 3 4
REMARK INDEX MAP 6 1 14 2 16 3 25 4 1 5 7 6 8 7 10 8 11 9 2 10 13 11 5 12 9 13
REMARK INDEX MAP 12 14 3 15 15 16 4 17 17 18
ROOT
ATOM      1  C   UNL     1      93.178 134.398 107.806  1.00  0.00     0.255 C 
ATOM      2  N   UNL     1      93.317 133.475 108.924  1.00  0.00    -0.321 N 
ATOM      3  O   UNL     1      93.705 135.455 107.800  1.00  0.00    -0.269 OA
ATOM      4  H   UNL     1      92.849 132.610 108.880  1.00  0.00     0.170 HD
ENDROOT
BRANCH   1   5
ATOM      5  C   UNL     1      92.317 133.965 106.614  1.00  0.00     0.040 A 
ATOM      6  C   UNL     1      91.614 132.619 106.616  1.00  0.00     0.017 A 
ATOM      7  C   UNL     1      92.178 134.771 105.590  1.00  0.00     0.017 A 
ATOM      8  C   UNL     1      90.875 132.256 105.588  1.00  0.00     0.040 A 
ATOM      9  C   UNL     1      91.323 134.351 104.401  1.00  0.00     0.040 A 
ATOM     10  C   UNL     1      90.720 133.188 104.397  1.00  0.00     0.123 A 
ATOM     11  F   UNL     1      89.957 132.816 103.331  1.00  0.00    -0.207 F 
ENDBRANCH   1   5
BRANCH   2  12
ATOM     12  C   UNL     1      94.115 133.772 110.106  1.00  0.00     0.060 A 
ATOM     13  C   UNL     1      95.323 133.370 110.134  1.00  0.00     0.031 A 
ATOM     14  C   UNL     1      93.549 134.542 111.284  1.00  0.00     0.138 A 
ATOM     15  C   UNL     1      96.183 133.652 111.318  1.00  0.00     0.043 A 
ATOM     16  N   UNL     1      94.290 134.784 112.302  1.00  0.00    -0.242 NA
ATOM     17  C   UNL     1      95.695 134.317 112.335  1.00  0.00     0.129 A 
ATOM     18  Cl  UNL     1      96.738 134.645 113.746  1.00  0.00    -0.062 Cl
ENDBRANCH   2  12
TORSDOF 2
ENDMDL
MODEL 6
REMARK VINA RESULT:      -5.1      1.133      1.687
REMARK SMILES O=C(Nc1ccc(Cl)nc1)c1ccc(F)cc1
REMARK SMILES IDX 2 1 3 2 1 3 11 5 12 6 17 7 13 8 16 9 14 10 15 11 4 12 5 13
REMARK SMILES IDX 10 14 6 15 9 16 7 17 8 18
REMARK H PARENT 3 4
REMARK INDEX MAP 6 1 14 2 16 3 25 4 1 5 7 6 8 7 10 8 11 9 2 10 13 11 5 12 9 13
REMARK INDEX MAP 12 14 3 15 15 16 4 17 17 18
ROOT
ATOM      1  C   UNL     1      93.440 134.185 108.237  1.00  0.00     0.255 C 
ATOM      2  N   UNL     1      93.065 133.636 109.534  1.00  0.00    -0.321 N 
ATOM      3  O   UNL     1      94.368 134.902 108.109  1.00  0.00    -0.269 OA
ATOM      4  H   UNL     1      92.276 133.049 109.585  1.00  0.00     0.170 HD
ENDROOT
BRANCH   1   5
ATOM      5  C   UNL     1      92.589 133.808 107.019  1.00  0.00     0.040 A 
ATOM      6  C   UNL     1      92.602 134.671 105.769  1.00  0.00     0.017 A 
ATOM      7  C   UNL     1      91.854 132.723 107.054  1.00  0.00     0.017 A 
ATOM      8  C   UNL     1      91.869 134.339 104.727  1.00  0.00     0.040 A 
ATOM      9  C   UNL     1      91.007 132.339 105.847  1.00  0.00     0.040 A 
ATOM     10  C   UNL     1      91.011 133.085 104.771  1.00  0.00     0.123 A 
ATOM     11  F   UNL     1      90.251 132.738 103.694  1.00  0.00    -0.207 F 
ENDBRANCH   1   5
BRANCH   2  12
ATOM     12  C   UNL     1      93.802 133.915 110.758  1.00  0.00     0.060 A 
ATOM     13  C   UNL     1      93.355 134.815 111.540  1.00  0.00     0.031 A 
ATOM     14  C   UNL     1      95.068 133.163 111.121  1.00  0.00     0.138 A 
ATOM     15  C   UNL     1      94.070 135.134 112.808  1.00  0.00     0.043 A 
ATOM     16  N   UNL     1      95.683 133.438 112.213  1.00  0.00    -0.242 NA
ATOM     17  C   UNL     1      95.163 134.486 113.121  1.00  0.00     0.129 A 
ATOM     18  Cl  UNL     1      96.008 134.881 114.644  1.00  0.00    -0.062 Cl
ENDBRANCH   2  12
TORSDOF 2
ENDMDL
MODEL 7
REMARK VINA RESULT:      -5.0      4.504      7.368
REMARK SMILES O=C(Nc1ccc(Cl)nc1)c1ccc(F)cc1
REMARK SMILES IDX 2 1 3 2 1 3 11 5 12 6 17 7 13 8 16 9 14 10 15 11 4 12 5 13
REMARK SMILES IDX 10 14 6 15 9 16 7 17 8 18
REMARK H PARENT 3 4
REMARK INDEX MAP 6 1 14 2 16 3 25 4 1 5 7 6 8 7 10 8 11 9 2 10 13 11 5 12 9 13
REMARK INDEX MAP 12 14 3 15 15 16 4 17 17 18
ROOT
ATOM      1  C   UNL     1      93.018 134.443 109.789  1.00  0.00     0.255 C 
ATOM      2  N   UNL     1      93.398 133.645 108.632  1.00  0.00    -0.321 N 
ATOM      3  O   UNL     1      92.046 135.114 109.792  1.00  0.00    -0.269 OA
ATOM      4  H   UNL     1      94.223 133.110 108.681  1.00  0.00     0.170 HD
ENDROOT
BRANCH   1   5
ATOM      5  C   UNL     1      93.920 134.397 111.028  1.00  0.00     0.040 A 
ATOM      6  C   UNL     1      93.381 133.908 112.361  1.00  0.00     0.017 A 
ATOM      7  C   UNL     1      95.172 134.774 110.930  1.00  0.00     0.017 A 
ATOM      8  C   UNL     1      94.164 133.870 113.419  1.00  0.00     0.040 A 
ATOM      9  C   UNL     1      96.078 134.730 112.155  1.00  0.00     0.040 A 
ATOM     10  C   UNL     1      95.614 134.314 113.306  1.00  0.00     0.123 A 
ATOM     11  F   UNL     1      96.427 134.277 114.400  1.00  0.00    -0.207 F 
ENDBRANCH   1   5
BRANCH   2  12
ATOM     12  C   UNL     1      92.615 133.600 107.405  1.00  0.00     0.060 A 
ATOM     13  C   UNL     1      91.935 132.552 107.161  1.00  0.00     0.031 A 
ATOM     14  C   UNL     1      92.589 134.760 106.428  1.00  0.00     0.138 A 
ATOM     15  C   UNL     1      91.114 132.459 105.920  1.00  0.00     0.043 A 
ATOM     16  N   UNL     1      91.882 134.679 105.361  1.00  0.00    -0.242 NA
ATOM     17  C   UNL     1      91.091 133.460 105.077  1.00  0.00     0.129 A 
ATOM     18  Cl  UNL     1      90.102 133.332 103.596  1.00  0.00    -0.062 Cl
ENDBRANCH   2  12
TORSDOF 2
ENDMDL
MODEL 8
REMARK VINA RESULT:      -4.9      1.566      2.251
REMARK SMILES O=C(Nc1ccc(Cl)nc1)c1ccc(F)cc1
REMARK SMILES IDX 2 1 3 2 1 3 11 5 12 6 17 7 13 8 16 9 14 10 15 11 4 12 5 13
REMARK SMILES IDX 10 14 6 15 9 16 7 17 8 18
REMARK H PARENT 3 4
REMARK INDEX MAP 6 1 14 2 16 3 25 4 1 5 7 6 8 7 10 8 11 9 2 10 13 11 5 12 9 13
REMARK INDEX MAP 12 14 3 15 15 16 4 17 17 18
ROOT
ATOM      1  C   UNL     1      92.821 134.466 107.006  1.00  0.00     0.255 C 
ATOM      2  N   UNL     1      92.533 133.885 108.310  1.00  0.00    -0.321 N 
ATOM      3  O   UNL     1      93.795 135.103 106.809  1.00  0.00    -0.269 OA
ATOM      4  H   UNL     1      91.702 133.369 108.421  1.00  0.00     0.170 HD
ENDROOT
BRANCH   1   5
ATOM      5  C   UNL     1      91.817 134.232 105.872  1.00  0.00     0.040 A 
ATOM      6  C   UNL     1      91.230 135.404 105.104  1.00  0.00     0.017 A 
ATOM      7  C   UNL     1      91.471 133.008 105.556  1.00  0.00     0.017 A 
ATOM      8  C   UNL     1      90.369 135.195 104.130  1.00  0.00     0.040 A 
ATOM      9  C   UNL     1      90.475 132.765 104.428  1.00  0.00     0.040 A 
ATOM     10  C   UNL     1      89.963 133.775 103.769  1.00  0.00     0.123 A 
ATOM     11  F   UNL     1      89.072 133.553 102.762  1.00  0.00    -0.207 F 
ENDBRANCH   1   5
BRANCH   2  12
ATOM     12  C   UNL     1      93.416 134.031 109.459  1.00  0.00     0.060 A 
ATOM     13  C   UNL     1      94.252 133.101 109.699  1.00  0.00     0.031 A 
ATOM     14  C   UNL     1      93.367 135.251 110.358  1.00  0.00     0.138 A 
ATOM     15  C   UNL     1      95.181 133.205 110.860  1.00  0.00     0.043 A 
ATOM     16  N   UNL     1      94.167 135.340 111.357  1.00  0.00    -0.242 NA
ATOM     17  C   UNL     1      95.139 134.258 111.636  1.00  0.00     0.129 A 
ATOM     18  Cl  UNL     1      96.258 134.367 113.023  1.00  0.00    -0.062 Cl
ENDBRANCH   2  12
TORSDOF 2
ENDMDL
MODEL 9
REMARK VINA RESULT:      -4.9      1.325      1.792
REMARK SMILES O=C(Nc1ccc(Cl)nc1)c1ccc(F)cc1
REMARK SMILES IDX 2 1 3 2 1 3 11 5 12 6 17 7 13 8 16 9 14 10 15 11 4 12 5 13
REMARK SMILES IDX 10 14 6 15 9 16 7 17 8 18
REMARK H PARENT 3 4
REMARK INDEX MAP 6 1 14 2 16 3 25 4 1 5 7 6 8 7 10 8 11 9 2 10 13 11 5 12 9 13
REMARK INDEX MAP 12 14 3 15 15 16 4 17 17 18
ROOT
ATOM      1  C   UNL     1      92.631 133.589 107.819  1.00  0.00     0.255 C 
ATOM      2  N   UNL     1      93.048 134.766 108.568  1.00  0.00    -0.321 N 
ATOM      3  O   UNL     1      92.873 132.495 108.191  1.00  0.00    -0.269 OA
ATOM      4  H   UNL     1      92.826 135.655 108.207  1.00  0.00     0.170 HD
ENDROOT
BRANCH   1   5
ATOM      5  C   UNL     1      91.858 133.800 106.512  1.00  0.00     0.040 A 
ATOM      6  C   UNL     1      91.461 135.196 106.064  1.00  0.00     0.017 A 
ATOM      7  C   UNL     1      91.548 132.765 105.770  1.00  0.00     0.017 A 
ATOM      8  C   UNL     1      90.799 135.368 104.939  1.00  0.00     0.040 A 
ATOM      9  C   UNL     1      90.782 132.964 104.467  1.00  0.00     0.040 A 
ATOM     10  C   UNL     1      90.434 134.167 104.082  1.00  0.00     0.123 A 
ATOM     11  F   UNL     1      89.747 134.340 102.917  1.00  0.00    -0.207 F 
ENDBRANCH   1   5
BRANCH   2  12
ATOM     12  C   UNL     1      93.778 134.692 109.826  1.00  0.00     0.060 A 
ATOM     13  C   UNL     1      95.050 134.741 109.789  1.00  0.00     0.031 A 
ATOM     14  C   UNL     1      93.067 134.564 111.160  1.00  0.00     0.138 A 
ATOM     15  C   UNL     1      95.842 134.673 111.050  1.00  0.00     0.043 A 
ATOM     16  N   UNL     1      93.750 134.506 112.243  1.00  0.00    -0.242 NA
ATOM     17  C   UNL     1      95.229 134.563 112.201  1.00  0.00     0.129 A 
ATOM     18  Cl  UNL     1      96.193 134.482 113.701  1.00  0.00    -0.062 Cl
ENDBRANCH   2  12
TORSDOF 2
ENDMDL
