MODEL 1
REMARK VINA RESULT:      -6.6      0.000      0.000
REMARK SMILES O=c1cc(-c2ccccc2)oc2cc(O)cc(O)c12
REMARK SMILES IDX 1 1 2 2 3 3 4 4 11 5 12 6 13 7 14 8 16 9 17 10 19 11 5 12
REMARK SMILES IDX 6 13 10 14 7 15 9 16 8 17 18 18 15 20
REMARK H PARENT 18 19 15 21
ROOT
ATOM      1  O   UNL     1      11.701  -8.860   9.695  1.00  0.00    -0.289 OA
ATOM      2  C   UNL     1      10.730  -8.671  10.471  1.00  0.00     0.197 A 
ATOM      3  C   UNL     1       9.397  -8.711  10.038  1.00  0.00     0.100 A 
ATOM      4  C   UNL     1       8.352  -8.501  10.905  1.00  0.00     0.138 A 
ATOM      5  O   UNL     1       8.664  -8.261  12.156  1.00  0.00    -0.456 OA
ATOM      6  C   UNL     1       9.888  -8.211  12.620  1.00  0.00     0.146 A 
ATOM      7  C   UNL     1      10.154  -7.952  13.960  1.00  0.00     0.094 A 
ATOM      8  C   UNL     1      11.424  -7.893  14.480  1.00  0.00     0.123 A 
ATOM      9  C   UNL     1      12.499  -8.097  13.645  1.00  0.00     0.093 A 
ATOM     10  C   UNL     1      12.278  -8.357  12.310  1.00  0.00     0.134 A 
ATOM     11  C   UNL     1      10.976  -8.413  11.799  1.00  0.00     0.107 A 
ENDROOT
BRANCH   4  12
ATOM     12  C   UNL     1       6.956  -8.540  10.461  1.00  0.00     0.017 A 
ATOM     13  C   UNL     1       6.246  -7.438  10.063  1.00  0.00     0.012 A 
ATOM     14  C   UNL     1       6.293  -9.754  10.433  1.00  0.00     0.012 A 
ATOM     15  C   UNL     1       4.916  -7.524   9.646  1.00  0.00     0.001 A 
ATOM     16  C   UNL     1       4.973  -9.872  10.025  1.00  0.00     0.001 A 
ATOM     17  C   UNL     1       4.271  -8.743   9.625  1.00  0.00     0.000 A 
ENDBRANCH   4  12
BRANCH  10  18
ATOM     18  O   UNL     1      13.353  -8.561  11.478  1.00  0.00    -0.507 OA
ATOM     19  H   UNL     1      13.479  -9.445  11.017  1.00  0.00     0.293 HD
ENDBRANCH  10  18
BRANCH   8  20
ATOM     20  O   UNL     1      11.643  -7.629  15.834  1.00  0.00    -0.508 OA
ATOM     21  H   UNL     1      11.848  -6.705  16.187  1.00  0.00     0.293 HD
ENDBRANCH   8  20
TORSDOF 3
ENDMDL
MODEL 2
REMARK VINA RESULT:      -6.5      3.355      5.875
REMARK SMILES O=c1cc(-c2ccccc2)oc2cc(O)cc(O)c12
REMARK SMILES IDX 1 1 2 2 3 3 4 4 11 5 12 6 13 7 14 8 16 9 17 10 19 11 5 12
REMARK SMILES IDX 6 13 10 14 7 15 9 16 8 17 18 18 15 20
REMARK H PARENT 18 19 15 21
ROOT
ATOM      1  O   UNL     1       9.433 -10.187  11.674  1.00  0.00    -0.289 OA
ATOM      2  C   UNL     1      10.550  -9.619  11.773  1.00  0.00     0.197 A 
ATOM      3  C   UNL     1      11.521  -9.681  10.763  1.00  0.00     0.100 A 
ATOM      4  C   UNL     1      12.736  -9.051  10.894  1.00  0.00     0.138 A 
ATOM      5  O   UNL     1      12.940  -8.393  12.009  1.00  0.00    -0.456 OA
ATOM      6  C   UNL     1      12.073  -8.299  12.988  1.00  0.00     0.146 A 
ATOM      7  C   UNL     1      12.351  -7.585  14.147  1.00  0.00     0.094 A 
ATOM      8  C   UNL     1      11.465  -7.466  15.191  1.00  0.00     0.123 A 
ATOM      9  C   UNL     1      10.237  -8.082  15.100  1.00  0.00     0.093 A 
ATOM     10  C   UNL     1       9.924  -8.800  13.967  1.00  0.00     0.134 A 
ATOM     11  C   UNL     1      10.840  -8.909  12.914  1.00  0.00     0.107 A 
ENDROOT
BRANCH   4  12
ATOM     12  C   UNL     1      13.756  -9.109   9.844  1.00  0.00     0.017 A 
ATOM     13  C   UNL     1      14.965  -9.739   9.984  1.00  0.00     0.012 A 
ATOM     14  C   UNL     1      13.506  -8.499   8.628  1.00  0.00     0.012 A 
ATOM     15  C   UNL     1      15.908  -9.769   8.954  1.00  0.00     0.001 A 
ATOM     16  C   UNL     1      14.422  -8.511   7.587  1.00  0.00     0.001 A 
ATOM     17  C   UNL     1      15.642  -9.155   7.748  1.00  0.00     0.000 A 
ENDBRANCH   4  12
BRANCH  10  18
ATOM     18  O   UNL     1       8.697  -9.413  13.878  1.00  0.00    -0.507 OA
ATOM     19  H   UNL     1       8.451  -9.944  13.061  1.00  0.00     0.293 HD
ENDBRANCH  10  18
BRANCH   8  20
ATOM     20  O   UNL     1      11.788  -6.737  16.338  1.00  0.00    -0.508 OA
ATOM     21  H   UNL     1      12.357  -5.903  16.317  1.00  0.00     0.293 HD
ENDBRANCH   8  20
TORSDOF 3
ENDMDL
MODEL 3
REMARK VINA RESULT:      -6.2      1.859      2.082
REMARK SMILES O=c1cc(-c2ccccc2)oc2cc(O)cc(O)c12
REMARK SMILES IDX 1 1 2 2 3 3 4 4 11 5 12 6 13 7 14 8 16 9 17 10 19 11 5 12
REMARK SMILES IDX 6 13 10 14 7 15 9 16 8 17 18 18 15 20
REMARK H PARENT 18 19 15 21
ROOT
ATOM      1  O   UNL     1       9.531 -12.148  12.624  1.00  0.00    -0.289 OA
ATOM      2  C   UNL     1       9.197 -10.953  12.424  1.00  0.00     0.197 A 
ATOM      3  C   UNL     1       8.066 -10.602  11.672  1.00  0.00     0.100 A 
ATOM      4  C   UNL     1       7.719  -9.288  11.466  1.00  0.00     0.138 A 
ATOM      5  O   UNL     1       8.498  -8.382  12.006  1.00  0.00    -0.456 OA
ATOM      6  C   UNL     1       9.566  -8.647  12.718  1.00  0.00     0.146 A 
ATOM      7  C   UNL     1      10.351  -7.640  13.265  1.00  0.00     0.094 A 
ATOM      8  C   UNL     1      11.476  -7.883  14.016  1.00  0.00     0.123 A 
ATOM      9  C   UNL     1      11.858  -9.186  14.246  1.00  0.00     0.093 A 
ATOM     10  C   UNL     1      11.106 -10.213  13.720  1.00  0.00     0.134 A 
ATOM     11  C   UNL     1       9.963  -9.945  12.958  1.00  0.00     0.107 A 
ENDROOT
BRANCH   4  12
ATOM     12  C   UNL     1       6.539  -8.911  10.682  1.00  0.00     0.017 A 
ATOM     13  C   UNL     1       6.261  -7.630  10.283  1.00  0.00     0.012 A 
ATOM     14  C   UNL     1       5.638  -9.892  10.309  1.00  0.00     0.012 A 
ATOM     15  C   UNL     1       5.124  -7.318   9.535  1.00  0.00     0.001 A 
ATOM     16  C   UNL     1       4.501  -9.613   9.567  1.00  0.00     0.001 A 
ATOM     17  C   UNL     1       4.236  -8.308   9.172  1.00  0.00     0.000 A 
ENDBRANCH   4  12
BRANCH  10  18
ATOM     18  O   UNL     1      11.489 -11.513  13.951  1.00  0.00    -0.507 OA
ATOM     19  H   UNL     1      11.741 -12.113  13.186  1.00  0.00     0.293 HD
ENDBRANCH  10  18
BRANCH   8  20
ATOM     20  O   UNL     1      12.235  -6.838  14.546  1.00  0.00    -0.508 OA
ATOM     21  H   UNL     1      11.938  -6.290  15.340  1.00  0.00     0.293 HD
ENDBRANCH   8  20
TORSDOF 3
ENDMDL
MODEL 4
REMARK VINA RESULT:      -6.2      1.742      2.117
REMARK SMILES O=c1cc(-c2ccccc2)oc2cc(O)cc(O)c12
REMARK SMILES IDX 1 1 2 2 3 3 4 4 11 5 12 6 13 7 14 8 16 9 17 10 19 11 5 12
REMARK SMILES IDX 6 13 10 14 7 15 9 16 8 17 18 18 15 20
REMARK H PARENT 18 19 15 21
ROOT
ATOM      1  O   UNL     1      10.264 -12.032  12.254  1.00  0.00    -0.289 OA
ATOM      2  C   UNL     1       9.731 -10.895  12.230  1.00  0.00     0.197 A 
ATOM      3  C   UNL     1       8.553 -10.628  11.517  1.00  0.00     0.100 A 
ATOM      4  C   UNL     1       7.988  -9.375  11.505  1.00  0.00     0.138 A 
ATOM      5  O   UNL     1       8.606  -8.444  12.191  1.00  0.00    -0.456 OA
ATOM      6  C   UNL     1       9.707  -8.632  12.876  1.00  0.00     0.146 A 
ATOM      7  C   UNL     1      10.314  -7.602  13.585  1.00  0.00     0.094 A 
ATOM      8  C   UNL     1      11.468  -7.764  14.312  1.00  0.00     0.123 A 
ATOM      9  C   UNL     1      12.066  -9.003  14.351  1.00  0.00     0.093 A 
ATOM     10  C   UNL     1      11.496 -10.051  13.661  1.00  0.00     0.134 A 
ATOM     11  C   UNL     1      10.319  -9.865  12.925  1.00  0.00     0.107 A 
ENDROOT
BRANCH   4  12
ATOM     12  C   UNL     1       6.757  -9.086  10.763  1.00  0.00     0.017 A 
ATOM     13  C   UNL     1       5.843 -10.037  10.394  1.00  0.00     0.012 A 
ATOM     14  C   UNL     1       6.480  -7.779  10.403  1.00  0.00     0.012 A 
ATOM     15  C   UNL     1       4.683  -9.714   9.687  1.00  0.00     0.001 A 
ATOM     16  C   UNL     1       5.337  -7.428   9.702  1.00  0.00     0.001 A 
ATOM     17  C   UNL     1       4.423  -8.406   9.337  1.00  0.00     0.000 A 
ENDBRANCH   4  12
BRANCH  10  18
ATOM     18  O   UNL     1      12.094 -11.287  13.701  1.00  0.00    -0.507 OA
ATOM     19  H   UNL     1      11.539 -12.118  13.799  1.00  0.00     0.293 HD
ENDBRANCH  10  18
BRANCH   8  20
ATOM     20  O   UNL     1      12.043  -6.699  15.009  1.00  0.00    -0.508 OA
ATOM     21  H   UNL     1      12.565  -6.820  15.866  1.00  0.00     0.293 HD
ENDBRANCH   8  20
TORSDOF 3
ENDMDL
MODEL 5
REMARK VINA RESULT:      -6.2      1.777      2.897
REMARK SMILES O=c1cc(-c2ccccc2)oc2cc(O)cc(O)c12
REMARK SMILES IDX 1 1 2 2 3 3 4 4 11 5 12 6 13 7 14 8 16 9 17 10 19 11 5 12
REMARK SMILES IDX 6 13 10 14 7 15 9 16 8 17 18 18 15 20
REMARK H PARENT 18 19 15 21
ROOT
ATOM      1  O   UNL     1       8.259 -11.354  13.614  1.00  0.00    -0.289 OA
ATOM      2  C   UNL     1       8.114 -10.419  12.787  1.00  0.00     0.197 A 
ATOM      3  C   UNL     1       6.974 -10.294  11.979  1.00  0.00     0.100 A 
ATOM      4  C   UNL     1       6.838  -9.263  11.081  1.00  0.00     0.138 A 
ATOM      5  O   UNL     1       7.827  -8.405  11.016  1.00  0.00    -0.456 OA
ATOM      6  C   UNL     1       8.916  -8.468  11.743  1.00  0.00     0.146 A 
ATOM      7  C   UNL     1       9.930  -7.524  11.627  1.00  0.00     0.094 A 
ATOM      8  C   UNL     1      11.083  -7.561  12.373  1.00  0.00     0.123 A 
ATOM      9  C   UNL     1      11.259  -8.577  13.285  1.00  0.00     0.093 A 
ATOM     10  C   UNL     1      10.277  -9.532  13.429  1.00  0.00     0.134 A 
ATOM     11  C   UNL     1       9.108  -9.478  12.660  1.00  0.00     0.107 A 
ENDROOT
BRANCH   4  12
ATOM     12  C   UNL     1       5.651  -9.125  10.233  1.00  0.00     0.017 A 
ATOM     13  C   UNL     1       4.885 -10.178   9.808  1.00  0.00     0.012 A 
ATOM     14  C   UNL     1       5.260  -7.862   9.825  1.00  0.00     0.012 A 
ATOM     15  C   UNL     1       3.759  -9.997   9.000  1.00  0.00     0.001 A 
ATOM     16  C   UNL     1       4.148  -7.650   9.023  1.00  0.00     0.001 A 
ATOM     17  C   UNL     1       3.384  -8.731   8.603  1.00  0.00     0.000 A 
ENDBRANCH   4  12
BRANCH  10  18
ATOM     18  O   UNL     1      10.454 -10.546  14.340  1.00  0.00    -0.507 OA
ATOM     19  H   UNL     1      10.628 -11.485  14.030  1.00  0.00     0.293 HD
ENDBRANCH  10  18
BRANCH   8  20
ATOM     20  O   UNL     1      12.076  -6.590  12.223  1.00  0.00    -0.508 OA
ATOM     21  H   UNL     1      12.074  -5.718  12.732  1.00  0.00     0.293 HD
ENDBRANCH   8  20
TORSDOF 3
ENDMDL
MODEL 6
REMARK VINA RESULT:      -6.1      3.309      5.949
REMARK SMILES O=c1cc(-c2ccccc2)oc2cc(O)cc(O)c12
REMARK SMILES IDX 1 1 2 2 3 3 4 4 11 5 12 6 13 7 14 8 16 9 17 10 19 11 5 12
REMARK SMILES IDX 6 13 10 14 7 15 9 16 8 17 18 18 15 20
REMARK H PARENT 18 19 15 21
ROOT
ATOM      1  O   UNL     1       9.560 -10.269  11.148  1.00  0.00    -0.289 OA
ATOM      2  C   UNL     1      10.667  -9.700  11.321  1.00  0.00     0.197 A 
ATOM      3  C   UNL     1      11.672  -9.691  10.342  1.00  0.00     0.100 A 
ATOM      4  C   UNL     1      12.876  -9.061  10.553  1.00  0.00     0.138 A 
ATOM      5  O   UNL     1      13.037  -8.473  11.714  1.00  0.00    -0.456 OA
ATOM      6  C   UNL     1      12.137  -8.447  12.666  1.00  0.00     0.146 A 
ATOM      7  C   UNL     1      12.369  -7.805  13.876  1.00  0.00     0.094 A 
ATOM      8  C   UNL     1      11.448  -7.759  14.895  1.00  0.00     0.123 A 
ATOM      9  C   UNL     1      10.229  -8.376  14.724  1.00  0.00     0.093 A 
ATOM     10  C   UNL     1       9.961  -9.025  13.539  1.00  0.00     0.134 A 
ATOM     11  C   UNL     1      10.912  -9.060  12.512  1.00  0.00     0.107 A 
ENDROOT
BRANCH   4  12
ATOM     12  C   UNL     1      13.931  -9.046   9.536  1.00  0.00     0.017 A 
ATOM     13  C   UNL     1      13.782  -8.513   8.283  1.00  0.00     0.012 A 
ATOM     14  C   UNL     1      15.164  -9.598   9.839  1.00  0.00     0.012 A 
ATOM     15  C   UNL     1      14.818  -8.520   7.347  1.00  0.00     0.001 A 
ATOM     16  C   UNL     1      16.211  -9.620   8.931  1.00  0.00     0.001 A 
ATOM     17  C   UNL     1      16.040  -9.074   7.665  1.00  0.00     0.000 A 
ENDBRANCH   4  12
BRANCH  10  18
ATOM     18  O   UNL     1       8.744  -9.640  13.370  1.00  0.00    -0.507 OA
ATOM     19  H   UNL     1       8.149  -9.389  12.601  1.00  0.00     0.293 HD
ENDBRANCH  10  18
BRANCH   8  20
ATOM     20  O   UNL     1      11.726  -7.101  16.095  1.00  0.00    -0.508 OA
ATOM     21  H   UNL     1      12.495  -7.357  16.697  1.00  0.00     0.293 HD
ENDBRANCH   8  20
TORSDOF 3
ENDMDL
MODEL 7
REMARK VINA RESULT:      -6.0      1.296      2.776
REMARK SMILES O=c1cc(-c2ccccc2)oc2cc(O)cc(O)c12
REMARK SMILES IDX 1 1 2 2 3 3 4 4 11 5 12 6 13 7 14 8 16 9 17 10 19 11 5 12
REMARK SMILES IDX 6 13 10 14 7 15 9 16 8 17 18 18 15 20
REMARK H PARENT 18 19 15 21
ROOT
ATOM      1  O   UNL     1       9.080  -9.223  14.390  1.00  0.00    -0.289 OA
ATOM      2  C   UNL     1       8.973  -9.115  13.143  1.00  0.00     0.197 A 
ATOM      3  C   UNL     1       7.731  -9.060  12.494  1.00  0.00     0.100 A 
ATOM      4  C   UNL     1       7.638  -8.941  11.127  1.00  0.00     0.138 A 
ATOM      5  O   UNL     1       8.767  -8.884  10.463  1.00  0.00    -0.456 OA
ATOM      6  C   UNL     1       9.956  -8.930  11.012  1.00  0.00     0.146 A 
ATOM      7  C   UNL     1      11.118  -8.864  10.252  1.00  0.00     0.094 A 
ATOM      8  C   UNL     1      12.379  -8.910  10.795  1.00  0.00     0.123 A 
ATOM      9  C   UNL     1      12.516  -9.028  12.160  1.00  0.00     0.093 A 
ATOM     10  C   UNL     1      11.389  -9.097  12.949  1.00  0.00     0.134 A 
ATOM     11  C   UNL     1      10.112  -9.049  12.376  1.00  0.00     0.107 A 
ENDROOT
BRANCH   4  12
ATOM     12  C   UNL     1       6.344  -8.883  10.440  1.00  0.00     0.017 A 
ATOM     13  C   UNL     1       5.775  -7.727   9.975  1.00  0.00     0.012 A 
ATOM     14  C   UNL     1       5.638 -10.055  10.237  1.00  0.00     0.012 A 
ATOM     15  C   UNL     1       4.539  -7.720   9.324  1.00  0.00     0.001 A 
ATOM     16  C   UNL     1       4.409 -10.080   9.595  1.00  0.00     0.001 A 
ATOM     17  C   UNL     1       3.848  -8.897   9.130  1.00  0.00     0.000 A 
ENDBRANCH   4  12
BRANCH  10  18
ATOM     18  O   UNL     1      11.528  -9.215  14.311  1.00  0.00    -0.507 OA
ATOM     19  H   UNL     1      12.215  -9.835  14.701  1.00  0.00     0.293 HD
ENDBRANCH  10  18
BRANCH   8  20
ATOM     20  O   UNL     1      13.519  -8.840   9.990  1.00  0.00    -0.508 OA
ATOM     21  H   UNL     1      14.292  -8.221  10.186  1.00  0.00     0.293 HD
ENDBRANCH   8  20
TORSDOF 3
ENDMDL
MODEL 8
REMARK VINA RESULT:      -6.0      1.827      2.896
REMARK SMILES O=c1cc(-c2ccccc2)oc2cc(O)cc(O)c12
REMARK SMILES IDX 1 1 2 2 3 3 4 4 11 5 12 6 13 7 14 8 16 9 17 10 19 11 5 12
REMARK SMILES IDX 6 13 10 14 7 15 9 16 8 17 18 18 15 20
REMARK H PARENT 18 19 15 21
ROOT
ATOM      1  O   UNL     1       7.951 -11.435  13.417  1.00  0.00    -0.289 OA
ATOM      2  C   UNL     1       7.800 -10.493  12.599  1.00  0.00     0.197 A 
ATOM      3  C   UNL     1       6.661 -10.371  11.790  1.00  0.00     0.100 A 
ATOM      4  C   UNL     1       6.516  -9.332  10.902  1.00  0.00     0.138 A 
ATOM      5  O   UNL     1       7.497  -8.463  10.849  1.00  0.00    -0.456 OA
ATOM      6  C   UNL     1       8.584  -8.523  11.578  1.00  0.00     0.146 A 
ATOM      7  C   UNL     1       9.589  -7.568  11.475  1.00  0.00     0.094 A 
ATOM      8  C   UNL     1      10.740  -7.601  12.224  1.00  0.00     0.123 A 
ATOM      9  C   UNL     1      10.924  -8.625  13.125  1.00  0.00     0.093 A 
ATOM     10  C   UNL     1       9.951  -9.592  13.257  1.00  0.00     0.134 A 
ATOM     11  C   UNL     1       8.784  -9.541  12.485  1.00  0.00     0.107 A 
ENDROOT
BRANCH   4  12
ATOM     12  C   UNL     1       5.330  -9.197  10.052  1.00  0.00     0.017 A 
ATOM     13  C   UNL     1       4.799  -7.995   9.663  1.00  0.00     0.012 A 
ATOM     14  C   UNL     1       4.690 -10.339   9.604  1.00  0.00     0.012 A 
ATOM     15  C   UNL     1       3.665  -7.915   8.851  1.00  0.00     0.001 A 
ATOM     16  C   UNL     1       3.563 -10.291   8.797  1.00  0.00     0.001 A 
ATOM     17  C   UNL     1       3.041  -9.063   8.413  1.00  0.00     0.000 A 
ENDBRANCH   4  12
BRANCH  10  18
ATOM     18  O   UNL     1      10.136 -10.613  14.158  1.00  0.00    -0.507 OA
ATOM     19  H   UNL     1       9.998 -10.457  15.140  1.00  0.00     0.293 HD
ENDBRANCH  10  18
BRANCH   8  20
ATOM     20  O   UNL     1      11.724  -6.619  12.086  1.00  0.00    -0.508 OA
ATOM     21  H   UNL     1      11.588  -5.660  12.373  1.00  0.00     0.293 HD
ENDBRANCH   8  20
TORSDOF 3
ENDMDL
MODEL 9
REMARK VINA RESULT:      -6.0      2.746      6.173
REMARK SMILES O=c1cc(-c2ccccc2)oc2cc(O)cc(O)c12
REMARK SMILES IDX 1 1 2 2 3 3 4 4 11 5 12 6 13 7 14 8 16 9 17 10 19 11 5 12
REMARK SMILES IDX 6 13 10 14 7 15 9 16 8 17 18 18 15 20
REMARK H PARENT 18 19 15 21
ROOT
ATOM      1  O   UNL     1      11.716  -8.483  14.369  1.00  0.00    -0.289 OA
ATOM      2  C   UNL     1      11.518  -8.791  13.167  1.00  0.00     0.197 A 
ATOM      3  C   UNL     1      12.529  -8.737  12.197  1.00  0.00     0.100 A 
ATOM      4  C   UNL     1      12.290  -9.079  10.888  1.00  0.00     0.138 A 
ATOM      5  O   UNL     1      11.069  -9.456  10.592  1.00  0.00    -0.456 OA
ATOM      6  C   UNL     1      10.083  -9.527  11.453  1.00  0.00     0.146 A 
ATOM      7  C   UNL     1       8.810  -9.936  11.076  1.00  0.00     0.094 A 
ATOM      8  C   UNL     1       7.755 -10.022  11.952  1.00  0.00     0.123 A 
ATOM      9  C   UNL     1       7.952  -9.689  13.273  1.00  0.00     0.093 A 
ATOM     10  C   UNL     1       9.201  -9.278  13.687  1.00  0.00     0.134 A 
ATOM     11  C   UNL     1      10.263  -9.197  12.779  1.00  0.00     0.107 A 
ENDROOT
BRANCH   4  12
ATOM     12  C   UNL     1      13.340  -9.025   9.867  1.00  0.00     0.017 A 
ATOM     13  C   UNL     1      13.186  -8.438   8.639  1.00  0.00     0.012 A 
ATOM     14  C   UNL     1      14.571  -9.595  10.139  1.00  0.00     0.012 A 
ATOM     15  C   UNL     1      14.217  -8.411   7.697  1.00  0.00     0.001 A 
ATOM     16  C   UNL     1      15.613  -9.583   9.224  1.00  0.00     0.001 A 
ATOM     17  C   UNL     1      15.438  -8.984   7.985  1.00  0.00     0.000 A 
ENDBRANCH   4  12
BRANCH  10  18
ATOM     18  O   UNL     1       9.397  -8.946  15.006  1.00  0.00    -0.507 OA
ATOM     19  H   UNL     1       8.861  -9.393  15.728  1.00  0.00     0.293 HD
ENDBRANCH  10  18
BRANCH   8  20
ATOM     20  O   UNL     1       6.490 -10.439  11.528  1.00  0.00    -0.508 OA
ATOM     21  H   UNL     1       6.303 -11.373  11.195  1.00  0.00     0.293 HD
ENDBRANCH   8  20
TORSDOF 3
ENDMDL
