MODEL 1
REMARK VINA RESULT:       4.6      0.000      0.000
REMARK SMILES Cc1c(OCC(F)(F)F)ccnc1C[S+](O)c1nc2ccccc2[n-]1
REMARK SMILES IDX 1 1 2 2 3 3 10 4 11 5 12 6 13 7 4 8 5 9 6 10 7 11 8 12 9 13
REMARK SMILES IDX 14 14 15 15 16 16 17 18 18 19 25 20 19 21 24 22 20 23 23 24
REMARK SMILES IDX 21 25 22 26
REMARK H PARENT 16 17
ROOT
ATOM      1  C   UNL     1       1.186 -13.377  13.813  1.00  0.00     0.050 C 
ATOM      2  C   UNL     1       1.856 -13.317  15.135  1.00  0.00     0.018 A 
ATOM      3  C   UNL     1       2.879 -12.394  15.356  1.00  0.00     0.126 A 
ATOM      4  C   UNL     1       3.478 -12.387  16.596  1.00  0.00     0.067 A 
ATOM      5  C   UNL     1       3.080 -13.262  17.577  1.00  0.00     0.115 A 
ATOM      6  N   UNL     1       2.103 -14.126  17.330  1.00  0.00    -0.256 NA
ATOM      7  C   UNL     1       1.467 -14.186  16.128  1.00  0.00     0.100 A 
ENDROOT
BRANCH   3   8
ATOM      8  O   UNL     1       3.232 -11.540  14.325  1.00  0.00    -0.484 OA
BRANCH   8   9
ATOM      9  C   UNL     1       3.428 -11.979  13.013  1.00  0.00     0.344 C 
BRANCH   9  10
ATOM     10  C   UNL     1       2.704 -11.018  12.094  1.00  0.00     0.422 C 
ATOM     11  F   UNL     1       3.286 -11.127  10.843  1.00  0.00    -0.167 F 
ATOM     12  F   UNL     1       2.832  -9.717  12.535  1.00  0.00    -0.167 F 
ATOM     13  F   UNL     1       1.371 -11.354  11.978  1.00  0.00    -0.167 F 
ENDBRANCH   9  10
ENDBRANCH   8   9
ENDBRANCH   3   8
BRANCH   7  14
ATOM     14  C   UNL     1       0.368 -15.178  15.945  1.00  0.00     0.380 C 
BRANCH  14  15
ATOM     15  S   UNL     1      -1.095 -14.525  16.544  1.00  0.00     0.181 S 
BRANCH  15  16
ATOM     16  O   UNL     1      -2.440 -15.421  16.591  1.00  0.00    -0.182 OA
ATOM     17  H   UNL     1      -2.615 -15.825  15.690  1.00  0.00     0.283 HD
ENDBRANCH  15  16
BRANCH  15  18
ATOM     18  C   UNL     1      -1.068 -13.022  17.352  1.00  0.00     0.179 A 
ATOM     19  N   UNL     1      -1.295 -11.772  16.927  1.00  0.00    -0.390 NA
ATOM     20  N   UNL     1      -0.773 -12.900  18.676  1.00  0.00    -0.390 NA
ATOM     21  C   UNL     1      -1.147 -10.910  17.947  1.00  0.00    -0.035 A 
ATOM     22  C   UNL     1      -0.813 -11.625  19.071  1.00  0.00    -0.035 A 
ATOM     23  C   UNL     1      -1.264  -9.528  18.063  1.00  0.00     0.004 A 
ATOM     24  C   UNL     1      -0.599 -10.979  20.292  1.00  0.00     0.004 A 
ATOM     25  C   UNL     1      -1.058  -8.875  19.251  1.00  0.00     0.000 A 
ATOM     26  C   UNL     1      -0.725  -9.607  20.368  1.00  0.00     0.000 A 
ENDBRANCH  15  18
ENDBRANCH  14  15
ENDBRANCH   7  14
TORSDOF 7
ENDMDL
MODEL 2
REMARK VINA RESULT:       5.7      2.463      3.552
REMARK SMILES Cc1c(OCC(F)(F)F)ccnc1C[S+](O)c1nc2ccccc2[n-]1
REMARK SMILES IDX 1 1 2 2 3 3 10 4 11 5 12 6 13 7 4 8 5 9 6 10 7 11 8 12 9 13
REMARK SMILES IDX 14 14 15 15 16 16 17 18 18 19 25 20 19 21 24 22 20 23 23 24
REMARK SMILES IDX 21 25 22 26
REMARK H PARENT 16 17
ROOT
ATOM      1  C   UNL     1       2.419 -13.857  17.221  1.00  0.00     0.050 C 
ATOM      2  C   UNL     1       2.718 -12.424  17.460  1.00  0.00     0.018 A 
ATOM      3  C   UNL     1       3.212 -11.634  16.421  1.00  0.00     0.126 A 
ATOM      4  C   UNL     1       3.486 -10.312  16.696  1.00  0.00     0.067 A 
ATOM      5  C   UNL     1       3.279  -9.796  17.952  1.00  0.00     0.115 A 
ATOM      6  N   UNL     1       2.807 -10.578  18.915  1.00  0.00    -0.256 NA
ATOM      7  C   UNL     1       2.514 -11.892  18.712  1.00  0.00     0.100 A 
ENDROOT
BRANCH   3   8
ATOM      8  O   UNL     1       3.397 -12.216  15.178  1.00  0.00    -0.484 OA
BRANCH   8   9
ATOM      9  C   UNL     1       2.580 -11.932  14.081  1.00  0.00     0.344 C 
BRANCH   9  10
ATOM     10  C   UNL     1       2.153 -13.253  13.473  1.00  0.00     0.422 C 
ATOM     11  F   UNL     1       0.995 -13.017  12.751  1.00  0.00    -0.167 F 
ATOM     12  F   UNL     1       1.887 -14.186  14.453  1.00  0.00    -0.167 F 
ATOM     13  F   UNL     1       3.111 -13.730  12.604  1.00  0.00    -0.167 F 
ENDBRANCH   9  10
ENDBRANCH   8   9
ENDBRANCH   3   8
BRANCH   7  14
ATOM     14  C   UNL     1       1.972 -12.692  19.848  1.00  0.00     0.380 C 
BRANCH  14  15
ATOM     15  S   UNL     1       0.599 -13.568  19.325  1.00  0.00     0.181 S 
BRANCH  15  16
ATOM     16  O   UNL     1       0.069 -14.847  20.161  1.00  0.00    -0.182 OA
ATOM     17  H   UNL     1       0.237 -15.689  19.644  1.00  0.00     0.283 HD
ENDBRANCH  15  16
BRANCH  15  18
ATOM     18  C   UNL     1      -0.376 -12.925  18.080  1.00  0.00     0.179 A 
ATOM     19  N   UNL     1      -1.172 -11.849  18.031  1.00  0.00    -0.390 NA
ATOM     20  N   UNL     1      -0.476 -13.498  16.849  1.00  0.00    -0.390 NA
ATOM     21  C   UNL     1      -1.742 -11.759  16.818  1.00  0.00    -0.035 A 
ATOM     22  C   UNL     1      -1.301 -12.812  16.055  1.00  0.00    -0.035 A 
ATOM     23  C   UNL     1      -2.630 -10.858  16.237  1.00  0.00     0.004 A 
ATOM     24  C   UNL     1      -1.735 -12.970  14.735  1.00  0.00     0.004 A 
ATOM     25  C   UNL     1      -3.068 -10.994  14.945  1.00  0.00     0.000 A 
ATOM     26  C   UNL     1      -2.615 -12.056  14.194  1.00  0.00     0.000 A 
ENDBRANCH  15  18
ENDBRANCH  14  15
ENDBRANCH   7  14
TORSDOF 7
ENDMDL
MODEL 3
REMARK VINA RESULT:       7.4      3.340      4.938
REMARK SMILES Cc1c(OCC(F)(F)F)ccnc1C[S+](O)c1nc2ccccc2[n-]1
REMARK SMILES IDX 1 1 2 2 3 3 10 4 11 5 12 6 13 7 4 8 5 9 6 10 7 11 8 12 9 13
REMARK SMILES IDX 14 14 15 15 16 16 17 18 18 19 25 20 19 21 24 22 20 23 23 24
REMARK SMILES IDX 21 25 22 26
REMARK H PARENT 16 17
ROOT
ATOM      1  C   UNL     1       1.776 -13.768  18.442  1.00  0.00     0.050 C 
ATOM      2  C   UNL     1       0.480 -13.195  18.004  1.00  0.00     0.018 A 
ATOM      3  C   UNL     1      -0.123 -13.654  16.832  1.00  0.00     0.126 A 
ATOM      4  C   UNL     1      -1.320 -13.081  16.461  1.00  0.00     0.067 A 
ATOM      5  C   UNL     1      -1.894 -12.091  17.222  1.00  0.00     0.115 A 
ATOM      6  N   UNL     1      -1.291 -11.681  18.330  1.00  0.00    -0.256 NA
ATOM      7  C   UNL     1      -0.108 -12.205  18.756  1.00  0.00     0.100 A 
ENDROOT
BRANCH   3   8
ATOM      8  O   UNL     1       0.508 -14.653  16.112  1.00  0.00    -0.484 OA
BRANCH   8   9
ATOM      9  C   UNL     1       1.652 -14.424  15.342  1.00  0.00     0.344 C 
BRANCH   9  10
ATOM     10  C   UNL     1       1.251 -13.545  14.175  1.00  0.00     0.422 C 
ATOM     11  F   UNL     1      -0.118 -13.670  14.017  1.00  0.00    -0.167 F 
ATOM     12  F   UNL     1       1.875 -13.949  13.013  1.00  0.00    -0.167 F 
ATOM     13  F   UNL     1       1.535 -12.220  14.434  1.00  0.00    -0.167 F 
ENDBRANCH   9  10
ENDBRANCH   8   9
ENDBRANCH   3   8
BRANCH   7  14
ATOM     14  C   UNL     1       0.489 -11.694  20.024  1.00  0.00     0.380 C 
BRANCH  14  15
ATOM     15  S   UNL     1       2.069 -11.113  19.716  1.00  0.00     0.181 S 
BRANCH  15  16
ATOM     16  O   UNL     1       3.352 -11.795  20.426  1.00  0.00    -0.182 OA
ATOM     17  H   UNL     1       3.061 -12.581  20.976  1.00  0.00     0.283 HD
ENDBRANCH  15  16
BRANCH  15  18
ATOM     18  C   UNL     1       2.314  -9.998  18.446  1.00  0.00     0.179 A 
ATOM     19  N   UNL     1       3.081 -10.046  17.349  1.00  0.00    -0.390 NA
ATOM     20  N   UNL     1       1.693  -8.787  18.395  1.00  0.00    -0.390 NA
ATOM     21  C   UNL     1       2.940  -8.910  16.646  1.00  0.00    -0.035 A 
ATOM     22  C   UNL     1       2.053  -8.099  17.309  1.00  0.00    -0.035 A 
ATOM     23  C   UNL     1       3.487  -8.442  15.454  1.00  0.00     0.004 A 
ATOM     24  C   UNL     1       1.713  -6.843  16.800  1.00  0.00     0.004 A 
ATOM     25  C   UNL     1       3.168  -7.213  14.937  1.00  0.00     0.000 A 
ATOM     26  C   UNL     1       2.276  -6.413  15.615  1.00  0.00     0.000 A 
ENDBRANCH  15  18
ENDBRANCH  14  15
ENDBRANCH   7  14
TORSDOF 7
ENDMDL
