MODEL 1
REMARK VINA RESULT:      -4.7      0.000      0.000
REMARK SMILES O=C(CCC[NH+]1CCC(O)(c2ccc(Cl)cc2)CC1)c1ccc(F)cc1
REMARK SMILES IDX 4 1 3 2 2 3 1 4 20 5 21 6 26 7 22 8 25 9 23 10 24 11 5 12
REMARK SMILES IDX 6 13 7 14 19 15 8 16 18 17 9 18 10 20 11 22 12 23 17 24
REMARK SMILES IDX 13 25 16 26 14 27 15 28
REMARK H PARENT 6 19 10 21
ROOT
ATOM      1  C   UNL     1     120.552 157.785 178.848  1.00  0.00     0.070 C 
ENDROOT
BRANCH   1   2
ATOM      2  C   UNL     1     121.236 157.806 180.197  1.00  0.00     0.087 C 
BRANCH   2   3
ATOM      3  C   UNL     1     122.231 158.869 180.352  1.00  0.00     0.163 C 
ATOM      4  O   UNL     1     123.463 158.637 180.242  1.00  0.00    -0.294 OA
BRANCH   3   5
ATOM      5  C   UNL     1     121.856 160.269 180.642  1.00  0.00     0.018 A 
ATOM      6  C   UNL     1     121.932 160.763 181.932  1.00  0.00     0.015 A 
ATOM      7  C   UNL     1     121.426 161.107 179.645  1.00  0.00     0.015 A 
ATOM      8  C   UNL     1     121.581 162.066 182.195  1.00  0.00     0.040 A 
ATOM      9  C   UNL     1     121.076 162.405 179.899  1.00  0.00     0.040 A 
ATOM     10  C   UNL     1     121.155 162.883 181.179  1.00  0.00     0.123 A 
ATOM     11  F   UNL     1     120.793 164.187 181.395  1.00  0.00    -0.207 F 
ENDBRANCH   3   5
ENDBRANCH   2   3
ENDBRANCH   1   2
BRANCH   1  12
ATOM     12  C   UNL     1     119.084 157.922 179.062  1.00  0.00     0.262 C 
BRANCH  12  13
ATOM     13  N   UNL     1     118.382 158.385 177.872  1.00  0.00    -0.335 N 
ATOM     14  C   UNL     1     116.959 158.320 178.017  1.00  0.00     0.265 C 
ATOM     15  C   UNL     1     118.798 159.709 177.540  1.00  0.00     0.265 C 
ATOM     16  C   UNL     1     116.481 159.166 179.164  1.00  0.00     0.102 C 
ATOM     17  C   UNL     1     117.856 160.799 177.832  1.00  0.00     0.102 C 
ATOM     18  C   UNL     1     116.865 160.595 178.918  1.00  0.00     0.100 C 
ATOM     19  H   UNL     1     118.639 157.680 177.119  1.00  0.00     0.348 HD
BRANCH  18  20
ATOM     20  O   UNL     1     115.676 161.254 178.521  1.00  0.00    -0.385 OA
ATOM     21  H   UNL     1     115.838 162.224 178.637  1.00  0.00     0.211 HD
ENDBRANCH  18  20
BRANCH  18  22
ATOM     22  C   UNL     1     117.256 161.286 180.198  1.00  0.00    -0.016 A 
ATOM     23  C   UNL     1     117.720 160.589 181.294  1.00  0.00     0.008 A 
ATOM     24  C   UNL     1     117.174 162.652 180.356  1.00  0.00     0.008 A 
ATOM     25  C   UNL     1     118.087 161.181 182.480  1.00  0.00     0.021 A 
ATOM     26  C   UNL     1     117.536 163.269 181.538  1.00  0.00     0.021 A 
ATOM     27  C   UNL     1     117.992 162.533 182.598  1.00  0.00     0.041 A 
ATOM     28  Cl  UNL     1     118.454 163.306 184.096  1.00  0.00    -0.084 Cl
ENDBRANCH  18  22
ENDBRANCH  12  13
ENDBRANCH   1  12
TORSDOF 7
ENDMDL
MODEL 2
REMARK VINA RESULT:      -4.3      5.357      8.087
REMARK SMILES O=C(CCC[NH+]1CCC(O)(c2ccc(Cl)cc2)CC1)c1ccc(F)cc1
REMARK SMILES IDX 4 1 3 2 2 3 1 4 20 5 21 6 26 7 22 8 25 9 23 10 24 11 5 12
REMARK SMILES IDX 6 13 7 14 19 15 8 16 18 17 9 18 10 20 11 22 12 23 17 24
REMARK SMILES IDX 13 25 16 26 14 27 15 28
REMARK H PARENT 6 19 10 21
ROOT
ATOM      1  C   UNL     1     121.780 164.171 181.339  1.00  0.00     0.070 C 
ENDROOT
BRANCH   1   2
ATOM      2  C   UNL     1     121.373 162.970 180.514  1.00  0.00     0.087 C 
BRANCH   2   3
ATOM      3  C   UNL     1     121.342 161.710 181.259  1.00  0.00     0.163 C 
ATOM      4  O   UNL     1     121.499 161.680 182.507  1.00  0.00    -0.294 OA
BRANCH   3   5
ATOM      5  C   UNL     1     121.126 160.405 180.598  1.00  0.00     0.018 A 
ATOM      6  C   UNL     1     122.086 159.412 180.674  1.00  0.00     0.015 A 
ATOM      7  C   UNL     1     119.974 160.149 179.899  1.00  0.00     0.015 A 
ATOM      8  C   UNL     1     121.879 158.201 180.057  1.00  0.00     0.040 A 
ATOM      9  C   UNL     1     119.760 158.946 179.283  1.00  0.00     0.040 A 
ATOM     10  C   UNL     1     120.717 157.971 179.364  1.00  0.00     0.123 A 
ATOM     11  F   UNL     1     120.469 156.780 178.732  1.00  0.00    -0.207 F 
ENDBRANCH   3   5
ENDBRANCH   2   3
ENDBRANCH   1   2
BRANCH   1  12
ATOM     12  C   UNL     1     123.193 164.511 181.010  1.00  0.00     0.262 C 
BRANCH  12  13
ATOM     13  N   UNL     1     123.501 165.918 181.235  1.00  0.00    -0.335 N 
ATOM     14  C   UNL     1     124.900 166.197 181.116  1.00  0.00     0.265 C 
ATOM     15  C   UNL     1     122.744 166.735 180.344  1.00  0.00     0.265 C 
ATOM     16  C   UNL     1     125.420 165.848 179.749  1.00  0.00     0.102 C 
ATOM     17  C   UNL     1     123.465 167.340 179.214  1.00  0.00     0.102 C 
ATOM     18  C   UNL     1     124.688 166.659 178.721  1.00  0.00     0.100 C 
ATOM     19  H   UNL     1     123.247 166.087 182.253  1.00  0.00     0.348 HD
BRANCH  18  20
ATOM     20  O   UNL     1     125.589 167.674 178.314  1.00  0.00    -0.385 OA
ATOM     21  H   UNL     1     126.471 167.239 178.197  1.00  0.00     0.211 HD
ENDBRANCH  18  20
BRANCH  18  22
ATOM     22  C   UNL     1     124.444 165.863 177.466  1.00  0.00    -0.016 A 
ATOM     23  C   UNL     1     124.304 166.465 176.233  1.00  0.00     0.008 A 
ATOM     24  C   UNL     1     124.345 164.489 177.469  1.00  0.00     0.008 A 
ATOM     25  C   UNL     1     124.080 165.774 175.064  1.00  0.00     0.021 A 
ATOM     26  C   UNL     1     124.120 163.775 176.309  1.00  0.00     0.021 A 
ATOM     27  C   UNL     1     123.989 164.418 175.108  1.00  0.00     0.041 A 
ATOM     28  Cl  UNL     1     123.706 163.522 173.635  1.00  0.00    -0.084 Cl
ENDBRANCH  18  22
ENDBRANCH  12  13
ENDBRANCH   1  12
TORSDOF 7
ENDMDL
MODEL 3
REMARK VINA RESULT:      -4.3      5.889      7.783
REMARK SMILES O=C(CCC[NH+]1CCC(O)(c2ccc(Cl)cc2)CC1)c1ccc(F)cc1
REMARK SMILES IDX 4 1 3 2 2 3 1 4 20 5 21 6 26 7 22 8 25 9 23 10 24 11 5 12
REMARK SMILES IDX 6 13 7 14 19 15 8 16 18 17 9 18 10 20 11 22 12 23 17 24
REMARK SMILES IDX 13 25 16 26 14 27 15 28
REMARK H PARENT 6 19 10 21
ROOT
ATOM      1  C   UNL     1     119.112 158.630 175.184  1.00  0.00     0.070 C 
ENDROOT
BRANCH   1   2
ATOM      2  C   UNL     1     119.344 159.649 176.277  1.00  0.00     0.087 C 
BRANCH   2   3
ATOM      3  C   UNL     1     119.096 159.149 177.631  1.00  0.00     0.163 C 
ATOM      4  O   UNL     1     117.968 158.708 177.972  1.00  0.00    -0.294 OA
BRANCH   3   5
ATOM      5  C   UNL     1     120.145 159.127 178.672  1.00  0.00     0.018 A 
ATOM      6  C   UNL     1     120.760 157.939 179.025  1.00  0.00     0.015 A 
ATOM      7  C   UNL     1     120.532 160.278 179.309  1.00  0.00     0.015 A 
ATOM      8  C   UNL     1     121.735 157.926 179.994  1.00  0.00     0.040 A 
ATOM      9  C   UNL     1     121.502 160.273 180.275  1.00  0.00     0.040 A 
ATOM     10  C   UNL     1     122.103 159.092 180.616  1.00  0.00     0.123 A 
ATOM     11  F   UNL     1     123.068 159.126 181.589  1.00  0.00    -0.207 F 
ENDBRANCH   3   5
ENDBRANCH   2   3
ENDBRANCH   1   2
BRANCH   1  12
ATOM     12  C   UNL     1     118.014 159.123 174.306  1.00  0.00     0.262 C 
BRANCH  12  13
ATOM     13  N   UNL     1     117.454 158.075 173.462  1.00  0.00    -0.335 N 
ATOM     14  C   UNL     1     116.687 158.601 172.374  1.00  0.00     0.265 C 
ATOM     15  C   UNL     1     118.493 157.222 172.984  1.00  0.00     0.265 C 
ATOM     16  C   UNL     1     117.522 159.481 171.484  1.00  0.00     0.102 C 
ATOM     17  C   UNL     1     118.883 157.367 171.575  1.00  0.00     0.102 C 
ATOM     18  C   UNL     1     118.655 158.678 170.918  1.00  0.00     0.100 C 
ATOM     19  H   UNL     1     116.767 157.563 174.092  1.00  0.00     0.348 HD
BRANCH  18  20
ATOM     20  O   UNL     1     118.306 158.410 169.572  1.00  0.00    -0.385 OA
ATOM     21  H   UNL     1     118.346 159.274 169.091  1.00  0.00     0.211 HD
ENDBRANCH  18  20
BRANCH  18  22
ATOM     22  C   UNL     1     119.911 159.502 170.812  1.00  0.00    -0.016 A 
ATOM     23  C   UNL     1     120.446 160.163 171.899  1.00  0.00     0.008 A 
ATOM     24  C   UNL     1     120.603 159.648 169.631  1.00  0.00     0.008 A 
ATOM     25  C   UNL     1     121.591 160.925 171.844  1.00  0.00     0.021 A 
ATOM     26  C   UNL     1     121.754 160.409 169.552  1.00  0.00     0.021 A 
ATOM     27  C   UNL     1     122.246 161.046 170.659  1.00  0.00     0.041 A 
ATOM     28  Cl  UNL     1     123.702 162.008 170.569  1.00  0.00    -0.084 Cl
ENDBRANCH  18  22
ENDBRANCH  12  13
ENDBRANCH   1  12
TORSDOF 7
ENDMDL
MODEL 4
REMARK VINA RESULT:      -4.2      5.620      7.498
REMARK SMILES O=C(CCC[NH+]1CCC(O)(c2ccc(Cl)cc2)CC1)c1ccc(F)cc1
REMARK SMILES IDX 4 1 3 2 2 3 1 4 20 5 21 6 26 7 22 8 25 9 23 10 24 11 5 12
REMARK SMILES IDX 6 13 7 14 19 15 8 16 18 17 9 18 10 20 11 22 12 23 17 24
REMARK SMILES IDX 13 25 16 26 14 27 15 28
REMARK H PARENT 6 19 10 21
ROOT
ATOM      1  C   UNL     1     119.169 160.292 176.467  1.00  0.00     0.070 C 
ENDROOT
BRANCH   1   2
ATOM      2  C   UNL     1     119.083 159.528 177.770  1.00  0.00     0.087 C 
BRANCH   2   3
ATOM      3  C   UNL     1     119.852 160.119 178.867  1.00  0.00     0.163 C 
ATOM      4  O   UNL     1     119.652 161.302 179.247  1.00  0.00    -0.294 OA
BRANCH   3   5
ATOM      5  C   UNL     1     120.900 159.371 179.593  1.00  0.00     0.018 A 
ATOM      6  C   UNL     1     120.793 158.003 179.768  1.00  0.00     0.015 A 
ATOM      7  C   UNL     1     121.998 160.011 180.106  1.00  0.00     0.015 A 
ATOM      8  C   UNL     1     121.771 157.313 180.443  1.00  0.00     0.040 A 
ATOM      9  C   UNL     1     122.977 159.331 180.780  1.00  0.00     0.040 A 
ATOM     10  C   UNL     1     122.860 157.978 180.947  1.00  0.00     0.123 A 
ATOM     11  F   UNL     1     123.858 157.332 181.629  1.00  0.00    -0.207 F 
ENDBRANCH   3   5
ENDBRANCH   2   3
ENDBRANCH   1   2
BRANCH   1  12
ATOM     12  C   UNL     1     119.448 159.323 175.370  1.00  0.00     0.262 C 
BRANCH  12  13
ATOM     13  N   UNL     1     118.237 158.715 174.834  1.00  0.00    -0.335 N 
ATOM     14  C   UNL     1     117.335 159.682 174.287  1.00  0.00     0.265 C 
ATOM     15  C   UNL     1     118.573 157.728 173.860  1.00  0.00     0.265 C 
ATOM     16  C   UNL     1     117.970 160.458 173.166  1.00  0.00     0.102 C 
ATOM     17  C   UNL     1     118.347 158.075 172.450  1.00  0.00     0.102 C 
ATOM     18  C   UNL     1     118.365 159.510 172.072  1.00  0.00     0.100 C 
ATOM     19  H   UNL     1     117.750 158.296 175.682  1.00  0.00     0.348 HD
BRANCH  18  20
ATOM     20  O   UNL     1     117.403 159.679 171.046  1.00  0.00    -0.385 OA
ATOM     21  H   UNL     1     117.306 160.654 170.906  1.00  0.00     0.211 HD
ENDBRANCH  18  20
BRANCH  18  22
ATOM     22  C   UNL     1     119.661 159.926 171.429  1.00  0.00    -0.016 A 
ATOM     23  C   UNL     1     120.616 160.654 172.109  1.00  0.00     0.008 A 
ATOM     24  C   UNL     1     119.977 159.608 170.126  1.00  0.00     0.008 A 
ATOM     25  C   UNL     1     121.812 161.053 171.558  1.00  0.00     0.021 A 
ATOM     26  C   UNL     1     121.170 159.998 169.552  1.00  0.00     0.021 A 
ATOM     27  C   UNL     1     122.087 160.720 170.268  1.00  0.00     0.041 A 
ATOM     28  Cl  UNL     1     123.600 161.215 169.550  1.00  0.00    -0.084 Cl
ENDBRANCH  18  22
ENDBRANCH  12  13
ENDBRANCH   1  12
TORSDOF 7
ENDMDL
MODEL 5
REMARK VINA RESULT:      -4.1      2.952      4.830
REMARK SMILES O=C(CCC[NH+]1CCC(O)(c2ccc(Cl)cc2)CC1)c1ccc(F)cc1
REMARK SMILES IDX 4 1 3 2 2 3 1 4 20 5 21 6 26 7 22 8 25 9 23 10 24 11 5 12
REMARK SMILES IDX 6 13 7 14 19 15 8 16 18 17 9 18 10 20 11 22 12 23 17 24
REMARK SMILES IDX 13 25 16 26 14 27 15 28
REMARK H PARENT 6 19 10 21
ROOT
ATOM      1  C   UNL     1     119.816 161.683 177.149  1.00  0.00     0.070 C 
ENDROOT
BRANCH   1   2
ATOM      2  C   UNL     1     118.894 160.697 177.830  1.00  0.00     0.087 C 
BRANCH   2   3
ATOM      3  C   UNL     1     119.213 160.445 179.237  1.00  0.00     0.163 C 
ATOM      4  O   UNL     1     118.519 160.936 180.166  1.00  0.00    -0.294 OA
BRANCH   3   5
ATOM      5  C   UNL     1     120.357 159.607 179.652  1.00  0.00     0.018 A 
ATOM      6  C   UNL     1     121.588 160.179 179.916  1.00  0.00     0.015 A 
ATOM      7  C   UNL     1     120.225 158.248 179.786  1.00  0.00     0.015 A 
ATOM      8  C   UNL     1     122.648 159.393 180.301  1.00  0.00     0.040 A 
ATOM      9  C   UNL     1     121.276 157.459 180.170  1.00  0.00     0.040 A 
ATOM     10  C   UNL     1     122.489 158.036 180.428  1.00  0.00     0.123 A 
ATOM     11  F   UNL     1     123.518 157.213 180.807  1.00  0.00    -0.207 F 
ENDBRANCH   3   5
ENDBRANCH   2   3
ENDBRANCH   1   2
BRANCH   1  12
ATOM     12  C   UNL     1     119.542 163.041 177.700  1.00  0.00     0.262 C 
BRANCH  12  13
ATOM     13  N   UNL     1     120.707 163.914 177.652  1.00  0.00    -0.335 N 
ATOM     14  C   UNL     1     120.442 165.211 178.198  1.00  0.00     0.265 C 
ATOM     15  C   UNL     1     121.810 163.300 178.317  1.00  0.00     0.265 C 
ATOM     16  C   UNL     1     120.016 165.127 179.638  1.00  0.00     0.102 C 
ATOM     17  C   UNL     1     122.171 163.827 179.641  1.00  0.00     0.102 C 
ATOM     18  C   UNL     1     121.112 164.492 180.441  1.00  0.00     0.100 C 
ATOM     19  H   UNL     1     120.891 164.058 176.614  1.00  0.00     0.348 HD
BRANCH  18  20
ATOM     20  O   UNL     1     121.734 165.548 181.152  1.00  0.00    -0.385 OA
ATOM     21  H   UNL     1     121.014 166.173 181.416  1.00  0.00     0.211 HD
ENDBRANCH  18  20
BRANCH  18  22
ATOM     22  C   UNL     1     120.555 163.603 181.521  1.00  0.00    -0.016 A 
ATOM     23  C   UNL     1     121.267 162.536 182.030  1.00  0.00     0.008 A 
ATOM     24  C   UNL     1     119.306 163.796 182.068  1.00  0.00     0.008 A 
ATOM     25  C   UNL     1     120.794 161.700 183.016  1.00  0.00     0.021 A 
ATOM     26  C   UNL     1     118.811 162.970 183.058  1.00  0.00     0.021 A 
ATOM     27  C   UNL     1     119.555 161.923 183.530  1.00  0.00     0.041 A 
ATOM     28  Cl  UNL     1     118.937 160.874 184.784  1.00  0.00    -0.084 Cl
ENDBRANCH  18  22
ENDBRANCH  12  13
ENDBRANCH   1  12
TORSDOF 7
ENDMDL
MODEL 6
REMARK VINA RESULT:      -4.1      3.620      5.497
REMARK SMILES O=C(CCC[NH+]1CCC(O)(c2ccc(Cl)cc2)CC1)c1ccc(F)cc1
REMARK SMILES IDX 4 1 3 2 2 3 1 4 20 5 21 6 26 7 22 8 25 9 23 10 24 11 5 12
REMARK SMILES IDX 6 13 7 14 19 15 8 16 18 17 9 18 10 20 11 22 12 23 17 24
REMARK SMILES IDX 13 25 16 26 14 27 15 28
REMARK H PARENT 6 19 10 21
ROOT
ATOM      1  C   UNL     1     119.560 164.997 181.361  1.00  0.00     0.070 C 
ENDROOT
BRANCH   1   2
ATOM      2  C   UNL     1     121.046 165.236 181.209  1.00  0.00     0.087 C 
BRANCH   2   3
ATOM      3  C   UNL     1     121.452 165.668 179.870  1.00  0.00     0.163 C 
ATOM      4  O   UNL     1     120.873 166.617 179.282  1.00  0.00    -0.294 OA
BRANCH   3   5
ATOM      5  C   UNL     1     122.559 165.023 179.132  1.00  0.00     0.018 A 
ATOM      6  C   UNL     1     123.873 165.365 179.397  1.00  0.00     0.015 A 
ATOM      7  C   UNL     1     122.311 164.076 178.172  1.00  0.00     0.015 A 
ATOM      8  C   UNL     1     124.898 164.762 178.707  1.00  0.00     0.040 A 
ATOM      9  C   UNL     1     123.326 163.470 177.481  1.00  0.00     0.040 A 
ATOM     10  C   UNL     1     124.622 163.817 177.752  1.00  0.00     0.123 A 
ATOM     11  F   UNL     1     125.611 163.192 177.037  1.00  0.00    -0.207 F 
ENDBRANCH   3   5
ENDBRANCH   2   3
ENDBRANCH   1   2
BRANCH   1  12
ATOM     12  C   UNL     1     119.332 163.532 181.512  1.00  0.00     0.262 C 
BRANCH  12  13
ATOM     13  N   UNL     1     118.084 163.090 180.903  1.00  0.00    -0.335 N 
ATOM     14  C   UNL     1     118.164 163.027 179.476  1.00  0.00     0.265 C 
ATOM     15  C   UNL     1     117.692 161.830 181.445  1.00  0.00     0.265 C 
ATOM     16  C   UNL     1     119.234 162.072 179.024  1.00  0.00     0.102 C 
ATOM     17  C   UNL     1     117.871 160.649 180.590  1.00  0.00     0.102 C 
ATOM     18  C   UNL     1     118.919 160.699 179.539  1.00  0.00     0.100 C 
ATOM     19  H   UNL     1     117.388 163.862 181.131  1.00  0.00     0.348 HD
BRANCH  18  20
ATOM     20  O   UNL     1     118.426 159.970 178.429  1.00  0.00    -0.385 OA
ATOM     21  H   UNL     1     119.207 159.528 178.012  1.00  0.00     0.211 HD
ENDBRANCH  18  20
BRANCH  18  22
ATOM     22  C   UNL     1     120.172 159.961 179.933  1.00  0.00    -0.016 A 
ATOM     23  C   UNL     1     120.441 158.685 179.485  1.00  0.00     0.008 A 
ATOM     24  C   UNL     1     121.125 160.511 180.762  1.00  0.00     0.008 A 
ATOM     25  C   UNL     1     121.572 157.977 179.821  1.00  0.00     0.021 A 
ATOM     26  C   UNL     1     122.267 159.819 181.114  1.00  0.00     0.021 A 
ATOM     27  C   UNL     1     122.490 158.554 180.643  1.00  0.00     0.041 A 
ATOM     28  Cl  UNL     1     123.934 157.673 181.080  1.00  0.00    -0.084 Cl
ENDBRANCH  18  22
ENDBRANCH  12  13
ENDBRANCH   1  12
TORSDOF 7
ENDMDL
MODEL 7
REMARK VINA RESULT:      -4.0      1.006      1.435
REMARK SMILES O=C(CCC[NH+]1CCC(O)(c2ccc(Cl)cc2)CC1)c1ccc(F)cc1
REMARK SMILES IDX 4 1 3 2 2 3 1 4 20 5 21 6 26 7 22 8 25 9 23 10 24 11 5 12
REMARK SMILES IDX 6 13 7 14 19 15 8 16 18 17 9 18 10 20 11 22 12 23 17 24
REMARK SMILES IDX 13 25 16 26 14 27 15 28
REMARK H PARENT 6 19 10 21
ROOT
ATOM      1  C   UNL     1     120.547 157.737 178.630  1.00  0.00     0.070 C 
ENDROOT
BRANCH   1   2
ATOM      2  C   UNL     1     121.056 157.829 180.052  1.00  0.00     0.087 C 
BRANCH   2   3
ATOM      3  C   UNL     1     122.129 158.808 180.246  1.00  0.00     0.163 C 
ATOM      4  O   UNL     1     123.340 158.483 180.147  1.00  0.00    -0.294 OA
BRANCH   3   5
ATOM      5  C   UNL     1     121.858 160.225 180.565  1.00  0.00     0.018 A 
ATOM      6  C   UNL     1     121.797 160.650 181.880  1.00  0.00     0.015 A 
ATOM      7  C   UNL     1     121.663 161.149 179.570  1.00  0.00     0.015 A 
ATOM      8  C   UNL     1     121.546 161.970 182.170  1.00  0.00     0.040 A 
ATOM      9  C   UNL     1     121.412 162.465 179.851  1.00  0.00     0.040 A 
ATOM     10  C   UNL     1     121.354 162.873 181.155  1.00  0.00     0.123 A 
ATOM     11  F   UNL     1     121.098 164.198 181.397  1.00  0.00    -0.207 F 
ENDBRANCH   3   5
ENDBRANCH   2   3
ENDBRANCH   1   2
BRANCH   1  12
ATOM     12  C   UNL     1     119.506 158.785 178.435  1.00  0.00     0.262 C 
BRANCH  12  13
ATOM     13  N   UNL     1     118.188 158.227 178.163  1.00  0.00    -0.335 N 
ATOM     14  C   UNL     1     117.643 157.535 179.291  1.00  0.00     0.265 C 
ATOM     15  C   UNL     1     117.301 159.253 177.721  1.00  0.00     0.265 C 
ATOM     16  C   UNL     1     117.496 158.445 180.480  1.00  0.00     0.102 C 
ATOM     17  C   UNL     1     116.286 159.718 178.678  1.00  0.00     0.102 C 
ATOM     18  C   UNL     1     116.572 159.572 180.127  1.00  0.00     0.100 C 
ATOM     19  H   UNL     1     118.359 157.491 177.414  1.00  0.00     0.348 HD
BRANCH  18  20
ATOM     20  O   UNL     1     115.341 159.279 180.763  1.00  0.00    -0.385 OA
ATOM     21  H   UNL     1     114.685 159.939 180.426  1.00  0.00     0.211 HD
ENDBRANCH  18  20
BRANCH  18  22
ATOM     22  C   UNL     1     117.014 160.863 180.764  1.00  0.00    -0.016 A 
ATOM     23  C   UNL     1     116.993 162.061 180.080  1.00  0.00     0.008 A 
ATOM     24  C   UNL     1     117.467 160.931 182.063  1.00  0.00     0.008 A 
ATOM     25  C   UNL     1     117.388 163.262 180.625  1.00  0.00     0.021 A 
ATOM     26  C   UNL     1     117.869 162.124 182.631  1.00  0.00     0.021 A 
ATOM     27  C   UNL     1     117.829 163.287 181.912  1.00  0.00     0.041 A 
ATOM     28  Cl  UNL     1     118.334 164.801 182.623  1.00  0.00    -0.084 Cl
ENDBRANCH  18  22
ENDBRANCH  12  13
ENDBRANCH   1  12
TORSDOF 7
ENDMDL
MODEL 8
REMARK VINA RESULT:      -4.0      5.077      7.799
REMARK SMILES O=C(CCC[NH+]1CCC(O)(c2ccc(Cl)cc2)CC1)c1ccc(F)cc1
REMARK SMILES IDX 4 1 3 2 2 3 1 4 20 5 21 6 26 7 22 8 25 9 23 10 24 11 5 12
REMARK SMILES IDX 6 13 7 14 19 15 8 16 18 17 9 18 10 20 11 22 12 23 17 24
REMARK SMILES IDX 13 25 16 26 14 27 15 28
REMARK H PARENT 6 19 10 21
ROOT
ATOM      1  C   UNL     1     121.352 164.331 180.322  1.00  0.00     0.070 C 
ENDROOT
BRANCH   1   2
ATOM      2  C   UNL     1     121.157 163.060 179.527  1.00  0.00     0.087 C 
BRANCH   2   3
ATOM      3  C   UNL     1     121.148 161.838 180.335  1.00  0.00     0.163 C 
ATOM      4  O   UNL     1     121.827 160.830 180.011  1.00  0.00    -0.294 OA
BRANCH   3   5
ATOM      5  C   UNL     1     120.349 161.714 181.573  1.00  0.00     0.018 A 
ATOM      6  C   UNL     1     118.968 161.656 181.515  1.00  0.00     0.015 A 
ATOM      7  C   UNL     1     120.955 161.654 182.802  1.00  0.00     0.015 A 
ATOM      8  C   UNL     1     118.231 161.541 182.670  1.00  0.00     0.040 A 
ATOM      9  C   UNL     1     120.228 161.539 183.956  1.00  0.00     0.040 A 
ATOM     10  C   UNL     1     118.863 161.482 183.886  1.00  0.00     0.123 A 
ATOM     11  F   UNL     1     118.169 161.369 185.063  1.00  0.00    -0.207 F 
ENDBRANCH   3   5
ENDBRANCH   2   3
ENDBRANCH   1   2
BRANCH   1  12
ATOM     12  C   UNL     1     122.731 164.326 180.887  1.00  0.00     0.262 C 
BRANCH  12  13
ATOM     13  N   UNL     1     123.211 165.662 181.214  1.00  0.00    -0.335 N 
ATOM     14  C   UNL     1     124.640 165.748 181.204  1.00  0.00     0.265 C 
ATOM     15  C   UNL     1     122.640 166.621 180.324  1.00  0.00     0.265 C 
ATOM     16  C   UNL     1     125.206 165.397 179.856  1.00  0.00     0.102 C 
ATOM     17  C   UNL     1     123.518 167.172 179.282  1.00  0.00     0.102 C 
ATOM     18  C   UNL     1     124.670 166.352 178.832  1.00  0.00     0.100 C 
ATOM     19  H   UNL     1     122.908 165.816 182.222  1.00  0.00     0.348 HD
BRANCH  18  20
ATOM     20  O   UNL     1     125.728 167.249 178.545  1.00  0.00    -0.385 OA
ATOM     21  H   UNL     1     125.329 168.010 178.054  1.00  0.00     0.211 HD
ENDBRANCH  18  20
BRANCH  18  22
ATOM     22  C   UNL     1     124.412 165.660 177.519  1.00  0.00    -0.016 A 
ATOM     23  C   UNL     1     124.342 164.286 177.417  1.00  0.00     0.008 A 
ATOM     24  C   UNL     1     124.230 166.351 176.341  1.00  0.00     0.008 A 
ATOM     25  C   UNL     1     124.109 163.615 176.238  1.00  0.00     0.021 A 
ATOM     26  C   UNL     1     123.995 165.700 175.146  1.00  0.00     0.021 A 
ATOM     27  C   UNL     1     123.935 164.333 175.096  1.00  0.00     0.041 A 
ATOM     28  Cl  UNL     1     123.636 163.501 173.589  1.00  0.00    -0.084 Cl
ENDBRANCH  18  22
ENDBRANCH  12  13
ENDBRANCH   1  12
TORSDOF 7
ENDMDL
MODEL 9
REMARK VINA RESULT:      -4.0      4.251      6.145
REMARK SMILES O=C(CCC[NH+]1CCC(O)(c2ccc(Cl)cc2)CC1)c1ccc(F)cc1
REMARK SMILES IDX 4 1 3 2 2 3 1 4 20 5 21 6 26 7 22 8 25 9 23 10 24 11 5 12
REMARK SMILES IDX 6 13 7 14 19 15 8 16 18 17 9 18 10 20 11 22 12 23 17 24
REMARK SMILES IDX 13 25 16 26 14 27 15 28
REMARK H PARENT 6 19 10 21
ROOT
ATOM      1  C   UNL     1     121.039 165.184 181.026  1.00  0.00     0.070 C 
ENDROOT
BRANCH   1   2
ATOM      2  C   UNL     1     122.349 165.190 180.268  1.00  0.00     0.087 C 
BRANCH   2   3
ATOM      3  C   UNL     1     122.327 165.977 179.034  1.00  0.00     0.163 C 
ATOM      4  O   UNL     1     121.659 167.039 178.943  1.00  0.00    -0.294 OA
BRANCH   3   5
ATOM      5  C   UNL     1     123.084 165.579 177.828  1.00  0.00     0.018 A 
ATOM      6  C   UNL     1     123.448 166.522 176.884  1.00  0.00     0.015 A 
ATOM      7  C   UNL     1     123.440 164.271 177.616  1.00  0.00     0.015 A 
ATOM      8  C   UNL     1     124.151 166.146 175.764  1.00  0.00     0.040 A 
ATOM      9  C   UNL     1     124.141 163.889 176.504  1.00  0.00     0.040 A 
ATOM     10  C   UNL     1     124.496 164.831 175.578  1.00  0.00     0.123 A 
ATOM     11  F   UNL     1     125.194 164.409 174.476  1.00  0.00    -0.207 F 
ENDBRANCH   3   5
ENDBRANCH   2   3
ENDBRANCH   1   2
BRANCH   1  12
ATOM     12  C   UNL     1     120.522 163.787 181.060  1.00  0.00     0.262 C 
BRANCH  12  13
ATOM     13  N   UNL     1     119.299 163.620 180.285  1.00  0.00    -0.335 N 
ATOM     14  C   UNL     1     119.555 163.462 178.886  1.00  0.00     0.265 C 
ATOM     15  C   UNL     1     118.545 162.518 180.789  1.00  0.00     0.265 C 
ATOM     16  C   UNL     1     120.415 162.259 178.613  1.00  0.00     0.102 C 
ATOM     17  C   UNL     1     118.550 161.283 179.992  1.00  0.00     0.102 C 
ATOM     18  C   UNL     1     119.711 161.029 179.104  1.00  0.00     0.100 C 
ATOM     19  H   UNL     1     118.785 164.544 180.394  1.00  0.00     0.348 HD
BRANCH  18  20
ATOM     20  O   UNL     1     119.213 160.378 177.949  1.00  0.00    -0.385 OA
ATOM     21  H   UNL     1     118.267 160.652 177.856  1.00  0.00     0.211 HD
ENDBRANCH  18  20
BRANCH  18  22
ATOM     22  C   UNL     1     120.684 160.039 179.690  1.00  0.00    -0.016 A 
ATOM     23  C   UNL     1     120.676 158.706 179.334  1.00  0.00     0.008 A 
ATOM     24  C   UNL     1     121.639 160.399 180.615  1.00  0.00     0.008 A 
ATOM     25  C   UNL     1     121.546 157.771 179.845  1.00  0.00     0.021 A 
ATOM     26  C   UNL     1     122.522 159.478 181.143  1.00  0.00     0.021 A 
ATOM     27  C   UNL     1     122.475 158.165 180.757  1.00  0.00     0.041 A 
ATOM     28  Cl  UNL     1     123.591 156.994 181.418  1.00  0.00    -0.084 Cl
ENDBRANCH  18  22
ENDBRANCH  12  13
ENDBRANCH   1  12
TORSDOF 7
ENDMDL
