MODEL 1
REMARK VINA RESULT:      -4.9      0.000      0.000
REMARK SMILES CC/C(=C(\c1ccccc1)c1ccc(OCC[NH+](C)C)cc1)c1ccccc1
REMARK SMILES IDX 15 1 14 2 11 3 12 4 22 5 13 6 21 7 4 8 3 9 2 10 1 11 23 12
REMARK SMILES IDX 24 13 28 14 25 15 27 16 26 17 5 18 6 19 10 20 7 21 9 22 8 23
REMARK SMILES IDX 16 24 17 25 18 26 19 27 20 28
REMARK H PARENT 18 29
ROOT
ATOM      1  O   UNL     1     120.447 159.483 172.029  1.00  0.00    -0.488 OA
ENDROOT
BRANCH   1   2
ATOM      2  C   UNL     1     120.076 159.463 173.361  1.00  0.00     0.119 A 
ATOM      3  C   UNL     1     119.350 159.314 176.120  1.00  0.00    -0.017 A 
ATOM      4  C   UNL     1     119.205 160.478 175.392  1.00  0.00     0.012 A 
ATOM      5  C   UNL     1     119.867 158.224 175.427  1.00  0.00     0.012 A 
ATOM      6  C   UNL     1     119.562 160.535 174.054  1.00  0.00     0.047 A 
ATOM      7  C   UNL     1     120.220 158.283 174.105  1.00  0.00     0.047 A 
BRANCH   3   8
ATOM      8  C   UNL     1     118.962 159.218 177.516  1.00  0.00    -0.007 C 
ATOM      9  C   UNL     1     117.714 159.133 177.899  1.00  0.00    -0.033 C 
BRANCH   9  10
ATOM     10  C   UNL     1     117.259 159.080 179.315  1.00  0.00     0.033 C 
ATOM     11  C   UNL     1     116.904 157.663 179.659  1.00  0.00     0.009 C 
ENDBRANCH   9  10
BRANCH   9  12
ATOM     12  C   UNL     1     116.625 159.010 176.913  1.00  0.00    -0.022 A 
ATOM     13  C   UNL     1     116.419 157.860 176.196  1.00  0.00     0.008 A 
ATOM     14  C   UNL     1     115.814 160.085 176.713  1.00  0.00     0.008 A 
ATOM     15  C   UNL     1     115.397 157.801 175.283  1.00  0.00     0.001 A 
ATOM     16  C   UNL     1     114.761 160.069 175.793  1.00  0.00     0.001 A 
ATOM     17  C   UNL     1     114.579 158.901 175.089  1.00  0.00     0.000 A 
ENDBRANCH   9  12
BRANCH   8  18
ATOM     18  C   UNL     1     120.011 159.258 178.515  1.00  0.00    -0.018 A 
ATOM     19  C   UNL     1     120.511 160.445 179.013  1.00  0.00     0.009 A 
ATOM     20  C   UNL     1     120.575 158.067 178.963  1.00  0.00     0.009 A 
ATOM     21  C   UNL     1     121.537 160.413 179.922  1.00  0.00     0.001 A 
ATOM     22  C   UNL     1     121.604 158.017 179.875  1.00  0.00     0.001 A 
ATOM     23  C   UNL     1     122.090 159.226 180.362  1.00  0.00     0.000 A 
ENDBRANCH   8  18
ENDBRANCH   3   8
ENDBRANCH   1   2
BRANCH   1  24
ATOM     24  C   UNL     1     120.555 160.567 171.177  1.00  0.00     0.290 C 
BRANCH  24  25
ATOM     25  C   UNL     1     121.951 160.906 170.723  1.00  0.00     0.303 C 
BRANCH  25  26
ATOM     26  N   UNL     1     122.648 161.751 171.645  1.00  0.00    -0.337 N 
ATOM     27  C   UNL     1     121.834 162.827 172.167  1.00  0.00     0.332 C 
ATOM     28  C   UNL     1     123.833 162.354 171.070  1.00  0.00     0.332 C 
ATOM     29  H   UNL     1     122.990 161.203 172.490  1.00  0.00     0.347 HD
ENDBRANCH  25  26
ENDBRANCH  24  25
ENDBRANCH   1  24
TORSDOF 8
ENDMDL
MODEL 2
REMARK VINA RESULT:      -4.8      6.341      9.608
REMARK SMILES CC/C(=C(\c1ccccc1)c1ccc(OCC[NH+](C)C)cc1)c1ccccc1
REMARK SMILES IDX 15 1 14 2 11 3 12 4 22 5 13 6 21 7 4 8 3 9 2 10 1 11 23 12
REMARK SMILES IDX 24 13 28 14 25 15 27 16 26 17 5 18 6 19 10 20 7 21 9 22 8 23
REMARK SMILES IDX 16 24 17 25 18 26 19 27 20 28
REMARK H PARENT 18 29
ROOT
ATOM      1  O   UNL     1     117.403 161.628 185.925  1.00  0.00    -0.488 OA
ENDROOT
BRANCH   1   2
ATOM      2  C   UNL     1     118.125 161.595 184.747  1.00  0.00     0.119 A 
ATOM      3  C   UNL     1     119.517 161.512 182.254  1.00  0.00    -0.017 A 
ATOM      4  C   UNL     1     120.174 161.745 183.446  1.00  0.00     0.012 A 
ATOM      5  C   UNL     1     118.142 161.319 182.345  1.00  0.00     0.012 A 
ATOM      6  C   UNL     1     119.484 161.783 184.648  1.00  0.00     0.047 A 
ATOM      7  C   UNL     1     117.463 161.357 183.533  1.00  0.00     0.047 A 
BRANCH   3   8
ATOM      8  C   UNL     1     120.217 161.444 180.983  1.00  0.00    -0.007 C 
ATOM      9  C   UNL     1     120.224 162.432 180.126  1.00  0.00    -0.033 C 
BRANCH   9  10
ATOM     10  C   UNL     1     120.883 162.398 178.792  1.00  0.00     0.033 C 
ATOM     11  C   UNL     1     122.234 163.043 178.901  1.00  0.00     0.009 C 
ENDBRANCH   9  10
BRANCH   9  12
ATOM     12  C   UNL     1     119.609 163.730 180.459  1.00  0.00    -0.022 A 
ATOM     13  C   UNL     1     120.223 164.633 181.289  1.00  0.00     0.008 A 
ATOM     14  C   UNL     1     118.390 164.021 179.927  1.00  0.00     0.008 A 
ATOM     15  C   UNL     1     119.604 165.823 181.575  1.00  0.00     0.001 A 
ATOM     16  C   UNL     1     117.724 165.220 180.192  1.00  0.00     0.001 A 
ATOM     17  C   UNL     1     118.364 166.107 181.027  1.00  0.00     0.000 A 
ENDBRANCH   9  12
BRANCH   8  18
ATOM     18  C   UNL     1     120.899 160.210 180.650  1.00  0.00    -0.018 A 
ATOM     19  C   UNL     1     120.330 159.248 179.840  1.00  0.00     0.009 A 
ATOM     20  C   UNL     1     122.152 159.950 181.199  1.00  0.00     0.009 A 
ATOM     21  C   UNL     1     121.010 158.081 179.604  1.00  0.00     0.001 A 
ATOM     22  C   UNL     1     122.848 158.786 180.971  1.00  0.00     0.001 A 
ATOM     23  C   UNL     1     122.254 157.832 180.150  1.00  0.00     0.000 A 
ENDBRANCH   8  18
ENDBRANCH   3   8
ENDBRANCH   1   2
BRANCH   1  24
ATOM     24  C   UNL     1     117.301 162.653 186.849  1.00  0.00     0.290 C 
BRANCH  24  25
ATOM     25  C   UNL     1     116.815 163.974 186.312  1.00  0.00     0.303 C 
BRANCH  25  26
ATOM     26  N   UNL     1     117.828 164.985 186.315  1.00  0.00    -0.337 N 
ATOM     27  C   UNL     1     118.271 165.358 184.989  1.00  0.00     0.332 C 
ATOM     28  C   UNL     1     119.006 164.599 187.065  1.00  0.00     0.332 C 
ATOM     29  H   UNL     1     117.481 165.880 186.772  1.00  0.00     0.347 HD
ENDBRANCH  25  26
ENDBRANCH  24  25
ENDBRANCH   1  24
TORSDOF 8
ENDMDL
MODEL 3
REMARK VINA RESULT:      -4.8      6.401      8.973
REMARK SMILES CC/C(=C(\c1ccccc1)c1ccc(OCC[NH+](C)C)cc1)c1ccccc1
REMARK SMILES IDX 15 1 14 2 11 3 12 4 22 5 13 6 21 7 4 8 3 9 2 10 1 11 23 12
REMARK SMILES IDX 24 13 28 14 25 15 27 16 26 17 5 18 6 19 10 20 7 21 9 22 8 23
REMARK SMILES IDX 16 24 17 25 18 26 19 27 20 28
REMARK H PARENT 18 29
ROOT
ATOM      1  O   UNL     1     121.127 162.015 180.562  1.00  0.00    -0.488 OA
ENDROOT
BRANCH   1   2
ATOM      2  C   UNL     1     120.460 162.211 181.757  1.00  0.00     0.119 A 
ATOM      3  C   UNL     1     119.154 162.537 184.276  1.00  0.00    -0.017 A 
ATOM      4  C   UNL     1     118.810 163.296 183.175  1.00  0.00     0.012 A 
ATOM      5  C   UNL     1     120.170 161.607 184.080  1.00  0.00     0.012 A 
ATOM      6  C   UNL     1     119.454 163.126 181.959  1.00  0.00     0.047 A 
ATOM      7  C   UNL     1     120.804 161.441 182.878  1.00  0.00     0.047 A 
BRANCH   3   8
ATOM      8  C   UNL     1     118.481 162.677 185.555  1.00  0.00    -0.007 C 
ATOM      9  C   UNL     1     117.375 162.040 185.846  1.00  0.00    -0.033 C 
BRANCH   9  10
ATOM     10  C   UNL     1     116.620 162.182 187.120  1.00  0.00     0.033 C 
ATOM     11  C   UNL     1     115.540 163.207 186.933  1.00  0.00     0.009 C 
ENDBRANCH   9  10
BRANCH   9  12
ATOM     12  C   UNL     1     116.808 161.044 184.919  1.00  0.00    -0.022 A 
ATOM     13  C   UNL     1     117.146 159.716 184.983  1.00  0.00     0.008 A 
ATOM     14  C   UNL     1     115.931 161.473 183.970  1.00  0.00     0.008 A 
ATOM     15  C   UNL     1     116.596 158.831 184.091  1.00  0.00     0.001 A 
ATOM     16  C   UNL     1     115.348 160.606 183.042  1.00  0.00     0.001 A 
ATOM     17  C   UNL     1     115.705 159.280 183.131  1.00  0.00     0.000 A 
ENDBRANCH   9  12
BRANCH   8  18
ATOM     18  C   UNL     1     119.050 163.590 186.525  1.00  0.00    -0.018 A 
ATOM     19  C   UNL     1     118.837 164.953 186.468  1.00  0.00     0.009 A 
ATOM     20  C   UNL     1     119.881 163.096 187.526  1.00  0.00     0.009 A 
ATOM     21  C   UNL     1     119.445 165.767 187.388  1.00  0.00     0.001 A 
ATOM     22  C   UNL     1     120.498 163.898 188.458  1.00  0.00     0.001 A 
ATOM     23  C   UNL     1     120.267 165.268 188.380  1.00  0.00     0.000 A 
ENDBRANCH   8  18
ENDBRANCH   3   8
ENDBRANCH   1   2
BRANCH   1  24
ATOM     24  C   UNL     1     121.646 160.842 180.042  1.00  0.00     0.290 C 
BRANCH  24  25
ATOM     25  C   UNL     1     120.636 159.858 179.513  1.00  0.00     0.303 C 
BRANCH  25  26
ATOM     26  N   UNL     1     120.789 158.548 180.069  1.00  0.00    -0.337 N 
ATOM     27  C   UNL     1     122.161 158.214 180.387  1.00  0.00     0.332 C 
ATOM     28  C   UNL     1     120.288 157.504 179.199  1.00  0.00     0.332 C 
ATOM     29  H   UNL     1     120.244 158.446 180.977  1.00  0.00     0.347 HD
ENDBRANCH  25  26
ENDBRANCH  24  25
ENDBRANCH   1  24
TORSDOF 8
ENDMDL
MODEL 4
REMARK VINA RESULT:      -4.7      1.973      2.738
REMARK SMILES CC/C(=C(\c1ccccc1)c1ccc(OCC[NH+](C)C)cc1)c1ccccc1
REMARK SMILES IDX 15 1 14 2 11 3 12 4 22 5 13 6 21 7 4 8 3 9 2 10 1 11 23 12
REMARK SMILES IDX 24 13 28 14 25 15 27 16 26 17 5 18 6 19 10 20 7 21 9 22 8 23
REMARK SMILES IDX 16 24 17 25 18 26 19 27 20 28
REMARK H PARENT 18 29
ROOT
ATOM      1  O   UNL     1     119.936 160.201 172.586  1.00  0.00    -0.488 OA
ENDROOT
BRANCH   1   2
ATOM      2  C   UNL     1     119.737 159.985 173.937  1.00  0.00     0.119 A 
ATOM      3  C   UNL     1     119.354 159.427 176.712  1.00  0.00    -0.017 A 
ATOM      4  C   UNL     1     119.272 160.711 176.210  1.00  0.00     0.012 A 
ATOM      5  C   UNL     1     119.632 158.428 175.784  1.00  0.00     0.012 A 
ATOM      6  C   UNL     1     119.461 160.966 174.861  1.00  0.00     0.047 A 
ATOM      7  C   UNL     1     119.818 158.683 174.451  1.00  0.00     0.047 A 
BRANCH   3   8
ATOM      8  C   UNL     1     119.138 159.127 178.116  1.00  0.00    -0.007 C 
ATOM      9  C   UNL     1     117.946 158.948 178.625  1.00  0.00    -0.033 C 
BRANCH   9  10
ATOM     10  C   UNL     1     117.663 158.685 180.063  1.00  0.00     0.033 C 
ATOM     11  C   UNL     1     117.359 159.988 180.744  1.00  0.00     0.009 C 
ENDBRANCH   9  10
BRANCH   9  12
ATOM     12  C   UNL     1     116.749 158.926 177.765  1.00  0.00    -0.022 A 
ATOM     13  C   UNL     1     116.275 157.766 177.208  1.00  0.00     0.008 A 
ATOM     14  C   UNL     1     116.112 160.104 177.517  1.00  0.00     0.008 A 
ATOM     15  C   UNL     1     115.162 157.801 176.406  1.00  0.00     0.001 A 
ATOM     16  C   UNL     1     114.977 160.186 176.706  1.00  0.00     0.001 A 
ATOM     17  C   UNL     1     114.524 159.006 176.162  1.00  0.00     0.000 A 
ENDBRANCH   9  12
BRANCH   8  18
ATOM     18  C   UNL     1     120.297 159.063 178.983  1.00  0.00    -0.018 A 
ATOM     19  C   UNL     1     120.899 157.869 179.324  1.00  0.00     0.009 A 
ATOM     20  C   UNL     1     120.803 160.236 179.536  1.00  0.00     0.009 A 
ATOM     21  C   UNL     1     121.964 157.875 180.187  1.00  0.00     0.001 A 
ATOM     22  C   UNL     1     121.871 160.261 180.402  1.00  0.00     0.001 A 
ATOM     23  C   UNL     1     122.461 159.044 180.731  1.00  0.00     0.000 A 
ENDBRANCH   8  18
ENDBRANCH   3   8
ENDBRANCH   1   2
BRANCH   1  24
ATOM     24  C   UNL     1     119.560 159.405 171.518  1.00  0.00     0.290 C 
BRANCH  24  25
ATOM     25  C   UNL     1     118.098 159.441 171.157  1.00  0.00     0.303 C 
BRANCH  25  26
ATOM     26  N   UNL     1     117.431 158.198 171.404  1.00  0.00    -0.337 N 
ATOM     27  C   UNL     1     116.643 158.200 172.617  1.00  0.00     0.332 C 
ATOM     28  C   UNL     1     118.344 157.077 171.491  1.00  0.00     0.332 C 
ATOM     29  H   UNL     1     116.759 157.956 170.616  1.00  0.00     0.347 HD
ENDBRANCH  25  26
ENDBRANCH  24  25
ENDBRANCH   1  24
TORSDOF 8
ENDMDL
MODEL 5
REMARK VINA RESULT:      -4.7      5.559      9.475
REMARK SMILES CC/C(=C(\c1ccccc1)c1ccc(OCC[NH+](C)C)cc1)c1ccccc1
REMARK SMILES IDX 15 1 14 2 11 3 12 4 22 5 13 6 21 7 4 8 3 9 2 10 1 11 23 12
REMARK SMILES IDX 24 13 28 14 25 15 27 16 26 17 5 18 6 19 10 20 7 21 9 22 8 23
REMARK SMILES IDX 16 24 17 25 18 26 19 27 20 28
REMARK H PARENT 18 29
ROOT
ATOM      1  O   UNL     1     118.422 161.552 185.150  1.00  0.00    -0.488 OA
ENDROOT
BRANCH   1   2
ATOM      2  C   UNL     1     119.182 161.946 184.064  1.00  0.00     0.119 A 
ATOM      3  C   UNL     1     120.669 162.835 181.793  1.00  0.00    -0.017 A 
ATOM      4  C   UNL     1     121.182 161.911 182.682  1.00  0.00     0.012 A 
ATOM      5  C   UNL     1     119.389 163.301 182.073  1.00  0.00     0.012 A 
ATOM      6  C   UNL     1     120.448 161.489 183.779  1.00  0.00     0.047 A 
ATOM      7  C   UNL     1     118.665 162.884 183.158  1.00  0.00     0.047 A 
BRANCH   3   8
ATOM      8  C   UNL     1     121.405 163.277 180.622  1.00  0.00    -0.007 C 
ATOM      9  C   UNL     1     121.632 162.499 179.595  1.00  0.00    -0.033 C 
BRANCH   9  10
ATOM     10  C   UNL     1     122.419 162.885 178.392  1.00  0.00     0.033 C 
ATOM     11  C   UNL     1     121.483 163.425 177.351  1.00  0.00     0.009 C 
ENDBRANCH   9  10
BRANCH   9  12
ATOM     12  C   UNL     1     121.045 161.149 179.521  1.00  0.00    -0.022 A 
ATOM     13  C   UNL     1     119.737 160.944 179.162  1.00  0.00     0.008 A 
ATOM     14  C   UNL     1     121.836 160.085 179.831  1.00  0.00     0.008 A 
ATOM     15  C   UNL     1     119.237 159.667 179.118  1.00  0.00     0.001 A 
ATOM     16  C   UNL     1     121.367 158.769 179.800  1.00  0.00     0.001 A 
ATOM     17  C   UNL     1     120.052 158.594 179.436  1.00  0.00     0.000 A 
ENDBRANCH   9  12
BRANCH   8  18
ATOM     18  C   UNL     1     121.935 164.626 180.623  1.00  0.00    -0.018 A 
ATOM     19  C   UNL     1     123.236 164.907 180.989  1.00  0.00     0.009 A 
ATOM     20  C   UNL     1     121.100 165.689 180.291  1.00  0.00     0.009 A 
ATOM     21  C   UNL     1     123.660 166.211 181.014  1.00  0.00     0.001 A 
ATOM     22  C   UNL     1     121.509 167.002 180.310  1.00  0.00     0.001 A 
ATOM     23  C   UNL     1     122.825 167.260 180.682  1.00  0.00     0.000 A 
ENDBRANCH   8  18
ENDBRANCH   3   8
ENDBRANCH   1   2
BRANCH   1  24
ATOM     24  C   UNL     1     117.044 161.517 185.274  1.00  0.00     0.290 C 
BRANCH  24  25
ATOM     25  C   UNL     1     116.438 160.151 185.462  1.00  0.00     0.303 C 
BRANCH  25  26
ATOM     26  N   UNL     1     117.107 159.135 184.706  1.00  0.00    -0.337 N 
ATOM     27  C   UNL     1     116.531 158.921 183.396  1.00  0.00     0.332 C 
ATOM     28  C   UNL     1     117.125 157.853 185.378  1.00  0.00     0.332 C 
ATOM     29  H   UNL     1     118.128 159.384 184.542  1.00  0.00     0.347 HD
ENDBRANCH  25  26
ENDBRANCH  24  25
ENDBRANCH   1  24
TORSDOF 8
ENDMDL
MODEL 6
REMARK VINA RESULT:      -4.7      3.747      5.888
REMARK SMILES CC/C(=C(\c1ccccc1)c1ccc(OCC[NH+](C)C)cc1)c1ccccc1
REMARK SMILES IDX 15 1 14 2 11 3 12 4 22 5 13 6 21 7 4 8 3 9 2 10 1 11 23 12
REMARK SMILES IDX 24 13 28 14 25 15 27 16 26 17 5 18 6 19 10 20 7 21 9 22 8 23
REMARK SMILES IDX 16 24 17 25 18 26 19 27 20 28
REMARK H PARENT 18 29
ROOT
ATOM      1  O   UNL     1     123.929 164.863 175.397  1.00  0.00    -0.488 OA
ENDROOT
BRANCH   1   2
ATOM      2  C   UNL     1     123.174 164.209 176.353  1.00  0.00     0.119 A 
ATOM      3  C   UNL     1     121.708 162.859 178.400  1.00  0.00    -0.017 A 
ATOM      4  C   UNL     1     121.115 163.243 177.213  1.00  0.00     0.012 A 
ATOM      5  C   UNL     1     123.058 163.168 178.532  1.00  0.00     0.012 A 
ATOM      6  C   UNL     1     121.840 163.898 176.230  1.00  0.00     0.047 A 
ATOM      7  C   UNL     1     123.772 163.815 177.560  1.00  0.00     0.047 A 
BRANCH   3   8
ATOM      8  C   UNL     1     120.980 162.151 179.437  1.00  0.00    -0.007 C 
ATOM      9  C   UNL     1     120.344 162.766 180.400  1.00  0.00    -0.033 C 
BRANCH   9  10
ATOM     10  C   UNL     1     119.623 162.091 181.514  1.00  0.00     0.033 C 
ATOM     11  C   UNL     1     120.538 161.997 182.699  1.00  0.00     0.009 C 
ENDBRANCH   9  10
BRANCH   9  12
ATOM     12  C   UNL     1     120.233 164.236 180.418  1.00  0.00    -0.022 A 
ATOM     13  C   UNL     1     121.231 165.034 180.916  1.00  0.00     0.008 A 
ATOM     14  C   UNL     1     119.095 164.802 179.931  1.00  0.00     0.008 A 
ATOM     15  C   UNL     1     121.075 166.397 180.919  1.00  0.00     0.001 A 
ATOM     16  C   UNL     1     118.893 166.186 179.916  1.00  0.00     0.001 A 
ATOM     17  C   UNL     1     119.912 166.961 180.421  1.00  0.00     0.000 A 
ENDBRANCH   9  12
BRANCH   8  18
ATOM     18  C   UNL     1     121.000 160.702 179.411  1.00  0.00    -0.018 A 
ATOM     19  C   UNL     1     120.031 159.962 178.763  1.00  0.00     0.009 A 
ATOM     20  C   UNL     1     121.998 160.018 180.100  1.00  0.00     0.009 A 
ATOM     21  C   UNL     1     120.082 158.593 178.818  1.00  0.00     0.001 A 
ATOM     22  C   UNL     1     122.065 158.646 180.164  1.00  0.00     0.001 A 
ATOM     23  C   UNL     1     121.077 157.923 179.502  1.00  0.00     0.000 A 
ENDBRANCH   8  18
ENDBRANCH   3   8
ENDBRANCH   1   2
BRANCH   1  24
ATOM     24  C   UNL     1     123.758 164.883 174.024  1.00  0.00     0.290 C 
BRANCH  24  25
ATOM     25  C   UNL     1     123.658 163.536 173.357  1.00  0.00     0.303 C 
BRANCH  25  26
ATOM     26  N   UNL     1     124.293 163.500 172.075  1.00  0.00    -0.337 N 
ATOM     27  C   UNL     1     124.009 164.662 171.259  1.00  0.00     0.332 C 
ATOM     28  C   UNL     1     123.926 162.334 171.298  1.00  0.00     0.332 C 
ATOM     29  H   UNL     1     125.351 163.457 172.167  1.00  0.00     0.347 HD
ENDBRANCH  25  26
ENDBRANCH  24  25
ENDBRANCH   1  24
TORSDOF 8
ENDMDL
MODEL 7
REMARK VINA RESULT:      -4.6      5.548      9.355
REMARK SMILES CC/C(=C(\c1ccccc1)c1ccc(OCC[NH+](C)C)cc1)c1ccccc1
REMARK SMILES IDX 15 1 14 2 11 3 12 4 22 5 13 6 21 7 4 8 3 9 2 10 1 11 23 12
REMARK SMILES IDX 24 13 28 14 25 15 27 16 26 17 5 18 6 19 10 20 7 21 9 22 8 23
REMARK SMILES IDX 16 24 17 25 18 26 19 27 20 28
REMARK H PARENT 18 29
ROOT
ATOM      1  O   UNL     1     118.248 160.815 185.112  1.00  0.00    -0.488 OA
ENDROOT
BRANCH   1   2
ATOM      2  C   UNL     1     118.858 161.340 183.988  1.00  0.00     0.119 A 
ATOM      3  C   UNL     1     120.220 162.403 181.713  1.00  0.00    -0.017 A 
ATOM      4  C   UNL     1     118.845 162.276 181.744  1.00  0.00     0.012 A 
ATOM      5  C   UNL     1     120.895 161.984 182.856  1.00  0.00     0.012 A 
ATOM      6  C   UNL     1     118.199 161.758 182.855  1.00  0.00     0.047 A 
ATOM      7  C   UNL     1     120.253 161.472 183.952  1.00  0.00     0.047 A 
BRANCH   3   8
ATOM      8  C   UNL     1     120.923 162.965 180.573  1.00  0.00    -0.007 C 
ATOM      9  C   UNL     1     121.434 162.224 179.624  1.00  0.00    -0.033 C 
BRANCH   9  10
ATOM     10  C   UNL     1     122.203 162.743 178.460  1.00  0.00     0.033 C 
ATOM     11  C   UNL     1     121.241 163.123 177.372  1.00  0.00     0.009 C 
ENDBRANCH   9  10
BRANCH   9  12
ATOM     12  C   UNL     1     121.220 160.766 179.600  1.00  0.00    -0.022 A 
ATOM     13  C   UNL     1     122.129 159.889 180.134  1.00  0.00     0.008 A 
ATOM     14  C   UNL     1     120.085 160.291 179.017  1.00  0.00     0.008 A 
ATOM     15  C   UNL     1     121.887 158.540 180.077  1.00  0.00     0.001 A 
ATOM     16  C   UNL     1     119.799 158.925 178.936  1.00  0.00     0.001 A 
ATOM     17  C   UNL     1     120.728 158.070 179.481  1.00  0.00     0.000 A 
ENDBRANCH   9  12
BRANCH   8  18
ATOM     18  C   UNL     1     121.088 164.403 180.520  1.00  0.00    -0.018 A 
ATOM     19  C   UNL     1     120.073 165.248 180.117  1.00  0.00     0.009 A 
ATOM     20  C   UNL     1     122.322 164.963 180.837  1.00  0.00     0.009 A 
ATOM     21  C   UNL     1     120.311 166.596 180.043  1.00  0.00     0.001 A 
ATOM     22  C   UNL     1     122.578 166.313 180.770  1.00  0.00     0.001 A 
ATOM     23  C   UNL     1     121.538 167.143 180.361  1.00  0.00     0.000 A 
ENDBRANCH   8  18
ENDBRANCH   3   8
ENDBRANCH   1   2
BRANCH   1  24
ATOM     24  C   UNL     1     116.989 160.253 185.232  1.00  0.00     0.290 C 
BRANCH  24  25
ATOM     25  C   UNL     1     116.914 158.764 185.013  1.00  0.00     0.303 C 
BRANCH  25  26
ATOM     26  N   UNL     1     115.991 158.398 183.983  1.00  0.00    -0.337 N 
ATOM     27  C   UNL     1     115.252 159.520 183.446  1.00  0.00     0.332 C 
ATOM     28  C   UNL     1     115.018 157.418 184.422  1.00  0.00     0.332 C 
ATOM     29  H   UNL     1     116.489 157.951 183.157  1.00  0.00     0.347 HD
ENDBRANCH  25  26
ENDBRANCH  24  25
ENDBRANCH   1  24
TORSDOF 8
ENDMDL
MODEL 8
REMARK VINA RESULT:      -4.6      5.798      9.696
REMARK SMILES CC/C(=C(\c1ccccc1)c1ccc(OCC[NH+](C)C)cc1)c1ccccc1
REMARK SMILES IDX 15 1 14 2 11 3 12 4 22 5 13 6 21 7 4 8 3 9 2 10 1 11 23 12
REMARK SMILES IDX 24 13 28 14 25 15 27 16 26 17 5 18 6 19 10 20 7 21 9 22 8 23
REMARK SMILES IDX 16 24 17 25 18 26 19 27 20 28
REMARK H PARENT 18 29
ROOT
ATOM      1  O   UNL     1     118.126 160.754 185.081  1.00  0.00    -0.488 OA
ENDROOT
BRANCH   1   2
ATOM      2  C   UNL     1     118.768 161.283 183.977  1.00  0.00     0.119 A 
ATOM      3  C   UNL     1     120.197 162.361 181.751  1.00  0.00    -0.017 A 
ATOM      4  C   UNL     1     118.829 162.169 181.714  1.00  0.00     0.012 A 
ATOM      5  C   UNL     1     120.829 162.000 182.936  1.00  0.00     0.012 A 
ATOM      6  C   UNL     1     118.150 161.645 182.802  1.00  0.00     0.047 A 
ATOM      7  C   UNL     1     120.156 161.482 184.010  1.00  0.00     0.047 A 
BRANCH   3   8
ATOM      8  C   UNL     1     120.931 162.931 180.635  1.00  0.00    -0.007 C 
ATOM      9  C   UNL     1     121.475 162.198 179.699  1.00  0.00    -0.033 C 
BRANCH   9  10
ATOM     10  C   UNL     1     122.277 162.725 178.561  1.00  0.00     0.033 C 
ATOM     11  C   UNL     1     121.345 163.131 177.457  1.00  0.00     0.009 C 
ENDBRANCH   9  10
BRANCH   9  12
ATOM     12  C   UNL     1     121.270 160.738 179.663  1.00  0.00    -0.022 A 
ATOM     13  C   UNL     1     120.184 160.172 179.046  1.00  0.00     0.008 A 
ATOM     14  C   UNL     1     122.191 159.944 180.275  1.00  0.00     0.008 A 
ATOM     15  C   UNL     1     120.035 158.808 179.049  1.00  0.00     0.001 A 
ATOM     16  C   UNL     1     122.078 158.550 180.303  1.00  0.00     0.001 A 
ATOM     17  C   UNL     1     120.979 158.011 179.675  1.00  0.00     0.000 A 
ENDBRANCH   9  12
BRANCH   8  18
ATOM     18  C   UNL     1     121.090 164.371 180.592  1.00  0.00    -0.018 A 
ATOM     19  C   UNL     1     120.054 165.217 180.249  1.00  0.00     0.009 A 
ATOM     20  C   UNL     1     122.336 164.930 180.857  1.00  0.00     0.009 A 
ATOM     21  C   UNL     1     120.285 166.567 180.182  1.00  0.00     0.001 A 
ATOM     22  C   UNL     1     122.584 166.282 180.795  1.00  0.00     0.001 A 
ATOM     23  C   UNL     1     121.525 167.114 180.448  1.00  0.00     0.000 A 
ENDBRANCH   8  18
ENDBRANCH   3   8
ENDBRANCH   1   2
BRANCH   1  24
ATOM     24  C   UNL     1     116.882 160.151 185.153  1.00  0.00     0.290 C 
BRANCH  24  25
ATOM     25  C   UNL     1     116.853 158.674 184.861  1.00  0.00     0.303 C 
BRANCH  25  26
ATOM     26  N   UNL     1     116.030 157.940 185.774  1.00  0.00    -0.337 N 
ATOM     27  C   UNL     1     115.008 157.151 185.121  1.00  0.00     0.332 C 
ATOM     28  C   UNL     1     115.362 158.791 186.737  1.00  0.00     0.332 C 
ATOM     29  H   UNL     1     116.606 157.257 186.351  1.00  0.00     0.347 HD
ENDBRANCH  25  26
ENDBRANCH  24  25
ENDBRANCH   1  24
TORSDOF 8
ENDMDL
MODEL 9
REMARK VINA RESULT:      -4.6      3.622      6.214
REMARK SMILES CC/C(=C(\c1ccccc1)c1ccc(OCC[NH+](C)C)cc1)c1ccccc1
REMARK SMILES IDX 15 1 14 2 11 3 12 4 22 5 13 6 21 7 4 8 3 9 2 10 1 11 23 12
REMARK SMILES IDX 24 13 28 14 25 15 27 16 26 17 5 18 6 19 10 20 7 21 9 22 8 23
REMARK SMILES IDX 16 24 17 25 18 26 19 27 20 28
REMARK H PARENT 18 29
ROOT
ATOM      1  O   UNL     1     123.328 164.526 174.676  1.00  0.00    -0.488 OA
ENDROOT
BRANCH   1   2
ATOM      2  C   UNL     1     122.866 163.980 175.859  1.00  0.00     0.119 A 
ATOM      3  C   UNL     1     122.022 162.857 178.346  1.00  0.00    -0.017 A 
ATOM      4  C   UNL     1     121.123 163.161 177.343  1.00  0.00     0.012 A 
ATOM      5  C   UNL     1     123.358 163.129 178.068  1.00  0.00     0.012 A 
ATOM      6  C   UNL     1     121.548 163.706 176.141  1.00  0.00     0.047 A 
ATOM      7  C   UNL     1     123.775 163.668 176.881  1.00  0.00     0.047 A 
BRANCH   3   8
ATOM      8  C   UNL     1     121.608 162.263 179.605  1.00  0.00    -0.007 C 
ATOM      9  C   UNL     1     121.506 162.953 180.712  1.00  0.00    -0.033 C 
BRANCH   9  10
ATOM     10  C   UNL     1     121.133 162.387 182.037  1.00  0.00     0.033 C 
ATOM     11  C   UNL     1     119.638 162.401 182.169  1.00  0.00     0.009 C 
ENDBRANCH   9  10
BRANCH   9  12
ATOM     12  C   UNL     1     121.696 164.415 180.715  1.00  0.00    -0.022 A 
ATOM     13  C   UNL     1     122.933 164.987 180.868  1.00  0.00     0.008 A 
ATOM     14  C   UNL     1     120.597 165.207 180.572  1.00  0.00     0.008 A 
ATOM     15  C   UNL     1     123.054 166.353 180.874  1.00  0.00     0.001 A 
ATOM     16  C   UNL     1     120.675 166.602 180.574  1.00  0.00     0.001 A 
ATOM     17  C   UNL     1     121.929 167.148 180.728  1.00  0.00     0.000 A 
ENDBRANCH   9  12
BRANCH   8  18
ATOM     18  C   UNL     1     121.338 160.840 179.627  1.00  0.00    -0.018 A 
ATOM     19  C   UNL     1     120.133 160.311 179.207  1.00  0.00     0.009 A 
ATOM     20  C   UNL     1     122.298 159.968 180.132  1.00  0.00     0.009 A 
ATOM     21  C   UNL     1     119.924 158.960 179.299  1.00  0.00     0.001 A 
ATOM     22  C   UNL     1     122.105 158.609 180.230  1.00  0.00     0.001 A 
ATOM     23  C   UNL     1     120.883 158.101 179.799  1.00  0.00     0.000 A 
ENDBRANCH   8  18
ENDBRANCH   3   8
ENDBRANCH   1   2
BRANCH   1  24
ATOM     24  C   UNL     1     122.867 164.316 173.388  1.00  0.00     0.290 C 
BRANCH  24  25
ATOM     25  C   UNL     1     123.800 163.567 172.473  1.00  0.00     0.303 C 
BRANCH  25  26
ATOM     26  N   UNL     1     123.124 162.937 171.380  1.00  0.00    -0.337 N 
ATOM     27  C   UNL     1     121.821 162.415 171.733  1.00  0.00     0.332 C 
ATOM     28  C   UNL     1     123.880 161.844 170.804  1.00  0.00     0.332 C 
ATOM     29  H   UNL     1     122.960 163.620 170.580  1.00  0.00     0.347 HD
ENDBRANCH  25  26
ENDBRANCH  24  25
ENDBRANCH   1  24
TORSDOF 8
ENDMDL
