MODEL 1
REMARK VINA RESULT:      -5.8      0.000      0.000
REMARK SMILES Clc1ccc(COC(Cn2ccnc2)c2ccc(Cl)cc2Cl)c(Cl)c1
REMARK SMILES IDX 7 1 6 2 5 3 2 4 3 5 25 6 4 7 23 8 1 9 24 10 8 11 9 12 10 13
REMARK SMILES IDX 11 14 14 15 12 16 13 17 15 18 16 19 21 20 17 21 20 22 18 23
REMARK SMILES IDX 22 24 19 25
REMARK H PARENT
ROOT
ATOM      1  O   UNL     1      11.348  27.526 -31.075  1.00  0.00    -0.367 OA
ENDROOT
BRANCH   1   2
ATOM      2  C   UNL     1      12.663  27.315 -31.242  1.00  0.00     0.198 C 
BRANCH   2   3
ATOM      3  C   UNL     1      13.045  25.890 -31.352  1.00  0.00    -0.004 A 
ATOM      4  C   UNL     1      13.784  23.151 -31.255  1.00  0.00     0.042 A 
ATOM      5  C   UNL     1      12.989  23.731 -30.281  1.00  0.00     0.021 A 
ATOM      6  C   UNL     1      14.196  23.975 -32.274  1.00  0.00     0.041 A 
ATOM      7  C   UNL     1      12.619  25.054 -30.307  1.00  0.00     0.009 A 
ATOM      8  C   UNL     1      13.825  25.327 -32.315  1.00  0.00     0.048 A 
ATOM      9  Cl  UNL     1      14.248  21.457 -31.191  1.00  0.00    -0.084 Cl
ATOM     10  Cl  UNL     1      14.302  26.308 -33.698  1.00  0.00    -0.084 Cl
ENDBRANCH   2   3
ENDBRANCH   1   2
BRANCH   1  11
ATOM     11  C   UNL     1      10.430  27.765 -31.990  1.00  0.00     0.170 C 
BRANCH  11  12
ATOM     12  C   UNL     1       9.559  26.490 -32.111  1.00  0.00     0.160 C 
BRANCH  12  13
ATOM     13  N   UNL     1       9.530  26.089 -33.484  1.00  0.00    -0.335 N 
ATOM     14  C   UNL     1       8.524  26.228 -34.361  1.00  0.00     0.107 A 
ATOM     15  C   UNL     1      10.567  25.488 -34.102  1.00  0.00     0.199 A 
ATOM     16  C   UNL     1       8.983  25.687 -35.544  1.00  0.00     0.130 A 
ATOM     17  N   UNL     1      10.236  25.240 -35.360  1.00  0.00    -0.245 NA
ENDBRANCH  12  13
ENDBRANCH  11  12
BRANCH  11  18
ATOM     18  C   UNL     1       9.502  28.904 -31.607  1.00  0.00     0.001 A 
ATOM     19  C   UNL     1       8.627  28.795 -30.552  1.00  0.00     0.009 A 
ATOM     20  C   UNL     1       9.525  30.073 -32.324  1.00  0.00     0.048 A 
ATOM     21  C   UNL     1       7.782  29.866 -30.230  1.00  0.00     0.021 A 
ATOM     22  C   UNL     1       8.690  31.144 -32.011  1.00  0.00     0.041 A 
ATOM     23  C   UNL     1       7.809  31.037 -30.951  1.00  0.00     0.042 A 
ATOM     24  Cl  UNL     1      10.647  30.192 -33.667  1.00  0.00    -0.084 Cl
ATOM     25  Cl  UNL     1       6.749  32.379 -30.552  1.00  0.00    -0.084 Cl
ENDBRANCH  11  18
ENDBRANCH   1  11
TORSDOF 6
ENDMDL
MODEL 2
REMARK VINA RESULT:      -5.7      2.771      4.017
REMARK SMILES Clc1ccc(COC(Cn2ccnc2)c2ccc(Cl)cc2Cl)c(Cl)c1
REMARK SMILES IDX 7 1 6 2 5 3 2 4 3 5 25 6 4 7 23 8 1 9 24 10 8 11 9 12 10 13
REMARK SMILES IDX 11 14 14 15 12 16 13 17 15 18 16 19 21 20 17 21 20 22 18 23
REMARK SMILES IDX 22 24 19 25
REMARK H PARENT
ROOT
ATOM      1  O   UNL     1      13.648  27.246 -31.890  1.00  0.00    -0.367 OA
ENDROOT
BRANCH   1   2
ATOM      2  C   UNL     1      13.609  26.412 -30.840  1.00  0.00     0.198 C 
BRANCH   2   3
ATOM      3  C   UNL     1      13.933  25.006 -31.163  1.00  0.00    -0.004 A 
ATOM      4  C   UNL     1      14.619  22.404 -32.068  1.00  0.00     0.042 A 
ATOM      5  C   UNL     1      15.237  23.539 -32.563  1.00  0.00     0.021 A 
ATOM      6  C   UNL     1      13.653  22.605 -31.112  1.00  0.00     0.041 A 
ATOM      7  C   UNL     1      14.922  24.807 -32.140  1.00  0.00     0.009 A 
ATOM      8  C   UNL     1      13.321  23.895 -30.669  1.00  0.00     0.048 A 
ATOM      9  Cl  UNL     1      15.038  20.793 -32.632  1.00  0.00    -0.084 Cl
ATOM     10  Cl  UNL     1      12.146  24.082 -29.371  1.00  0.00    -0.084 Cl
ENDBRANCH   2   3
ENDBRANCH   1   2
BRANCH   1  11
ATOM     11  C   UNL     1      12.654  27.890 -32.469  1.00  0.00     0.170 C 
BRANCH  11  12
ATOM     12  C   UNL     1      11.561  28.112 -31.393  1.00  0.00     0.160 C 
BRANCH  12  13
ATOM     13  N   UNL     1      10.306  27.688 -31.929  1.00  0.00    -0.335 N 
ATOM     14  C   UNL     1      10.073  27.097 -33.112  1.00  0.00     0.107 A 
ATOM     15  C   UNL     1       9.133  27.838 -31.279  1.00  0.00     0.199 A 
ATOM     16  C   UNL     1       8.710  26.891 -33.165  1.00  0.00     0.130 A 
ATOM     17  N   UNL     1       8.157  27.353 -32.032  1.00  0.00    -0.245 NA
ENDBRANCH  12  13
ENDBRANCH  11  12
BRANCH  11  18
ATOM     18  C   UNL     1      13.061  29.260 -32.980  1.00  0.00     0.001 A 
ATOM     19  C   UNL     1      13.195  30.334 -32.132  1.00  0.00     0.009 A 
ATOM     20  C   UNL     1      13.300  29.446 -34.318  1.00  0.00     0.048 A 
ATOM     21  C   UNL     1      13.569  31.586 -32.640  1.00  0.00     0.021 A 
ATOM     22  C   UNL     1      13.673  30.686 -34.833  1.00  0.00     0.041 A 
ATOM     23  C   UNL     1      13.808  31.767 -33.982  1.00  0.00     0.042 A 
ATOM     24  Cl  UNL     1      13.122  28.065 -35.384  1.00  0.00    -0.084 Cl
ATOM     25  Cl  UNL     1      14.273  33.335 -34.622  1.00  0.00    -0.084 Cl
ENDBRANCH  11  18
ENDBRANCH   1  11
TORSDOF 6
ENDMDL
MODEL 3
REMARK VINA RESULT:      -5.7      2.670      7.199
REMARK SMILES Clc1ccc(COC(Cn2ccnc2)c2ccc(Cl)cc2Cl)c(Cl)c1
REMARK SMILES IDX 7 1 6 2 5 3 2 4 3 5 25 6 4 7 23 8 1 9 24 10 8 11 9 12 10 13
REMARK SMILES IDX 11 14 14 15 12 16 13 17 15 18 16 19 21 20 17 21 20 22 18 23
REMARK SMILES IDX 22 24 19 25
REMARK H PARENT
ROOT
ATOM      1  O   UNL     1      10.875  26.906 -31.592  1.00  0.00    -0.367 OA
ENDROOT
BRANCH   1   2
ATOM      2  C   UNL     1       9.991  27.600 -30.860  1.00  0.00     0.198 C 
BRANCH   2   3
ATOM      3  C   UNL     1       8.714  27.886 -31.551  1.00  0.00    -0.004 A 
ATOM      4  C   UNL     1       6.415  28.384 -33.139  1.00  0.00     0.042 A 
ATOM      5  C   UNL     1       7.384  27.471 -33.518  1.00  0.00     0.021 A 
ATOM      6  C   UNL     1       6.626  29.037 -31.949  1.00  0.00     0.041 A 
ATOM      7  C   UNL     1       8.504  27.214 -32.766  1.00  0.00     0.009 A 
ATOM      8  C   UNL     1       7.765  28.784 -31.170  1.00  0.00     0.048 A 
ATOM      9  Cl  UNL     1       4.995  28.699 -34.126  1.00  0.00    -0.084 Cl
ATOM     10  Cl  UNL     1       7.930  29.579 -29.607  1.00  0.00    -0.084 Cl
ENDBRANCH   2   3
ENDBRANCH   1   2
BRANCH   1  11
ATOM     11  C   UNL     1      12.052  27.290 -32.044  1.00  0.00     0.170 C 
BRANCH  11  12
ATOM     12  C   UNL     1      12.513  28.483 -31.170  1.00  0.00     0.160 C 
BRANCH  12  13
ATOM     13  N   UNL     1      12.667  29.628 -32.013  1.00  0.00    -0.335 N 
ATOM     14  C   UNL     1      11.716  30.274 -32.707  1.00  0.00     0.107 A 
ATOM     15  C   UNL     1      13.852  30.235 -32.231  1.00  0.00     0.199 A 
ATOM     16  C   UNL     1      12.363  31.301 -33.360  1.00  0.00     0.130 A 
ATOM     17  N   UNL     1      13.669  31.257 -33.054  1.00  0.00    -0.245 NA
ENDBRANCH  12  13
ENDBRANCH  11  12
BRANCH  11  18
ATOM     18  C   UNL     1      13.110  26.209 -31.917  1.00  0.00     0.001 A 
ATOM     19  C   UNL     1      13.148  25.364 -30.833  1.00  0.00     0.009 A 
ATOM     20  C   UNL     1      14.059  26.063 -32.896  1.00  0.00     0.048 A 
ATOM     21  C   UNL     1      14.143  24.380 -30.747  1.00  0.00     0.021 A 
ATOM     22  C   UNL     1      15.051  25.088 -32.821  1.00  0.00     0.041 A 
ATOM     23  C   UNL     1      15.091  24.237 -31.732  1.00  0.00     0.042 A 
ATOM     24  Cl  UNL     1      13.995  27.152 -34.270  1.00  0.00    -0.084 Cl
ATOM     25  Cl  UNL     1      16.340  23.007 -31.625  1.00  0.00    -0.084 Cl
ENDBRANCH  11  18
ENDBRANCH   1  11
TORSDOF 6
ENDMDL
MODEL 4
REMARK VINA RESULT:      -5.6      2.771      4.463
REMARK SMILES Clc1ccc(COC(Cn2ccnc2)c2ccc(Cl)cc2Cl)c(Cl)c1
REMARK SMILES IDX 7 1 6 2 5 3 2 4 3 5 25 6 4 7 23 8 1 9 24 10 8 11 9 12 10 13
REMARK SMILES IDX 11 14 14 15 12 16 13 17 15 18 16 19 21 20 17 21 20 22 18 23
REMARK SMILES IDX 22 24 19 25
REMARK H PARENT
ROOT
ATOM      1  O   UNL     1      12.145  27.892 -31.218  1.00  0.00    -0.367 OA
ENDROOT
BRANCH   1   2
ATOM      2  C   UNL     1      13.394  27.403 -31.172  1.00  0.00     0.198 C 
BRANCH   2   3
ATOM      3  C   UNL     1      13.485  25.939 -31.361  1.00  0.00    -0.004 A 
ATOM      4  C   UNL     1      13.688  23.109 -31.419  1.00  0.00     0.042 A 
ATOM      5  C   UNL     1      13.094  23.779 -30.364  1.00  0.00     0.021 A 
ATOM      6  C   UNL     1      14.174  23.888 -32.440  1.00  0.00     0.041 A 
ATOM      7  C   UNL     1      12.985  25.148 -30.315  1.00  0.00     0.009 A 
ATOM      8  C   UNL     1      14.069  25.287 -32.404  1.00  0.00     0.048 A 
ATOM      9  Cl  UNL     1      13.820  21.356 -31.453  1.00  0.00    -0.084 Cl
ATOM     10  Cl  UNL     1      14.622  26.227 -33.787  1.00  0.00    -0.084 Cl
ENDBRANCH   2   3
ENDBRANCH   1   2
BRANCH   1  11
ATOM     11  C   UNL     1      11.542  28.521 -32.207  1.00  0.00     0.170 C 
BRANCH  11  12
ATOM     12  C   UNL     1      12.644  29.009 -33.181  1.00  0.00     0.160 C 
BRANCH  12  13
ATOM     13  N   UNL     1      12.680  30.438 -33.143  1.00  0.00    -0.335 N 
ATOM     14  C   UNL     1      13.682  31.225 -32.720  1.00  0.00     0.107 A 
ATOM     15  C   UNL     1      11.655  31.217 -33.547  1.00  0.00     0.199 A 
ATOM     16  C   UNL     1      13.233  32.519 -32.880  1.00  0.00     0.130 A 
ATOM     17  N   UNL     1      11.990  32.488 -33.386  1.00  0.00    -0.245 NA
ENDBRANCH  12  13
ENDBRANCH  11  12
BRANCH  11  18
ATOM     18  C   UNL     1      10.616  27.615 -32.999  1.00  0.00     0.001 A 
ATOM     19  C   UNL     1      11.046  26.953 -34.124  1.00  0.00     0.009 A 
ATOM     20  C   UNL     1       9.316  27.449 -32.595  1.00  0.00     0.048 A 
ATOM     21  C   UNL     1      10.161  26.129 -34.833  1.00  0.00     0.021 A 
ATOM     22  C   UNL     1       8.428  26.631 -33.292  1.00  0.00     0.041 A 
ATOM     23  C   UNL     1       8.859  25.964 -34.424  1.00  0.00     0.042 A 
ATOM     24  Cl  UNL     1       8.785  28.303 -31.158  1.00  0.00    -0.084 Cl
ATOM     25  Cl  UNL     1       7.747  24.934 -35.312  1.00  0.00    -0.084 Cl
ENDBRANCH  11  18
ENDBRANCH   1  11
TORSDOF 6
ENDMDL
MODEL 5
REMARK VINA RESULT:      -5.6      2.931      4.488
REMARK SMILES Clc1ccc(COC(Cn2ccnc2)c2ccc(Cl)cc2Cl)c(Cl)c1
REMARK SMILES IDX 7 1 6 2 5 3 2 4 3 5 25 6 4 7 23 8 1 9 24 10 8 11 9 12 10 13
REMARK SMILES IDX 11 14 14 15 12 16 13 17 15 18 16 19 21 20 17 21 20 22 18 23
REMARK SMILES IDX 22 24 19 25
REMARK H PARENT
ROOT
ATOM      1  O   UNL     1      11.873  26.742 -31.819  1.00  0.00    -0.367 OA
ENDROOT
BRANCH   1   2
ATOM      2  C   UNL     1      12.932  26.461 -31.044  1.00  0.00     0.198 C 
BRANCH   2   3
ATOM      3  C   UNL     1      13.583  25.166 -31.344  1.00  0.00    -0.004 A 
ATOM      4  C   UNL     1      14.837  22.773 -32.211  1.00  0.00     0.042 A 
ATOM      5  C   UNL     1      15.078  23.990 -32.824  1.00  0.00     0.021 A 
ATOM      6  C   UNL     1      13.956  22.785 -31.157  1.00  0.00     0.041 A 
ATOM      7  C   UNL     1      14.482  25.161 -32.421  1.00  0.00     0.009 A 
ATOM      8  C   UNL     1      13.342  23.974 -30.734  1.00  0.00     0.048 A 
ATOM      9  Cl  UNL     1      15.608  21.288 -32.753  1.00  0.00    -0.084 Cl
ATOM     10  Cl  UNL     1      12.299  23.943 -29.315  1.00  0.00    -0.084 Cl
ENDBRANCH   2   3
ENDBRANCH   1   2
BRANCH   1  11
ATOM     11  C   UNL     1      11.536  27.891 -32.369  1.00  0.00     0.170 C 
BRANCH  11  12
ATOM     12  C   UNL     1      10.780  28.712 -31.295  1.00  0.00     0.160 C 
BRANCH  12  13
ATOM     13  N   UNL     1       9.397  28.352 -31.341  1.00  0.00    -0.335 N 
ATOM     14  C   UNL     1       8.684  27.958 -32.408  1.00  0.00     0.107 A 
ATOM     15  C   UNL     1       8.591  28.367 -30.260  1.00  0.00     0.199 A 
ATOM     16  C   UNL     1       7.407  27.731 -31.940  1.00  0.00     0.130 A 
ATOM     17  N   UNL     1       7.374  27.989 -30.623  1.00  0.00    -0.245 NA
ENDBRANCH  12  13
ENDBRANCH  11  12
BRANCH  11  18
ATOM     18  C   UNL     1      12.740  28.713 -32.793  1.00  0.00     0.001 A 
ATOM     19  C   UNL     1      13.212  29.748 -32.021  1.00  0.00     0.009 A 
ATOM     20  C   UNL     1      13.379  28.429 -33.973  1.00  0.00     0.048 A 
ATOM     21  C   UNL     1      14.324  30.489 -32.447  1.00  0.00     0.021 A 
ATOM     22  C   UNL     1      14.486  29.158 -34.404  1.00  0.00     0.041 A 
ATOM     23  C   UNL     1      14.962  30.200 -33.630  1.00  0.00     0.042 A 
ATOM     24  Cl  UNL     1      12.762  27.106 -34.944  1.00  0.00    -0.084 Cl
ATOM     25  Cl  UNL     1      16.353  31.128 -34.167  1.00  0.00    -0.084 Cl
ENDBRANCH  11  18
ENDBRANCH   1  11
TORSDOF 6
ENDMDL
MODEL 6
REMARK VINA RESULT:      -5.6      2.852      7.316
REMARK SMILES Clc1ccc(COC(Cn2ccnc2)c2ccc(Cl)cc2Cl)c(Cl)c1
REMARK SMILES IDX 7 1 6 2 5 3 2 4 3 5 25 6 4 7 23 8 1 9 24 10 8 11 9 12 10 13
REMARK SMILES IDX 11 14 14 15 12 16 13 17 15 18 16 19 21 20 17 21 20 22 18 23
REMARK SMILES IDX 22 24 19 25
REMARK H PARENT
ROOT
ATOM      1  O   UNL     1      13.809  27.695 -32.815  1.00  0.00    -0.367 OA
ENDROOT
BRANCH   1   2
ATOM      2  C   UNL     1      13.594  28.439 -33.911  1.00  0.00     0.198 C 
BRANCH   2   3
ATOM      3  C   UNL     1      13.382  29.878 -33.641  1.00  0.00    -0.004 A 
ATOM      4  C   UNL     1      12.706  32.610 -33.268  1.00  0.00     0.042 A 
ATOM      5  C   UNL     1      11.745  31.614 -33.292  1.00  0.00     0.021 A 
ATOM      6  C   UNL     1      14.008  32.204 -33.434  1.00  0.00     0.041 A 
ATOM      7  C   UNL     1      12.049  30.286 -33.471  1.00  0.00     0.009 A 
ATOM      8  C   UNL     1      14.333  30.851 -33.616  1.00  0.00     0.048 A 
ATOM      9  Cl  UNL     1      12.287  34.302 -33.044  1.00  0.00    -0.084 Cl
ATOM     10  Cl  UNL     1      16.027  30.382 -33.724  1.00  0.00    -0.084 Cl
ENDBRANCH   2   3
ENDBRANCH   1   2
BRANCH   1  11
ATOM     11  C   UNL     1      13.089  26.697 -32.344  1.00  0.00     0.170 C 
BRANCH  11  12
ATOM     12  C   UNL     1      11.792  26.625 -33.188  1.00  0.00     0.160 C 
BRANCH  12  13
ATOM     13  N   UNL     1      10.689  26.989 -32.355  1.00  0.00    -0.335 N 
ATOM     14  C   UNL     1       9.382  26.965 -32.662  1.00  0.00     0.107 A 
ATOM     15  C   UNL     1      10.831  27.429 -31.088  1.00  0.00     0.199 A 
ATOM     16  C   UNL     1       8.725  27.408 -31.533  1.00  0.00     0.130 A 
ATOM     17  N   UNL     1       9.633  27.686 -30.583  1.00  0.00    -0.245 NA
ENDBRANCH  12  13
ENDBRANCH  11  12
BRANCH  11  18
ATOM     18  C   UNL     1      13.786  25.355 -32.481  1.00  0.00     0.001 A 
ATOM     19  C   UNL     1      14.480  25.018 -33.618  1.00  0.00     0.009 A 
ATOM     20  C   UNL     1      13.725  24.446 -31.455  1.00  0.00     0.048 A 
ATOM     21  C   UNL     1      15.107  23.768 -33.712  1.00  0.00     0.021 A 
ATOM     22  C   UNL     1      14.346  23.201 -31.537  1.00  0.00     0.041 A 
ATOM     23  C   UNL     1      15.044  22.861 -32.680  1.00  0.00     0.042 A 
ATOM     24  Cl  UNL     1      12.833  24.894 -30.013  1.00  0.00    -0.084 Cl
ATOM     25  Cl  UNL     1      15.826  21.292 -32.796  1.00  0.00    -0.084 Cl
ENDBRANCH  11  18
ENDBRANCH   1  11
TORSDOF 6
ENDMDL
MODEL 7
REMARK VINA RESULT:      -5.6      3.234      4.732
REMARK SMILES Clc1ccc(COC(Cn2ccnc2)c2ccc(Cl)cc2Cl)c(Cl)c1
REMARK SMILES IDX 7 1 6 2 5 3 2 4 3 5 25 6 4 7 23 8 1 9 24 10 8 11 9 12 10 13
REMARK SMILES IDX 11 14 14 15 12 16 13 17 15 18 16 19 21 20 17 21 20 22 18 23
REMARK SMILES IDX 22 24 19 25
REMARK H PARENT
ROOT
ATOM      1  O   UNL     1      14.573  27.282 -33.742  1.00  0.00    -0.367 OA
ENDROOT
BRANCH   1   2
ATOM      2  C   UNL     1      14.523  26.105 -34.386  1.00  0.00     0.198 C 
BRANCH   2   3
ATOM      3  C   UNL     1      14.293  24.937 -33.509  1.00  0.00    -0.004 A 
ATOM      4  C   UNL     1      14.158  22.668 -31.808  1.00  0.00     0.042 A 
ATOM      5  C   UNL     1      15.186  23.590 -31.718  1.00  0.00     0.021 A 
ATOM      6  C   UNL     1      13.204  22.910 -32.767  1.00  0.00     0.041 A 
ATOM      7  C   UNL     1      15.271  24.696 -32.531  1.00  0.00     0.009 A 
ATOM      8  C   UNL     1      13.278  24.035 -33.602  1.00  0.00     0.048 A 
ATOM      9  Cl  UNL     1      14.077  21.258 -30.761  1.00  0.00    -0.084 Cl
ATOM     10  Cl  UNL     1      11.974  24.344 -34.744  1.00  0.00    -0.084 Cl
ENDBRANCH   2   3
ENDBRANCH   1   2
BRANCH   1  11
ATOM     11  C   UNL     1      13.598  28.140 -33.517  1.00  0.00     0.170 C 
BRANCH  11  12
ATOM     12  C   UNL     1      13.458  28.285 -31.981  1.00  0.00     0.160 C 
BRANCH  12  13
ATOM     13  N   UNL     1      12.159  27.824 -31.600  1.00  0.00    -0.335 N 
ATOM     14  C   UNL     1      11.002  28.502 -31.634  1.00  0.00     0.107 A 
ATOM     15  C   UNL     1      11.923  26.582 -31.130  1.00  0.00     0.199 A 
ATOM     16  C   UNL     1      10.043  27.628 -31.166  1.00  0.00     0.130 A 
ATOM     17  N   UNL     1      10.631  26.460 -30.864  1.00  0.00    -0.245 NA
ENDBRANCH  12  13
ENDBRANCH  11  12
BRANCH  11  18
ATOM     18  C   UNL     1      13.895  29.522 -34.071  1.00  0.00     0.001 A 
ATOM     19  C   UNL     1      15.068  30.176 -33.781  1.00  0.00     0.009 A 
ATOM     20  C   UNL     1      12.976  30.145 -34.878  1.00  0.00     0.048 A 
ATOM     21  C   UNL     1      15.305  31.454 -34.307  1.00  0.00     0.021 A 
ATOM     22  C   UNL     1      13.203  31.414 -35.406  1.00  0.00     0.041 A 
ATOM     23  C   UNL     1      14.382  32.074 -35.116  1.00  0.00     0.042 A 
ATOM     24  Cl  UNL     1      11.485  29.294 -35.235  1.00  0.00    -0.084 Cl
ATOM     25  Cl  UNL     1      14.676  33.677 -35.773  1.00  0.00    -0.084 Cl
ENDBRANCH  11  18
ENDBRANCH   1  11
TORSDOF 6
ENDMDL
MODEL 8
REMARK VINA RESULT:      -5.5      2.835      7.086
REMARK SMILES Clc1ccc(COC(Cn2ccnc2)c2ccc(Cl)cc2Cl)c(Cl)c1
REMARK SMILES IDX 7 1 6 2 5 3 2 4 3 5 25 6 4 7 23 8 1 9 24 10 8 11 9 12 10 13
REMARK SMILES IDX 11 14 14 15 12 16 13 17 15 18 16 19 21 20 17 21 20 22 18 23
REMARK SMILES IDX 22 24 19 25
REMARK H PARENT
ROOT
ATOM      1  O   UNL     1      11.177  27.977 -32.221  1.00  0.00    -0.367 OA
ENDROOT
BRANCH   1   2
ATOM      2  C   UNL     1      10.380  27.405 -31.306  1.00  0.00     0.198 C 
BRANCH   2   3
ATOM      3  C   UNL     1       8.989  27.911 -31.304  1.00  0.00    -0.004 A 
ATOM      4  C   UNL     1       6.341  28.882 -30.993  1.00  0.00     0.042 A 
ATOM      5  C   UNL     1       7.350  29.209 -30.104  1.00  0.00     0.021 A 
ATOM      6  C   UNL     1       6.691  28.060 -32.037  1.00  0.00     0.041 A 
ATOM      7  C   UNL     1       8.639  28.751 -30.235  1.00  0.00     0.009 A 
ATOM      8  C   UNL     1       8.003  27.586 -32.183  1.00  0.00     0.048 A 
ATOM      9  Cl  UNL     1       4.698  29.477 -30.797  1.00  0.00    -0.084 Cl
ATOM     10  Cl  UNL     1       8.414  26.617 -33.595  1.00  0.00    -0.084 Cl
ENDBRANCH   2   3
ENDBRANCH   1   2
BRANCH   1  11
ATOM     11  C   UNL     1      12.432  27.696 -32.511  1.00  0.00     0.170 C 
BRANCH  11  12
ATOM     12  C   UNL     1      13.322  28.638 -31.663  1.00  0.00     0.160 C 
BRANCH  12  13
ATOM     13  N   UNL     1      13.804  29.687 -32.508  1.00  0.00    -0.335 N 
ATOM     14  C   UNL     1      13.802  31.007 -32.264  1.00  0.00     0.107 A 
ATOM     15  C   UNL     1      14.349  29.469 -33.722  1.00  0.00     0.199 A 
ATOM     16  C   UNL     1      14.366  31.593 -33.378  1.00  0.00     0.130 A 
ATOM     17  N   UNL     1      14.692  30.631 -34.256  1.00  0.00    -0.245 NA
ENDBRANCH  12  13
ENDBRANCH  11  12
BRANCH  11  18
ATOM     18  C   UNL     1      12.813  26.273 -32.145  1.00  0.00     0.001 A 
ATOM     19  C   UNL     1      13.298  25.956 -30.899  1.00  0.00     0.009 A 
ATOM     20  C   UNL     1      12.681  25.271 -33.073  1.00  0.00     0.048 A 
ATOM     21  C   UNL     1      13.645  24.631 -30.598  1.00  0.00     0.021 A 
ATOM     22  C   UNL     1      13.022  23.951 -32.784  1.00  0.00     0.041 A 
ATOM     23  C   UNL     1      13.509  23.630 -31.531  1.00  0.00     0.042 A 
ATOM     24  Cl  UNL     1      12.064  25.696 -34.658  1.00  0.00    -0.084 Cl
ATOM     25  Cl  UNL     1      13.946  21.970 -31.158  1.00  0.00    -0.084 Cl
ENDBRANCH  11  18
ENDBRANCH   1  11
TORSDOF 6
ENDMDL
MODEL 9
REMARK VINA RESULT:      -5.4      2.768      7.050
REMARK SMILES Clc1ccc(COC(Cn2ccnc2)c2ccc(Cl)cc2Cl)c(Cl)c1
REMARK SMILES IDX 7 1 6 2 5 3 2 4 3 5 25 6 4 7 23 8 1 9 24 10 8 11 9 12 10 13
REMARK SMILES IDX 11 14 14 15 12 16 13 17 15 18 16 19 21 20 17 21 20 22 18 23
REMARK SMILES IDX 22 24 19 25
REMARK H PARENT
ROOT
ATOM      1  O   UNL     1      10.961  27.466 -31.732  1.00  0.00    -0.367 OA
ENDROOT
BRANCH   1   2
ATOM      2  C   UNL     1       9.911  26.640 -31.601  1.00  0.00     0.198 C 
BRANCH   2   3
ATOM      3  C   UNL     1       8.764  26.964 -32.477  1.00  0.00    -0.004 A 
ATOM      4  C   UNL     1       6.760  27.570 -34.393  1.00  0.00     0.042 A 
ATOM      5  C   UNL     1       7.822  26.732 -34.684  1.00  0.00     0.021 A 
ATOM      6  C   UNL     1       6.728  28.094 -33.124  1.00  0.00     0.041 A 
ATOM      7  C   UNL     1       8.803  26.424 -33.772  1.00  0.00     0.009 A 
ATOM      8  C   UNL     1       7.722  27.788 -32.182  1.00  0.00     0.048 A 
ATOM      9  Cl  UNL     1       5.522  27.952 -35.581  1.00  0.00    -0.084 Cl
ATOM     10  Cl  UNL     1       7.573  28.411 -30.542  1.00  0.00    -0.084 Cl
ENDBRANCH   2   3
ENDBRANCH   1   2
BRANCH   1  11
ATOM     11  C   UNL     1      12.144  27.218 -32.258  1.00  0.00     0.170 C 
BRANCH  11  12
ATOM     12  C   UNL     1      13.154  28.189 -31.597  1.00  0.00     0.160 C 
BRANCH  12  13
ATOM     13  N   UNL     1      13.601  29.119 -32.587  1.00  0.00    -0.335 N 
ATOM     14  C   UNL     1      14.081  30.358 -32.395  1.00  0.00     0.107 A 
ATOM     15  C   UNL     1      13.595  28.854 -33.909  1.00  0.00     0.199 A 
ATOM     16  C   UNL     1      14.369  30.845 -33.653  1.00  0.00     0.130 A 
ATOM     17  N   UNL     1      14.063  29.907 -34.563  1.00  0.00    -0.245 NA
ENDBRANCH  12  13
ENDBRANCH  11  12
BRANCH  11  18
ATOM     18  C   UNL     1      12.628  25.808 -31.972  1.00  0.00     0.001 A 
ATOM     19  C   UNL     1      12.934  25.397 -30.697  1.00  0.00     0.009 A 
ATOM     20  C   UNL     1      12.773  24.914 -33.002  1.00  0.00     0.048 A 
ATOM     21  C   UNL     1      13.384  24.089 -30.471  1.00  0.00     0.021 A 
ATOM     22  C   UNL     1      13.217  23.611 -32.789  1.00  0.00     0.041 A 
ATOM     23  C   UNL     1      13.525  23.196 -31.507  1.00  0.00     0.042 A 
ATOM     24  Cl  UNL     1      12.379  25.458 -34.623  1.00  0.00    -0.084 Cl
ATOM     25  Cl  UNL     1      14.091  21.557 -31.228  1.00  0.00    -0.084 Cl
ENDBRANCH  11  18
ENDBRANCH   1  11
TORSDOF 6
ENDMDL
