MODEL 1
REMARK VINA RESULT:      -5.7      0.000      0.000
REMARK SMILES CC/C(=C(\c1ccccc1)c1ccc(OCC[NH+](C)C)cc1)c1ccccc1
REMARK SMILES IDX 15 1 14 2 11 3 12 4 22 5 13 6 21 7 4 8 3 9 2 10 1 11 23 12
REMARK SMILES IDX 24 13 28 14 25 15 27 16 26 17 5 18 6 19 10 20 7 21 9 22 8 23
REMARK SMILES IDX 16 24 17 25 18 26 19 27 20 28
REMARK H PARENT 18 29
ROOT
ATOM      1  O   UNL     1      14.924  24.527 -31.219  1.00  0.00    -0.488 OA
ENDROOT
BRANCH   1   2
ATOM      2  C   UNL     1      14.061  25.473 -31.742  1.00  0.00     0.119 A 
ATOM      3  C   UNL     1      12.255  27.462 -32.712  1.00  0.00    -0.017 A 
ATOM      4  C   UNL     1      12.990  26.666 -33.569  1.00  0.00     0.012 A 
ATOM      5  C   UNL     1      12.448  27.232 -31.354  1.00  0.00     0.012 A 
ATOM      6  C   UNL     1      13.862  25.705 -33.083  1.00  0.00     0.047 A 
ATOM      7  C   UNL     1      13.311  26.282 -30.876  1.00  0.00     0.047 A 
BRANCH   3   8
ATOM      8  C   UNL     1      11.316  28.460 -33.193  1.00  0.00    -0.007 C 
ATOM      9  C   UNL     1      11.643  29.715 -33.361  1.00  0.00    -0.033 C 
BRANCH   9  10
ATOM     10  C   UNL     1      10.710  30.787 -33.804  1.00  0.00     0.033 C 
ATOM     11  C   UNL     1      10.851  30.970 -35.287  1.00  0.00     0.009 C 
ENDBRANCH   9  10
BRANCH   9  12
ATOM     12  C   UNL     1      13.033  30.168 -33.178  1.00  0.00    -0.022 A 
ATOM     13  C   UNL     1      13.441  30.824 -32.045  1.00  0.00     0.008 A 
ATOM     14  C   UNL     1      13.925  29.929 -34.179  1.00  0.00     0.008 A 
ATOM     15  C   UNL     1      14.746  31.234 -31.929  1.00  0.00     0.001 A 
ATOM     16  C   UNL     1      15.262  30.330 -34.103  1.00  0.00     0.001 A 
ATOM     17  C   UNL     1      15.643  30.985 -32.954  1.00  0.00     0.000 A 
ENDBRANCH   9  12
BRANCH   8  18
ATOM     18  C   UNL     1       9.955  28.038 -33.458  1.00  0.00    -0.018 A 
ATOM     19  C   UNL     1       8.969  28.078 -32.493  1.00  0.00     0.009 A 
ATOM     20  C   UNL     1       9.628  27.528 -34.711  1.00  0.00     0.009 A 
ATOM     21  C   UNL     1       7.713  27.619 -32.796  1.00  0.00     0.001 A 
ATOM     22  C   UNL     1       8.374  27.064 -35.033  1.00  0.00     0.001 A 
ATOM     23  C   UNL     1       7.397  27.116 -34.042  1.00  0.00     0.000 A 
ENDBRANCH   8  18
ENDBRANCH   3   8
ENDBRANCH   1   2
BRANCH   1  24
ATOM     24  C   UNL     1      16.097  24.032 -31.762  1.00  0.00     0.290 C 
BRANCH  24  25
ATOM     25  C   UNL     1      16.178  22.534 -31.889  1.00  0.00     0.303 C 
BRANCH  25  26
ATOM     26  N   UNL     1      16.254  22.093 -33.249  1.00  0.00    -0.337 N 
ATOM     27  C   UNL     1      14.982  21.658 -33.784  1.00  0.00     0.332 C 
ATOM     28  C   UNL     1      17.190  21.003 -33.436  1.00  0.00     0.332 C 
ATOM     29  H   UNL     1      16.593  22.871 -33.890  1.00  0.00     0.347 HD
ENDBRANCH  25  26
ENDBRANCH  24  25
ENDBRANCH   1  24
TORSDOF 8
ENDMDL
MODEL 2
REMARK VINA RESULT:      -5.6      3.516      7.149
REMARK SMILES CC/C(=C(\c1ccccc1)c1ccc(OCC[NH+](C)C)cc1)c1ccccc1
REMARK SMILES IDX 15 1 14 2 11 3 12 4 22 5 13 6 21 7 4 8 3 9 2 10 1 11 23 12
REMARK SMILES IDX 24 13 28 14 25 15 27 16 26 17 5 18 6 19 10 20 7 21 9 22 8 23
REMARK SMILES IDX 16 24 17 25 18 26 19 27 20 28
REMARK H PARENT 18 29
ROOT
ATOM      1  O   UNL     1       7.517  27.368 -32.469  1.00  0.00    -0.488 OA
ENDROOT
BRANCH   1   2
ATOM      2  C   UNL     1       8.805  26.895 -32.639  1.00  0.00     0.119 A 
ATOM      3  C   UNL     1      11.432  25.867 -33.088  1.00  0.00    -0.017 A 
ATOM      4  C   UNL     1      11.150  26.704 -32.027  1.00  0.00     0.012 A 
ATOM      5  C   UNL     1      10.359  25.556 -33.918  1.00  0.00     0.012 A 
ATOM      6  C   UNL     1       9.870  27.195 -31.822  1.00  0.00     0.047 A 
ATOM      7  C   UNL     1       9.096  26.043 -33.714  1.00  0.00     0.047 A 
BRANCH   3   8
ATOM      8  C   UNL     1      12.757  25.318 -33.313  1.00  0.00    -0.007 C 
ATOM      9  C   UNL     1      13.679  25.953 -33.989  1.00  0.00    -0.033 C 
BRANCH   9  10
ATOM     10  C   UNL     1      15.036  25.418 -34.290  1.00  0.00     0.033 C 
ATOM     11  C   UNL     1      15.003  24.735 -35.625  1.00  0.00     0.009 C 
ENDBRANCH   9  10
BRANCH   9  12
ATOM     12  C   UNL     1      13.458  27.330 -34.466  1.00  0.00    -0.022 A 
ATOM     13  C   UNL     1      12.685  27.603 -35.565  1.00  0.00     0.008 A 
ATOM     14  C   UNL     1      14.055  28.350 -33.790  1.00  0.00     0.008 A 
ATOM     15  C   UNL     1      12.518  28.902 -35.975  1.00  0.00     0.001 A 
ATOM     16  C   UNL     1      13.913  29.687 -34.172  1.00  0.00     0.001 A 
ATOM     17  C   UNL     1      13.131  29.930 -35.278  1.00  0.00     0.000 A 
ENDBRANCH   9  12
BRANCH   8  18
ATOM     18  C   UNL     1      13.041  23.996 -32.793  1.00  0.00    -0.018 A 
ATOM     19  C   UNL     1      12.861  22.852 -33.546  1.00  0.00     0.009 A 
ATOM     20  C   UNL     1      13.464  23.855 -31.475  1.00  0.00     0.009 A 
ATOM     21  C   UNL     1      13.102  21.629 -32.977  1.00  0.00     0.001 A 
ATOM     22  C   UNL     1      13.712  22.635 -30.889  1.00  0.00     0.001 A 
ATOM     23  C   UNL     1      13.524  21.498 -31.669  1.00  0.00     0.000 A 
ENDBRANCH   8  18
ENDBRANCH   3   8
ENDBRANCH   1   2
BRANCH   1  24
ATOM     24  C   UNL     1       6.949  27.953 -31.351  1.00  0.00     0.290 C 
BRANCH  24  25
ATOM     25  C   UNL     1       6.213  29.245 -31.591  1.00  0.00     0.303 C 
BRANCH  25  26
ATOM     26  N   UNL     1       6.795  30.356 -30.902  1.00  0.00    -0.337 N 
ATOM     27  C   UNL     1       7.512  31.263 -31.774  1.00  0.00     0.332 C 
ATOM     28  C   UNL     1       7.716  29.952 -29.859  1.00  0.00     0.332 C 
ATOM     29  H   UNL     1       6.054  30.942 -30.414  1.00  0.00     0.347 HD
ENDBRANCH  25  26
ENDBRANCH  24  25
ENDBRANCH   1  24
TORSDOF 8
ENDMDL
MODEL 3
REMARK VINA RESULT:      -5.6      1.042      1.619
REMARK SMILES CC/C(=C(\c1ccccc1)c1ccc(OCC[NH+](C)C)cc1)c1ccccc1
REMARK SMILES IDX 15 1 14 2 11 3 12 4 22 5 13 6 21 7 4 8 3 9 2 10 1 11 23 12
REMARK SMILES IDX 24 13 28 14 25 15 27 16 26 17 5 18 6 19 10 20 7 21 9 22 8 23
REMARK SMILES IDX 16 24 17 25 18 26 19 27 20 28
REMARK H PARENT 18 29
ROOT
ATOM      1  O   UNL     1      14.270  24.138 -31.632  1.00  0.00    -0.488 OA
ENDROOT
BRANCH   1   2
ATOM      2  C   UNL     1      13.424  25.214 -31.833  1.00  0.00     0.119 A 
ATOM      3  C   UNL     1      11.725  27.487 -32.155  1.00  0.00    -0.017 A 
ATOM      4  C   UNL     1      11.714  26.437 -33.053  1.00  0.00     0.012 A 
ATOM      5  C   UNL     1      12.611  27.366 -31.089  1.00  0.00     0.012 A 
ATOM      6  C   UNL     1      12.545  25.341 -32.883  1.00  0.00     0.047 A 
ATOM      7  C   UNL     1      13.431  26.281 -30.924  1.00  0.00     0.047 A 
BRANCH   3   8
ATOM      8  C   UNL     1      10.849  28.637 -32.295  1.00  0.00    -0.007 C 
ATOM      9  C   UNL     1      11.292  29.830 -32.599  1.00  0.00    -0.033 C 
BRANCH   9  10
ATOM     10  C   UNL     1      10.447  31.050 -32.707  1.00  0.00     0.033 C 
ATOM     11  C   UNL     1      10.238  31.369 -34.159  1.00  0.00     0.009 C 
ENDBRANCH   9  10
BRANCH   9  12
ATOM     12  C   UNL     1      12.710  30.050 -32.934  1.00  0.00    -0.022 A 
ATOM     13  C   UNL     1      13.275  29.539 -34.075  1.00  0.00     0.008 A 
ATOM     14  C   UNL     1      13.471  30.777 -32.070  1.00  0.00     0.008 A 
ATOM     15  C   UNL     1      14.603  29.765 -34.336  1.00  0.00     0.001 A 
ATOM     16  C   UNL     1      14.827  31.031 -32.297  1.00  0.00     0.001 A 
ATOM     17  C   UNL     1      15.366  30.506 -33.449  1.00  0.00     0.000 A 
ENDBRANCH   9  12
BRANCH   8  18
ATOM     18  C   UNL     1       9.435  28.445 -32.048  1.00  0.00    -0.018 A 
ATOM     19  C   UNL     1       8.891  28.521 -30.781  1.00  0.00     0.009 A 
ATOM     20  C   UNL     1       8.591  28.126 -33.107  1.00  0.00     0.009 A 
ATOM     21  C   UNL     1       7.551  28.282 -30.610  1.00  0.00     0.001 A 
ATOM     22  C   UNL     1       7.246  27.885 -32.954  1.00  0.00     0.001 A 
ATOM     23  C   UNL     1       6.721  27.967 -31.668  1.00  0.00     0.000 A 
ENDBRANCH   8  18
ENDBRANCH   3   8
ENDBRANCH   1   2
BRANCH   1  24
ATOM     24  C   UNL     1      15.516  23.901 -32.187  1.00  0.00     0.290 C 
BRANCH  24  25
ATOM     25  C   UNL     1      16.230  22.672 -31.691  1.00  0.00     0.303 C 
BRANCH  25  26
ATOM     26  N   UNL     1      15.911  21.498 -32.447  1.00  0.00    -0.337 N 
ATOM     27  C   UNL     1      15.921  21.714 -33.877  1.00  0.00     0.332 C 
ATOM     28  C   UNL     1      14.615  20.946 -32.108  1.00  0.00     0.332 C 
ATOM     29  H   UNL     1      16.609  20.717 -32.262  1.00  0.00     0.347 HD
ENDBRANCH  25  26
ENDBRANCH  24  25
ENDBRANCH   1  24
TORSDOF 8
ENDMDL
MODEL 4
REMARK VINA RESULT:      -5.6      0.904      1.682
REMARK SMILES CC/C(=C(\c1ccccc1)c1ccc(OCC[NH+](C)C)cc1)c1ccccc1
REMARK SMILES IDX 15 1 14 2 11 3 12 4 22 5 13 6 21 7 4 8 3 9 2 10 1 11 23 12
REMARK SMILES IDX 24 13 28 14 25 15 27 16 26 17 5 18 6 19 10 20 7 21 9 22 8 23
REMARK SMILES IDX 16 24 17 25 18 26 19 27 20 28
REMARK H PARENT 18 29
ROOT
ATOM      1  O   UNL     1      15.010  24.492 -31.950  1.00  0.00    -0.488 OA
ENDROOT
BRANCH   1   2
ATOM      2  C   UNL     1      14.095  25.520 -32.093  1.00  0.00     0.119 A 
ATOM      3  C   UNL     1      12.202  27.619 -32.503  1.00  0.00    -0.017 A 
ATOM      4  C   UNL     1      12.635  27.266 -31.240  1.00  0.00     0.012 A 
ATOM      5  C   UNL     1      12.746  26.891 -33.557  1.00  0.00     0.012 A 
ATOM      6  C   UNL     1      13.554  26.245 -31.057  1.00  0.00     0.047 A 
ATOM      7  C   UNL     1      13.654  25.882 -33.374  1.00  0.00     0.047 A 
BRANCH   3   8
ATOM      8  C   UNL     1      11.259  28.700 -32.727  1.00  0.00    -0.007 C 
ATOM      9  C   UNL     1      11.635  29.941 -32.898  1.00  0.00    -0.033 C 
BRANCH   9  10
ATOM     10  C   UNL     1      10.710  31.094 -33.084  1.00  0.00     0.033 C 
ATOM     11  C   UNL     1      10.630  31.421 -34.546  1.00  0.00     0.009 C 
ENDBRANCH   9  10
BRANCH   9  12
ATOM     12  C   UNL     1      13.062  30.296 -32.991  1.00  0.00    -0.022 A 
ATOM     13  C   UNL     1      13.822  29.973 -34.086  1.00  0.00     0.008 A 
ATOM     14  C   UNL     1      13.631  30.956 -31.945  1.00  0.00     0.008 A 
ATOM     15  C   UNL     1      15.150  30.318 -34.119  1.00  0.00     0.001 A 
ATOM     16  C   UNL     1      14.979  31.326 -31.935  1.00  0.00     0.001 A 
ATOM     17  C   UNL     1      15.716  30.989 -33.048  1.00  0.00     0.000 A 
ENDBRANCH   9  12
BRANCH   8  18
ATOM     18  C   UNL     1       9.846  28.380 -32.719  1.00  0.00    -0.018 A 
ATOM     19  C   UNL     1       9.094  28.390 -31.562  1.00  0.00     0.009 A 
ATOM     20  C   UNL     1       9.224  28.000 -33.905  1.00  0.00     0.009 A 
ATOM     21  C   UNL     1       7.772  28.030 -31.617  1.00  0.00     0.001 A 
ATOM     22  C   UNL     1       7.899  27.637 -33.978  1.00  0.00     0.001 A 
ATOM     23  C   UNL     1       7.162  27.656 -32.798  1.00  0.00     0.000 A 
ENDBRANCH   8  18
ENDBRANCH   3   8
ENDBRANCH   1   2
BRANCH   1  24
ATOM     24  C   UNL     1      15.257  23.429 -32.800  1.00  0.00     0.290 C 
BRANCH  24  25
ATOM     25  C   UNL     1      15.930  22.235 -32.175  1.00  0.00     0.303 C 
BRANCH  25  26
ATOM     26  N   UNL     1      15.049  21.119 -32.012  1.00  0.00    -0.337 N 
ATOM     27  C   UNL     1      14.491  20.639 -33.258  1.00  0.00     0.332 C 
ATOM     28  C   UNL     1      13.936  21.405 -31.129  1.00  0.00     0.332 C 
ATOM     29  H   UNL     1      15.551  20.289 -31.575  1.00  0.00     0.347 HD
ENDBRANCH  25  26
ENDBRANCH  24  25
ENDBRANCH   1  24
TORSDOF 8
ENDMDL
MODEL 5
REMARK VINA RESULT:      -5.5      0.687      1.763
REMARK SMILES CC/C(=C(\c1ccccc1)c1ccc(OCC[NH+](C)C)cc1)c1ccccc1
REMARK SMILES IDX 15 1 14 2 11 3 12 4 22 5 13 6 21 7 4 8 3 9 2 10 1 11 23 12
REMARK SMILES IDX 24 13 28 14 25 15 27 16 26 17 5 18 6 19 10 20 7 21 9 22 8 23
REMARK SMILES IDX 16 24 17 25 18 26 19 27 20 28
REMARK H PARENT 18 29
ROOT
ATOM      1  O   UNL     1      15.001  24.617 -31.137  1.00  0.00    -0.488 OA
ENDROOT
BRANCH   1   2
ATOM      2  C   UNL     1      14.087  25.527 -31.637  1.00  0.00     0.119 A 
ATOM      3  C   UNL     1      12.226  27.370 -32.776  1.00  0.00    -0.017 A 
ATOM      4  C   UNL     1      12.353  27.216 -31.410  1.00  0.00     0.012 A 
ATOM      5  C   UNL     1      13.058  26.575 -33.557  1.00  0.00     0.012 A 
ATOM      6  C   UNL     1      13.261  26.318 -30.872  1.00  0.00     0.047 A 
ATOM      7  C   UNL     1      13.954  25.687 -33.024  1.00  0.00     0.047 A 
BRANCH   3   8
ATOM      8  C   UNL     1      11.301  28.321 -33.367  1.00  0.00    -0.007 C 
ATOM      9  C   UNL     1      11.620  29.568 -33.597  1.00  0.00    -0.033 C 
BRANCH   9  10
ATOM     10  C   UNL     1      10.699  30.595 -34.156  1.00  0.00     0.033 C 
ATOM     11  C   UNL     1      10.040  31.325 -33.022  1.00  0.00     0.009 C 
ENDBRANCH   9  10
BRANCH   9  12
ATOM     12  C   UNL     1      12.994  30.054 -33.372  1.00  0.00    -0.022 A 
ATOM     13  C   UNL     1      13.981  29.904 -34.312  1.00  0.00     0.008 A 
ATOM     14  C   UNL     1      13.277  30.658 -32.184  1.00  0.00     0.008 A 
ATOM     15  C   UNL     1      15.246  30.365 -34.049  1.00  0.00     0.001 A 
ATOM     16  C   UNL     1      14.551  31.141 -31.875  1.00  0.00     0.001 A 
ATOM     17  C   UNL     1      15.521  30.977 -32.837  1.00  0.00     0.000 A 
ENDBRANCH   9  12
BRANCH   8  18
ATOM     18  C   UNL     1       9.961  27.862 -33.675  1.00  0.00    -0.018 A 
ATOM     19  C   UNL     1       9.592  27.460 -34.943  1.00  0.00     0.009 A 
ATOM     20  C   UNL     1       8.990  27.867 -32.678  1.00  0.00     0.009 A 
ATOM     21  C   UNL     1       8.295  27.082 -35.177  1.00  0.00     0.001 A 
ATOM     22  C   UNL     1       7.685  27.490 -32.895  1.00  0.00     0.001 A 
ATOM     23  C   UNL     1       7.338  27.089 -34.182  1.00  0.00     0.000 A 
ENDBRANCH   8  18
ENDBRANCH   3   8
ENDBRANCH   1   2
BRANCH   1  24
ATOM     24  C   UNL     1      15.710  23.642 -31.816  1.00  0.00     0.290 C 
BRANCH  24  25
ATOM     25  C   UNL     1      15.190  22.236 -31.672  1.00  0.00     0.303 C 
BRANCH  25  26
ATOM     26  N   UNL     1      14.658  21.710 -32.893  1.00  0.00    -0.337 N 
ATOM     27  C   UNL     1      14.846  20.283 -33.035  1.00  0.00     0.332 C 
ATOM     28  C   UNL     1      15.228  22.334 -34.070  1.00  0.00     0.332 C 
ATOM     29  H   UNL     1      13.610  21.878 -32.963  1.00  0.00     0.347 HD
ENDBRANCH  25  26
ENDBRANCH  24  25
ENDBRANCH   1  24
TORSDOF 8
ENDMDL
MODEL 6
REMARK VINA RESULT:      -5.4      1.154      1.469
REMARK SMILES CC/C(=C(\c1ccccc1)c1ccc(OCC[NH+](C)C)cc1)c1ccccc1
REMARK SMILES IDX 15 1 14 2 11 3 12 4 22 5 13 6 21 7 4 8 3 9 2 10 1 11 23 12
REMARK SMILES IDX 24 13 28 14 25 15 27 16 26 17 5 18 6 19 10 20 7 21 9 22 8 23
REMARK SMILES IDX 16 24 17 25 18 26 19 27 20 28
REMARK H PARENT 18 29
ROOT
ATOM      1  O   UNL     1      14.363  24.284 -31.209  1.00  0.00    -0.488 OA
ENDROOT
BRANCH   1   2
ATOM      2  C   UNL     1      13.508  25.331 -31.498  1.00  0.00     0.119 A 
ATOM      3  C   UNL     1      11.786  27.553 -32.004  1.00  0.00    -0.017 A 
ATOM      4  C   UNL     1      11.831  26.461 -32.848  1.00  0.00     0.012 A 
ATOM      5  C   UNL     1      12.627  27.501 -30.897  1.00  0.00     0.012 A 
ATOM      6  C   UNL     1      12.672  25.390 -32.589  1.00  0.00     0.047 A 
ATOM      7  C   UNL     1      13.458  26.443 -30.644  1.00  0.00     0.047 A 
BRANCH   3   8
ATOM      8  C   UNL     1      10.897  28.678 -32.237  1.00  0.00    -0.007 C 
ATOM      9  C   UNL     1      11.333  29.867 -32.565  1.00  0.00    -0.033 C 
BRANCH   9  10
ATOM     10  C   UNL     1      10.472  31.064 -32.769  1.00  0.00     0.033 C 
ATOM     11  C   UNL     1      10.373  31.346 -34.240  1.00  0.00     0.009 C 
ENDBRANCH   9  10
BRANCH   9  12
ATOM     12  C   UNL     1      12.763  30.104 -32.833  1.00  0.00    -0.022 A 
ATOM     13  C   UNL     1      13.548  30.847 -31.988  1.00  0.00     0.008 A 
ATOM     14  C   UNL     1      13.304  29.570 -33.963  1.00  0.00     0.008 A 
ATOM     15  C   UNL     1      14.872  31.046 -32.289  1.00  0.00     0.001 A 
ATOM     16  C   UNL     1      14.647  29.748 -34.308  1.00  0.00     0.001 A 
ATOM     17  C   UNL     1      15.409  30.498 -33.441  1.00  0.00     0.000 A 
ENDBRANCH   9  12
BRANCH   8  18
ATOM     18  C   UNL     1       9.475  28.467 -32.059  1.00  0.00    -0.018 A 
ATOM     19  C   UNL     1       8.878  28.477 -30.814  1.00  0.00     0.009 A 
ATOM     20  C   UNL     1       8.679  28.195 -33.167  1.00  0.00     0.009 A 
ATOM     21  C   UNL     1       7.535  28.223 -30.711  1.00  0.00     0.001 A 
ATOM     22  C   UNL     1       7.330  27.939 -33.082  1.00  0.00     0.001 A 
ATOM     23  C   UNL     1       6.752  27.955 -31.816  1.00  0.00     0.000 A 
ENDBRANCH   8  18
ENDBRANCH   3   8
ENDBRANCH   1   2
BRANCH   1  24
ATOM     24  C   UNL     1      15.555  23.945 -31.823  1.00  0.00     0.290 C 
BRANCH  24  25
ATOM     25  C   UNL     1      15.440  23.035 -33.019  1.00  0.00     0.303 C 
BRANCH  25  26
ATOM     26  N   UNL     1      14.477  21.992 -32.835  1.00  0.00    -0.337 N 
ATOM     27  C   UNL     1      15.069  20.678 -32.710  1.00  0.00     0.332 C 
ATOM     28  C   UNL     1      13.510  21.923 -33.912  1.00  0.00     0.332 C 
ATOM     29  H   UNL     1      13.906  22.144 -31.951  1.00  0.00     0.347 HD
ENDBRANCH  25  26
ENDBRANCH  24  25
ENDBRANCH   1  24
TORSDOF 8
ENDMDL
MODEL 7
REMARK VINA RESULT:      -5.4      1.060      4.694
REMARK SMILES CC/C(=C(\c1ccccc1)c1ccc(OCC[NH+](C)C)cc1)c1ccccc1
REMARK SMILES IDX 15 1 14 2 11 3 12 4 22 5 13 6 21 7 4 8 3 9 2 10 1 11 23 12
REMARK SMILES IDX 24 13 28 14 25 15 27 16 26 17 5 18 6 19 10 20 7 21 9 22 8 23
REMARK SMILES IDX 16 24 17 25 18 26 19 27 20 28
REMARK H PARENT 18 29
ROOT
ATOM      1  O   UNL     1      13.362  23.415 -31.190  1.00  0.00    -0.488 OA
ENDROOT
BRANCH   1   2
ATOM      2  C   UNL     1      13.188  24.745 -31.527  1.00  0.00     0.119 A 
ATOM      3  C   UNL     1      12.799  27.458 -32.331  1.00  0.00    -0.017 A 
ATOM      4  C   UNL     1      13.092  27.121 -31.024  1.00  0.00     0.012 A 
ATOM      5  C   UNL     1      12.708  26.396 -33.226  1.00  0.00     0.012 A 
ATOM      6  C   UNL     1      13.277  25.800 -30.649  1.00  0.00     0.047 A 
ATOM      7  C   UNL     1      12.891  25.092 -32.853  1.00  0.00     0.047 A 
BRANCH   3   8
ATOM      8  C   UNL     1      12.624  28.835 -32.758  1.00  0.00    -0.007 C 
ATOM      9  C   UNL     1      11.452  29.343 -33.041  1.00  0.00    -0.033 C 
BRANCH   9  10
ATOM     10  C   UNL     1      11.220  30.731 -33.527  1.00  0.00     0.033 C 
ATOM     11  C   UNL     1      11.327  30.745 -35.024  1.00  0.00     0.009 C 
ENDBRANCH   9  10
BRANCH   9  12
ATOM     12  C   UNL     1      10.217  28.567 -32.829  1.00  0.00    -0.022 A 
ATOM     13  C   UNL     1       9.657  28.418 -31.587  1.00  0.00     0.008 A 
ATOM     14  C   UNL     1       9.633  27.978 -33.910  1.00  0.00     0.008 A 
ATOM     15  C   UNL     1       8.511  27.677 -31.442  1.00  0.00     0.001 A 
ATOM     16  C   UNL     1       8.466  27.215 -33.807  1.00  0.00     0.001 A 
ATOM     17  C   UNL     1       7.927  27.083 -32.548  1.00  0.00     0.000 A 
ENDBRANCH   9  12
BRANCH   8  18
ATOM     18  C   UNL     1      13.809  29.655 -32.905  1.00  0.00    -0.018 A 
ATOM     19  C   UNL     1      14.704  29.478 -33.941  1.00  0.00     0.009 A 
ATOM     20  C   UNL     1      14.092  30.627 -31.950  1.00  0.00     0.009 A 
ATOM     21  C   UNL     1      15.831  30.257 -33.995  1.00  0.00     0.001 A 
ATOM     22  C   UNL     1      15.216  31.418 -31.990  1.00  0.00     0.001 A 
ATOM     23  C   UNL     1      16.103  31.221 -33.044  1.00  0.00     0.000 A 
ENDBRANCH   8  18
ENDBRANCH   3   8
ENDBRANCH   1   2
BRANCH   1  24
ATOM     24  C   UNL     1      13.400  22.309 -32.021  1.00  0.00     0.290 C 
BRANCH  24  25
ATOM     25  C   UNL     1      14.700  21.549 -32.040  1.00  0.00     0.303 C 
BRANCH  25  26
ATOM     26  N   UNL     1      15.662  22.110 -32.940  1.00  0.00    -0.337 N 
ATOM     27  C   UNL     1      15.139  22.344 -34.268  1.00  0.00     0.332 C 
ATOM     28  C   UNL     1      16.843  21.285 -33.087  1.00  0.00     0.332 C 
ATOM     29  H   UNL     1      16.015  23.050 -32.592  1.00  0.00     0.347 HD
ENDBRANCH  25  26
ENDBRANCH  24  25
ENDBRANCH   1  24
TORSDOF 8
ENDMDL
MODEL 8
REMARK VINA RESULT:      -5.3      3.549      7.267
REMARK SMILES CC/C(=C(\c1ccccc1)c1ccc(OCC[NH+](C)C)cc1)c1ccccc1
REMARK SMILES IDX 15 1 14 2 11 3 12 4 22 5 13 6 21 7 4 8 3 9 2 10 1 11 23 12
REMARK SMILES IDX 24 13 28 14 25 15 27 16 26 17 5 18 6 19 10 20 7 21 9 22 8 23
REMARK SMILES IDX 16 24 17 25 18 26 19 27 20 28
REMARK H PARENT 18 29
ROOT
ATOM      1  O   UNL     1       7.632  27.138 -32.260  1.00  0.00    -0.488 OA
ENDROOT
BRANCH   1   2
ATOM      2  C   UNL     1       8.924  26.678 -32.439  1.00  0.00     0.119 A 
ATOM      3  C   UNL     1      11.563  25.695 -32.915  1.00  0.00    -0.017 A 
ATOM      4  C   UNL     1      11.233  26.356 -31.749  1.00  0.00     0.012 A 
ATOM      5  C   UNL     1      10.533  25.538 -33.837  1.00  0.00     0.012 A 
ATOM      6  C   UNL     1       9.947  26.828 -31.532  1.00  0.00     0.047 A 
ATOM      7  C   UNL     1       9.264  26.005 -33.621  1.00  0.00     0.047 A 
BRANCH   3   8
ATOM      8  C   UNL     1      12.894  25.169 -33.159  1.00  0.00    -0.007 C 
ATOM      9  C   UNL     1      13.809  25.836 -33.814  1.00  0.00    -0.033 C 
BRANCH   9  10
ATOM     10  C   UNL     1      15.171  25.327 -34.133  1.00  0.00     0.033 C 
ATOM     11  C   UNL     1      15.102  24.510 -35.391  1.00  0.00     0.009 C 
ENDBRANCH   9  10
BRANCH   9  12
ATOM     12  C   UNL     1      13.571  27.225 -34.246  1.00  0.00    -0.022 A 
ATOM     13  C   UNL     1      13.847  28.296 -33.435  1.00  0.00     0.008 A 
ATOM     14  C   UNL     1      13.052  27.434 -35.487  1.00  0.00     0.008 A 
ATOM     15  C   UNL     1      13.598  29.569 -33.881  1.00  0.00     0.001 A 
ATOM     16  C   UNL     1      12.782  28.713 -35.981  1.00  0.00     0.001 A 
ATOM     17  C   UNL     1      13.070  29.768 -35.145  1.00  0.00     0.000 A 
ENDBRANCH   9  12
BRANCH   8  18
ATOM     18  C   UNL     1      13.193  23.833 -32.683  1.00  0.00    -0.018 A 
ATOM     19  C   UNL     1      13.806  23.604 -31.467  1.00  0.00     0.009 A 
ATOM     20  C   UNL     1      12.901  22.737 -33.489  1.00  0.00     0.009 A 
ATOM     21  C   UNL     1      14.104  22.317 -31.098  1.00  0.00     0.001 A 
ATOM     22  C   UNL     1      13.192  21.441 -33.134  1.00  0.00     0.001 A 
ATOM     23  C   UNL     1      13.809  21.235 -31.904  1.00  0.00     0.000 A 
ENDBRANCH   8  18
ENDBRANCH   3   8
ENDBRANCH   1   2
BRANCH   1  24
ATOM     24  C   UNL     1       7.192  28.439 -32.092  1.00  0.00     0.290 C 
BRANCH  24  25
ATOM     25  C   UNL     1       7.001  28.887 -30.666  1.00  0.00     0.303 C 
BRANCH  25  26
ATOM     26  N   UNL     1       5.905  29.794 -30.508  1.00  0.00    -0.337 N 
ATOM     27  C   UNL     1       4.615  29.139 -30.486  1.00  0.00     0.332 C 
ATOM     28  C   UNL     1       5.854  30.802 -31.547  1.00  0.00     0.332 C 
ATOM     29  H   UNL     1       5.978  30.333 -29.594  1.00  0.00     0.347 HD
ENDBRANCH  25  26
ENDBRANCH  24  25
ENDBRANCH   1  24
TORSDOF 8
ENDMDL
MODEL 9
REMARK VINA RESULT:      -5.3      3.454      7.087
REMARK SMILES CC/C(=C(\c1ccccc1)c1ccc(OCC[NH+](C)C)cc1)c1ccccc1
REMARK SMILES IDX 15 1 14 2 11 3 12 4 22 5 13 6 21 7 4 8 3 9 2 10 1 11 23 12
REMARK SMILES IDX 24 13 28 14 25 15 27 16 26 17 5 18 6 19 10 20 7 21 9 22 8 23
REMARK SMILES IDX 16 24 17 25 18 26 19 27 20 28
REMARK H PARENT 18 29
ROOT
ATOM      1  O   UNL     1       7.433  27.483 -32.214  1.00  0.00    -0.488 OA
ENDROOT
BRANCH   1   2
ATOM      2  C   UNL     1       8.721  27.012 -32.388  1.00  0.00     0.119 A 
ATOM      3  C   UNL     1      11.353  26.004 -32.855  1.00  0.00    -0.017 A 
ATOM      4  C   UNL     1      11.023  26.664 -31.688  1.00  0.00     0.012 A 
ATOM      5  C   UNL     1      10.326  25.861 -33.783  1.00  0.00     0.012 A 
ATOM      6  C   UNL     1       9.741  27.148 -31.476  1.00  0.00     0.047 A 
ATOM      7  C   UNL     1       9.060  26.340 -33.571  1.00  0.00     0.047 A 
BRANCH   3   8
ATOM      8  C   UNL     1      12.680  25.466 -33.094  1.00  0.00    -0.007 C 
ATOM      9  C   UNL     1      13.601  26.122 -33.752  1.00  0.00    -0.033 C 
BRANCH   9  10
ATOM     10  C   UNL     1      14.959  25.600 -34.066  1.00  0.00     0.033 C 
ATOM     11  C   UNL     1      14.891  24.801 -35.335  1.00  0.00     0.009 C 
ENDBRANCH   9  10
BRANCH   9  12
ATOM     12  C   UNL     1      13.375  27.511 -34.192  1.00  0.00    -0.022 A 
ATOM     13  C   UNL     1      13.549  28.578 -33.349  1.00  0.00     0.008 A 
ATOM     14  C   UNL     1      12.971  27.722 -35.475  1.00  0.00     0.008 A 
ATOM     15  C   UNL     1      13.316  29.851 -33.805  1.00  0.00     0.001 A 
ATOM     16  C   UNL     1      12.722  29.001 -35.981  1.00  0.00     0.001 A 
ATOM     17  C   UNL     1      12.906  30.052 -35.112  1.00  0.00     0.000 A 
ENDBRANCH   9  12
BRANCH   8  18
ATOM     18  C   UNL     1      12.968  24.131 -32.610  1.00  0.00    -0.018 A 
ATOM     19  C   UNL     1      13.532  23.902 -31.371  1.00  0.00     0.009 A 
ATOM     20  C   UNL     1      12.716  23.036 -33.431  1.00  0.00     0.009 A 
ATOM     21  C   UNL     1      13.823  22.616 -30.993  1.00  0.00     0.001 A 
ATOM     22  C   UNL     1      13.000  21.740 -33.067  1.00  0.00     0.001 A 
ATOM     23  C   UNL     1      13.568  21.535 -31.814  1.00  0.00     0.000 A 
ENDBRANCH   8  18
ENDBRANCH   3   8
ENDBRANCH   1   2
BRANCH   1  24
ATOM     24  C   UNL     1       6.934  28.750 -32.461  1.00  0.00     0.290 C 
BRANCH  24  25
ATOM     25  C   UNL     1       7.926  29.751 -32.994  1.00  0.00     0.303 C 
BRANCH  25  26
ATOM     26  N   UNL     1       7.544  31.107 -32.737  1.00  0.00    -0.337 N 
ATOM     27  C   UNL     1       7.933  31.575 -31.424  1.00  0.00     0.332 C 
ATOM     28  C   UNL     1       6.117  31.323 -32.860  1.00  0.00     0.332 C 
ATOM     29  H   UNL     1       7.992  31.774 -33.433  1.00  0.00     0.347 HD
ENDBRANCH  25  26
ENDBRANCH  24  25
ENDBRANCH   1  24
TORSDOF 8
ENDMDL
