MODEL 1
REMARK VINA RESULT:      -6.0      0.000      0.000
REMARK SMILES COc1cc(/C=C/C(=O)[NH+]2CCC=CC2=O)cc(OC)c1OC
REMARK SMILES IDX 6 1 7 2 5 3 3 4 4 5 21 6 18 7 17 8 2 9 1 10 22 11 23 12
REMARK SMILES IDX 19 13 20 14 8 15 9 16 10 17 11 18 15 19 12 20 14 21 16 22
REMARK SMILES IDX 13 23
REMARK H PARENT 10 24
ROOT
ATOM      1  C   UNL     1      13.422  25.309 -31.097  1.00  0.00     0.018 C 
ATOM      2  C   UNL     1      14.385  24.798 -31.835  1.00  0.00     0.116 C 
ENDROOT
BRANCH   1   3
ATOM      3  C   UNL     1      12.782  26.566 -31.413  1.00  0.00    -0.018 A 
ATOM      4  C   UNL     1      12.688  28.993 -31.659  1.00  0.00     0.165 A 
ATOM      5  C   UNL     1      13.358  27.805 -31.339  1.00  0.00     0.058 A 
ATOM      6  C   UNL     1      11.392  28.948 -32.071  1.00  0.00     0.203 A 
ATOM      7  C   UNL     1      10.787  27.720 -32.157  1.00  0.00     0.165 A 
ATOM      8  C   UNL     1      11.438  26.560 -31.845  1.00  0.00     0.058 A 
BRANCH   4   9
ATOM      9  O   UNL     1      13.314  30.219 -31.567  1.00  0.00    -0.493 OA
ATOM     10  C   UNL     1      14.380  30.604 -32.426  1.00  0.00     0.278 C 
ENDBRANCH   4   9
BRANCH   6  11
ATOM     11  O   UNL     1      10.716  30.134 -32.393  1.00  0.00    -0.490 OA
ATOM     12  C   UNL     1      10.792  30.526 -33.761  1.00  0.00     0.278 C 
ENDBRANCH   6  11
BRANCH   7  13
ATOM     13  O   UNL     1       9.470  27.665 -32.574  1.00  0.00    -0.493 OA
ATOM     14  C   UNL     1       9.100  27.097 -33.809  1.00  0.00     0.278 C 
ENDBRANCH   7  13
ENDBRANCH   1   3
BRANCH   2  15
ATOM     15  C   UNL     1      15.070  23.563 -31.592  1.00  0.00     0.344 C 
ATOM     16  O   UNL     1      16.145  23.814 -31.020  1.00  0.00    -0.226 OA
BRANCH  15  17
ATOM     17  N   UNL     1      15.297  22.250 -31.591  1.00  0.00    -0.201 N 
ATOM     18  C   UNL     1      14.258  21.423 -31.159  1.00  0.00     0.283 C 
ATOM     19  C   UNL     1      16.125  21.867 -32.608  1.00  0.00     0.344 C 
ATOM     20  C   UNL     1      13.313  21.280 -32.373  1.00  0.00     0.090 C 
ATOM     21  C   UNL     1      15.395  21.226 -33.738  1.00  0.00     0.112 C 
ATOM     22  O   UNL     1      17.353  21.953 -32.759  1.00  0.00    -0.226 OA
ATOM     23  C   UNL     1      14.114  20.979 -33.583  1.00  0.00    -0.011 C 
ATOM     24  H   UNL     1      15.998  21.819 -30.842  1.00  0.00     0.366 HD
ENDBRANCH  15  17
ENDBRANCH   2  15
TORSDOF 6
ENDMDL
MODEL 2
REMARK VINA RESULT:      -5.9      1.273      1.447
REMARK SMILES COc1cc(/C=C/C(=O)[NH+]2CCC=CC2=O)cc(OC)c1OC
REMARK SMILES IDX 6 1 7 2 5 3 3 4 4 5 21 6 18 7 17 8 2 9 1 10 22 11 23 12
REMARK SMILES IDX 19 13 20 14 8 15 9 16 10 17 11 18 15 19 12 20 14 21 16 22
REMARK SMILES IDX 13 23
REMARK H PARENT 10 24
ROOT
ATOM      1  C   UNL     1      13.148  25.935 -31.711  1.00  0.00     0.018 C 
ATOM      2  C   UNL     1      14.030  25.588 -32.623  1.00  0.00     0.116 C 
ENDROOT
BRANCH   1   3
ATOM      3  C   UNL     1      12.310  27.106 -31.843  1.00  0.00    -0.018 A 
ATOM      4  C   UNL     1      11.883  29.484 -32.199  1.00  0.00     0.165 A 
ATOM      5  C   UNL     1      12.743  28.384 -32.078  1.00  0.00     0.058 A 
ATOM      6  C   UNL     1      10.539  29.307 -32.082  1.00  0.00     0.203 A 
ATOM      7  C   UNL     1      10.075  28.038 -31.847  1.00  0.00     0.165 A 
ATOM      8  C   UNL     1      10.911  26.963 -31.729  1.00  0.00     0.058 A 
BRANCH   4   9
ATOM      9  O   UNL     1      12.369  30.754 -32.435  1.00  0.00    -0.493 OA
ATOM     10  C   UNL     1      13.744  31.086 -32.303  1.00  0.00     0.278 C 
ENDBRANCH   4   9
BRANCH   6  11
ATOM     11  O   UNL     1       9.674  30.404 -32.201  1.00  0.00    -0.490 OA
ATOM     12  C   UNL     1       9.261  30.713 -33.530  1.00  0.00     0.278 C 
ENDBRANCH   6  11
BRANCH   7  13
ATOM     13  O   UNL     1       8.711  27.849 -31.726  1.00  0.00    -0.493 OA
ATOM     14  C   UNL     1       7.928  27.349 -32.785  1.00  0.00     0.278 C 
ENDBRANCH   7  13
ENDBRANCH   1   3
BRANCH   2  15
ATOM     15  C   UNL     1      14.897  24.447 -32.569  1.00  0.00     0.344 C 
ATOM     16  O   UNL     1      15.954  24.781 -32.007  1.00  0.00    -0.226 OA
BRANCH  15  17
ATOM     17  N   UNL     1      15.308  23.193 -32.748  1.00  0.00    -0.201 N 
ATOM     18  C   UNL     1      15.473  22.406 -31.606  1.00  0.00     0.283 C 
ATOM     19  C   UNL     1      14.838  22.654 -33.912  1.00  0.00     0.344 C 
ATOM     20  C   UNL     1      14.055  21.911 -31.240  1.00  0.00     0.090 C 
ATOM     21  C   UNL     1      13.704  21.713 -33.697  1.00  0.00     0.112 C 
ATOM     22  O   UNL     1      15.179  22.804 -35.095  1.00  0.00    -0.226 OA
ATOM     23  C   UNL     1      13.384  21.405 -32.460  1.00  0.00    -0.011 C 
ATOM     24  H   UNL     1      16.356  23.004 -33.071  1.00  0.00     0.366 HD
ENDBRANCH  15  17
ENDBRANCH   2  15
TORSDOF 6
ENDMDL
MODEL 3
REMARK VINA RESULT:      -5.8      1.409      3.031
REMARK SMILES COc1cc(/C=C/C(=O)[NH+]2CCC=CC2=O)cc(OC)c1OC
REMARK SMILES IDX 6 1 7 2 5 3 3 4 4 5 21 6 18 7 17 8 2 9 1 10 22 11 23 12
REMARK SMILES IDX 19 13 20 14 8 15 9 16 10 17 11 18 15 19 12 20 14 21 16 22
REMARK SMILES IDX 13 23
REMARK H PARENT 10 24
ROOT
ATOM      1  C   UNL     1      12.567  25.529 -32.368  1.00  0.00     0.018 C 
ATOM      2  C   UNL     1      13.881  25.597 -32.331  1.00  0.00     0.116 C 
ENDROOT
BRANCH   1   3
ATOM      3  C   UNL     1      11.724  26.699 -32.264  1.00  0.00    -0.018 A 
ATOM      4  C   UNL     1       9.593  27.869 -32.035  1.00  0.00     0.165 A 
ATOM      5  C   UNL     1      10.362  26.701 -32.132  1.00  0.00     0.058 A 
ATOM      6  C   UNL     1      10.204  29.084 -32.070  1.00  0.00     0.203 A 
ATOM      7  C   UNL     1      11.569  29.115 -32.201  1.00  0.00     0.165 A 
ATOM      8  C   UNL     1      12.320  27.978 -32.296  1.00  0.00     0.058 A 
BRANCH   4   9
ATOM      9  O   UNL     1       8.220  27.817 -31.904  1.00  0.00    -0.493 OA
ATOM     10  C   UNL     1       7.353  27.576 -33.004  1.00  0.00     0.278 C 
ENDBRANCH   4   9
BRANCH   6  11
ATOM     11  O   UNL     1       9.439  30.256 -31.974  1.00  0.00    -0.490 OA
ATOM     12  C   UNL     1       9.082  30.854 -33.217  1.00  0.00     0.278 C 
ENDBRANCH   6  11
BRANCH   7  13
ATOM     13  O   UNL     1      12.197  30.346 -32.237  1.00  0.00    -0.493 OA
ATOM     14  C   UNL     1      13.598  30.469 -32.309  1.00  0.00     0.278 C 
ENDBRANCH   7  13
ENDBRANCH   1   3
BRANCH   2  15
ATOM     15  C   UNL     1      14.787  24.491 -32.426  1.00  0.00     0.344 C 
ATOM     16  O   UNL     1      15.879  24.831 -31.940  1.00  0.00    -0.226 OA
BRANCH  15  17
ATOM     17  N   UNL     1      15.223  23.267 -32.721  1.00  0.00    -0.201 N 
ATOM     18  C   UNL     1      15.450  22.396 -31.653  1.00  0.00     0.283 C 
ATOM     19  C   UNL     1      14.723  22.810 -33.907  1.00  0.00     0.344 C 
ATOM     20  C   UNL     1      14.060  21.833 -31.277  1.00  0.00     0.090 C 
ATOM     21  C   UNL     1      13.621  21.823 -33.729  1.00  0.00     0.112 C 
ATOM     22  O   UNL     1      15.015  23.062 -35.086  1.00  0.00    -0.226 OA
ATOM     23  C   UNL     1      13.356  21.408 -32.510  1.00  0.00    -0.011 C 
ATOM     24  H   UNL     1      16.262  23.134 -33.094  1.00  0.00     0.366 HD
ENDBRANCH  15  17
ENDBRANCH   2  15
TORSDOF 6
ENDMDL
MODEL 4
REMARK VINA RESULT:      -5.7      2.463      3.864
REMARK SMILES COc1cc(/C=C/C(=O)[NH+]2CCC=CC2=O)cc(OC)c1OC
REMARK SMILES IDX 6 1 7 2 5 3 3 4 4 5 21 6 18 7 17 8 2 9 1 10 22 11 23 12
REMARK SMILES IDX 19 13 20 14 8 15 9 16 10 17 11 18 15 19 12 20 14 21 16 22
REMARK SMILES IDX 13 23
REMARK H PARENT 10 24
ROOT
ATOM      1  C   UNL     1      11.238  26.261 -30.943  1.00  0.00     0.018 C 
ATOM      2  C   UNL     1      12.144  25.686 -31.704  1.00  0.00     0.116 C 
ENDROOT
BRANCH   1   3
ATOM      3  C   UNL     1      10.110  26.985 -31.486  1.00  0.00    -0.018 A 
ATOM      4  C   UNL     1       8.265  27.347 -33.044  1.00  0.00     0.165 A 
ATOM      5  C   UNL     1       9.351  26.604 -32.560  1.00  0.00     0.058 A 
ATOM      6  C   UNL     1       7.921  28.516 -32.437  1.00  0.00     0.203 A 
ATOM      7  C   UNL     1       8.664  28.923 -31.358  1.00  0.00     0.165 A 
ATOM      8  C   UNL     1       9.722  28.200 -30.884  1.00  0.00     0.058 A 
BRANCH   4   9
ATOM      9  O   UNL     1       7.530  26.921 -34.131  1.00  0.00    -0.493 OA
ATOM     10  C   UNL     1       7.957  25.862 -34.979  1.00  0.00     0.278 C 
ENDBRANCH   4   9
BRANCH   6  11
ATOM     11  O   UNL     1       6.836  29.263 -32.918  1.00  0.00    -0.490 OA
ATOM     12  C   UNL     1       5.588  29.003 -32.281  1.00  0.00     0.278 C 
ENDBRANCH   6  11
BRANCH   7  13
ATOM     13  O   UNL     1       8.321  30.109 -30.735  1.00  0.00    -0.493 OA
ATOM     14  C   UNL     1       7.743  30.140 -29.452  1.00  0.00     0.278 C 
ENDBRANCH   7  13
ENDBRANCH   1   3
BRANCH   2  15
ATOM     15  C   UNL     1      13.288  24.953 -31.247  1.00  0.00     0.344 C 
ATOM     16  O   UNL     1      13.741  25.516 -30.236  1.00  0.00    -0.226 OA
BRANCH  15  17
ATOM     17  N   UNL     1      14.222  24.003 -31.219  1.00  0.00    -0.201 N 
ATOM     18  C   UNL     1      13.803  22.706 -30.912  1.00  0.00     0.283 C 
ATOM     19  C   UNL     1      15.215  24.224 -32.129  1.00  0.00     0.344 C 
ATOM     20  C   UNL     1      13.232  22.135 -32.231  1.00  0.00     0.090 C 
ATOM     21  C   UNL     1      15.096  23.361 -33.337  1.00  0.00     0.112 C 
ATOM     22  O   UNL     1      16.182  25.001 -32.133  1.00  0.00    -0.226 OA
ATOM     23  C   UNL     1      14.176  22.422 -33.336  1.00  0.00    -0.011 C 
ATOM     24  H   UNL     1      14.965  23.994 -30.391  1.00  0.00     0.366 HD
ENDBRANCH  15  17
ENDBRANCH   2  15
TORSDOF 6
ENDMDL
MODEL 5
REMARK VINA RESULT:      -5.7      2.735      4.472
REMARK SMILES COc1cc(/C=C/C(=O)[NH+]2CCC=CC2=O)cc(OC)c1OC
REMARK SMILES IDX 6 1 7 2 5 3 3 4 4 5 21 6 18 7 17 8 2 9 1 10 22 11 23 12
REMARK SMILES IDX 19 13 20 14 8 15 9 16 10 17 11 18 15 19 12 20 14 21 16 22
REMARK SMILES IDX 13 23
REMARK H PARENT 10 24
ROOT
ATOM      1  C   UNL     1      10.795  26.754 -31.111  1.00  0.00     0.018 C 
ATOM      2  C   UNL     1      11.851  26.804 -31.895  1.00  0.00     0.116 C 
ENDROOT
BRANCH   1   3
ATOM      3  C   UNL     1       9.513  27.299 -31.496  1.00  0.00    -0.018 A 
ATOM      4  C   UNL     1       7.549  27.514 -32.930  1.00  0.00     0.165 A 
ATOM      5  C   UNL     1       8.791  26.952 -32.606  1.00  0.00     0.058 A 
ATOM      6  C   UNL     1       7.002  28.460 -32.119  1.00  0.00     0.203 A 
ATOM      7  C   UNL     1       7.702  28.829 -30.999  1.00  0.00     0.165 A 
ATOM      8  C   UNL     1       8.913  28.282 -30.680  1.00  0.00     0.058 A 
BRANCH   4   9
ATOM      9  O   UNL     1       6.859  27.130 -34.063  1.00  0.00    -0.493 OA
ATOM     10  C   UNL     1       7.389  26.211 -35.009  1.00  0.00     0.278 C 
ENDBRANCH   4   9
BRANCH   6  11
ATOM     11  O   UNL     1       5.760  29.026 -32.439  1.00  0.00    -0.490 OA
ATOM     12  C   UNL     1       5.813  30.170 -33.287  1.00  0.00     0.278 C 
ENDBRANCH   6  11
BRANCH   7  13
ATOM     13  O   UNL     1       7.154  29.789 -30.169  1.00  0.00    -0.493 OA
ATOM     14  C   UNL     1       7.598  31.125 -30.175  1.00  0.00     0.278 C 
ENDBRANCH   7  13
ENDBRANCH   1   3
BRANCH   2  15
ATOM     15  C   UNL     1      13.154  26.290 -31.591  1.00  0.00     0.344 C 
ATOM     16  O   UNL     1      13.718  27.080 -30.813  1.00  0.00    -0.226 OA
BRANCH  15  17
ATOM     17  N   UNL     1      14.197  25.462 -31.615  1.00  0.00    -0.201 N 
ATOM     18  C   UNL     1      14.205  24.419 -30.685  1.00  0.00     0.283 C 
ATOM     19  C   UNL     1      14.689  25.284 -32.876  1.00  0.00     0.344 C 
ATOM     20  C   UNL     1      13.295  23.324 -31.288  1.00  0.00     0.090 C 
ATOM     21  C   UNL     1      14.288  23.981 -33.476  1.00  0.00     0.112 C 
ATOM     22  O   UNL     1      15.398  25.999 -33.601  1.00  0.00    -0.226 OA
ATOM     23  C   UNL     1      13.653  23.120 -32.711  1.00  0.00    -0.011 C 
ATOM     24  H   UNL     1      15.189  25.825 -31.266  1.00  0.00     0.366 HD
ENDBRANCH  15  17
ENDBRANCH   2  15
TORSDOF 6
ENDMDL
MODEL 6
REMARK VINA RESULT:      -5.6      1.223      1.350
REMARK SMILES COc1cc(/C=C/C(=O)[NH+]2CCC=CC2=O)cc(OC)c1OC
REMARK SMILES IDX 6 1 7 2 5 3 3 4 4 5 21 6 18 7 17 8 2 9 1 10 22 11 23 12
REMARK SMILES IDX 19 13 20 14 8 15 9 16 10 17 11 18 15 19 12 20 14 21 16 22
REMARK SMILES IDX 13 23
REMARK H PARENT 10 24
ROOT
ATOM      1  C   UNL     1      13.054  26.107 -30.958  1.00  0.00     0.018 C 
ATOM      2  C   UNL     1      13.031  25.003 -31.673  1.00  0.00     0.116 C 
ENDROOT
BRANCH   1   3
ATOM      3  C   UNL     1      12.481  27.349 -31.425  1.00  0.00    -0.018 A 
ATOM      4  C   UNL     1      12.566  29.649 -32.240  1.00  0.00     0.165 A 
ATOM      5  C   UNL     1      13.176  28.469 -31.792  1.00  0.00     0.058 A 
ATOM      6  C   UNL     1      11.210  29.718 -32.325  1.00  0.00     0.203 A 
ATOM      7  C   UNL     1      10.486  28.611 -31.964  1.00  0.00     0.165 A 
ATOM      8  C   UNL     1      11.078  27.459 -31.528  1.00  0.00     0.058 A 
BRANCH   4   9
ATOM      9  O   UNL     1      13.313  30.753 -32.599  1.00  0.00    -0.493 OA
ATOM     10  C   UNL     1      14.647  30.956 -32.151  1.00  0.00     0.278 C 
ENDBRANCH   4   9
BRANCH   6  11
ATOM     11  O   UNL     1      10.595  30.897 -32.772  1.00  0.00    -0.490 OA
ATOM     12  C   UNL     1      10.404  30.987 -34.181  1.00  0.00     0.278 C 
ENDBRANCH   6  11
BRANCH   7  13
ATOM     13  O   UNL     1       9.107  28.673 -32.048  1.00  0.00    -0.493 OA
ATOM     14  C   UNL     1       8.273  27.794 -31.330  1.00  0.00     0.278 C 
ENDBRANCH   7  13
ENDBRANCH   1   3
BRANCH   2  15
ATOM     15  C   UNL     1      13.575  23.734 -31.286  1.00  0.00     0.344 C 
ATOM     16  O   UNL     1      13.060  23.397 -30.205  1.00  0.00    -0.226 OA
BRANCH  15  17
ATOM     17  N   UNL     1      14.320  22.631 -31.353  1.00  0.00    -0.201 N 
ATOM     18  C   UNL     1      13.649  21.416 -31.510  1.00  0.00     0.283 C 
ATOM     19  C   UNL     1      15.522  22.854 -31.960  1.00  0.00     0.344 C 
ATOM     20  C   UNL     1      13.327  21.316 -33.019  1.00  0.00     0.090 C 
ATOM     21  C   UNL     1      15.564  22.356 -33.363  1.00  0.00     0.112 C 
ATOM     22  O   UNL     1      16.569  23.388 -31.562  1.00  0.00    -0.226 OA
ATOM     23  C   UNL     1      14.539  21.659 -33.800  1.00  0.00    -0.011 C 
ATOM     24  H   UNL     1      14.836  22.266 -30.438  1.00  0.00     0.366 HD
ENDBRANCH  15  17
ENDBRANCH   2  15
TORSDOF 6
ENDMDL
MODEL 7
REMARK VINA RESULT:      -5.6      1.739      2.264
REMARK SMILES COc1cc(/C=C/C(=O)[NH+]2CCC=CC2=O)cc(OC)c1OC
REMARK SMILES IDX 6 1 7 2 5 3 3 4 4 5 21 6 18 7 17 8 2 9 1 10 22 11 23 12
REMARK SMILES IDX 19 13 20 14 8 15 9 16 10 17 11 18 15 19 12 20 14 21 16 22
REMARK SMILES IDX 13 23
REMARK H PARENT 10 24
ROOT
ATOM      1  C   UNL     1      12.864  27.000 -31.305  1.00  0.00     0.018 C 
ATOM      2  C   UNL     1      12.467  25.749 -31.396  1.00  0.00     0.116 C 
ENDROOT
BRANCH   1   3
ATOM      3  C   UNL     1      12.025  28.113 -31.690  1.00  0.00    -0.018 A 
ATOM      4  C   UNL     1      11.583  30.309 -32.661  1.00  0.00     0.165 A 
ATOM      5  C   UNL     1      12.443  29.260 -32.309  1.00  0.00     0.058 A 
ATOM      6  C   UNL     1      10.254  30.214 -32.387  1.00  0.00     0.203 A 
ATOM      7  C   UNL     1       9.805  29.076 -31.767  1.00  0.00     0.165 A 
ATOM      8  C   UNL     1      10.641  28.051 -31.423  1.00  0.00     0.058 A 
BRANCH   4   9
ATOM      9  O   UNL     1      12.054  31.446 -33.284  1.00  0.00    -0.493 OA
ATOM     10  C   UNL     1      12.588  31.435 -34.601  1.00  0.00     0.278 C 
ENDBRANCH   4   9
BRANCH   6  11
ATOM     11  O   UNL     1       9.389  31.261 -32.736  1.00  0.00    -0.490 OA
ATOM     12  C   UNL     1       8.779  31.144 -34.019  1.00  0.00     0.278 C 
ENDBRANCH   6  11
BRANCH   7  13
ATOM     13  O   UNL     1       8.455  28.971 -31.485  1.00  0.00    -0.493 OA
ATOM     14  C   UNL     1       7.948  29.134 -30.181  1.00  0.00     0.278 C 
ENDBRANCH   7  13
ENDBRANCH   1   3
BRANCH   2  15
ATOM     15  C   UNL     1      13.232  24.591 -31.038  1.00  0.00     0.344 C 
ATOM     16  O   UNL     1      12.857  24.200 -29.919  1.00  0.00    -0.226 OA
BRANCH  15  17
ATOM     17  N   UNL     1      14.138  23.620 -31.148  1.00  0.00    -0.201 N 
ATOM     18  C   UNL     1      13.667  22.304 -31.134  1.00  0.00     0.283 C 
ATOM     19  C   UNL     1      15.192  23.981 -31.937  1.00  0.00     0.344 C 
ATOM     20  C   UNL     1      13.167  22.031 -32.571  1.00  0.00     0.090 C 
ATOM     21  C   UNL     1      15.128  23.382 -33.300  1.00  0.00     0.112 C 
ATOM     22  O   UNL     1      16.177  24.706 -31.729  1.00  0.00    -0.226 OA
ATOM     23  C   UNL     1      14.186  22.497 -33.540  1.00  0.00    -0.011 C 
ATOM     24  H   UNL     1      14.827  23.418 -30.299  1.00  0.00     0.366 HD
ENDBRANCH  15  17
ENDBRANCH   2  15
TORSDOF 6
ENDMDL
MODEL 8
REMARK VINA RESULT:      -5.6      1.687      3.301
REMARK SMILES COc1cc(/C=C/C(=O)[NH+]2CCC=CC2=O)cc(OC)c1OC
REMARK SMILES IDX 6 1 7 2 5 3 3 4 4 5 21 6 18 7 17 8 2 9 1 10 22 11 23 12
REMARK SMILES IDX 19 13 20 14 8 15 9 16 10 17 11 18 15 19 12 20 14 21 16 22
REMARK SMILES IDX 13 23
REMARK H PARENT 10 24
ROOT
ATOM      1  C   UNL     1      11.881  26.112 -32.038  1.00  0.00     0.018 C 
ATOM      2  C   UNL     1      12.516  25.693 -30.965  1.00  0.00     0.116 C 
ENDROOT
BRANCH   1   3
ATOM      3  C   UNL     1      11.185  27.378 -32.086  1.00  0.00    -0.018 A 
ATOM      4  C   UNL     1       9.236  28.833 -31.873  1.00  0.00     0.165 A 
ATOM      5  C   UNL     1       9.859  27.580 -31.811  1.00  0.00     0.058 A 
ATOM      6  C   UNL     1       9.959  29.931 -32.222  1.00  0.00     0.203 A 
ATOM      7  C   UNL     1      11.291  29.762 -32.503  1.00  0.00     0.165 A 
ATOM      8  C   UNL     1      11.901  28.540 -32.443  1.00  0.00     0.058 A 
BRANCH   4   9
ATOM      9  O   UNL     1       7.894  28.984 -31.586  1.00  0.00    -0.493 OA
ATOM     10  C   UNL     1       7.065  27.896 -31.200  1.00  0.00     0.278 C 
ENDBRANCH   4   9
BRANCH   6  11
ATOM     11  O   UNL     1       9.340  31.188 -32.286  1.00  0.00    -0.490 OA
ATOM     12  C   UNL     1       8.821  31.546 -33.564  1.00  0.00     0.278 C 
ENDBRANCH   6  11
BRANCH   7  13
ATOM     13  O   UNL     1      12.034  30.872 -32.859  1.00  0.00    -0.493 OA
ATOM     14  C   UNL     1      13.352  31.069 -32.403  1.00  0.00     0.278 C 
ENDBRANCH   7  13
ENDBRANCH   1   3
BRANCH   2  15
ATOM     15  C   UNL     1      13.228  24.456 -30.834  1.00  0.00     0.344 C 
ATOM     16  O   UNL     1      12.787  23.849 -29.843  1.00  0.00    -0.226 OA
BRANCH  15  17
ATOM     17  N   UNL     1      14.108  23.496 -31.115  1.00  0.00    -0.201 N 
ATOM     18  C   UNL     1      13.608  22.204 -31.294  1.00  0.00     0.283 C 
ATOM     19  C   UNL     1      15.155  23.954 -31.862  1.00  0.00     0.344 C 
ATOM     20  C   UNL     1      13.073  22.168 -32.744  1.00  0.00     0.090 C 
ATOM     21  C   UNL     1      15.051  23.576 -33.299  1.00  0.00     0.112 C 
ATOM     22  O   UNL     1      16.161  24.618 -31.566  1.00  0.00    -0.226 OA
ATOM     23  C   UNL     1      14.084  22.759 -33.652  1.00  0.00    -0.011 C 
ATOM     24  H   UNL     1      14.809  23.150 -30.323  1.00  0.00     0.366 HD
ENDBRANCH  15  17
ENDBRANCH   2  15
TORSDOF 6
ENDMDL
MODEL 9
REMARK VINA RESULT:      -5.6      1.089      2.486
REMARK SMILES COc1cc(/C=C/C(=O)[NH+]2CCC=CC2=O)cc(OC)c1OC
REMARK SMILES IDX 6 1 7 2 5 3 3 4 4 5 21 6 18 7 17 8 2 9 1 10 22 11 23 12
REMARK SMILES IDX 19 13 20 14 8 15 9 16 10 17 11 18 15 19 12 20 14 21 16 22
REMARK SMILES IDX 13 23
REMARK H PARENT 10 24
ROOT
ATOM      1  C   UNL     1      13.340  24.708 -32.073  1.00  0.00     0.018 C 
ATOM      2  C   UNL     1      14.527  24.446 -31.570  1.00  0.00     0.116 C 
ENDROOT
BRANCH   1   3
ATOM      3  C   UNL     1      12.729  26.015 -31.988  1.00  0.00    -0.018 A 
ATOM      4  C   UNL     1      10.986  27.597 -31.340  1.00  0.00     0.165 A 
ATOM      5  C   UNL     1      11.531  26.307 -31.393  1.00  0.00     0.058 A 
ATOM      6  C   UNL     1      11.658  28.639 -31.900  1.00  0.00     0.203 A 
ATOM      7  C   UNL     1      12.862  28.378 -32.504  1.00  0.00     0.165 A 
ATOM      8  C   UNL     1      13.396  27.121 -32.557  1.00  0.00     0.058 A 
BRANCH   4   9
ATOM      9  O   UNL     1       9.773  27.840 -30.728  1.00  0.00    -0.493 OA
ATOM     10  C   UNL     1       8.528  27.554 -31.351  1.00  0.00     0.278 C 
ENDBRANCH   4   9
BRANCH   6  11
ATOM     11  O   UNL     1      11.117  29.932 -31.850  1.00  0.00    -0.490 OA
ATOM     12  C   UNL     1      10.340  30.311 -32.983  1.00  0.00     0.278 C 
ENDBRANCH   6  11
BRANCH   7  13
ATOM     13  O   UNL     1      13.551  29.430 -33.075  1.00  0.00    -0.493 OA
ATOM     14  C   UNL     1      14.428  29.248 -34.162  1.00  0.00     0.278 C 
ENDBRANCH   7  13
ENDBRANCH   1   3
BRANCH   2  15
ATOM     15  C   UNL     1      15.202  23.183 -31.610  1.00  0.00     0.344 C 
ATOM     16  O   UNL     1      16.376  23.350 -31.237  1.00  0.00    -0.226 OA
BRANCH  15  17
ATOM     17  N   UNL     1      15.378  21.876 -31.804  1.00  0.00    -0.201 N 
ATOM     18  C   UNL     1      14.314  21.033 -31.474  1.00  0.00     0.283 C 
ATOM     19  C   UNL     1      16.174  21.615 -32.882  1.00  0.00     0.344 C 
ATOM     20  C   UNL     1      13.345  21.103 -32.677  1.00  0.00     0.090 C 
ATOM     21  C   UNL     1      15.404  21.172 -34.078  1.00  0.00     0.112 C 
ATOM     22  O   UNL     1      17.403  21.678 -33.044  1.00  0.00    -0.226 OA
ATOM     23  C   UNL     1      14.116  20.952 -33.934  1.00  0.00    -0.011 C 
ATOM     24  H   UNL     1      16.072  21.315 -31.140  1.00  0.00     0.366 HD
ENDBRANCH  15  17
ENDBRANCH   2  15
TORSDOF 6
ENDMDL
