MODEL 1
REMARK VINA RESULT:      -5.6      0.000      0.000
REMARK SMILES CNCC[C@H](Oc1cccc2ccccc12)c1cccs1
REMARK SMILES IDX 4 1 3 2 2 3 1 4 5 6 6 7 7 8 8 9 16 10 9 11 15 12 11 13 10 14
REMARK SMILES IDX 14 15 12 16 13 17 17 18 18 19 21 20 19 21 20 22
REMARK H PARENT 2 5
ROOT
ATOM      1  C   UNL     1      13.905  27.605 -34.457  1.00  0.00     0.066 C 
ENDROOT
BRANCH   1   2
ATOM      2  C   UNL     1      14.172  28.993 -34.076  1.00  0.00     0.085 C 
BRANCH   2   3
ATOM      3  N   UNL     1      14.430  29.377 -32.762  1.00  0.00    -0.320 NA
ATOM      4  C   UNL     1      14.832  30.686 -32.443  1.00  0.00     0.101 C 
ATOM      5  H   UNL     1      14.003  28.868 -31.986  1.00  0.00     0.122 HD
ENDBRANCH   2   3
ENDBRANCH   1   2
BRANCH   1   6
ATOM      6  C   UNL     1      13.955  26.498 -33.476  1.00  0.00     0.215 C 
BRANCH   6   7
ATOM      7  O   UNL     1      14.208  25.216 -33.947  1.00  0.00    -0.484 OA
BRANCH   7   8
ATOM      8  C   UNL     1      14.904  24.274 -33.228  1.00  0.00     0.128 A 
ATOM      9  C   UNL     1      15.643  24.541 -32.119  1.00  0.00     0.047 A 
ATOM     10  C   UNL     1      14.829  22.945 -33.690  1.00  0.00     0.024 A 
ATOM     11  C   UNL     1      16.306  23.501 -31.469  1.00  0.00     0.004 A 
ATOM     12  C   UNL     1      14.074  22.659 -34.816  1.00  0.00     0.012 A 
ATOM     13  C   UNL     1      15.480  21.901 -33.059  1.00  0.00    -0.015 A 
ATOM     14  C   UNL     1      16.233  22.208 -31.921  1.00  0.00     0.009 A 
ATOM     15  C   UNL     1      13.999  21.358 -35.261  1.00  0.00     0.001 A 
ATOM     16  C   UNL     1      15.399  20.602 -33.513  1.00  0.00     0.009 A 
ATOM     17  C   UNL     1      14.652  20.323 -34.627  1.00  0.00     0.001 A 
ENDBRANCH   7   8
ENDBRANCH   6   7
BRANCH   6  18
ATOM     18  C   UNL     1      12.592  26.504 -32.801  1.00  0.00     0.045 A 
ATOM     19  C   UNL     1      12.259  26.495 -31.495  1.00  0.00     0.019 A 
ATOM     20  S   UNL     1      11.012  26.526 -33.617  1.00  0.00    -0.145 S 
ATOM     21  C   UNL     1      10.985  26.504 -31.121  1.00  0.00     0.012 A 
ATOM     22  C   UNL     1      10.039  26.523 -32.117  1.00  0.00     0.065 A 
ENDBRANCH   6  18
ENDBRANCH   1   6
TORSDOF 6
ENDMDL
MODEL 2
REMARK VINA RESULT:      -5.5      2.524      6.898
REMARK SMILES CNCC[C@H](Oc1cccc2ccccc12)c1cccs1
REMARK SMILES IDX 4 1 3 2 2 3 1 4 5 6 6 7 7 8 8 9 16 10 9 11 15 12 11 13 10 14
REMARK SMILES IDX 14 15 12 16 13 17 17 18 18 19 21 20 19 21 20 22
REMARK H PARENT 2 5
ROOT
ATOM      1  C   UNL     1      12.751  28.258 -31.507  1.00  0.00     0.066 C 
ENDROOT
BRANCH   1   2
ATOM      2  C   UNL     1      13.328  29.415 -32.193  1.00  0.00     0.085 C 
BRANCH   2   3
ATOM      3  N   UNL     1      14.532  29.999 -31.803  1.00  0.00    -0.320 NA
ATOM      4  C   UNL     1      15.092  31.075 -32.514  1.00  0.00     0.101 C 
ATOM      5  H   UNL     1      14.845  29.928 -30.834  1.00  0.00     0.122 HD
ENDBRANCH   2   3
ENDBRANCH   1   2
BRANCH   1   6
ATOM      6  C   UNL     1      12.228  27.088 -32.247  1.00  0.00     0.215 C 
BRANCH   6   7
ATOM      7  O   UNL     1      11.019  26.539 -31.836  1.00  0.00    -0.484 OA
BRANCH   7   8
ATOM      8  C   UNL     1       9.851  26.679 -32.544  1.00  0.00     0.128 A 
ATOM      9  C   UNL     1       9.603  26.096 -33.747  1.00  0.00     0.047 A 
ATOM     10  C   UNL     1       8.852  27.485 -31.963  1.00  0.00     0.024 A 
ATOM     11  C   UNL     1       8.376  26.309 -34.375  1.00  0.00     0.004 A 
ATOM     12  C   UNL     1       9.090  28.080 -30.735  1.00  0.00     0.012 A 
ATOM     13  C   UNL     1       7.630  27.708 -32.569  1.00  0.00    -0.015 A 
ATOM     14  C   UNL     1       7.406  27.095 -33.807  1.00  0.00     0.009 A 
ATOM     15  C   UNL     1       8.110  28.863 -30.166  1.00  0.00     0.001 A 
ATOM     16  C   UNL     1       6.655  28.495 -31.993  1.00  0.00     0.009 A 
ATOM     17  C   UNL     1       6.894  29.081 -30.779  1.00  0.00     0.001 A 
ENDBRANCH   7   8
ENDBRANCH   6   7
BRANCH   6  18
ATOM     18  C   UNL     1      13.308  26.024 -32.121  1.00  0.00     0.045 A 
ATOM     19  C   UNL     1      13.667  25.257 -31.072  1.00  0.00     0.019 A 
ATOM     20  S   UNL     1      14.427  25.502 -33.400  1.00  0.00    -0.145 S 
ATOM     21  C   UNL     1      14.654  24.376 -31.184  1.00  0.00     0.012 A 
ATOM     22  C   UNL     1      15.282  24.288 -32.403  1.00  0.00     0.065 A 
ENDBRANCH   6  18
ENDBRANCH   1   6
TORSDOF 6
ENDMDL
MODEL 3
REMARK VINA RESULT:      -5.4      2.186      3.025
REMARK SMILES CNCC[C@H](Oc1cccc2ccccc12)c1cccs1
REMARK SMILES IDX 4 1 3 2 2 3 1 4 5 6 6 7 7 8 8 9 16 10 9 11 15 12 11 13 10 14
REMARK SMILES IDX 14 15 12 16 13 17 17 18 18 19 21 20 19 21 20 22
REMARK H PARENT 2 5
ROOT
ATOM      1  C   UNL     1      12.129  25.727 -35.063  1.00  0.00     0.066 C 
ENDROOT
BRANCH   1   2
ATOM      2  C   UNL     1      11.032  24.777 -35.255  1.00  0.00     0.085 C 
BRANCH   2   3
ATOM      3  N   UNL     1      10.136  24.445 -34.240  1.00  0.00    -0.320 NA
ATOM      4  C   UNL     1       8.745  24.510 -34.437  1.00  0.00     0.101 C 
ATOM      5  H   UNL     1      10.426  23.822 -33.486  1.00  0.00     0.122 HD
ENDBRANCH   2   3
ENDBRANCH   1   2
BRANCH   1   6
ATOM      6  C   UNL     1      13.045  25.645 -33.904  1.00  0.00     0.215 C 
BRANCH   6   7
ATOM      7  O   UNL     1      13.064  24.467 -33.165  1.00  0.00    -0.484 OA
BRANCH   7   8
ATOM      8  C   UNL     1      14.222  23.877 -32.720  1.00  0.00     0.128 A 
ATOM      9  C   UNL     1      15.010  24.375 -31.730  1.00  0.00     0.047 A 
ATOM     10  C   UNL     1      14.598  22.673 -33.346  1.00  0.00     0.024 A 
ATOM     11  C   UNL     1      16.165  23.686 -31.361  1.00  0.00     0.004 A 
ATOM     12  C   UNL     1      13.800  22.152 -34.352  1.00  0.00     0.012 A 
ATOM     13  C   UNL     1      15.738  21.976 -32.994  1.00  0.00    -0.015 A 
ATOM     14  C   UNL     1      16.529  22.513 -31.972  1.00  0.00     0.009 A 
ATOM     15  C   UNL     1      14.167  20.971 -34.958  1.00  0.00     0.001 A 
ATOM     16  C   UNL     1      16.098  20.795 -33.607  1.00  0.00     0.009 A 
ATOM     17  C   UNL     1      15.307  20.283 -34.601  1.00  0.00     0.001 A 
ENDBRANCH   7   8
ENDBRANCH   6   7
BRANCH   6  18
ATOM     18  C   UNL     1      12.627  26.783 -32.986  1.00  0.00     0.045 A 
ATOM     19  C   UNL     1      11.696  26.829 -32.013  1.00  0.00     0.019 A 
ATOM     20  S   UNL     1      13.303  28.428 -32.971  1.00  0.00    -0.145 S 
ATOM     21  C   UNL     1      11.493  27.945 -31.322  1.00  0.00     0.012 A 
ATOM     22  C   UNL     1      12.267  29.033 -31.645  1.00  0.00     0.065 A 
ENDBRANCH   6  18
ENDBRANCH   1   6
TORSDOF 6
ENDMDL
MODEL 4
REMARK VINA RESULT:      -5.2      2.203      3.761
REMARK SMILES CNCC[C@H](Oc1cccc2ccccc12)c1cccs1
REMARK SMILES IDX 4 1 3 2 2 3 1 4 5 6 6 7 7 8 8 9 16 10 9 11 15 12 11 13 10 14
REMARK SMILES IDX 14 15 12 16 13 17 17 18 18 19 21 20 19 21 20 22
REMARK H PARENT 2 5
ROOT
ATOM      1  C   UNL     1      11.752  27.411 -32.204  1.00  0.00     0.066 C 
ENDROOT
BRANCH   1   2
ATOM      2  C   UNL     1      10.518  26.745 -32.626  1.00  0.00     0.085 C 
BRANCH   2   3
ATOM      3  N   UNL     1      10.490  25.430 -33.084  1.00  0.00    -0.320 NA
ATOM      4  C   UNL     1      10.079  25.114 -34.391  1.00  0.00     0.101 C 
ATOM      5  H   UNL     1      11.084  24.723 -32.648  1.00  0.00     0.122 HD
ENDBRANCH   2   3
ENDBRANCH   1   2
BRANCH   1   6
ATOM      6  C   UNL     1      13.028  27.232 -32.931  1.00  0.00     0.215 C 
BRANCH   6   7
ATOM      7  O   UNL     1      14.019  26.459 -32.337  1.00  0.00    -0.484 OA
BRANCH   7   8
ATOM      8  C   UNL     1      13.829  25.152 -31.961  1.00  0.00     0.128 A 
ATOM      9  C   UNL     1      13.415  24.757 -30.728  1.00  0.00     0.047 A 
ATOM     10  C   UNL     1      14.085  24.169 -32.937  1.00  0.00     0.024 A 
ATOM     11  C   UNL     1      13.255  23.397 -30.460  1.00  0.00     0.004 A 
ATOM     12  C   UNL     1      14.502  24.560 -34.200  1.00  0.00     0.012 A 
ATOM     13  C   UNL     1      13.933  22.818 -32.691  1.00  0.00    -0.015 A 
ATOM     14  C   UNL     1      13.506  22.443 -31.413  1.00  0.00     0.009 A 
ATOM     15  C   UNL     1      14.746  23.597 -35.154  1.00  0.00     0.001 A 
ATOM     16  C   UNL     1      14.180  21.862 -33.652  1.00  0.00     0.009 A 
ATOM     17  C   UNL     1      14.593  22.251 -34.899  1.00  0.00     0.001 A 
ENDBRANCH   7   8
ENDBRANCH   6   7
BRANCH   6  18
ATOM     18  C   UNL     1      13.570  28.638 -33.134  1.00  0.00     0.045 A 
ATOM     19  C   UNL     1      14.473  29.113 -34.015  1.00  0.00     0.019 A 
ATOM     20  S   UNL     1      13.118  30.086 -32.206  1.00  0.00    -0.145 S 
ATOM     21  C   UNL     1      14.804  30.399 -34.019  1.00  0.00     0.012 A 
ATOM     22  C   UNL     1      14.190  31.208 -33.094  1.00  0.00     0.065 A 
ENDBRANCH   6  18
ENDBRANCH   1   6
TORSDOF 6
ENDMDL
MODEL 5
REMARK VINA RESULT:      -5.2      1.333      1.631
REMARK SMILES CNCC[C@H](Oc1cccc2ccccc12)c1cccs1
REMARK SMILES IDX 4 1 3 2 2 3 1 4 5 6 6 7 7 8 8 9 16 10 9 11 15 12 11 13 10 14
REMARK SMILES IDX 14 15 12 16 13 17 17 18 18 19 21 20 19 21 20 22
REMARK H PARENT 2 5
ROOT
ATOM      1  C   UNL     1      13.328  27.333 -33.054  1.00  0.00     0.066 C 
ENDROOT
BRANCH   1   2
ATOM      2  C   UNL     1      13.066  28.115 -31.845  1.00  0.00     0.085 C 
BRANCH   2   3
ATOM      3  N   UNL     1      13.757  29.287 -31.542  1.00  0.00    -0.320 NA
ATOM      4  C   UNL     1      13.572  30.464 -32.288  1.00  0.00     0.101 C 
ATOM      5  H   UNL     1      14.116  29.440 -30.598  1.00  0.00     0.122 HD
ENDBRANCH   2   3
ENDBRANCH   1   2
BRANCH   1   6
ATOM      6  C   UNL     1      12.940  25.909 -33.167  1.00  0.00     0.215 C 
BRANCH   6   7
ATOM      7  O   UNL     1      13.805  25.044 -33.826  1.00  0.00    -0.484 OA
BRANCH   7   8
ATOM      8  C   UNL     1      14.667  24.198 -33.172  1.00  0.00     0.128 A 
ATOM      9  C   UNL     1      15.420  24.547 -32.095  1.00  0.00     0.047 A 
ATOM     10  C   UNL     1      14.760  22.883 -33.667  1.00  0.00     0.024 A 
ATOM     11  C   UNL     1      16.262  23.601 -31.510  1.00  0.00     0.004 A 
ATOM     12  C   UNL     1      13.993  22.513 -34.760  1.00  0.00     0.012 A 
ATOM     13  C   UNL     1      15.588  21.931 -33.101  1.00  0.00    -0.015 A 
ATOM     14  C   UNL     1      16.350  22.320 -31.995  1.00  0.00     0.009 A 
ATOM     15  C   UNL     1      14.081  21.225 -35.238  1.00  0.00     0.001 A 
ATOM     16  C   UNL     1      15.670  20.644 -33.587  1.00  0.00     0.009 A 
ATOM     17  C   UNL     1      14.911  20.283 -34.668  1.00  0.00     0.001 A 
ENDBRANCH   7   8
ENDBRANCH   6   7
BRANCH   6  18
ATOM     18  C   UNL     1      11.611  25.917 -33.905  1.00  0.00     0.045 A 
ATOM     19  C   UNL     1      10.358  25.692 -33.460  1.00  0.00     0.019 A 
ATOM     20  S   UNL     1      11.367  26.246 -35.635  1.00  0.00    -0.145 S 
ATOM     21  C   UNL     1       9.324  25.752 -34.290  1.00  0.00     0.012 A 
ATOM     22  C   UNL     1       9.590  26.051 -35.604  1.00  0.00     0.065 A 
ENDBRANCH   6  18
ENDBRANCH   1   6
TORSDOF 6
ENDMDL
MODEL 6
REMARK VINA RESULT:      -5.1      2.517      6.640
REMARK SMILES CNCC[C@H](Oc1cccc2ccccc12)c1cccs1
REMARK SMILES IDX 4 1 3 2 2 3 1 4 5 6 6 7 7 8 8 9 16 10 9 11 15 12 11 13 10 14
REMARK SMILES IDX 14 15 12 16 13 17 17 18 18 19 21 20 19 21 20 22
REMARK H PARENT 2 5
ROOT
ATOM      1  C   UNL     1      14.193  25.488 -33.940  1.00  0.00     0.066 C 
ENDROOT
BRANCH   1   2
ATOM      2  C   UNL     1      15.399  24.766 -33.525  1.00  0.00     0.085 C 
BRANCH   2   3
ATOM      3  N   UNL     1      15.939  24.874 -32.246  1.00  0.00    -0.320 NA
ATOM      4  C   UNL     1      16.207  23.738 -31.462  1.00  0.00     0.101 C 
ATOM      5  H   UNL     1      16.479  25.701 -31.987  1.00  0.00     0.122 HD
ENDBRANCH   2   3
ENDBRANCH   1   2
BRANCH   1   6
ATOM      6  C   UNL     1      12.886  24.810 -34.090  1.00  0.00     0.215 C 
BRANCH   6   7
ATOM      7  O   UNL     1      11.889  25.097 -33.165  1.00  0.00    -0.484 OA
BRANCH   7   8
ATOM      8  C   UNL     1      10.629  25.512 -33.523  1.00  0.00     0.128 A 
ATOM      9  C   UNL     1       9.965  25.093 -34.632  1.00  0.00     0.047 A 
ATOM     10  C   UNL     1      10.001  26.435 -32.663  1.00  0.00     0.024 A 
ATOM     11  C   UNL     1       8.685  25.583 -34.892  1.00  0.00     0.004 A 
ATOM     12  C   UNL     1      10.665  26.865 -31.526  1.00  0.00     0.012 A 
ATOM     13  C   UNL     1       8.734  26.932 -32.904  1.00  0.00    -0.015 A 
ATOM     14  C   UNL     1       8.075  26.482 -34.054  1.00  0.00     0.009 A 
ATOM     15  C   UNL     1      10.046  27.763 -30.685  1.00  0.00     0.001 A 
ATOM     16  C   UNL     1       8.122  27.831 -32.057  1.00  0.00     0.009 A 
ATOM     17  C   UNL     1       8.782  28.254 -30.934  1.00  0.00     0.001 A 
ENDBRANCH   7   8
ENDBRANCH   6   7
BRANCH   6  18
ATOM     18  C   UNL     1      13.199  23.324 -34.016  1.00  0.00     0.045 A 
ATOM     19  C   UNL     1      13.029  22.440 -33.013  1.00  0.00     0.019 A 
ATOM     20  S   UNL     1      13.906  22.330 -35.310  1.00  0.00    -0.145 S 
ATOM     21  C   UNL     1      13.376  21.167 -33.166  1.00  0.00     0.012 A 
ATOM     22  C   UNL     1      13.908  20.803 -34.379  1.00  0.00     0.065 A 
ENDBRANCH   6  18
ENDBRANCH   1   6
TORSDOF 6
ENDMDL
MODEL 7
REMARK VINA RESULT:      -5.1      1.742      2.158
REMARK SMILES CNCC[C@H](Oc1cccc2ccccc12)c1cccs1
REMARK SMILES IDX 4 1 3 2 2 3 1 4 5 6 6 7 7 8 8 9 16 10 9 11 15 12 11 13 10 14
REMARK SMILES IDX 14 15 12 16 13 17 17 18 18 19 21 20 19 21 20 22
REMARK H PARENT 2 5
ROOT
ATOM      1  C   UNL     1      13.236  28.982 -32.748  1.00  0.00     0.066 C 
ENDROOT
BRANCH   1   2
ATOM      2  C   UNL     1      13.064  30.271 -32.074  1.00  0.00     0.085 C 
BRANCH   2   3
ATOM      3  N   UNL     1      12.999  31.479 -32.765  1.00  0.00    -0.320 NA
ATOM      4  C   UNL     1      13.936  31.809 -33.760  1.00  0.00     0.101 C 
ATOM      5  H   UNL     1      12.111  31.977 -32.842  1.00  0.00     0.122 HD
ENDBRANCH   2   3
ENDBRANCH   1   2
BRANCH   1   6
ATOM      6  C   UNL     1      13.064  27.696 -32.036  1.00  0.00     0.215 C 
BRANCH   6   7
ATOM      7  O   UNL     1      13.864  26.624 -32.415  1.00  0.00    -0.484 OA
BRANCH   7   8
ATOM      8  C   UNL     1      13.707  25.354 -31.915  1.00  0.00     0.128 A 
ATOM      9  C   UNL     1      13.376  25.067 -30.628  1.00  0.00     0.047 A 
ATOM     10  C   UNL     1      13.904  24.291 -32.819  1.00  0.00     0.024 A 
ATOM     11  C   UNL     1      13.243  23.736 -30.235  1.00  0.00     0.004 A 
ATOM     12  C   UNL     1      14.234  24.572 -34.135  1.00  0.00     0.012 A 
ATOM     13  C   UNL     1      13.775  22.966 -32.447  1.00  0.00    -0.015 A 
ATOM     14  C   UNL     1      13.435  22.702 -31.117  1.00  0.00     0.009 A 
ATOM     15  C   UNL     1      14.421  23.531 -35.017  1.00  0.00     0.001 A 
ATOM     16  C   UNL     1      13.965  21.931 -33.337  1.00  0.00     0.009 A 
ATOM     17  C   UNL     1      14.292  22.211 -34.638  1.00  0.00     0.001 A 
ENDBRANCH   7   8
ENDBRANCH   6   7
BRANCH   6  18
ATOM     18  C   UNL     1      11.609  27.312 -32.254  1.00  0.00     0.045 A 
ATOM     19  C   UNL     1      10.567  27.294 -31.398  1.00  0.00     0.019 A 
ATOM     20  S   UNL     1      10.882  26.763 -33.781  1.00  0.00    -0.145 S 
ATOM     21  C   UNL     1       9.361  26.920 -31.808  1.00  0.00     0.012 A 
ATOM     22  C   UNL     1       9.230  26.558 -33.127  1.00  0.00     0.065 A 
ENDBRANCH   6  18
ENDBRANCH   1   6
TORSDOF 6
ENDMDL
MODEL 8
REMARK VINA RESULT:      -5.0      2.855      4.477
REMARK SMILES CNCC[C@H](Oc1cccc2ccccc12)c1cccs1
REMARK SMILES IDX 4 1 3 2 2 3 1 4 5 6 6 7 7 8 8 9 16 10 9 11 15 12 11 13 10 14
REMARK SMILES IDX 14 15 12 16 13 17 17 18 18 19 21 20 19 21 20 22
REMARK H PARENT 2 5
ROOT
ATOM      1  C   UNL     1       9.953  28.167 -30.653  1.00  0.00     0.066 C 
ENDROOT
BRANCH   1   2
ATOM      2  C   UNL     1       8.572  28.603 -30.870  1.00  0.00     0.085 C 
BRANCH   2   3
ATOM      3  N   UNL     1       7.503  28.119 -30.120  1.00  0.00    -0.320 NA
ATOM      4  C   UNL     1       6.188  28.133 -30.618  1.00  0.00     0.101 C 
ATOM      5  H   UNL     1       7.665  27.432 -29.382  1.00  0.00     0.122 HD
ENDBRANCH   2   3
ENDBRANCH   1   2
BRANCH   1   6
ATOM      6  C   UNL     1      10.531  27.008 -31.369  1.00  0.00     0.215 C 
BRANCH   6   7
ATOM      7  O   UNL     1      11.915  26.902 -31.435  1.00  0.00    -0.484 OA
BRANCH   7   8
ATOM      8  C   UNL     1      12.580  25.700 -31.399  1.00  0.00     0.128 A 
ATOM      9  C   UNL     1      12.562  24.840 -30.346  1.00  0.00     0.047 A 
ATOM     10  C   UNL     1      13.324  25.354 -32.544  1.00  0.00     0.024 A 
ATOM     11  C   UNL     1      13.276  23.645 -30.423  1.00  0.00     0.004 A 
ATOM     12  C   UNL     1      13.345  26.219 -33.626  1.00  0.00     0.012 A 
ATOM     13  C   UNL     1      14.037  24.175 -32.639  1.00  0.00    -0.015 A 
ATOM     14  C   UNL     1      14.000  23.311 -31.540  1.00  0.00     0.009 A 
ATOM     15  C   UNL     1      14.068  25.876 -34.747  1.00  0.00     0.001 A 
ATOM     16  C   UNL     1      14.759  23.840 -33.765  1.00  0.00     0.009 A 
ATOM     17  C   UNL     1      14.778  24.697 -34.833  1.00  0.00     0.001 A 
ENDBRANCH   7   8
ENDBRANCH   6   7
BRANCH   6  18
ATOM     18  C   UNL     1       9.986  27.105 -32.786  1.00  0.00     0.045 A 
ATOM     19  C   UNL     1       9.250  26.235 -33.505  1.00  0.00     0.019 A 
ATOM     20  S   UNL     1      10.200  28.470 -33.906  1.00  0.00    -0.145 S 
ATOM     21  C   UNL     1       8.875  26.528 -34.745  1.00  0.00     0.012 A 
ATOM     22  C   UNL     1       9.271  27.743 -35.250  1.00  0.00     0.065 A 
ENDBRANCH   6  18
ENDBRANCH   1   6
TORSDOF 6
ENDMDL
MODEL 9
REMARK VINA RESULT:      -5.0      1.771      3.869
REMARK SMILES CNCC[C@H](Oc1cccc2ccccc12)c1cccs1
REMARK SMILES IDX 4 1 3 2 2 3 1 4 5 6 6 7 7 8 8 9 16 10 9 11 15 12 11 13 10 14
REMARK SMILES IDX 14 15 12 16 13 17 17 18 18 19 21 20 19 21 20 22
REMARK H PARENT 2 5
ROOT
ATOM      1  C   UNL     1      12.298  26.845 -31.941  1.00  0.00     0.066 C 
ENDROOT
BRANCH   1   2
ATOM      2  C   UNL     1      10.904  26.524 -31.630  1.00  0.00     0.085 C 
BRANCH   2   3
ATOM      3  N   UNL     1      10.201  27.142 -30.598  1.00  0.00    -0.320 NA
ATOM      4  C   UNL     1       9.350  28.235 -30.838  1.00  0.00     0.101 C 
ATOM      5  H   UNL     1       9.991  26.627 -29.741  1.00  0.00     0.122 HD
ENDBRANCH   2   3
ENDBRANCH   1   2
BRANCH   1   6
ATOM      6  C   UNL     1      12.758  27.077 -33.329  1.00  0.00     0.215 C 
BRANCH   6   7
ATOM      7  O   UNL     1      13.891  26.401 -33.766  1.00  0.00    -0.484 OA
BRANCH   7   8
ATOM      8  C   UNL     1      13.874  25.088 -34.169  1.00  0.00     0.128 A 
ATOM      9  C   UNL     1      13.170  24.616 -35.232  1.00  0.00     0.047 A 
ATOM     10  C   UNL     1      14.650  24.186 -33.414  1.00  0.00     0.024 A 
ATOM     11  C   UNL     1      13.231  23.259 -35.548  1.00  0.00     0.004 A 
ATOM     12  C   UNL     1      15.377  24.656 -32.332  1.00  0.00     0.012 A 
ATOM     13  C   UNL     1      14.723  22.839 -33.712  1.00  0.00    -0.015 A 
ATOM     14  C   UNL     1      13.988  22.383 -34.811  1.00  0.00     0.009 A 
ATOM     15  C   UNL     1      16.139  23.773 -31.601  1.00  0.00     0.001 A 
ATOM     16  C   UNL     1      15.488  21.962 -32.973  1.00  0.00     0.009 A 
ATOM     17  C   UNL     1      16.205  22.430 -31.904  1.00  0.00     0.001 A 
ENDBRANCH   7   8
ENDBRANCH   6   7
BRANCH   6  18
ATOM     18  C   UNL     1      13.025  28.572 -33.413  1.00  0.00     0.045 A 
ATOM     19  C   UNL     1      14.154  29.247 -33.709  1.00  0.00     0.019 A 
ATOM     20  S   UNL     1      11.846  29.872 -33.126  1.00  0.00    -0.145 S 
ATOM     21  C   UNL     1      14.164  30.575 -33.727  1.00  0.00     0.012 A 
ATOM     22  C   UNL     1      12.985  31.215 -33.434  1.00  0.00     0.065 A 
ENDBRANCH   6  18
ENDBRANCH   1   6
TORSDOF 6
ENDMDL
