MODEL 1
REMARK VINA RESULT:      -6.1      0.000      0.000
REMARK SMILES CC(C)C[C@@H](C=O)NC(=O)[C@H](CC(C)C)NC(=O)[C@H](CC(C)C)NC(=O)OCc1ccccc1
REMARK SMILES IDX 16 1 17 2 18 3 11 5 9 6 8 7 10 8 5 10 4 11 2 12 1 13 3 14
REMARK SMILES IDX 6 15 7 16 12 17 13 18 14 19 15 20 19 21 20 22 21 23 22 24
REMARK SMILES IDX 23 25 24 26 25 27 26 28 27 30 28 31 29 32 30 33 34 34 31 35
REMARK SMILES IDX 33 36 32 37
REMARK H PARENT 16 4 8 9 24 29
ROOT
ATOM      1  N   UNL     1     -10.903  11.152   9.451  1.00  0.00    -0.343 N 
ATOM      2  C   UNL     1     -11.051   9.725   9.408  1.00  0.00     0.243 C 
ATOM      3  O   UNL     1     -12.175   9.273   9.026  1.00  0.00    -0.273 OA
ATOM      4  H   UNL     1      -9.963  11.501   9.757  1.00  0.00     0.164 HD
ENDROOT
BRANCH   1   5
ATOM      5  C   UNL     1     -11.995  12.055   9.072  1.00  0.00     0.171 C 
BRANCH   5   6
ATOM      6  C   UNL     1     -11.951  12.163   7.546  1.00  0.00     0.243 C 
ATOM      7  N   UNL     1     -12.869  11.472   6.734  1.00  0.00    -0.345 N 
ATOM      8  O   UNL     1     -11.077  12.882   7.024  1.00  0.00    -0.273 OA
ATOM      9  H   UNL     1     -13.586  10.880   7.205  1.00  0.00     0.164 HD
BRANCH   7  10
ATOM     10  C   UNL     1     -12.844  11.564   5.271  1.00  0.00     0.146 C 
BRANCH  10  11
ATOM     11  C   UNL     1     -12.292  10.268   4.728  1.00  0.00     0.035 C 
BRANCH  11  12
ATOM     12  C   UNL     1     -13.288   9.139   4.747  1.00  0.00    -0.015 C 
ATOM     13  C   UNL     1     -12.818   8.003   5.633  1.00  0.00     0.007 C 
ATOM     14  C   UNL     1     -13.452   8.591   3.347  1.00  0.00     0.007 C 
ENDBRANCH  11  12
ENDBRANCH  10  11
BRANCH  10  15
ATOM     15  C   UNL     1     -14.210  11.881   4.811  1.00  0.00     0.248 C 
ATOM     16  O   UNL     1     -14.462  12.239   3.675  1.00  0.00    -0.301 OA
ENDBRANCH  10  15
ENDBRANCH   7  10
ENDBRANCH   5   6
BRANCH   5  17
ATOM     17  C   UNL     1     -11.910  13.414   9.664  1.00  0.00     0.038 C 
BRANCH  17  18
ATOM     18  C   UNL     1     -13.018  13.782  10.593  1.00  0.00    -0.015 C 
ATOM     19  C   UNL     1     -14.063  12.650  10.639  1.00  0.00     0.007 C 
ATOM     20  C   UNL     1     -13.738  15.037  10.250  1.00  0.00     0.007 C 
ENDBRANCH  17  18
ENDBRANCH   5  17
ENDBRANCH   1   5
BRANCH   2  21
ATOM     21  C   UNL     1      -9.941   8.804   9.795  1.00  0.00     0.175 C 
BRANCH  21  22
ATOM     22  C   UNL     1      -8.997   9.468  10.756  1.00  0.00     0.038 C 
BRANCH  22  23
ATOM     23  C   UNL     1      -9.072   8.951  12.149  1.00  0.00    -0.015 C 
ATOM     24  C   UNL     1      -9.849   9.822  13.091  1.00  0.00     0.007 C 
ATOM     25  C   UNL     1      -9.489   7.488  12.235  1.00  0.00     0.007 C 
ENDBRANCH  22  23
ENDBRANCH  21  22
BRANCH  21  26
ATOM     26  N   UNL     1      -9.332   8.331   8.602  1.00  0.00    -0.310 N 
ATOM     27  C   UNL     1      -9.638   7.036   8.110  1.00  0.00     0.408 C 
ATOM     28  O   UNL     1     -10.466   6.301   8.746  1.00  0.00    -0.225 OA
ATOM     29  H   UNL     1      -8.666   8.914   8.081  1.00  0.00     0.167 HD
BRANCH  27  30
ATOM     30  O   UNL     1      -9.104   6.498   6.982  1.00  0.00    -0.445 OA
BRANCH  30  31
ATOM     31  C   UNL     1      -9.704   6.133   5.784  1.00  0.00     0.270 C 
BRANCH  31  32
ATOM     32  C   UNL     1      -8.943   6.621   4.608  1.00  0.00    -0.011 A 
ATOM     33  C   UNL     1      -7.672   6.168   4.314  1.00  0.00     0.007 A 
ATOM     34  C   UNL     1      -9.486   7.549   3.733  1.00  0.00     0.007 A 
ATOM     35  C   UNL     1      -6.957   6.593   3.222  1.00  0.00     0.000 A 
ATOM     36  C   UNL     1      -8.771   7.983   2.628  1.00  0.00     0.000 A 
ATOM     37  C   UNL     1      -7.507   7.518   2.355  1.00  0.00     0.000 A 
ENDBRANCH  31  32
ENDBRANCH  30  31
ENDBRANCH  27  30
ENDBRANCH  21  26
ENDBRANCH   2  21
TORSDOF 15
ENDMDL
MODEL 2
REMARK VINA RESULT:      -5.5      2.590      3.916
REMARK SMILES CC(C)C[C@@H](C=O)NC(=O)[C@H](CC(C)C)NC(=O)[C@H](CC(C)C)NC(=O)OCc1ccccc1
REMARK SMILES IDX 16 1 17 2 18 3 11 5 9 6 8 7 10 8 5 10 4 11 2 12 1 13 3 14
REMARK SMILES IDX 6 15 7 16 12 17 13 18 14 19 15 20 19 21 20 22 21 23 22 24
REMARK SMILES IDX 23 25 24 26 25 27 26 28 27 30 28 31 29 32 30 33 34 34 31 35
REMARK SMILES IDX 33 36 32 37
REMARK H PARENT 16 4 8 9 24 29
ROOT
ATOM      1  N   UNL     1     -10.565   7.049   9.694  1.00  0.00    -0.343 N 
ATOM      2  C   UNL     1     -10.864   5.727   9.225  1.00  0.00     0.243 C 
ATOM      3  O   UNL     1     -12.088   5.450   9.025  1.00  0.00    -0.273 OA
ATOM      4  H   UNL     1      -9.547   7.259   9.839  1.00  0.00     0.164 HD
ENDROOT
BRANCH   1   5
ATOM      5  C   UNL     1     -11.616   8.043   9.933  1.00  0.00     0.171 C 
BRANCH   5   6
ATOM      6  C   UNL     1     -11.989   8.610   8.562  1.00  0.00     0.243 C 
ATOM      7  N   UNL     1     -13.235   8.338   7.968  1.00  0.00    -0.345 N 
ATOM      8  O   UNL     1     -11.161   9.329   7.969  1.00  0.00    -0.273 OA
ATOM      9  H   UNL     1     -13.903   7.734   8.492  1.00  0.00     0.164 HD
BRANCH   7  10
ATOM     10  C   UNL     1     -13.611   8.874   6.656  1.00  0.00     0.146 C 
BRANCH  10  11
ATOM     11  C   UNL     1     -13.239   7.854   5.607  1.00  0.00     0.035 C 
BRANCH  11  12
ATOM     12  C   UNL     1     -12.697   8.466   4.343  1.00  0.00    -0.015 C 
ATOM     13  C   UNL     1     -12.242   9.894   4.572  1.00  0.00     0.007 C 
ATOM     14  C   UNL     1     -13.784   8.494   3.293  1.00  0.00     0.007 C 
ENDBRANCH  11  12
ENDBRANCH  10  11
BRANCH  10  15
ATOM     15  C   UNL     1     -15.049   9.207   6.695  1.00  0.00     0.248 C 
ATOM     16  O   UNL     1     -15.470  10.288   7.062  1.00  0.00    -0.301 OA
ENDBRANCH  10  15
ENDBRANCH   7  10
ENDBRANCH   5   6
BRANCH   5  17
ATOM     17  C   UNL     1     -11.227   9.154  10.836  1.00  0.00     0.038 C 
BRANCH  17  18
ATOM     18  C   UNL     1     -11.933   9.195  12.150  1.00  0.00    -0.015 C 
ATOM     19  C   UNL     1     -13.109   8.198  12.145  1.00  0.00     0.007 C 
ATOM     20  C   UNL     1     -12.479  10.524  12.532  1.00  0.00     0.007 C 
ENDBRANCH  17  18
ENDBRANCH   5  17
ENDBRANCH   1   5
BRANCH   2  21
ATOM     21  C   UNL     1      -9.794   4.713   8.982  1.00  0.00     0.175 C 
BRANCH  21  22
ATOM     22  C   UNL     1      -9.417   4.009  10.253  1.00  0.00     0.038 C 
BRANCH  22  23
ATOM     23  C   UNL     1      -9.327   2.528  10.134  1.00  0.00    -0.015 C 
ATOM     24  C   UNL     1      -7.970   2.021   9.746  1.00  0.00     0.007 C 
ATOM     25  C   UNL     1      -9.904   1.783  11.331  1.00  0.00     0.007 C 
ENDBRANCH  22  23
ENDBRANCH  21  22
BRANCH  21  26
ATOM     26  N   UNL     1      -8.716   5.367   8.329  1.00  0.00    -0.310 N 
ATOM     27  C   UNL     1      -8.151   4.808   7.152  1.00  0.00     0.408 C 
ATOM     28  O   UNL     1      -8.621   3.717   6.686  1.00  0.00    -0.225 OA
ATOM     29  H   UNL     1      -8.331   6.246   8.693  1.00  0.00     0.167 HD
BRANCH  27  30
ATOM     30  O   UNL     1      -7.118   5.360   6.462  1.00  0.00    -0.445 OA
BRANCH  30  31
ATOM     31  C   UNL     1      -6.751   5.230   5.128  1.00  0.00     0.270 C 
BRANCH  31  32
ATOM     32  C   UNL     1      -7.464   6.198   4.259  1.00  0.00    -0.011 A 
ATOM     33  C   UNL     1      -8.718   6.684   4.572  1.00  0.00     0.007 A 
ATOM     34  C   UNL     1      -6.889   6.675   3.092  1.00  0.00     0.007 A 
ATOM     35  C   UNL     1      -9.387   7.594   3.791  1.00  0.00     0.000 A 
ATOM     36  C   UNL     1      -7.558   7.593   2.297  1.00  0.00     0.000 A 
ATOM     37  C   UNL     1      -8.806   8.064   2.629  1.00  0.00     0.000 A 
ENDBRANCH  31  32
ENDBRANCH  30  31
ENDBRANCH  27  30
ENDBRANCH  21  26
ENDBRANCH   2  21
TORSDOF 15
ENDMDL
MODEL 3
REMARK VINA RESULT:      -5.5      1.729      2.648
REMARK SMILES CC(C)C[C@@H](C=O)NC(=O)[C@H](CC(C)C)NC(=O)[C@H](CC(C)C)NC(=O)OCc1ccccc1
REMARK SMILES IDX 16 1 17 2 18 3 11 5 9 6 8 7 10 8 5 10 4 11 2 12 1 13 3 14
REMARK SMILES IDX 6 15 7 16 12 17 13 18 14 19 15 20 19 21 20 22 21 23 22 24
REMARK SMILES IDX 23 25 24 26 25 27 26 28 27 30 28 31 29 32 30 33 34 34 31 35
REMARK SMILES IDX 33 36 32 37
REMARK H PARENT 16 4 8 9 24 29
ROOT
ATOM      1  N   UNL     1     -11.243  11.636   8.710  1.00  0.00    -0.343 N 
ATOM      2  C   UNL     1     -11.374  10.607   9.701  1.00  0.00     0.243 C 
ATOM      3  O   UNL     1     -12.294  10.752  10.565  1.00  0.00    -0.273 OA
ATOM      4  H   UNL     1     -10.486  11.488   8.000  1.00  0.00     0.164 HD
ENDROOT
BRANCH   1   5
ATOM      5  C   UNL     1     -12.128  12.805   8.687  1.00  0.00     0.171 C 
BRANCH   5   6
ATOM      6  C   UNL     1     -12.867  12.758   7.348  1.00  0.00     0.243 C 
ATOM      7  N   UNL     1     -12.203  12.423   6.154  1.00  0.00    -0.345 N 
ATOM      8  O   UNL     1     -14.084  13.024   7.329  1.00  0.00    -0.273 OA
ATOM      9  H   UNL     1     -11.185  12.205   6.207  1.00  0.00     0.164 HD
BRANCH   7  10
ATOM     10  C   UNL     1     -12.894  12.371   4.861  1.00  0.00     0.146 C 
BRANCH  10  11
ATOM     11  C   UNL     1     -12.300  13.433   3.968  1.00  0.00     0.035 C 
BRANCH  11  12
ATOM     12  C   UNL     1     -13.189  14.636   3.797  1.00  0.00    -0.015 C 
ATOM     13  C   UNL     1     -13.923  14.597   2.472  1.00  0.00     0.007 C 
ATOM     14  C   UNL     1     -12.345  15.890   3.816  1.00  0.00     0.007 C 
ENDBRANCH  11  12
ENDBRANCH  10  11
BRANCH  10  15
ATOM     15  C   UNL     1     -12.772  10.997   4.334  1.00  0.00     0.248 C 
ATOM     16  O   UNL     1     -12.155  10.119   4.908  1.00  0.00    -0.301 OA
ENDBRANCH  10  15
ENDBRANCH   7  10
ENDBRANCH   5   6
BRANCH   5  17
ATOM     17  C   UNL     1     -11.435  14.111   8.820  1.00  0.00     0.038 C 
BRANCH  17  18
ATOM     18  C   UNL     1     -11.747  14.883  10.058  1.00  0.00    -0.015 C 
ATOM     19  C   UNL     1     -10.871  14.384  11.224  1.00  0.00     0.007 C 
ATOM     20  C   UNL     1     -13.164  14.814  10.505  1.00  0.00     0.007 C 
ENDBRANCH  17  18
ENDBRANCH   5  17
ENDBRANCH   1   5
BRANCH   2  21
ATOM     21  C   UNL     1     -10.473   9.415   9.726  1.00  0.00     0.175 C 
BRANCH  21  22
ATOM     22  C   UNL     1      -9.336   9.617  10.686  1.00  0.00     0.038 C 
BRANCH  22  23
ATOM     23  C   UNL     1      -9.318   8.665  11.829  1.00  0.00    -0.015 C 
ATOM     24  C   UNL     1     -10.227   9.042  12.962  1.00  0.00     0.007 C 
ATOM     25  C   UNL     1      -9.484   7.209  11.413  1.00  0.00     0.007 C 
ENDBRANCH  22  23
ENDBRANCH  21  22
BRANCH  21  26
ATOM     26  N   UNL     1     -10.075   9.142   8.391  1.00  0.00    -0.310 N 
ATOM     27  C   UNL     1     -10.648   8.052   7.685  1.00  0.00     0.408 C 
ATOM     28  O   UNL     1     -11.524   7.322   8.259  1.00  0.00    -0.225 OA
ATOM     29  H   UNL     1      -9.373   9.723   7.917  1.00  0.00     0.167 HD
BRANCH  27  30
ATOM     30  O   UNL     1     -10.329   7.712   6.408  1.00  0.00    -0.445 OA
BRANCH  30  31
ATOM     31  C   UNL     1      -9.748   6.558   5.899  1.00  0.00     0.270 C 
BRANCH  31  32
ATOM     32  C   UNL     1      -8.952   6.828   4.677  1.00  0.00    -0.011 A 
ATOM     33  C   UNL     1      -9.402   7.665   3.675  1.00  0.00     0.007 A 
ATOM     34  C   UNL     1      -7.700   6.261   4.494  1.00  0.00     0.007 A 
ATOM     35  C   UNL     1      -8.674   7.943   2.545  1.00  0.00     0.000 A 
ATOM     36  C   UNL     1      -6.958   6.537   3.355  1.00  0.00     0.000 A 
ATOM     37  C   UNL     1      -7.427   7.374   2.370  1.00  0.00     0.000 A 
ENDBRANCH  31  32
ENDBRANCH  30  31
ENDBRANCH  27  30
ENDBRANCH  21  26
ENDBRANCH   2  21
TORSDOF 15
ENDMDL
MODEL 4
REMARK VINA RESULT:      -5.4      7.821     13.477
REMARK SMILES CC(C)C[C@@H](C=O)NC(=O)[C@H](CC(C)C)NC(=O)[C@H](CC(C)C)NC(=O)OCc1ccccc1
REMARK SMILES IDX 16 1 17 2 18 3 11 5 9 6 8 7 10 8 5 10 4 11 2 12 1 13 3 14
REMARK SMILES IDX 6 15 7 16 12 17 13 18 14 19 15 20 19 21 20 22 21 23 22 24
REMARK SMILES IDX 23 25 24 26 25 27 26 28 27 30 28 31 29 32 30 33 34 34 31 35
REMARK SMILES IDX 33 36 32 37
REMARK H PARENT 16 4 8 9 24 29
ROOT
ATOM      1  N   UNL     1      -5.325  -0.713   3.230  1.00  0.00    -0.343 N 
ATOM      2  C   UNL     1      -5.091   0.495   3.967  1.00  0.00     0.243 C 
ATOM      3  O   UNL     1      -4.053   1.162   3.666  1.00  0.00    -0.273 OA
ATOM      4  H   UNL     1      -6.195  -1.240   3.487  1.00  0.00     0.164 HD
ENDROOT
BRANCH   1   5
ATOM      5  C   UNL     1      -4.414  -1.164   2.173  1.00  0.00     0.171 C 
BRANCH   5   6
ATOM      6  C   UNL     1      -3.034  -1.288   2.822  1.00  0.00     0.243 C 
ATOM      7  N   UNL     1      -2.004  -0.373   2.539  1.00  0.00    -0.345 N 
ATOM      8  O   UNL     1      -2.831  -2.227   3.617  1.00  0.00    -0.273 OA
ATOM      9  H   UNL     1      -2.208   0.399   1.870  1.00  0.00     0.164 HD
BRANCH   7  10
ATOM     10  C   UNL     1      -0.675  -0.475   3.151  1.00  0.00     0.146 C 
BRANCH  10  11
ATOM     11  C   UNL     1       0.320   0.187   2.229  1.00  0.00     0.035 C 
BRANCH  11  12
ATOM     12  C   UNL     1       0.894  -0.748   1.198  1.00  0.00    -0.015 C 
ATOM     13  C   UNL     1       0.952  -2.172   1.715  1.00  0.00     0.007 C 
ATOM     14  C   UNL     1       2.306  -0.323   0.865  1.00  0.00     0.007 C 
ENDBRANCH  11  12
ENDBRANCH  10  11
BRANCH  10  15
ATOM     15  C   UNL     1      -0.747   0.125   4.498  1.00  0.00     0.248 C 
ATOM     16  O   UNL     1      -0.591   1.315   4.703  1.00  0.00    -0.301 OA
ENDBRANCH  10  15
ENDBRANCH   7  10
ENDBRANCH   5   6
BRANCH   5  17
ATOM     17  C   UNL     1      -4.326  -0.258   1.000  1.00  0.00     0.038 C 
BRANCH  17  18
ATOM     18  C   UNL     1      -4.824  -0.822  -0.289  1.00  0.00    -0.015 C 
ATOM     19  C   UNL     1      -6.365  -0.802  -0.310  1.00  0.00     0.007 C 
ATOM     20  C   UNL     1      -4.393  -2.215  -0.576  1.00  0.00     0.007 C 
ENDBRANCH  17  18
ENDBRANCH   5  17
ENDBRANCH   1   5
BRANCH   2  21
ATOM     21  C   UNL     1      -6.017   0.955   5.045  1.00  0.00     0.175 C 
BRANCH  21  22
ATOM     22  C   UNL     1      -7.188   0.025   5.186  1.00  0.00     0.038 C 
BRANCH  22  23
ATOM     23  C   UNL     1      -7.330  -0.585   6.536  1.00  0.00    -0.015 C 
ATOM     24  C   UNL     1      -7.883   0.341   7.578  1.00  0.00     0.007 C 
ATOM     25  C   UNL     1      -8.040  -1.933   6.523  1.00  0.00     0.007 C 
ENDBRANCH  22  23
ENDBRANCH  21  22
BRANCH  21  26
ATOM     26  N   UNL     1      -6.367   2.304   4.771  1.00  0.00    -0.310 N 
ATOM     27  C   UNL     1      -6.158   3.308   5.753  1.00  0.00     0.408 C 
ATOM     28  O   UNL     1      -5.651   2.989   6.880  1.00  0.00    -0.225 OA
ATOM     29  H   UNL     1      -6.773   2.573   3.867  1.00  0.00     0.167 HD
BRANCH  27  30
ATOM     30  O   UNL     1      -6.463   4.622   5.583  1.00  0.00    -0.445 OA
BRANCH  30  31
ATOM     31  C   UNL     1      -6.128   5.502   4.562  1.00  0.00     0.270 C 
BRANCH  31  32
ATOM     32  C   UNL     1      -7.292   6.307   4.117  1.00  0.00    -0.011 A 
ATOM     33  C   UNL     1      -8.427   6.450   4.890  1.00  0.00     0.007 A 
ATOM     34  C   UNL     1      -7.283   6.972   2.901  1.00  0.00     0.007 A 
ATOM     35  C   UNL     1      -9.508   7.204   4.505  1.00  0.00     0.000 A 
ATOM     36  C   UNL     1      -8.371   7.736   2.505  1.00  0.00     0.000 A 
ATOM     37  C   UNL     1      -9.491   7.864   3.291  1.00  0.00     0.000 A 
ENDBRANCH  31  32
ENDBRANCH  30  31
ENDBRANCH  27  30
ENDBRANCH  21  26
ENDBRANCH   2  21
TORSDOF 15
ENDMDL
MODEL 5
REMARK VINA RESULT:      -5.4      6.646     11.402
REMARK SMILES CC(C)C[C@@H](C=O)NC(=O)[C@H](CC(C)C)NC(=O)[C@H](CC(C)C)NC(=O)OCc1ccccc1
REMARK SMILES IDX 16 1 17 2 18 3 11 5 9 6 8 7 10 8 5 10 4 11 2 12 1 13 3 14
REMARK SMILES IDX 6 15 7 16 12 17 13 18 14 19 15 20 19 21 20 22 21 23 22 24
REMARK SMILES IDX 23 25 24 26 25 27 26 28 27 30 28 31 29 32 30 33 34 34 31 35
REMARK SMILES IDX 33 36 32 37
REMARK H PARENT 16 4 8 9 24 29
ROOT
ATOM      1  N   UNL     1      -8.592   0.438   4.921  1.00  0.00    -0.343 N 
ATOM      2  C   UNL     1      -8.237   0.598   6.302  1.00  0.00     0.243 C 
ATOM      3  O   UNL     1      -8.247  -0.447   7.025  1.00  0.00    -0.273 OA
ATOM      4  H   UNL     1      -8.564   1.312   4.342  1.00  0.00     0.164 HD
ENDROOT
BRANCH   1   5
ATOM      5  C   UNL     1      -8.952  -0.868   4.361  1.00  0.00     0.171 C 
BRANCH   5   6
ATOM      6  C   UNL     1      -7.897  -1.184   3.299  1.00  0.00     0.243 C 
ATOM      7  N   UNL     1      -6.542  -1.356   3.636  1.00  0.00    -0.345 N 
ATOM      8  O   UNL     1      -8.259  -1.288   2.110  1.00  0.00    -0.273 OA
ATOM      9  H   UNL     1      -6.275  -1.262   4.639  1.00  0.00     0.164 HD
BRANCH   7  10
ATOM     10  C   UNL     1      -5.517  -1.660   2.633  1.00  0.00     0.146 C 
BRANCH  10  11
ATOM     11  C   UNL     1      -4.618  -0.455   2.499  1.00  0.00     0.035 C 
BRANCH  11  12
ATOM     12  C   UNL     1      -4.323  -0.085   1.069  1.00  0.00    -0.015 C 
ATOM     13  C   UNL     1      -5.342  -0.687   0.121  1.00  0.00     0.007 C 
ATOM     14  C   UNL     1      -2.964  -0.623   0.683  1.00  0.00     0.007 C 
ENDBRANCH  11  12
ENDBRANCH  10  11
BRANCH  10  15
ATOM     15  C   UNL     1      -4.820  -2.892   3.052  1.00  0.00     0.248 C 
ATOM     16  O   UNL     1      -4.690  -3.217   4.218  1.00  0.00    -0.301 OA
ENDBRANCH  10  15
ENDBRANCH   7  10
ENDBRANCH   5   6
BRANCH   5  17
ATOM     17  C   UNL     1     -10.302  -0.930   3.747  1.00  0.00     0.038 C 
BRANCH  17  18
ATOM     18  C   UNL     1     -11.151  -2.082   4.171  1.00  0.00    -0.015 C 
ATOM     19  C   UNL     1     -10.779  -2.506   5.606  1.00  0.00     0.007 C 
ATOM     20  C   UNL     1     -11.053  -3.289   3.310  1.00  0.00     0.007 C 
ENDBRANCH  17  18
ENDBRANCH   5  17
ENDBRANCH   1   5
BRANCH   2  21
ATOM     21  C   UNL     1      -7.871   1.928   6.875  1.00  0.00     0.175 C 
BRANCH  21  22
ATOM     22  C   UNL     1      -8.821   2.326   7.968  1.00  0.00     0.038 C 
BRANCH  22  23
ATOM     23  C   UNL     1      -8.349   3.456   8.813  1.00  0.00    -0.015 C 
ATOM     24  C   UNL     1      -9.419   4.090   9.652  1.00  0.00     0.007 C 
ATOM     25  C   UNL     1      -7.097   3.133   9.619  1.00  0.00     0.007 C 
ENDBRANCH  22  23
ENDBRANCH  21  22
BRANCH  21  26
ATOM     26  N   UNL     1      -7.785   2.855   5.803  1.00  0.00    -0.310 N 
ATOM     27  C   UNL     1      -6.525   3.386   5.418  1.00  0.00     0.408 C 
ATOM     28  O   UNL     1      -5.473   3.021   6.042  1.00  0.00    -0.225 OA
ATOM     29  H   UNL     1      -8.624   3.154   5.292  1.00  0.00     0.167 HD
BRANCH  27  30
ATOM     30  O   UNL     1      -6.345   4.278   4.409  1.00  0.00    -0.445 OA
BRANCH  30  31
ATOM     31  C   UNL     1      -6.112   5.647   4.444  1.00  0.00     0.270 C 
BRANCH  31  32
ATOM     32  C   UNL     1      -7.312   6.426   4.054  1.00  0.00    -0.011 A 
ATOM     33  C   UNL     1      -7.402   7.082   2.843  1.00  0.00     0.007 A 
ATOM     34  C   UNL     1      -8.414   6.515   4.890  1.00  0.00     0.007 A 
ATOM     35  C   UNL     1      -8.510   7.794   2.454  1.00  0.00     0.000 A 
ATOM     36  C   UNL     1      -9.538   7.232   4.505  1.00  0.00     0.000 A 
ATOM     37  C   UNL     1      -9.605   7.877   3.293  1.00  0.00     0.000 A 
ENDBRANCH  31  32
ENDBRANCH  30  31
ENDBRANCH  27  30
ENDBRANCH  21  26
ENDBRANCH   2  21
TORSDOF 15
ENDMDL
MODEL 6
REMARK VINA RESULT:      -5.4      1.830      2.542
REMARK SMILES CC(C)C[C@@H](C=O)NC(=O)[C@H](CC(C)C)NC(=O)[C@H](CC(C)C)NC(=O)OCc1ccccc1
REMARK SMILES IDX 16 1 17 2 18 3 11 5 9 6 8 7 10 8 5 10 4 11 2 12 1 13 3 14
REMARK SMILES IDX 6 15 7 16 12 17 13 18 14 19 15 20 19 21 20 22 21 23 22 24
REMARK SMILES IDX 23 25 24 26 25 27 26 28 27 30 28 31 29 32 30 33 34 34 31 35
REMARK SMILES IDX 33 36 32 37
REMARK H PARENT 16 4 8 9 24 29
ROOT
ATOM      1  N   UNL     1     -11.263  11.643   8.990  1.00  0.00    -0.343 N 
ATOM      2  C   UNL     1     -11.536  10.311   9.447  1.00  0.00     0.243 C 
ATOM      3  O   UNL     1     -12.682  10.098   9.954  1.00  0.00    -0.273 OA
ATOM      4  H   UNL     1     -10.316  11.791   8.564  1.00  0.00     0.164 HD
ENDROOT
BRANCH   1   5
ATOM      5  C   UNL     1     -12.256  12.716   9.098  1.00  0.00     0.171 C 
BRANCH   5   6
ATOM      6  C   UNL     1     -12.899  12.846   7.715  1.00  0.00     0.243 C 
ATOM      7  N   UNL     1     -12.120  12.927   6.547  1.00  0.00    -0.345 N 
ATOM      8  O   UNL     1     -14.143  12.880   7.637  1.00  0.00    -0.273 OA
ATOM      9  H   UNL     1     -11.083  12.895   6.650  1.00  0.00     0.164 HD
BRANCH   7  10
ATOM     10  C   UNL     1     -12.718  13.049   5.214  1.00  0.00     0.146 C 
BRANCH  10  11
ATOM     11  C   UNL     1     -12.156  14.289   4.559  1.00  0.00     0.035 C 
BRANCH  11  12
ATOM     12  C   UNL     1     -11.597  14.038   3.184  1.00  0.00    -0.015 C 
ATOM     13  C   UNL     1     -10.180  14.563   3.060  1.00  0.00     0.007 C 
ATOM     14  C   UNL     1     -12.444  14.757   2.159  1.00  0.00     0.007 C 
ENDBRANCH  11  12
ENDBRANCH  10  11
BRANCH  10  15
ATOM     15  C   UNL     1     -12.448  11.799   4.476  1.00  0.00     0.248 C 
ATOM     16  O   UNL     1     -13.176  10.826   4.530  1.00  0.00    -0.301 OA
ENDBRANCH  10  15
ENDBRANCH   7  10
ENDBRANCH   5   6
BRANCH   5  17
ATOM     17  C   UNL     1     -11.706  14.032   9.510  1.00  0.00     0.038 C 
BRANCH  17  18
ATOM     18  C   UNL     1     -11.913  14.398  10.941  1.00  0.00    -0.015 C 
ATOM     19  C   UNL     1     -11.509  15.867  11.171  1.00  0.00     0.007 C 
ATOM     20  C   UNL     1     -11.159  13.571  11.919  1.00  0.00     0.007 C 
ENDBRANCH  17  18
ENDBRANCH   5  17
ENDBRANCH   1   5
BRANCH   2  21
ATOM     21  C   UNL     1     -10.526   9.216   9.339  1.00  0.00     0.175 C 
BRANCH  21  22
ATOM     22  C   UNL     1      -9.175   9.678   9.805  1.00  0.00     0.038 C 
BRANCH  22  23
ATOM     23  C   UNL     1      -8.771   9.155  11.138  1.00  0.00    -0.015 C 
ATOM     24  C   UNL     1      -8.263  10.203  12.085  1.00  0.00     0.007 C 
ATOM     25  C   UNL     1      -9.815   8.251  11.781  1.00  0.00     0.007 C 
ENDBRANCH  22  23
ENDBRANCH  21  22
BRANCH  21  26
ATOM     26  N   UNL     1     -10.554   8.727   8.006  1.00  0.00    -0.310 N 
ATOM     27  C   UNL     1     -10.499   7.331   7.757  1.00  0.00     0.408 C 
ATOM     28  O   UNL     1     -10.426   6.520   8.739  1.00  0.00    -0.225 OA
ATOM     29  H   UNL     1     -10.614   9.370   7.207  1.00  0.00     0.167 HD
BRANCH  27  30
ATOM     30  O   UNL     1     -10.517   6.772   6.518  1.00  0.00    -0.445 OA
BRANCH  30  31
ATOM     31  C   UNL     1     -10.731   7.346   5.271  1.00  0.00     0.270 C 
BRANCH  31  32
ATOM     32  C   UNL     1      -9.529   7.261   4.406  1.00  0.00    -0.011 A 
ATOM     33  C   UNL     1      -8.428   6.502   4.747  1.00  0.00     0.007 A 
ATOM     34  C   UNL     1      -9.466   7.933   3.195  1.00  0.00     0.007 A 
ATOM     35  C   UNL     1      -7.314   6.395   3.953  1.00  0.00     0.000 A 
ATOM     36  C   UNL     1      -8.344   7.830   2.387  1.00  0.00     0.000 A 
ATOM     37  C   UNL     1      -7.259   7.067   2.747  1.00  0.00     0.000 A 
ENDBRANCH  31  32
ENDBRANCH  30  31
ENDBRANCH  27  30
ENDBRANCH  21  26
ENDBRANCH   2  21
TORSDOF 15
ENDMDL
MODEL 7
REMARK VINA RESULT:      -5.3      6.562      9.644
REMARK SMILES CC(C)C[C@@H](C=O)NC(=O)[C@H](CC(C)C)NC(=O)[C@H](CC(C)C)NC(=O)OCc1ccccc1
REMARK SMILES IDX 16 1 17 2 18 3 11 5 9 6 8 7 10 8 5 10 4 11 2 12 1 13 3 14
REMARK SMILES IDX 6 15 7 16 12 17 13 18 14 19 15 20 19 21 20 22 21 23 22 24
REMARK SMILES IDX 23 25 24 26 25 27 26 28 27 30 28 31 29 32 30 33 34 34 31 35
REMARK SMILES IDX 33 36 32 37
REMARK H PARENT 16 4 8 9 24 29
ROOT
ATOM      1  N   UNL     1     -10.361   0.471   6.726  1.00  0.00    -0.343 N 
ATOM      2  C   UNL     1      -9.248   0.252   7.604  1.00  0.00     0.243 C 
ATOM      3  O   UNL     1      -9.357  -0.689   8.451  1.00  0.00    -0.273 OA
ATOM      4  H   UNL     1     -10.242   1.245   6.028  1.00  0.00     0.164 HD
ENDROOT
BRANCH   1   5
ATOM      5  C   UNL     1     -11.574  -0.349   6.795  1.00  0.00     0.171 C 
BRANCH   5   6
ATOM      6  C   UNL     1     -11.938  -0.700   5.351  1.00  0.00     0.243 C 
ATOM      7  N   UNL     1     -11.059  -0.431   4.286  1.00  0.00    -0.345 N 
ATOM      8  O   UNL     1     -13.041  -1.235   5.127  1.00  0.00    -0.273 OA
ATOM      9  H   UNL     1     -10.145   0.017   4.510  1.00  0.00     0.164 HD
BRANCH   7  10
ATOM     10  C   UNL     1     -11.389  -0.761   2.896  1.00  0.00     0.146 C 
BRANCH  10  11
ATOM     11  C   UNL     1     -11.127   0.461   2.048  1.00  0.00     0.035 C 
BRANCH  11  12
ATOM     12  C   UNL     1     -12.354   0.972   1.340  1.00  0.00    -0.015 C 
ATOM     13  C   UNL     1     -13.548   1.024   2.272  1.00  0.00     0.007 C 
ATOM     14  C   UNL     1     -12.702   0.039   0.202  1.00  0.00     0.007 C 
ENDBRANCH  11  12
ENDBRANCH  10  11
BRANCH  10  15
ATOM     15  C   UNL     1     -10.600  -1.947   2.509  1.00  0.00     0.248 C 
ATOM     16  O   UNL     1     -11.074  -2.889   1.901  1.00  0.00    -0.301 OA
ENDBRANCH  10  15
ENDBRANCH   7  10
ENDBRANCH   5   6
BRANCH   5  17
ATOM     17  C   UNL     1     -12.734   0.309   7.448  1.00  0.00     0.038 C 
BRANCH  17  18
ATOM     18  C   UNL     1     -12.843   1.782   7.234  1.00  0.00    -0.015 C 
ATOM     19  C   UNL     1     -12.963   2.502   8.591  1.00  0.00     0.007 C 
ATOM     20  C   UNL     1     -13.994   2.214   6.397  1.00  0.00     0.007 C 
ENDBRANCH  17  18
ENDBRANCH   5  17
ENDBRANCH   1   5
BRANCH   2  21
ATOM     21  C   UNL     1      -8.011   1.087   7.536  1.00  0.00     0.175 C 
BRANCH  21  22
ATOM     22  C   UNL     1      -7.409   1.275   8.898  1.00  0.00     0.038 C 
BRANCH  22  23
ATOM     23  C   UNL     1      -6.112   0.572   9.100  1.00  0.00    -0.015 C 
ATOM     24  C   UNL     1      -5.681  -0.276   7.940  1.00  0.00     0.007 C 
ATOM     25  C   UNL     1      -4.997   1.482   9.599  1.00  0.00     0.007 C 
ENDBRANCH  22  23
ENDBRANCH  21  22
BRANCH  21  26
ATOM     26  N   UNL     1      -8.339   2.296   6.866  1.00  0.00    -0.310 N 
ATOM     27  C   UNL     1      -7.457   2.833   5.892  1.00  0.00     0.408 C 
ATOM     28  O   UNL     1      -6.370   2.220   5.622  1.00  0.00    -0.225 OA
ATOM     29  H   UNL     1      -9.211   2.797   7.072  1.00  0.00     0.167 HD
BRANCH  27  30
ATOM     30  O   UNL     1      -7.684   3.982   5.202  1.00  0.00    -0.445 OA
BRANCH  30  31
ATOM     31  C   UNL     1      -7.795   5.294   5.645  1.00  0.00     0.270 C 
BRANCH  31  32
ATOM     32  C   UNL     1      -8.093   6.233   4.536  1.00  0.00    -0.011 A 
ATOM     33  C   UNL     1      -9.228   7.018   4.520  1.00  0.00     0.007 A 
ATOM     34  C   UNL     1      -7.226   6.377   3.464  1.00  0.00     0.007 A 
ATOM     35  C   UNL     1      -9.514   7.905   3.513  1.00  0.00     0.000 A 
ATOM     36  C   UNL     1      -7.507   7.271   2.442  1.00  0.00     0.000 A 
ATOM     37  C   UNL     1      -8.644   8.044   2.448  1.00  0.00     0.000 A 
ENDBRANCH  31  32
ENDBRANCH  30  31
ENDBRANCH  27  30
ENDBRANCH  21  26
ENDBRANCH   2  21
TORSDOF 15
ENDMDL
MODEL 8
REMARK VINA RESULT:      -5.3      5.388      8.180
REMARK SMILES CC(C)C[C@@H](C=O)NC(=O)[C@H](CC(C)C)NC(=O)[C@H](CC(C)C)NC(=O)OCc1ccccc1
REMARK SMILES IDX 16 1 17 2 18 3 11 5 9 6 8 7 10 8 5 10 4 11 2 12 1 13 3 14
REMARK SMILES IDX 6 15 7 16 12 17 13 18 14 19 15 20 19 21 20 22 21 23 22 24
REMARK SMILES IDX 23 25 24 26 25 27 26 28 27 30 28 31 29 32 30 33 34 34 31 35
REMARK SMILES IDX 33 36 32 37
REMARK H PARENT 16 4 8 9 24 29
ROOT
ATOM      1  N   UNL     1     -13.141   3.029   6.753  1.00  0.00    -0.343 N 
ATOM      2  C   UNL     1     -12.559   3.340   8.027  1.00  0.00     0.243 C 
ATOM      3  O   UNL     1     -12.920   2.628   9.016  1.00  0.00    -0.273 OA
ATOM      4  H   UNL     1     -12.818   3.621   5.950  1.00  0.00     0.164 HD
ENDROOT
BRANCH   1   5
ATOM      5  C   UNL     1     -14.110   1.940   6.590  1.00  0.00     0.171 C 
BRANCH   5   6
ATOM      6  C   UNL     1     -13.646   1.131   5.377  1.00  0.00     0.243 C 
ATOM      7  N   UNL     1     -14.441   1.017   4.223  1.00  0.00    -0.345 N 
ATOM      8  O   UNL     1     -12.536   0.566   5.426  1.00  0.00    -0.273 OA
ATOM      9  H   UNL     1     -15.364   1.502   4.216  1.00  0.00     0.164 HD
BRANCH   7  10
ATOM     10  C   UNL     1     -14.014   0.248   3.050  1.00  0.00     0.146 C 
BRANCH  10  11
ATOM     11  C   UNL     1     -12.750   0.875   2.511  1.00  0.00     0.035 C 
BRANCH  11  12
ATOM     12  C   UNL     1     -12.857   1.292   1.068  1.00  0.00    -0.015 C 
ATOM     13  C   UNL     1     -14.303   1.478   0.653  1.00  0.00     0.007 C 
ATOM     14  C   UNL     1     -12.263   0.215   0.190  1.00  0.00     0.007 C 
ENDBRANCH  11  12
ENDBRANCH  10  11
BRANCH  10  15
ATOM     15  C   UNL     1     -13.863  -1.163   3.459  1.00  0.00     0.248 C 
ATOM     16  O   UNL     1     -14.810  -1.909   3.626  1.00  0.00    -0.301 OA
ENDBRANCH  10  15
ENDBRANCH   7  10
ENDBRANCH   5   6
BRANCH   5  17
ATOM     17  C   UNL     1     -15.512   2.381   6.381  1.00  0.00     0.038 C 
BRANCH  17  18
ATOM     18  C   UNL     1     -15.694   3.834   6.094  1.00  0.00    -0.015 C 
ATOM     19  C   UNL     1     -16.534   4.488   7.208  1.00  0.00     0.007 C 
ATOM     20  C   UNL     1     -16.355   4.143   4.798  1.00  0.00     0.007 C 
ENDBRANCH  17  18
ENDBRANCH   5  17
ENDBRANCH   1   5
BRANCH   2  21
ATOM     21  C   UNL     1     -11.572   4.449   8.195  1.00  0.00     0.175 C 
BRANCH  21  22
ATOM     22  C   UNL     1     -12.268   5.763   8.409  1.00  0.00     0.038 C 
BRANCH  22  23
ATOM     23  C   UNL     1     -12.261   6.663   7.224  1.00  0.00    -0.015 C 
ATOM     24  C   UNL     1     -13.609   6.870   6.598  1.00  0.00     0.007 C 
ATOM     25  C   UNL     1     -11.524   7.975   7.458  1.00  0.00     0.007 C 
ENDBRANCH  22  23
ENDBRANCH  21  22
BRANCH  21  26
ATOM     26  N   UNL     1     -10.693   4.422   7.080  1.00  0.00    -0.310 N 
ATOM     27  C   UNL     1      -9.289   4.499   7.277  1.00  0.00     0.408 C 
ATOM     28  O   UNL     1      -8.825   4.590   8.463  1.00  0.00    -0.225 OA
ATOM     29  H   UNL     1     -11.055   4.347   6.122  1.00  0.00     0.167 HD
BRANCH  27  30
ATOM     30  O   UNL     1      -8.373   4.484   6.274  1.00  0.00    -0.445 OA
BRANCH  30  31
ATOM     31  C   UNL     1      -7.423   5.427   5.903  1.00  0.00     0.270 C 
BRANCH  31  32
ATOM     32  C   UNL     1      -7.867   6.236   4.742  1.00  0.00    -0.011 A 
ATOM     33  C   UNL     1      -9.083   6.890   4.721  1.00  0.00     0.007 A 
ATOM     34  C   UNL     1      -7.064   6.388   3.622  1.00  0.00     0.007 A 
ATOM     35  C   UNL     1      -9.505   7.658   3.664  1.00  0.00     0.000 A 
ATOM     36  C   UNL     1      -7.482   7.161   2.550  1.00  0.00     0.000 A 
ATOM     37  C   UNL     1      -8.698   7.804   2.552  1.00  0.00     0.000 A 
ENDBRANCH  31  32
ENDBRANCH  30  31
ENDBRANCH  27  30
ENDBRANCH  21  26
ENDBRANCH   2  21
TORSDOF 15
ENDMDL
MODEL 9
REMARK VINA RESULT:      -5.3      3.414      6.067
REMARK SMILES CC(C)C[C@@H](C=O)NC(=O)[C@H](CC(C)C)NC(=O)[C@H](CC(C)C)NC(=O)OCc1ccccc1
REMARK SMILES IDX 16 1 17 2 18 3 11 5 9 6 8 7 10 8 5 10 4 11 2 12 1 13 3 14
REMARK SMILES IDX 6 15 7 16 12 17 13 18 14 19 15 20 19 21 20 22 21 23 22 24
REMARK SMILES IDX 23 25 24 26 25 27 26 28 27 30 28 31 29 32 30 33 34 34 31 35
REMARK SMILES IDX 33 36 32 37
REMARK H PARENT 16 4 8 9 24 29
ROOT
ATOM      1  N   UNL     1      -9.235   4.659   8.346  1.00  0.00    -0.343 N 
ATOM      2  C   UNL     1      -9.141   3.237   8.177  1.00  0.00     0.243 C 
ATOM      3  O   UNL     1     -10.166   2.551   8.482  1.00  0.00    -0.273 OA
ATOM      4  H   UNL     1      -8.381   5.204   8.076  1.00  0.00     0.164 HD
ENDROOT
BRANCH   1   5
ATOM      5  C   UNL     1     -10.455   5.300   8.846  1.00  0.00     0.171 C 
BRANCH   5   6
ATOM      6  C   UNL     1     -10.364   6.772   8.439  1.00  0.00     0.243 C 
ATOM      7  N   UNL     1     -11.447   7.651   8.614  1.00  0.00    -0.345 N 
ATOM      8  O   UNL     1      -9.299   7.188   7.942  1.00  0.00    -0.273 OA
ATOM      9  H   UNL     1     -12.321   7.270   9.033  1.00  0.00     0.164 HD
BRANCH   7  10
ATOM     10  C   UNL     1     -11.378   9.065   8.232  1.00  0.00     0.146 C 
BRANCH  10  11
ATOM     11  C   UNL     1     -12.060   9.225   6.895  1.00  0.00     0.035 C 
BRANCH  11  12
ATOM     12  C   UNL     1     -13.280   8.356   6.739  1.00  0.00    -0.015 C 
ATOM     13  C   UNL     1     -13.196   7.505   5.487  1.00  0.00     0.007 C 
ATOM     14  C   UNL     1     -14.506   9.232   6.616  1.00  0.00     0.007 C 
ENDBRANCH  11  12
ENDBRANCH  10  11
BRANCH  10  15
ATOM     15  C   UNL     1     -11.981   9.862   9.319  1.00  0.00     0.248 C 
ATOM     16  O   UNL     1     -12.606  10.887   9.122  1.00  0.00    -0.301 OA
ENDBRANCH  10  15
ENDBRANCH   7  10
ENDBRANCH   5   6
BRANCH   5  17
ATOM     17  C   UNL     1     -10.649   5.206  10.315  1.00  0.00     0.038 C 
BRANCH  17  18
ATOM     18  C   UNL     1      -9.495   5.656  11.147  1.00  0.00    -0.015 C 
ATOM     19  C   UNL     1      -8.879   4.451  11.884  1.00  0.00     0.007 C 
ATOM     20  C   UNL     1      -9.818   6.685  12.170  1.00  0.00     0.007 C 
ENDBRANCH  17  18
ENDBRANCH   5  17
ENDBRANCH   1   5
BRANCH   2  21
ATOM     21  C   UNL     1      -7.898   2.582   7.669  1.00  0.00     0.175 C 
BRANCH  21  22
ATOM     22  C   UNL     1      -7.084   2.017   8.798  1.00  0.00     0.038 C 
BRANCH  22  23
ATOM     23  C   UNL     1      -7.294   0.565   9.042  1.00  0.00    -0.015 C 
ATOM     24  C   UNL     1      -6.090  -0.288   8.774  1.00  0.00     0.007 C 
ATOM     25  C   UNL     1      -7.932   0.259  10.392  1.00  0.00     0.007 C 
ENDBRANCH  22  23
ENDBRANCH  21  22
BRANCH  21  26
ATOM     26  N   UNL     1      -7.209   3.524   6.860  1.00  0.00    -0.310 N 
ATOM     27  C   UNL     1      -7.149   3.347   5.453  1.00  0.00     0.408 C 
ATOM     28  O   UNL     1      -7.721   2.337   4.922  1.00  0.00    -0.225 OA
ATOM     29  H   UNL     1      -6.747   4.342   7.276  1.00  0.00     0.167 HD
BRANCH  27  30
ATOM     30  O   UNL     1      -6.512   4.192   4.600  1.00  0.00    -0.445 OA
BRANCH  30  31
ATOM     31  C   UNL     1      -6.260   5.555   4.700  1.00  0.00     0.270 C 
BRANCH  31  32
ATOM     32  C   UNL     1      -7.377   6.369   4.162  1.00  0.00    -0.011 A 
ATOM     33  C   UNL     1      -7.314   6.978   2.924  1.00  0.00     0.007 A 
ATOM     34  C   UNL     1      -8.552   6.540   4.877  1.00  0.00     0.007 A 
ATOM     35  C   UNL     1      -8.343   7.721   2.400  1.00  0.00     0.000 A 
ATOM     36  C   UNL     1      -9.596   7.288   4.354  1.00  0.00     0.000 A 
ATOM     37  C   UNL     1      -9.511   7.886   3.119  1.00  0.00     0.000 A 
ENDBRANCH  31  32
ENDBRANCH  30  31
ENDBRANCH  27  30
ENDBRANCH  21  26
ENDBRANCH   2  21
TORSDOF 15
ENDMDL
