MODEL 1
REMARK VINA RESULT:      -6.1      0.000      0.000
REMARK SMILES O=S(=O)([N-]CC[NH2+]C/C=C/c1ccc(Br)cc1)c1cccc2cnccc12
REMARK SMILES IDX 6 1 5 2 4 3 2 4 1 5 3 6 18 7 19 8 27 9 20 10 26 11 22 12
REMARK SMILES IDX 21 13 25 14 23 15 24 16 7 17 8 20 9 21 10 22 11 23 12 24
REMARK SMILES IDX 17 25 13 26 16 27 14 28 15 29
REMARK H PARENT 7 18 7 19
ROOT
ATOM      1  C   UNL     1       6.385  10.165   0.751  1.00  0.00     0.238 C 
ENDROOT
BRANCH   1   2
ATOM      2  C   UNL     1       6.873  11.478   1.319  1.00  0.00    -0.070 C 
BRANCH   2   3
ATOM      3  N   UNL     1       8.087  11.284   2.081  1.00  0.00    -0.540 NA
BRANCH   3   4
ATOM      4  S   UNL     1       9.382  12.269   1.417  1.00  0.00     0.102 S 
ATOM      5  O   UNL     1       8.998  13.633   1.721  1.00  0.00    -0.244 OA
ATOM      6  O   UNL     1       9.298  12.058  -0.071  1.00  0.00    -0.244 OA
BRANCH   4   7
ATOM      7  C   UNL     1      10.838  11.623   1.999  1.00  0.00     0.056 A 
ATOM      8  C   UNL     1      10.846  10.414   2.660  1.00  0.00     0.019 A 
ATOM      9  C   UNL     1      12.044  12.271   1.839  1.00  0.00     0.002 A 
ATOM     10  C   UNL     1      12.038   9.890   3.136  1.00  0.00     0.002 A 
ATOM     11  C   UNL     1      12.033  13.478   1.177  1.00  0.00     0.030 A 
ATOM     12  C   UNL     1      13.257  11.766   2.307  1.00  0.00     0.001 A 
ATOM     13  C   UNL     1      13.238  10.550   2.968  1.00  0.00     0.010 A 
ATOM     14  C   UNL     1      13.211  14.144   0.999  1.00  0.00     0.111 A 
ATOM     15  C   UNL     1      14.432  12.464   2.113  1.00  0.00     0.119 A 
ATOM     16  N   UNL     1      14.361  13.634   1.462  1.00  0.00    -0.264 NA
ENDBRANCH   4   7
ENDBRANCH   3   4
ENDBRANCH   2   3
ENDBRANCH   1   2
BRANCH   1  17
ATOM     17  N   UNL     1       7.390   9.143   0.761  1.00  0.00    -0.344 N 
ATOM     18  H   UNL     1       8.210   9.454   1.291  1.00  0.00     0.346 HD
ATOM     19  H   UNL     1       6.975   8.273   1.170  1.00  0.00     0.346 HD
BRANCH  17  20
ATOM     20  C   UNL     1       7.723   8.831  -0.612  1.00  0.00     0.289 C 
BRANCH  20  21
ATOM     21  C   UNL     1       9.058   8.246  -0.768  1.00  0.00     0.034 C 
ATOM     22  C   UNL     1      10.126   9.010  -0.629  1.00  0.00     0.009 C 
BRANCH  22  23
ATOM     23  C   UNL     1      11.502   8.545  -0.759  1.00  0.00    -0.026 A 
ATOM     24  C   UNL     1      12.547   9.413  -0.532  1.00  0.00     0.009 A 
ATOM     25  C   UNL     1      11.833   7.258  -1.105  1.00  0.00     0.009 A 
ATOM     26  C   UNL     1      13.871   9.030  -0.640  1.00  0.00     0.016 A 
ATOM     27  C   UNL     1      13.171   6.859  -1.217  1.00  0.00     0.016 A 
ATOM     28  C   UNL     1      14.199   7.738  -0.987  1.00  0.00     0.018 A 
ATOM     29  Br  UNL     1      16.023   7.170  -1.146  1.00  0.00    -0.051 Br
ENDBRANCH  22  23
ENDBRANCH  20  21
ENDBRANCH  17  20
ENDBRANCH   1  17
TORSDOF 8
ENDMDL
MODEL 2
REMARK VINA RESULT:      -6.0      4.000      6.384
REMARK SMILES O=S(=O)([N-]CC[NH2+]C/C=C/c1ccc(Br)cc1)c1cccc2cnccc12
REMARK SMILES IDX 6 1 5 2 4 3 2 4 1 5 3 6 18 7 19 8 27 9 20 10 26 11 22 12
REMARK SMILES IDX 21 13 25 14 23 15 24 16 7 17 8 20 9 21 10 22 11 23 12 24
REMARK SMILES IDX 17 25 13 26 16 27 14 28 15 29
REMARK H PARENT 7 18 7 19
ROOT
ATOM      1  C   UNL     1      14.034   7.435  -1.852  1.00  0.00     0.238 C 
ENDROOT
BRANCH   1   2
ATOM      2  C   UNL     1      13.308   7.394  -0.528  1.00  0.00    -0.070 C 
BRANCH   2   3
ATOM      3  N   UNL     1      12.945   8.728  -0.102  1.00  0.00    -0.540 NA
BRANCH   3   4
ATOM      4  S   UNL     1      11.292   9.085  -0.579  1.00  0.00     0.102 S 
ATOM      5  O   UNL     1      10.806   7.854  -1.169  1.00  0.00    -0.244 OA
ATOM      6  O   UNL     1      11.423  10.127  -1.659  1.00  0.00    -0.244 OA
BRANCH   4   7
ATOM      7  C   UNL     1      10.527   9.765   0.773  1.00  0.00     0.056 A 
ATOM      8  C   UNL     1      11.278  10.265   1.816  1.00  0.00     0.019 A 
ATOM      9  C   UNL     1       9.156   9.840   0.881  1.00  0.00     0.002 A 
ATOM     10  C   UNL     1      10.649  10.818   2.921  1.00  0.00     0.002 A 
ATOM     11  C   UNL     1       8.409   9.340  -0.163  1.00  0.00     0.030 A 
ATOM     12  C   UNL     1       8.498  10.391   1.980  1.00  0.00     0.001 A 
ATOM     13  C   UNL     1       9.273  10.886   3.015  1.00  0.00     0.010 A 
ATOM     14  C   UNL     1       7.048   9.400  -0.090  1.00  0.00     0.111 A 
ATOM     15  C   UNL     1       7.119  10.437   2.026  1.00  0.00     0.119 A 
ATOM     16  N   UNL     1       6.445   9.935   0.981  1.00  0.00    -0.264 NA
ENDBRANCH   4   7
ENDBRANCH   3   4
ENDBRANCH   2   3
ENDBRANCH   1   2
BRANCH   1  17
ATOM     17  N   UNL     1      13.308   6.793  -2.908  1.00  0.00    -0.344 N 
ATOM     18  H   UNL     1      12.341   6.615  -2.620  1.00  0.00     0.346 HD
ATOM     19  H   UNL     1      13.349   7.403  -3.758  1.00  0.00     0.346 HD
BRANCH  17  20
ATOM     20  C   UNL     1      14.003   5.570  -3.248  1.00  0.00     0.289 C 
BRANCH  20  21
ATOM     21  C   UNL     1      15.437   5.615  -2.946  1.00  0.00     0.034 C 
ATOM     22  C   UNL     1      16.009   4.595  -2.333  1.00  0.00     0.009 C 
BRANCH  22  23
ATOM     23  C   UNL     1      17.421   4.523  -1.981  1.00  0.00    -0.026 A 
ATOM     24  C   UNL     1      17.845   4.947  -0.741  1.00  0.00     0.009 A 
ATOM     25  C   UNL     1      18.387   4.043  -2.832  1.00  0.00     0.009 A 
ATOM     26  C   UNL     1      19.171   4.903  -0.351  1.00  0.00     0.016 A 
ATOM     27  C   UNL     1      19.733   3.993  -2.447  1.00  0.00     0.016 A 
ATOM     28  C   UNL     1      20.136   4.421  -1.208  1.00  0.00     0.018 A 
ATOM     29  Br  UNL     1      21.984   4.343  -0.703  1.00  0.00    -0.051 Br
ENDBRANCH  22  23
ENDBRANCH  20  21
ENDBRANCH  17  20
ENDBRANCH   1  17
TORSDOF 8
ENDMDL
MODEL 3
REMARK VINA RESULT:      -6.0      2.345      3.901
REMARK SMILES O=S(=O)([N-]CC[NH2+]C/C=C/c1ccc(Br)cc1)c1cccc2cnccc12
REMARK SMILES IDX 6 1 5 2 4 3 2 4 1 5 3 6 18 7 19 8 27 9 20 10 26 11 22 12
REMARK SMILES IDX 21 13 25 14 23 15 24 16 7 17 8 20 9 21 10 22 11 23 12 24
REMARK SMILES IDX 17 25 13 26 16 27 14 28 15 29
REMARK H PARENT 7 18 7 19
ROOT
ATOM      1  C   UNL     1       8.819  10.135   2.748  1.00  0.00     0.238 C 
ENDROOT
BRANCH   1   2
ATOM      2  C   UNL     1       7.416  10.143   2.187  1.00  0.00    -0.070 C 
BRANCH   2   3
ATOM      3  N   UNL     1       7.318  11.059   1.071  1.00  0.00    -0.540 NA
BRANCH   3   4
ATOM      4  S   UNL     1       7.620  10.208  -0.437  1.00  0.00     0.102 S 
ATOM      5  O   UNL     1       6.830  10.919  -1.423  1.00  0.00    -0.244 OA
ATOM      6  O   UNL     1       7.025   8.841  -0.229  1.00  0.00    -0.244 OA
BRANCH   4   7
ATOM      7  C   UNL     1       9.302  10.076  -0.598  1.00  0.00     0.056 A 
ATOM      8  C   UNL     1       9.894   8.835  -0.699  1.00  0.00     0.019 A 
ATOM      9  C   UNL     1      10.126  11.180  -0.631  1.00  0.00     0.002 A 
ATOM     10  C   UNL     1      11.271   8.731  -0.829  1.00  0.00     0.002 A 
ATOM     11  C   UNL     1       9.531  12.419  -0.531  1.00  0.00     0.030 A 
ATOM     12  C   UNL     1      11.512  11.104  -0.761  1.00  0.00     0.001 A 
ATOM     13  C   UNL     1      12.083   9.847  -0.860  1.00  0.00     0.010 A 
ATOM     14  C   UNL     1      10.317  13.533  -0.563  1.00  0.00     0.111 A 
ATOM     15  C   UNL     1      12.281  12.250  -0.789  1.00  0.00     0.119 A 
ATOM     16  N   UNL     1      11.648  13.427  -0.687  1.00  0.00    -0.264 NA
ENDBRANCH   4   7
ENDBRANCH   3   4
ENDBRANCH   2   3
ENDBRANCH   1   2
BRANCH   1  17
ATOM     17  N   UNL     1       9.127  11.315   3.502  1.00  0.00    -0.344 N 
ATOM     18  H   UNL     1       8.403  12.027   3.361  1.00  0.00     0.346 HD
ATOM     19  H   UNL     1       9.214  11.051   4.512  1.00  0.00     0.346 HD
BRANCH  17  20
ATOM     20  C   UNL     1      10.432  11.782   3.086  1.00  0.00     0.289 C 
BRANCH  20  21
ATOM     21  C   UNL     1      11.456  10.734   3.106  1.00  0.00     0.034 C 
ATOM     22  C   UNL     1      12.678  11.005   2.687  1.00  0.00     0.009 C 
BRANCH  22  23
ATOM     23  C   UNL     1      13.779  10.050   2.658  1.00  0.00    -0.026 A 
ATOM     24  C   UNL     1      14.886  10.297   1.878  1.00  0.00     0.009 A 
ATOM     25  C   UNL     1      13.782   8.883   3.383  1.00  0.00     0.009 A 
ATOM     26  C   UNL     1      15.960   9.428   1.811  1.00  0.00     0.016 A 
ATOM     27  C   UNL     1      14.864   7.995   3.322  1.00  0.00     0.016 A 
ATOM     28  C   UNL     1      15.960   8.259   2.539  1.00  0.00     0.018 A 
ATOM     29  Br  UNL     1      17.429   7.030   2.472  1.00  0.00    -0.051 Br
ENDBRANCH  22  23
ENDBRANCH  20  21
ENDBRANCH  17  20
ENDBRANCH   1  17
TORSDOF 8
ENDMDL
MODEL 4
REMARK VINA RESULT:      -5.9      7.410      9.507
REMARK SMILES O=S(=O)([N-]CC[NH2+]C/C=C/c1ccc(Br)cc1)c1cccc2cnccc12
REMARK SMILES IDX 6 1 5 2 4 3 2 4 1 5 3 6 18 7 19 8 27 9 20 10 26 11 22 12
REMARK SMILES IDX 21 13 25 14 23 15 24 16 7 17 8 20 9 21 10 22 11 23 12 24
REMARK SMILES IDX 17 25 13 26 16 27 14 28 15 29
REMARK H PARENT 7 18 7 19
ROOT
ATOM      1  C   UNL     1      12.541   7.327  -2.572  1.00  0.00     0.238 C 
ENDROOT
BRANCH   1   2
ATOM      2  C   UNL     1      13.941   6.925  -2.170  1.00  0.00    -0.070 C 
BRANCH   2   3
ATOM      3  N   UNL     1      13.910   6.046  -1.021  1.00  0.00    -0.540 NA
BRANCH   3   4
ATOM      4  S   UNL     1      14.739   4.541  -1.388  1.00  0.00     0.102 S 
ATOM      5  O   UNL     1      14.764   4.480  -2.836  1.00  0.00    -0.244 OA
ATOM      6  O   UNL     1      13.823   3.465  -0.869  1.00  0.00    -0.244 OA
BRANCH   4   7
ATOM      7  C   UNL     1      16.178   4.541  -0.490  1.00  0.00     0.056 A 
ATOM      8  C   UNL     1      16.548   5.659   0.227  1.00  0.00     0.019 A 
ATOM      9  C   UNL     1      17.015   3.448  -0.446  1.00  0.00     0.002 A 
ATOM     10  C   UNL     1      17.726   5.656   0.958  1.00  0.00     0.002 A 
ATOM     11  C   UNL     1      16.642   2.333  -1.163  1.00  0.00     0.030 A 
ATOM     12  C   UNL     1      18.205   3.418   0.281  1.00  0.00     0.001 A 
ATOM     13  C   UNL     1      18.555   4.553   0.993  1.00  0.00     0.010 A 
ATOM     14  C   UNL     1      17.448   1.232  -1.139  1.00  0.00     0.111 A 
ATOM     15  C   UNL     1      19.001   2.290   0.285  1.00  0.00     0.119 A 
ATOM     16  N   UNL     1      18.587   1.235  -0.431  1.00  0.00    -0.264 NA
ENDBRANCH   4   7
ENDBRANCH   3   4
ENDBRANCH   2   3
ENDBRANCH   1   2
BRANCH   1  17
ATOM     17  N   UNL     1      12.307   7.202  -3.981  1.00  0.00    -0.344 N 
ATOM     18  H   UNL     1      11.826   6.321  -4.187  1.00  0.00     0.346 HD
ATOM     19  H   UNL     1      11.747   8.029  -4.299  1.00  0.00     0.346 HD
BRANCH  17  20
ATOM     20  C   UNL     1      13.584   7.290  -4.655  1.00  0.00     0.289 C 
BRANCH  20  21
ATOM     21  C   UNL     1      13.530   8.055  -5.904  1.00  0.00     0.034 C 
ATOM     22  C   UNL     1      12.378   8.200  -6.533  1.00  0.00     0.009 C 
BRANCH  22  23
ATOM     23  C   UNL     1      12.197   8.935  -7.778  1.00  0.00    -0.026 A 
ATOM     24  C   UNL     1      10.942   9.365  -8.150  1.00  0.00     0.009 A 
ATOM     25  C   UNL     1      13.231   9.237  -8.632  1.00  0.00     0.009 A 
ATOM     26  C   UNL     1      10.710  10.067  -9.318  1.00  0.00     0.016 A 
ATOM     27  C   UNL     1      13.007   9.948  -9.818  1.00  0.00     0.016 A 
ATOM     28  C   UNL     1      11.749  10.367 -10.172  1.00  0.00     0.018 A 
ATOM     29  Br  UNL     1      11.466  11.338 -11.800  1.00  0.00    -0.051 Br
ENDBRANCH  22  23
ENDBRANCH  20  21
ENDBRANCH  17  20
ENDBRANCH   1  17
TORSDOF 8
ENDMDL
MODEL 5
REMARK VINA RESULT:      -5.9      4.408      6.732
REMARK SMILES O=S(=O)([N-]CC[NH2+]C/C=C/c1ccc(Br)cc1)c1cccc2cnccc12
REMARK SMILES IDX 6 1 5 2 4 3 2 4 1 5 3 6 18 7 19 8 27 9 20 10 26 11 22 12
REMARK SMILES IDX 21 13 25 14 23 15 24 16 7 17 8 20 9 21 10 22 11 23 12 24
REMARK SMILES IDX 17 25 13 26 16 27 14 28 15 29
REMARK H PARENT 7 18 7 19
ROOT
ATOM      1  C   UNL     1      14.012   8.091  -3.189  1.00  0.00     0.238 C 
ENDROOT
BRANCH   1   2
ATOM      2  C   UNL     1      13.279   9.145  -2.391  1.00  0.00    -0.070 C 
BRANCH   2   3
ATOM      3  N   UNL     1      12.886   8.626  -1.099  1.00  0.00    -0.540 NA
BRANCH   3   4
ATOM      4  S   UNL     1      11.134   8.548  -0.985  1.00  0.00     0.102 S 
ATOM      5  O   UNL     1      10.821   7.139  -1.113  1.00  0.00    -0.244 OA
ATOM      6  O   UNL     1      10.640   9.271  -2.211  1.00  0.00    -0.244 OA
BRANCH   4   7
ATOM      7  C   UNL     1      10.693   9.418   0.401  1.00  0.00     0.056 A 
ATOM      8  C   UNL     1      11.661   9.993   1.197  1.00  0.00     0.019 A 
ATOM      9  C   UNL     1       9.378   9.578   0.780  1.00  0.00     0.002 A 
ATOM     10  C   UNL     1      11.297  10.702   2.331  1.00  0.00     0.002 A 
ATOM     11  C   UNL     1       8.414   9.004  -0.018  1.00  0.00     0.030 A 
ATOM     12  C   UNL     1       8.984  10.287   1.915  1.00  0.00     0.001 A 
ATOM     13  C   UNL     1       9.975  10.854   2.698  1.00  0.00     0.010 A 
ATOM     14  C   UNL     1       7.101   9.145   0.328  1.00  0.00     0.111 A 
ATOM     15  C   UNL     1       7.648  10.411   2.239  1.00  0.00     0.119 A 
ATOM     16  N   UNL     1       6.754   9.831   1.426  1.00  0.00    -0.264 NA
ENDBRANCH   4   7
ENDBRANCH   3   4
ENDBRANCH   2   3
ENDBRANCH   1   2
BRANCH   1  17
ATOM     17  N   UNL     1      14.851   7.259  -2.377  1.00  0.00    -0.344 N 
ATOM     18  H   UNL     1      15.716   7.751  -2.136  1.00  0.00     0.346 HD
ATOM     19  H   UNL     1      14.315   6.982  -1.520  1.00  0.00     0.346 HD
BRANCH  17  20
ATOM     20  C   UNL     1      15.110   6.038  -3.109  1.00  0.00     0.289 C 
BRANCH  20  21
ATOM     21  C   UNL     1      16.061   5.149  -2.435  1.00  0.00     0.034 C 
ATOM     22  C   UNL     1      15.615   4.116  -1.744  1.00  0.00     0.009 C 
BRANCH  22  23
ATOM     23  C   UNL     1      16.460   3.164  -1.033  1.00  0.00    -0.026 A 
ATOM     24  C   UNL     1      16.136   1.826  -1.028  1.00  0.00     0.009 A 
ATOM     25  C   UNL     1      17.593   3.528  -0.348  1.00  0.00     0.009 A 
ATOM     26  C   UNL     1      16.899   0.877  -0.372  1.00  0.00     0.016 A 
ATOM     27  C   UNL     1      18.373   2.575   0.320  1.00  0.00     0.016 A 
ATOM     28  C   UNL     1      18.035   1.246   0.315  1.00  0.00     0.018 A 
ATOM     29  Br  UNL     1      19.118  -0.040   1.236  1.00  0.00    -0.051 Br
ENDBRANCH  22  23
ENDBRANCH  20  21
ENDBRANCH  17  20
ENDBRANCH   1  17
TORSDOF 8
ENDMDL
MODEL 6
REMARK VINA RESULT:      -5.9      1.436      2.375
REMARK SMILES O=S(=O)([N-]CC[NH2+]C/C=C/c1ccc(Br)cc1)c1cccc2cnccc12
REMARK SMILES IDX 6 1 5 2 4 3 2 4 1 5 3 6 18 7 19 8 27 9 20 10 26 11 22 12
REMARK SMILES IDX 21 13 25 14 23 15 24 16 7 17 8 20 9 21 10 22 11 23 12 24
REMARK SMILES IDX 17 25 13 26 16 27 14 28 15 29
REMARK H PARENT 7 18 7 19
ROOT
ATOM      1  C   UNL     1       6.684  10.740   0.637  1.00  0.00     0.238 C 
ENDROOT
BRANCH   1   2
ATOM      2  C   UNL     1       7.422  10.895   1.947  1.00  0.00    -0.070 C 
BRANCH   2   3
ATOM      3  N   UNL     1       8.336  12.014   1.888  1.00  0.00    -0.540 NA
BRANCH   3   4
ATOM      4  S   UNL     1       9.965  11.486   2.286  1.00  0.00     0.102 S 
ATOM      5  O   UNL     1       9.846  10.056   2.490  1.00  0.00    -0.244 OA
ATOM      6  O   UNL     1      10.267  12.144   3.606  1.00  0.00    -0.244 OA
BRANCH   4   7
ATOM      7  C   UNL     1      10.990  12.114   1.091  1.00  0.00     0.056 A 
ATOM      8  C   UNL     1      10.462  12.672  -0.054  1.00  0.00     0.019 A 
ATOM      9  C   UNL     1      12.362  12.089   1.214  1.00  0.00     0.002 A 
ATOM     10  C   UNL     1      11.304  13.183  -1.029  1.00  0.00     0.002 A 
ATOM     11  C   UNL     1      12.887  11.532   2.359  1.00  0.00     0.030 A 
ATOM     12  C   UNL     1      13.232  12.597   0.248  1.00  0.00     0.001 A 
ATOM     13  C   UNL     1      12.677  13.152  -0.892  1.00  0.00     0.010 A 
ATOM     14  C   UNL     1      14.242  11.494   2.514  1.00  0.00     0.111 A 
ATOM     15  C   UNL     1      14.599  12.542   0.433  1.00  0.00     0.119 A 
ATOM     16  N   UNL     1      15.052  11.989   1.567  1.00  0.00    -0.264 NA
ENDBRANCH   4   7
ENDBRANCH   3   4
ENDBRANCH   2   3
ENDBRANCH   1   2
BRANCH   1  17
ATOM     17  N   UNL     1       6.814   9.428   0.074  1.00  0.00    -0.344 N 
ATOM     18  H   UNL     1       7.071   8.751   0.799  1.00  0.00     0.346 HD
ATOM     19  H   UNL     1       5.908   9.173  -0.386  1.00  0.00     0.346 HD
BRANCH  17  20
ATOM     20  C   UNL     1       7.804   9.491  -0.980  1.00  0.00     0.289 C 
BRANCH  20  21
ATOM     21  C   UNL     1       9.007   8.704  -0.693  1.00  0.00     0.034 C 
ATOM     22  C   UNL     1      10.185   9.137  -1.104  1.00  0.00     0.009 C 
BRANCH  22  23
ATOM     23  C   UNL     1      11.448   8.445  -0.881  1.00  0.00    -0.026 A 
ATOM     24  C   UNL     1      11.643   7.182  -1.394  1.00  0.00     0.009 A 
ATOM     25  C   UNL     1      12.490   8.990  -0.170  1.00  0.00     0.009 A 
ATOM     26  C   UNL     1      12.819   6.478  -1.214  1.00  0.00     0.016 A 
ATOM     27  C   UNL     1      13.686   8.286   0.017  1.00  0.00     0.016 A 
ATOM     28  C   UNL     1      13.862   7.027  -0.501  1.00  0.00     0.018 A 
ATOM     29  Br  UNL     1      15.507   6.083  -0.232  1.00  0.00    -0.051 Br
ENDBRANCH  22  23
ENDBRANCH  20  21
ENDBRANCH  17  20
ENDBRANCH   1  17
TORSDOF 8
ENDMDL
MODEL 7
REMARK VINA RESULT:      -5.9      2.480      4.363
REMARK SMILES O=S(=O)([N-]CC[NH2+]C/C=C/c1ccc(Br)cc1)c1cccc2cnccc12
REMARK SMILES IDX 6 1 5 2 4 3 2 4 1 5 3 6 18 7 19 8 27 9 20 10 26 11 22 12
REMARK SMILES IDX 21 13 25 14 23 15 24 16 7 17 8 20 9 21 10 22 11 23 12 24
REMARK SMILES IDX 17 25 13 26 16 27 14 28 15 29
REMARK H PARENT 7 18 7 19
ROOT
ATOM      1  C   UNL     1       7.633  11.234   1.912  1.00  0.00     0.238 C 
ENDROOT
BRANCH   1   2
ATOM      2  C   UNL     1       8.339  11.727   0.670  1.00  0.00    -0.070 C 
BRANCH   2   3
ATOM      3  N   UNL     1       7.863  11.023  -0.501  1.00  0.00    -0.540 NA
BRANCH   3   4
ATOM      4  S   UNL     1       8.874   9.620  -0.815  1.00  0.00     0.102 S 
ATOM      5  O   UNL     1       8.254   8.969  -1.953  1.00  0.00    -0.244 OA
ATOM      6  O   UNL     1       8.703   8.747   0.400  1.00  0.00    -0.244 OA
BRANCH   4   7
ATOM      7  C   UNL     1      10.474  10.175  -0.893  1.00  0.00     0.056 A 
ATOM      8  C   UNL     1      10.740  11.528  -0.881  1.00  0.00     0.019 A 
ATOM      9  C   UNL     1      11.547   9.314  -0.972  1.00  0.00     0.002 A 
ATOM     10  C   UNL     1      12.050  11.978  -0.947  1.00  0.00     0.002 A 
ATOM     11  C   UNL     1      11.277   7.964  -0.983  1.00  0.00     0.030 A 
ATOM     12  C   UNL     1      12.873   9.740  -1.039  1.00  0.00     0.001 A 
ATOM     13  C   UNL     1      13.115  11.103  -1.025  1.00  0.00     0.010 A 
ATOM     14  C   UNL     1      12.317   7.083  -1.058  1.00  0.00     0.111 A 
ATOM     15  C   UNL     1      13.904   8.825  -1.115  1.00  0.00     0.119 A 
ATOM     16  N   UNL     1      13.582   7.524  -1.122  1.00  0.00    -0.264 NA
ENDBRANCH   4   7
ENDBRANCH   3   4
ENDBRANCH   2   3
ENDBRANCH   1   2
BRANCH   1  17
ATOM     17  N   UNL     1       8.480  10.449   2.761  1.00  0.00    -0.344 N 
ATOM     18  H   UNL     1       7.983  10.187   3.619  1.00  0.00     0.346 HD
ATOM     19  H   UNL     1       8.794   9.604   2.227  1.00  0.00     0.346 HD
BRANCH  17  20
ATOM     20  C   UNL     1       9.671  11.221   3.042  1.00  0.00     0.289 C 
BRANCH  20  21
ATOM     21  C   UNL     1      10.911  10.456   2.882  1.00  0.00     0.034 C 
ATOM     22  C   UNL     1      12.060  11.092   2.749  1.00  0.00     0.009 C 
BRANCH  22  23
ATOM     23  C   UNL     1      13.354  10.443   2.584  1.00  0.00    -0.026 A 
ATOM     24  C   UNL     1      14.485  11.202   2.382  1.00  0.00     0.009 A 
ATOM     25  C   UNL     1      13.524   9.080   2.618  1.00  0.00     0.009 A 
ATOM     26  C   UNL     1      15.739  10.643   2.220  1.00  0.00     0.016 A 
ATOM     27  C   UNL     1      14.790   8.503   2.455  1.00  0.00     0.016 A 
ATOM     28  C   UNL     1      15.906   9.276   2.254  1.00  0.00     0.018 A 
ATOM     29  Br  UNL     1      17.628   8.464   2.034  1.00  0.00    -0.051 Br
ENDBRANCH  22  23
ENDBRANCH  20  21
ENDBRANCH  17  20
ENDBRANCH   1  17
TORSDOF 8
ENDMDL
MODEL 8
REMARK VINA RESULT:      -5.8      4.486      6.722
REMARK SMILES O=S(=O)([N-]CC[NH2+]C/C=C/c1ccc(Br)cc1)c1cccc2cnccc12
REMARK SMILES IDX 6 1 5 2 4 3 2 4 1 5 3 6 18 7 19 8 27 9 20 10 26 11 22 12
REMARK SMILES IDX 21 13 25 14 23 15 24 16 7 17 8 20 9 21 10 22 11 23 12 24
REMARK SMILES IDX 17 25 13 26 16 27 14 28 15 29
REMARK H PARENT 7 18 7 19
ROOT
ATOM      1  C   UNL     1      13.149   6.582  -1.341  1.00  0.00     0.238 C 
ENDROOT
BRANCH   1   2
ATOM      2  C   UNL     1      13.053   7.652  -0.278  1.00  0.00    -0.070 C 
BRANCH   2   3
ATOM      3  N   UNL     1      13.274   8.962  -0.850  1.00  0.00    -0.540 NA
BRANCH   3   4
ATOM      4  S   UNL     1      11.737   9.715  -1.247  1.00  0.00     0.102 S 
ATOM      5  O   UNL     1      11.227   8.942  -2.362  1.00  0.00    -0.244 OA
ATOM      6  O   UNL     1      12.101  11.093  -1.734  1.00  0.00    -0.244 OA
BRANCH   4   7
ATOM      7  C   UNL     1      10.863   9.839   0.201  1.00  0.00     0.056 A 
ATOM      8  C   UNL     1      11.511  10.143   1.379  1.00  0.00     0.019 A 
ATOM      9  C   UNL     1       9.500   9.642   0.255  1.00  0.00     0.002 A 
ATOM     10  C   UNL     1      10.793  10.242   2.561  1.00  0.00     0.002 A 
ATOM     11  C   UNL     1       8.856   9.339  -0.925  1.00  0.00     0.030 A 
ATOM     12  C   UNL     1       8.754   9.735   1.429  1.00  0.00     0.001 A 
ATOM     13  C   UNL     1       9.428  10.041   2.599  1.00  0.00     0.010 A 
ATOM     14  C   UNL     1       7.506   9.139  -0.907  1.00  0.00     0.111 A 
ATOM     15  C   UNL     1       7.389   9.526   1.415  1.00  0.00     0.119 A 
ATOM     16  N   UNL     1       6.816   9.235   0.239  1.00  0.00    -0.264 NA
ENDBRANCH   4   7
ENDBRANCH   3   4
ENDBRANCH   2   3
ENDBRANCH   1   2
BRANCH   1  17
ATOM     17  N   UNL     1      14.454   6.493  -1.928  1.00  0.00    -0.344 N 
ATOM     18  H   UNL     1      14.667   7.344  -2.457  1.00  0.00     0.346 HD
ATOM     19  H   UNL     1      15.151   6.331  -1.163  1.00  0.00     0.346 HD
BRANCH  17  20
ATOM     20  C   UNL     1      14.486   5.314  -2.767  1.00  0.00     0.289 C 
BRANCH  20  21
ATOM     21  C   UNL     1      14.985   4.123  -2.074  1.00  0.00     0.034 C 
ATOM     22  C   UNL     1      16.244   4.075  -1.679  1.00  0.00     0.009 C 
BRANCH  22  23
ATOM     23  C   UNL     1      16.854   2.949  -0.983  1.00  0.00    -0.026 A 
ATOM     24  C   UNL     1      18.017   3.129  -0.267  1.00  0.00     0.009 A 
ATOM     25  C   UNL     1      16.328   1.680  -0.996  1.00  0.00     0.009 A 
ATOM     26  C   UNL     1      18.641   2.099   0.413  1.00  0.00     0.016 A 
ATOM     27  C   UNL     1      16.952   0.630  -0.311  1.00  0.00     0.016 A 
ATOM     28  C   UNL     1      18.110   0.828   0.397  1.00  0.00     0.018 A 
ATOM     29  Br  UNL     1      18.946  -0.624   1.328  1.00  0.00    -0.051 Br
ENDBRANCH  22  23
ENDBRANCH  20  21
ENDBRANCH  17  20
ENDBRANCH   1  17
TORSDOF 8
ENDMDL
MODEL 9
REMARK VINA RESULT:      -5.8      7.412      9.138
REMARK SMILES O=S(=O)([N-]CC[NH2+]C/C=C/c1ccc(Br)cc1)c1cccc2cnccc12
REMARK SMILES IDX 6 1 5 2 4 3 2 4 1 5 3 6 18 7 19 8 27 9 20 10 26 11 22 12
REMARK SMILES IDX 21 13 25 14 23 15 24 16 7 17 8 20 9 21 10 22 11 23 12 24
REMARK SMILES IDX 17 25 13 26 16 27 14 28 15 29
REMARK H PARENT 7 18 7 19
ROOT
ATOM      1  C   UNL     1      14.889   4.186  -2.098  1.00  0.00     0.238 C 
ENDROOT
BRANCH   1   2
ATOM      2  C   UNL     1      15.919   5.278  -2.270  1.00  0.00    -0.070 C 
BRANCH   2   3
ATOM      3  N   UNL     1      15.575   6.435  -1.473  1.00  0.00    -0.540 NA
BRANCH   3   4
ATOM      4  S   UNL     1      17.034   7.218  -0.883  1.00  0.00     0.102 S 
ATOM      5  O   UNL     1      16.969   8.563  -1.417  1.00  0.00    -0.244 OA
ATOM      6  O   UNL     1      18.161   6.479  -1.555  1.00  0.00    -0.244 OA
BRANCH   4   7
ATOM      7  C   UNL     1      17.096   6.945   0.789  1.00  0.00     0.056 A 
ATOM      8  C   UNL     1      15.976   6.504   1.462  1.00  0.00     0.019 A 
ATOM      9  C   UNL     1      18.242   7.152   1.525  1.00  0.00     0.002 A 
ATOM     10  C   UNL     1      16.030   6.284   2.830  1.00  0.00     0.002 A 
ATOM     11  C   UNL     1      19.359   7.592   0.849  1.00  0.00     0.030 A 
ATOM     12  C   UNL     1      18.324   6.939   2.901  1.00  0.00     0.001 A 
ATOM     13  C   UNL     1      17.186   6.496   3.554  1.00  0.00     0.010 A 
ATOM     14  C   UNL     1      20.512   7.805   1.547  1.00  0.00     0.111 A 
ATOM     15  C   UNL     1      19.505   7.165   3.580  1.00  0.00     0.119 A 
ATOM     16  N   UNL     1      20.559   7.592   2.870  1.00  0.00    -0.264 NA
ENDBRANCH   4   7
ENDBRANCH   3   4
ENDBRANCH   2   3
ENDBRANCH   1   2
BRANCH   1  17
ATOM     17  N   UNL     1      15.246   3.235  -1.087  1.00  0.00    -0.344 N 
ATOM     18  H   UNL     1      15.122   3.642  -0.154  1.00  0.00     0.346 HD
ATOM     19  H   UNL     1      14.655   2.379  -1.213  1.00  0.00     0.346 HD
BRANCH  17  20
ATOM     20  C   UNL     1      16.614   2.826  -1.321  1.00  0.00     0.289 C 
BRANCH  20  21
ATOM     21  C   UNL     1      17.398   2.693  -0.090  1.00  0.00     0.034 C 
ATOM     22  C   UNL     1      18.264   3.634   0.239  1.00  0.00     0.009 C 
BRANCH  22  23
ATOM     23  C   UNL     1      19.099   3.615   1.434  1.00  0.00    -0.026 A 
ATOM     24  C   UNL     1      18.578   3.180   2.632  1.00  0.00     0.009 A 
ATOM     25  C   UNL     1      20.413   4.015   1.441  1.00  0.00     0.009 A 
ATOM     26  C   UNL     1      19.321   3.139   3.797  1.00  0.00     0.016 A 
ATOM     27  C   UNL     1      21.175   3.977   2.616  1.00  0.00     0.016 A 
ATOM     28  C   UNL     1      20.639   3.541   3.800  1.00  0.00     0.018 A 
ATOM     29  Br  UNL     1      21.701   3.498   5.395  1.00  0.00    -0.051 Br
ENDBRANCH  22  23
ENDBRANCH  20  21
ENDBRANCH  17  20
ENDBRANCH   1  17
TORSDOF 8
ENDMDL
