MODEL 1
REMARK VINA RESULT:      -6.3      0.000      0.000
REMARK SMILES O=C1NCN(c2ccccc2)C12CC[NH+](CCCC(c1ccc(F)cc1)c1ccc(F)cc1)CC2
REMARK SMILES IDX 17 1 16 2 15 3 1 4 2 5 3 6 12 7 4 8 5 9 13 10 35 11 14 12
REMARK SMILES IDX 34 13 6 16 7 17 11 18 8 19 10 20 9 21 18 22 19 23 20 24
REMARK SMILES IDX 21 25 26 26 22 27 25 28 23 29 24 30 27 31 28 32 33 33 29 34
REMARK SMILES IDX 32 35 30 36 31 37
REMARK H PARENT 3 14 15 15
ROOT
ATOM      1  C   UNL     1     -36.154 -15.579  16.052  1.00  0.00     0.062 C 
ENDROOT
BRANCH   1   2
ATOM      2  C   UNL     1     -36.460 -14.500  17.049  1.00  0.00     0.262 C 
BRANCH   2   3
ATOM      3  N   UNL     1     -37.892 -14.461  17.323  1.00  0.00    -0.335 N 
ATOM      4  O   UNL     1     -40.332 -12.880  18.728  1.00  0.00    -0.272 OA
ATOM      5  C   UNL     1     -41.029 -13.902  18.561  1.00  0.00     0.247 C 
ATOM      6  N   UNL     1     -42.371 -14.021  18.963  1.00  0.00    -0.336 N 
ATOM      7  C   UNL     1     -40.565 -15.182  17.903  1.00  0.00     0.131 C 
ATOM      8  C   UNL     1     -42.921 -15.100  18.204  1.00  0.00     0.238 C 
ATOM      9  N   UNL     1     -41.776 -15.995  17.977  1.00  0.00    -0.339 N 
ATOM     10  C   UNL     1     -39.432 -15.765  18.723  1.00  0.00     0.100 C 
ATOM     11  C   UNL     1     -40.140 -14.850  16.518  1.00  0.00     0.100 C 
ATOM     12  C   UNL     1     -38.205 -14.884  18.672  1.00  0.00     0.265 C 
ATOM     13  C   UNL     1     -38.687 -15.147  16.339  1.00  0.00     0.265 C 
ATOM     14  H   UNL     1     -42.851 -13.419  19.685  1.00  0.00     0.165 HD
ATOM     15  H   UNL     1     -38.133 -13.448  17.261  1.00  0.00     0.348 HD
BRANCH   9  16
ATOM     16  C   UNL     1     -41.951 -17.399  17.881  1.00  0.00     0.039 A 
ATOM     17  C   UNL     1     -42.286 -18.149  18.984  1.00  0.00     0.026 A 
ATOM     18  C   UNL     1     -41.808 -18.017  16.677  1.00  0.00     0.026 A 
ATOM     19  C   UNL     1     -42.481 -19.531  18.897  1.00  0.00     0.002 A 
ATOM     20  C   UNL     1     -41.994 -19.367  16.570  1.00  0.00     0.002 A 
ATOM     21  C   UNL     1     -42.328 -20.125  17.662  1.00  0.00     0.000 A 
ENDBRANCH   9  16
ENDBRANCH   2   3
ENDBRANCH   1   2
BRANCH   1  22
ATOM     22  C   UNL     1     -35.598 -16.833  16.574  1.00  0.00     0.019 C 
BRANCH  22  23
ATOM     23  C   UNL     1     -36.132 -18.141  16.221  1.00  0.00     0.049 C 
BRANCH  23  24
ATOM     24  C   UNL     1     -35.146 -19.105  15.615  1.00  0.00    -0.040 A 
ATOM     25  C   UNL     1     -34.069 -19.459  16.396  1.00  0.00     0.007 A 
ATOM     26  C   UNL     1     -35.281 -19.598  14.345  1.00  0.00     0.007 A 
ATOM     27  C   UNL     1     -33.114 -20.314  15.907  1.00  0.00     0.039 A 
ATOM     28  C   UNL     1     -34.327 -20.451  13.860  1.00  0.00     0.039 A 
ATOM     29  C   UNL     1     -33.222 -20.826  14.634  1.00  0.00     0.123 A 
ATOM     30  F   UNL     1     -32.271 -21.671  14.160  1.00  0.00    -0.207 F 
ENDBRANCH  23  24
BRANCH  23  31
ATOM     31  C   UNL     1     -37.048 -18.836  17.111  1.00  0.00    -0.040 A 
ATOM     32  C   UNL     1     -37.939 -19.813  16.766  1.00  0.00     0.007 A 
ATOM     33  C   UNL     1     -37.005 -18.431  18.452  1.00  0.00     0.007 A 
ATOM     34  C   UNL     1     -38.762 -20.360  17.759  1.00  0.00     0.039 A 
ATOM     35  C   UNL     1     -37.796 -18.954  19.423  1.00  0.00     0.039 A 
ATOM     36  C   UNL     1     -38.690 -19.936  19.062  1.00  0.00     0.123 A 
ATOM     37  F   UNL     1     -39.476 -20.451  20.046  1.00  0.00    -0.207 F 
ENDBRANCH  23  31
ENDBRANCH  22  23
ENDBRANCH   1  22
TORSDOF 7
ENDMDL
MODEL 2
REMARK VINA RESULT:      -6.2      2.709      4.895
REMARK SMILES O=C1NCN(c2ccccc2)C12CC[NH+](CCCC(c1ccc(F)cc1)c1ccc(F)cc1)CC2
REMARK SMILES IDX 17 1 16 2 15 3 1 4 2 5 3 6 12 7 4 8 5 9 13 10 35 11 14 12
REMARK SMILES IDX 34 13 6 16 7 17 11 18 8 19 10 20 9 21 18 22 19 23 20 24
REMARK SMILES IDX 21 25 26 26 22 27 25 28 23 29 24 30 27 31 28 32 33 33 29 34
REMARK SMILES IDX 32 35 30 36 31 37
REMARK H PARENT 3 14 15 15
ROOT
ATOM      1  C   UNL     1     -36.860 -18.272  18.968  1.00  0.00     0.062 C 
ENDROOT
BRANCH   1   2
ATOM      2  C   UNL     1     -38.298 -18.060  19.338  1.00  0.00     0.262 C 
BRANCH   2   3
ATOM      3  N   UNL     1     -38.704 -16.696  19.015  1.00  0.00    -0.335 N 
ATOM      4  O   UNL     1     -40.932 -14.385  19.366  1.00  0.00    -0.272 OA
ATOM      5  C   UNL     1     -40.374 -13.771  18.432  1.00  0.00     0.247 C 
ATOM      6  N   UNL     1     -40.808 -12.533  17.927  1.00  0.00    -0.336 N 
ATOM      7  C   UNL     1     -39.147 -14.239  17.684  1.00  0.00     0.131 C 
ATOM      8  C   UNL     1     -39.691 -11.970  17.236  1.00  0.00     0.238 C 
ATOM      9  N   UNL     1     -38.952 -13.141  16.741  1.00  0.00    -0.339 N 
ATOM     10  C   UNL     1     -39.473 -15.544  16.986  1.00  0.00     0.100 C 
ATOM     11  C   UNL     1     -38.046 -14.394  18.672  1.00  0.00     0.100 C 
ATOM     12  C   UNL     1     -39.718 -16.655  17.981  1.00  0.00     0.265 C 
ATOM     13  C   UNL     1     -37.600 -15.818  18.730  1.00  0.00     0.265 C 
ATOM     14  H   UNL     1     -41.774 -12.124  18.049  1.00  0.00     0.165 HD
ATOM     15  H   UNL     1     -39.153 -16.352  19.891  1.00  0.00     0.348 HD
BRANCH   9  16
ATOM     16  C   UNL     1     -38.223 -13.089  15.525  1.00  0.00     0.039 A 
ATOM     17  C   UNL     1     -36.923 -13.529  15.458  1.00  0.00     0.026 A 
ATOM     18  C   UNL     1     -38.823 -12.615  14.399  1.00  0.00     0.026 A 
ATOM     19  C   UNL     1     -36.202 -13.501  14.260  1.00  0.00     0.002 A 
ATOM     20  C   UNL     1     -38.136 -12.578  13.217  1.00  0.00     0.002 A 
ATOM     21  C   UNL     1     -36.839 -13.015  13.138  1.00  0.00     0.000 A 
ENDBRANCH   9  16
ENDBRANCH   2   3
ENDBRANCH   1   2
BRANCH   1  22
ATOM     22  C   UNL     1     -36.577 -19.268  17.929  1.00  0.00     0.019 C 
BRANCH  22  23
ATOM     23  C   UNL     1     -35.603 -19.048  16.868  1.00  0.00     0.049 C 
BRANCH  23  24
ATOM     24  C   UNL     1     -34.190 -19.463  17.185  1.00  0.00    -0.040 A 
ATOM     25  C   UNL     1     -34.022 -20.320  18.249  1.00  0.00     0.007 A 
ATOM     26  C   UNL     1     -33.110 -19.003  16.480  1.00  0.00     0.007 A 
ATOM     27  C   UNL     1     -32.764 -20.725  18.616  1.00  0.00     0.039 A 
ATOM     28  C   UNL     1     -31.856 -19.410  16.849  1.00  0.00     0.039 A 
ATOM     29  C   UNL     1     -31.659 -20.281  17.926  1.00  0.00     0.123 A 
ATOM     30  F   UNL     1     -30.419 -20.689  18.299  1.00  0.00    -0.207 F 
ENDBRANCH  23  24
BRANCH  23  31
ATOM     31  C   UNL     1     -35.929 -19.351  15.484  1.00  0.00    -0.040 A 
ATOM     32  C   UNL     1     -36.191 -18.450  14.490  1.00  0.00     0.007 A 
ATOM     33  C   UNL     1     -35.989 -20.714  15.167  1.00  0.00     0.007 A 
ATOM     34  C   UNL     1     -36.508 -18.926  13.212  1.00  0.00     0.039 A 
ATOM     35  C   UNL     1     -36.293 -21.187  13.931  1.00  0.00     0.039 A 
ATOM     36  C   UNL     1     -36.557 -20.270  12.940  1.00  0.00     0.123 A 
ATOM     37  F   UNL     1     -36.860 -20.759  11.708  1.00  0.00    -0.207 F 
ENDBRANCH  23  31
ENDBRANCH  22  23
ENDBRANCH   1  22
TORSDOF 7
ENDMDL
MODEL 3
REMARK VINA RESULT:      -6.2      2.772      5.388
REMARK SMILES O=C1NCN(c2ccccc2)C12CC[NH+](CCCC(c1ccc(F)cc1)c1ccc(F)cc1)CC2
REMARK SMILES IDX 17 1 16 2 15 3 1 4 2 5 3 6 12 7 4 8 5 9 13 10 35 11 14 12
REMARK SMILES IDX 34 13 6 16 7 17 11 18 8 19 10 20 9 21 18 22 19 23 20 24
REMARK SMILES IDX 21 25 26 26 22 27 25 28 23 29 24 30 27 31 28 32 33 33 29 34
REMARK SMILES IDX 32 35 30 36 31 37
REMARK H PARENT 3 14 15 15
ROOT
ATOM      1  C   UNL     1     -37.899 -18.196  18.686  1.00  0.00     0.062 C 
ENDROOT
BRANCH   1   2
ATOM      2  C   UNL     1     -37.835 -17.009  19.601  1.00  0.00     0.262 C 
BRANCH   2   3
ATOM      3  N   UNL     1     -38.782 -15.988  19.166  1.00  0.00    -0.335 N 
ATOM      4  O   UNL     1     -41.878 -15.100  18.927  1.00  0.00    -0.272 OA
ATOM      5  C   UNL     1     -41.510 -14.196  18.148  1.00  0.00     0.247 C 
ATOM      6  N   UNL     1     -42.378 -13.278  17.532  1.00  0.00    -0.336 N 
ATOM      7  C   UNL     1     -40.082 -13.928  17.729  1.00  0.00     0.131 C 
ATOM      8  C   UNL     1     -41.568 -12.174  17.125  1.00  0.00     0.238 C 
ATOM      9  N   UNL     1     -40.257 -12.779  16.844  1.00  0.00    -0.339 N 
ATOM     10  C   UNL     1     -39.555 -15.144  16.994  1.00  0.00     0.100 C 
ATOM     11  C   UNL     1     -39.298 -13.634  18.957  1.00  0.00     0.100 C 
ATOM     12  C   UNL     1     -39.428 -16.333  17.917  1.00  0.00     0.265 C 
ATOM     13  C   UNL     1     -38.228 -14.660  19.145  1.00  0.00     0.265 C 
ATOM     14  H   UNL     1     -43.419 -13.405  17.409  1.00  0.00     0.165 HD
ATOM     15  H   UNL     1     -39.522 -16.001  19.901  1.00  0.00     0.348 HD
BRANCH   9  16
ATOM     16  C   UNL     1     -39.405 -12.249  15.841  1.00  0.00     0.039 A 
ATOM     17  C   UNL     1     -39.763 -12.285  14.515  1.00  0.00     0.026 A 
ATOM     18  C   UNL     1     -38.222 -11.676  16.195  1.00  0.00     0.026 A 
ATOM     19  C   UNL     1     -38.940 -11.747  13.520  1.00  0.00     0.002 A 
ATOM     20  C   UNL     1     -37.402 -11.144  15.238  1.00  0.00     0.002 A 
ATOM     21  C   UNL     1     -37.749 -11.174  13.912  1.00  0.00     0.000 A 
ENDBRANCH   9  16
ENDBRANCH   2   3
ENDBRANCH   1   2
BRANCH   1  22
ATOM     22  C   UNL     1     -36.653 -18.940  18.467  1.00  0.00     0.019 C 
BRANCH  22  23
ATOM     23  C   UNL     1     -35.888 -18.852  17.231  1.00  0.00     0.049 C 
BRANCH  23  24
ATOM     24  C   UNL     1     -36.183 -17.655  16.366  1.00  0.00    -0.040 A 
ATOM     25  C   UNL     1     -35.704 -16.441  16.807  1.00  0.00     0.007 A 
ATOM     26  C   UNL     1     -36.911 -17.741  15.209  1.00  0.00     0.007 A 
ATOM     27  C   UNL     1     -35.952 -15.300  16.088  1.00  0.00     0.039 A 
ATOM     28  C   UNL     1     -37.155 -16.600  14.494  1.00  0.00     0.039 A 
ATOM     29  C   UNL     1     -36.679 -15.354  14.920  1.00  0.00     0.123 A 
ATOM     30  F   UNL     1     -36.917 -14.218  14.217  1.00  0.00    -0.207 F 
ENDBRANCH  23  24
BRANCH  23  31
ATOM     31  C   UNL     1     -34.468 -19.162  17.211  1.00  0.00    -0.040 A 
ATOM     32  C   UNL     1     -33.568 -18.812  16.243  1.00  0.00     0.007 A 
ATOM     33  C   UNL     1     -34.002 -19.911  18.299  1.00  0.00     0.007 A 
ATOM     34  C   UNL     1     -32.235 -19.217  16.382  1.00  0.00     0.039 A 
ATOM     35  C   UNL     1     -32.712 -20.307  18.445  1.00  0.00     0.039 A 
ATOM     36  C   UNL     1     -31.817 -19.950  17.463  1.00  0.00     0.123 A 
ATOM     37  F   UNL     1     -30.528 -20.354  17.622  1.00  0.00    -0.207 F 
ENDBRANCH  23  31
ENDBRANCH  22  23
ENDBRANCH   1  22
TORSDOF 7
ENDMDL
MODEL 4
REMARK VINA RESULT:      -6.2      1.208      1.702
REMARK SMILES O=C1NCN(c2ccccc2)C12CC[NH+](CCCC(c1ccc(F)cc1)c1ccc(F)cc1)CC2
REMARK SMILES IDX 17 1 16 2 15 3 1 4 2 5 3 6 12 7 4 8 5 9 13 10 35 11 14 12
REMARK SMILES IDX 34 13 6 16 7 17 11 18 8 19 10 20 9 21 18 22 19 23 20 24
REMARK SMILES IDX 21 25 26 26 22 27 25 28 23 29 24 30 27 31 28 32 33 33 29 34
REMARK SMILES IDX 32 35 30 36 31 37
REMARK H PARENT 3 14 15 15
ROOT
ATOM      1  C   UNL     1     -35.849 -16.101  16.969  1.00  0.00     0.062 C 
ENDROOT
BRANCH   1   2
ATOM      2  C   UNL     1     -36.423 -14.804  16.482  1.00  0.00     0.262 C 
BRANCH   2   3
ATOM      3  N   UNL     1     -37.787 -14.642  16.972  1.00  0.00    -0.335 N 
ATOM      4  O   UNL     1     -39.805 -12.947  18.838  1.00  0.00    -0.272 OA
ATOM      5  C   UNL     1     -40.631 -13.875  18.707  1.00  0.00     0.247 C 
ATOM      6  N   UNL     1     -41.906 -13.891  19.299  1.00  0.00    -0.336 N 
ATOM      7  C   UNL     1     -40.414 -15.134  17.899  1.00  0.00     0.131 C 
ATOM      8  C   UNL     1     -42.678 -14.838  18.559  1.00  0.00     0.238 C 
ATOM      9  N   UNL     1     -41.687 -15.823  18.098  1.00  0.00    -0.339 N 
ATOM     10  C   UNL     1     -39.249 -15.898  18.495  1.00  0.00     0.100 C 
ATOM     11  C   UNL     1     -40.157 -14.729  16.492  1.00  0.00     0.100 C 
ATOM     12  C   UNL     1     -37.950 -15.146  18.320  1.00  0.00     0.265 C 
ATOM     13  C   UNL     1     -38.788 -15.157  16.074  1.00  0.00     0.265 C 
ATOM     14  H   UNL     1     -42.207 -13.307  20.126  1.00  0.00     0.165 HD
ATOM     15  H   UNL     1     -37.919 -13.608  17.018  1.00  0.00     0.348 HD
BRANCH   9  16
ATOM     16  C   UNL     1     -42.032 -17.188  17.932  1.00  0.00     0.039 A 
ATOM     17  C   UNL     1     -41.911 -17.807  16.711  1.00  0.00     0.026 A 
ATOM     18  C   UNL     1     -42.470 -17.908  19.001  1.00  0.00     0.026 A 
ATOM     19  C   UNL     1     -42.229 -19.158  16.540  1.00  0.00     0.002 A 
ATOM     20  C   UNL     1     -42.787 -19.230  18.856  1.00  0.00     0.002 A 
ATOM     21  C   UNL     1     -42.670 -19.858  17.643  1.00  0.00     0.000 A 
ENDBRANCH   9  16
ENDBRANCH   2   3
ENDBRANCH   1   2
BRANCH   1  22
ATOM     22  C   UNL     1     -35.858 -17.230  16.033  1.00  0.00     0.019 C 
BRANCH  22  23
ATOM     23  C   UNL     1     -35.869 -18.619  16.471  1.00  0.00     0.049 C 
BRANCH  23  24
ATOM     24  C   UNL     1     -34.555 -19.152  16.980  1.00  0.00    -0.040 A 
ATOM     25  C   UNL     1     -33.428 -18.794  16.272  1.00  0.00     0.007 A 
ATOM     26  C   UNL     1     -34.464 -19.971  18.073  1.00  0.00     0.007 A 
ATOM     27  C   UNL     1     -32.196 -19.258  16.658  1.00  0.00     0.039 A 
ATOM     28  C   UNL     1     -33.232 -20.432  18.455  1.00  0.00     0.039 A 
ATOM     29  C   UNL     1     -32.072 -20.083  17.753  1.00  0.00     0.123 A 
ATOM     30  F   UNL     1     -30.848 -20.536  18.125  1.00  0.00    -0.207 F 
ENDBRANCH  23  24
BRANCH  23  31
ATOM     31  C   UNL     1     -36.973 -19.144  17.256  1.00  0.00    -0.040 A 
ATOM     32  C   UNL     1     -37.981 -19.954  16.812  1.00  0.00     0.007 A 
ATOM     33  C   UNL     1     -36.994 -18.750  18.601  1.00  0.00     0.007 A 
ATOM     34  C   UNL     1     -38.979 -20.348  17.712  1.00  0.00     0.039 A 
ATOM     35  C   UNL     1     -37.955 -19.126  19.482  1.00  0.00     0.039 A 
ATOM     36  C   UNL     1     -38.964 -19.941  19.022  1.00  0.00     0.123 A 
ATOM     37  F   UNL     1     -39.919 -20.311  19.916  1.00  0.00    -0.207 F 
ENDBRANCH  23  31
ENDBRANCH  22  23
ENDBRANCH   1  22
TORSDOF 7
ENDMDL
MODEL 5
REMARK VINA RESULT:      -6.1      2.633      4.906
REMARK SMILES O=C1NCN(c2ccccc2)C12CC[NH+](CCCC(c1ccc(F)cc1)c1ccc(F)cc1)CC2
REMARK SMILES IDX 17 1 16 2 15 3 1 4 2 5 3 6 12 7 4 8 5 9 13 10 35 11 14 12
REMARK SMILES IDX 34 13 6 16 7 17 11 18 8 19 10 20 9 21 18 22 19 23 20 24
REMARK SMILES IDX 21 25 26 26 22 27 25 28 23 29 24 30 27 31 28 32 33 33 29 34
REMARK SMILES IDX 32 35 30 36 31 37
REMARK H PARENT 3 14 15 15
ROOT
ATOM      1  C   UNL     1     -37.577 -17.304  19.165  1.00  0.00     0.062 C 
ENDROOT
BRANCH   1   2
ATOM      2  C   UNL     1     -39.032 -17.518  18.865  1.00  0.00     0.262 C 
BRANCH   2   3
ATOM      3  N   UNL     1     -39.667 -16.250  18.525  1.00  0.00    -0.335 N 
ATOM      4  O   UNL     1     -42.408 -14.547  18.404  1.00  0.00    -0.272 OA
ATOM      5  C   UNL     1     -41.807 -13.719  17.689  1.00  0.00     0.247 C 
ATOM      6  N   UNL     1     -42.394 -12.557  17.158  1.00  0.00    -0.336 N 
ATOM      7  C   UNL     1     -40.359 -13.813  17.267  1.00  0.00     0.131 C 
ATOM      8  C   UNL     1     -41.315 -11.683  16.821  1.00  0.00     0.238 C 
ATOM      9  N   UNL     1     -40.214 -12.595  16.474  1.00  0.00    -0.339 N 
ATOM     10  C   UNL     1     -40.176 -15.065  16.434  1.00  0.00     0.100 C 
ATOM     11  C   UNL     1     -39.529 -13.835  18.501  1.00  0.00     0.100 C 
ATOM     12  C   UNL     1     -40.376 -16.312  17.264  1.00  0.00     0.265 C 
ATOM     13  C   UNL     1     -38.776 -15.122  18.593  1.00  0.00     0.265 C 
ATOM     14  H   UNL     1     -43.430 -12.389  17.043  1.00  0.00     0.165 HD
ATOM     15  H   UNL     1     -40.386 -16.120  19.269  1.00  0.00     0.348 HD
BRANCH   9  16
ATOM     16  C   UNL     1     -39.247 -12.238  15.500  1.00  0.00     0.039 A 
ATOM     17  C   UNL     1     -39.505 -12.384  14.157  1.00  0.00     0.026 A 
ATOM     18  C   UNL     1     -38.050 -11.723  15.894  1.00  0.00     0.026 A 
ATOM     19  C   UNL     1     -38.567 -12.017  13.188  1.00  0.00     0.002 A 
ATOM     20  C   UNL     1     -37.119 -11.358  14.961  1.00  0.00     0.002 A 
ATOM     21  C   UNL     1     -37.365 -11.499  13.620  1.00  0.00     0.000 A 
ENDBRANCH   9  16
ENDBRANCH   2   3
ENDBRANCH   1   2
BRANCH   1  22
ATOM     22  C   UNL     1     -36.620 -18.201  18.508  1.00  0.00     0.019 C 
BRANCH  22  23
ATOM     23  C   UNL     1     -35.771 -17.777  17.403  1.00  0.00     0.049 C 
BRANCH  23  24
ATOM     24  C   UNL     1     -34.802 -18.811  16.892  1.00  0.00    -0.040 A 
ATOM     25  C   UNL     1     -35.043 -20.116  17.259  1.00  0.00     0.007 A 
ATOM     26  C   UNL     1     -33.715 -18.489  16.124  1.00  0.00     0.007 A 
ATOM     27  C   UNL     1     -34.192 -21.114  16.854  1.00  0.00     0.039 A 
ATOM     28  C   UNL     1     -32.869 -19.487  15.721  1.00  0.00     0.039 A 
ATOM     29  C   UNL     1     -33.092 -20.822  16.079  1.00  0.00     0.123 A 
ATOM     30  F   UNL     1     -32.258 -21.817  15.685  1.00  0.00    -0.207 F 
ENDBRANCH  23  24
BRANCH  23  31
ATOM     31  C   UNL     1     -36.314 -16.996  16.304  1.00  0.00    -0.040 A 
ATOM     32  C   UNL     1     -36.134 -15.659  16.084  1.00  0.00     0.007 A 
ATOM     33  C   UNL     1     -37.113 -17.707  15.400  1.00  0.00     0.007 A 
ATOM     34  C   UNL     1     -36.753 -15.066  14.977  1.00  0.00     0.039 A 
ATOM     35  C   UNL     1     -37.717 -17.144  14.323  1.00  0.00     0.039 A 
ATOM     36  C   UNL     1     -37.530 -15.797  14.114  1.00  0.00     0.123 A 
ATOM     37  F   UNL     1     -38.141 -15.246  13.030  1.00  0.00    -0.207 F 
ENDBRANCH  23  31
ENDBRANCH  22  23
ENDBRANCH   1  22
TORSDOF 7
ENDMDL
MODEL 6
REMARK VINA RESULT:      -6.1      3.384      4.824
REMARK SMILES O=C1NCN(c2ccccc2)C12CC[NH+](CCCC(c1ccc(F)cc1)c1ccc(F)cc1)CC2
REMARK SMILES IDX 17 1 16 2 15 3 1 4 2 5 3 6 12 7 4 8 5 9 13 10 35 11 14 12
REMARK SMILES IDX 34 13 6 16 7 17 11 18 8 19 10 20 9 21 18 22 19 23 20 24
REMARK SMILES IDX 21 25 26 26 22 27 25 28 23 29 24 30 27 31 28 32 33 33 29 34
REMARK SMILES IDX 32 35 30 36 31 37
REMARK H PARENT 3 14 15 15
ROOT
ATOM      1  C   UNL     1     -34.846 -20.243  13.476  1.00  0.00     0.062 C 
ENDROOT
BRANCH   1   2
ATOM      2  C   UNL     1     -35.204 -19.385  12.299  1.00  0.00     0.262 C 
BRANCH   2   3
ATOM      3  N   UNL     1     -36.609 -18.998  12.367  1.00  0.00    -0.335 N 
ATOM      4  O   UNL     1     -38.977 -17.185  11.127  1.00  0.00    -0.272 OA
ATOM      5  C   UNL     1     -39.649 -17.452  12.145  1.00  0.00     0.247 C 
ATOM      6  N   UNL     1     -40.948 -16.969  12.385  1.00  0.00    -0.336 N 
ATOM      7  C   UNL     1     -39.198 -18.329  13.290  1.00  0.00     0.131 C 
ATOM      8  C   UNL     1     -41.522 -17.838  13.363  1.00  0.00     0.238 C 
ATOM      9  N   UNL     1     -40.370 -18.286  14.161  1.00  0.00    -0.339 N 
ATOM     10  C   UNL     1     -37.981 -17.697  13.934  1.00  0.00     0.100 C 
ATOM     11  C   UNL     1     -38.901 -19.677  12.737  1.00  0.00     0.100 C 
ATOM     12  C   UNL     1     -36.794 -17.709  12.999  1.00  0.00     0.265 C 
ATOM     13  C   UNL     1     -37.459 -20.011  12.936  1.00  0.00     0.265 C 
ATOM     14  H   UNL     1     -41.388 -16.130  11.919  1.00  0.00     0.165 HD
ATOM     15  H   UNL     1     -36.890 -18.887  11.368  1.00  0.00     0.348 HD
BRANCH   9  16
ATOM     16  C   UNL     1     -40.504 -18.580  15.542  1.00  0.00     0.039 A 
ATOM     17  C   UNL     1     -40.279 -19.848  16.023  1.00  0.00     0.026 A 
ATOM     18  C   UNL     1     -40.839 -17.589  16.413  1.00  0.00     0.026 A 
ATOM     19  C   UNL     1     -40.388 -20.143  17.385  1.00  0.00     0.002 A 
ATOM     20  C   UNL     1     -40.951 -17.857  17.749  1.00  0.00     0.002 A 
ATOM     21  C   UNL     1     -40.729 -19.117  18.240  1.00  0.00     0.000 A 
ENDBRANCH   9  16
ENDBRANCH   2   3
ENDBRANCH   1   2
BRANCH   1  22
ATOM     22  C   UNL     1     -34.064 -19.615  14.547  1.00  0.00     0.019 C 
BRANCH  22  23
ATOM     23  C   UNL     1     -34.447 -19.685  15.950  1.00  0.00     0.049 C 
BRANCH  23  24
ATOM     24  C   UNL     1     -33.328 -19.969  16.918  1.00  0.00    -0.040 A 
ATOM     25  C   UNL     1     -33.665 -20.647  18.068  1.00  0.00     0.007 A 
ATOM     26  C   UNL     1     -32.040 -19.560  16.698  1.00  0.00     0.007 A 
ATOM     27  C   UNL     1     -32.706 -20.923  19.011  1.00  0.00     0.039 A 
ATOM     28  C   UNL     1     -31.087 -19.837  17.640  1.00  0.00     0.039 A 
ATOM     29  C   UNL     1     -31.403 -20.526  18.818  1.00  0.00     0.123 A 
ATOM     30  F   UNL     1     -30.464 -20.804  19.757  1.00  0.00    -0.207 F 
ENDBRANCH  23  24
BRANCH  23  31
ATOM     31  C   UNL     1     -35.383 -18.727  16.515  1.00  0.00    -0.040 A 
ATOM     32  C   UNL     1     -36.553 -19.011  17.162  1.00  0.00     0.007 A 
ATOM     33  C   UNL     1     -35.035 -17.380  16.351  1.00  0.00     0.007 A 
ATOM     34  C   UNL     1     -37.344 -17.953  17.626  1.00  0.00     0.039 A 
ATOM     35  C   UNL     1     -35.793 -16.346  16.797  1.00  0.00     0.039 A 
ATOM     36  C   UNL     1     -36.968 -16.645  17.445  1.00  0.00     0.123 A 
ATOM     37  F   UNL     1     -37.717 -15.599  17.887  1.00  0.00    -0.207 F 
ENDBRANCH  23  31
ENDBRANCH  22  23
ENDBRANCH   1  22
TORSDOF 7
ENDMDL
MODEL 7
REMARK VINA RESULT:      -6.0      3.960      7.780
REMARK SMILES O=C1NCN(c2ccccc2)C12CC[NH+](CCCC(c1ccc(F)cc1)c1ccc(F)cc1)CC2
REMARK SMILES IDX 17 1 16 2 15 3 1 4 2 5 3 6 12 7 4 8 5 9 13 10 35 11 14 12
REMARK SMILES IDX 34 13 6 16 7 17 11 18 8 19 10 20 9 21 18 22 19 23 20 24
REMARK SMILES IDX 21 25 26 26 22 27 25 28 23 29 24 30 27 31 28 32 33 33 29 34
REMARK SMILES IDX 32 35 30 36 31 37
REMARK H PARENT 3 14 15 15
ROOT
ATOM      1  C   UNL     1     -37.418 -14.324  18.747  1.00  0.00     0.062 C 
ENDROOT
BRANCH   1   2
ATOM      2  C   UNL     1     -38.046 -15.555  19.332  1.00  0.00     0.262 C 
BRANCH   2   3
ATOM      3  N   UNL     1     -37.802 -16.704  18.466  1.00  0.00    -0.335 N 
ATOM      4  O   UNL     1     -39.043 -19.314  17.026  1.00  0.00    -0.272 OA
ATOM      5  C   UNL     1     -37.874 -19.683  16.791  1.00  0.00     0.247 C 
ATOM      6  N   UNL     1     -37.537 -20.874  16.124  1.00  0.00    -0.336 N 
ATOM      7  C   UNL     1     -36.623 -18.926  17.175  1.00  0.00     0.131 C 
ATOM      8  C   UNL     1     -36.198 -20.703  15.654  1.00  0.00     0.238 C 
ATOM      9  N   UNL     1     -35.584 -19.808  16.647  1.00  0.00    -0.339 N 
ATOM     10  C   UNL     1     -36.567 -18.815  18.685  1.00  0.00     0.100 C 
ATOM     11  C   UNL     1     -36.679 -17.594  16.517  1.00  0.00     0.100 C 
ATOM     12  C   UNL     1     -37.678 -17.938  19.213  1.00  0.00     0.265 C 
ATOM     13  C   UNL     1     -36.712 -16.512  17.547  1.00  0.00     0.265 C 
ATOM     14  H   UNL     1     -38.168 -21.712  16.007  1.00  0.00     0.165 HD
ATOM     15  H   UNL     1     -38.674 -16.782  17.898  1.00  0.00     0.348 HD
BRANCH   9  16
ATOM     16  C   UNL     1     -34.205 -19.899  16.962  1.00  0.00     0.039 A 
ATOM     17  C   UNL     1     -33.287 -19.054  16.384  1.00  0.00     0.026 A 
ATOM     18  C   UNL     1     -33.779 -20.823  17.866  1.00  0.00     0.026 A 
ATOM     19  C   UNL     1     -31.927 -19.122  16.703  1.00  0.00     0.002 A 
ATOM     20  C   UNL     1     -32.453 -20.907  18.192  1.00  0.00     0.002 A 
ATOM     21  C   UNL     1     -31.530 -20.069  17.622  1.00  0.00     0.000 A 
ENDBRANCH   9  16
ENDBRANCH   2   3
ENDBRANCH   1   2
BRANCH   1  22
ATOM     22  C   UNL     1     -38.324 -13.265  18.290  1.00  0.00     0.019 C 
BRANCH  22  23
ATOM     23  C   UNL     1     -38.116 -12.527  17.051  1.00  0.00     0.049 C 
BRANCH  23  24
ATOM     24  C   UNL     1     -37.880 -13.369  15.824  1.00  0.00    -0.040 A 
ATOM     25  C   UNL     1     -38.850 -14.297  15.516  1.00  0.00     0.007 A 
ATOM     26  C   UNL     1     -36.754 -13.253  15.054  1.00  0.00     0.007 A 
ATOM     27  C   UNL     1     -38.698 -15.118  14.428  1.00  0.00     0.039 A 
ATOM     28  C   UNL     1     -36.605 -14.074  13.969  1.00  0.00     0.039 A 
ATOM     29  C   UNL     1     -37.577 -15.024  13.634  1.00  0.00     0.123 A 
ATOM     30  F   UNL     1     -37.437 -15.842  12.561  1.00  0.00    -0.207 F 
ENDBRANCH  23  24
BRANCH  23  31
ATOM     31  C   UNL     1     -38.931 -11.368  16.729  1.00  0.00    -0.040 A 
ATOM     32  C   UNL     1     -38.484 -10.111  16.431  1.00  0.00     0.007 A 
ATOM     33  C   UNL     1     -40.315 -11.584  16.748  1.00  0.00     0.007 A 
ATOM     34  C   UNL     1     -39.420  -9.105  16.164  1.00  0.00     0.039 A 
ATOM     35  C   UNL     1     -41.232 -10.617  16.489  1.00  0.00     0.039 A 
ATOM     36  C   UNL     1     -40.769  -9.356  16.192  1.00  0.00     0.123 A 
ATOM     37  F   UNL     1     -41.699  -8.398  15.935  1.00  0.00    -0.207 F 
ENDBRANCH  23  31
ENDBRANCH  22  23
ENDBRANCH   1  22
TORSDOF 7
ENDMDL
MODEL 8
REMARK VINA RESULT:      -6.0      2.910      5.152
REMARK SMILES O=C1NCN(c2ccccc2)C12CC[NH+](CCCC(c1ccc(F)cc1)c1ccc(F)cc1)CC2
REMARK SMILES IDX 17 1 16 2 15 3 1 4 2 5 3 6 12 7 4 8 5 9 13 10 35 11 14 12
REMARK SMILES IDX 34 13 6 16 7 17 11 18 8 19 10 20 9 21 18 22 19 23 20 24
REMARK SMILES IDX 21 25 26 26 22 27 25 28 23 29 24 30 27 31 28 32 33 33 29 34
REMARK SMILES IDX 32 35 30 36 31 37
REMARK H PARENT 3 14 15 15
ROOT
ATOM      1  C   UNL     1     -36.360 -18.192  18.219  1.00  0.00     0.062 C 
ENDROOT
BRANCH   1   2
ATOM      2  C   UNL     1     -37.468 -17.803  19.153  1.00  0.00     0.262 C 
BRANCH   2   3
ATOM      3  N   UNL     1     -37.960 -16.470  18.822  1.00  0.00    -0.335 N 
ATOM      4  O   UNL     1     -40.095 -14.138  19.477  1.00  0.00    -0.272 OA
ATOM      5  C   UNL     1     -39.771 -13.602  18.397  1.00  0.00     0.247 C 
ATOM      6  N   UNL     1     -40.329 -12.409  17.905  1.00  0.00    -0.336 N 
ATOM      7  C   UNL     1     -38.733 -14.130  17.433  1.00  0.00     0.131 C 
ATOM      8  C   UNL     1     -39.405 -11.905  16.939  1.00  0.00     0.238 C 
ATOM      9  N   UNL     1     -38.773 -13.113  16.386  1.00  0.00    -0.339 N 
ATOM     10  C   UNL     1     -39.183 -15.488  16.932  1.00  0.00     0.100 C 
ATOM     11  C   UNL     1     -37.437 -14.203  18.159  1.00  0.00     0.100 C 
ATOM     12  C   UNL     1     -39.179 -16.513  18.042  1.00  0.00     0.265 C 
ATOM     13  C   UNL     1     -36.963 -15.618  18.228  1.00  0.00     0.265 C 
ATOM     14  H   UNL     1     -41.251 -11.992  18.207  1.00  0.00     0.165 HD
ATOM     15  H   UNL     1     -38.208 -16.055  19.746  1.00  0.00     0.348 HD
BRANCH   9  16
ATOM     16  C   UNL     1     -38.335 -13.160  15.038  1.00  0.00     0.039 A 
ATOM     17  C   UNL     1     -39.076 -12.587  14.031  1.00  0.00     0.026 A 
ATOM     18  C   UNL     1     -37.153 -13.761  14.733  1.00  0.00     0.026 A 
ATOM     19  C   UNL     1     -38.644 -12.609  12.701  1.00  0.00     0.002 A 
ATOM     20  C   UNL     1     -36.712 -13.794  13.439  1.00  0.00     0.002 A 
ATOM     21  C   UNL     1     -37.442 -13.226  12.427  1.00  0.00     0.000 A 
ENDBRANCH   9  16
ENDBRANCH   2   3
ENDBRANCH   1   2
BRANCH   1  22
ATOM     22  C   UNL     1     -36.610 -19.325  17.322  1.00  0.00     0.019 C 
BRANCH  22  23
ATOM     23  C   UNL     1     -35.629 -19.797  16.354  1.00  0.00     0.049 C 
BRANCH  23  24
ATOM     24  C   UNL     1     -35.849 -19.349  14.933  1.00  0.00    -0.040 A 
ATOM     25  C   UNL     1     -36.580 -18.195  14.756  1.00  0.00     0.007 A 
ATOM     26  C   UNL     1     -35.377 -20.050  13.856  1.00  0.00     0.007 A 
ATOM     27  C   UNL     1     -36.844 -17.734  13.491  1.00  0.00     0.039 A 
ATOM     28  C   UNL     1     -35.641 -19.586  12.596  1.00  0.00     0.039 A 
ATOM     29  C   UNL     1     -36.381 -18.416  12.389  1.00  0.00     0.123 A 
ATOM     30  F   UNL     1     -36.649 -17.950  11.142  1.00  0.00    -0.207 F 
ENDBRANCH  23  24
BRANCH  23  31
ATOM     31  C   UNL     1     -34.212 -19.808  16.675  1.00  0.00    -0.040 A 
ATOM     32  C   UNL     1     -33.271 -18.910  16.256  1.00  0.00     0.007 A 
ATOM     33  C   UNL     1     -33.789 -20.869  17.488  1.00  0.00     0.007 A 
ATOM     34  C   UNL     1     -31.940 -19.090  16.651  1.00  0.00     0.039 A 
ATOM     35  C   UNL     1     -32.502 -21.053  17.879  1.00  0.00     0.039 A 
ATOM     36  C   UNL     1     -31.565 -20.142  17.448  1.00  0.00     0.123 A 
ATOM     37  F   UNL     1     -30.280 -20.339  17.847  1.00  0.00    -0.207 F 
ENDBRANCH  23  31
ENDBRANCH  22  23
ENDBRANCH   1  22
TORSDOF 7
ENDMDL
MODEL 9
REMARK VINA RESULT:      -6.0      3.117      5.441
REMARK SMILES O=C1NCN(c2ccccc2)C12CC[NH+](CCCC(c1ccc(F)cc1)c1ccc(F)cc1)CC2
REMARK SMILES IDX 17 1 16 2 15 3 1 4 2 5 3 6 12 7 4 8 5 9 13 10 35 11 14 12
REMARK SMILES IDX 34 13 6 16 7 17 11 18 8 19 10 20 9 21 18 22 19 23 20 24
REMARK SMILES IDX 21 25 26 26 22 27 25 28 23 29 24 30 27 31 28 32 33 33 29 34
REMARK SMILES IDX 32 35 30 36 31 37
REMARK H PARENT 3 14 15 15
ROOT
ATOM      1  C   UNL     1     -36.604 -18.123  18.207  1.00  0.00     0.062 C 
ENDROOT
BRANCH   1   2
ATOM      2  C   UNL     1     -37.860 -17.437  18.659  1.00  0.00     0.262 C 
BRANCH   2   3
ATOM      3  N   UNL     1     -37.876 -16.057  18.188  1.00  0.00    -0.335 N 
ATOM      4  O   UNL     1     -38.845 -13.025  18.737  1.00  0.00    -0.272 OA
ATOM      5  C   UNL     1     -38.544 -12.765  17.553  1.00  0.00     0.247 C 
ATOM      6  N   UNL     1     -38.700 -11.502  16.955  1.00  0.00    -0.336 N 
ATOM      7  C   UNL     1     -37.964 -13.745  16.560  1.00  0.00     0.131 C 
ATOM      8  C   UNL     1     -37.843 -11.492  15.813  1.00  0.00     0.238 C 
ATOM      9  N   UNL     1     -37.811 -12.898  15.380  1.00  0.00    -0.339 N 
ATOM     10  C   UNL     1     -38.965 -14.861  16.339  1.00  0.00     0.100 C 
ATOM     11  C   UNL     1     -36.680 -14.247  17.117  1.00  0.00     0.100 C 
ATOM     12  C   UNL     1     -39.143 -15.696  17.586  1.00  0.00     0.265 C 
ATOM     13  C   UNL     1     -36.758 -15.721  17.346  1.00  0.00     0.265 C 
ATOM     14  H   UNL     1     -39.332 -10.731  17.304  1.00  0.00     0.165 HD
ATOM     15  H   UNL     1     -37.785 -15.491  19.060  1.00  0.00     0.348 HD
BRANCH   9  16
ATOM     16  C   UNL     1     -37.669 -13.240  14.011  1.00  0.00     0.039 A 
ATOM     17  C   UNL     1     -38.603 -12.850  13.081  1.00  0.00     0.026 A 
ATOM     18  C   UNL     1     -36.581 -13.949  13.602  1.00  0.00     0.026 A 
ATOM     19  C   UNL     1     -38.462 -13.165  11.726  1.00  0.00     0.002 A 
ATOM     20  C   UNL     1     -36.424 -14.267  12.281  1.00  0.00     0.002 A 
ATOM     21  C   UNL     1     -37.349 -13.883  11.346  1.00  0.00     0.000 A 
ENDBRANCH   9  16
ENDBRANCH   2   3
ENDBRANCH   1   2
BRANCH   1  22
ATOM     22  C   UNL     1     -36.759 -19.383  17.471  1.00  0.00     0.019 C 
BRANCH  22  23
ATOM     23  C   UNL     1     -35.826 -19.814  16.439  1.00  0.00     0.049 C 
BRANCH  23  24
ATOM     24  C   UNL     1     -36.149 -19.362  15.039  1.00  0.00    -0.040 A 
ATOM     25  C   UNL     1     -35.921 -20.270  14.029  1.00  0.00     0.007 A 
ATOM     26  C   UNL     1     -36.621 -18.107  14.759  1.00  0.00     0.007 A 
ATOM     27  C   UNL     1     -36.167 -19.925  12.724  1.00  0.00     0.039 A 
ATOM     28  C   UNL     1     -36.866 -17.768  13.456  1.00  0.00     0.039 A 
ATOM     29  C   UNL     1     -36.643 -18.673  12.411  1.00  0.00     0.123 A 
ATOM     30  F   UNL     1     -36.882 -18.343  11.117  1.00  0.00    -0.207 F 
ENDBRANCH  23  24
BRANCH  23  31
ATOM     31  C   UNL     1     -34.391 -19.780  16.672  1.00  0.00    -0.040 A 
ATOM     32  C   UNL     1     -33.514 -18.827  16.236  1.00  0.00     0.007 A 
ATOM     33  C   UNL     1     -33.877 -20.857  17.406  1.00  0.00     0.007 A 
ATOM     34  C   UNL     1     -32.155 -18.968  16.540  1.00  0.00     0.039 A 
ATOM     35  C   UNL     1     -32.562 -21.004  17.708  1.00  0.00     0.039 A 
ATOM     36  C   UNL     1     -31.690 -20.038  17.262  1.00  0.00     0.123 A 
ATOM     37  F   UNL     1     -30.375 -20.198  17.572  1.00  0.00    -0.207 F 
ENDBRANCH  23  31
ENDBRANCH  22  23
ENDBRANCH   1  22
TORSDOF 7
ENDMDL
