MODEL 1
REMARK VINA RESULT:      -6.8      0.000      0.000
REMARK SMILES O=c1cc(-c2ccccc2)oc2cc([O-])c(O)c([O-])c12
REMARK SMILES IDX 1 1 2 2 3 3 4 4 11 5 12 6 13 7 14 8 15 9 16 10 18 11 19 12
REMARK SMILES IDX 20 13 5 14 6 15 10 16 7 17 9 18 8 19 17 20
REMARK H PARENT 17 21
ROOT
ATOM      1  O   UNL     1      21.092  16.972  28.643  1.00  0.00    -0.289 OA
ATOM      2  C   UNL     1      22.203  16.457  28.915  1.00  0.00     0.192 A 
ATOM      3  C   UNL     1      23.320  16.614  28.089  1.00  0.00     0.100 A 
ATOM      4  C   UNL     1      24.540  16.061  28.369  1.00  0.00     0.138 A 
ATOM      5  O   UNL     1      24.613  15.355  29.482  1.00  0.00    -0.456 OA
ATOM      6  C   UNL     1      23.607  15.169  30.298  1.00  0.00     0.137 A 
ATOM      7  C   UNL     1      23.753  14.408  31.464  1.00  0.00     0.043 A 
ATOM      8  C   UNL     1      22.696  14.221  32.307  1.00  0.00    -0.063 A 
ATOM      9  O   UNL     1      22.901  13.454  33.451  1.00  0.00    -0.870 OA
ATOM     10  C   UNL     1      21.450  14.761  32.062  1.00  0.00     0.100 A 
ATOM     11  C   UNL     1      21.290  15.506  30.930  1.00  0.00    -0.051 A 
ATOM     12  O   UNL     1      20.050  16.052  30.672  1.00  0.00    -0.869 OA
ATOM     13  C   UNL     1      22.361  15.706  30.058  1.00  0.00     0.060 A 
ENDROOT
BRANCH   4  14
ATOM     14  C   UNL     1      25.685  16.239  27.496  1.00  0.00     0.017 A 
ATOM     15  C   UNL     1      25.895  15.549  26.334  1.00  0.00     0.012 A 
ATOM     16  C   UNL     1      26.655  17.181  27.850  1.00  0.00     0.012 A 
ATOM     17  C   UNL     1      27.028  15.777  25.541  1.00  0.00     0.001 A 
ATOM     18  C   UNL     1      27.771  17.410  27.074  1.00  0.00     0.001 A 
ATOM     19  C   UNL     1      27.973  16.709  25.907  1.00  0.00     0.000 A 
ENDBRANCH   4  14
BRANCH  10  20
ATOM     20  O   UNL     1      20.400  14.538  32.960  1.00  0.00    -0.509 OA
ATOM     21  H   UNL     1      20.552  13.892  33.737  1.00  0.00     0.293 HD
ENDBRANCH  10  20
TORSDOF 2
ENDMDL
MODEL 2
REMARK VINA RESULT:      -6.7      0.088      1.055
REMARK SMILES O=c1cc(-c2ccccc2)oc2cc([O-])c(O)c([O-])c12
REMARK SMILES IDX 1 1 2 2 3 3 4 4 11 5 12 6 13 7 14 8 15 9 16 10 18 11 19 12
REMARK SMILES IDX 20 13 5 14 6 15 10 16 7 17 9 18 8 19 17 20
REMARK H PARENT 17 21
ROOT
ATOM      1  O   UNL     1      21.115  16.969  28.648  1.00  0.00    -0.289 OA
ATOM      2  C   UNL     1      22.230  16.471  28.939  1.00  0.00     0.192 A 
ATOM      3  C   UNL     1      23.359  16.646  28.133  1.00  0.00     0.100 A 
ATOM      4  C   UNL     1      24.582  16.111  28.434  1.00  0.00     0.138 A 
ATOM      5  O   UNL     1      24.646  15.406  29.547  1.00  0.00    -0.456 OA
ATOM      6  C   UNL     1      23.629  15.203  30.345  1.00  0.00     0.137 A 
ATOM      7  C   UNL     1      23.766  14.444  31.513  1.00  0.00     0.043 A 
ATOM      8  C   UNL     1      22.697  14.240  32.338  1.00  0.00    -0.063 A 
ATOM      9  O   UNL     1      22.894  13.476  33.485  1.00  0.00    -0.870 OA
ATOM     10  C   UNL     1      21.448  14.761  32.072  1.00  0.00     0.100 A 
ATOM     11  C   UNL     1      21.296  15.504  30.937  1.00  0.00    -0.051 A 
ATOM     12  O   UNL     1      20.052  16.032  30.658  1.00  0.00    -0.869 OA
ATOM     13  C   UNL     1      22.379  15.722  30.084  1.00  0.00     0.060 A 
ENDROOT
BRANCH   4  14
ATOM     14  C   UNL     1      25.739  16.307  27.581  1.00  0.00     0.017 A 
ATOM     15  C   UNL     1      26.739  17.208  27.817  1.00  0.00     0.012 A 
ATOM     16  C   UNL     1      25.857  15.526  26.428  1.00  0.00     0.012 A 
ATOM     17  C   UNL     1      27.828  17.340  26.944  1.00  0.00     0.001 A 
ATOM     18  C   UNL     1      26.926  15.651  25.566  1.00  0.00     0.001 A 
ATOM     19  C   UNL     1      27.928  16.562  25.813  1.00  0.00     0.000 A 
ENDBRANCH   4  14
BRANCH  10  20
ATOM     20  O   UNL     1      20.385  14.522  32.951  1.00  0.00    -0.509 OA
ATOM     21  H   UNL     1      20.079  15.281  33.562  1.00  0.00     0.293 HD
ENDBRANCH  10  20
TORSDOF 2
ENDMDL
MODEL 3
REMARK VINA RESULT:      -6.5      0.915      1.408
REMARK SMILES O=c1cc(-c2ccccc2)oc2cc([O-])c(O)c([O-])c12
REMARK SMILES IDX 1 1 2 2 3 3 4 4 11 5 12 6 13 7 14 8 15 9 16 10 18 11 19 12
REMARK SMILES IDX 20 13 5 14 6 15 10 16 7 17 9 18 8 19 17 20
REMARK H PARENT 17 21
ROOT
ATOM      1  O   UNL     1      21.444  16.822  28.420  1.00  0.00    -0.289 OA
ATOM      2  C   UNL     1      22.448  16.098  28.628  1.00  0.00     0.192 A 
ATOM      3  C   UNL     1      23.494  15.992  27.707  1.00  0.00     0.100 A 
ATOM      4  C   UNL     1      24.596  15.208  27.915  1.00  0.00     0.138 A 
ATOM      5  O   UNL     1      24.624  14.541  29.053  1.00  0.00    -0.456 OA
ATOM      6  C   UNL     1      23.679  14.594  29.956  1.00  0.00     0.137 A 
ATOM      7  C   UNL     1      23.772  13.860  31.144  1.00  0.00     0.043 A 
ATOM      8  C   UNL     1      22.778  13.924  32.079  1.00  0.00    -0.063 A 
ATOM      9  O   UNL     1      22.926  13.171  33.241  1.00  0.00    -0.870 OA
ATOM     10  C   UNL     1      21.651  14.702  31.909  1.00  0.00     0.100 A 
ATOM     11  C   UNL     1      21.545  15.425  30.756  1.00  0.00    -0.051 A 
ATOM     12  O   UNL     1      20.423  16.207  30.572  1.00  0.00    -0.869 OA
ATOM     13  C   UNL     1      22.551  15.370  29.791  1.00  0.00     0.060 A 
ENDROOT
BRANCH   4  14
ATOM     14  C   UNL     1      25.670  15.115  26.944  1.00  0.00     0.017 A 
ATOM     15  C   UNL     1      26.185  16.172  26.247  1.00  0.00     0.012 A 
ATOM     16  C   UNL     1      26.232  13.861  26.688  1.00  0.00     0.012 A 
ATOM     17  C   UNL     1      27.225  16.004  25.322  1.00  0.00     0.001 A 
ATOM     18  C   UNL     1      27.256  13.689  25.780  1.00  0.00     0.001 A 
ATOM     19  C   UNL     1      27.766  14.761  25.084  1.00  0.00     0.000 A 
ENDBRANCH   4  14
BRANCH  10  20
ATOM     20  O   UNL     1      20.663  14.732  32.899  1.00  0.00    -0.509 OA
ATOM     21  H   UNL     1      20.419  15.632  33.316  1.00  0.00     0.293 HD
ENDBRANCH  10  20
TORSDOF 2
ENDMDL
MODEL 4
REMARK VINA RESULT:      -6.5      0.918      1.136
REMARK SMILES O=c1cc(-c2ccccc2)oc2cc([O-])c(O)c([O-])c12
REMARK SMILES IDX 1 1 2 2 3 3 4 4 11 5 12 6 13 7 14 8 15 9 16 10 18 11 19 12
REMARK SMILES IDX 20 13 5 14 6 15 10 16 7 17 9 18 8 19 17 20
REMARK H PARENT 17 21
ROOT
ATOM      1  O   UNL     1      21.472  16.790  28.422  1.00  0.00    -0.289 OA
ATOM      2  C   UNL     1      22.468  16.058  28.636  1.00  0.00     0.192 A 
ATOM      3  C   UNL     1      23.515  15.936  27.717  1.00  0.00     0.100 A 
ATOM      4  C   UNL     1      24.609  15.143  27.933  1.00  0.00     0.138 A 
ATOM      5  O   UNL     1      24.629  14.483  29.075  1.00  0.00    -0.456 OA
ATOM      6  C   UNL     1      23.684  14.552  29.977  1.00  0.00     0.137 A 
ATOM      7  C   UNL     1      23.768  13.825  31.170  1.00  0.00     0.043 A 
ATOM      8  C   UNL     1      22.774  13.906  32.103  1.00  0.00    -0.063 A 
ATOM      9  O   UNL     1      22.913  13.160  33.270  1.00  0.00    -0.870 OA
ATOM     10  C   UNL     1      21.655  14.693  31.926  1.00  0.00     0.100 A 
ATOM     11  C   UNL     1      21.557  15.409  30.768  1.00  0.00    -0.051 A 
ATOM     12  O   UNL     1      20.443  16.201  30.577  1.00  0.00    -0.869 OA
ATOM     13  C   UNL     1      22.564  15.337  29.805  1.00  0.00     0.060 A 
ENDROOT
BRANCH   4  14
ATOM     14  C   UNL     1      25.683  15.033  26.963  1.00  0.00     0.017 A 
ATOM     15  C   UNL     1      26.308  13.867  26.620  1.00  0.00     0.012 A 
ATOM     16  C   UNL     1      26.123  16.194  26.321  1.00  0.00     0.012 A 
ATOM     17  C   UNL     1      27.341  13.841  25.672  1.00  0.00     0.001 A 
ATOM     18  C   UNL     1      27.137  16.174  25.387  1.00  0.00     0.001 A 
ATOM     19  C   UNL     1      27.761  14.994  25.050  1.00  0.00     0.000 A 
ENDBRANCH   4  14
BRANCH  10  20
ATOM     20  O   UNL     1      20.666  14.740  32.915  1.00  0.00    -0.509 OA
ATOM     21  H   UNL     1      20.242  15.643  33.137  1.00  0.00     0.293 HD
ENDBRANCH  10  20
TORSDOF 2
ENDMDL
MODEL 5
REMARK VINA RESULT:      -6.3      2.012      3.748
REMARK SMILES O=c1cc(-c2ccccc2)oc2cc([O-])c(O)c([O-])c12
REMARK SMILES IDX 1 1 2 2 3 3 4 4 11 5 12 6 13 7 14 8 15 9 16 10 18 11 19 12
REMARK SMILES IDX 20 13 5 14 6 15 10 16 7 17 9 18 8 19 17 20
REMARK H PARENT 17 21
ROOT
ATOM      1  O   UNL     1      26.771  14.581  30.227  1.00  0.00    -0.289 OA
ATOM      2  C   UNL     1      26.249  15.610  29.732  1.00  0.00     0.192 A 
ATOM      3  C   UNL     1      27.006  16.591  29.084  1.00  0.00     0.100 A 
ATOM      4  C   UNL     1      26.455  17.719  28.540  1.00  0.00     0.138 A 
ATOM      5  O   UNL     1      25.147  17.840  28.658  1.00  0.00    -0.456 OA
ATOM      6  C   UNL     1      24.382  16.960  29.251  1.00  0.00     0.137 A 
ATOM      7  C   UNL     1      22.998  17.149  29.341  1.00  0.00     0.043 A 
ATOM      8  C   UNL     1      22.210  16.223  29.964  1.00  0.00    -0.063 A 
ATOM      9  O   UNL     1      20.841  16.466  30.022  1.00  0.00    -0.870 OA
ATOM     10  C   UNL     1      22.724  15.073  30.526  1.00  0.00     0.100 A 
ATOM     11  C   UNL     1      24.071  14.872  30.446  1.00  0.00    -0.051 A 
ATOM     12  O   UNL     1      24.600  13.726  31.004  1.00  0.00    -0.869 OA
ATOM     13  C   UNL     1      24.890  15.809  29.814  1.00  0.00     0.060 A 
ENDROOT
BRANCH   4  14
ATOM     14  C   UNL     1      27.262  18.724  27.872  1.00  0.00     0.017 A 
ATOM     15  C   UNL     1      27.200  20.066  28.121  1.00  0.00     0.012 A 
ATOM     16  C   UNL     1      28.177  18.307  26.900  1.00  0.00     0.012 A 
ATOM     17  C   UNL     1      28.014  20.978  27.433  1.00  0.00     0.001 A 
ATOM     18  C   UNL     1      28.980  19.198  26.221  1.00  0.00     0.001 A 
ATOM     19  C   UNL     1      28.909  20.549  26.479  1.00  0.00     0.000 A 
ENDBRANCH   4  14
BRANCH  10  20
ATOM     20  O   UNL     1      21.871  14.156  31.152  1.00  0.00    -0.509 OA
ATOM     21  H   UNL     1      21.210  14.503  31.848  1.00  0.00     0.293 HD
ENDBRANCH  10  20
TORSDOF 2
ENDMDL
MODEL 6
REMARK VINA RESULT:      -6.3      1.999      3.655
REMARK SMILES O=c1cc(-c2ccccc2)oc2cc([O-])c(O)c([O-])c12
REMARK SMILES IDX 1 1 2 2 3 3 4 4 11 5 12 6 13 7 14 8 15 9 16 10 18 11 19 12
REMARK SMILES IDX 20 13 5 14 6 15 10 16 7 17 9 18 8 19 17 20
REMARK H PARENT 17 21
ROOT
ATOM      1  O   UNL     1      26.757  14.372  29.953  1.00  0.00    -0.289 OA
ATOM      2  C   UNL     1      26.260  15.442  29.524  1.00  0.00     0.192 A 
ATOM      3  C   UNL     1      27.032  16.422  28.891  1.00  0.00     0.100 A 
ATOM      4  C   UNL     1      26.508  17.594  28.417  1.00  0.00     0.138 A 
ATOM      5  O   UNL     1      25.211  17.759  28.591  1.00  0.00    -0.456 OA
ATOM      6  C   UNL     1      24.433  16.884  29.174  1.00  0.00     0.137 A 
ATOM      7  C   UNL     1      23.062  17.122  29.325  1.00  0.00     0.043 A 
ATOM      8  C   UNL     1      22.261  16.201  29.936  1.00  0.00    -0.063 A 
ATOM      9  O   UNL     1      20.905  16.494  30.058  1.00  0.00    -0.870 OA
ATOM     10  C   UNL     1      22.747  15.007  30.428  1.00  0.00     0.100 A 
ATOM     11  C   UNL     1      24.082  14.758  30.288  1.00  0.00    -0.051 A 
ATOM     12  O   UNL     1      24.584  13.568  30.775  1.00  0.00    -0.869 OA
ATOM     13  C   UNL     1      24.914  15.690  29.666  1.00  0.00     0.060 A 
ENDROOT
BRANCH   4  14
ATOM     14  C   UNL     1      27.330  18.595  27.764  1.00  0.00     0.017 A 
ATOM     15  C   UNL     1      28.259  18.332  26.797  1.00  0.00     0.012 A 
ATOM     16  C   UNL     1      27.174  19.933  28.136  1.00  0.00     0.012 A 
ATOM     17  C   UNL     1      29.017  19.355  26.210  1.00  0.00     0.001 A 
ATOM     18  C   UNL     1      27.916  20.944  27.563  1.00  0.00     0.001 A 
ATOM     19  C   UNL     1      28.850  20.667  26.590  1.00  0.00     0.000 A 
ENDBRANCH   4  14
BRANCH  10  20
ATOM     20  O   UNL     1      21.882  14.097  31.045  1.00  0.00    -0.509 OA
ATOM     21  H   UNL     1      22.173  13.669  31.926  1.00  0.00     0.293 HD
ENDBRANCH  10  20
TORSDOF 2
ENDMDL
MODEL 7
REMARK VINA RESULT:      -6.2      3.046      7.290
REMARK SMILES O=c1cc(-c2ccccc2)oc2cc([O-])c(O)c([O-])c12
REMARK SMILES IDX 1 1 2 2 3 3 4 4 11 5 12 6 13 7 14 8 15 9 16 10 18 11 19 12
REMARK SMILES IDX 20 13 5 14 6 15 10 16 7 17 9 18 8 19 17 20
REMARK H PARENT 17 21
ROOT
ATOM      1  O   UNL     1      24.021  10.872  31.356  1.00  0.00    -0.289 OA
ATOM      2  C   UNL     1      23.814  12.036  31.778  1.00  0.00     0.192 A 
ATOM      3  C   UNL     1      23.709  12.326  33.142  1.00  0.00     0.100 A 
ATOM      4  C   UNL     1      23.483  13.588  33.621  1.00  0.00     0.138 A 
ATOM      5  O   UNL     1      23.367  14.539  32.714  1.00  0.00    -0.456 OA
ATOM      6  C   UNL     1      23.455  14.335  31.424  1.00  0.00     0.137 A 
ATOM      7  C   UNL     1      23.322  15.391  30.514  1.00  0.00     0.043 A 
ATOM      8  C   UNL     1      23.416  15.165  29.171  1.00  0.00    -0.063 A 
ATOM      9  O   UNL     1      23.275  16.254  28.315  1.00  0.00    -0.870 OA
ATOM     10  C   UNL     1      23.642  13.909  28.646  1.00  0.00     0.100 A 
ATOM     11  C   UNL     1      23.774  12.868  29.519  1.00  0.00    -0.051 A 
ATOM     12  O   UNL     1      24.001  11.606  29.009  1.00  0.00    -0.869 OA
ATOM     13  C   UNL     1      23.681  13.083  30.895  1.00  0.00     0.060 A 
ENDROOT
BRANCH   4  14
ATOM     14  C   UNL     1      23.378  13.864  35.041  1.00  0.00     0.017 A 
ATOM     15  C   UNL     1      22.925  15.037  35.577  1.00  0.00     0.012 A 
ATOM     16  C   UNL     1      23.764  12.870  35.945  1.00  0.00     0.012 A 
ATOM     17  C   UNL     1      22.852  15.230  36.964  1.00  0.00     0.001 A 
ATOM     18  C   UNL     1      23.694  13.053  37.309  1.00  0.00     0.001 A 
ATOM     19  C   UNL     1      23.236  14.239  37.838  1.00  0.00     0.000 A 
ENDBRANCH   4  14
BRANCH  10  20
ATOM     20  O   UNL     1      23.729  13.733  27.260  1.00  0.00    -0.509 OA
ATOM     21  H   UNL     1      24.376  13.029  26.899  1.00  0.00     0.293 HD
ENDBRANCH  10  20
TORSDOF 2
ENDMDL
MODEL 8
REMARK VINA RESULT:      -6.1      2.915      5.069
REMARK SMILES O=c1cc(-c2ccccc2)oc2cc([O-])c(O)c([O-])c12
REMARK SMILES IDX 1 1 2 2 3 3 4 4 11 5 12 6 13 7 14 8 15 9 16 10 18 11 19 12
REMARK SMILES IDX 20 13 5 14 6 15 10 16 7 17 9 18 8 19 17 20
REMARK H PARENT 17 21
ROOT
ATOM      1  O   UNL     1      23.579  10.385  32.163  1.00  0.00    -0.289 OA
ATOM      2  C   UNL     1      23.513  11.638  32.185  1.00  0.00     0.192 A 
ATOM      3  C   UNL     1      23.391  12.398  31.017  1.00  0.00     0.100 A 
ATOM      4  C   UNL     1      23.319  13.765  31.021  1.00  0.00     0.138 A 
ATOM      5  O   UNL     1      23.370  14.343  32.205  1.00  0.00    -0.456 OA
ATOM      6  C   UNL     1      23.484  13.692  33.334  1.00  0.00     0.137 A 
ATOM      7  C   UNL     1      23.532  14.369  34.558  1.00  0.00     0.043 A 
ATOM      8  C   UNL     1      23.651  13.677  35.730  1.00  0.00    -0.063 A 
ATOM      9  O   UNL     1      23.694  14.405  36.916  1.00  0.00    -0.870 OA
ATOM     10  C   UNL     1      23.727  12.300  35.771  1.00  0.00     0.100 A 
ATOM     11  C   UNL     1      23.681  11.624  34.586  1.00  0.00    -0.051 A 
ATOM     12  O   UNL     1      23.757  10.246  34.612  1.00  0.00    -0.869 OA
ATOM     13  C   UNL     1      23.560  12.316  33.381  1.00  0.00     0.060 A 
ENDROOT
BRANCH   4  14
ATOM     14  C   UNL     1      23.193  14.532  29.796  1.00  0.00     0.017 A 
ATOM     15  C   UNL     1      22.494  15.700  29.675  1.00  0.00     0.012 A 
ATOM     16  C   UNL     1      23.826  14.057  28.644  1.00  0.00     0.012 A 
ATOM     17  C   UNL     1      22.418  16.386  28.454  1.00  0.00     0.001 A 
ATOM     18  C   UNL     1      23.755  14.727  27.441  1.00  0.00     0.001 A 
ATOM     19  C   UNL     1      23.048  15.903  27.330  1.00  0.00     0.000 A 
ENDBRANCH   4  14
BRANCH  10  20
ATOM     20  O   UNL     1      23.848  11.640  36.999  1.00  0.00    -0.509 OA
ATOM     21  H   UNL     1      24.040  10.636  36.996  1.00  0.00     0.293 HD
ENDBRANCH  10  20
TORSDOF 2
ENDMDL
MODEL 9
REMARK VINA RESULT:      -6.1      3.044      7.255
REMARK SMILES O=c1cc(-c2ccccc2)oc2cc([O-])c(O)c([O-])c12
REMARK SMILES IDX 1 1 2 2 3 3 4 4 11 5 12 6 13 7 14 8 15 9 16 10 18 11 19 12
REMARK SMILES IDX 20 13 5 14 6 15 10 16 7 17 9 18 8 19 17 20
REMARK H PARENT 17 21
ROOT
ATOM      1  O   UNL     1      24.085  10.847  31.298  1.00  0.00    -0.289 OA
ATOM      2  C   UNL     1      23.873  11.999  31.749  1.00  0.00     0.192 A 
ATOM      3  C   UNL     1      23.777  12.257  33.120  1.00  0.00     0.100 A 
ATOM      4  C   UNL     1      23.546  13.505  33.630  1.00  0.00     0.138 A 
ATOM      5  O   UNL     1      23.414  14.476  32.746  1.00  0.00    -0.456 OA
ATOM      6  C   UNL     1      23.492  14.303  31.452  1.00  0.00     0.137 A 
ATOM      7  C   UNL     1      23.343  15.378  30.568  1.00  0.00     0.043 A 
ATOM      8  C   UNL     1      23.426  15.183  29.219  1.00  0.00    -0.063 A 
ATOM      9  O   UNL     1      23.269  16.291  28.389  1.00  0.00    -0.870 OA
ATOM     10  C   UNL     1      23.658  13.943  28.663  1.00  0.00     0.100 A 
ATOM     11  C   UNL     1      23.807  12.883  29.510  1.00  0.00    -0.051 A 
ATOM     12  O   UNL     1      24.039  11.635  28.969  1.00  0.00    -0.869 OA
ATOM     13  C   UNL     1      23.724  13.065  30.891  1.00  0.00     0.060 A 
ENDROOT
BRANCH   4  14
ATOM     14  C   UNL     1      23.450  13.748  35.057  1.00  0.00     0.017 A 
ATOM     15  C   UNL     1      23.816  12.856  36.026  1.00  0.00     0.012 A 
ATOM     16  C   UNL     1      22.952  14.978  35.493  1.00  0.00     0.012 A 
ATOM     17  C   UNL     1      23.695  13.163  37.389  1.00  0.00     0.001 A 
ATOM     18  C   UNL     1      22.830  15.287  36.832  1.00  0.00     0.001 A 
ATOM     19  C   UNL     1      23.201  14.380  37.799  1.00  0.00     0.000 A 
ENDBRANCH   4  14
BRANCH  10  20
ATOM     20  O   UNL     1      23.735  13.799  27.273  1.00  0.00    -0.509 OA
ATOM     21  H   UNL     1      23.722  12.856  26.879  1.00  0.00     0.293 HD
ENDBRANCH  10  20
TORSDOF 2
ENDMDL
