MODEL 1
REMARK VINA RESULT:      -6.7      0.000      0.000
REMARK SMILES O=c1c([O-])c(-c2ccccc2)oc2cc([O-])cc([O-])c12
REMARK SMILES IDX 1 1 2 2 3 3 4 4 5 5 12 6 13 7 14 8 15 9 16 10 17 11 18 12
REMARK SMILES IDX 19 13 20 14 6 15 7 16 11 17 8 18 10 19 9 20
REMARK H PARENT
ROOT
ATOM      1  O   UNL     1      20.448  16.122  30.705  1.00  0.00    -0.290 OA
ATOM      2  C   UNL     1      21.515  15.476  30.773  1.00  0.00     0.184 A 
ATOM      3  C   UNL     1      21.733  14.743  31.958  1.00  0.00    -0.014 A 
ATOM      4  O   UNL     1      20.794  14.770  32.952  1.00  0.00    -0.867 OA
ATOM      5  C   UNL     1      22.889  14.027  32.062  1.00  0.00     0.130 A 
ATOM      6  O   UNL     1      23.765  14.054  31.037  1.00  0.00    -0.457 OA
ATOM      7  C   UNL     1      23.575  14.717  29.958  1.00  0.00     0.137 A 
ATOM      8  C   UNL     1      24.503  14.702  28.952  1.00  0.00     0.039 A 
ATOM      9  C   UNL     1      24.331  15.404  27.779  1.00  0.00    -0.106 A 
ATOM     10  O   UNL     1      25.296  15.369  26.772  1.00  0.00    -0.872 OA
ATOM     11  C   UNL     1      23.166  16.156  27.612  1.00  0.00    -0.016 A 
ATOM     12  C   UNL     1      22.216  16.193  28.600  1.00  0.00    -0.094 A 
ATOM     13  O   UNL     1      21.070  16.939  28.426  1.00  0.00    -0.872 OA
ATOM     14  C   UNL     1      22.435  15.476  29.749  1.00  0.00     0.056 A 
ENDROOT
BRANCH   5  15
ATOM     15  C   UNL     1      23.226  13.234  33.231  1.00  0.00     0.017 A 
ATOM     16  C   UNL     1      23.360  13.658  34.514  1.00  0.00     0.012 A 
ATOM     17  C   UNL     1      23.445  11.859  33.043  1.00  0.00     0.012 A 
ATOM     18  C   UNL     1      23.685  12.816  35.567  1.00  0.00     0.001 A 
ATOM     19  C   UNL     1      23.768  11.009  34.076  1.00  0.00     0.001 A 
ATOM     20  C   UNL     1      23.894  11.480  35.362  1.00  0.00     0.000 A 
ENDBRANCH   5  15
TORSDOF 1
ENDMDL
MODEL 2
REMARK VINA RESULT:      -6.6      0.220      1.059
REMARK SMILES O=c1c([O-])c(-c2ccccc2)oc2cc([O-])cc([O-])c12
REMARK SMILES IDX 1 1 2 2 3 3 4 4 5 5 12 6 13 7 14 8 15 9 16 10 17 11 18 12
REMARK SMILES IDX 19 13 20 14 6 15 7 16 11 17 8 18 10 19 9 20
REMARK H PARENT
ROOT
ATOM      1  O   UNL     1      20.433  16.103  30.718  1.00  0.00    -0.290 OA
ATOM      2  C   UNL     1      21.505  15.467  30.792  1.00  0.00     0.184 A 
ATOM      3  C   UNL     1      21.724  14.739  31.981  1.00  0.00    -0.014 A 
ATOM      4  O   UNL     1      20.780  14.761  32.971  1.00  0.00    -0.867 OA
ATOM      5  C   UNL     1      22.886  14.034  32.092  1.00  0.00     0.130 A 
ATOM      6  O   UNL     1      23.766  14.065  31.070  1.00  0.00    -0.457 OA
ATOM      7  C   UNL     1      23.575  14.723  29.989  1.00  0.00     0.137 A 
ATOM      8  C   UNL     1      24.507  14.714  28.987  1.00  0.00     0.039 A 
ATOM      9  C   UNL     1      24.334  15.411  27.810  1.00  0.00    -0.106 A 
ATOM     10  O   UNL     1      25.304  15.381  26.808  1.00  0.00    -0.872 OA
ATOM     11  C   UNL     1      23.163  16.152  27.636  1.00  0.00    -0.016 A 
ATOM     12  C   UNL     1      22.209  16.183  28.620  1.00  0.00    -0.094 A 
ATOM     13  O   UNL     1      21.057  16.918  28.439  1.00  0.00    -0.872 OA
ATOM     14  C   UNL     1      22.429  15.472  29.773  1.00  0.00     0.056 A 
ENDROOT
BRANCH   5  15
ATOM     15  C   UNL     1      23.225  13.248  33.265  1.00  0.00     0.017 A 
ATOM     16  C   UNL     1      23.431  11.907  33.337  1.00  0.00     0.012 A 
ATOM     17  C   UNL     1      23.365  13.929  34.486  1.00  0.00     0.012 A 
ATOM     18  C   UNL     1      23.754  11.247  34.513  1.00  0.00     0.001 A 
ATOM     19  C   UNL     1      23.685  13.289  35.662  1.00  0.00     0.001 A 
ATOM     20  C   UNL     1      23.885  11.929  35.692  1.00  0.00     0.000 A 
ENDBRANCH   5  15
TORSDOF 1
ENDMDL
MODEL 3
REMARK VINA RESULT:      -6.4      2.265      6.638
REMARK SMILES O=c1c([O-])c(-c2ccccc2)oc2cc([O-])cc([O-])c12
REMARK SMILES IDX 1 1 2 2 3 3 4 4 5 5 12 6 13 7 14 8 15 9 16 10 17 11 18 12
REMARK SMILES IDX 19 13 20 14 6 15 7 16 11 17 8 18 10 19 9 20
REMARK H PARENT
ROOT
ATOM      1  O   UNL     1      23.457  10.413  32.117  1.00  0.00    -0.290 OA
ATOM      2  C   UNL     1      23.512  11.628  32.399  1.00  0.00     0.184 A 
ATOM      3  C   UNL     1      23.514  12.528  31.312  1.00  0.00    -0.014 A 
ATOM      4  O   UNL     1      23.459  12.044  30.034  1.00  0.00    -0.867 OA
ATOM      5  C   UNL     1      23.573  13.862  31.588  1.00  0.00     0.130 A 
ATOM      6  O   UNL     1      23.626  14.258  32.876  1.00  0.00    -0.457 OA
ATOM      7  C   UNL     1      23.625  13.449  33.869  1.00  0.00     0.137 A 
ATOM      8  C   UNL     1      23.679  13.914  35.154  1.00  0.00     0.039 A 
ATOM      9  C   UNL     1      23.679  13.071  36.245  1.00  0.00    -0.106 A 
ATOM     10  O   UNL     1      23.737  13.576  37.544  1.00  0.00    -0.872 OA
ATOM     11  C   UNL     1      23.620  11.693  36.027  1.00  0.00    -0.016 A 
ATOM     12  C   UNL     1      23.564  11.193  34.752  1.00  0.00    -0.094 A 
ATOM     13  O   UNL     1      23.507   9.832  34.547  1.00  0.00    -0.872 OA
ATOM     14  C   UNL     1      23.567  12.075  33.700  1.00  0.00     0.056 A 
ENDROOT
BRANCH   5  15
ATOM     15  C   UNL     1      23.582  14.884  30.556  1.00  0.00     0.017 A 
ATOM     16  C   UNL     1      24.658  15.402  29.908  1.00  0.00     0.012 A 
ATOM     17  C   UNL     1      22.345  15.419  30.159  1.00  0.00     0.012 A 
ATOM     18  C   UNL     1      24.560  16.380  28.930  1.00  0.00     0.001 A 
ATOM     19  C   UNL     1      22.231  16.390  29.191  1.00  0.00     0.001 A 
ATOM     20  C   UNL     1      23.346  16.888  28.558  1.00  0.00     0.000 A 
ENDBRANCH   5  15
TORSDOF 1
ENDMDL
MODEL 4
REMARK VINA RESULT:      -6.3      2.248      6.640
REMARK SMILES O=c1c([O-])c(-c2ccccc2)oc2cc([O-])cc([O-])c12
REMARK SMILES IDX 1 1 2 2 3 3 4 4 5 5 12 6 13 7 14 8 15 9 16 10 17 11 18 12
REMARK SMILES IDX 19 13 20 14 6 15 7 16 11 17 8 18 10 19 9 20
REMARK H PARENT
ROOT
ATOM      1  O   UNL     1      23.567  10.427  32.094  1.00  0.00    -0.290 OA
ATOM      2  C   UNL     1      23.539  11.637  32.399  1.00  0.00     0.184 A 
ATOM      3  C   UNL     1      23.440  12.553  31.332  1.00  0.00    -0.014 A 
ATOM      4  O   UNL     1      23.380  12.090  30.046  1.00  0.00    -0.867 OA
ATOM      5  C   UNL     1      23.407  13.883  31.633  1.00  0.00     0.130 A 
ATOM      6  O   UNL     1      23.472  14.259  32.927  1.00  0.00    -0.457 OA
ATOM      7  C   UNL     1      23.562  13.434  33.902  1.00  0.00     0.137 A 
ATOM      8  C   UNL     1      23.623  13.878  35.194  1.00  0.00     0.039 A 
ATOM      9  C   UNL     1      23.721  13.018  36.267  1.00  0.00    -0.106 A 
ATOM     10  O   UNL     1      23.782  13.503  37.574  1.00  0.00    -0.872 OA
ATOM     11  C   UNL     1      23.759  11.644  36.023  1.00  0.00    -0.016 A 
ATOM     12  C   UNL     1      23.700  11.165  34.740  1.00  0.00    -0.094 A 
ATOM     13  O   UNL     1      23.738   9.806  34.510  1.00  0.00    -0.872 OA
ATOM     14  C   UNL     1      23.602  12.063  33.707  1.00  0.00     0.056 A 
ENDROOT
BRANCH   5  15
ATOM     15  C   UNL     1      23.306  14.921  30.622  1.00  0.00     0.017 A 
ATOM     16  C   UNL     1      22.178  15.462  30.093  1.00  0.00     0.012 A 
ATOM     17  C   UNL     1      24.504  15.450  30.112  1.00  0.00     0.012 A 
ATOM     18  C   UNL     1      22.189  16.456  29.127  1.00  0.00     0.001 A 
ATOM     19  C   UNL     1      24.533  16.436  29.153  1.00  0.00     0.001 A 
ATOM     20  C   UNL     1      23.366  16.957  28.643  1.00  0.00     0.000 A 
ENDBRANCH   5  15
TORSDOF 1
ENDMDL
MODEL 5
REMARK VINA RESULT:      -6.3      3.721      7.470
REMARK SMILES O=c1c([O-])c(-c2ccccc2)oc2cc([O-])cc([O-])c12
REMARK SMILES IDX 1 1 2 2 3 3 4 4 5 5 12 6 13 7 14 8 15 9 16 10 17 11 18 12
REMARK SMILES IDX 19 13 20 14 6 15 7 16 11 17 8 18 10 19 9 20
REMARK H PARENT
ROOT
ATOM      1  O   UNL     1      26.546  15.096  30.946  1.00  0.00    -0.290 OA
ATOM      2  C   UNL     1      26.054  15.935  30.164  1.00  0.00     0.184 A 
ATOM      3  C   UNL     1      26.966  16.750  29.460  1.00  0.00    -0.014 A 
ATOM      4  O   UNL     1      28.309  16.589  29.658  1.00  0.00    -0.867 OA
ATOM      5  C   UNL     1      26.459  17.677  28.597  1.00  0.00     0.130 A 
ATOM      6  O   UNL     1      25.120  17.773  28.458  1.00  0.00    -0.457 OA
ATOM      7  C   UNL     1      24.286  17.038  29.094  1.00  0.00     0.137 A 
ATOM      8  C   UNL     1      22.939  17.183  28.908  1.00  0.00     0.039 A 
ATOM      9  C   UNL     1      22.014  16.410  29.575  1.00  0.00    -0.106 A 
ATOM     10  O   UNL     1      20.645  16.583  29.364  1.00  0.00    -0.872 OA
ATOM     11  C   UNL     1      22.471  15.442  30.472  1.00  0.00    -0.016 A 
ATOM     12  C   UNL     1      23.814  15.270  30.682  1.00  0.00    -0.094 A 
ATOM     13  O   UNL     1      24.256  14.313  31.570  1.00  0.00    -0.872 OA
ATOM     14  C   UNL     1      24.695  16.065  29.992  1.00  0.00     0.056 A 
ENDROOT
BRANCH   5  15
ATOM     15  C   UNL     1      27.294  18.572  27.817  1.00  0.00     0.017 A 
ATOM     16  C   UNL     1      28.120  18.253  26.786  1.00  0.00     0.012 A 
ATOM     17  C   UNL     1      27.266  19.938  28.144  1.00  0.00     0.012 A 
ATOM     18  C   UNL     1      28.880  19.189  26.100  1.00  0.00     0.001 A 
ATOM     19  C   UNL     1      28.015  20.879  27.474  1.00  0.00     0.001 A 
ATOM     20  C   UNL     1      28.838  20.514  26.435  1.00  0.00     0.000 A 
ENDBRANCH   5  15
TORSDOF 1
ENDMDL
MODEL 6
REMARK VINA RESULT:      -6.1      4.117      7.889
REMARK SMILES O=c1c([O-])c(-c2ccccc2)oc2cc([O-])cc([O-])c12
REMARK SMILES IDX 1 1 2 2 3 3 4 4 5 5 12 6 13 7 14 8 15 9 16 10 17 11 18 12
REMARK SMILES IDX 19 13 20 14 6 15 7 16 11 17 8 18 10 19 9 20
REMARK H PARENT
ROOT
ATOM      1  O   UNL     1      27.439  15.125  30.223  1.00  0.00    -0.290 OA
ATOM      2  C   UNL     1      26.809  16.042  29.656  1.00  0.00     0.184 A 
ATOM      3  C   UNL     1      27.578  16.999  28.962  1.00  0.00    -0.014 A 
ATOM      4  O   UNL     1      28.941  16.885  28.941  1.00  0.00    -0.867 OA
ATOM      5  C   UNL     1      26.918  18.013  28.331  1.00  0.00     0.130 A 
ATOM      6  O   UNL     1      25.572  18.055  28.401  1.00  0.00    -0.457 OA
ATOM      7  C   UNL     1      24.866  17.190  29.029  1.00  0.00     0.137 A 
ATOM      8  C   UNL     1      23.502  17.288  29.062  1.00  0.00     0.039 A 
ATOM      9  C   UNL     1      22.712  16.375  29.728  1.00  0.00    -0.106 A 
ATOM     10  O   UNL     1      21.323  16.503  29.742  1.00  0.00    -0.872 OA
ATOM     11  C   UNL     1      23.329  15.313  30.392  1.00  0.00    -0.016 A 
ATOM     12  C   UNL     1      24.694  15.186  30.380  1.00  0.00    -0.094 A 
ATOM     13  O   UNL     1      25.294  14.135  31.039  1.00  0.00    -0.872 OA
ATOM     14  C   UNL     1      25.435  16.121  29.702  1.00  0.00     0.056 A 
ENDROOT
BRANCH   5  15
ATOM     15  C   UNL     1      27.599  19.057  27.587  1.00  0.00     0.017 A 
ATOM     16  C   UNL     1      27.622  20.389  27.852  1.00  0.00     0.012 A 
ATOM     17  C   UNL     1      28.331  18.673  26.451  1.00  0.00     0.012 A 
ATOM     18  C   UNL     1      28.307  21.310  27.074  1.00  0.00     0.001 A 
ATOM     19  C   UNL     1      29.017  19.574  25.668  1.00  0.00     0.001 A 
ATOM     20  C   UNL     1      29.014  20.916  25.972  1.00  0.00     0.000 A 
ENDBRANCH   5  15
TORSDOF 1
ENDMDL
MODEL 7
REMARK VINA RESULT:      -6.0      2.605      6.920
REMARK SMILES O=c1c([O-])c(-c2ccccc2)oc2cc([O-])cc([O-])c12
REMARK SMILES IDX 1 1 2 2 3 3 4 4 5 5 12 6 13 7 14 8 15 9 16 10 17 11 18 12
REMARK SMILES IDX 19 13 20 14 6 15 7 16 11 17 8 18 10 19 9 20
REMARK H PARENT
ROOT
ATOM      1  O   UNL     1      23.449  10.158  33.354  1.00  0.00    -0.290 OA
ATOM      2  C   UNL     1      23.491  11.394  33.522  1.00  0.00     0.184 A 
ATOM      3  C   UNL     1      23.435  12.190  32.359  1.00  0.00    -0.014 A 
ATOM      4  O   UNL     1      23.339  11.591  31.134  1.00  0.00    -0.867 OA
ATOM      5  C   UNL     1      23.479  13.545  32.510  1.00  0.00     0.130 A 
ATOM      6  O   UNL     1      23.575  14.058  33.754  1.00  0.00    -0.457 OA
ATOM      7  C   UNL     1      23.627  13.343  34.815  1.00  0.00     0.137 A 
ATOM      8  C   UNL     1      23.723  13.924  36.050  1.00  0.00     0.039 A 
ATOM      9  C   UNL     1      23.781  13.185  37.212  1.00  0.00    -0.106 A 
ATOM     10  O   UNL     1      23.879  13.808  38.456  1.00  0.00    -0.872 OA
ATOM     11  C   UNL     1      23.739  11.792  37.123  1.00  0.00    -0.016 A 
ATOM     12  C   UNL     1      23.643  11.177  35.901  1.00  0.00    -0.094 A 
ATOM     13  O   UNL     1      23.604   9.802  35.823  1.00  0.00    -0.872 OA
ATOM     14  C   UNL     1      23.588  11.958  34.774  1.00  0.00     0.056 A 
ENDROOT
BRANCH   5  15
ATOM     15  C   UNL     1      23.429  14.468  31.391  1.00  0.00     0.017 A 
ATOM     16  C   UNL     1      22.333  14.890  30.708  1.00  0.00     0.012 A 
ATOM     17  C   UNL     1      24.645  15.007  30.937  1.00  0.00     0.012 A 
ATOM     18  C   UNL     1      22.392  15.781  29.646  1.00  0.00     0.001 A 
ATOM     19  C   UNL     1      24.720  15.891  29.885  1.00  0.00     0.001 A 
ATOM     20  C   UNL     1      23.586  16.293  29.220  1.00  0.00     0.000 A 
ENDBRANCH   5  15
TORSDOF 1
ENDMDL
MODEL 8
REMARK VINA RESULT:      -5.9      2.465      6.823
REMARK SMILES O=c1c([O-])c(-c2ccccc2)oc2cc([O-])cc([O-])c12
REMARK SMILES IDX 1 1 2 2 3 3 4 4 5 5 12 6 13 7 14 8 15 9 16 10 17 11 18 12
REMARK SMILES IDX 19 13 20 14 6 15 7 16 11 17 8 18 10 19 9 20
REMARK H PARENT
ROOT
ATOM      1  O   UNL     1      25.630  13.212  30.868  1.00  0.00    -0.290 OA
ATOM      2  C   UNL     1      25.203  14.131  30.139  1.00  0.00     0.184 A 
ATOM      3  C   UNL     1      26.084  14.611  29.148  1.00  0.00    -0.014 A 
ATOM      4  O   UNL     1      27.332  14.064  29.031  1.00  0.00    -0.867 OA
ATOM      5  C   UNL     1      25.646  15.615  28.336  1.00  0.00     0.130 A 
ATOM      6  O   UNL     1      24.400  16.101  28.517  1.00  0.00    -0.457 OA
ATOM      7  C   UNL     1      23.594  15.672  29.414  1.00  0.00     0.137 A 
ATOM      8  C   UNL     1      22.342  16.206  29.546  1.00  0.00     0.039 A 
ATOM      9  C   UNL     1      21.449  15.768  30.500  1.00  0.00    -0.106 A 
ATOM     10  O   UNL     1      20.178  16.334  30.610  1.00  0.00    -0.872 OA
ATOM     11  C   UNL     1      21.839  14.740  31.362  1.00  0.00    -0.016 A 
ATOM     12  C   UNL     1      23.087  14.183  31.257  1.00  0.00    -0.094 A 
ATOM     13  O   UNL     1      23.463  13.170  32.112  1.00  0.00    -0.872 OA
ATOM     14  C   UNL     1      23.938  14.655  30.290  1.00  0.00     0.056 A 
ENDROOT
BRANCH   5  15
ATOM     15  C   UNL     1      26.460  16.192  27.281  1.00  0.00     0.017 A 
ATOM     16  C   UNL     1      26.517  15.820  25.976  1.00  0.00     0.012 A 
ATOM     17  C   UNL     1      27.299  17.267  27.621  1.00  0.00     0.012 A 
ATOM     18  C   UNL     1      27.332  16.440  25.041  1.00  0.00     0.001 A 
ATOM     19  C   UNL     1      28.114  17.893  26.706  1.00  0.00     0.001 A 
ATOM     20  C   UNL     1      28.142  17.485  25.393  1.00  0.00     0.000 A 
ENDBRANCH   5  15
TORSDOF 1
ENDMDL
MODEL 9
REMARK VINA RESULT:      -5.9      2.389      6.417
REMARK SMILES O=c1c([O-])c(-c2ccccc2)oc2cc([O-])cc([O-])c12
REMARK SMILES IDX 1 1 2 2 3 3 4 4 5 5 12 6 13 7 14 8 15 9 16 10 17 11 18 12
REMARK SMILES IDX 19 13 20 14 6 15 7 16 11 17 8 18 10 19 9 20
REMARK H PARENT
ROOT
ATOM      1  O   UNL     1      25.367  15.488  33.635  1.00  0.00    -0.290 OA
ATOM      2  C   UNL     1      24.890  14.702  32.790  1.00  0.00     0.184 A 
ATOM      3  C   UNL     1      24.789  15.183  31.469  1.00  0.00    -0.014 A 
ATOM      4  O   UNL     1      25.206  16.453  31.178  1.00  0.00    -0.867 OA
ATOM      5  C   UNL     1      24.272  14.348  30.522  1.00  0.00     0.130 A 
ATOM      6  O   UNL     1      23.882  13.111  30.891  1.00  0.00    -0.457 OA
ATOM      7  C   UNL     1      23.970  12.665  32.088  1.00  0.00     0.137 A 
ATOM      8  C   UNL     1      23.558  11.398  32.398  1.00  0.00     0.039 A 
ATOM      9  C   UNL     1      23.638  10.887  33.675  1.00  0.00    -0.106 A 
ATOM     10  O   UNL     1      23.208   9.591  33.959  1.00  0.00    -0.872 OA
ATOM     11  C   UNL     1      24.159  11.694  34.689  1.00  0.00    -0.016 A 
ATOM     12  C   UNL     1      24.581  12.969  34.413  1.00  0.00    -0.094 A 
ATOM     13  O   UNL     1      25.094  13.758  35.419  1.00  0.00    -0.872 OA
ATOM     14  C   UNL     1      24.481  13.430  33.124  1.00  0.00     0.056 A 
ENDROOT
BRANCH   5  15
ATOM     15  C   UNL     1      24.118  14.729  29.130  1.00  0.00     0.017 A 
ATOM     16  C   UNL     1      25.024  14.599  28.126  1.00  0.00     0.012 A 
ATOM     17  C   UNL     1      22.895  15.304  28.744  1.00  0.00     0.012 A 
ATOM     18  C   UNL     1      24.778  14.995  26.820  1.00  0.00     0.001 A 
ATOM     19  C   UNL     1      22.635  15.703  27.453  1.00  0.00     0.001 A 
ATOM     20  C   UNL     1      23.580  15.553  26.465  1.00  0.00     0.000 A 
ENDBRANCH   5  15
TORSDOF 1
ENDMDL
