MODEL 1
REMARK VINA RESULT:      -3.0      0.000      0.000
REMARK SMILES COc1ccc(-c2cc(=O)c3c(O)c(OC)c(O)cc3o2)cc1
REMARK SMILES IDX 7 1 8 2 9 3 10 4 11 5 12 6 14 7 17 8 19 9 20 10 21 11 6 12
REMARK SMILES IDX 3 13 4 14 23 15 5 16 22 17 2 18 1 19 13 20 18 22 15 24 16 25
REMARK H PARENT 13 21 18 23
ROOT
ATOM      1  C   UNL     1      80.705  63.081  40.130  1.00  0.00     0.138 A 
ATOM      2  C   UNL     1      80.353  61.753  40.245  1.00  0.00     0.100 A 
ATOM      3  C   UNL     1      79.002  61.418  40.383  1.00  0.00     0.197 A 
ATOM      4  O   UNL     1      78.638  60.214  40.492  1.00  0.00    -0.289 OA
ATOM      5  C   UNL     1      78.037  62.404  40.404  1.00  0.00     0.111 A 
ATOM      6  C   UNL     1      76.688  62.115  40.539  1.00  0.00     0.176 A 
ATOM      7  C   UNL     1      75.721  63.099  40.559  1.00  0.00     0.203 A 
ATOM      8  C   UNL     1      76.153  64.403  40.439  1.00  0.00     0.165 A 
ATOM      9  C   UNL     1      77.492  64.701  40.304  1.00  0.00     0.098 A 
ATOM     10  C   UNL     1      78.472  63.705  40.283  1.00  0.00     0.146 A 
ATOM     11  O   UNL     1      79.730  63.963  40.158  1.00  0.00    -0.456 OA
ENDROOT
BRANCH   1  12
ATOM     12  C   UNL     1      82.104  63.515  39.981  1.00  0.00     0.018 A 
ATOM     13  C   UNL     1      84.749  64.459  39.726  1.00  0.00     0.118 A 
ATOM     14  C   UNL     1      84.433  63.139  39.499  1.00  0.00     0.047 A 
ATOM     15  C   UNL     1      83.727  65.310  40.084  1.00  0.00     0.047 A 
ATOM     16  C   UNL     1      83.120  62.668  39.625  1.00  0.00     0.016 A 
ATOM     17  C   UNL     1      82.420  64.832  40.207  1.00  0.00     0.016 A 
BRANCH  13  18
ATOM     18  O   UNL     1      86.070  64.915  39.596  1.00  0.00    -0.497 OA
ATOM     19  C   UNL     1      86.769  65.469  40.677  1.00  0.00     0.278 C 
ENDBRANCH  13  18
ENDBRANCH   1  12
BRANCH   6  20
ATOM     20  O   UNL     1      76.283  60.801  40.658  1.00  0.00    -0.504 OA
ATOM     21  H   UNL     1      76.123  60.179  39.879  1.00  0.00     0.293 HD
ENDBRANCH   6  20
BRANCH   8  22
ATOM     22  O   UNL     1      75.171  65.393  40.460  1.00  0.00    -0.504 OA
ATOM     23  H   UNL     1      75.040  66.052  39.695  1.00  0.00     0.293 HD
ENDBRANCH   8  22
BRANCH   7  24
ATOM     24  O   UNL     1      74.377  62.770  40.696  1.00  0.00    -0.490 OA
ATOM     25  C   UNL     1      73.948  61.469  40.327  1.00  0.00     0.278 C 
ENDBRANCH   7  24
TORSDOF 5
ENDMDL
MODEL 2
REMARK VINA RESULT:      -2.2      2.127      3.653
REMARK SMILES COc1ccc(-c2cc(=O)c3c(O)c(OC)c(O)cc3o2)cc1
REMARK SMILES IDX 7 1 8 2 9 3 10 4 11 5 12 6 14 7 17 8 19 9 20 10 21 11 6 12
REMARK SMILES IDX 3 13 4 14 23 15 5 16 22 17 2 18 1 19 13 20 18 22 15 24 16 25
REMARK H PARENT 13 21 18 23
ROOT
ATOM      1  C   UNL     1      78.913  62.377  40.014  1.00  0.00     0.138 A 
ATOM      2  C   UNL     1      77.755  63.068  40.300  1.00  0.00     0.100 A 
ATOM      3  C   UNL     1      76.532  62.387  40.269  1.00  0.00     0.197 A 
ATOM      4  O   UNL     1      75.449  62.983  40.523  1.00  0.00    -0.289 OA
ATOM      5  C   UNL     1      76.490  61.044  39.957  1.00  0.00     0.111 A 
ATOM      6  C   UNL     1      75.301  60.332  39.917  1.00  0.00     0.176 A 
ATOM      7  C   UNL     1      75.256  58.988  39.605  1.00  0.00     0.203 A 
ATOM      8  C   UNL     1      76.457  58.369  39.332  1.00  0.00     0.165 A 
ATOM      9  C   UNL     1      77.645  59.067  39.371  1.00  0.00     0.098 A 
ATOM     10  C   UNL     1      77.692  60.428  39.685  1.00  0.00     0.146 A 
ATOM     11  O   UNL     1      78.793  61.100  39.727  1.00  0.00    -0.456 OA
ENDROOT
BRANCH   1  12
ATOM     12  C   UNL     1      80.236  63.021  40.025  1.00  0.00     0.018 A 
ATOM     13  C   UNL     1      82.720  64.356  39.998  1.00  0.00     0.118 A 
ATOM     14  C   UNL     1      82.600  63.073  40.481  1.00  0.00     0.047 A 
ATOM     15  C   UNL     1      81.583  64.973  39.526  1.00  0.00     0.047 A 
ATOM     16  C   UNL     1      81.368  62.408  40.495  1.00  0.00     0.016 A 
ATOM     17  C   UNL     1      80.357  64.302  39.544  1.00  0.00     0.016 A 
BRANCH  13  18
ATOM     18  O   UNL     1      83.963  65.008  39.992  1.00  0.00    -0.497 OA
ATOM     19  C   UNL     1      85.133  64.371  40.429  1.00  0.00     0.278 C 
ENDBRANCH  13  18
ENDBRANCH   1  12
BRANCH   6  20
ATOM     20  O   UNL     1      74.113  60.977  40.194  1.00  0.00    -0.504 OA
ATOM     21  H   UNL     1      73.874  61.372  41.091  1.00  0.00     0.293 HD
ENDBRANCH   6  20
BRANCH   8  22
ATOM     22  O   UNL     1      76.405  57.011  39.018  1.00  0.00    -0.504 OA
ATOM     23  H   UNL     1      75.527  56.503  38.929  1.00  0.00     0.293 HD
ENDBRANCH   8  22
BRANCH   7  24
ATOM     24  O   UNL     1      74.044  58.308  39.574  1.00  0.00    -0.490 OA
ATOM     25  C   UNL     1      73.668  57.524  40.696  1.00  0.00     0.278 C 
ENDBRANCH   7  24
TORSDOF 5
ENDMDL
