MODEL 1
REMARK VINA RESULT:      -5.8      0.000      0.000
REMARK SMILES Clc1ccc(COC(Cn2ccnc2)c2ccc(Cl)cc2Cl)c(Cl)c1
REMARK SMILES IDX 7 1 6 2 5 3 2 4 3 5 25 6 4 7 23 8 1 9 24 10 8 11 9 12 10 13
REMARK SMILES IDX 11 14 14 15 12 16 13 17 15 18 16 19 21 20 17 21 20 22 18 23
REMARK SMILES IDX 22 24 19 25
REMARK H PARENT
ROOT
ATOM      1  O   UNL     1     117.151  99.086  86.104  1.00  0.00    -0.367 OA
ENDROOT
BRANCH   1   2
ATOM      2  C   UNL     1     116.007  99.302  86.772  1.00  0.00     0.198 C 
BRANCH   2   3
ATOM      3  C   UNL     1     114.804  98.734  86.124  1.00  0.00    -0.004 A 
ATOM      4  C   UNL     1     112.357  97.911  84.944  1.00  0.00     0.042 A 
ATOM      5  C   UNL     1     112.777  99.230  84.916  1.00  0.00     0.021 A 
ATOM      6  C   UNL     1     113.190  97.020  85.575  1.00  0.00     0.041 A 
ATOM      7  C   UNL     1     113.957  99.650  85.480  1.00  0.00     0.009 A 
ATOM      8  C   UNL     1     114.399  97.435  86.155  1.00  0.00     0.048 A 
ATOM      9  Cl  UNL     1     110.838  97.402  84.220  1.00  0.00    -0.084 Cl
ATOM     10  Cl  UNL     1     115.471  96.230  86.862  1.00  0.00    -0.084 Cl
ENDBRANCH   2   3
ENDBRANCH   1   2
BRANCH   1  11
ATOM     11  C   UNL     1     118.343  98.797  86.585  1.00  0.00     0.170 C 
BRANCH  11  12
ATOM     12  C   UNL     1     118.205  97.489  87.404  1.00  0.00     0.160 C 
BRANCH  12  13
ATOM     13  N   UNL     1     118.147  97.828  88.792  1.00  0.00    -0.335 N 
ATOM     14  C   UNL     1     118.288  99.041  89.350  1.00  0.00     0.107 A 
ATOM     15  C   UNL     1     117.933  96.922  89.768  1.00  0.00     0.199 A 
ATOM     16  C   UNL     1     118.154  98.845  90.708  1.00  0.00     0.130 A 
ATOM     17  N   UNL     1     117.937  97.540  90.939  1.00  0.00    -0.245 NA
ENDBRANCH  12  13
ENDBRANCH  11  12
BRANCH  11  18
ATOM     18  C   UNL     1     119.367  98.535  85.496  1.00  0.00     0.001 A 
ATOM     19  C   UNL     1     119.019  98.539  84.166  1.00  0.00     0.009 A 
ATOM     20  C   UNL     1     120.673  98.283  85.833  1.00  0.00     0.048 A 
ATOM     21  C   UNL     1     119.991  98.288  83.187  1.00  0.00     0.021 A 
ATOM     22  C   UNL     1     121.647  98.033  84.867  1.00  0.00     0.041 A 
ATOM     23  C   UNL     1     121.299  98.037  83.530  1.00  0.00     0.042 A 
ATOM     24  Cl  UNL     1     121.097  98.280  87.534  1.00  0.00    -0.084 Cl
ATOM     25  Cl  UNL     1     122.518  97.719  82.305  1.00  0.00    -0.084 Cl
ENDBRANCH  11  18
ENDBRANCH   1  11
TORSDOF 6
ENDMDL
MODEL 2
REMARK VINA RESULT:      -5.6      1.118      1.502
REMARK SMILES Clc1ccc(COC(Cn2ccnc2)c2ccc(Cl)cc2Cl)c(Cl)c1
REMARK SMILES IDX 7 1 6 2 5 3 2 4 3 5 25 6 4 7 23 8 1 9 24 10 8 11 9 12 10 13
REMARK SMILES IDX 11 14 14 15 12 16 13 17 15 18 16 19 21 20 17 21 20 22 18 23
REMARK SMILES IDX 22 24 19 25
REMARK H PARENT
ROOT
ATOM      1  O   UNL     1     116.937  98.739  85.839  1.00  0.00    -0.367 OA
ENDROOT
BRANCH   1   2
ATOM      2  C   UNL     1     115.794  99.190  86.380  1.00  0.00     0.198 C 
BRANCH   2   3
ATOM      3  C   UNL     1     114.585  98.450  85.957  1.00  0.00    -0.004 A 
ATOM      4  C   UNL     1     112.453  96.803  85.064  1.00  0.00     0.042 A 
ATOM      5  C   UNL     1     113.603  96.273  85.622  1.00  0.00     0.021 A 
ATOM      6  C   UNL     1     112.398  98.172  84.966  1.00  0.00     0.041 A 
ATOM      7  C   UNL     1     114.647  97.051  86.061  1.00  0.00     0.009 A 
ATOM      8  C   UNL     1     113.456  98.979  85.411  1.00  0.00     0.048 A 
ATOM      9  Cl  UNL     1     111.135  95.784  84.503  1.00  0.00    -0.084 Cl
ATOM     10  Cl  UNL     1     113.286 100.731  85.351  1.00  0.00    -0.084 Cl
ENDBRANCH   2   3
ENDBRANCH   1   2
BRANCH   1  11
ATOM     11  C   UNL     1     118.135  98.670  86.384  1.00  0.00     0.170 C 
BRANCH  11  12
ATOM     12  C   UNL     1     118.144  97.437  87.322  1.00  0.00     0.160 C 
BRANCH  12  13
ATOM     13  N   UNL     1     118.088  97.896  88.675  1.00  0.00    -0.335 N 
ATOM     14  C   UNL     1     117.994  99.162  89.111  1.00  0.00     0.107 A 
ATOM     15  C   UNL     1     118.127  97.070  89.740  1.00  0.00     0.199 A 
ATOM     16  C   UNL     1     117.977  99.083  90.488  1.00  0.00     0.130 A 
ATOM     17  N   UNL     1     118.061  97.792  90.849  1.00  0.00    -0.245 NA
ENDBRANCH  12  13
ENDBRANCH  11  12
BRANCH  11  18
ATOM     18  C   UNL     1     119.235  98.459  85.359  1.00  0.00     0.001 A 
ATOM     19  C   UNL     1     118.968  98.445  84.011  1.00  0.00     0.009 A 
ATOM     20  C   UNL     1     120.529  98.273  85.775  1.00  0.00     0.048 A 
ATOM     21  C   UNL     1     120.008  98.242  83.093  1.00  0.00     0.021 A 
ATOM     22  C   UNL     1     121.570  98.072  84.871  1.00  0.00     0.041 A 
ATOM     23  C   UNL     1     121.304  98.057  83.514  1.00  0.00     0.042 A 
ATOM     24  Cl  UNL     1     120.849  98.293  87.499  1.00  0.00    -0.084 Cl
ATOM     25  Cl  UNL     1     122.608  97.800  82.367  1.00  0.00    -0.084 Cl
ENDBRANCH  11  18
ENDBRANCH   1  11
TORSDOF 6
ENDMDL
MODEL 3
REMARK VINA RESULT:      -5.5      2.697      6.784
REMARK SMILES Clc1ccc(COC(Cn2ccnc2)c2ccc(Cl)cc2Cl)c(Cl)c1
REMARK SMILES IDX 7 1 6 2 5 3 2 4 3 5 25 6 4 7 23 8 1 9 24 10 8 11 9 12 10 13
REMARK SMILES IDX 11 14 14 15 12 16 13 17 15 18 16 19 21 20 17 21 20 22 18 23
REMARK SMILES IDX 22 24 19 25
REMARK H PARENT
ROOT
ATOM      1  O   UNL     1     117.630  98.622  85.493  1.00  0.00    -0.367 OA
ENDROOT
BRANCH   1   2
ATOM      2  C   UNL     1     118.660  97.762  85.504  1.00  0.00     0.198 C 
BRANCH   2   3
ATOM      3  C   UNL     1     119.747  98.096  84.558  1.00  0.00    -0.004 A 
ATOM      4  C   UNL     1     121.659  98.610  82.524  1.00  0.00     0.042 A 
ATOM      5  C   UNL     1     120.299  98.617  82.269  1.00  0.00     0.021 A 
ATOM      6  C   UNL     1     122.035  98.341  83.818  1.00  0.00     0.041 A 
ATOM      7  C   UNL     1     119.356  98.371  83.238  1.00  0.00     0.009 A 
ATOM      8  C   UNL     1     121.083  98.090  84.817  1.00  0.00     0.048 A 
ATOM      9  Cl  UNL     1     122.844  98.921  81.264  1.00  0.00    -0.084 Cl
ATOM     10  Cl  UNL     1     121.622  97.849  86.476  1.00  0.00    -0.084 Cl
ENDBRANCH   2   3
ENDBRANCH   1   2
BRANCH   1  11
ATOM     11  C   UNL     1     116.675  98.775  86.389  1.00  0.00     0.170 C 
BRANCH  11  12
ATOM     12  C   UNL     1     115.598  97.700  86.101  1.00  0.00     0.160 C 
BRANCH  12  13
ATOM     13  N   UNL     1     114.464  98.342  85.511  1.00  0.00    -0.335 N 
ATOM     14  C   UNL     1     113.611  97.836  84.607  1.00  0.00     0.107 A 
ATOM     15  C   UNL     1     114.092  99.604  85.804  1.00  0.00     0.199 A 
ATOM     16  C   UNL     1     112.698  98.839  84.354  1.00  0.00     0.130 A 
ATOM     17  N   UNL     1     113.014  99.911  85.099  1.00  0.00    -0.245 NA
ENDBRANCH  12  13
ENDBRANCH  11  12
BRANCH  11  18
ATOM     18  C   UNL     1     117.162  98.551  87.809  1.00  0.00     0.001 A 
ATOM     19  C   UNL     1     117.514  97.301  88.259  1.00  0.00     0.009 A 
ATOM     20  C   UNL     1     117.254  99.611  88.675  1.00  0.00     0.048 A 
ATOM     21  C   UNL     1     117.954  97.130  89.579  1.00  0.00     0.021 A 
ATOM     22  C   UNL     1     117.692  99.452  89.988  1.00  0.00     0.041 A 
ATOM     23  C   UNL     1     118.046  98.196  90.443  1.00  0.00     0.042 A 
ATOM     24  Cl  UNL     1     116.799 101.197  88.082  1.00  0.00    -0.084 Cl
ATOM     25  Cl  UNL     1     118.594  97.984  92.098  1.00  0.00    -0.084 Cl
ENDBRANCH  11  18
ENDBRANCH   1  11
TORSDOF 6
ENDMDL
MODEL 4
REMARK VINA RESULT:      -4.5      2.707      4.870
REMARK SMILES Clc1ccc(COC(Cn2ccnc2)c2ccc(Cl)cc2Cl)c(Cl)c1
REMARK SMILES IDX 7 1 6 2 5 3 2 4 3 5 25 6 4 7 23 8 1 9 24 10 8 11 9 12 10 13
REMARK SMILES IDX 11 14 14 15 12 16 13 17 15 18 16 19 21 20 17 21 20 22 18 23
REMARK SMILES IDX 22 24 19 25
REMARK H PARENT
ROOT
ATOM      1  O   UNL     1     116.114  98.516  86.436  1.00  0.00    -0.367 OA
ENDROOT
BRANCH   1   2
ATOM      2  C   UNL     1     115.501  98.649  85.250  1.00  0.00     0.198 C 
BRANCH   2   3
ATOM      3  C   UNL     1     114.164  98.020  85.179  1.00  0.00    -0.004 A 
ATOM      4  C   UNL     1     111.732  96.586  84.886  1.00  0.00     0.042 A 
ATOM      5  C   UNL     1     112.952  95.943  85.003  1.00  0.00     0.021 A 
ATOM      6  C   UNL     1     111.761  97.959  84.920  1.00  0.00     0.041 A 
ATOM      7  C   UNL     1     114.141  96.617  85.146  1.00  0.00     0.009 A 
ATOM      8  C   UNL     1     112.968  98.660  85.066  1.00  0.00     0.048 A 
ATOM      9  Cl  UNL     1     110.226  95.698  84.697  1.00  0.00    -0.084 Cl
ATOM     10  Cl  UNL     1     112.930 100.415  85.202  1.00  0.00    -0.084 Cl
ENDBRANCH   2   3
ENDBRANCH   1   2
BRANCH   1  11
ATOM     11  C   UNL     1     117.343  98.109  86.686  1.00  0.00     0.170 C 
BRANCH  11  12
ATOM     12  C   UNL     1     118.307  99.192  86.140  1.00  0.00     0.160 C 
BRANCH  12  13
ATOM     13  N   UNL     1     119.426  98.539  85.537  1.00  0.00    -0.335 N 
ATOM     14  C   UNL     1     119.538  98.094  84.275  1.00  0.00     0.107 A 
ATOM     15  C   UNL     1     120.572  98.271  86.196  1.00  0.00     0.199 A 
ATOM     16  C   UNL     1     120.799  97.541  84.184  1.00  0.00     0.130 A 
ATOM     17  N   UNL     1     121.412  97.661  85.373  1.00  0.00    -0.245 NA
ENDBRANCH  12  13
ENDBRANCH  11  12
BRANCH  11  18
ATOM     18  C   UNL     1     117.624  97.971  88.172  1.00  0.00     0.001 A 
ATOM     19  C   UNL     1     117.843  96.744  88.751  1.00  0.00     0.009 A 
ATOM     20  C   UNL     1     117.657  99.088  88.967  1.00  0.00     0.048 A 
ATOM     21  C   UNL     1     118.094  96.653  90.127  1.00  0.00     0.021 A 
ATOM     22  C   UNL     1     117.907  99.009  90.336  1.00  0.00     0.041 A 
ATOM     23  C   UNL     1     118.128  97.776  90.920  1.00  0.00     0.042 A 
ATOM     24  Cl  UNL     1     117.372 100.644  88.211  1.00  0.00    -0.084 Cl
ATOM     25  Cl  UNL     1     118.439  97.665  92.645  1.00  0.00    -0.084 Cl
ENDBRANCH  11  18
ENDBRANCH   1  11
TORSDOF 6
ENDMDL
MODEL 5
REMARK VINA RESULT:      -4.2      1.274      6.265
REMARK SMILES Clc1ccc(COC(Cn2ccnc2)c2ccc(Cl)cc2Cl)c(Cl)c1
REMARK SMILES IDX 7 1 6 2 5 3 2 4 3 5 25 6 4 7 23 8 1 9 24 10 8 11 9 12 10 13
REMARK SMILES IDX 11 14 14 15 12 16 13 17 15 18 16 19 21 20 17 21 20 22 18 23
REMARK SMILES IDX 22 24 19 25
REMARK H PARENT
ROOT
ATOM      1  O   UNL     1     117.289  98.363  86.300  1.00  0.00    -0.367 OA
ENDROOT
BRANCH   1   2
ATOM      2  C   UNL     1     118.573  98.246  86.671  1.00  0.00     0.198 C 
BRANCH   2   3
ATOM      3  C   UNL     1     119.540  98.289  85.552  1.00  0.00    -0.004 A 
ATOM      4  C   UNL     1     121.173  98.251  83.231  1.00  0.00     0.042 A 
ATOM      5  C   UNL     1     119.807  98.462  83.162  1.00  0.00     0.021 A 
ATOM      6  C   UNL     1     121.698  98.061  84.486  1.00  0.00     0.041 A 
ATOM      7  C   UNL     1     118.997  98.484  84.273  1.00  0.00     0.009 A 
ATOM      8  C   UNL     1     120.884  98.083  85.629  1.00  0.00     0.048 A 
ATOM      9  Cl  UNL     1     122.184  98.221  81.793  1.00  0.00    -0.084 Cl
ATOM     10  Cl  UNL     1     121.628  97.933  87.217  1.00  0.00    -0.084 Cl
ENDBRANCH   2   3
ENDBRANCH   1   2
BRANCH   1  11
ATOM     11  C   UNL     1     116.203  98.095  86.996  1.00  0.00     0.170 C 
BRANCH  11  12
ATOM     12  C   UNL     1     116.015  99.245  88.017  1.00  0.00     0.160 C 
BRANCH  12  13
ATOM     13  N   UNL     1     116.926  99.041  89.101  1.00  0.00    -0.335 N 
ATOM     14  C   UNL     1     117.382  97.875  89.584  1.00  0.00     0.107 A 
ATOM     15  C   UNL     1     117.468 100.050  89.813  1.00  0.00     0.199 A 
ATOM     16  C   UNL     1     118.226  98.206  90.623  1.00  0.00     0.130 A 
ATOM     17  N   UNL     1     118.262  99.543  90.744  1.00  0.00    -0.245 NA
ENDBRANCH  12  13
ENDBRANCH  11  12
BRANCH  11  18
ATOM     18  C   UNL     1     114.952  98.051  86.138  1.00  0.00     0.001 A 
ATOM     19  C   UNL     1     114.420  96.862  85.700  1.00  0.00     0.009 A 
ATOM     20  C   UNL     1     114.329  99.220  85.779  1.00  0.00     0.048 A 
ATOM     21  C   UNL     1     113.266  96.860  84.904  1.00  0.00     0.021 A 
ATOM     22  C   UNL     1     113.181  99.230  84.989  1.00  0.00     0.041 A 
ATOM     23  C   UNL     1     112.645  98.034  84.548  1.00  0.00     0.042 A 
ATOM     24  Cl  UNL     1     115.023 100.728  86.345  1.00  0.00    -0.084 Cl
ATOM     25  Cl  UNL     1     111.201  98.036  83.549  1.00  0.00    -0.084 Cl
ENDBRANCH  11  18
ENDBRANCH   1  11
TORSDOF 6
ENDMDL
MODEL 6
REMARK VINA RESULT:      -4.1      2.795      4.891
REMARK SMILES Clc1ccc(COC(Cn2ccnc2)c2ccc(Cl)cc2Cl)c(Cl)c1
REMARK SMILES IDX 7 1 6 2 5 3 2 4 3 5 25 6 4 7 23 8 1 9 24 10 8 11 9 12 10 13
REMARK SMILES IDX 11 14 14 15 12 16 13 17 15 18 16 19 21 20 17 21 20 22 18 23
REMARK SMILES IDX 22 24 19 25
REMARK H PARENT
ROOT
ATOM      1  O   UNL     1     116.363  99.693  86.311  1.00  0.00    -0.367 OA
ENDROOT
BRANCH   1   2
ATOM      2  C   UNL     1     115.074  99.565  86.665  1.00  0.00     0.198 C 
BRANCH   2   3
ATOM      3  C   UNL     1     114.362  98.457  85.993  1.00  0.00    -0.004 A 
ATOM      4  C   UNL     1     113.255  96.169  84.731  1.00  0.00     0.042 A 
ATOM      5  C   UNL     1     114.201  96.065  85.735  1.00  0.00     0.021 A 
ATOM      6  C   UNL     1     112.878  97.442  84.377  1.00  0.00     0.041 A 
ATOM      7  C   UNL     1     114.751  97.159  86.360  1.00  0.00     0.009 A 
ATOM      8  C   UNL     1     113.430  98.567  85.007  1.00  0.00     0.048 A 
ATOM      9  Cl  UNL     1     112.574  94.752  83.943  1.00  0.00    -0.084 Cl
ATOM     10  Cl  UNL     1     112.835 100.169  84.579  1.00  0.00    -0.084 Cl
ENDBRANCH   2   3
ENDBRANCH   1   2
BRANCH   1  11
ATOM     11  C   UNL     1     117.346  98.827  86.457  1.00  0.00     0.170 C 
BRANCH  11  12
ATOM     12  C   UNL     1     118.642  99.514  85.959  1.00  0.00     0.160 C 
BRANCH  12  13
ATOM     13  N   UNL     1     119.426  98.546  85.257  1.00  0.00    -0.335 N 
ATOM     14  C   UNL     1     120.362  97.725  85.758  1.00  0.00     0.107 A 
ATOM     15  C   UNL     1     119.320  98.327  83.930  1.00  0.00     0.199 A 
ATOM     16  C   UNL     1     120.828  96.991  84.687  1.00  0.00     0.130 A 
ATOM     17  N   UNL     1     120.175  97.379  83.579  1.00  0.00    -0.245 NA
ENDBRANCH  12  13
ENDBRANCH  11  12
BRANCH  11  18
ATOM     18  C   UNL     1     117.576  98.439  87.906  1.00  0.00     0.001 A 
ATOM     19  C   UNL     1     117.763  97.129  88.279  1.00  0.00     0.009 A 
ATOM     20  C   UNL     1     117.595  99.407  88.877  1.00  0.00     0.048 A 
ATOM     21  C   UNL     1     117.967  96.807  89.628  1.00  0.00     0.021 A 
ATOM     22  C   UNL     1     117.798  99.098  90.221  1.00  0.00     0.041 A 
ATOM     23  C   UNL     1     117.987  97.782  90.598  1.00  0.00     0.042 A 
ATOM     24  Cl  UNL     1     117.352 101.072  88.382  1.00  0.00    -0.084 Cl
ATOM     25  Cl  UNL     1     118.239  97.381  92.289  1.00  0.00    -0.084 Cl
ENDBRANCH  11  18
ENDBRANCH   1  11
TORSDOF 6
ENDMDL
MODEL 7
REMARK VINA RESULT:      -4.0      2.854      6.866
REMARK SMILES Clc1ccc(COC(Cn2ccnc2)c2ccc(Cl)cc2Cl)c(Cl)c1
REMARK SMILES IDX 7 1 6 2 5 3 2 4 3 5 25 6 4 7 23 8 1 9 24 10 8 11 9 12 10 13
REMARK SMILES IDX 11 14 14 15 12 16 13 17 15 18 16 19 21 20 17 21 20 22 18 23
REMARK SMILES IDX 22 24 19 25
REMARK H PARENT
ROOT
ATOM      1  O   UNL     1     117.937  99.192  85.747  1.00  0.00    -0.367 OA
ENDROOT
BRANCH   1   2
ATOM      2  C   UNL     1     118.090  98.821  84.467  1.00  0.00     0.198 C 
BRANCH   2   3
ATOM      3  C   UNL     1     119.431  98.289  84.140  1.00  0.00    -0.004 A 
ATOM      4  C   UNL     1     122.071  97.299  83.812  1.00  0.00     0.042 A 
ATOM      5  C   UNL     1     121.347  97.084  84.972  1.00  0.00     0.021 A 
ATOM      6  C   UNL     1     121.442  98.019  82.825  1.00  0.00     0.041 A 
ATOM      7  C   UNL     1     120.068  97.554  85.152  1.00  0.00     0.009 A 
ATOM      8  C   UNL     1     120.136  98.503  82.996  1.00  0.00     0.048 A 
ATOM      9  Cl  UNL     1     123.709  96.693  83.611  1.00  0.00    -0.084 Cl
ATOM     10  Cl  UNL     1     119.346  99.333  81.658  1.00  0.00    -0.084 Cl
ENDBRANCH   2   3
ENDBRANCH   1   2
BRANCH   1  11
ATOM     11  C   UNL     1     116.893  99.022  86.535  1.00  0.00     0.170 C 
BRANCH  11  12
ATOM     12  C   UNL     1     116.055  97.861  85.944  1.00  0.00     0.160 C 
BRANCH  12  13
ATOM     13  N   UNL     1     114.799  98.386  85.506  1.00  0.00    -0.335 N 
ATOM     14  C   UNL     1     113.881  97.786  84.733  1.00  0.00     0.107 A 
ATOM     15  C   UNL     1     114.358  99.618  85.831  1.00  0.00     0.199 A 
ATOM     16  C   UNL     1     112.856  98.698  84.594  1.00  0.00     0.130 A 
ATOM     17  N   UNL     1     113.171  99.812  85.275  1.00  0.00    -0.245 NA
ENDBRANCH  12  13
ENDBRANCH  11  12
BRANCH  11  18
ATOM     18  C   UNL     1     117.283  98.619  87.945  1.00  0.00     0.001 A 
ATOM     19  C   UNL     1     117.758  97.361  88.229  1.00  0.00     0.009 A 
ATOM     20  C   UNL     1     117.157  99.521  88.972  1.00  0.00     0.048 A 
ATOM     21  C   UNL     1     118.103  97.023  89.545  1.00  0.00     0.021 A 
ATOM     22  C   UNL     1     117.499  99.195  90.283  1.00  0.00     0.041 A 
ATOM     23  C   UNL     1     117.977  97.930  90.570  1.00  0.00     0.042 A 
ATOM     24  Cl  UNL     1     116.547 101.120  88.591  1.00  0.00    -0.084 Cl
ATOM     25  Cl  UNL     1     118.406  97.508  92.220  1.00  0.00    -0.084 Cl
ENDBRANCH  11  18
ENDBRANCH   1  11
TORSDOF 6
ENDMDL
MODEL 8
REMARK VINA RESULT:      -3.9      2.429      4.697
REMARK SMILES Clc1ccc(COC(Cn2ccnc2)c2ccc(Cl)cc2Cl)c(Cl)c1
REMARK SMILES IDX 7 1 6 2 5 3 2 4 3 5 25 6 4 7 23 8 1 9 24 10 8 11 9 12 10 13
REMARK SMILES IDX 11 14 14 15 12 16 13 17 15 18 16 19 21 20 17 21 20 22 18 23
REMARK SMILES IDX 22 24 19 25
REMARK H PARENT
ROOT
ATOM      1  O   UNL     1     116.812  99.241  86.190  1.00  0.00    -0.367 OA
ENDROOT
BRANCH   1   2
ATOM      2  C   UNL     1     115.618  99.340  86.794  1.00  0.00     0.198 C 
BRANCH   2   3
ATOM      3  C   UNL     1     114.500  98.725  86.045  1.00  0.00    -0.004 A 
ATOM      4  C   UNL     1     112.199  97.803  84.663  1.00  0.00     0.042 A 
ATOM      5  C   UNL     1     112.553  99.141  84.686  1.00  0.00     0.021 A 
ATOM      6  C   UNL     1     113.024  96.943  85.347  1.00  0.00     0.041 A 
ATOM      7  C   UNL     1     113.662  99.610  85.348  1.00  0.00     0.009 A 
ATOM      8  C   UNL     1     114.160  97.408  86.026  1.00  0.00     0.048 A 
ATOM      9  Cl  UNL     1     110.769  97.232  83.814  1.00  0.00    -0.084 Cl
ATOM     10  Cl  UNL     1     115.233  96.245  86.800  1.00  0.00    -0.084 Cl
ENDBRANCH   2   3
ENDBRANCH   1   2
BRANCH   1  11
ATOM     11  C   UNL     1     117.835  98.472  86.509  1.00  0.00     0.170 C 
BRANCH  11  12
ATOM     12  C   UNL     1     119.125  99.263  86.180  1.00  0.00     0.160 C 
BRANCH  12  13
ATOM     13  N   UNL     1     119.916  98.486  85.277  1.00  0.00    -0.335 N 
ATOM     14  C   UNL     1     121.038  97.800  85.546  1.00  0.00     0.107 A 
ATOM     15  C   UNL     1     119.617  98.338  83.970  1.00  0.00     0.199 A 
ATOM     16  C   UNL     1     121.419  97.224  84.352  1.00  0.00     0.130 A 
ATOM     17  N   UNL     1     120.534  97.568  83.403  1.00  0.00    -0.245 NA
ENDBRANCH  12  13
ENDBRANCH  11  12
BRANCH  11  18
ATOM     18  C   UNL     1     117.879  98.140  87.989  1.00  0.00     0.001 A 
ATOM     19  C   UNL     1     117.948  96.841  88.433  1.00  0.00     0.009 A 
ATOM     20  C   UNL     1     117.847  99.150  88.916  1.00  0.00     0.048 A 
ATOM     21  C   UNL     1     117.982  96.571  89.808  1.00  0.00     0.021 A 
ATOM     22  C   UNL     1     117.882  98.893  90.286  1.00  0.00     0.041 A 
ATOM     23  C   UNL     1     117.951  97.587  90.734  1.00  0.00     0.042 A 
ATOM     24  Cl  UNL     1     117.757 100.801  88.331  1.00  0.00    -0.084 Cl
ATOM     25  Cl  UNL     1     117.991  97.253  92.458  1.00  0.00    -0.084 Cl
ENDBRANCH  11  18
ENDBRANCH   1  11
TORSDOF 6
ENDMDL
MODEL 9
REMARK VINA RESULT:      -3.9      1.199      1.596
REMARK SMILES Clc1ccc(COC(Cn2ccnc2)c2ccc(Cl)cc2Cl)c(Cl)c1
REMARK SMILES IDX 7 1 6 2 5 3 2 4 3 5 25 6 4 7 23 8 1 9 24 10 8 11 9 12 10 13
REMARK SMILES IDX 11 14 14 15 12 16 13 17 15 18 16 19 21 20 17 21 20 22 18 23
REMARK SMILES IDX 22 24 19 25
REMARK H PARENT
ROOT
ATOM      1  O   UNL     1     117.095  98.920  86.236  1.00  0.00    -0.367 OA
ENDROOT
BRANCH   1   2
ATOM      2  C   UNL     1     116.393  98.186  85.358  1.00  0.00     0.198 C 
BRANCH   2   3
ATOM      3  C   UNL     1     114.934  98.176  85.599  1.00  0.00    -0.004 A 
ATOM      4  C   UNL     1     112.113  97.955  85.829  1.00  0.00     0.042 A 
ATOM      5  C   UNL     1     112.901  96.891  85.428  1.00  0.00     0.021 A 
ATOM      6  C   UNL     1     112.771  99.128  86.111  1.00  0.00     0.041 A 
ATOM      7  C   UNL     1     114.268  96.974  85.309  1.00  0.00     0.009 A 
ATOM      8  C   UNL     1     114.166  99.227  85.996  1.00  0.00     0.048 A 
ATOM      9  Cl  UNL     1     110.366  97.822  85.965  1.00  0.00    -0.084 Cl
ATOM     10  Cl  UNL     1     114.962 100.726  86.467  1.00  0.00    -0.084 Cl
ENDBRANCH   2   3
ENDBRANCH   1   2
BRANCH   1  11
ATOM     11  C   UNL     1     118.303  98.697  86.716  1.00  0.00     0.170 C 
BRANCH  11  12
ATOM     12  C   UNL     1     118.232  97.395  87.553  1.00  0.00     0.160 C 
BRANCH  12  13
ATOM     13  N   UNL     1     118.139  97.750  88.935  1.00  0.00    -0.335 N 
ATOM     14  C   UNL     1     117.946  96.934  89.983  1.00  0.00     0.107 A 
ATOM     15  C   UNL     1     118.236  99.018  89.382  1.00  0.00     0.199 A 
ATOM     16  C   UNL     1     117.927  97.751  91.094  1.00  0.00     0.130 A 
ATOM     17  N   UNL     1     118.107  99.022  90.701  1.00  0.00    -0.245 NA
ENDBRANCH  12  13
ENDBRANCH  11  12
BRANCH  11  18
ATOM     18  C   UNL     1     119.334  98.471  85.626  1.00  0.00     0.001 A 
ATOM     19  C   UNL     1     118.989  98.480  84.295  1.00  0.00     0.009 A 
ATOM     20  C   UNL     1     120.645  98.247  85.962  1.00  0.00     0.048 A 
ATOM     21  C   UNL     1     119.967  98.263  83.316  1.00  0.00     0.021 A 
ATOM     22  C   UNL     1     121.626  98.031  84.996  1.00  0.00     0.041 A 
ATOM     23  C   UNL     1     121.280  98.040  83.658  1.00  0.00     0.042 A 
ATOM     24  Cl  UNL     1     121.066  98.237  87.665  1.00  0.00    -0.084 Cl
ATOM     25  Cl  UNL     1     122.508  97.765  82.432  1.00  0.00    -0.084 Cl
ENDBRANCH  11  18
ENDBRANCH   1  11
TORSDOF 6
ENDMDL
