MODEL 1
REMARK VINA RESULT:      -4.8      0.000      0.000
REMARK SMILES CC1=[NH+]c2ccc(Cl)cc2S(=O)(=O)N1
REMARK SMILES IDX 1 1 2 2 3 3 4 4 5 5 6 6 7 7 8 8 9 9 10 10 11 11 12 12 13 13
REMARK SMILES IDX 14 14
REMARK H PARENT 3 15 14 16
ROOT
ATOM      1  C   UNL     1     -19.975   1.243 -43.609  1.00  0.00     0.146 C 
ATOM      2  C   UNL     1     -18.831   0.578 -42.882  1.00  0.00     0.259 C 
ATOM      3  N   UNL     1     -18.845   0.611 -41.619  1.00  0.00    -0.243 N 
ATOM      4  C   UNL     1     -17.859   0.043 -40.777  1.00  0.00     0.147 A 
ATOM      5  C   UNL     1     -18.008   0.158 -39.392  1.00  0.00     0.055 A 
ATOM      6  C   UNL     1     -17.089  -0.370 -38.514  1.00  0.00     0.025 A 
ATOM      7  C   UNL     1     -15.981  -1.036 -38.967  1.00  0.00     0.042 A 
ATOM      8  Cl  UNL     1     -14.826  -1.699 -37.863  1.00  0.00    -0.084 Cl
ATOM      9  C   UNL     1     -15.833  -1.149 -40.330  1.00  0.00     0.049 A 
ATOM     10  C   UNL     1     -16.737  -0.630 -41.207  1.00  0.00     0.156 A 
ATOM     11  S   UNL     1     -16.507  -0.801 -42.940  1.00  0.00     0.332 S 
ATOM     12  O   UNL     1     -16.371  -2.234 -43.346  1.00  0.00    -0.179 OA
ATOM     13  O   UNL     1     -15.270  -0.007 -43.320  1.00  0.00    -0.179 OA
ATOM     14  N   UNL     1     -17.844  -0.023 -43.685  1.00  0.00    -0.166 N 
ATOM     15  H   UNL     1     -19.648   1.096 -41.151  1.00  0.00     0.312 HD
ATOM     16  H   UNL     1     -17.969   0.032 -44.709  1.00  0.00     0.327 HD
ENDROOT
TORSDOF 0
ENDMDL
MODEL 2
REMARK VINA RESULT:      -4.6      3.442      4.800
REMARK SMILES CC1=[NH+]c2ccc(Cl)cc2S(=O)(=O)N1
REMARK SMILES IDX 1 1 2 2 3 3 4 4 5 5 6 6 7 7 8 8 9 9 10 10 11 11 12 12 13 13
REMARK SMILES IDX 14 14
REMARK H PARENT 3 15 14 16
ROOT
ATOM      1  C   UNL     1     -17.452  -2.748 -36.046  1.00  0.00     0.146 C 
ATOM      2  C   UNL     1     -17.313  -2.123 -37.414  1.00  0.00     0.259 C 
ATOM      3  N   UNL     1     -18.359  -1.662 -37.953  1.00  0.00    -0.243 N 
ATOM      4  C   UNL     1     -18.417  -1.044 -39.226  1.00  0.00     0.147 A 
ATOM      5  C   UNL     1     -19.649  -0.580 -39.694  1.00  0.00     0.055 A 
ATOM      6  C   UNL     1     -19.780   0.029 -40.921  1.00  0.00     0.025 A 
ATOM      7  C   UNL     1     -18.695   0.208 -41.739  1.00  0.00     0.042 A 
ATOM      8  Cl  UNL     1     -18.860   0.974 -43.281  1.00  0.00    -0.084 Cl
ATOM      9  C   UNL     1     -17.483  -0.249 -41.279  1.00  0.00     0.049 A 
ATOM     10  C   UNL     1     -17.343  -0.854 -40.067  1.00  0.00     0.156 A 
ATOM     11  S   UNL     1     -15.773  -1.420 -39.521  1.00  0.00     0.332 S 
ATOM     12  O   UNL     1     -14.757  -0.322 -39.512  1.00  0.00    -0.179 OA
ATOM     13  O   UNL     1     -15.346  -2.550 -40.441  1.00  0.00    -0.179 OA
ATOM     14  N   UNL     1     -16.020  -2.111 -37.969  1.00  0.00    -0.166 N 
ATOM     15  H   UNL     1     -19.258  -1.740 -37.421  1.00  0.00     0.312 HD
ATOM     16  H   UNL     1     -15.260  -2.528 -37.407  1.00  0.00     0.327 HD
ENDROOT
TORSDOF 0
ENDMDL
MODEL 3
REMARK VINA RESULT:      -4.4      3.016      3.992
REMARK SMILES CC1=[NH+]c2ccc(Cl)cc2S(=O)(=O)N1
REMARK SMILES IDX 1 1 2 2 3 3 4 4 5 5 6 6 7 7 8 8 9 9 10 10 11 11 12 12 13 13
REMARK SMILES IDX 14 14
REMARK H PARENT 3 15 14 16
ROOT
ATOM      1  C   UNL     1     -20.475   1.355 -39.126  1.00  0.00     0.146 C 
ATOM      2  C   UNL     1     -19.242   0.672 -39.667  1.00  0.00     0.259 C 
ATOM      3  N   UNL     1     -19.116   0.606 -40.922  1.00  0.00    -0.243 N 
ATOM      4  C   UNL     1     -18.029   0.005 -41.603  1.00  0.00     0.147 A 
ATOM      5  C   UNL     1     -18.025   0.008 -43.001  1.00  0.00     0.055 A 
ATOM      6  C   UNL     1     -17.003  -0.558 -43.728  1.00  0.00     0.025 A 
ATOM      7  C   UNL     1     -15.937  -1.152 -43.103  1.00  0.00     0.042 A 
ATOM      8  Cl  UNL     1     -14.653  -1.864 -44.017  1.00  0.00    -0.084 Cl
ATOM      9  C   UNL     1     -15.941  -1.156 -41.728  1.00  0.00     0.049 A 
ATOM     10  C   UNL     1     -16.948  -0.599 -41.000  1.00  0.00     0.156 A 
ATOM     11  S   UNL     1     -16.910  -0.627 -39.244  1.00  0.00     0.332 S 
ATOM     12  O   UNL     1     -15.664   0.002 -38.704  1.00  0.00    -0.179 OA
ATOM     13  O   UNL     1     -17.023  -2.076 -38.804  1.00  0.00    -0.179 OA
ATOM     14  N   UNL     1     -18.338   0.166 -38.715  1.00  0.00    -0.166 N 
ATOM     15  H   UNL     1     -19.871   1.029 -41.513  1.00  0.00     0.312 HD
ATOM     16  H   UNL     1     -18.578   0.295 -37.719  1.00  0.00     0.327 HD
ENDROOT
TORSDOF 0
ENDMDL
MODEL 4
REMARK VINA RESULT:      -4.3      2.841      3.495
REMARK SMILES CC1=[NH+]c2ccc(Cl)cc2S(=O)(=O)N1
REMARK SMILES IDX 1 1 2 2 3 3 4 4 5 5 6 6 7 7 8 8 9 9 10 10 11 11 12 12 13 13
REMARK SMILES IDX 14 14
REMARK H PARENT 3 15 14 16
ROOT
ATOM      1  C   UNL     1     -16.057  -0.022 -43.255  1.00  0.00     0.146 C 
ATOM      2  C   UNL     1     -16.666  -0.342 -41.910  1.00  0.00     0.259 C 
ATOM      3  N   UNL     1     -15.926  -0.907 -41.055  1.00  0.00    -0.243 N 
ATOM      4  C   UNL     1     -16.326  -1.280 -39.749  1.00  0.00     0.147 A 
ATOM      5  C   UNL     1     -15.395  -1.898 -38.910  1.00  0.00     0.055 A 
ATOM      6  C   UNL     1     -15.714  -2.288 -37.630  1.00  0.00     0.025 A 
ATOM      7  C   UNL     1     -16.970  -2.082 -37.121  1.00  0.00     0.042 A 
ATOM      8  Cl  UNL     1     -17.370  -2.572 -35.511  1.00  0.00    -0.084 Cl
ATOM      9  C   UNL     1     -17.886  -1.474 -37.946  1.00  0.00     0.049 A 
ATOM     10  C   UNL     1     -17.580  -1.085 -39.215  1.00  0.00     0.156 A 
ATOM     11  S   UNL     1     -18.784  -0.310 -40.233  1.00  0.00     0.332 S 
ATOM     12  O   UNL     1     -19.350   0.917 -39.590  1.00  0.00    -0.179 OA
ATOM     13  O   UNL     1     -19.874  -1.329 -40.514  1.00  0.00    -0.179 OA
ATOM     14  N   UNL     1     -18.013   0.019 -41.731  1.00  0.00    -0.166 N 
ATOM     15  H   UNL     1     -14.936  -1.118 -41.328  1.00  0.00     0.312 HD
ATOM     16  H   UNL     1     -18.491   0.475 -42.525  1.00  0.00     0.327 HD
ENDROOT
TORSDOF 0
ENDMDL
MODEL 5
REMARK VINA RESULT:      -4.2      2.907      4.330
REMARK SMILES CC1=[NH+]c2ccc(Cl)cc2S(=O)(=O)N1
REMARK SMILES IDX 1 1 2 2 3 3 4 4 5 5 6 6 7 7 8 8 9 9 10 10 11 11 12 12 13 13
REMARK SMILES IDX 14 14
REMARK H PARENT 3 15 14 16
ROOT
ATOM      1  C   UNL     1     -15.503  -2.331 -38.132  1.00  0.00     0.146 C 
ATOM      2  C   UNL     1     -16.162  -1.719 -39.345  1.00  0.00     0.259 C 
ATOM      3  N   UNL     1     -17.207  -1.033 -39.158  1.00  0.00    -0.243 N 
ATOM      4  C   UNL     1     -17.954  -0.389 -40.174  1.00  0.00     0.147 A 
ATOM      5  C   UNL     1     -19.092   0.338 -39.814  1.00  0.00     0.055 A 
ATOM      6  C   UNL     1     -19.865   0.989 -40.748  1.00  0.00     0.025 A 
ATOM      7  C   UNL     1     -19.546   0.950 -42.081  1.00  0.00     0.042 A 
ATOM      8  Cl  UNL     1     -20.519   1.768 -43.254  1.00  0.00    -0.084 Cl
ATOM      9  C   UNL     1     -18.426   0.234 -42.434  1.00  0.00     0.049 A 
ATOM     10  C   UNL     1     -17.655  -0.414 -41.518  1.00  0.00     0.156 A 
ATOM     11  S   UNL     1     -16.233  -1.316 -42.017  1.00  0.00     0.332 S 
ATOM     12  O   UNL     1     -15.271  -0.461 -42.780  1.00  0.00    -0.179 OA
ATOM     13  O   UNL     1     -16.703  -2.490 -42.857  1.00  0.00    -0.179 OA
ATOM     14  N   UNL     1     -15.548  -1.972 -40.586  1.00  0.00    -0.166 N 
ATOM     15  H   UNL     1     -17.553  -0.928 -38.174  1.00  0.00     0.312 HD
ATOM     16  H   UNL     1     -14.695  -2.555 -40.581  1.00  0.00     0.327 HD
ENDROOT
TORSDOF 0
ENDMDL
MODEL 6
REMARK VINA RESULT:      -4.1      2.911      3.279
REMARK SMILES CC1=[NH+]c2ccc(Cl)cc2S(=O)(=O)N1
REMARK SMILES IDX 1 1 2 2 3 3 4 4 5 5 6 6 7 7 8 8 9 9 10 10 11 11 12 12 13 13
REMARK SMILES IDX 14 14
REMARK H PARENT 3 15 14 16
ROOT
ATOM      1  C   UNL     1     -17.102   0.277 -42.910  1.00  0.00     0.146 C 
ATOM      2  C   UNL     1     -17.130  -0.396 -41.558  1.00  0.00     0.259 C 
ATOM      3  N   UNL     1     -18.195  -0.306 -40.884  1.00  0.00    -0.243 N 
ATOM      4  C   UNL     1     -18.400  -0.872 -39.603  1.00  0.00     0.147 A 
ATOM      5  C   UNL     1     -19.636  -0.689 -38.976  1.00  0.00     0.055 A 
ATOM      6  C   UNL     1     -19.906  -1.210 -37.731  1.00  0.00     0.025 A 
ATOM      7  C   UNL     1     -18.963  -1.937 -37.051  1.00  0.00     0.042 A 
ATOM      8  Cl  UNL     1     -19.302  -2.591 -35.486  1.00  0.00    -0.084 Cl
ATOM      9  C   UNL     1     -17.747  -2.116 -37.667  1.00  0.00     0.049 A 
ATOM     10  C   UNL     1     -17.471  -1.604 -38.898  1.00  0.00     0.156 A 
ATOM     11  S   UNL     1     -15.903  -1.861 -39.647  1.00  0.00     0.332 S 
ATOM     12  O   UNL     1     -15.571  -3.315 -39.762  1.00  0.00    -0.179 OA
ATOM     13  O   UNL     1     -14.868  -1.131 -38.809  1.00  0.00    -0.179 OA
ATOM     14  N   UNL     1     -15.957  -1.068 -41.169  1.00  0.00    -0.166 N 
ATOM     15  H   UNL     1     -18.994   0.229 -41.302  1.00  0.00     0.312 HD
ATOM     16  H   UNL     1     -15.163  -1.055 -41.829  1.00  0.00     0.327 HD
ENDROOT
TORSDOF 0
ENDMDL
MODEL 7
REMARK VINA RESULT:      -4.1      3.187      4.142
REMARK SMILES CC1=[NH+]c2ccc(Cl)cc2S(=O)(=O)N1
REMARK SMILES IDX 1 1 2 2 3 3 4 4 5 5 6 6 7 7 8 8 9 9 10 10 11 11 12 12 13 13
REMARK SMILES IDX 14 14
REMARK H PARENT 3 15 14 16
ROOT
ATOM      1  C   UNL     1     -19.270   0.927 -38.798  1.00  0.00     0.146 C 
ATOM      2  C   UNL     1     -18.290  -0.025 -39.442  1.00  0.00     0.259 C 
ATOM      3  N   UNL     1     -17.923   0.229 -40.624  1.00  0.00    -0.243 N 
ATOM      4  C   UNL     1     -17.014  -0.549 -41.381  1.00  0.00     0.147 A 
ATOM      5  C   UNL     1     -16.699  -0.143 -42.681  1.00  0.00     0.055 A 
ATOM      6  C   UNL     1     -15.825  -0.851 -43.474  1.00  0.00     0.025 A 
ATOM      7  C   UNL     1     -15.223  -1.993 -43.016  1.00  0.00     0.042 A 
ATOM      8  Cl  UNL     1     -14.125  -2.883 -44.014  1.00  0.00    -0.084 Cl
ATOM      9  C   UNL     1     -15.533  -2.394 -41.737  1.00  0.00     0.049 A 
ATOM     10  C   UNL     1     -16.397  -1.701 -40.945  1.00  0.00     0.156 A 
ATOM     11  S   UNL     1     -16.762  -2.250 -39.317  1.00  0.00     0.332 S 
ATOM     12  O   UNL     1     -15.525  -2.395 -38.488  1.00  0.00    -0.179 OA
ATOM     13  O   UNL     1     -17.498  -3.573 -39.432  1.00  0.00    -0.179 OA
ATOM     14  N   UNL     1     -17.874  -1.119 -38.661  1.00  0.00    -0.166 N 
ATOM     15  H   UNL     1     -18.317   1.083 -41.086  1.00  0.00     0.312 HD
ATOM     16  H   UNL     1     -18.263  -1.195 -37.708  1.00  0.00     0.327 HD
ENDROOT
TORSDOF 0
ENDMDL
MODEL 8
REMARK VINA RESULT:      -4.0      3.883      5.151
REMARK SMILES CC1=[NH+]c2ccc(Cl)cc2S(=O)(=O)N1
REMARK SMILES IDX 1 1 2 2 3 3 4 4 5 5 6 6 7 7 8 8 9 9 10 10 11 11 12 12 13 13
REMARK SMILES IDX 14 14
REMARK H PARENT 3 15 14 16
ROOT
ATOM      1  C   UNL     1     -18.775  -2.723 -35.202  1.00  0.00     0.146 C 
ATOM      2  C   UNL     1     -18.127  -2.322 -36.505  1.00  0.00     0.259 C 
ATOM      3  N   UNL     1     -18.800  -1.600 -37.293  1.00  0.00    -0.243 N 
ATOM      4  C   UNL     1     -18.355  -1.131 -38.553  1.00  0.00     0.147 A 
ATOM      5  C   UNL     1     -19.213  -0.336 -39.317  1.00  0.00     0.055 A 
ATOM      6  C   UNL     1     -18.848   0.154 -40.550  1.00  0.00     0.025 A 
ATOM      7  C   UNL     1     -17.614  -0.121 -41.082  1.00  0.00     0.042 A 
ATOM      8  Cl  UNL     1     -17.155   0.495 -42.632  1.00  0.00    -0.084 Cl
ATOM      9  C   UNL     1     -16.770  -0.903 -40.330  1.00  0.00     0.049 A 
ATOM     10  C   UNL     1     -17.123  -1.393 -39.109  1.00  0.00     0.156 A 
ATOM     11  S   UNL     1     -16.010  -2.388 -38.184  1.00  0.00     0.332 S 
ATOM     12  O   UNL     1     -14.706  -1.693 -37.947  1.00  0.00    -0.179 OA
ATOM     13  O   UNL     1     -15.805  -3.683 -38.949  1.00  0.00    -0.179 OA
ATOM     14  N   UNL     1     -16.821  -2.796 -36.727  1.00  0.00    -0.166 N 
ATOM     15  H   UNL     1     -19.766  -1.320 -36.996  1.00  0.00     0.312 HD
ATOM     16  H   UNL     1     -16.397  -3.381 -35.988  1.00  0.00     0.327 HD
ENDROOT
TORSDOF 0
ENDMDL
MODEL 9
REMARK VINA RESULT:      -3.9      1.739      2.099
REMARK SMILES CC1=[NH+]c2ccc(Cl)cc2S(=O)(=O)N1
REMARK SMILES IDX 1 1 2 2 3 3 4 4 5 5 6 6 7 7 8 8 9 9 10 10 11 11 12 12 13 13
REMARK SMILES IDX 14 14
REMARK H PARENT 3 15 14 16
ROOT
ATOM      1  C   UNL     1     -18.204   0.799 -43.068  1.00  0.00     0.146 C 
ATOM      2  C   UNL     1     -17.543  -0.314 -42.290  1.00  0.00     0.259 C 
ATOM      3  N   UNL     1     -17.152  -0.054 -41.118  1.00  0.00    -0.243 N 
ATOM      4  C   UNL     1     -16.516  -0.970 -40.246  1.00  0.00     0.147 A 
ATOM      5  C   UNL     1     -16.138  -0.538 -38.972  1.00  0.00     0.055 A 
ATOM      6  C   UNL     1     -15.515  -1.374 -38.074  1.00  0.00     0.025 A 
ATOM      7  C   UNL     1     -15.238  -2.677 -38.397  1.00  0.00     0.042 A 
ATOM      8  Cl  UNL     1     -14.454  -3.727 -37.268  1.00  0.00    -0.084 Cl
ATOM      9  C   UNL     1     -15.609  -3.102 -39.651  1.00  0.00     0.049 A 
ATOM     10  C   UNL     1     -16.225  -2.283 -40.547  1.00  0.00     0.156 A 
ATOM     11  S   UNL     1     -16.682  -2.871 -42.138  1.00  0.00     0.332 S 
ATOM     12  O   UNL     1     -17.570  -4.072 -42.054  1.00  0.00    -0.179 OA
ATOM     13  O   UNL     1     -15.405  -3.191 -42.894  1.00  0.00    -0.179 OA
ATOM     14  N   UNL     1     -17.421  -1.551 -42.949  1.00  0.00    -0.166 N 
ATOM     15  H   UNL     1     -17.310   0.917 -40.753  1.00  0.00     0.312 HD
ATOM     16  H   UNL     1     -17.789  -1.613 -43.913  1.00  0.00     0.327 HD
ENDROOT
TORSDOF 0
ENDMDL
