MODEL 1
REMARK VINA RESULT:      -3.3      0.000      0.000
REMARK SMILES S=C1SCN(Cc2ccccc2)C[NH+]1Cc1ccccc1
REMARK SMILES IDX 1 1 2 2 3 3 4 4 5 5 13 6 14 7 15 9 16 10 17 11 21 12 18 13
REMARK SMILES IDX 20 14 19 15 6 16 7 17 8 18 12 19 9 20 11 21 10 22
REMARK H PARENT 14 8
ROOT
ATOM      1  S   UNL     1     -15.842  -0.605 -37.691  1.00  0.00    -0.009 S 
ATOM      2  C   UNL     1     -16.564  -1.361 -38.634  1.00  0.00     0.234 C 
ATOM      3  S   UNL     1     -15.732  -2.135 -40.010  1.00  0.00    -0.040 SA
ATOM      4  C   UNL     1     -17.010  -2.982 -40.974  1.00  0.00     0.172 C 
ATOM      5  N   UNL     1     -18.341  -2.540 -40.704  1.00  0.00    -0.242 NA
ATOM      6  C   UNL     1     -18.508  -1.422 -39.865  1.00  0.00     0.364 C 
ATOM      7  N   UNL     1     -17.974  -1.551 -38.551  1.00  0.00    -0.271 N 
ATOM      8  H   UNL     1     -18.385  -0.803 -37.940  1.00  0.00     0.356 HD
ENDROOT
BRANCH   7   9
ATOM      9  C   UNL     1     -18.185  -2.807 -37.898  1.00  0.00     0.306 C 
BRANCH   9  10
ATOM     10  C   UNL     1     -18.522  -2.744 -36.481  1.00  0.00     0.007 A 
ATOM     11  C   UNL     1     -17.591  -3.053 -35.515  1.00  0.00     0.009 A 
ATOM     12  C   UNL     1     -19.783  -2.375 -36.075  1.00  0.00     0.009 A 
ATOM     13  C   UNL     1     -17.903  -3.000 -34.163  1.00  0.00     0.001 A 
ATOM     14  C   UNL     1     -20.110  -2.317 -34.718  1.00  0.00     0.001 A 
ATOM     15  C   UNL     1     -19.159  -2.632 -33.784  1.00  0.00     0.000 A 
ENDBRANCH   9  10
ENDBRANCH   7   9
BRANCH   5  16
ATOM     16  C   UNL     1     -19.120  -2.504 -41.922  1.00  0.00     0.126 C 
BRANCH  16  17
ATOM     17  C   UNL     1     -19.266  -1.198 -42.539  1.00  0.00    -0.034 A 
ATOM     18  C   UNL     1     -18.202  -0.588 -43.155  1.00  0.00     0.005 A 
ATOM     19  C   UNL     1     -20.466  -0.536 -42.533  1.00  0.00     0.005 A 
ATOM     20  C   UNL     1     -18.373   0.667 -43.744  1.00  0.00     0.000 A 
ATOM     21  C   UNL     1     -20.659   0.697 -43.106  1.00  0.00     0.000 A 
ATOM     22  C   UNL     1     -19.585   1.310 -43.725  1.00  0.00     0.000 A 
ENDBRANCH  16  17
ENDBRANCH   5  16
TORSDOF 4
ENDMDL
MODEL 2
REMARK VINA RESULT:      -3.2      2.841      7.253
REMARK SMILES S=C1SCN(Cc2ccccc2)C[NH+]1Cc1ccccc1
REMARK SMILES IDX 1 1 2 2 3 3 4 4 5 5 13 6 14 7 15 9 16 10 17 11 21 12 18 13
REMARK SMILES IDX 20 14 19 15 6 16 7 17 8 18 12 19 9 20 11 21 10 22
REMARK H PARENT 14 8
ROOT
ATOM      1  S   UNL     1     -18.461   0.477 -39.080  1.00  0.00    -0.009 S 
ATOM      2  C   UNL     1     -18.956  -0.725 -38.539  1.00  0.00     0.234 C 
ATOM      3  S   UNL     1     -20.567  -0.785 -37.773  1.00  0.00    -0.040 SA
ATOM      4  C   UNL     1     -20.804  -2.489 -37.206  1.00  0.00     0.172 C 
ATOM      5  N   UNL     1     -19.599  -3.251 -37.110  1.00  0.00    -0.242 NA
ATOM      6  C   UNL     1     -18.377  -2.580 -37.305  1.00  0.00     0.364 C 
ATOM      7  N   UNL     1     -18.217  -1.943 -38.570  1.00  0.00    -0.271 N 
ATOM      8  H   UNL     1     -17.201  -1.725 -38.716  1.00  0.00     0.356 HD
ENDROOT
BRANCH   7   9
ATOM      9  C   UNL     1     -18.670  -2.676 -39.713  1.00  0.00     0.306 C 
BRANCH   9  10
ATOM     10  C   UNL     1     -17.642  -3.073 -40.668  1.00  0.00     0.007 A 
ATOM     11  C   UNL     1     -17.905  -4.002 -41.650  1.00  0.00     0.009 A 
ATOM     12  C   UNL     1     -16.381  -2.528 -40.607  1.00  0.00     0.009 A 
ATOM     13  C   UNL     1     -16.932  -4.389 -42.561  1.00  0.00     0.001 A 
ATOM     14  C   UNL     1     -15.392  -2.909 -41.518  1.00  0.00     0.001 A 
ATOM     15  C   UNL     1     -15.688  -3.837 -42.482  1.00  0.00     0.000 A 
ENDBRANCH   9  10
ENDBRANCH   7   9
BRANCH   5  16
ATOM     16  C   UNL     1     -19.637  -4.114 -35.951  1.00  0.00     0.126 C 
BRANCH  16  17
ATOM     17  C   UNL     1     -19.013  -3.588 -34.752  1.00  0.00    -0.034 A 
ATOM     18  C   UNL     1     -19.523  -2.481 -34.120  1.00  0.00     0.005 A 
ATOM     19  C   UNL     1     -17.901  -4.176 -34.207  1.00  0.00     0.005 A 
ATOM     20  C   UNL     1     -18.905  -1.999 -32.964  1.00  0.00     0.000 A 
ATOM     21  C   UNL     1     -17.276  -3.722 -33.072  1.00  0.00     0.000 A 
ATOM     22  C   UNL     1     -17.792  -2.607 -32.438  1.00  0.00     0.000 A 
ENDBRANCH  16  17
ENDBRANCH   5  16
TORSDOF 4
ENDMDL
MODEL 3
REMARK VINA RESULT:      -3.2      2.474      7.251
REMARK SMILES S=C1SCN(Cc2ccccc2)C[NH+]1Cc1ccccc1
REMARK SMILES IDX 1 1 2 2 3 3 4 4 5 5 13 6 14 7 15 9 16 10 17 11 21 12 18 13
REMARK SMILES IDX 20 14 19 15 6 16 7 17 8 18 12 19 9 20 11 21 10 22
REMARK H PARENT 14 8
ROOT
ATOM      1  S   UNL     1     -19.871  -2.048 -40.708  1.00  0.00    -0.009 S 
ATOM      2  C   UNL     1     -18.962  -2.599 -39.785  1.00  0.00     0.234 C 
ATOM      3  S   UNL     1     -19.214  -4.240 -39.128  1.00  0.00    -0.040 SA
ATOM      4  C   UNL     1     -17.845  -4.550 -37.983  1.00  0.00     0.172 C 
ATOM      5  N   UNL     1     -17.156  -3.375 -37.556  1.00  0.00    -0.242 NA
ATOM      6  C   UNL     1     -17.689  -2.126 -37.927  1.00  0.00     0.364 C 
ATOM      7  N   UNL     1     -17.809  -1.898 -39.328  1.00  0.00    -0.271 N 
ATOM      8  H   UNL     1     -17.944  -0.871 -39.497  1.00  0.00     0.356 HD
ENDROOT
BRANCH   7   9
ATOM      9  C   UNL     1     -16.712  -2.329 -40.140  1.00  0.00     0.306 C 
BRANCH   9  10
ATOM     10  C   UNL     1     -16.634  -1.747 -41.475  1.00  0.00     0.007 A 
ATOM     11  C   UNL     1     -16.652  -2.541 -42.599  1.00  0.00     0.009 A 
ATOM     12  C   UNL     1     -16.538  -0.385 -41.640  1.00  0.00     0.009 A 
ATOM     13  C   UNL     1     -16.575  -1.996 -43.873  1.00  0.00     0.001 A 
ATOM     14  C   UNL     1     -16.459   0.177 -42.918  1.00  0.00     0.001 A 
ATOM     15  C   UNL     1     -16.479  -0.644 -44.015  1.00  0.00     0.000 A 
ENDBRANCH   9  10
ENDBRANCH   7   9
BRANCH   5  16
ATOM     16  C   UNL     1     -16.784  -3.483 -36.163  1.00  0.00     0.126 C 
BRANCH  16  17
ATOM     17  C   UNL     1     -17.851  -3.257 -35.205  1.00  0.00    -0.034 A 
ATOM     18  C   UNL     1     -17.796  -2.204 -34.326  1.00  0.00     0.005 A 
ATOM     19  C   UNL     1     -18.947  -4.078 -35.149  1.00  0.00     0.005 A 
ATOM     20  C   UNL     1     -18.840  -2.007 -33.419  1.00  0.00     0.000 A 
ATOM     21  C   UNL     1     -19.985  -3.905 -34.268  1.00  0.00     0.000 A 
ATOM     22  C   UNL     1     -19.927  -2.844 -33.383  1.00  0.00     0.000 A 
ENDBRANCH  16  17
ENDBRANCH   5  16
TORSDOF 4
ENDMDL
MODEL 4
REMARK VINA RESULT:      -2.4      2.519      3.259
REMARK SMILES S=C1SCN(Cc2ccccc2)C[NH+]1Cc1ccccc1
REMARK SMILES IDX 1 1 2 2 3 3 4 4 5 5 13 6 14 7 15 9 16 10 17 11 21 12 18 13
REMARK SMILES IDX 20 14 19 15 6 16 7 17 8 18 12 19 9 20 11 21 10 22
REMARK H PARENT 14 8
ROOT
ATOM      1  S   UNL     1     -20.756  -3.174 -37.953  1.00  0.00    -0.009 S 
ATOM      2  C   UNL     1     -19.838  -2.221 -38.435  1.00  0.00     0.234 C 
ATOM      3  S   UNL     1     -20.409  -0.714 -39.201  1.00  0.00    -0.040 SA
ATOM      4  C   UNL     1     -18.928   0.210 -39.685  1.00  0.00     0.172 C 
ATOM      5  N   UNL     1     -17.737  -0.576 -39.742  1.00  0.00    -0.242 NA
ATOM      6  C   UNL     1     -17.856  -1.969 -39.577  1.00  0.00     0.364 C 
ATOM      7  N   UNL     1     -18.428  -2.398 -38.345  1.00  0.00    -0.271 N 
ATOM      8  H   UNL     1     -18.218  -3.417 -38.207  1.00  0.00     0.356 HD
ENDROOT
BRANCH   7   9
ATOM      9  C   UNL     1     -17.997  -1.705 -37.168  1.00  0.00     0.306 C 
BRANCH   9  10
ATOM     10  C   UNL     1     -17.866  -2.513 -35.961  1.00  0.00     0.007 A 
ATOM     11  C   UNL     1     -18.383  -2.086 -34.759  1.00  0.00     0.009 A 
ATOM     12  C   UNL     1     -17.216  -3.725 -35.996  1.00  0.00     0.009 A 
ATOM     13  C   UNL     1     -18.259  -2.845 -33.605  1.00  0.00     0.001 A 
ATOM     14  C   UNL     1     -17.084  -4.500 -34.841  1.00  0.00     0.001 A 
ATOM     15  C   UNL     1     -17.611  -4.043 -33.662  1.00  0.00     0.000 A 
ENDBRANCH   9  10
ENDBRANCH   7   9
BRANCH   5  16
ATOM     16  C   UNL     1     -16.913  -0.167 -40.858  1.00  0.00     0.126 C 
BRANCH  16  17
ATOM     17  C   UNL     1     -16.792  -1.129 -41.938  1.00  0.00    -0.034 A 
ATOM     18  C   UNL     1     -15.943  -0.901 -42.992  1.00  0.00     0.005 A 
ATOM     19  C   UNL     1     -17.512  -2.295 -41.941  1.00  0.00     0.005 A 
ATOM     20  C   UNL     1     -15.842  -1.847 -44.015  1.00  0.00     0.000 A 
ATOM     21  C   UNL     1     -17.431  -3.240 -42.934  1.00  0.00     0.000 A 
ATOM     22  C   UNL     1     -16.575  -3.007 -43.995  1.00  0.00     0.000 A 
ENDBRANCH  16  17
ENDBRANCH   5  16
TORSDOF 4
ENDMDL
MODEL 5
REMARK VINA RESULT:      -2.2      2.051      7.126
REMARK SMILES S=C1SCN(Cc2ccccc2)C[NH+]1Cc1ccccc1
REMARK SMILES IDX 1 1 2 2 3 3 4 4 5 5 13 6 14 7 15 9 16 10 17 11 21 12 18 13
REMARK SMILES IDX 20 14 19 15 6 16 7 17 8 18 12 19 9 20 11 21 10 22
REMARK H PARENT 14 8
ROOT
ATOM      1  S   UNL     1     -19.972   0.383 -40.254  1.00  0.00    -0.009 S 
ATOM      2  C   UNL     1     -19.640  -0.865 -39.691  1.00  0.00     0.234 C 
ATOM      3  S   UNL     1     -20.797  -2.222 -39.737  1.00  0.00    -0.040 SA
ATOM      4  C   UNL     1     -19.991  -3.613 -38.904  1.00  0.00     0.172 C 
ATOM      5  N   UNL     1     -18.882  -3.246 -38.083  1.00  0.00    -0.242 NA
ATOM      6  C   UNL     1     -18.634  -1.874 -37.885  1.00  0.00     0.364 C 
ATOM      7  N   UNL     1     -18.385  -1.115 -39.064  1.00  0.00    -0.271 N 
ATOM      8  H   UNL     1     -17.947  -0.200 -38.796  1.00  0.00     0.356 HD
ENDROOT
BRANCH   7   9
ATOM      9  C   UNL     1     -17.543  -1.725 -40.049  1.00  0.00     0.306 C 
BRANCH   9  10
ATOM     10  C   UNL     1     -17.687  -1.227 -41.412  1.00  0.00     0.007 A 
ATOM     11  C   UNL     1     -18.620  -1.763 -42.270  1.00  0.00     0.009 A 
ATOM     12  C   UNL     1     -16.887  -0.208 -41.873  1.00  0.00     0.009 A 
ATOM     13  C   UNL     1     -18.761  -1.299 -43.570  1.00  0.00     0.001 A 
ATOM     14  C   UNL     1     -17.019   0.269 -43.180  1.00  0.00     0.001 A 
ATOM     15  C   UNL     1     -17.958  -0.288 -44.007  1.00  0.00     0.000 A 
ENDBRANCH   9  10
ENDBRANCH   7   9
BRANCH   5  16
ATOM     16  C   UNL     1     -18.856  -4.046 -36.878  1.00  0.00     0.126 C 
BRANCH  16  17
ATOM     17  C   UNL     1     -18.908  -3.308 -35.630  1.00  0.00    -0.034 A 
ATOM     18  C   UNL     1     -20.099  -2.829 -35.145  1.00  0.00     0.005 A 
ATOM     19  C   UNL     1     -17.777  -3.069 -34.893  1.00  0.00     0.005 A 
ATOM     20  C   UNL     1     -20.121  -2.126 -33.938  1.00  0.00     0.000 A 
ATOM     21  C   UNL     1     -17.773  -2.382 -33.704  1.00  0.00     0.000 A 
ATOM     22  C   UNL     1     -18.974  -1.900 -33.218  1.00  0.00     0.000 A 
ENDBRANCH  16  17
ENDBRANCH   5  16
TORSDOF 4
ENDMDL
MODEL 6
REMARK VINA RESULT:      -2.0      1.633      6.754
REMARK SMILES S=C1SCN(Cc2ccccc2)C[NH+]1Cc1ccccc1
REMARK SMILES IDX 1 1 2 2 3 3 4 4 5 5 13 6 14 7 15 9 16 10 17 11 21 12 18 13
REMARK SMILES IDX 20 14 19 15 6 16 7 17 8 18 12 19 9 20 11 21 10 22
REMARK H PARENT 14 8
ROOT
ATOM      1  S   UNL     1     -19.479  -4.148 -42.498  1.00  0.00    -0.009 S 
ATOM      2  C   UNL     1     -18.577  -3.465 -41.660  1.00  0.00     0.234 C 
ATOM      3  S   UNL     1     -17.045  -4.229 -41.158  1.00  0.00    -0.040 SA
ATOM      4  C   UNL     1     -16.201  -3.035 -40.089  1.00  0.00     0.172 C 
ATOM      5  N   UNL     1     -17.046  -2.007 -39.570  1.00  0.00    -0.242 NA
ATOM      6  C   UNL     1     -18.431  -2.112 -39.804  1.00  0.00     0.364 C 
ATOM      7  N   UNL     1     -18.826  -2.150 -41.172  1.00  0.00    -0.271 N 
ATOM      8  H   UNL     1     -19.854  -1.948 -41.237  1.00  0.00     0.356 HD
ENDROOT
BRANCH   7   9
ATOM      9  C   UNL     1     -18.152  -1.245 -42.054  1.00  0.00     0.306 C 
BRANCH   9  10
ATOM     10  C   UNL     1     -18.971  -0.188 -42.635  1.00  0.00     0.007 A 
ATOM     11  C   UNL     1     -18.706   1.139 -42.378  1.00  0.00     0.009 A 
ATOM     12  C   UNL     1     -20.033  -0.493 -43.453  1.00  0.00     0.009 A 
ATOM     13  C   UNL     1     -19.482   2.152 -42.923  1.00  0.00     0.001 A 
ATOM     14  C   UNL     1     -20.822   0.517 -44.008  1.00  0.00     0.001 A 
ATOM     15  C   UNL     1     -20.530   1.827 -43.731  1.00  0.00     0.000 A 
ENDBRANCH   9  10
ENDBRANCH   7   9
BRANCH   5  16
ATOM     16  C   UNL     1     -16.685  -1.694 -38.206  1.00  0.00     0.126 C 
BRANCH  16  17
ATOM     17  C   UNL     1     -17.699  -1.971 -37.205  1.00  0.00    -0.034 A 
ATOM     18  C   UNL     1     -17.443  -2.825 -36.162  1.00  0.00     0.005 A 
ATOM     19  C   UNL     1     -18.938  -1.389 -37.263  1.00  0.00     0.005 A 
ATOM     20  C   UNL     1     -18.435  -3.070 -35.210  1.00  0.00     0.000 A 
ATOM     21  C   UNL     1     -19.930  -1.613 -36.340  1.00  0.00     0.000 A 
ATOM     22  C   UNL     1     -19.669  -2.474 -35.290  1.00  0.00     0.000 A 
ENDBRANCH  16  17
ENDBRANCH   5  16
TORSDOF 4
ENDMDL
MODEL 7
REMARK VINA RESULT:      -1.7      2.477      3.586
REMARK SMILES S=C1SCN(Cc2ccccc2)C[NH+]1Cc1ccccc1
REMARK SMILES IDX 1 1 2 2 3 3 4 4 5 5 13 6 14 7 15 9 16 10 17 11 21 12 18 13
REMARK SMILES IDX 20 14 19 15 6 16 7 17 8 18 12 19 9 20 11 21 10 22
REMARK H PARENT 14 8
ROOT
ATOM      1  S   UNL     1     -20.200  -3.966 -38.592  1.00  0.00    -0.009 S 
ATOM      2  C   UNL     1     -19.437  -2.842 -38.961  1.00  0.00     0.234 C 
ATOM      3  S   UNL     1     -20.174  -1.507 -39.889  1.00  0.00    -0.040 SA
ATOM      4  C   UNL     1     -18.863  -0.287 -40.164  1.00  0.00     0.172 C 
ATOM      5  N   UNL     1     -17.540  -0.792 -39.979  1.00  0.00    -0.242 NA
ATOM      6  C   UNL     1     -17.386  -2.175 -39.765  1.00  0.00     0.364 C 
ATOM      7  N   UNL     1     -18.060  -2.703 -38.626  1.00  0.00    -0.271 N 
ATOM      8  H   UNL     1     -17.664  -3.649 -38.402  1.00  0.00     0.356 HD
ENDROOT
BRANCH   7   9
ATOM      9  C   UNL     1     -18.001  -1.917 -37.431  1.00  0.00     0.306 C 
BRANCH   9  10
ATOM     10  C   UNL     1     -17.862  -2.658 -36.182  1.00  0.00     0.007 A 
ATOM     11  C   UNL     1     -17.154  -3.837 -36.131  1.00  0.00     0.009 A 
ATOM     12  C   UNL     1     -18.439  -2.194 -35.024  1.00  0.00     0.009 A 
ATOM     13  C   UNL     1     -17.020  -4.552 -34.949  1.00  0.00     0.001 A 
ATOM     14  C   UNL     1     -18.311  -2.903 -33.827  1.00  0.00     0.001 A 
ATOM     15  C   UNL     1     -17.601  -4.074 -33.812  1.00  0.00     0.000 A 
ENDBRANCH   9  10
ENDBRANCH   7   9
BRANCH   5  16
ATOM     16  C   UNL     1     -16.640  -0.228 -40.960  1.00  0.00     0.126 C 
BRANCH  16  17
ATOM     17  C   UNL     1     -16.001  -1.180 -41.850  1.00  0.00    -0.034 A 
ATOM     18  C   UNL     1     -16.336  -1.235 -43.179  1.00  0.00     0.005 A 
ATOM     19  C   UNL     1     -15.040  -2.047 -41.398  1.00  0.00     0.005 A 
ATOM     20  C   UNL     1     -15.701  -2.157 -44.015  1.00  0.00     0.000 A 
ATOM     21  C   UNL     1     -14.401  -2.961 -42.198  1.00  0.00     0.000 A 
ATOM     22  C   UNL     1     -14.742  -3.016 -43.537  1.00  0.00     0.000 A 
ENDBRANCH  16  17
ENDBRANCH   5  16
TORSDOF 4
ENDMDL
MODEL 8
REMARK VINA RESULT:      -1.1      2.707      4.241
REMARK SMILES S=C1SCN(Cc2ccccc2)C[NH+]1Cc1ccccc1
REMARK SMILES IDX 1 1 2 2 3 3 4 4 5 5 13 6 14 7 15 9 16 10 17 11 21 12 18 13
REMARK SMILES IDX 20 14 19 15 6 16 7 17 8 18 12 19 9 20 11 21 10 22
REMARK H PARENT 14 8
ROOT
ATOM      1  S   UNL     1     -19.798  -2.250 -33.759  1.00  0.00    -0.009 S 
ATOM      2  C   UNL     1     -19.730  -2.194 -35.164  1.00  0.00     0.234 C 
ATOM      3  S   UNL     1     -20.830  -1.134 -36.087  1.00  0.00    -0.040 SA
ATOM      4  C   UNL     1     -20.425  -1.371 -37.836  1.00  0.00     0.172 C 
ATOM      5  N   UNL     1     -19.682  -2.559 -38.114  1.00  0.00    -0.242 NA
ATOM      6  C   UNL     1     -19.483  -3.473 -37.062  1.00  0.00     0.364 C 
ATOM      7  N   UNL     1     -18.799  -2.963 -35.921  1.00  0.00    -0.271 N 
ATOM      8  H   UNL     1     -18.463  -3.767 -35.336  1.00  0.00     0.356 HD
ENDROOT
BRANCH   7   9
ATOM      9  C   UNL     1     -17.674  -2.116 -36.179  1.00  0.00     0.306 C 
BRANCH   9  10
ATOM     10  C   UNL     1     -16.539  -2.745 -36.845  1.00  0.00     0.007 A 
ATOM     11  C   UNL     1     -16.675  -3.950 -37.497  1.00  0.00     0.009 A 
ATOM     12  C   UNL     1     -15.301  -2.147 -36.833  1.00  0.00     0.009 A 
ATOM     13  C   UNL     1     -15.600  -4.557 -38.130  1.00  0.00     0.001 A 
ATOM     14  C   UNL     1     -14.210  -2.748 -37.466  1.00  0.00     0.001 A 
ATOM     15  C   UNL     1     -14.381  -3.947 -38.105  1.00  0.00     0.000 A 
ENDBRANCH   9  10
ENDBRANCH   7   9
BRANCH   5  16
ATOM     16  C   UNL     1     -20.121  -3.153 -39.357  1.00  0.00     0.126 C 
BRANCH  16  17
ATOM     17  C   UNL     1     -19.289  -2.881 -40.514  1.00  0.00    -0.034 A 
ATOM     18  C   UNL     1     -17.923  -2.827 -40.401  1.00  0.00     0.005 A 
ATOM     19  C   UNL     1     -19.835  -2.676 -41.754  1.00  0.00     0.005 A 
ATOM     20  C   UNL     1     -17.145  -2.568 -41.533  1.00  0.00     0.000 A 
ATOM     21  C   UNL     1     -19.094  -2.421 -42.881  1.00  0.00     0.000 A 
ATOM     22  C   UNL     1     -17.717  -2.366 -42.765  1.00  0.00     0.000 A 
ENDBRANCH  16  17
ENDBRANCH   5  16
TORSDOF 4
ENDMDL
MODEL 9
REMARK VINA RESULT:      -0.9      2.556      3.366
REMARK SMILES S=C1SCN(Cc2ccccc2)C[NH+]1Cc1ccccc1
REMARK SMILES IDX 1 1 2 2 3 3 4 4 5 5 13 6 14 7 15 9 16 10 17 11 21 12 18 13
REMARK SMILES IDX 20 14 19 15 6 16 7 17 8 18 12 19 9 20 11 21 10 22
REMARK H PARENT 14 8
ROOT
ATOM      1  S   UNL     1     -19.951  -3.455 -37.810  1.00  0.00    -0.009 S 
ATOM      2  C   UNL     1     -18.826  -2.682 -38.157  1.00  0.00     0.234 C 
ATOM      3  S   UNL     1     -18.996  -0.945 -38.530  1.00  0.00    -0.040 SA
ATOM      4  C   UNL     1     -17.337  -0.342 -38.934  1.00  0.00     0.172 C 
ATOM      5  N   UNL     1     -16.400  -1.369 -39.261  1.00  0.00    -0.242 NA
ATOM      6  C   UNL     1     -16.882  -2.685 -39.387  1.00  0.00     0.364 C 
ATOM      7  N   UNL     1     -17.512  -3.226 -38.230  1.00  0.00    -0.271 N 
ATOM      8  H   UNL     1     -17.577  -4.269 -38.332  1.00  0.00     0.356 HD
ENDROOT
BRANCH   7   9
ATOM      9  C   UNL     1     -16.879  -2.953 -36.975  1.00  0.00     0.306 C 
BRANCH   9  10
ATOM     10  C   UNL     1     -17.680  -3.213 -35.784  1.00  0.00     0.007 A 
ATOM     11  C   UNL     1     -17.617  -2.380 -34.690  1.00  0.00     0.009 A 
ATOM     12  C   UNL     1     -18.517  -4.302 -35.726  1.00  0.00     0.009 A 
ATOM     13  C   UNL     1     -18.372  -2.621 -33.550  1.00  0.00     0.001 A 
ATOM     14  C   UNL     1     -19.283  -4.556 -34.585  1.00  0.00     0.001 A 
ATOM     15  C   UNL     1     -19.195  -3.707 -33.514  1.00  0.00     0.000 A 
ENDBRANCH   9  10
ENDBRANCH   7   9
BRANCH   5  16
ATOM     16  C   UNL     1     -15.529  -0.938 -40.332  1.00  0.00     0.126 C 
BRANCH  16  17
ATOM     17  C   UNL     1     -15.672  -1.653 -41.587  1.00  0.00    -0.034 A 
ATOM     18  C   UNL     1     -14.920  -2.770 -41.851  1.00  0.00     0.005 A 
ATOM     19  C   UNL     1     -16.561  -1.243 -42.546  1.00  0.00     0.005 A 
ATOM     20  C   UNL     1     -15.082  -3.442 -43.065  1.00  0.00     0.000 A 
ATOM     21  C   UNL     1     -16.739  -1.885 -43.746  1.00  0.00     0.000 A 
ATOM     22  C   UNL     1     -15.980  -3.010 -44.009  1.00  0.00     0.000 A 
ENDBRANCH  16  17
ENDBRANCH   5  16
TORSDOF 4
ENDMDL
