MODEL 1
REMARK VINA RESULT:      -6.6      0.000      0.000
REMARK SMILES O=C1NCN(c2ccccc2)C12CC[NH+](CCCC(c1ccc(F)cc1)c1ccc(F)cc1)CC2
REMARK SMILES IDX 17 1 16 2 15 3 1 4 2 5 3 6 12 7 4 8 5 9 13 10 35 11 14 12
REMARK SMILES IDX 34 13 6 16 7 17 11 18 8 19 10 20 9 21 18 22 19 23 20 24
REMARK SMILES IDX 21 25 26 26 22 27 25 28 23 29 24 30 27 31 28 32 33 33 29 34
REMARK SMILES IDX 32 35 30 36 31 37
REMARK H PARENT 3 14 15 15
ROOT
ATOM      1  C   UNL     1     -37.696 -19.205  18.540  1.00  0.00     0.062 C 
ENDROOT
BRANCH   1   2
ATOM      2  C   UNL     1     -38.376 -18.439  19.636  1.00  0.00     0.262 C 
BRANCH   2   3
ATOM      3  N   UNL     1     -38.966 -17.216  19.104  1.00  0.00    -0.335 N 
ATOM      4  O   UNL     1     -41.599 -15.360  18.881  1.00  0.00    -0.272 OA
ATOM      5  C   UNL     1     -41.025 -14.736  17.964  1.00  0.00     0.247 C 
ATOM      6  N   UNL     1     -41.592 -13.657  17.263  1.00  0.00    -0.336 N 
ATOM      7  C   UNL     1     -39.634 -15.023  17.447  1.00  0.00     0.131 C 
ATOM      8  C   UNL     1     -40.502 -12.953  16.665  1.00  0.00     0.238 C 
ATOM      9  N   UNL     1     -39.497 -13.998  16.415  1.00  0.00    -0.339 N 
ATOM     10  C   UNL     1     -39.611 -16.425  16.870  1.00  0.00     0.100 C 
ATOM     11  C   UNL     1     -38.688 -14.870  18.583  1.00  0.00     0.100 C 
ATOM     12  C   UNL     1     -39.801 -17.466  17.948  1.00  0.00     0.265 C 
ATOM     13  C   UNL     1     -38.007 -16.169  18.867  1.00  0.00     0.265 C 
ATOM     14  H   UNL     1     -42.622 -13.435  17.207  1.00  0.00     0.165 HD
ATOM     15  H   UNL     1     -39.598 -16.887  19.866  1.00  0.00     0.348 HD
BRANCH   9  16
ATOM     16  C   UNL     1     -38.614 -13.915  15.309  1.00  0.00     0.039 A 
ATOM     17  C   UNL     1     -37.329 -13.450  15.461  1.00  0.00     0.026 A 
ATOM     18  C   UNL     1     -39.031 -14.322  14.079  1.00  0.00     0.026 A 
ATOM     19  C   UNL     1     -36.442 -13.383  14.381  1.00  0.00     0.002 A 
ATOM     20  C   UNL     1     -38.180 -14.264  13.010  1.00  0.00     0.002 A 
ATOM     21  C   UNL     1     -36.898 -13.802  13.149  1.00  0.00     0.000 A 
ENDBRANCH   9  16
ENDBRANCH   2   3
ENDBRANCH   1   2
BRANCH   1  22
ATOM     22  C   UNL     1     -36.233 -19.122  18.475  1.00  0.00     0.019 C 
BRANCH  22  23
ATOM     23  C   UNL     1     -35.464 -19.603  17.336  1.00  0.00     0.049 C 
BRANCH  23  24
ATOM     24  C   UNL     1     -35.863 -19.041  15.996  1.00  0.00    -0.040 A 
ATOM     25  C   UNL     1     -36.177 -17.700  15.959  1.00  0.00     0.007 A 
ATOM     26  C   UNL     1     -35.940 -19.809  14.866  1.00  0.00     0.007 A 
ATOM     27  C   UNL     1     -36.573 -17.118  14.781  1.00  0.00     0.039 A 
ATOM     28  C   UNL     1     -36.335 -19.225  13.693  1.00  0.00     0.039 A 
ATOM     29  C   UNL     1     -36.659 -17.864  13.628  1.00  0.00     0.123 A 
ATOM     30  F   UNL     1     -37.052 -17.277  12.469  1.00  0.00    -0.207 F 
ENDBRANCH  23  24
BRANCH  23  31
ATOM     31  C   UNL     1     -34.021 -19.752  17.421  1.00  0.00    -0.040 A 
ATOM     32  C   UNL     1     -33.090 -19.180  16.600  1.00  0.00     0.007 A 
ATOM     33  C   UNL     1     -33.563 -20.586  18.449  1.00  0.00     0.007 A 
ATOM     34  C   UNL     1     -31.734 -19.452  16.820  1.00  0.00     0.039 A 
ATOM     35  C   UNL     1     -32.252 -20.857  18.674  1.00  0.00     0.039 A 
ATOM     36  C   UNL     1     -31.326 -20.275  17.839  1.00  0.00     0.123 A 
ATOM     37  F   UNL     1     -30.016 -20.555  18.076  1.00  0.00    -0.207 F 
ENDBRANCH  23  31
ENDBRANCH  22  23
ENDBRANCH   1  22
TORSDOF 7
ENDMDL
MODEL 2
REMARK VINA RESULT:      -6.5      2.199      4.622
REMARK SMILES O=C1NCN(c2ccccc2)C12CC[NH+](CCCC(c1ccc(F)cc1)c1ccc(F)cc1)CC2
REMARK SMILES IDX 17 1 16 2 15 3 1 4 2 5 3 6 12 7 4 8 5 9 13 10 35 11 14 12
REMARK SMILES IDX 34 13 6 16 7 17 11 18 8 19 10 20 9 21 18 22 19 23 20 24
REMARK SMILES IDX 21 25 26 26 22 27 25 28 23 29 24 30 27 31 28 32 33 33 29 34
REMARK SMILES IDX 32 35 30 36 31 37
REMARK H PARENT 3 14 15 15
ROOT
ATOM      1  C   UNL     1     -36.654 -17.480  14.613  1.00  0.00     0.062 C 
ENDROOT
BRANCH   1   2
ATOM      2  C   UNL     1     -38.141 -17.387  14.432  1.00  0.00     0.262 C 
BRANCH   2   3
ATOM      3  N   UNL     1     -38.741 -16.683  15.560  1.00  0.00    -0.335 N 
ATOM      4  O   UNL     1     -40.836 -16.802  18.014  1.00  0.00    -0.272 OA
ATOM      5  C   UNL     1     -40.724 -15.562  18.109  1.00  0.00     0.247 C 
ATOM      6  N   UNL     1     -41.411 -14.773  19.049  1.00  0.00    -0.336 N 
ATOM      7  C   UNL     1     -39.842 -14.693  17.242  1.00  0.00     0.131 C 
ATOM      8  C   UNL     1     -40.687 -13.545  19.144  1.00  0.00     0.238 C 
ATOM      9  N   UNL     1     -40.105 -13.370  17.804  1.00  0.00    -0.339 N 
ATOM     10  C   UNL     1     -40.309 -14.808  15.805  1.00  0.00     0.100 C 
ATOM     11  C   UNL     1     -38.440 -15.158  17.413  1.00  0.00     0.100 C 
ATOM     12  C   UNL     1     -40.072 -16.197  15.259  1.00  0.00     0.265 C 
ATOM     13  C   UNL     1     -37.899 -15.655  16.113  1.00  0.00     0.265 C 
ATOM     14  H   UNL     1     -42.285 -15.057  19.568  1.00  0.00     0.165 HD
ATOM     15  H   UNL     1     -38.847 -17.420  16.290  1.00  0.00     0.348 HD
BRANCH   9  16
ATOM     16  C   UNL     1     -39.900 -12.078  17.256  1.00  0.00     0.039 A 
ATOM     17  C   UNL     1     -40.958 -11.316  16.821  1.00  0.00     0.026 A 
ATOM     18  C   UNL     1     -38.640 -11.571  17.177  1.00  0.00     0.026 A 
ATOM     19  C   UNL     1     -40.770 -10.033  16.299  1.00  0.00     0.002 A 
ATOM     20  C   UNL     1     -38.434 -10.318  16.669  1.00  0.00     0.002 A 
ATOM     21  C   UNL     1     -39.481  -9.549  16.232  1.00  0.00     0.000 A 
ENDBRANCH   9  16
ENDBRANCH   2   3
ENDBRANCH   1   2
BRANCH   1  22
ATOM     22  C   UNL     1     -36.074 -18.825  14.697  1.00  0.00     0.019 C 
BRANCH  22  23
ATOM     23  C   UNL     1     -35.873 -19.521  15.961  1.00  0.00     0.049 C 
BRANCH  23  24
ATOM     24  C   UNL     1     -34.438 -19.712  16.377  1.00  0.00    -0.040 A 
ATOM     25  C   UNL     1     -34.145 -20.867  17.069  1.00  0.00     0.007 A 
ATOM     26  C   UNL     1     -33.463 -18.787  16.115  1.00  0.00     0.007 A 
ATOM     27  C   UNL     1     -32.866 -21.104  17.504  1.00  0.00     0.039 A 
ATOM     28  C   UNL     1     -32.188 -19.028  16.550  1.00  0.00     0.039 A 
ATOM     29  C   UNL     1     -31.864 -20.193  17.255  1.00  0.00     0.123 A 
ATOM     30  F   UNL     1     -30.602 -20.439  17.690  1.00  0.00    -0.207 F 
ENDBRANCH  23  24
BRANCH  23  31
ATOM     31  C   UNL     1     -36.707 -19.225  17.114  1.00  0.00    -0.040 A 
ATOM     32  C   UNL     1     -36.409 -18.374  18.142  1.00  0.00     0.007 A 
ATOM     33  C   UNL     1     -37.929 -19.908  17.162  1.00  0.00     0.007 A 
ATOM     34  C   UNL     1     -37.330 -18.227  19.187  1.00  0.00     0.039 A 
ATOM     35  C   UNL     1     -38.830 -19.773  18.168  1.00  0.00     0.039 A 
ATOM     36  C   UNL     1     -38.518 -18.915  19.197  1.00  0.00     0.123 A 
ATOM     37  F   UNL     1     -39.430 -18.788  20.198  1.00  0.00    -0.207 F 
ENDBRANCH  23  31
ENDBRANCH  22  23
ENDBRANCH   1  22
TORSDOF 7
ENDMDL
MODEL 3
REMARK VINA RESULT:      -6.4      0.964      3.835
REMARK SMILES O=C1NCN(c2ccccc2)C12CC[NH+](CCCC(c1ccc(F)cc1)c1ccc(F)cc1)CC2
REMARK SMILES IDX 17 1 16 2 15 3 1 4 2 5 3 6 12 7 4 8 5 9 13 10 35 11 14 12
REMARK SMILES IDX 34 13 6 16 7 17 11 18 8 19 10 20 9 21 18 22 19 23 20 24
REMARK SMILES IDX 21 25 26 26 22 27 25 28 23 29 24 30 27 31 28 32 33 33 29 34
REMARK SMILES IDX 32 35 30 36 31 37
REMARK H PARENT 3 14 15 15
ROOT
ATOM      1  C   UNL     1     -37.641 -18.615  19.186  1.00  0.00     0.062 C 
ENDROOT
BRANCH   1   2
ATOM      2  C   UNL     1     -39.091 -18.380  18.878  1.00  0.00     0.262 C 
BRANCH   2   3
ATOM      3  N   UNL     1     -39.338 -16.956  18.683  1.00  0.00    -0.335 N 
ATOM      4  O   UNL     1     -41.346 -14.472  19.159  1.00  0.00    -0.272 OA
ATOM      5  C   UNL     1     -40.671 -13.828  18.330  1.00  0.00     0.247 C 
ATOM      6  N   UNL     1     -40.947 -12.506  17.938  1.00  0.00    -0.336 N 
ATOM      7  C   UNL     1     -39.449 -14.343  17.604  1.00  0.00     0.131 C 
ATOM      8  C   UNL     1     -39.737 -11.995  17.375  1.00  0.00     0.238 C 
ATOM      9  N   UNL     1     -39.085 -13.181  16.797  1.00  0.00    -0.339 N 
ATOM     10  C   UNL     1     -39.855 -15.529  16.752  1.00  0.00     0.100 C 
ATOM     11  C   UNL     1     -38.436 -14.712  18.629  1.00  0.00     0.100 C 
ATOM     12  C   UNL     1     -40.273 -16.703  17.606  1.00  0.00     0.265 C 
ATOM     13  C   UNL     1     -38.137 -16.174  18.556  1.00  0.00     0.265 C 
ATOM     14  H   UNL     1     -41.873 -12.013  18.051  1.00  0.00     0.165 HD
ATOM     15  H   UNL     1     -39.808 -16.658  19.565  1.00  0.00     0.348 HD
BRANCH   9  16
ATOM     16  C   UNL     1     -38.277 -13.081  15.637  1.00  0.00     0.039 A 
ATOM     17  C   UNL     1     -37.038 -13.674  15.581  1.00  0.00     0.026 A 
ATOM     18  C   UNL     1     -38.739 -12.406  14.549  1.00  0.00     0.026 A 
ATOM     19  C   UNL     1     -36.241 -13.599  14.435  1.00  0.00     0.002 A 
ATOM     20  C   UNL     1     -37.975 -12.320  13.418  1.00  0.00     0.002 A 
ATOM     21  C   UNL     1     -36.739 -12.908  13.351  1.00  0.00     0.000 A 
ENDBRANCH   9  16
ENDBRANCH   2   3
ENDBRANCH   1   2
BRANCH   1  22
ATOM     22  C   UNL     1     -36.865 -19.382  18.205  1.00  0.00     0.019 C 
BRANCH  22  23
ATOM     23  C   UNL     1     -35.958 -18.757  17.253  1.00  0.00     0.049 C 
BRANCH  23  24
ATOM     24  C   UNL     1     -34.524 -19.212  17.324  1.00  0.00    -0.040 A 
ATOM     25  C   UNL     1     -33.643 -18.615  16.450  1.00  0.00     0.007 A 
ATOM     26  C   UNL     1     -34.100 -20.186  18.188  1.00  0.00     0.007 A 
ATOM     27  C   UNL     1     -32.323 -18.992  16.437  1.00  0.00     0.039 A 
ATOM     28  C   UNL     1     -32.783 -20.559  18.172  1.00  0.00     0.039 A 
ATOM     29  C   UNL     1     -31.868 -19.967  17.294  1.00  0.00     0.123 A 
ATOM     30  F   UNL     1     -30.561 -20.332  17.272  1.00  0.00    -0.207 F 
ENDBRANCH  23  24
BRANCH  23  31
ATOM     31  C   UNL     1     -36.360 -18.542  15.872  1.00  0.00    -0.040 A 
ATOM     32  C   UNL     1     -36.704 -17.351  15.297  1.00  0.00     0.007 A 
ATOM     33  C   UNL     1     -36.406 -19.693  15.075  1.00  0.00     0.007 A 
ATOM     34  C   UNL     1     -37.086 -17.336  13.950  1.00  0.00     0.039 A 
ATOM     35  C   UNL     1     -36.773 -19.691  13.768  1.00  0.00     0.039 A 
ATOM     36  C   UNL     1     -37.119 -18.486  13.202  1.00  0.00     0.123 A 
ATOM     37  F   UNL     1     -37.484 -18.499  11.891  1.00  0.00    -0.207 F 
ENDBRANCH  23  31
ENDBRANCH  22  23
ENDBRANCH   1  22
TORSDOF 7
ENDMDL
MODEL 4
REMARK VINA RESULT:      -6.4      1.310      1.733
REMARK SMILES O=C1NCN(c2ccccc2)C12CC[NH+](CCCC(c1ccc(F)cc1)c1ccc(F)cc1)CC2
REMARK SMILES IDX 17 1 16 2 15 3 1 4 2 5 3 6 12 7 4 8 5 9 13 10 35 11 14 12
REMARK SMILES IDX 34 13 6 16 7 17 11 18 8 19 10 20 9 21 18 22 19 23 20 24
REMARK SMILES IDX 21 25 26 26 22 27 25 28 23 29 24 30 27 31 28 32 33 33 29 34
REMARK SMILES IDX 32 35 30 36 31 37
REMARK H PARENT 3 14 15 15
ROOT
ATOM      1  C   UNL     1     -37.461 -18.419  18.052  1.00  0.00     0.062 C 
ENDROOT
BRANCH   1   2
ATOM      2  C   UNL     1     -37.800 -17.653  19.297  1.00  0.00     0.262 C 
BRANCH   2   3
ATOM      3  N   UNL     1     -38.356 -16.350  18.949  1.00  0.00    -0.335 N 
ATOM      4  O   UNL     1     -40.760 -14.237  19.376  1.00  0.00    -0.272 OA
ATOM      5  C   UNL     1     -40.334 -13.622  18.377  1.00  0.00     0.247 C 
ATOM      6  N   UNL     1     -40.920 -12.455  17.855  1.00  0.00    -0.336 N 
ATOM      7  C   UNL     1     -39.127 -14.013  17.556  1.00  0.00     0.131 C 
ATOM      8  C   UNL     1     -39.915 -11.827  17.056  1.00  0.00     0.238 C 
ATOM      9  N   UNL     1     -39.107 -12.949  16.554  1.00  0.00    -0.339 N 
ATOM     10  C   UNL     1     -39.379 -15.375  16.941  1.00  0.00     0.100 C 
ATOM     11  C   UNL     1     -37.947 -14.017  18.460  1.00  0.00     0.100 C 
ATOM     12  C   UNL     1     -39.443 -16.452  17.998  1.00  0.00     0.265 C 
ATOM     13  C   UNL     1     -37.364 -15.390  18.542  1.00  0.00     0.265 C 
ATOM     14  H   UNL     1     -41.908 -12.130  18.035  1.00  0.00     0.165 HD
ATOM     15  H   UNL     1     -38.769 -16.005  19.843  1.00  0.00     0.348 HD
BRANCH   9  16
ATOM     16  C   UNL     1     -38.479 -12.890  15.284  1.00  0.00     0.039 A 
ATOM     17  C   UNL     1     -37.112 -12.966  15.164  1.00  0.00     0.026 A 
ATOM     18  C   UNL     1     -39.239 -12.778  14.160  1.00  0.00     0.026 A 
ATOM     19  C   UNL     1     -36.483 -12.929  13.916  1.00  0.00     0.002 A 
ATOM     20  C   UNL     1     -38.644 -12.741  12.929  1.00  0.00     0.002 A 
ATOM     21  C   UNL     1     -37.282 -12.815  12.798  1.00  0.00     0.000 A 
ENDBRANCH   9  16
ENDBRANCH   2   3
ENDBRANCH   1   2
BRANCH   1  22
ATOM     22  C   UNL     1     -36.045 -18.484  17.672  1.00  0.00     0.019 C 
BRANCH  22  23
ATOM     23  C   UNL     1     -35.376 -19.731  17.328  1.00  0.00     0.049 C 
BRANCH  23  24
ATOM     24  C   UNL     1     -35.660 -20.263  15.947  1.00  0.00    -0.040 A 
ATOM     25  C   UNL     1     -35.864 -19.329  14.956  1.00  0.00     0.007 A 
ATOM     26  C   UNL     1     -35.741 -21.602  15.674  1.00  0.00     0.007 A 
ATOM     27  C   UNL     1     -36.151 -19.733  13.677  1.00  0.00     0.039 A 
ATOM     28  C   UNL     1     -36.027 -22.001  14.397  1.00  0.00     0.039 A 
ATOM     29  C   UNL     1     -36.238 -21.072  13.371  1.00  0.00     0.123 A 
ATOM     30  F   UNL     1     -36.524 -21.460  12.102  1.00  0.00    -0.207 F 
ENDBRANCH  23  24
BRANCH  23  31
ATOM     31  C   UNL     1     -33.986 -19.954  17.688  1.00  0.00    -0.040 A 
ATOM     32  C   UNL     1     -33.522 -20.616  18.790  1.00  0.00     0.007 A 
ATOM     33  C   UNL     1     -33.043 -19.409  16.806  1.00  0.00     0.007 A 
ATOM     34  C   UNL     1     -32.139 -20.717  18.987  1.00  0.00     0.039 A 
ATOM     35  C   UNL     1     -31.701 -19.502  16.985  1.00  0.00     0.039 A 
ATOM     36  C   UNL     1     -31.248 -20.170  18.099  1.00  0.00     0.123 A 
ATOM     37  F   UNL     1     -29.901 -20.256  18.266  1.00  0.00    -0.207 F 
ENDBRANCH  23  31
ENDBRANCH  22  23
ENDBRANCH   1  22
TORSDOF 7
ENDMDL
MODEL 5
REMARK VINA RESULT:      -6.4      2.350      3.395
REMARK SMILES O=C1NCN(c2ccccc2)C12CC[NH+](CCCC(c1ccc(F)cc1)c1ccc(F)cc1)CC2
REMARK SMILES IDX 17 1 16 2 15 3 1 4 2 5 3 6 12 7 4 8 5 9 13 10 35 11 14 12
REMARK SMILES IDX 34 13 6 16 7 17 11 18 8 19 10 20 9 21 18 22 19 23 20 24
REMARK SMILES IDX 21 25 26 26 22 27 25 28 23 29 24 30 27 31 28 32 33 33 29 34
REMARK SMILES IDX 32 35 30 36 31 37
REMARK H PARENT 3 14 15 15
ROOT
ATOM      1  C   UNL     1     -35.037 -20.098  18.409  1.00  0.00     0.062 C 
ENDROOT
BRANCH   1   2
ATOM      2  C   UNL     1     -35.701 -18.850  18.910  1.00  0.00     0.262 C 
BRANCH   2   3
ATOM      3  N   UNL     1     -36.730 -18.416  17.972  1.00  0.00    -0.335 N 
ATOM      4  O   UNL     1     -39.428 -19.188  16.373  1.00  0.00    -0.272 OA
ATOM      5  C   UNL     1     -39.244 -18.175  15.668  1.00  0.00     0.247 C 
ATOM      6  N   UNL     1     -40.087 -17.779  14.614  1.00  0.00    -0.336 N 
ATOM      7  C   UNL     1     -38.099 -17.200  15.816  1.00  0.00     0.131 C 
ATOM      8  C   UNL     1     -39.819 -16.394  14.388  1.00  0.00     0.238 C 
ATOM      9  N   UNL     1     -38.404 -16.239  14.758  1.00  0.00    -0.339 N 
ATOM     10  C   UNL     1     -36.799 -17.937  15.564  1.00  0.00     0.100 C 
ATOM     11  C   UNL     1     -38.162 -16.631  17.188  1.00  0.00     0.100 C 
ATOM     12  C   UNL     1     -36.527 -18.958  16.644  1.00  0.00     0.265 C 
ATOM     13  C   UNL     1     -36.932 -16.991  17.954  1.00  0.00     0.265 C 
ATOM     14  H   UNL     1     -40.772 -18.402  14.108  1.00  0.00     0.165 HD
ATOM     15  H   UNL     1     -37.607 -18.846  18.341  1.00  0.00     0.348 HD
BRANCH   9  16
ATOM     16  C   UNL     1     -37.575 -15.291  14.106  1.00  0.00     0.039 A 
ATOM     17  C   UNL     1     -36.959 -14.284  14.811  1.00  0.00     0.026 A 
ATOM     18  C   UNL     1     -37.365 -15.387  12.765  1.00  0.00     0.026 A 
ATOM     19  C   UNL     1     -36.123 -13.356  14.183  1.00  0.00     0.002 A 
ATOM     20  C   UNL     1     -36.551 -14.489  12.131  1.00  0.00     0.002 A 
ATOM     21  C   UNL     1     -35.932 -13.482  12.823  1.00  0.00     0.000 A 
ENDBRANCH   9  16
ENDBRANCH   2   3
ENDBRANCH   1   2
BRANCH   1  22
ATOM     22  C   UNL     1     -33.754 -20.464  19.020  1.00  0.00     0.019 C 
BRANCH  22  23
ATOM     23  C   UNL     1     -32.533 -20.641  18.245  1.00  0.00     0.049 C 
BRANCH  23  24
ATOM     24  C   UNL     1     -32.671 -20.445  16.758  1.00  0.00    -0.040 A 
ATOM     25  C   UNL     1     -32.867 -19.154  16.321  1.00  0.00     0.007 A 
ATOM     26  C   UNL     1     -32.633 -21.487  15.870  1.00  0.00     0.007 A 
ATOM     27  C   UNL     1     -33.026 -18.896  14.983  1.00  0.00     0.039 A 
ATOM     28  C   UNL     1     -32.791 -21.225  14.536  1.00  0.00     0.039 A 
ATOM     29  C   UNL     1     -32.991 -19.922  14.066  1.00  0.00     0.123 A 
ATOM     30  F   UNL     1     -33.150 -19.654  12.744  1.00  0.00    -0.207 F 
ENDBRANCH  23  24
BRANCH  23  31
ATOM     31  C   UNL     1     -31.268 -20.105  18.718  1.00  0.00    -0.040 A 
ATOM     32  C   UNL     1     -30.912 -19.872  20.017  1.00  0.00     0.007 A 
ATOM     33  C   UNL     1     -30.340 -19.787  17.718  1.00  0.00     0.007 A 
ATOM     34  C   UNL     1     -29.650 -19.330  20.287  1.00  0.00     0.039 A 
ATOM     35  C   UNL     1     -29.113 -19.262  17.966  1.00  0.00     0.039 A 
ATOM     36  C   UNL     1     -28.768 -19.031  19.278  1.00  0.00     0.123 A 
ATOM     37  F   UNL     1     -27.536 -18.506  19.513  1.00  0.00    -0.207 F 
ENDBRANCH  23  31
ENDBRANCH  22  23
ENDBRANCH   1  22
TORSDOF 7
ENDMDL
MODEL 6
REMARK VINA RESULT:      -6.4      2.584      4.424
REMARK SMILES O=C1NCN(c2ccccc2)C12CC[NH+](CCCC(c1ccc(F)cc1)c1ccc(F)cc1)CC2
REMARK SMILES IDX 17 1 16 2 15 3 1 4 2 5 3 6 12 7 4 8 5 9 13 10 35 11 14 12
REMARK SMILES IDX 34 13 6 16 7 17 11 18 8 19 10 20 9 21 18 22 19 23 20 24
REMARK SMILES IDX 21 25 26 26 22 27 25 28 23 29 24 30 27 31 28 32 33 33 29 34
REMARK SMILES IDX 32 35 30 36 31 37
REMARK H PARENT 3 14 15 15
ROOT
ATOM      1  C   UNL     1     -34.833 -19.574  18.869  1.00  0.00     0.062 C 
ENDROOT
BRANCH   1   2
ATOM      2  C   UNL     1     -36.151 -19.791  18.186  1.00  0.00     0.262 C 
BRANCH   2   3
ATOM      3  N   UNL     1     -36.790 -18.510  17.909  1.00  0.00    -0.335 N 
ATOM      4  O   UNL     1     -36.405 -15.329  17.500  1.00  0.00    -0.272 OA
ATOM      5  C   UNL     1     -37.644 -15.214  17.603  1.00  0.00     0.247 C 
ATOM      6  N   UNL     1     -38.334 -13.990  17.534  1.00  0.00    -0.336 N 
ATOM      7  C   UNL     1     -38.616 -16.351  17.816  1.00  0.00     0.131 C 
ATOM      8  C   UNL     1     -39.692 -14.315  17.229  1.00  0.00     0.238 C 
ATOM      9  N   UNL     1     -39.890 -15.636  17.845  1.00  0.00    -0.339 N 
ATOM     10  C   UNL     1     -38.302 -17.016  19.141  1.00  0.00     0.100 C 
ATOM     11  C   UNL     1     -38.473 -17.289  16.671  1.00  0.00     0.100 C 
ATOM     12  C   UNL     1     -36.960 -17.709  19.104  1.00  0.00     0.265 C 
ATOM     13  C   UNL     1     -38.010 -18.625  17.154  1.00  0.00     0.265 C 
ATOM     14  H   UNL     1     -37.909 -13.036  17.683  1.00  0.00     0.165 HD
ATOM     15  H   UNL     1     -36.102 -18.009  17.306  1.00  0.00     0.348 HD
BRANCH   9  16
ATOM     16  C   UNL     1     -41.153 -16.022  18.360  1.00  0.00     0.039 A 
ATOM     17  C   UNL     1     -41.505 -17.348  18.454  1.00  0.00     0.026 A 
ATOM     18  C   UNL     1     -42.026 -15.071  18.790  1.00  0.00     0.026 A 
ATOM     19  C   UNL     1     -42.740 -17.742  18.980  1.00  0.00     0.002 A 
ATOM     20  C   UNL     1     -43.239 -15.435  19.307  1.00  0.00     0.002 A 
ATOM     21  C   UNL     1     -43.601 -16.753  19.406  1.00  0.00     0.000 A 
ENDBRANCH   9  16
ENDBRANCH   2   3
ENDBRANCH   1   2
BRANCH   1  22
ATOM     22  C   UNL     1     -33.897 -20.704  18.889  1.00  0.00     0.019 C 
BRANCH  22  23
ATOM     23  C   UNL     1     -32.668 -20.725  18.108  1.00  0.00     0.049 C 
BRANCH  23  24
ATOM     24  C   UNL     1     -32.814 -20.357  16.654  1.00  0.00    -0.040 A 
ATOM     25  C   UNL     1     -32.692 -21.382  15.743  1.00  0.00     0.007 A 
ATOM     26  C   UNL     1     -33.032 -19.071  16.237  1.00  0.00     0.007 A 
ATOM     27  C   UNL     1     -32.789 -21.124  14.399  1.00  0.00     0.039 A 
ATOM     28  C   UNL     1     -33.128 -18.818  14.895  1.00  0.00     0.039 A 
ATOM     29  C   UNL     1     -33.009 -19.842  13.948  1.00  0.00     0.123 A 
ATOM     30  F   UNL     1     -33.102 -19.599  12.616  1.00  0.00    -0.207 F 
ENDBRANCH  23  24
BRANCH  23  31
ATOM     31  C   UNL     1     -31.431 -20.189  18.651  1.00  0.00    -0.040 A 
ATOM     32  C   UNL     1     -31.126 -20.012  19.971  1.00  0.00     0.007 A 
ATOM     33  C   UNL     1     -30.475 -19.806  17.701  1.00  0.00     0.007 A 
ATOM     34  C   UNL     1     -29.885 -19.460  20.312  1.00  0.00     0.039 A 
ATOM     35  C   UNL     1     -29.268 -19.272  18.018  1.00  0.00     0.039 A 
ATOM     36  C   UNL     1     -28.975 -19.098  19.351  1.00  0.00     0.123 A 
ATOM     37  F   UNL     1     -27.762 -18.561  19.655  1.00  0.00    -0.207 F 
ENDBRANCH  23  31
ENDBRANCH  22  23
ENDBRANCH   1  22
TORSDOF 7
ENDMDL
MODEL 7
REMARK VINA RESULT:      -6.3      1.892      3.188
REMARK SMILES O=C1NCN(c2ccccc2)C12CC[NH+](CCCC(c1ccc(F)cc1)c1ccc(F)cc1)CC2
REMARK SMILES IDX 17 1 16 2 15 3 1 4 2 5 3 6 12 7 4 8 5 9 13 10 35 11 14 12
REMARK SMILES IDX 34 13 6 16 7 17 11 18 8 19 10 20 9 21 18 22 19 23 20 24
REMARK SMILES IDX 21 25 26 26 22 27 25 28 23 29 24 30 27 31 28 32 33 33 29 34
REMARK SMILES IDX 32 35 30 36 31 37
REMARK H PARENT 3 14 15 15
ROOT
ATOM      1  C   UNL     1     -37.105 -18.159  18.800  1.00  0.00     0.062 C 
ENDROOT
BRANCH   1   2
ATOM      2  C   UNL     1     -37.892 -16.909  19.065  1.00  0.00     0.262 C 
BRANCH   2   3
ATOM      3  N   UNL     1     -37.795 -16.003  17.927  1.00  0.00    -0.335 N 
ATOM      4  O   UNL     1     -35.857 -14.513  15.817  1.00  0.00    -0.272 OA
ATOM      5  C   UNL     1     -36.826 -13.788  15.509  1.00  0.00     0.247 C 
ATOM      6  N   UNL     1     -36.775 -12.760  14.552  1.00  0.00    -0.336 N 
ATOM      7  C   UNL     1     -38.213 -13.882  16.103  1.00  0.00     0.131 C 
ATOM      8  C   UNL     1     -38.127 -12.506  14.167  1.00  0.00     0.238 C 
ATOM      9  N   UNL     1     -38.907 -12.823  15.373  1.00  0.00    -0.339 N 
ATOM     10  C   UNL     1     -38.126 -13.593  17.588  1.00  0.00     0.100 C 
ATOM     11  C   UNL     1     -38.731 -15.248  15.828  1.00  0.00     0.100 C 
ATOM     12  C   UNL     1     -37.364 -14.676  18.315  1.00  0.00     0.265 C 
ATOM     13  C   UNL     1     -38.979 -15.973  17.110  1.00  0.00     0.265 C 
ATOM     14  H   UNL     1     -35.897 -12.287  14.204  1.00  0.00     0.165 HD
ATOM     15  H   UNL     1     -37.030 -16.409  17.344  1.00  0.00     0.348 HD
BRANCH   9  16
ATOM     16  C   UNL     1     -40.107 -12.130  15.674  1.00  0.00     0.039 A 
ATOM     17  C   UNL     1     -40.085 -10.815  16.074  1.00  0.00     0.026 A 
ATOM     18  C   UNL     1     -41.303 -12.765  15.545  1.00  0.00     0.026 A 
ATOM     19  C   UNL     1     -41.263 -10.116  16.353  1.00  0.00     0.002 A 
ATOM     20  C   UNL     1     -42.468 -12.100  15.813  1.00  0.00     0.002 A 
ATOM     21  C   UNL     1     -42.458 -10.789  16.213  1.00  0.00     0.000 A 
ENDBRANCH   9  16
ENDBRANCH   2   3
ENDBRANCH   1   2
BRANCH   1  22
ATOM     22  C   UNL     1     -35.997 -18.061  17.843  1.00  0.00     0.019 C 
BRANCH  22  23
ATOM     23  C   UNL     1     -35.427 -19.221  17.174  1.00  0.00     0.049 C 
BRANCH  23  24
ATOM     24  C   UNL     1     -35.804 -19.388  15.725  1.00  0.00    -0.040 A 
ATOM     25  C   UNL     1     -35.704 -20.659  15.204  1.00  0.00     0.007 A 
ATOM     26  C   UNL     1     -36.203 -18.339  14.940  1.00  0.00     0.007 A 
ATOM     27  C   UNL     1     -36.006 -20.888  13.885  1.00  0.00     0.039 A 
ATOM     28  C   UNL     1     -36.504 -18.572  13.626  1.00  0.00     0.039 A 
ATOM     29  C   UNL     1     -36.411 -19.855  13.072  1.00  0.00     0.123 A 
ATOM     30  F   UNL     1     -36.707 -20.094  11.769  1.00  0.00    -0.207 F 
ENDBRANCH  23  24
BRANCH  23  31
ATOM     31  C   UNL     1     -34.040 -19.599  17.390  1.00  0.00    -0.040 A 
ATOM     32  C   UNL     1     -32.961 -19.211  16.645  1.00  0.00     0.007 A 
ATOM     33  C   UNL     1     -33.814 -20.462  18.470  1.00  0.00     0.007 A 
ATOM     34  C   UNL     1     -31.692 -19.691  16.990  1.00  0.00     0.039 A 
ATOM     35  C   UNL     1     -32.589 -20.934  18.815  1.00  0.00     0.039 A 
ATOM     36  C   UNL     1     -31.512 -20.537  18.056  1.00  0.00     0.123 A 
ATOM     37  F   UNL     1     -30.290 -21.016  18.414  1.00  0.00    -0.207 F 
ENDBRANCH  23  31
ENDBRANCH  22  23
ENDBRANCH   1  22
TORSDOF 7
ENDMDL
MODEL 8
REMARK VINA RESULT:      -6.3      1.863      2.885
REMARK SMILES O=C1NCN(c2ccccc2)C12CC[NH+](CCCC(c1ccc(F)cc1)c1ccc(F)cc1)CC2
REMARK SMILES IDX 17 1 16 2 15 3 1 4 2 5 3 6 12 7 4 8 5 9 13 10 35 11 14 12
REMARK SMILES IDX 34 13 6 16 7 17 11 18 8 19 10 20 9 21 18 22 19 23 20 24
REMARK SMILES IDX 21 25 26 26 22 27 25 28 23 29 24 30 27 31 28 32 33 33 29 34
REMARK SMILES IDX 32 35 30 36 31 37
REMARK H PARENT 3 14 15 15
ROOT
ATOM      1  C   UNL     1     -38.054 -19.189  17.822  1.00  0.00     0.062 C 
ENDROOT
BRANCH   1   2
ATOM      2  C   UNL     1     -39.481 -19.647  17.894  1.00  0.00     0.262 C 
BRANCH   2   3
ATOM      3  N   UNL     1     -40.382 -18.518  17.697  1.00  0.00    -0.335 N 
ATOM      4  O   UNL     1     -43.194 -17.483  16.492  1.00  0.00    -0.272 OA
ATOM      5  C   UNL     1     -42.779 -16.316  16.651  1.00  0.00     0.247 C 
ATOM      6  N   UNL     1     -43.509 -15.162  16.315  1.00  0.00    -0.336 N 
ATOM      7  C   UNL     1     -41.434 -15.935  17.227  1.00  0.00     0.131 C 
ATOM      8  C   UNL     1     -42.921 -14.089  17.054  1.00  0.00     0.238 C 
ATOM      9  N   UNL     1     -41.508 -14.476  17.181  1.00  0.00    -0.339 N 
ATOM     10  C   UNL     1     -40.347 -16.482  16.324  1.00  0.00     0.100 C 
ATOM     11  C   UNL     1     -41.355 -16.496  18.602  1.00  0.00     0.100 C 
ATOM     12  C   UNL     1     -40.319 -17.993  16.350  1.00  0.00     0.265 C 
ATOM     13  C   UNL     1     -40.240 -17.486  18.691  1.00  0.00     0.265 C 
ATOM     14  H   UNL     1     -44.325 -15.125  15.646  1.00  0.00     0.165 HD
ATOM     15  H   UNL     1     -41.334 -18.930  17.816  1.00  0.00     0.348 HD
BRANCH   9  16
ATOM     16  C   UNL     1     -40.481 -13.499  17.224  1.00  0.00     0.039 A 
ATOM     17  C   UNL     1     -40.495 -12.418  16.376  1.00  0.00     0.026 A 
ATOM     18  C   UNL     1     -39.475 -13.617  18.133  1.00  0.00     0.026 A 
ATOM     19  C   UNL     1     -39.499 -11.438  16.423  1.00  0.00     0.002 A 
ATOM     20  C   UNL     1     -38.491 -12.670  18.196  1.00  0.00     0.002 A 
ATOM     21  C   UNL     1     -38.494 -11.588  17.355  1.00  0.00     0.000 A 
ENDBRANCH   9  16
ENDBRANCH   2   3
ENDBRANCH   1   2
BRANCH   1  22
ATOM     22  C   UNL     1     -37.218 -19.769  16.766  1.00  0.00     0.019 C 
BRANCH  22  23
ATOM     23  C   UNL     1     -36.062 -19.083  16.207  1.00  0.00     0.049 C 
BRANCH  23  24
ATOM     24  C   UNL     1     -36.234 -17.605  15.968  1.00  0.00    -0.040 A 
ATOM     25  C   UNL     1     -35.696 -16.761  16.914  1.00  0.00     0.007 A 
ATOM     26  C   UNL     1     -36.910 -17.106  14.887  1.00  0.00     0.007 A 
ATOM     27  C   UNL     1     -35.831 -15.402  16.781  1.00  0.00     0.039 A 
ATOM     28  C   UNL     1     -37.043 -15.749  14.758  1.00  0.00     0.039 A 
ATOM     29  C   UNL     1     -36.504 -14.870  15.705  1.00  0.00     0.123 A 
ATOM     30  F   UNL     1     -36.632 -13.524  15.584  1.00  0.00    -0.207 F 
ENDBRANCH  23  24
BRANCH  23  31
ATOM     31  C   UNL     1     -34.720 -19.372  16.686  1.00  0.00    -0.040 A 
ATOM     32  C   UNL     1     -34.385 -19.955  17.876  1.00  0.00     0.007 A 
ATOM     33  C   UNL     1     -33.681 -18.988  15.829  1.00  0.00     0.007 A 
ATOM     34  C   UNL     1     -33.031 -20.140  18.182  1.00  0.00     0.039 A 
ATOM     35  C   UNL     1     -32.365 -19.163  16.113  1.00  0.00     0.039 A 
ATOM     36  C   UNL     1     -32.042 -19.750  17.315  1.00  0.00     0.123 A 
ATOM     37  F   UNL     1     -30.720 -19.919  17.587  1.00  0.00    -0.207 F 
ENDBRANCH  23  31
ENDBRANCH  22  23
ENDBRANCH   1  22
TORSDOF 7
ENDMDL
MODEL 9
REMARK VINA RESULT:      -6.3      2.579      5.783
REMARK SMILES O=C1NCN(c2ccccc2)C12CC[NH+](CCCC(c1ccc(F)cc1)c1ccc(F)cc1)CC2
REMARK SMILES IDX 17 1 16 2 15 3 1 4 2 5 3 6 12 7 4 8 5 9 13 10 35 11 14 12
REMARK SMILES IDX 34 13 6 16 7 17 11 18 8 19 10 20 9 21 18 22 19 23 20 24
REMARK SMILES IDX 21 25 26 26 22 27 25 28 23 29 24 30 27 31 28 32 33 33 29 34
REMARK SMILES IDX 32 35 30 36 31 37
REMARK H PARENT 3 14 15 15
ROOT
ATOM      1  C   UNL     1     -37.101 -22.064  14.427  1.00  0.00     0.062 C 
ENDROOT
BRANCH   1   2
ATOM      2  C   UNL     1     -38.523 -22.057  13.950  1.00  0.00     0.262 C 
BRANCH   2   3
ATOM      3  N   UNL     1     -39.396 -21.508  14.980  1.00  0.00    -0.335 N 
ATOM      4  O   UNL     1     -42.430 -21.042  15.985  1.00  0.00    -0.272 OA
ATOM      5  C   UNL     1     -41.979 -20.229  16.819  1.00  0.00     0.247 C 
ATOM      6  N   UNL     1     -42.770 -19.509  17.732  1.00  0.00    -0.336 N 
ATOM      7  C   UNL     1     -40.521 -19.874  16.997  1.00  0.00     0.131 C 
ATOM      8  C   UNL     1     -41.888 -19.080  18.771  1.00  0.00     0.238 C 
ATOM      9  N   UNL     1     -40.594 -18.911  18.093  1.00  0.00    -0.339 N 
ATOM     10  C   UNL     1     -40.014 -19.247  15.715  1.00  0.00     0.100 C 
ATOM     11  C   UNL     1     -39.789 -21.124  17.336  1.00  0.00     0.100 C 
ATOM     12  C   UNL     1     -39.991 -20.249  14.584  1.00  0.00     0.265 C 
ATOM     13  C   UNL     1     -38.781 -21.434  16.279  1.00  0.00     0.265 C 
ATOM     14  H   UNL     1     -43.808 -19.337  17.643  1.00  0.00     0.165 HD
ATOM     15  H   UNL     1     -40.174 -22.200  15.048  1.00  0.00     0.348 HD
BRANCH   9  16
ATOM     16  C   UNL     1     -39.667 -17.926  18.519  1.00  0.00     0.039 A 
ATOM     17  C   UNL     1     -38.446 -18.280  19.043  1.00  0.00     0.026 A 
ATOM     18  C   UNL     1     -39.976 -16.607  18.389  1.00  0.00     0.026 A 
ATOM     19  C   UNL     1     -37.516 -17.318  19.446  1.00  0.00     0.002 A 
ATOM     20  C   UNL     1     -39.080 -15.649  18.778  1.00  0.00     0.002 A 
ATOM     21  C   UNL     1     -37.860 -15.991  19.301  1.00  0.00     0.000 A 
ENDBRANCH   9  16
ENDBRANCH   2   3
ENDBRANCH   1   2
BRANCH   1  22
ATOM     22  C   UNL     1     -36.295 -20.871  14.147  1.00  0.00     0.019 C 
BRANCH  22  23
ATOM     23  C   UNL     1     -36.141 -19.781  15.101  1.00  0.00     0.049 C 
BRANCH  23  24
ATOM     24  C   UNL     1     -34.843 -19.764  15.866  1.00  0.00    -0.040 A 
ATOM     25  C   UNL     1     -34.896 -20.178  17.178  1.00  0.00     0.007 A 
ATOM     26  C   UNL     1     -33.665 -19.338  15.313  1.00  0.00     0.007 A 
ATOM     27  C   UNL     1     -33.761 -20.169  17.950  1.00  0.00     0.039 A 
ATOM     28  C   UNL     1     -32.535 -19.331  16.086  1.00  0.00     0.039 A 
ATOM     29  C   UNL     1     -32.562 -19.748  17.422  1.00  0.00     0.123 A 
ATOM     30  F   UNL     1     -31.446 -19.743  18.194  1.00  0.00    -0.207 F 
ENDBRANCH  23  24
BRANCH  23  31
ATOM     31  C   UNL     1     -36.553 -18.429  14.760  1.00  0.00    -0.040 A 
ATOM     32  C   UNL     1     -36.876 -17.962  13.517  1.00  0.00     0.007 A 
ATOM     33  C   UNL     1     -36.599 -17.528  15.831  1.00  0.00     0.007 A 
ATOM     34  C   UNL     1     -37.234 -16.616  13.372  1.00  0.00     0.039 A 
ATOM     35  C   UNL     1     -36.946 -16.221  15.704  1.00  0.00     0.039 A 
ATOM     36  C   UNL     1     -37.268 -15.764  14.447  1.00  0.00     0.123 A 
ATOM     37  F   UNL     1     -37.613 -14.453  14.333  1.00  0.00    -0.207 F 
ENDBRANCH  23  31
ENDBRANCH  22  23
ENDBRANCH   1  22
TORSDOF 7
ENDMDL
