MODEL 1
REMARK VINA RESULT:      -5.3      0.000      0.000
REMARK SMILES Clc1ccccc1C(c1ccccc1)(c1ccccc1)n1ccnc1
REMARK SMILES IDX 1 1 2 2 3 3 4 4 5 5 6 6 7 7 8 8 9 9 10 10 14 11 11 12 13 13
REMARK SMILES IDX 12 14 15 15 16 16 20 17 17 18 19 19 18 20 21 21 22 22 25 23
REMARK SMILES IDX 23 24 24 25
REMARK H PARENT
ROOT
ATOM      1  Cl  UNL     1      24.555  15.261  37.369  1.00  0.00    -0.084 Cl
ATOM      2  C   UNL     1      26.288  15.278  37.604  1.00  0.00     0.047 A 
ATOM      3  C   UNL     1      27.149  15.639  36.593  1.00  0.00     0.021 A 
ATOM      4  C   UNL     1      28.514  15.685  36.784  1.00  0.00     0.002 A 
ATOM      5  C   UNL     1      29.002  15.358  38.025  1.00  0.00     0.001 A 
ATOM      6  C   UNL     1      28.124  14.991  39.053  1.00  0.00     0.008 A 
ATOM      7  C   UNL     1      26.778  14.947  38.857  1.00  0.00     0.006 A 
ENDROOT
BRANCH   7   8
ATOM      8  C   UNL     1      25.868  14.530  39.957  1.00  0.00     0.123 C 
BRANCH   8   9
ATOM      9  C   UNL     1      26.711  14.070  41.097  1.00  0.00    -0.013 A 
ATOM     10  C   UNL     1      27.616  13.061  41.059  1.00  0.00     0.007 A 
ATOM     11  C   UNL     1      26.526  14.788  42.294  1.00  0.00     0.007 A 
ATOM     12  C   UNL     1      28.341  12.755  42.197  1.00  0.00     0.000 A 
ATOM     13  C   UNL     1      27.249  14.480  43.417  1.00  0.00     0.000 A 
ATOM     14  C   UNL     1      28.168  13.458  43.389  1.00  0.00     0.000 A 
ENDBRANCH   8   9
BRANCH   8  15
ATOM     15  C   UNL     1      25.086  13.321  39.582  1.00  0.00    -0.013 A 
ATOM     16  C   UNL     1      25.355  12.563  38.473  1.00  0.00     0.007 A 
ATOM     17  C   UNL     1      24.056  12.928  40.399  1.00  0.00     0.007 A 
ATOM     18  C   UNL     1      24.622  11.425  38.160  1.00  0.00     0.000 A 
ATOM     19  C   UNL     1      23.300  11.781  40.103  1.00  0.00     0.000 A 
ATOM     20  C   UNL     1      23.593  11.046  38.988  1.00  0.00     0.000 A 
ENDBRANCH   8  15
BRANCH   8  21
ATOM     21  N   UNL     1      24.973  15.599  40.289  1.00  0.00    -0.319 N 
ATOM     22  C   UNL     1      25.294  16.921  40.340  1.00  0.00     0.109 A 
ATOM     23  C   UNL     1      23.677  15.503  40.584  1.00  0.00     0.200 A 
ATOM     24  C   UNL     1      24.170  17.643  40.674  1.00  0.00     0.131 A 
ATOM     25  N   UNL     1      23.195  16.753  40.818  1.00  0.00    -0.245 NA
ENDBRANCH   8  21
ENDBRANCH   7   8
TORSDOF 4
ENDMDL
MODEL 2
REMARK VINA RESULT:      -5.3      1.281      4.168
REMARK SMILES Clc1ccccc1C(c1ccccc1)(c1ccccc1)n1ccnc1
REMARK SMILES IDX 1 1 2 2 3 3 4 4 5 5 6 6 7 7 8 8 9 9 10 10 14 11 11 12 13 13
REMARK SMILES IDX 12 14 15 15 16 16 20 17 17 18 19 19 18 20 21 21 22 22 25 23
REMARK SMILES IDX 23 24 24 25
REMARK H PARENT
ROOT
ATOM      1  Cl  UNL     1      25.099  15.238  36.905  1.00  0.00    -0.084 Cl
ATOM      2  C   UNL     1      26.800  15.314  37.306  1.00  0.00     0.047 A 
ATOM      3  C   UNL     1      27.735  15.757  36.398  1.00  0.00     0.021 A 
ATOM      4  C   UNL     1      29.072  15.849  36.721  1.00  0.00     0.002 A 
ATOM      5  C   UNL     1      29.456  15.483  37.987  1.00  0.00     0.001 A 
ATOM      6  C   UNL     1      28.503  15.032  38.910  1.00  0.00     0.008 A 
ATOM      7  C   UNL     1      27.185  14.943  38.584  1.00  0.00     0.006 A 
ENDROOT
BRANCH   7   8
ATOM      8  C   UNL     1      26.194  14.438  39.573  1.00  0.00     0.123 C 
BRANCH   8   9
ATOM      9  C   UNL     1      25.251  15.549  39.882  1.00  0.00    -0.013 A 
ATOM     10  C   UNL     1      23.924  15.417  40.135  1.00  0.00     0.007 A 
ATOM     11  C   UNL     1      25.837  16.829  39.918  1.00  0.00     0.007 A 
ATOM     12  C   UNL     1      23.173  16.542  40.423  1.00  0.00     0.000 A 
ATOM     13  C   UNL     1      25.085  17.938  40.206  1.00  0.00     0.000 A 
ATOM     14  C   UNL     1      23.741  17.815  40.463  1.00  0.00     0.000 A 
ENDBRANCH   8   9
BRANCH   8  15
ATOM     15  C   UNL     1      26.839  14.143  40.881  1.00  0.00    -0.013 A 
ATOM     16  C   UNL     1      26.574  14.845  42.027  1.00  0.00     0.007 A 
ATOM     17  C   UNL     1      27.726  13.099  40.953  1.00  0.00     0.007 A 
ATOM     18  C   UNL     1      27.174  14.533  43.241  1.00  0.00     0.000 A 
ATOM     19  C   UNL     1      28.346  12.764  42.168  1.00  0.00     0.000 A 
ATOM     20  C   UNL     1      28.062  13.485  43.295  1.00  0.00     0.000 A 
ENDBRANCH   8  15
BRANCH   8  21
ATOM     21  N   UNL     1      25.557  13.256  39.073  1.00  0.00    -0.319 N 
ATOM     22  C   UNL     1      26.062  12.415  38.129  1.00  0.00     0.109 A 
ATOM     23  C   UNL     1      24.380  12.755  39.447  1.00  0.00     0.200 A 
ATOM     24  C   UNL     1      25.173  11.383  37.924  1.00  0.00     0.131 A 
ATOM     25  N   UNL     1      24.153  11.615  38.743  1.00  0.00    -0.245 NA
ENDBRANCH   8  21
ENDBRANCH   7   8
TORSDOF 4
ENDMDL
MODEL 3
REMARK VINA RESULT:      -5.2      1.396      4.192
REMARK SMILES Clc1ccccc1C(c1ccccc1)(c1ccccc1)n1ccnc1
REMARK SMILES IDX 1 1 2 2 3 3 4 4 5 5 6 6 7 7 8 8 9 9 10 10 14 11 11 12 13 13
REMARK SMILES IDX 12 14 15 15 16 16 20 17 17 18 19 19 18 20 21 21 22 22 25 23
REMARK SMILES IDX 23 24 24 25
REMARK H PARENT
ROOT
ATOM      1  Cl  UNL     1      24.221  13.259  41.572  1.00  0.00    -0.084 Cl
ATOM      2  C   UNL     1      24.775  12.913  39.949  1.00  0.00     0.047 A 
ATOM      3  C   UNL     1      24.260  11.866  39.220  1.00  0.00     0.021 A 
ATOM      4  C   UNL     1      24.670  11.610  37.929  1.00  0.00     0.002 A 
ATOM      5  C   UNL     1      25.620  12.435  37.379  1.00  0.00     0.001 A 
ATOM      6  C   UNL     1      26.144  13.501  38.123  1.00  0.00     0.008 A 
ATOM      7  C   UNL     1      25.734  13.747  39.397  1.00  0.00     0.006 A 
ENDROOT
BRANCH   7   8
ATOM      8  C   UNL     1      26.324  14.869  40.176  1.00  0.00     0.123 C 
BRANCH   8   9
ATOM      9  C   UNL     1      27.466  15.418  39.392  1.00  0.00    -0.013 A 
ATOM     10  C   UNL     1      28.503  14.701  38.892  1.00  0.00     0.007 A 
ATOM     11  C   UNL     1      27.412  16.807  39.165  1.00  0.00     0.007 A 
ATOM     12  C   UNL     1      29.488  15.347  38.166  1.00  0.00     0.000 A 
ATOM     13  C   UNL     1      28.392  17.438  38.444  1.00  0.00     0.000 A 
ATOM     14  C   UNL     1      29.447  16.721  37.933  1.00  0.00     0.000 A 
ENDBRANCH   8   9
BRANCH   8  15
ATOM     15  C   UNL     1      26.954  14.382  41.432  1.00  0.00    -0.013 A 
ATOM     16  C   UNL     1      26.747  14.965  42.655  1.00  0.00     0.007 A 
ATOM     17  C   UNL     1      27.766  13.278  41.372  1.00  0.00     0.007 A 
ATOM     18  C   UNL     1      27.332  14.474  43.816  1.00  0.00     0.000 A 
ATOM     19  C   UNL     1      28.368  12.763  42.533  1.00  0.00     0.000 A 
ATOM     20  C   UNL     1      28.143  13.368  43.738  1.00  0.00     0.000 A 
ENDBRANCH   8  15
BRANCH   8  21
ATOM     21  N   UNL     1      25.314  15.837  40.488  1.00  0.00    -0.319 N 
ATOM     22  C   UNL     1      25.303  16.658  41.575  1.00  0.00     0.109 A 
ATOM     23  C   UNL     1      24.227  16.126  39.774  1.00  0.00     0.200 A 
ATOM     24  C   UNL     1      24.186  17.460  41.520  1.00  0.00     0.131 A 
ATOM     25  N   UNL     1      23.545  17.116  40.409  1.00  0.00    -0.245 NA
ENDBRANCH   8  21
ENDBRANCH   7   8
TORSDOF 4
ENDMDL
MODEL 4
REMARK VINA RESULT:      -5.1      1.391      4.197
REMARK SMILES Clc1ccccc1C(c1ccccc1)(c1ccccc1)n1ccnc1
REMARK SMILES IDX 1 1 2 2 3 3 4 4 5 5 6 6 7 7 8 8 9 9 10 10 14 11 11 12 13 13
REMARK SMILES IDX 12 14 15 15 16 16 20 17 17 18 19 19 18 20 21 21 22 22 25 23
REMARK SMILES IDX 23 24 24 25
REMARK H PARENT
ROOT
ATOM      1  Cl  UNL     1      24.340  12.969  41.193  1.00  0.00    -0.084 Cl
ATOM      2  C   UNL     1      24.913  12.892  39.542  1.00  0.00     0.047 A 
ATOM      3  C   UNL     1      24.508  11.896  38.684  1.00  0.00     0.021 A 
ATOM      4  C   UNL     1      24.931  11.850  37.374  1.00  0.00     0.002 A 
ATOM      5  C   UNL     1      25.780  12.837  36.936  1.00  0.00     0.001 A 
ATOM      6  C   UNL     1      26.193  13.851  37.811  1.00  0.00     0.008 A 
ATOM      7  C   UNL     1      25.771  13.889  39.104  1.00  0.00     0.006 A 
ENDROOT
BRANCH   7   8
ATOM      8  C   UNL     1      26.242  14.961  40.021  1.00  0.00     0.123 C 
BRANCH   8   9
ATOM      9  C   UNL     1      27.322  15.716  39.324  1.00  0.00    -0.013 A 
ATOM     10  C   UNL     1      27.314  17.046  39.056  1.00  0.00     0.007 A 
ATOM     11  C   UNL     1      28.432  14.940  38.942  1.00  0.00     0.007 A 
ATOM     12  C   UNL     1      28.399  17.615  38.412  1.00  0.00     0.000 A 
ATOM     13  C   UNL     1      29.503  15.512  38.305  1.00  0.00     0.000 A 
ATOM     14  C   UNL     1      29.506  16.858  38.029  1.00  0.00     0.000 A 
ENDBRANCH   8   9
BRANCH   8  15
ATOM     15  C   UNL     1      26.921  14.391  41.216  1.00  0.00    -0.013 A 
ATOM     16  C   UNL     1      26.806  14.923  42.473  1.00  0.00     0.007 A 
ATOM     17  C   UNL     1      27.681  13.260  41.059  1.00  0.00     0.007 A 
ATOM     18  C   UNL     1      27.433  14.355  43.576  1.00  0.00     0.000 A 
ATOM     19  C   UNL     1      28.324  12.668  42.159  1.00  0.00     0.000 A 
ATOM     20  C   UNL     1      28.192  13.223  43.402  1.00  0.00     0.000 A 
ENDBRANCH   8  15
BRANCH   8  21
ATOM     21  N   UNL     1      25.139  15.776  40.437  1.00  0.00    -0.319 N 
ATOM     22  C   UNL     1      24.006  16.011  39.719  1.00  0.00     0.109 A 
ATOM     23  C   UNL     1      25.007  16.426  41.592  1.00  0.00     0.200 A 
ATOM     24  C   UNL     1      23.170  16.822  40.453  1.00  0.00     0.131 A 
ATOM     25  N   UNL     1      23.805  17.061  41.594  1.00  0.00    -0.245 NA
ENDBRANCH   8  21
ENDBRANCH   7   8
TORSDOF 4
ENDMDL
MODEL 5
REMARK VINA RESULT:      -5.0      1.535      3.924
REMARK SMILES Clc1ccccc1C(c1ccccc1)(c1ccccc1)n1ccnc1
REMARK SMILES IDX 1 1 2 2 3 3 4 4 5 5 6 6 7 7 8 8 9 9 10 10 14 11 11 12 13 13
REMARK SMILES IDX 12 14 15 15 16 16 20 17 17 18 19 19 18 20 21 21 22 22 25 23
REMARK SMILES IDX 23 24 24 25
REMARK H PARENT
ROOT
ATOM      1  Cl  UNL     1      24.569  12.738  40.180  1.00  0.00    -0.084 Cl
ATOM      2  C   UNL     1      25.131  13.081  38.559  1.00  0.00     0.047 A 
ATOM      3  C   UNL     1      24.758  12.303  37.488  1.00  0.00     0.021 A 
ATOM      4  C   UNL     1      25.172  12.589  36.205  1.00  0.00     0.002 A 
ATOM      5  C   UNL     1      25.977  13.685  36.017  1.00  0.00     0.001 A 
ATOM      6  C   UNL     1      26.356  14.477  37.109  1.00  0.00     0.008 A 
ATOM      7  C   UNL     1      25.944  14.188  38.373  1.00  0.00     0.006 A 
ENDROOT
BRANCH   7   8
ATOM      8  C   UNL     1      26.380  15.029  39.521  1.00  0.00     0.123 C 
BRANCH   8   9
ATOM      9  C   UNL     1      27.453  15.942  39.035  1.00  0.00    -0.013 A 
ATOM     10  C   UNL     1      27.375  17.295  38.971  1.00  0.00     0.007 A 
ATOM     11  C   UNL     1      28.638  15.298  38.632  1.00  0.00     0.007 A 
ATOM     12  C   UNL     1      28.462  18.016  38.511  1.00  0.00     0.000 A 
ATOM     13  C   UNL     1      29.711  16.021  38.179  1.00  0.00     0.000 A 
ATOM     14  C   UNL     1      29.642  17.391  38.109  1.00  0.00     0.000 A 
ENDBRANCH   8   9
BRANCH   8  15
ATOM     15  C   UNL     1      27.052  14.211  40.565  1.00  0.00    -0.013 A 
ATOM     16  C   UNL     1      27.794  13.093  40.285  1.00  0.00     0.007 A 
ATOM     17  C   UNL     1      26.948  14.606  41.874  1.00  0.00     0.007 A 
ATOM     18  C   UNL     1      28.431  12.361  41.280  1.00  0.00     0.000 A 
ATOM     19  C   UNL     1      27.583  13.882  42.897  1.00  0.00     0.000 A 
ATOM     20  C   UNL     1      28.315  12.770  42.587  1.00  0.00     0.000 A 
ENDBRANCH   8  15
BRANCH   8  21
ATOM     21  N   UNL     1      25.254  15.707  40.091  1.00  0.00    -0.319 N 
ATOM     22  C   UNL     1      25.138  16.113  41.386  1.00  0.00     0.109 A 
ATOM     23  C   UNL     1      24.137  16.082  39.467  1.00  0.00     0.200 A 
ATOM     24  C   UNL     1      23.926  16.745  41.551  1.00  0.00     0.131 A 
ATOM     25  N   UNL     1      23.334  16.713  40.363  1.00  0.00    -0.245 NA
ENDBRANCH   8  21
ENDBRANCH   7   8
TORSDOF 4
ENDMDL
MODEL 6
REMARK VINA RESULT:      -5.0      1.623      4.999
REMARK SMILES Clc1ccccc1C(c1ccccc1)(c1ccccc1)n1ccnc1
REMARK SMILES IDX 1 1 2 2 3 3 4 4 5 5 6 6 7 7 8 8 9 9 10 10 14 11 11 12 13 13
REMARK SMILES IDX 12 14 15 15 16 16 20 17 17 18 19 19 18 20 21 21 22 22 25 23
REMARK SMILES IDX 23 24 24 25
REMARK H PARENT
ROOT
ATOM      1  Cl  UNL     1      28.163  12.374  39.999  1.00  0.00    -0.084 Cl
ATOM      2  C   UNL     1      27.662  13.381  41.339  1.00  0.00     0.047 A 
ATOM      3  C   UNL     1      28.195  13.224  42.598  1.00  0.00     0.021 A 
ATOM      4  C   UNL     1      27.827  14.036  43.649  1.00  0.00     0.002 A 
ATOM      5  C   UNL     1      26.901  15.020  43.408  1.00  0.00     0.001 A 
ATOM      6  C   UNL     1      26.358  15.179  42.126  1.00  0.00     0.008 A 
ATOM      7  C   UNL     1      26.726  14.373  41.094  1.00  0.00     0.006 A 
ENDROOT
BRANCH   7   8
ATOM      8  C   UNL     1      26.117  14.544  39.747  1.00  0.00     0.123 C 
BRANCH   8   9
ATOM      9  C   UNL     1      27.194  14.974  38.811  1.00  0.00    -0.013 A 
ATOM     10  C   UNL     1      28.481  15.239  39.149  1.00  0.00     0.007 A 
ATOM     11  C   UNL     1      26.795  15.088  37.465  1.00  0.00     0.007 A 
ATOM     12  C   UNL     1      29.378  15.615  38.165  1.00  0.00     0.000 A 
ATOM     13  C   UNL     1      27.691  15.460  36.497  1.00  0.00     0.000 A 
ATOM     14  C   UNL     1      28.997  15.731  36.829  1.00  0.00     0.000 A 
ENDBRANCH   8   9
BRANCH   8  15
ATOM     15  C   UNL     1      25.155  15.679  39.729  1.00  0.00    -0.013 A 
ATOM     16  C   UNL     1      23.798  15.515  39.629  1.00  0.00     0.007 A 
ATOM     17  C   UNL     1      25.645  16.955  39.844  1.00  0.00     0.007 A 
ATOM     18  C   UNL     1      22.921  16.592  39.639  1.00  0.00     0.000 A 
ATOM     19  C   UNL     1      24.778  18.060  39.856  1.00  0.00     0.000 A 
ATOM     20  C   UNL     1      23.429  17.864  39.753  1.00  0.00     0.000 A 
ENDBRANCH   8  15
BRANCH   8  21
ATOM     21  N   UNL     1      25.449  13.340  39.350  1.00  0.00    -0.319 N 
ATOM     22  C   UNL     1      25.588  12.707  38.152  1.00  0.00     0.109 A 
ATOM     23  C   UNL     1      24.599  12.614  40.075  1.00  0.00     0.200 A 
ATOM     24  C   UNL     1      24.805  11.575  38.149  1.00  0.00     0.131 A 
ATOM     25  N   UNL     1      24.211  11.541  39.336  1.00  0.00    -0.245 NA
ENDBRANCH   8  21
ENDBRANCH   7   8
TORSDOF 4
ENDMDL
MODEL 7
REMARK VINA RESULT:      -5.0      1.393      4.171
REMARK SMILES Clc1ccccc1C(c1ccccc1)(c1ccccc1)n1ccnc1
REMARK SMILES IDX 1 1 2 2 3 3 4 4 5 5 6 6 7 7 8 8 9 9 10 10 14 11 11 12 13 13
REMARK SMILES IDX 12 14 15 15 16 16 20 17 17 18 19 19 18 20 21 21 22 22 25 23
REMARK SMILES IDX 23 24 24 25
REMARK H PARENT
ROOT
ATOM      1  Cl  UNL     1      24.201  13.088  41.486  1.00  0.00    -0.084 Cl
ATOM      2  C   UNL     1      24.767  12.887  39.843  1.00  0.00     0.047 A 
ATOM      3  C   UNL     1      24.337  11.844  39.055  1.00  0.00     0.021 A 
ATOM      4  C   UNL     1      24.756  11.700  37.750  1.00  0.00     0.002 A 
ATOM      5  C   UNL     1      25.626  12.636  37.246  1.00  0.00     0.001 A 
ATOM      6  C   UNL     1      26.063  13.697  38.049  1.00  0.00     0.008 A 
ATOM      7  C   UNL     1      25.646  13.831  39.338  1.00  0.00     0.006 A 
ENDROOT
BRANCH   7   8
ATOM      8  C   UNL     1      26.144  14.953  40.180  1.00  0.00     0.123 C 
BRANCH   8   9
ATOM      9  C   UNL     1      27.228  15.643  39.425  1.00  0.00    -0.013 A 
ATOM     10  C   UNL     1      27.254  16.959  39.098  1.00  0.00     0.007 A 
ATOM     11  C   UNL     1      28.307  14.817  39.055  1.00  0.00     0.007 A 
ATOM     12  C   UNL     1      28.339  17.465  38.406  1.00  0.00     0.000 A 
ATOM     13  C   UNL     1      29.379  15.327  38.370  1.00  0.00     0.000 A 
ATOM     14  C   UNL     1      29.415  16.659  38.033  1.00  0.00     0.000 A 
ENDBRANCH   8   9
BRANCH   8  15
ATOM     15  C   UNL     1      26.824  14.449  41.403  1.00  0.00    -0.013 A 
ATOM     16  C   UNL     1      27.611  13.327  41.419  1.00  0.00     0.007 A 
ATOM     17  C   UNL     1      26.679  15.154  42.570  1.00  0.00     0.007 A 
ATOM     18  C   UNL     1      28.254  12.893  42.572  1.00  0.00     0.000 A 
ATOM     19  C   UNL     1      27.319  14.734  43.749  1.00  0.00     0.000 A 
ATOM     20  C   UNL     1      28.097  13.610  43.734  1.00  0.00     0.000 A 
ENDBRANCH   8  15
BRANCH   8  21
ATOM     21  N   UNL     1      25.058  15.811  40.551  1.00  0.00    -0.319 N 
ATOM     22  C   UNL     1      24.994  16.576  41.676  1.00  0.00     0.109 A 
ATOM     23  C   UNL     1      23.936  16.034  39.867  1.00  0.00     0.200 A 
ATOM     24  C   UNL     1      23.808  17.277  41.675  1.00  0.00     0.131 A 
ATOM     25  N   UNL     1      23.181  16.927  40.558  1.00  0.00    -0.245 NA
ENDBRANCH   8  21
ENDBRANCH   7   8
TORSDOF 4
ENDMDL
MODEL 8
REMARK VINA RESULT:      -4.8      0.589      1.455
REMARK SMILES Clc1ccccc1C(c1ccccc1)(c1ccccc1)n1ccnc1
REMARK SMILES IDX 1 1 2 2 3 3 4 4 5 5 6 6 7 7 8 8 9 9 10 10 14 11 11 12 13 13
REMARK SMILES IDX 12 14 15 15 16 16 20 17 17 18 19 19 18 20 21 21 22 22 25 23
REMARK SMILES IDX 23 24 24 25
REMARK H PARENT
ROOT
ATOM      1  Cl  UNL     1      24.055  15.694  38.080  1.00  0.00    -0.084 Cl
ATOM      2  C   UNL     1      25.803  15.608  38.103  1.00  0.00     0.047 A 
ATOM      3  C   UNL     1      26.560  16.038  37.038  1.00  0.00     0.021 A 
ATOM      4  C   UNL     1      27.937  16.002  37.065  1.00  0.00     0.002 A 
ATOM      5  C   UNL     1      28.546  15.519  38.197  1.00  0.00     0.001 A 
ATOM      6  C   UNL     1      27.774  15.081  39.281  1.00  0.00     0.008 A 
ATOM      7  C   UNL     1      26.415  15.119  39.246  1.00  0.00     0.006 A 
ENDROOT
BRANCH   7   8
ATOM      8  C   UNL     1      25.615  14.625  40.400  1.00  0.00     0.123 C 
BRANCH   8   9
ATOM      9  C   UNL     1      26.567  14.149  41.444  1.00  0.00    -0.013 A 
ATOM     10  C   UNL     1      26.661  14.629  42.709  1.00  0.00     0.007 A 
ATOM     11  C   UNL     1      27.411  13.099  41.037  1.00  0.00     0.007 A 
ATOM     12  C   UNL     1      27.586  14.077  43.577  1.00  0.00     0.000 A 
ATOM     13  C   UNL     1      28.324  12.557  41.905  1.00  0.00     0.000 A 
ATOM     14  C   UNL     1      28.428  13.035  43.189  1.00  0.00     0.000 A 
ENDBRANCH   8   9
BRANCH   8  15
ATOM     15  C   UNL     1      24.843  13.406  40.039  1.00  0.00    -0.013 A 
ATOM     16  C   UNL     1      23.829  12.901  40.810  1.00  0.00     0.007 A 
ATOM     17  C   UNL     1      25.142  12.766  38.863  1.00  0.00     0.007 A 
ATOM     18  C   UNL     1      23.108  11.773  40.436  1.00  0.00     0.000 A 
ATOM     19  C   UNL     1      24.427  11.623  38.465  1.00  0.00     0.000 A 
ATOM     20  C   UNL     1      23.421  11.143  39.256  1.00  0.00     0.000 A 
ENDBRANCH   8  15
BRANCH   8  21
ATOM     21  N   UNL     1      24.719  15.647  40.853  1.00  0.00    -0.319 N 
ATOM     22  C   UNL     1      25.046  16.946  41.095  1.00  0.00     0.109 A 
ATOM     23  C   UNL     1      23.414  15.525  41.097  1.00  0.00     0.200 A 
ATOM     24  C   UNL     1      23.918  17.627  41.495  1.00  0.00     0.131 A 
ATOM     25  N   UNL     1      22.934  16.735  41.488  1.00  0.00    -0.245 NA
ENDBRANCH   8  21
ENDBRANCH   7   8
TORSDOF 4
ENDMDL
MODEL 9
REMARK VINA RESULT:      -4.8      1.740      4.352
REMARK SMILES Clc1ccccc1C(c1ccccc1)(c1ccccc1)n1ccnc1
REMARK SMILES IDX 1 1 2 2 3 3 4 4 5 5 6 6 7 7 8 8 9 9 10 10 14 11 11 12 13 13
REMARK SMILES IDX 12 14 15 15 16 16 20 17 17 18 19 19 18 20 21 21 22 22 25 23
REMARK SMILES IDX 23 24 24 25
REMARK H PARENT
ROOT
ATOM      1  Cl  UNL     1      23.994  13.628  41.213  1.00  0.00    -0.084 Cl
ATOM      2  C   UNL     1      24.238  15.277  40.684  1.00  0.00     0.047 A 
ATOM      3  C   UNL     1      23.426  16.300  41.117  1.00  0.00     0.021 A 
ATOM      4  C   UNL     1      23.635  17.606  40.729  1.00  0.00     0.002 A 
ATOM      5  C   UNL     1      24.688  17.867  39.888  1.00  0.00     0.001 A 
ATOM      6  C   UNL     1      25.514  16.825  39.447  1.00  0.00     0.008 A 
ATOM      7  C   UNL     1      25.301  15.538  39.834  1.00  0.00     0.006 A 
ENDROOT
BRANCH   7   8
ATOM      8  C   UNL     1      26.176  14.444  39.333  1.00  0.00     0.123 C 
BRANCH   8   9
ATOM      9  C   UNL     1      26.938  13.902  40.494  1.00  0.00    -0.013 A 
ATOM     10  C   UNL     1      27.743  12.811  40.475  1.00  0.00     0.007 A 
ATOM     11  C   UNL     1      26.787  14.630  41.690  1.00  0.00     0.007 A 
ATOM     12  C   UNL     1      28.403  12.433  41.631  1.00  0.00     0.000 A 
ATOM     13  C   UNL     1      27.445  14.249  42.831  1.00  0.00     0.000 A 
ATOM     14  C   UNL     1      28.263  13.145  42.823  1.00  0.00     0.000 A 
ENDBRANCH   8   9
BRANCH   8  15
ATOM     15  C   UNL     1      27.232  14.969  38.427  1.00  0.00    -0.013 A 
ATOM     16  C   UNL     1      27.039  15.179  37.087  1.00  0.00     0.007 A 
ATOM     17  C   UNL     1      28.456  15.283  38.961  1.00  0.00     0.007 A 
ATOM     18  C   UNL     1      28.037  15.693  36.268  1.00  0.00     0.000 A 
ATOM     19  C   UNL     1      29.481  15.803  38.153  1.00  0.00     0.000 A 
ATOM     20  C   UNL     1      29.258  16.001  36.818  1.00  0.00     0.000 A 
ENDBRANCH   8  15
BRANCH   8  21
ATOM     21  N   UNL     1      25.393  13.462  38.643  1.00  0.00    -0.319 N 
ATOM     22  C   UNL     1      24.298  13.712  37.873  1.00  0.00     0.109 A 
ATOM     23  C   UNL     1      25.598  12.146  38.608  1.00  0.00     0.200 A 
ATOM     24  C   UNL     1      23.829  12.523  37.361  1.00  0.00     0.131 A 
ATOM     25  N   UNL     1      24.641  11.581  37.825  1.00  0.00    -0.245 NA
ENDBRANCH   8  21
ENDBRANCH   7   8
TORSDOF 4
ENDMDL
