MODEL 1
REMARK VINA RESULT:      -8.3      0.000      0.000
REMARK SMILES CCOC(=O)Nc1ccc(NCc2ccc(F)cc2)cc1N
REMARK SMILES IDX 7 1 9 2 10 3 20 4 21 5 8 6 6 7 4 8 5 9 3 11 2 12 1 13 22 14
REMARK SMILES IDX 11 17 12 19 13 20 14 21 19 22 15 23 18 24 16 25 17 26
REMARK H PARENT 6 10 22 15 22 16 11 18
REMARK INDEX MAP 1 1 2 2 9 3 11 4 12 5 13 6 19 7 5 8 22 9 38 10 21 11 6 12
REMARK INDEX MAP 7 13 20 14 39 15 40 16 18 17 37 18 8 19 10 20 3 21 14 22 4 23
REMARK INDEX MAP 15 24 16 25 17 26
ROOT
ATOM      1  C   UNL     1     120.546 134.341 102.641  1.00  0.00     0.067 A 
ATOM      2  C   UNL     1     119.978 136.604 102.018  1.00  0.00     0.028 A 
ATOM      3  C   UNL     1     120.941 137.072 102.738  1.00  0.00     0.036 A 
ATOM      4  C   UNL     1     121.833 136.159 103.503  1.00  0.00     0.053 A 
ATOM      5  C   UNL     1     121.654 134.889 103.455  1.00  0.00     0.058 A 
ATOM      6  C   UNL     1     119.765 135.109 101.970  1.00  0.00     0.030 A 
ENDROOT
BRANCH   1   7
ATOM      7  N   UNL     1     120.436 132.929 102.653  1.00  0.00    -0.289 N 
ATOM      8  C   UNL     1     119.229 132.284 103.033  1.00  0.00     0.411 C 
ATOM      9  O   UNL     1     118.645 132.652 103.981  1.00  0.00    -0.224 OA
ATOM     10  H   UNL     1     121.213 132.383 102.391  1.00  0.00     0.173 HD
BRANCH   8  11
ATOM     11  O   UNL     1     118.792 131.208 102.285  1.00  0.00    -0.450 OA
BRANCH  11  12
ATOM     12  C   UNL     1     119.001 131.419 100.936  1.00  0.00     0.231 C 
ATOM     13  C   UNL     1     119.776 130.253 100.414  1.00  0.00     0.049 C 
ENDBRANCH  11  12
ENDBRANCH   8  11
ENDBRANCH   1   7
BRANCH   5  14
ATOM     14  N   UNL     1     122.478 133.950 104.149  1.00  0.00    -0.397 N 
ATOM     15  H   UNL     1     123.163 134.268 104.780  1.00  0.00     0.156 HD
ATOM     16  H   UNL     1     122.360 132.985 103.995  1.00  0.00     0.156 HD
ENDBRANCH   5  14
BRANCH   3  17
ATOM     17  N   UNL     1     121.231 138.458 102.834  1.00  0.00    -0.381 N 
ATOM     18  H   UNL     1     122.135 138.769 102.602  1.00  0.00     0.160 HD
BRANCH  17  19
ATOM     19  C   UNL     1     120.264 139.415 103.254  1.00  0.00     0.148 C 
BRANCH  19  20
ATOM     20  C   UNL     1     120.640 140.840 102.976  1.00  0.00    -0.029 A 
ATOM     21  C   UNL     1     121.532 141.578 103.928  1.00  0.00     0.008 A 
ATOM     22  C   UNL     1     120.169 141.428 101.925  1.00  0.00     0.008 A 
ATOM     23  C   UNL     1     121.843 142.822 103.687  1.00  0.00     0.039 A 
ATOM     24  C   UNL     1     120.515 142.869 101.638  1.00  0.00     0.039 A 
ATOM     25  C   UNL     1     121.295 143.520 102.454  1.00  0.00     0.123 A 
ATOM     26  F   UNL     1     121.616 144.817 102.189  1.00  0.00    -0.207 F 
ENDBRANCH  19  20
ENDBRANCH  17  19
ENDBRANCH   3  17
TORSDOF 7
ENDMDL
MODEL 2
REMARK VINA RESULT:      -8.0      3.119      4.391
REMARK SMILES CCOC(=O)Nc1ccc(NCc2ccc(F)cc2)cc1N
REMARK SMILES IDX 7 1 9 2 10 3 20 4 21 5 8 6 6 7 4 8 5 9 3 11 2 12 1 13 22 14
REMARK SMILES IDX 11 17 12 19 13 20 14 21 19 22 15 23 18 24 16 25 17 26
REMARK H PARENT 6 10 22 15 22 16 11 18
REMARK INDEX MAP 1 1 2 2 9 3 11 4 12 5 13 6 19 7 5 8 22 9 38 10 21 11 6 12
REMARK INDEX MAP 7 13 20 14 39 15 40 16 18 17 37 18 8 19 10 20 3 21 14 22 4 23
REMARK INDEX MAP 15 24 16 25 17 26
ROOT
ATOM      1  C   UNL     1     118.092 133.515 103.363  1.00  0.00     0.067 A 
ATOM      2  C   UNL     1     119.381 135.351 102.470  1.00  0.00     0.028 A 
ATOM      3  C   UNL     1     120.477 134.687 102.615  1.00  0.00     0.036 A 
ATOM      4  C   UNL     1     120.464 133.307 103.172  1.00  0.00     0.053 A 
ATOM      5  C   UNL     1     119.355 132.759 103.516  1.00  0.00     0.058 A 
ATOM      6  C   UNL     1     118.079 134.706 102.882  1.00  0.00     0.030 A 
ENDROOT
BRANCH   1   7
ATOM      7  N   UNL     1     116.926 132.820 103.767  1.00  0.00    -0.289 N 
ATOM      8  C   UNL     1     116.216 133.187 104.942  1.00  0.00     0.411 C 
ATOM      9  O   UNL     1     116.804 133.416 105.931  1.00  0.00    -0.224 OA
ATOM     10  H   UNL     1     116.600 132.068 103.222  1.00  0.00     0.173 HD
BRANCH   8  11
ATOM     11  O   UNL     1     114.836 133.231 104.893  1.00  0.00    -0.450 OA
BRANCH  11  12
ATOM     12  C   UNL     1     114.307 133.646 106.099  1.00  0.00     0.231 C 
ATOM     13  C   UNL     1     112.820 133.519 106.004  1.00  0.00     0.049 C 
ENDBRANCH  11  12
ENDBRANCH   8  11
ENDBRANCH   1   7
BRANCH   5  14
ATOM     14  N   UNL     1     119.261 131.434 104.042  1.00  0.00    -0.397 N 
ATOM     15  H   UNL     1     120.073 130.888 104.150  1.00  0.00     0.156 HD
ATOM     16  H   UNL     1     118.384 131.068 104.297  1.00  0.00     0.156 HD
ENDBRANCH   5  14
BRANCH   3  17
ATOM     17  N   UNL     1     121.747 135.200 102.243  1.00  0.00    -0.381 N 
ATOM     18  H   UNL     1     122.344 134.637 101.700  1.00  0.00     0.160 HD
BRANCH  17  19
ATOM     19  C   UNL     1     122.191 136.499 102.623  1.00  0.00     0.148 C 
BRANCH  19  20
ATOM     20  C   UNL     1     121.594 137.618 101.824  1.00  0.00    -0.029 A 
ATOM     21  C   UNL     1     121.757 137.643 100.334  1.00  0.00     0.008 A 
ATOM     22  C   UNL     1     120.962 138.567 102.433  1.00  0.00     0.008 A 
ATOM     23  C   UNL     1     121.247 138.627  99.646  1.00  0.00     0.039 A 
ATOM     24  C   UNL     1     120.373 139.716 101.650  1.00  0.00     0.039 A 
ATOM     25  C   UNL     1     120.502 139.747 100.355  1.00  0.00     0.123 A 
ATOM     26  F   UNL     1     119.961 140.778  99.647  1.00  0.00    -0.207 F 
ENDBRANCH  19  20
ENDBRANCH  17  19
ENDBRANCH   3  17
TORSDOF 7
ENDMDL
MODEL 3
REMARK VINA RESULT:      -8.0      3.047      4.378
REMARK SMILES CCOC(=O)Nc1ccc(NCc2ccc(F)cc2)cc1N
REMARK SMILES IDX 7 1 9 2 10 3 20 4 21 5 8 6 6 7 4 8 5 9 3 11 2 12 1 13 22 14
REMARK SMILES IDX 11 17 12 19 13 20 14 21 19 22 15 23 18 24 16 25 17 26
REMARK H PARENT 6 10 22 15 22 16 11 18
REMARK INDEX MAP 1 1 2 2 9 3 11 4 12 5 13 6 19 7 5 8 22 9 38 10 21 11 6 12
REMARK INDEX MAP 7 13 20 14 39 15 40 16 18 17 37 18 8 19 10 20 3 21 14 22 4 23
REMARK INDEX MAP 15 24 16 25 17 26
ROOT
ATOM      1  C   UNL     1     118.395 133.200 103.421  1.00  0.00     0.067 A 
ATOM      2  C   UNL     1     120.806 133.324 103.368  1.00  0.00     0.028 A 
ATOM      3  C   UNL     1     120.761 134.440 102.724  1.00  0.00     0.036 A 
ATOM      4  C   UNL     1     119.457 135.060 102.363  1.00  0.00     0.053 A 
ATOM      5  C   UNL     1     118.356 134.486 102.690  1.00  0.00     0.058 A 
ATOM      6  C   UNL     1     119.509 132.649 103.745  1.00  0.00     0.030 A 
ENDROOT
BRANCH   1   7
ATOM      7  N   UNL     1     117.128 132.653 103.738  1.00  0.00    -0.289 N 
ATOM      8  C   UNL     1     116.304 133.230 104.741  1.00  0.00     0.411 C 
ATOM      9  O   UNL     1     116.772 133.553 105.766  1.00  0.00    -0.224 OA
ATOM     10  H   UNL     1     116.811 131.857 103.253  1.00  0.00     0.173 HD
BRANCH   8  11
ATOM     11  O   UNL     1     114.952 133.365 104.487  1.00  0.00    -0.450 OA
BRANCH  11  12
ATOM     12  C   UNL     1     114.230 132.342 105.072  1.00  0.00     0.231 C 
ATOM     13  C   UNL     1     113.284 132.962 106.049  1.00  0.00     0.049 C 
ENDBRANCH  11  12
ENDBRANCH   8  11
ENDBRANCH   1   7
BRANCH   5  14
ATOM     14  N   UNL     1     117.068 135.027 102.393  1.00  0.00    -0.397 N 
ATOM     15  H   UNL     1     116.586 135.554 103.071  1.00  0.00     0.156 HD
ATOM     16  H   UNL     1     116.661 134.873 101.509  1.00  0.00     0.156 HD
ENDBRANCH   5  14
BRANCH   3  17
ATOM     17  N   UNL     1     121.924 135.158 102.340  1.00  0.00    -0.381 N 
ATOM     18  H   UNL     1     122.565 134.729 101.729  1.00  0.00     0.160 HD
BRANCH  17  19
ATOM     19  C   UNL     1     122.198 136.477 102.803  1.00  0.00     0.148 C 
BRANCH  19  20
ATOM     20  C   UNL     1     121.637 137.568 101.940  1.00  0.00    -0.029 A 
ATOM     21  C   UNL     1     120.849 138.681 102.560  1.00  0.00     0.008 A 
ATOM     22  C   UNL     1     121.821 137.524 100.661  1.00  0.00     0.008 A 
ATOM     23  C   UNL     1     120.353 139.620 101.802  1.00  0.00     0.039 A 
ATOM     24  C   UNL     1     121.247 138.599  99.771  1.00  0.00     0.039 A 
ATOM     25  C   UNL     1     120.565 139.576 100.298  1.00  0.00     0.123 A 
ATOM     26  F   UNL     1     120.055 140.552  99.495  1.00  0.00    -0.207 F 
ENDBRANCH  19  20
ENDBRANCH  17  19
ENDBRANCH   3  17
TORSDOF 7
ENDMDL
MODEL 4
REMARK VINA RESULT:      -7.9      1.384      1.667
REMARK SMILES CCOC(=O)Nc1ccc(NCc2ccc(F)cc2)cc1N
REMARK SMILES IDX 7 1 9 2 10 3 20 4 21 5 8 6 6 7 4 8 5 9 3 11 2 12 1 13 22 14
REMARK SMILES IDX 11 17 12 19 13 20 14 21 19 22 15 23 18 24 16 25 17 26
REMARK H PARENT 6 10 22 15 22 16 11 18
REMARK INDEX MAP 1 1 2 2 9 3 11 4 12 5 13 6 19 7 5 8 22 9 38 10 21 11 6 12
REMARK INDEX MAP 7 13 20 14 39 15 40 16 18 17 37 18 8 19 10 20 3 21 14 22 4 23
REMARK INDEX MAP 15 24 16 25 17 26
ROOT
ATOM      1  C   UNL     1     120.587 134.368 102.594  1.00  0.00     0.067 A 
ATOM      2  C   UNL     1     120.083 136.632 101.925  1.00  0.00     0.028 A 
ATOM      3  C   UNL     1     121.081 137.084 102.605  1.00  0.00     0.036 A 
ATOM      4  C   UNL     1     121.962 136.159 103.371  1.00  0.00     0.053 A 
ATOM      5  C   UNL     1     121.736 134.896 103.363  1.00  0.00     0.058 A 
ATOM      6  C   UNL     1     119.816 135.146 101.924  1.00  0.00     0.030 A 
ENDROOT
BRANCH   1   7
ATOM      7  N   UNL     1     120.427 132.962 102.647  1.00  0.00    -0.289 N 
ATOM      8  C   UNL     1     119.207 132.371 103.072  1.00  0.00     0.411 C 
ATOM      9  O   UNL     1     118.659 132.785 104.022  1.00  0.00    -0.224 OA
ATOM     10  H   UNL     1     121.177 132.381 102.383  1.00  0.00     0.173 HD
BRANCH   8  11
ATOM     11  O   UNL     1     118.714 131.292 102.365  1.00  0.00    -0.450 OA
BRANCH  11  12
ATOM     12  C   UNL     1     118.992 131.410 101.016  1.00  0.00     0.231 C 
ATOM     13  C   UNL     1     119.729 130.178 100.601  1.00  0.00     0.049 C 
ENDBRANCH  11  12
ENDBRANCH   8  11
ENDBRANCH   1   7
BRANCH   5  14
ATOM     14  N   UNL     1     122.545 133.946 104.059  1.00  0.00    -0.397 N 
ATOM     15  H   UNL     1     122.121 133.224 104.578  1.00  0.00     0.156 HD
ATOM     16  H   UNL     1     123.526 134.014 104.020  1.00  0.00     0.156 HD
ENDBRANCH   5  14
BRANCH   3  17
ATOM     17  N   UNL     1     121.423 138.460 102.656  1.00  0.00    -0.381 N 
ATOM     18  H   UNL     1     122.318 138.714 102.978  1.00  0.00     0.160 HD
BRANCH  17  19
ATOM     19  C   UNL     1     120.522 139.489 102.259  1.00  0.00     0.148 C 
BRANCH  19  20
ATOM     20  C   UNL     1     120.275 140.536 103.304  1.00  0.00    -0.029 A 
ATOM     21  C   UNL     1     121.178 141.729 103.396  1.00  0.00     0.008 A 
ATOM     22  C   UNL     1     119.295 140.387 104.134  1.00  0.00     0.008 A 
ATOM     23  C   UNL     1     120.966 142.629 104.316  1.00  0.00     0.039 A 
ATOM     24  C   UNL     1     119.043 141.417 105.208  1.00  0.00     0.039 A 
ATOM     25  C   UNL     1     119.816 142.461 105.295  1.00  0.00     0.123 A 
ATOM     26  F   UNL     1     119.582 143.396 106.258  1.00  0.00    -0.207 F 
ENDBRANCH  19  20
ENDBRANCH  17  19
ENDBRANCH   3  17
TORSDOF 7
ENDMDL
MODEL 5
REMARK VINA RESULT:      -7.9      3.158      4.360
REMARK SMILES CCOC(=O)Nc1ccc(NCc2ccc(F)cc2)cc1N
REMARK SMILES IDX 7 1 9 2 10 3 20 4 21 5 8 6 6 7 4 8 5 9 3 11 2 12 1 13 22 14
REMARK SMILES IDX 11 17 12 19 13 20 14 21 19 22 15 23 18 24 16 25 17 26
REMARK H PARENT 6 10 22 15 22 16 11 18
REMARK INDEX MAP 1 1 2 2 9 3 11 4 12 5 13 6 19 7 5 8 22 9 38 10 21 11 6 12
REMARK INDEX MAP 7 13 20 14 39 15 40 16 18 17 37 18 8 19 10 20 3 21 14 22 4 23
REMARK INDEX MAP 15 24 16 25 17 26
ROOT
ATOM      1  C   UNL     1     118.079 133.524 103.368  1.00  0.00     0.067 A 
ATOM      2  C   UNL     1     119.348 135.375 102.477  1.00  0.00     0.028 A 
ATOM      3  C   UNL     1     120.451 134.725 102.622  1.00  0.00     0.036 A 
ATOM      4  C   UNL     1     120.454 133.343 103.178  1.00  0.00     0.053 A 
ATOM      5  C   UNL     1     119.351 132.782 103.520  1.00  0.00     0.058 A 
ATOM      6  C   UNL     1     118.053 134.715 102.888  1.00  0.00     0.030 A 
ENDROOT
BRANCH   1   7
ATOM      7  N   UNL     1     116.922 132.815 103.770  1.00  0.00    -0.289 N 
ATOM      8  C   UNL     1     116.173 133.208 104.912  1.00  0.00     0.411 C 
ATOM      9  O   UNL     1     116.730 133.490 105.905  1.00  0.00    -0.224 OA
ATOM     10  H   UNL     1     116.629 132.034 103.247  1.00  0.00     0.173 HD
BRANCH   8  11
ATOM     11  O   UNL     1     114.794 133.214 104.828  1.00  0.00    -0.450 OA
BRANCH  11  12
ATOM     12  C   UNL     1     114.217 133.091 106.077  1.00  0.00     0.231 C 
ATOM     13  C   UNL     1     113.195 134.174 106.207  1.00  0.00     0.049 C 
ENDBRANCH  11  12
ENDBRANCH   8  11
ENDBRANCH   1   7
BRANCH   5  14
ATOM     14  N   UNL     1     119.272 131.456 104.045  1.00  0.00    -0.397 N 
ATOM     15  H   UNL     1     119.105 131.315 105.005  1.00  0.00     0.156 HD
ATOM     16  H   UNL     1     119.384 130.683 103.446  1.00  0.00     0.156 HD
ENDBRANCH   5  14
BRANCH   3  17
ATOM     17  N   UNL     1     121.715 135.253 102.251  1.00  0.00    -0.381 N 
ATOM     18  H   UNL     1     122.330 134.688 101.730  1.00  0.00     0.160 HD
BRANCH  17  19
ATOM     19  C   UNL     1     122.129 136.568 102.604  1.00  0.00     0.148 C 
BRANCH  19  20
ATOM     20  C   UNL     1     121.597 137.648 101.710  1.00  0.00    -0.029 A 
ATOM     21  C   UNL     1     120.800 138.776 102.291  1.00  0.00     0.008 A 
ATOM     22  C   UNL     1     121.812 137.582 100.437  1.00  0.00     0.008 A 
ATOM     23  C   UNL     1     120.329 139.705 101.506  1.00  0.00     0.039 A 
ATOM     24  C   UNL     1     121.266 138.645  99.515  1.00  0.00     0.039 A 
ATOM     25  C   UNL     1     120.577 139.635 100.009  1.00  0.00     0.123 A 
ATOM     26  F   UNL     1     120.093 140.600  99.178  1.00  0.00    -0.207 F 
ENDBRANCH  19  20
ENDBRANCH  17  19
ENDBRANCH   3  17
TORSDOF 7
ENDMDL
MODEL 6
REMARK VINA RESULT:      -7.9      3.094      4.391
REMARK SMILES CCOC(=O)Nc1ccc(NCc2ccc(F)cc2)cc1N
REMARK SMILES IDX 7 1 9 2 10 3 20 4 21 5 8 6 6 7 4 8 5 9 3 11 2 12 1 13 22 14
REMARK SMILES IDX 11 17 12 19 13 20 14 21 19 22 15 23 18 24 16 25 17 26
REMARK H PARENT 6 10 22 15 22 16 11 18
REMARK INDEX MAP 1 1 2 2 9 3 11 4 12 5 13 6 19 7 5 8 22 9 38 10 21 11 6 12
REMARK INDEX MAP 7 13 20 14 39 15 40 16 18 17 37 18 8 19 10 20 3 21 14 22 4 23
REMARK INDEX MAP 15 24 16 25 17 26
ROOT
ATOM      1  C   UNL     1     118.534 133.237 103.359  1.00  0.00     0.067 A 
ATOM      2  C   UNL     1     120.922 133.556 103.197  1.00  0.00     0.028 A 
ATOM      3  C   UNL     1     120.758 134.683 102.592  1.00  0.00     0.036 A 
ATOM      4  C   UNL     1     119.392 135.206 102.313  1.00  0.00     0.053 A 
ATOM      5  C   UNL     1     118.358 134.537 102.673  1.00  0.00     0.058 A 
ATOM      6  C   UNL     1     119.702 132.769 103.613  1.00  0.00     0.030 A 
ENDROOT
BRANCH   1   7
ATOM      7  N   UNL     1     117.331 132.582 103.718  1.00  0.00    -0.289 N 
ATOM      8  C   UNL     1     116.472 133.109 104.719  1.00  0.00     0.411 C 
ATOM      9  O   UNL     1     116.924 133.507 105.725  1.00  0.00    -0.224 OA
ATOM     10  H   UNL     1     117.085 131.744 103.263  1.00  0.00     0.173 HD
BRANCH   8  11
ATOM     11  O   UNL     1     115.109 133.105 104.489  1.00  0.00    -0.450 OA
BRANCH  11  12
ATOM     12  C   UNL     1     114.437 132.423 105.484  1.00  0.00     0.231 C 
ATOM     13  C   UNL     1     113.188 133.186 105.787  1.00  0.00     0.049 C 
ENDBRANCH  11  12
ENDBRANCH   8  11
ENDBRANCH   1   7
BRANCH   5  14
ATOM     14  N   UNL     1     117.017 134.981 102.455  1.00  0.00    -0.397 N 
ATOM     15  H   UNL     1     116.805 135.942 102.486  1.00  0.00     0.156 HD
ATOM     16  H   UNL     1     116.305 134.326 102.273  1.00  0.00     0.156 HD
ENDBRANCH   5  14
BRANCH   3  17
ATOM     17  N   UNL     1     121.839 135.503 102.177  1.00  0.00    -0.381 N 
ATOM     18  H   UNL     1     122.521 135.120 101.579  1.00  0.00     0.160 HD
BRANCH  17  19
ATOM     19  C   UNL     1     121.976 136.858 102.592  1.00  0.00     0.148 C 
BRANCH  19  20
ATOM     20  C   UNL     1     121.429 137.863 101.623  1.00  0.00    -0.029 A 
ATOM     21  C   UNL     1     121.689 137.707 100.156  1.00  0.00     0.008 A 
ATOM     22  C   UNL     1     120.754 138.872 102.068  1.00  0.00     0.008 A 
ATOM     23  C   UNL     1     121.221 138.592  99.320  1.00  0.00     0.039 A 
ATOM     24  C   UNL     1     120.213 139.908 101.113  1.00  0.00     0.039 A 
ATOM     25  C   UNL     1     120.427 139.781  99.834  1.00  0.00     0.123 A 
ATOM     26  F   UNL     1     119.930 140.711  98.971  1.00  0.00    -0.207 F 
ENDBRANCH  19  20
ENDBRANCH  17  19
ENDBRANCH   3  17
TORSDOF 7
ENDMDL
MODEL 7
REMARK VINA RESULT:      -7.9      1.402      1.750
REMARK SMILES CCOC(=O)Nc1ccc(NCc2ccc(F)cc2)cc1N
REMARK SMILES IDX 7 1 9 2 10 3 20 4 21 5 8 6 6 7 4 8 5 9 3 11 2 12 1 13 22 14
REMARK SMILES IDX 11 17 12 19 13 20 14 21 19 22 15 23 18 24 16 25 17 26
REMARK H PARENT 6 10 22 15 22 16 11 18
REMARK INDEX MAP 1 1 2 2 9 3 11 4 12 5 13 6 19 7 5 8 22 9 38 10 21 11 6 12
REMARK INDEX MAP 7 13 20 14 39 15 40 16 18 17 37 18 8 19 10 20 3 21 14 22 4 23
REMARK INDEX MAP 15 24 16 25 17 26
ROOT
ATOM      1  C   UNL     1     120.520 134.431 102.557  1.00  0.00     0.067 A 
ATOM      2  C   UNL     1     119.878 136.706 102.069  1.00  0.00     0.028 A 
ATOM      3  C   UNL     1     120.951 137.157 102.624  1.00  0.00     0.036 A 
ATOM      4  C   UNL     1     121.950 136.227 103.217  1.00  0.00     0.053 A 
ATOM      5  C   UNL     1     121.753 134.959 103.182  1.00  0.00     0.058 A 
ATOM      6  C   UNL     1     119.646 135.215 102.037  1.00  0.00     0.030 A 
ENDROOT
BRANCH   1   7
ATOM      7  N   UNL     1     120.401 133.020 102.567  1.00  0.00    -0.289 N 
ATOM      8  C   UNL     1     119.226 132.380 103.044  1.00  0.00     0.411 C 
ATOM      9  O   UNL     1     118.727 132.745 104.040  1.00  0.00    -0.224 OA
ATOM     10  H   UNL     1     121.149 132.471 102.237  1.00  0.00     0.173 HD
BRANCH   8  11
ATOM     11  O   UNL     1     118.718 131.313 102.328  1.00  0.00    -0.450 OA
BRANCH  11  12
ATOM     12  C   UNL     1     119.014 131.428 100.983  1.00  0.00     0.231 C 
ATOM     13  C   UNL     1     119.709 130.172 100.568  1.00  0.00     0.049 C 
ENDBRANCH  11  12
ENDBRANCH   8  11
ENDBRANCH   1   7
BRANCH   5  14
ATOM     14  N   UNL     1     122.673 134.005 103.715  1.00  0.00    -0.397 N 
ATOM     15  H   UNL     1     123.421 133.679 103.163  1.00  0.00     0.156 HD
ATOM     16  H   UNL     1     122.559 133.672 104.635  1.00  0.00     0.156 HD
ENDBRANCH   5  14
BRANCH   3  17
ATOM     17  N   UNL     1     121.266 138.540 102.689  1.00  0.00    -0.381 N 
ATOM     18  H   UNL     1     122.192 138.805 102.890  1.00  0.00     0.160 HD
BRANCH  17  19
ATOM     19  C   UNL     1     120.293 139.558 102.476  1.00  0.00     0.148 C 
BRANCH  19  20
ATOM     20  C   UNL     1     120.256 140.613 103.540  1.00  0.00    -0.029 A 
ATOM     21  C   UNL     1     119.117 140.654 104.515  1.00  0.00     0.008 A 
ATOM     22  C   UNL     1     121.198 141.497 103.593  1.00  0.00     0.008 A 
ATOM     23  C   UNL     1     119.084 141.583 105.429  1.00  0.00     0.039 A 
ATOM     24  C   UNL     1     121.168 142.582 104.641  1.00  0.00     0.039 A 
ATOM     25  C   UNL     1     120.188 142.625 105.498  1.00  0.00     0.123 A 
ATOM     26  F   UNL     1     120.167 143.599 106.451  1.00  0.00    -0.207 F 
ENDBRANCH  19  20
ENDBRANCH  17  19
ENDBRANCH   3  17
TORSDOF 7
ENDMDL
MODEL 8
REMARK VINA RESULT:      -7.8      2.488      3.769
REMARK SMILES CCOC(=O)Nc1ccc(NCc2ccc(F)cc2)cc1N
REMARK SMILES IDX 7 1 9 2 10 3 20 4 21 5 8 6 6 7 4 8 5 9 3 11 2 12 1 13 22 14
REMARK SMILES IDX 11 17 12 19 13 20 14 21 19 22 15 23 18 24 16 25 17 26
REMARK H PARENT 6 10 22 15 22 16 11 18
REMARK INDEX MAP 1 1 2 2 9 3 11 4 12 5 13 6 19 7 5 8 22 9 38 10 21 11 6 12
REMARK INDEX MAP 7 13 20 14 39 15 40 16 18 17 37 18 8 19 10 20 3 21 14 22 4 23
REMARK INDEX MAP 15 24 16 25 17 26
ROOT
ATOM      1  C   UNL     1     120.605 137.369 101.995  1.00  0.00     0.067 A 
ATOM      2  C   UNL     1     119.162 138.929 103.142  1.00  0.00     0.028 A 
ATOM      3  C   UNL     1     119.473 139.867 102.315  1.00  0.00     0.036 A 
ATOM      4  C   UNL     1     120.423 139.613 101.197  1.00  0.00     0.053 A 
ATOM      5  C   UNL     1     120.947 138.452 101.045  1.00  0.00     0.058 A 
ATOM      6  C   UNL     1     119.786 137.565 102.964  1.00  0.00     0.030 A 
ENDROOT
BRANCH   1   7
ATOM      7  N   UNL     1     121.232 136.126 101.737  1.00  0.00    -0.289 N 
ATOM      8  C   UNL     1     122.162 135.563 102.651  1.00  0.00     0.411 C 
ATOM      9  O   UNL     1     122.991 136.239 103.131  1.00  0.00    -0.224 OA
ATOM     10  H   UNL     1     121.018 135.642 100.906  1.00  0.00     0.173 HD
BRANCH   8  11
ATOM     11  O   UNL     1     122.081 134.211 102.926  1.00  0.00    -0.450 OA
BRANCH  11  12
ATOM     12  C   UNL     1     120.909 133.906 103.591  1.00  0.00     0.231 C 
ATOM     13  C   UNL     1     120.098 133.030 102.692  1.00  0.00     0.049 C 
ENDBRANCH  11  12
ENDBRANCH   8  11
ENDBRANCH   1   7
BRANCH   5  14
ATOM     14  N   UNL     1     121.853 138.128  99.988  1.00  0.00    -0.397 N 
ATOM     15  H   UNL     1     122.117 138.818  99.337  1.00  0.00     0.156 HD
ATOM     16  H   UNL     1     122.213 137.215  99.912  1.00  0.00     0.156 HD
ENDBRANCH   5  14
BRANCH   3  17
ATOM     17  N   UNL     1     118.929 141.176 102.389  1.00  0.00    -0.381 N 
ATOM     18  H   UNL     1     117.961 141.279 102.535  1.00  0.00     0.160 HD
BRANCH  17  19
ATOM     19  C   UNL     1     119.730 142.347 102.260  1.00  0.00     0.148 C 
BRANCH  19  20
ATOM     20  C   UNL     1     120.589 142.646 103.452  1.00  0.00    -0.029 A 
ATOM     21  C   UNL     1     120.076 142.368 104.833  1.00  0.00     0.008 A 
ATOM     22  C   UNL     1     121.760 143.164 103.277  1.00  0.00     0.008 A 
ATOM     23  C   UNL     1     120.824 142.643 105.866  1.00  0.00     0.039 A 
ATOM     24  C   UNL     1     122.633 143.495 104.464  1.00  0.00     0.039 A 
ATOM     25  C   UNL     1     122.202 143.252 105.669  1.00  0.00     0.123 A 
ATOM     26  F   UNL     1     122.994 143.540 106.739  1.00  0.00    -0.207 F 
ENDBRANCH  19  20
ENDBRANCH  17  19
ENDBRANCH   3  17
TORSDOF 7
ENDMDL
MODEL 9
REMARK VINA RESULT:      -7.7      1.959      2.635
REMARK SMILES CCOC(=O)Nc1ccc(NCc2ccc(F)cc2)cc1N
REMARK SMILES IDX 7 1 9 2 10 3 20 4 21 5 8 6 6 7 4 8 5 9 3 11 2 12 1 13 22 14
REMARK SMILES IDX 11 17 12 19 13 20 14 21 19 22 15 23 18 24 16 25 17 26
REMARK H PARENT 6 10 22 15 22 16 11 18
REMARK INDEX MAP 1 1 2 2 9 3 11 4 12 5 13 6 19 7 5 8 22 9 38 10 21 11 6 12
REMARK INDEX MAP 7 13 20 14 39 15 40 16 18 17 37 18 8 19 10 20 3 21 14 22 4 23
REMARK INDEX MAP 15 24 16 25 17 26
ROOT
ATOM      1  C   UNL     1     120.355 136.011 102.037  1.00  0.00     0.067 A 
ATOM      2  C   UNL     1     121.614 138.052 101.754  1.00  0.00     0.028 A 
ATOM      3  C   UNL     1     120.785 138.698 102.500  1.00  0.00     0.036 A 
ATOM      4  C   UNL     1     119.614 138.012 103.111  1.00  0.00     0.053 A 
ATOM      5  C   UNL     1     119.415 136.761 102.900  1.00  0.00     0.058 A 
ATOM      6  C   UNL     1     121.373 136.582 101.503  1.00  0.00     0.030 A 
ENDROOT
BRANCH   1   7
ATOM      7  N   UNL     1     120.049 134.638 101.872  1.00  0.00    -0.289 N 
ATOM      8  C   UNL     1     120.524 133.660 102.786  1.00  0.00     0.411 C 
ATOM      9  O   UNL     1     121.639 133.692 103.148  1.00  0.00    -0.224 OA
ATOM     10  H   UNL     1     119.496 134.356 101.108  1.00  0.00     0.173 HD
BRANCH   8  11
ATOM     11  O   UNL     1     119.656 132.667 103.200  1.00  0.00    -0.450 OA
BRANCH  11  12
ATOM     12  C   UNL     1     118.653 132.462 102.273  1.00  0.00     0.231 C 
ATOM     13  C   UNL     1     119.106 131.374 101.355  1.00  0.00     0.049 C 
ENDBRANCH  11  12
ENDBRANCH   8  11
ENDBRANCH   1   7
BRANCH   5  14
ATOM     14  N   UNL     1     118.325 136.030 103.464  1.00  0.00    -0.397 N 
ATOM     15  H   UNL     1     117.399 136.334 103.317  1.00  0.00     0.156 HD
ATOM     16  H   UNL     1     118.498 135.223 103.999  1.00  0.00     0.156 HD
ENDBRANCH   5  14
BRANCH   3  17
ATOM     17  N   UNL     1     120.933 140.076 102.809  1.00  0.00    -0.381 N 
ATOM     18  H   UNL     1     121.424 140.652 102.179  1.00  0.00     0.160 HD
BRANCH  17  19
ATOM     19  C   UNL     1     120.400 140.657 103.994  1.00  0.00     0.148 C 
BRANCH  19  20
ATOM     20  C   UNL     1     121.207 141.795 104.545  1.00  0.00    -0.029 A 
ATOM     21  C   UNL     1     121.293 142.002 106.027  1.00  0.00     0.008 A 
ATOM     22  C   UNL     1     121.804 142.603 103.732  1.00  0.00     0.008 A 
ATOM     23  C   UNL     1     121.986 143.002 106.499  1.00  0.00     0.039 A 
ATOM     24  C   UNL     1     122.602 143.768 104.264  1.00  0.00     0.039 A 
ATOM     25  C   UNL     1     122.691 143.956 105.550  1.00  0.00     0.123 A 
ATOM     26  F   UNL     1     123.420 145.002 106.030  1.00  0.00    -0.207 F 
ENDBRANCH  19  20
ENDBRANCH  17  19
ENDBRANCH   3  17
TORSDOF 7
ENDMDL
