MODEL 1
REMARK VINA RESULT:      -5.9      0.000      0.000
REMARK SMILES CC/C(=C(\c1ccccc1)c1ccc(OCC[NH+](C)C)cc1)c1ccccc1
REMARK SMILES IDX 15 1 14 2 11 3 12 4 22 5 13 6 21 7 4 8 3 9 2 10 1 11 23 12
REMARK SMILES IDX 24 13 28 14 25 15 27 16 26 17 5 18 6 19 10 20 7 21 9 22 8 23
REMARK SMILES IDX 16 24 17 25 18 26 19 27 20 28
REMARK H PARENT 18 29
ROOT
ATOM      1  O   UNL     1      32.188  -2.045   4.105  1.00  0.00    -0.488 OA
ENDROOT
BRANCH   1   2
ATOM      2  C   UNL     1      31.953  -1.020   5.003  1.00  0.00     0.119 A 
ATOM      3  C   UNL     1      31.487   1.022   6.945  1.00  0.00    -0.017 A 
ATOM      4  C   UNL     1      31.498   1.295   5.591  1.00  0.00     0.012 A 
ATOM      5  C   UNL     1      31.715  -0.304   7.299  1.00  0.00     0.012 A 
ATOM      6  C   UNL     1      31.726   0.293   4.661  1.00  0.00     0.047 A 
ATOM      7  C   UNL     1      31.940  -1.292   6.378  1.00  0.00     0.047 A 
BRANCH   3   8
ATOM      8  C   UNL     1      31.227   2.047   7.941  1.00  0.00    -0.007 C 
ATOM      9  C   UNL     1      30.024   2.322   8.374  1.00  0.00    -0.033 C 
BRANCH   9  10
ATOM     10  C   UNL     1      29.696   3.391   9.356  1.00  0.00     0.033 C 
ATOM     11  C   UNL     1      29.349   4.647   8.610  1.00  0.00     0.009 C 
ENDBRANCH   9  10
BRANCH   9  12
ATOM     12  C   UNL     1      28.863   1.517   7.953  1.00  0.00    -0.022 A 
ATOM     13  C   UNL     1      28.466   0.400   8.642  1.00  0.00     0.008 A 
ATOM     14  C   UNL     1      28.182   1.902   6.839  1.00  0.00     0.008 A 
ATOM     15  C   UNL     1      27.384  -0.321   8.203  1.00  0.00     0.001 A 
ATOM     16  C   UNL     1      27.075   1.198   6.357  1.00  0.00     0.001 A 
ATOM     17  C   UNL     1      26.700   0.082   7.068  1.00  0.00     0.000 A 
ENDBRANCH   9  12
BRANCH   8  18
ATOM     18  C   UNL     1      32.354   2.811   8.437  1.00  0.00    -0.018 A 
ATOM     19  C   UNL     1      32.895   2.598   9.689  1.00  0.00     0.009 A 
ATOM     20  C   UNL     1      32.889   3.830   7.654  1.00  0.00     0.009 A 
ATOM     21  C   UNL     1      33.930   3.389  10.117  1.00  0.00     0.001 A 
ATOM     22  C   UNL     1      33.927   4.631   8.067  1.00  0.00     0.001 A 
ATOM     23  C   UNL     1      34.456   4.397   9.333  1.00  0.00     0.000 A 
ENDBRANCH   8  18
ENDBRANCH   3   8
ENDBRANCH   1   2
BRANCH   1  24
ATOM     24  C   UNL     1      31.437  -2.422   3.005  1.00  0.00     0.290 C 
BRANCH  24  25
ATOM     25  C   UNL     1      31.985  -2.009   1.665  1.00  0.00     0.303 C 
BRANCH  25  26
ATOM     26  N   UNL     1      31.314  -2.639   0.569  1.00  0.00    -0.337 N 
ATOM     27  C   UNL     1      30.312  -3.598   0.982  1.00  0.00     0.332 C 
ATOM     28  C   UNL     1      32.220  -3.330  -0.326  1.00  0.00     0.332 C 
ATOM     29  H   UNL     1      30.807  -1.926  -0.036  1.00  0.00     0.347 HD
ENDBRANCH  25  26
ENDBRANCH  24  25
ENDBRANCH   1  24
TORSDOF 8
ENDMDL
MODEL 2
REMARK VINA RESULT:      -5.8      0.339      1.310
REMARK SMILES CC/C(=C(\c1ccccc1)c1ccc(OCC[NH+](C)C)cc1)c1ccccc1
REMARK SMILES IDX 15 1 14 2 11 3 12 4 22 5 13 6 21 7 4 8 3 9 2 10 1 11 23 12
REMARK SMILES IDX 24 13 28 14 25 15 27 16 26 17 5 18 6 19 10 20 7 21 9 22 8 23
REMARK SMILES IDX 16 24 17 25 18 26 19 27 20 28
REMARK H PARENT 18 29
ROOT
ATOM      1  O   UNL     1      32.297  -1.808   3.932  1.00  0.00    -0.488 OA
ENDROOT
BRANCH   1   2
ATOM      2  C   UNL     1      32.026  -0.900   4.939  1.00  0.00     0.119 A 
ATOM      3  C   UNL     1      31.450   1.058   6.937  1.00  0.00    -0.017 A 
ATOM      4  C   UNL     1      31.666  -0.267   7.258  1.00  0.00     0.012 A 
ATOM      5  C   UNL     1      31.532   1.377   5.585  1.00  0.00     0.012 A 
ATOM      6  C   UNL     1      31.944  -1.206   6.277  1.00  0.00     0.047 A 
ATOM      7  C   UNL     1      31.807   0.448   4.617  1.00  0.00     0.047 A 
BRANCH   3   8
ATOM      8  C   UNL     1      31.180   2.068   7.945  1.00  0.00    -0.007 C 
ATOM      9  C   UNL     1      29.974   2.326   8.382  1.00  0.00    -0.033 C 
BRANCH   9  10
ATOM     10  C   UNL     1      29.636   3.380   9.377  1.00  0.00     0.033 C 
ATOM     11  C   UNL     1      29.279   4.641   8.647  1.00  0.00     0.009 C 
ENDBRANCH   9  10
BRANCH   9  12
ATOM     12  C   UNL     1      28.821   1.515   7.952  1.00  0.00    -0.022 A 
ATOM     13  C   UNL     1      28.399   0.419   8.660  1.00  0.00     0.008 A 
ATOM     14  C   UNL     1      28.174   1.871   6.808  1.00  0.00     0.008 A 
ATOM     15  C   UNL     1      27.326  -0.309   8.211  1.00  0.00     0.001 A 
ATOM     16  C   UNL     1      27.077   1.159   6.314  1.00  0.00     0.001 A 
ATOM     17  C   UNL     1      26.676   0.065   7.046  1.00  0.00     0.000 A 
ENDBRANCH   9  12
BRANCH   8  18
ATOM     18  C   UNL     1      32.299   2.837   8.451  1.00  0.00    -0.018 A 
ATOM     19  C   UNL     1      32.891   3.846   7.719  1.00  0.00     0.009 A 
ATOM     20  C   UNL     1      32.836   2.526   9.697  1.00  0.00     0.009 A 
ATOM     21  C   UNL     1      33.978   4.503   8.237  1.00  0.00     0.001 A 
ATOM     22  C   UNL     1      33.925   3.175  10.232  1.00  0.00     0.001 A 
ATOM     23  C   UNL     1      34.504   4.189   9.475  1.00  0.00     0.000 A 
ENDBRANCH   8  18
ENDBRANCH   3   8
ENDBRANCH   1   2
BRANCH   1  24
ATOM     24  C   UNL     1      31.416  -2.422   3.059  1.00  0.00     0.290 C 
BRANCH  24  25
ATOM     25  C   UNL     1      31.694  -2.215   1.594  1.00  0.00     0.303 C 
BRANCH  25  26
ATOM     26  N   UNL     1      31.003  -3.147   0.757  1.00  0.00    -0.337 N 
ATOM     27  C   UNL     1      31.119  -4.519   1.204  1.00  0.00     0.332 C 
ATOM     28  C   UNL     1      31.451  -3.109  -0.620  1.00  0.00     0.332 C 
ATOM     29  H   UNL     1      29.961  -2.937   0.721  1.00  0.00     0.347 HD
ENDBRANCH  25  26
ENDBRANCH  24  25
ENDBRANCH   1  24
TORSDOF 8
ENDMDL
MODEL 3
REMARK VINA RESULT:      -5.8      0.398      1.334
REMARK SMILES CC/C(=C(\c1ccccc1)c1ccc(OCC[NH+](C)C)cc1)c1ccccc1
REMARK SMILES IDX 15 1 14 2 11 3 12 4 22 5 13 6 21 7 4 8 3 9 2 10 1 11 23 12
REMARK SMILES IDX 24 13 28 14 25 15 27 16 26 17 5 18 6 19 10 20 7 21 9 22 8 23
REMARK SMILES IDX 16 24 17 25 18 26 19 27 20 28
REMARK H PARENT 18 29
ROOT
ATOM      1  O   UNL     1      32.249  -1.816   3.964  1.00  0.00    -0.488 OA
ENDROOT
BRANCH   1   2
ATOM      2  C   UNL     1      31.994  -0.848   4.918  1.00  0.00     0.119 A 
ATOM      3  C   UNL     1      31.480   1.070   6.971  1.00  0.00    -0.017 A 
ATOM      4  C   UNL     1      31.554   1.431   5.640  1.00  0.00     0.012 A 
ATOM      5  C   UNL     1      31.670  -0.281   7.245  1.00  0.00     0.012 A 
ATOM      6  C   UNL     1      31.804   0.489   4.655  1.00  0.00     0.047 A 
ATOM      7  C   UNL     1      31.917  -1.210   6.270  1.00  0.00     0.047 A 
BRANCH   3   8
ATOM      8  C   UNL     1      31.196   2.031   8.022  1.00  0.00    -0.007 C 
ATOM      9  C   UNL     1      29.981   2.295   8.427  1.00  0.00    -0.033 C 
BRANCH   9  10
ATOM     10  C   UNL     1      29.629   3.303   9.465  1.00  0.00     0.033 C 
ATOM     11  C   UNL     1      29.297   4.601   8.789  1.00  0.00     0.009 C 
ENDBRANCH   9  10
BRANCH   9  12
ATOM     12  C   UNL     1      28.827   1.537   7.913  1.00  0.00    -0.022 A 
ATOM     13  C   UNL     1      28.164   1.908   6.771  1.00  0.00     0.008 A 
ATOM     14  C   UNL     1      28.413   0.443   8.610  1.00  0.00     0.008 A 
ATOM     15  C   UNL     1      27.088   1.173   6.340  1.00  0.00     0.001 A 
ATOM     16  C   UNL     1      27.322  -0.334   8.207  1.00  0.00     0.001 A 
ATOM     17  C   UNL     1      26.677   0.062   7.058  1.00  0.00     0.000 A 
ENDBRANCH   9  12
BRANCH   8  18
ATOM     18  C   UNL     1      32.312   2.744   8.609  1.00  0.00    -0.018 A 
ATOM     19  C   UNL     1      32.928   3.802   7.972  1.00  0.00     0.009 A 
ATOM     20  C   UNL     1      32.822   2.328   9.835  1.00  0.00     0.009 A 
ATOM     21  C   UNL     1      34.011   4.403   8.561  1.00  0.00     0.001 A 
ATOM     22  C   UNL     1      33.906   2.919  10.441  1.00  0.00     0.001 A 
ATOM     23  C   UNL     1      34.509   3.985   9.779  1.00  0.00     0.000 A 
ENDBRANCH   8  18
ENDBRANCH   3   8
ENDBRANCH   1   2
BRANCH   1  24
ATOM     24  C   UNL     1      31.384  -2.362   3.032  1.00  0.00     0.290 C 
BRANCH  24  25
ATOM     25  C   UNL     1      31.802  -2.225   1.591  1.00  0.00     0.303 C 
BRANCH  25  26
ATOM     26  N   UNL     1      31.292  -3.272   0.760  1.00  0.00    -0.337 N 
ATOM     27  C   UNL     1      31.378  -4.583   1.367  1.00  0.00     0.332 C 
ATOM     28  C   UNL     1      31.964  -3.352  -0.521  1.00  0.00     0.332 C 
ATOM     29  H   UNL     1      30.264  -3.120   0.531  1.00  0.00     0.347 HD
ENDBRANCH  25  26
ENDBRANCH  24  25
ENDBRANCH   1  24
TORSDOF 8
ENDMDL
MODEL 4
REMARK VINA RESULT:      -5.8      0.249      1.105
REMARK SMILES CC/C(=C(\c1ccccc1)c1ccc(OCC[NH+](C)C)cc1)c1ccccc1
REMARK SMILES IDX 15 1 14 2 11 3 12 4 22 5 13 6 21 7 4 8 3 9 2 10 1 11 23 12
REMARK SMILES IDX 24 13 28 14 25 15 27 16 26 17 5 18 6 19 10 20 7 21 9 22 8 23
REMARK SMILES IDX 16 24 17 25 18 26 19 27 20 28
REMARK H PARENT 18 29
ROOT
ATOM      1  O   UNL     1      32.258  -1.852   3.923  1.00  0.00    -0.488 OA
ENDROOT
BRANCH   1   2
ATOM      2  C   UNL     1      32.004  -0.955   4.944  1.00  0.00     0.119 A 
ATOM      3  C   UNL     1      31.461   0.983   6.971  1.00  0.00    -0.017 A 
ATOM      4  C   UNL     1      31.703  -0.342   7.277  1.00  0.00     0.012 A 
ATOM      5  C   UNL     1      31.500   1.311   5.620  1.00  0.00     0.012 A 
ATOM      6  C   UNL     1      31.965  -1.271   6.281  1.00  0.00     0.047 A 
ATOM      7  C   UNL     1      31.759   0.392   4.638  1.00  0.00     0.047 A 
BRANCH   3   8
ATOM      8  C   UNL     1      31.207   1.982   7.994  1.00  0.00    -0.007 C 
ATOM      9  C   UNL     1      30.006   2.253   8.435  1.00  0.00    -0.033 C 
BRANCH   9  10
ATOM     10  C   UNL     1      29.685   3.298   9.445  1.00  0.00     0.033 C 
ATOM     11  C   UNL     1      29.328   4.569   8.733  1.00  0.00     0.009 C 
ENDBRANCH   9  10
BRANCH   9  12
ATOM     12  C   UNL     1      28.840   1.467   7.993  1.00  0.00    -0.022 A 
ATOM     13  C   UNL     1      28.414   0.354   8.672  1.00  0.00     0.008 A 
ATOM     14  C   UNL     1      28.183   1.865   6.869  1.00  0.00     0.008 A 
ATOM     15  C   UNL     1      27.329  -0.349   8.214  1.00  0.00     0.001 A 
ATOM     16  C   UNL     1      27.074   1.178   6.366  1.00  0.00     0.001 A 
ATOM     17  C   UNL     1      26.670   0.067   7.069  1.00  0.00     0.000 A 
ENDBRANCH   9  12
BRANCH   8  18
ATOM     18  C   UNL     1      32.339   2.725   8.511  1.00  0.00    -0.018 A 
ATOM     19  C   UNL     1      32.881   2.473   9.755  1.00  0.00     0.009 A 
ATOM     20  C   UNL     1      32.878   3.763   7.757  1.00  0.00     0.009 A 
ATOM     21  C   UNL     1      33.921   3.246  10.204  1.00  0.00     0.001 A 
ATOM     22  C   UNL     1      33.921   4.547   8.190  1.00  0.00     0.001 A 
ATOM     23  C   UNL     1      34.450   4.274   9.448  1.00  0.00     0.000 A 
ENDBRANCH   8  18
ENDBRANCH   3   8
ENDBRANCH   1   2
BRANCH   1  24
ATOM     24  C   UNL     1      31.384  -2.354   2.975  1.00  0.00     0.290 C 
BRANCH  24  25
ATOM     25  C   UNL     1      31.829  -2.226   1.541  1.00  0.00     0.303 C 
BRANCH  25  26
ATOM     26  N   UNL     1      31.757  -3.461   0.822  1.00  0.00    -0.337 N 
ATOM     27  C   UNL     1      32.028  -3.320  -0.593  1.00  0.00     0.332 C 
ATOM     28  C   UNL     1      30.469  -4.111   0.946  1.00  0.00     0.332 C 
ATOM     29  H   UNL     1      32.466  -4.165   1.188  1.00  0.00     0.347 HD
ENDBRANCH  25  26
ENDBRANCH  24  25
ENDBRANCH   1  24
TORSDOF 8
ENDMDL
MODEL 5
REMARK VINA RESULT:      -5.8      2.393      4.555
REMARK SMILES CC/C(=C(\c1ccccc1)c1ccc(OCC[NH+](C)C)cc1)c1ccccc1
REMARK SMILES IDX 15 1 14 2 11 3 12 4 22 5 13 6 21 7 4 8 3 9 2 10 1 11 23 12
REMARK SMILES IDX 24 13 28 14 25 15 27 16 26 17 5 18 6 19 10 20 7 21 9 22 8 23
REMARK SMILES IDX 16 24 17 25 18 26 19 27 20 28
REMARK H PARENT 18 29
ROOT
ATOM      1  O   UNL     1      31.856  -1.721   1.212  1.00  0.00    -0.488 OA
ENDROOT
BRANCH   1   2
ATOM      2  C   UNL     1      31.934  -1.639   2.590  1.00  0.00     0.119 A 
ATOM      3  C   UNL     1      32.087  -1.585   5.442  1.00  0.00    -0.017 A 
ATOM      4  C   UNL     1      32.220  -0.438   4.685  1.00  0.00     0.012 A 
ATOM      5  C   UNL     1      31.874  -2.761   4.730  1.00  0.00     0.012 A 
ATOM      6  C   UNL     1      32.143  -0.480   3.301  1.00  0.00     0.047 A 
ATOM      7  C   UNL     1      31.799  -2.801   3.364  1.00  0.00     0.047 A 
BRANCH   3   8
ATOM      8  C   UNL     1      32.139  -1.568   6.893  1.00  0.00    -0.007 C 
ATOM      9  C   UNL     1      31.697  -0.562   7.604  1.00  0.00    -0.033 C 
BRANCH   9  10
ATOM     10  C   UNL     1      31.768  -0.471   9.088  1.00  0.00     0.033 C 
ATOM     11  C   UNL     1      30.390  -0.655   9.652  1.00  0.00     0.009 C 
ENDBRANCH   9  10
BRANCH   9  12
ATOM     12  C   UNL     1      31.007   0.574   6.965  1.00  0.00    -0.022 A 
ATOM     13  C   UNL     1      29.749   0.454   6.433  1.00  0.00     0.008 A 
ATOM     14  C   UNL     1      31.658   1.768   6.901  1.00  0.00     0.008 A 
ATOM     15  C   UNL     1      29.155   1.540   5.841  1.00  0.00     0.001 A 
ATOM     16  C   UNL     1      31.091   2.899   6.307  1.00  0.00     0.001 A 
ATOM     17  C   UNL     1      29.828   2.749   5.782  1.00  0.00     0.000 A 
ENDBRANCH   9  12
BRANCH   8  18
ATOM     18  C   UNL     1      32.741  -2.702   7.564  1.00  0.00    -0.018 A 
ATOM     19  C   UNL     1      31.986  -3.682   8.176  1.00  0.00     0.009 A 
ATOM     20  C   UNL     1      34.127  -2.794   7.642  1.00  0.00     0.009 A 
ATOM     21  C   UNL     1      32.620  -4.704   8.835  1.00  0.00     0.001 A 
ATOM     22  C   UNL     1      34.779  -3.812   8.298  1.00  0.00     0.001 A 
ATOM     23  C   UNL     1      33.997  -4.789   8.907  1.00  0.00     0.000 A 
ENDBRANCH   8  18
ENDBRANCH   3   8
ENDBRANCH   1   2
BRANCH   1  24
ATOM     24  C   UNL     1      31.777  -2.850   0.415  1.00  0.00     0.290 C 
BRANCH  24  25
ATOM     25  C   UNL     1      30.392  -3.243  -0.028  1.00  0.00     0.303 C 
BRANCH  25  26
ATOM     26  N   UNL     1      30.395  -4.293  -1.001  1.00  0.00    -0.337 N 
ATOM     27  C   UNL     1      30.311  -5.615  -0.420  1.00  0.00     0.332 C 
ATOM     28  C   UNL     1      31.571  -4.273  -1.847  1.00  0.00     0.332 C 
ATOM     29  H   UNL     1      29.568  -4.209  -1.664  1.00  0.00     0.347 HD
ENDBRANCH  25  26
ENDBRANCH  24  25
ENDBRANCH   1  24
TORSDOF 8
ENDMDL
MODEL 6
REMARK VINA RESULT:      -5.7      2.345      4.558
REMARK SMILES CC/C(=C(\c1ccccc1)c1ccc(OCC[NH+](C)C)cc1)c1ccccc1
REMARK SMILES IDX 15 1 14 2 11 3 12 4 22 5 13 6 21 7 4 8 3 9 2 10 1 11 23 12
REMARK SMILES IDX 24 13 28 14 25 15 27 16 26 17 5 18 6 19 10 20 7 21 9 22 8 23
REMARK SMILES IDX 16 24 17 25 18 26 19 27 20 28
REMARK H PARENT 18 29
ROOT
ATOM      1  O   UNL     1      32.041  -1.688   1.391  1.00  0.00    -0.488 OA
ENDROOT
BRANCH   1   2
ATOM      2  C   UNL     1      32.054  -1.602   2.771  1.00  0.00     0.119 A 
ATOM      3  C   UNL     1      32.079  -1.540   5.626  1.00  0.00    -0.017 A 
ATOM      4  C   UNL     1      32.168  -0.386   4.873  1.00  0.00     0.012 A 
ATOM      5  C   UNL     1      31.975  -2.728   4.909  1.00  0.00     0.012 A 
ATOM      6  C   UNL     1      32.155  -0.432   3.488  1.00  0.00     0.047 A 
ATOM      7  C   UNL     1      31.962  -2.771   3.540  1.00  0.00     0.047 A 
BRANCH   3   8
ATOM      8  C   UNL     1      32.066  -1.520   7.078  1.00  0.00    -0.007 C 
ATOM      9  C   UNL     1      31.582  -0.519   7.767  1.00  0.00    -0.033 C 
BRANCH   9  10
ATOM     10  C   UNL     1      31.586  -0.426   9.253  1.00  0.00     0.033 C 
ATOM     11  C   UNL     1      30.201  -0.701   9.761  1.00  0.00     0.009 C 
ENDBRANCH   9  10
BRANCH   9  12
ATOM     12  C   UNL     1      30.908   0.608   7.097  1.00  0.00    -0.022 A 
ATOM     13  C   UNL     1      29.650   0.489   6.564  1.00  0.00     0.008 A 
ATOM     14  C   UNL     1      31.573   1.792   7.004  1.00  0.00     0.008 A 
ATOM     15  C   UNL     1      29.071   1.566   5.942  1.00  0.00     0.001 A 
ATOM     16  C   UNL     1      31.022   2.914   6.378  1.00  0.00     0.001 A 
ATOM     17  C   UNL     1      29.758   2.766   5.854  1.00  0.00     0.000 A 
ENDBRANCH   9  12
BRANCH   8  18
ATOM     18  C   UNL     1      32.651  -2.647   7.777  1.00  0.00    -0.018 A 
ATOM     19  C   UNL     1      34.016  -2.797   7.921  1.00  0.00     0.009 A 
ATOM     20  C   UNL     1      31.823  -3.643   8.284  1.00  0.00     0.009 A 
ATOM     21  C   UNL     1      34.506  -3.912   8.552  1.00  0.00     0.001 A 
ATOM     22  C   UNL     1      32.297  -4.767   8.920  1.00  0.00     0.001 A 
ATOM     23  C   UNL     1      33.676  -4.895   9.053  1.00  0.00     0.000 A 
ENDBRANCH   8  18
ENDBRANCH   3   8
ENDBRANCH   1   2
BRANCH   1  24
ATOM     24  C   UNL     1      31.288  -2.521   0.582  1.00  0.00     0.290 C 
BRANCH  24  25
ATOM     25  C   UNL     1      32.069  -3.463  -0.296  1.00  0.00     0.303 C 
BRANCH  25  26
ATOM     26  N   UNL     1      31.258  -4.107  -1.284  1.00  0.00    -0.337 N 
ATOM     27  C   UNL     1      31.034  -5.512  -1.019  1.00  0.00     0.332 C 
ATOM     28  C   UNL     1      31.813  -4.009  -2.619  1.00  0.00     0.332 C 
ATOM     29  H   UNL     1      30.294  -3.661  -1.344  1.00  0.00     0.347 HD
ENDBRANCH  25  26
ENDBRANCH  24  25
ENDBRANCH   1  24
TORSDOF 8
ENDMDL
MODEL 7
REMARK VINA RESULT:      -5.7      0.596      1.520
REMARK SMILES CC/C(=C(\c1ccccc1)c1ccc(OCC[NH+](C)C)cc1)c1ccccc1
REMARK SMILES IDX 15 1 14 2 11 3 12 4 22 5 13 6 21 7 4 8 3 9 2 10 1 11 23 12
REMARK SMILES IDX 24 13 28 14 25 15 27 16 26 17 5 18 6 19 10 20 7 21 9 22 8 23
REMARK SMILES IDX 16 24 17 25 18 26 19 27 20 28
REMARK H PARENT 18 29
ROOT
ATOM      1  O   UNL     1      32.266  -1.937   4.092  1.00  0.00    -0.488 OA
ENDROOT
BRANCH   1   2
ATOM      2  C   UNL     1      32.006  -1.004   5.079  1.00  0.00     0.119 A 
ATOM      3  C   UNL     1      31.444   1.002   7.033  1.00  0.00    -0.017 A 
ATOM      4  C   UNL     1      31.745  -0.297   7.390  1.00  0.00     0.012 A 
ATOM      5  C   UNL     1      31.433   1.270   5.667  1.00  0.00     0.012 A 
ATOM      6  C   UNL     1      32.016  -1.259   6.430  1.00  0.00     0.047 A 
ATOM      7  C   UNL     1      31.700   0.317   4.720  1.00  0.00     0.047 A 
BRANCH   3   8
ATOM      8  C   UNL     1      31.180   2.037   8.017  1.00  0.00    -0.007 C 
ATOM      9  C   UNL     1      29.970   2.368   8.387  1.00  0.00    -0.033 C 
BRANCH   9  10
ATOM     10  C   UNL     1      29.641   3.451   9.354  1.00  0.00     0.033 C 
ATOM     11  C   UNL     1      29.310   2.833  10.681  1.00  0.00     0.009 C 
ENDBRANCH   9  10
BRANCH   9  12
ATOM     12  C   UNL     1      28.796   1.619   7.903  1.00  0.00    -0.022 A 
ATOM     13  C   UNL     1      28.027   2.067   6.860  1.00  0.00     0.008 A 
ATOM     14  C   UNL     1      28.474   0.453   8.529  1.00  0.00     0.008 A 
ATOM     15  C   UNL     1      26.939   1.337   6.455  1.00  0.00     0.001 A 
ATOM     16  C   UNL     1      27.374  -0.321   8.150  1.00  0.00     0.001 A 
ATOM     17  C   UNL     1      26.622   0.153   7.100  1.00  0.00     0.000 A 
ENDBRANCH   9  12
BRANCH   8  18
ATOM     18  C   UNL     1      32.313   2.747   8.575  1.00  0.00    -0.018 A 
ATOM     19  C   UNL     1      32.848   2.429   9.807  1.00  0.00     0.009 A 
ATOM     20  C   UNL     1      32.861   3.818   7.876  1.00  0.00     0.009 A 
ATOM     21  C   UNL     1      33.891   3.172  10.298  1.00  0.00     0.001 A 
ATOM     22  C   UNL     1      33.908   4.573   8.353  1.00  0.00     0.001 A 
ATOM     23  C   UNL     1      34.430   4.233   9.598  1.00  0.00     0.000 A 
ENDBRANCH   8  18
ENDBRANCH   3   8
ENDBRANCH   1   2
BRANCH   1  24
ATOM     24  C   UNL     1      32.104  -1.818   2.723  1.00  0.00     0.290 C 
BRANCH  24  25
ATOM     25  C   UNL     1      31.088  -2.739   2.101  1.00  0.00     0.303 C 
BRANCH  25  26
ATOM     26  N   UNL     1      31.631  -3.538   1.045  1.00  0.00    -0.337 N 
ATOM     27  C   UNL     1      31.174  -3.143  -0.269  1.00  0.00     0.332 C 
ATOM     28  C   UNL     1      31.331  -4.948   1.195  1.00  0.00     0.332 C 
ATOM     29  H   UNL     1      32.692  -3.476   1.019  1.00  0.00     0.347 HD
ENDBRANCH  25  26
ENDBRANCH  24  25
ENDBRANCH   1  24
TORSDOF 8
ENDMDL
MODEL 8
REMARK VINA RESULT:      -5.6      3.221      6.221
REMARK SMILES CC/C(=C(\c1ccccc1)c1ccc(OCC[NH+](C)C)cc1)c1ccccc1
REMARK SMILES IDX 15 1 14 2 11 3 12 4 22 5 13 6 21 7 4 8 3 9 2 10 1 11 23 12
REMARK SMILES IDX 24 13 28 14 25 15 27 16 26 17 5 18 6 19 10 20 7 21 9 22 8 23
REMARK SMILES IDX 16 24 17 25 18 26 19 27 20 28
REMARK H PARENT 18 29
ROOT
ATOM      1  O   UNL     1      24.675  -0.371   7.023  1.00  0.00    -0.488 OA
ENDROOT
BRANCH   1   2
ATOM      2  C   UNL     1      26.017  -0.038   7.003  1.00  0.00     0.119 A 
ATOM      3  C   UNL     1      28.769   0.714   6.865  1.00  0.00    -0.017 A 
ATOM      4  C   UNL     1      28.274  -0.049   7.904  1.00  0.00     0.012 A 
ATOM      5  C   UNL     1      27.846   1.089   5.894  1.00  0.00     0.012 A 
ATOM      6  C   UNL     1      26.936  -0.406   7.957  1.00  0.00     0.047 A 
ATOM      7  C   UNL     1      26.524   0.735   5.948  1.00  0.00     0.047 A 
BRANCH   3   8
ATOM      8  C   UNL     1      30.170   1.082   6.770  1.00  0.00    -0.007 C 
ATOM      9  C   UNL     1      30.595   2.303   6.971  1.00  0.00    -0.033 C 
BRANCH   9  10
ATOM     10  C   UNL     1      32.011   2.745   6.841  1.00  0.00     0.033 C 
ATOM     11  C   UNL     1      32.557   3.033   8.209  1.00  0.00     0.009 C 
ENDBRANCH   9  10
BRANCH   9  12
ATOM     12  C   UNL     1      29.675   3.362   7.425  1.00  0.00    -0.022 A 
ATOM     13  C   UNL     1      29.152   3.376   8.692  1.00  0.00     0.008 A 
ATOM     14  C   UNL     1      29.338   4.343   6.543  1.00  0.00     0.008 A 
ATOM     15  C   UNL     1      28.292   4.379   9.062  1.00  0.00     0.001 A 
ATOM     16  C   UNL     1      28.465   5.383   6.877  1.00  0.00     0.001 A 
ATOM     17  C   UNL     1      27.956   5.371   8.155  1.00  0.00     0.000 A 
ENDBRANCH   9  12
BRANCH   8  18
ATOM     18  C   UNL     1      31.119   0.051   6.400  1.00  0.00    -0.018 A 
ATOM     19  C   UNL     1      31.410  -0.246   5.084  1.00  0.00     0.009 A 
ATOM     20  C   UNL     1      31.729  -0.706   7.396  1.00  0.00     0.009 A 
ATOM     21  C   UNL     1      32.281  -1.266   4.802  1.00  0.00     0.001 A 
ATOM     22  C   UNL     1      32.606  -1.732   7.131  1.00  0.00     0.001 A 
ATOM     23  C   UNL     1      32.884  -2.012   5.796  1.00  0.00     0.000 A 
ENDBRANCH   8  18
ENDBRANCH   3   8
ENDBRANCH   1   2
BRANCH   1  24
ATOM     24  C   UNL     1      24.043  -1.458   6.444  1.00  0.00     0.290 C 
BRANCH  24  25
ATOM     25  C   UNL     1      23.564  -1.259   5.030  1.00  0.00     0.303 C 
BRANCH  25  26
ATOM     26  N   UNL     1      22.155  -1.022   4.947  1.00  0.00    -0.337 N 
ATOM     27  C   UNL     1      21.816   0.373   4.763  1.00  0.00     0.332 C 
ATOM     28  C   UNL     1      21.436  -1.484   6.116  1.00  0.00     0.332 C 
ATOM     29  H   UNL     1      21.723  -1.541   4.125  1.00  0.00     0.347 HD
ENDBRANCH  25  26
ENDBRANCH  24  25
ENDBRANCH   1  24
TORSDOF 8
ENDMDL
MODEL 9
REMARK VINA RESULT:      -5.6      0.446      1.676
REMARK SMILES CC/C(=C(\c1ccccc1)c1ccc(OCC[NH+](C)C)cc1)c1ccccc1
REMARK SMILES IDX 15 1 14 2 11 3 12 4 22 5 13 6 21 7 4 8 3 9 2 10 1 11 23 12
REMARK SMILES IDX 24 13 28 14 25 15 27 16 26 17 5 18 6 19 10 20 7 21 9 22 8 23
REMARK SMILES IDX 16 24 17 25 18 26 19 27 20 28
REMARK H PARENT 18 29
ROOT
ATOM      1  O   UNL     1      32.288  -1.941   4.126  1.00  0.00    -0.488 OA
ENDROOT
BRANCH   1   2
ATOM      2  C   UNL     1      32.017  -0.992   5.094  1.00  0.00     0.119 A 
ATOM      3  C   UNL     1      31.435   1.046   7.009  1.00  0.00    -0.017 A 
ATOM      4  C   UNL     1      31.704  -0.254   7.389  1.00  0.00     0.012 A 
ATOM      5  C   UNL     1      31.468   1.298   5.641  1.00  0.00     0.012 A 
ATOM      6  C   UNL     1      31.984  -1.232   6.448  1.00  0.00     0.047 A 
ATOM      7  C   UNL     1      31.745   0.330   4.713  1.00  0.00     0.047 A 
BRANCH   3   8
ATOM      8  C   UNL     1      31.162   2.096   7.974  1.00  0.00    -0.007 C 
ATOM      9  C   UNL     1      29.949   2.426   8.335  1.00  0.00    -0.033 C 
BRANCH   9  10
ATOM     10  C   UNL     1      29.611   3.524   9.282  1.00  0.00     0.033 C 
ATOM     11  C   UNL     1      29.264   2.926  10.615  1.00  0.00     0.009 C 
ENDBRANCH   9  10
BRANCH   9  12
ATOM     12  C   UNL     1      28.782   1.660   7.863  1.00  0.00    -0.022 A 
ATOM     13  C   UNL     1      27.992   2.101   6.833  1.00  0.00     0.008 A 
ATOM     14  C   UNL     1      28.487   0.486   8.487  1.00  0.00     0.008 A 
ATOM     15  C   UNL     1      26.910   1.354   6.438  1.00  0.00     0.001 A 
ATOM     16  C   UNL     1      27.395  -0.305   8.117  1.00  0.00     0.001 A 
ATOM     17  C   UNL     1      26.621   0.162   7.080  1.00  0.00     0.000 A 
ENDBRANCH   9  12
BRANCH   8  18
ATOM     18  C   UNL     1      32.289   2.824   8.521  1.00  0.00    -0.018 A 
ATOM     19  C   UNL     1      32.910   3.848   7.834  1.00  0.00     0.009 A 
ATOM     20  C   UNL     1      32.805   2.456   9.761  1.00  0.00     0.009 A 
ATOM     21  C   UNL     1      34.002   4.464   8.389  1.00  0.00     0.001 A 
ATOM     22  C   UNL     1      33.899   3.064  10.332  1.00  0.00     0.001 A 
ATOM     23  C   UNL     1      34.506   4.094   9.620  1.00  0.00     0.000 A 
ENDBRANCH   8  18
ENDBRANCH   3   8
ENDBRANCH   1   2
BRANCH   1  24
ATOM     24  C   UNL     1      32.039  -1.886   2.766  1.00  0.00     0.290 C 
BRANCH  24  25
ATOM     25  C   UNL     1      31.362  -3.096   2.175  1.00  0.00     0.303 C 
BRANCH  25  26
ATOM     26  N   UNL     1      31.055  -2.940   0.786  1.00  0.00    -0.337 N 
ATOM     27  C   UNL     1      29.918  -3.725   0.357  1.00  0.00     0.332 C 
ATOM     28  C   UNL     1      32.164  -3.290  -0.078  1.00  0.00     0.332 C 
ATOM     29  H   UNL     1      30.822  -1.930   0.551  1.00  0.00     0.347 HD
ENDBRANCH  25  26
ENDBRANCH  24  25
ENDBRANCH   1  24
TORSDOF 8
ENDMDL
