MODEL 1
REMARK VINA RESULT:      -6.6      0.000      0.000
REMARK SMILES CC/C(=C(\c1ccccc1)c1ccc(OCC[NH+](C)C)cc1)c1ccccc1
REMARK SMILES IDX 15 1 14 2 11 3 12 4 22 5 13 6 21 7 4 8 3 9 2 10 1 11 23 12
REMARK SMILES IDX 24 13 28 14 25 15 27 16 26 17 5 18 6 19 10 20 7 21 9 22 8 23
REMARK SMILES IDX 16 24 17 25 18 26 19 27 20 28
REMARK H PARENT 18 29
ROOT
ATOM      1  O   UNL     1     -16.118   0.825 -52.629  1.00  0.00    -0.488 OA
ENDROOT
BRANCH   1   2
ATOM      2  C   UNL     1     -15.499   1.164 -51.439  1.00  0.00     0.119 A 
ATOM      3  C   UNL     1     -14.162   1.948 -49.040  1.00  0.00    -0.017 A 
ATOM      4  C   UNL     1     -15.152   0.986 -49.040  1.00  0.00     0.012 A 
ATOM      5  C   UNL     1     -13.857   2.506 -50.277  1.00  0.00     0.012 A 
ATOM      6  C   UNL     1     -15.792   0.616 -50.212  1.00  0.00     0.047 A 
ATOM      7  C   UNL     1     -14.491   2.140 -51.435  1.00  0.00     0.047 A 
BRANCH   3   8
ATOM      8  C   UNL     1     -13.457   2.337 -47.831  1.00  0.00    -0.007 C 
ATOM      9  C   UNL     1     -14.024   3.026 -46.874  1.00  0.00    -0.033 C 
BRANCH   9  10
ATOM     10  C   UNL     1     -13.337   3.492 -45.638  1.00  0.00     0.033 C 
ATOM     11  C   UNL     1     -12.892   4.911 -45.836  1.00  0.00     0.009 C 
ENDBRANCH   9  10
BRANCH   9  12
ATOM     12  C   UNL     1     -15.461   3.348 -46.920  1.00  0.00    -0.022 A 
ATOM     13  C   UNL     1     -15.958   4.344 -47.721  1.00  0.00     0.008 A 
ATOM     14  C   UNL     1     -16.307   2.633 -46.128  1.00  0.00     0.008 A 
ATOM     15  C   UNL     1     -17.304   4.612 -47.719  1.00  0.00     0.001 A 
ATOM     16  C   UNL     1     -17.684   2.872 -46.094  1.00  0.00     0.001 A 
ATOM     17  C   UNL     1     -18.153   3.877 -46.909  1.00  0.00     0.000 A 
ENDBRANCH   9  12
BRANCH   8  18
ATOM     18  C   UNL     1     -12.060   1.972 -47.713  1.00  0.00    -0.018 A 
ATOM     19  C   UNL     1     -11.094   2.469 -48.565  1.00  0.00     0.009 A 
ATOM     20  C   UNL     1     -11.672   1.053 -46.743  1.00  0.00     0.009 A 
ATOM     21  C   UNL     1      -9.797   2.046 -48.428  1.00  0.00     0.001 A 
ATOM     22  C   UNL     1     -10.376   0.619 -46.591  1.00  0.00     0.001 A 
ATOM     23  C   UNL     1      -9.420   1.134 -47.462  1.00  0.00     0.000 A 
ENDBRANCH   8  18
ENDBRANCH   3   8
ENDBRANCH   1   2
BRANCH   1  24
ATOM     24  C   UNL     1     -17.157   1.468 -53.278  1.00  0.00     0.290 C 
BRANCH  24  25
ATOM     25  C   UNL     1     -16.753   2.514 -54.284  1.00  0.00     0.303 C 
BRANCH  25  26
ATOM     26  N   UNL     1     -17.850   2.977 -55.078  1.00  0.00    -0.337 N 
ATOM     27  C   UNL     1     -18.271   4.321 -54.749  1.00  0.00     0.332 C 
ATOM     28  C   UNL     1     -19.018   2.127 -54.975  1.00  0.00     0.332 C 
ATOM     29  H   UNL     1     -17.601   2.991 -56.112  1.00  0.00     0.347 HD
ENDBRANCH  25  26
ENDBRANCH  24  25
ENDBRANCH   1  24
TORSDOF 8
ENDMDL
MODEL 2
REMARK VINA RESULT:      -6.5      0.536      1.191
REMARK SMILES CC/C(=C(\c1ccccc1)c1ccc(OCC[NH+](C)C)cc1)c1ccccc1
REMARK SMILES IDX 15 1 14 2 11 3 12 4 22 5 13 6 21 7 4 8 3 9 2 10 1 11 23 12
REMARK SMILES IDX 24 13 28 14 25 15 27 16 26 17 5 18 6 19 10 20 7 21 9 22 8 23
REMARK SMILES IDX 16 24 17 25 18 26 19 27 20 28
REMARK H PARENT 18 29
ROOT
ATOM      1  O   UNL     1     -16.493   0.955 -52.376  1.00  0.00    -0.488 OA
ENDROOT
BRANCH   1   2
ATOM      2  C   UNL     1     -15.798   1.269 -51.223  1.00  0.00     0.119 A 
ATOM      3  C   UNL     1     -14.309   2.004 -48.898  1.00  0.00    -0.017 A 
ATOM      4  C   UNL     1     -15.271   1.014 -48.863  1.00  0.00     0.012 A 
ATOM      5  C   UNL     1     -14.112   2.616 -50.132  1.00  0.00     0.012 A 
ATOM      6  C   UNL     1     -15.985   0.668 -50.000  1.00  0.00     0.047 A 
ATOM      7  C   UNL     1     -14.819   2.273 -51.254  1.00  0.00     0.047 A 
BRANCH   3   8
ATOM      8  C   UNL     1     -13.529   2.370 -47.730  1.00  0.00    -0.007 C 
ATOM      9  C   UNL     1     -14.017   3.086 -46.750  1.00  0.00    -0.033 C 
BRANCH   9  10
ATOM     10  C   UNL     1     -13.250   3.529 -45.553  1.00  0.00     0.033 C 
ATOM     11  C   UNL     1     -12.850   4.963 -45.737  1.00  0.00     0.009 C 
ENDBRANCH   9  10
BRANCH   9  12
ATOM     12  C   UNL     1     -15.441   3.466 -46.724  1.00  0.00    -0.022 A 
ATOM     13  C   UNL     1     -15.937   4.481 -47.501  1.00  0.00     0.008 A 
ATOM     14  C   UNL     1     -16.274   2.785 -45.889  1.00  0.00     0.008 A 
ATOM     15  C   UNL     1     -17.269   4.802 -47.432  1.00  0.00     0.001 A 
ATOM     16  C   UNL     1     -17.637   3.080 -45.787  1.00  0.00     0.001 A 
ATOM     17  C   UNL     1     -18.106   4.102 -46.579  1.00  0.00     0.000 A 
ENDBRANCH   9  12
BRANCH   8  18
ATOM     18  C   UNL     1     -12.143   1.950 -47.681  1.00  0.00    -0.018 A 
ATOM     19  C   UNL     1     -11.659   1.120 -46.689  1.00  0.00     0.009 A 
ATOM     20  C   UNL     1     -11.248   2.429 -48.633  1.00  0.00     0.009 A 
ATOM     21  C   UNL     1     -10.326   0.799 -46.674  1.00  0.00     0.001 A 
ATOM     22  C   UNL     1      -9.909   2.116 -48.633  1.00  0.00     0.001 A 
ATOM     23  C   UNL     1      -9.445   1.278 -47.624  1.00  0.00     0.000 A 
ENDBRANCH   8  18
ENDBRANCH   3   8
ENDBRANCH   1   2
BRANCH   1  24
ATOM     24  C   UNL     1     -16.176   1.260 -53.688  1.00  0.00     0.290 C 
BRANCH  24  25
ATOM     25  C   UNL     1     -17.023   2.325 -54.335  1.00  0.00     0.303 C 
BRANCH  25  26
ATOM     26  N   UNL     1     -18.363   2.354 -53.832  1.00  0.00    -0.337 N 
ATOM     27  C   UNL     1     -19.355   1.973 -54.815  1.00  0.00     0.332 C 
ATOM     28  C   UNL     1     -18.745   3.655 -53.323  1.00  0.00     0.332 C 
ATOM     29  H   UNL     1     -18.485   1.684 -53.015  1.00  0.00     0.347 HD
ENDBRANCH  25  26
ENDBRANCH  24  25
ENDBRANCH   1  24
TORSDOF 8
ENDMDL
MODEL 3
REMARK VINA RESULT:      -6.2      0.526      1.443
REMARK SMILES CC/C(=C(\c1ccccc1)c1ccc(OCC[NH+](C)C)cc1)c1ccccc1
REMARK SMILES IDX 15 1 14 2 11 3 12 4 22 5 13 6 21 7 4 8 3 9 2 10 1 11 23 12
REMARK SMILES IDX 24 13 28 14 25 15 27 16 26 17 5 18 6 19 10 20 7 21 9 22 8 23
REMARK SMILES IDX 16 24 17 25 18 26 19 27 20 28
REMARK H PARENT 18 29
ROOT
ATOM      1  O   UNL     1     -16.379   0.875 -52.494  1.00  0.00    -0.488 OA
ENDROOT
BRANCH   1   2
ATOM      2  C   UNL     1     -15.640   1.240 -51.384  1.00  0.00     0.119 A 
ATOM      3  C   UNL     1     -14.173   1.915 -49.028  1.00  0.00    -0.017 A 
ATOM      4  C   UNL     1     -13.885   2.485 -50.252  1.00  0.00     0.012 A 
ATOM      5  C   UNL     1     -15.219   0.997 -49.016  1.00  0.00     0.012 A 
ATOM      6  C   UNL     1     -14.606   2.147 -51.387  1.00  0.00     0.047 A 
ATOM      7  C   UNL     1     -15.930   0.665 -50.138  1.00  0.00     0.047 A 
BRANCH   3   8
ATOM      8  C   UNL     1     -13.451   2.268 -47.818  1.00  0.00    -0.007 C 
ATOM      9  C   UNL     1     -13.988   2.970 -46.854  1.00  0.00    -0.033 C 
BRANCH   9  10
ATOM     10  C   UNL     1     -13.280   3.399 -45.617  1.00  0.00     0.033 C 
ATOM     11  C   UNL     1     -13.759   2.561 -44.468  1.00  0.00     0.009 C 
ENDBRANCH   9  10
BRANCH   9  12
ATOM     12  C   UNL     1     -15.412   3.349 -46.893  1.00  0.00    -0.022 A 
ATOM     13  C   UNL     1     -15.843   4.496 -47.508  1.00  0.00     0.008 A 
ATOM     14  C   UNL     1     -16.313   2.528 -46.286  1.00  0.00     0.008 A 
ATOM     15  C   UNL     1     -17.179   4.808 -47.507  1.00  0.00     0.001 A 
ATOM     16  C   UNL     1     -17.683   2.807 -46.260  1.00  0.00     0.001 A 
ATOM     17  C   UNL     1     -18.085   3.965 -46.886  1.00  0.00     0.000 A 
ENDBRANCH   9  12
BRANCH   8  18
ATOM     18  C   UNL     1     -12.069   1.848 -47.707  1.00  0.00    -0.018 A 
ATOM     19  C   UNL     1     -11.645   0.951 -46.747  1.00  0.00     0.009 A 
ATOM     20  C   UNL     1     -11.116   2.396 -48.561  1.00  0.00     0.009 A 
ATOM     21  C   UNL     1     -10.314   0.632 -46.666  1.00  0.00     0.001 A 
ATOM     22  C   UNL     1      -9.777   2.087 -48.494  1.00  0.00     0.001 A 
ATOM     23  C   UNL     1      -9.375   1.180 -47.518  1.00  0.00     0.000 A 
ENDBRANCH   8  18
ENDBRANCH   3   8
ENDBRANCH   1   2
BRANCH   1  24
ATOM     24  C   UNL     1     -17.422   1.552 -53.101  1.00  0.00     0.290 C 
BRANCH  24  25
ATOM     25  C   UNL     1     -17.034   2.761 -53.911  1.00  0.00     0.303 C 
BRANCH  25  26
ATOM     26  N   UNL     1     -17.843   2.934 -55.079  1.00  0.00    -0.337 N 
ATOM     27  C   UNL     1     -17.292   3.877 -56.028  1.00  0.00     0.332 C 
ATOM     28  C   UNL     1     -19.188   3.376 -54.772  1.00  0.00     0.332 C 
ATOM     29  H   UNL     1     -17.960   2.018 -55.608  1.00  0.00     0.347 HD
ENDBRANCH  25  26
ENDBRANCH  24  25
ENDBRANCH   1  24
TORSDOF 8
ENDMDL
MODEL 4
REMARK VINA RESULT:      -6.1      0.885      1.349
REMARK SMILES CC/C(=C(\c1ccccc1)c1ccc(OCC[NH+](C)C)cc1)c1ccccc1
REMARK SMILES IDX 15 1 14 2 11 3 12 4 22 5 13 6 21 7 4 8 3 9 2 10 1 11 23 12
REMARK SMILES IDX 24 13 28 14 25 15 27 16 26 17 5 18 6 19 10 20 7 21 9 22 8 23
REMARK SMILES IDX 16 24 17 25 18 26 19 27 20 28
REMARK H PARENT 18 29
ROOT
ATOM      1  O   UNL     1     -17.119   1.556 -52.273  1.00  0.00    -0.488 OA
ENDROOT
BRANCH   1   2
ATOM      2  C   UNL     1     -16.313   1.725 -51.162  1.00  0.00     0.119 A 
ATOM      3  C   UNL     1     -14.668   2.188 -48.873  1.00  0.00    -0.017 A 
ATOM      4  C   UNL     1     -14.937   0.913 -49.330  1.00  0.00     0.012 A 
ATOM      5  C   UNL     1     -15.246   3.227 -49.597  1.00  0.00     0.012 A 
ATOM      6  C   UNL     1     -15.737   0.704 -50.442  1.00  0.00     0.047 A 
ATOM      7  C   UNL     1     -16.037   3.018 -50.695  1.00  0.00     0.047 A 
BRANCH   3   8
ATOM      8  C   UNL     1     -13.814   2.438 -47.726  1.00  0.00    -0.007 C 
ATOM      9  C   UNL     1     -14.249   3.004 -46.631  1.00  0.00    -0.033 C 
BRANCH   9  10
ATOM     10  C   UNL     1     -13.409   3.327 -45.445  1.00  0.00     0.033 C 
ATOM     11  C   UNL     1     -13.881   2.510 -44.278  1.00  0.00     0.009 C 
ENDBRANCH   9  10
BRANCH   9  12
ATOM     12  C   UNL     1     -15.679   3.319 -46.456  1.00  0.00    -0.022 A 
ATOM     13  C   UNL     1     -16.141   4.610 -46.425  1.00  0.00     0.008 A 
ATOM     14  C   UNL     1     -16.553   2.284 -46.310  1.00  0.00     0.008 A 
ATOM     15  C   UNL     1     -17.481   4.849 -46.250  1.00  0.00     0.001 A 
ATOM     16  C   UNL     1     -17.925   2.482 -46.129  1.00  0.00     0.001 A 
ATOM     17  C   UNL     1     -18.359   3.788 -46.103  1.00  0.00     0.000 A 
ENDBRANCH   9  12
BRANCH   8  18
ATOM     18  C   UNL     1     -12.415   2.073 -47.830  1.00  0.00    -0.018 A 
ATOM     19  C   UNL     1     -11.794   1.261 -46.901  1.00  0.00     0.009 A 
ATOM     20  C   UNL     1     -11.648   2.589 -48.869  1.00  0.00     0.009 A 
ATOM     21  C   UNL     1     -10.456   0.993 -47.032  1.00  0.00     0.001 A 
ATOM     22  C   UNL     1     -10.305   2.330 -49.016  1.00  0.00     0.001 A 
ATOM     23  C   UNL     1      -9.702   1.509 -48.068  1.00  0.00     0.000 A 
ENDBRANCH   8  18
ENDBRANCH   3   8
ENDBRANCH   1   2
BRANCH   1  24
ATOM     24  C   UNL     1     -16.748   1.407 -53.597  1.00  0.00     0.290 C 
BRANCH  24  25
ATOM     25  C   UNL     1     -16.820   2.653 -54.441  1.00  0.00     0.303 C 
BRANCH  25  26
ATOM     26  N   UNL     1     -18.151   2.964 -54.865  1.00  0.00    -0.337 N 
ATOM     27  C   UNL     1     -18.802   3.957 -54.038  1.00  0.00     0.332 C 
ATOM     28  C   UNL     1     -19.017   1.803 -54.898  1.00  0.00     0.332 C 
ATOM     29  H   UNL     1     -18.162   3.353 -55.855  1.00  0.00     0.347 HD
ENDBRANCH  25  26
ENDBRANCH  24  25
ENDBRANCH   1  24
TORSDOF 8
ENDMDL
MODEL 5
REMARK VINA RESULT:      -6.1      6.133      9.088
REMARK SMILES CC/C(=C(\c1ccccc1)c1ccc(OCC[NH+](C)C)cc1)c1ccccc1
REMARK SMILES IDX 15 1 14 2 11 3 12 4 22 5 13 6 21 7 4 8 3 9 2 10 1 11 23 12
REMARK SMILES IDX 24 13 28 14 25 15 27 16 26 17 5 18 6 19 10 20 7 21 9 22 8 23
REMARK SMILES IDX 16 24 17 25 18 26 19 27 20 28
REMARK H PARENT 18 29
ROOT
ATOM      1  O   UNL     1     -10.154  -0.459 -44.073  1.00  0.00    -0.488 OA
ENDROOT
BRANCH   1   2
ATOM      2  C   UNL     1     -11.178  -0.196 -43.182  1.00  0.00     0.119 A 
ATOM      3  C   UNL     1     -13.368   0.349 -41.430  1.00  0.00    -0.017 A 
ATOM      4  C   UNL     1     -12.091   0.132 -40.952  1.00  0.00     0.012 A 
ATOM      5  C   UNL     1     -13.518   0.287 -42.812  1.00  0.00     0.012 A 
ATOM      6  C   UNL     1     -11.038  -0.131 -41.815  1.00  0.00     0.047 A 
ATOM      7  C   UNL     1     -12.477   0.026 -43.663  1.00  0.00     0.047 A 
BRANCH   3   8
ATOM      8  C   UNL     1     -14.485   0.650 -40.553  1.00  0.00    -0.007 C 
ATOM      9  C   UNL     1     -14.823   1.873 -40.234  1.00  0.00    -0.033 C 
BRANCH   9  10
ATOM     10  C   UNL     1     -15.926   2.237 -39.304  1.00  0.00     0.033 C 
ATOM     11  C   UNL     1     -15.336   2.638 -37.984  1.00  0.00     0.009 C 
ENDBRANCH   9  10
BRANCH   9  12
ATOM     12  C   UNL     1     -14.151   3.032 -40.851  1.00  0.00    -0.022 A 
ATOM     13  C   UNL     1     -12.942   3.496 -40.400  1.00  0.00     0.008 A 
ATOM     14  C   UNL     1     -14.769   3.655 -41.892  1.00  0.00     0.008 A 
ATOM     15  C   UNL     1     -12.364   4.584 -41.002  1.00  0.00     0.001 A 
ATOM     16  C   UNL     1     -14.216   4.766 -42.535  1.00  0.00     0.001 A 
ATOM     17  C   UNL     1     -13.002   5.209 -42.061  1.00  0.00     0.000 A 
ENDBRANCH   9  12
BRANCH   8  18
ATOM     18  C   UNL     1     -15.221  -0.461 -39.985  1.00  0.00    -0.018 A 
ATOM     19  C   UNL     1     -16.378  -0.948 -40.558  1.00  0.00     0.009 A 
ATOM     20  C   UNL     1     -14.783  -1.036 -38.796  1.00  0.00     0.009 A 
ATOM     21  C   UNL     1     -17.053  -1.972 -39.944  1.00  0.00     0.001 A 
ATOM     22  C   UNL     1     -15.446  -2.064 -38.167  1.00  0.00     0.001 A 
ATOM     23  C   UNL     1     -16.610  -2.538 -38.764  1.00  0.00     0.000 A 
ENDBRANCH   8  18
ENDBRANCH   3   8
ENDBRANCH   1   2
BRANCH   1  24
ATOM     24  C   UNL     1     -10.233  -0.721 -45.429  1.00  0.00     0.290 C 
BRANCH  24  25
ATOM     25  C   UNL     1      -9.398   0.165 -46.317  1.00  0.00     0.303 C 
BRANCH  25  26
ATOM     26  N   UNL     1     -10.156   0.777 -47.365  1.00  0.00    -0.337 N 
ATOM     27  C   UNL     1      -9.419   1.788 -48.092  1.00  0.00     0.332 C 
ATOM     28  C   UNL     1     -11.375   1.398 -46.890  1.00  0.00     0.332 C 
ATOM     29  H   UNL     1     -10.466   0.062 -48.088  1.00  0.00     0.347 HD
ENDBRANCH  25  26
ENDBRANCH  24  25
ENDBRANCH   1  24
TORSDOF 8
ENDMDL
MODEL 6
REMARK VINA RESULT:      -6.0      1.276      4.725
REMARK SMILES CC/C(=C(\c1ccccc1)c1ccc(OCC[NH+](C)C)cc1)c1ccccc1
REMARK SMILES IDX 15 1 14 2 11 3 12 4 22 5 13 6 21 7 4 8 3 9 2 10 1 11 23 12
REMARK SMILES IDX 24 13 28 14 25 15 27 16 26 17 5 18 6 19 10 20 7 21 9 22 8 23
REMARK SMILES IDX 16 24 17 25 18 26 19 27 20 28
REMARK H PARENT 18 29
ROOT
ATOM      1  O   UNL     1     -14.761   1.416 -52.220  1.00  0.00    -0.488 OA
ENDROOT
BRANCH   1   2
ATOM      2  C   UNL     1     -14.823   1.727 -50.874  1.00  0.00     0.119 A 
ATOM      3  C   UNL     1     -14.897   2.470 -48.117  1.00  0.00    -0.017 A 
ATOM      4  C   UNL     1     -15.493   1.311 -48.574  1.00  0.00     0.012 A 
ATOM      5  C   UNL     1     -14.260   3.247 -49.080  1.00  0.00     0.012 A 
ATOM      6  C   UNL     1     -15.449   0.964 -49.915  1.00  0.00     0.047 A 
ATOM      7  C   UNL     1     -14.218   2.902 -50.405  1.00  0.00     0.047 A 
BRANCH   3   8
ATOM      8  C   UNL     1     -14.907   2.847 -46.715  1.00  0.00    -0.007 C 
ATOM      9  C   UNL     1     -13.849   2.753 -45.951  1.00  0.00    -0.033 C 
BRANCH   9  10
ATOM     10  C   UNL     1     -13.815   3.080 -44.499  1.00  0.00     0.033 C 
ATOM     11  C   UNL     1     -13.498   4.538 -44.336  1.00  0.00     0.009 C 
ENDBRANCH   9  10
BRANCH   9  12
ATOM     12  C   UNL     1     -12.541   2.364 -46.509  1.00  0.00    -0.022 A 
ATOM     13  C   UNL     1     -11.821   3.200 -47.323  1.00  0.00     0.008 A 
ATOM     14  C   UNL     1     -12.053   1.130 -46.205  1.00  0.00     0.008 A 
ATOM     15  C   UNL     1     -10.613   2.786 -47.825  1.00  0.00     0.001 A 
ATOM     16  C   UNL     1     -10.828   0.668 -46.694  1.00  0.00     0.001 A 
ATOM     17  C   UNL     1     -10.127   1.528 -47.508  1.00  0.00     0.000 A 
ENDBRANCH   9  12
BRANCH   8  18
ATOM     18  C   UNL     1     -16.156   3.308 -46.145  1.00  0.00    -0.018 A 
ATOM     19  C   UNL     1     -16.977   2.484 -45.401  1.00  0.00     0.009 A 
ATOM     20  C   UNL     1     -16.580   4.611 -46.388  1.00  0.00     0.009 A 
ATOM     21  C   UNL     1     -18.169   2.970 -44.931  1.00  0.00     0.001 A 
ATOM     22  C   UNL     1     -17.773   5.115 -45.924  1.00  0.00     0.001 A 
ATOM     23  C   UNL     1     -18.582   4.265 -45.176  1.00  0.00     0.000 A 
ENDBRANCH   8  18
ENDBRANCH   3   8
ENDBRANCH   1   2
BRANCH   1  24
ATOM     24  C   UNL     1     -15.699   0.764 -53.002  1.00  0.00     0.290 C 
BRANCH  24  25
ATOM     25  C   UNL     1     -16.755   1.640 -53.624  1.00  0.00     0.303 C 
BRANCH  25  26
ATOM     26  N   UNL     1     -18.085   1.167 -53.385  1.00  0.00    -0.337 N 
ATOM     27  C   UNL     1     -18.985   1.394 -54.494  1.00  0.00     0.332 C 
ATOM     28  C   UNL     1     -18.693   1.764 -52.213  1.00  0.00     0.332 C 
ATOM     29  H   UNL     1     -18.096   0.118 -53.206  1.00  0.00     0.347 HD
ENDBRANCH  25  26
ENDBRANCH  24  25
ENDBRANCH   1  24
TORSDOF 8
ENDMDL
MODEL 7
REMARK VINA RESULT:      -6.0      4.299      7.380
REMARK SMILES CC/C(=C(\c1ccccc1)c1ccc(OCC[NH+](C)C)cc1)c1ccccc1
REMARK SMILES IDX 15 1 14 2 11 3 12 4 22 5 13 6 21 7 4 8 3 9 2 10 1 11 23 12
REMARK SMILES IDX 24 13 28 14 25 15 27 16 26 17 5 18 6 19 10 20 7 21 9 22 8 23
REMARK SMILES IDX 16 24 17 25 18 26 19 27 20 28
REMARK H PARENT 18 29
ROOT
ATOM      1  O   UNL     1     -14.819   5.319 -42.358  1.00  0.00    -0.488 OA
ENDROOT
BRANCH   1   2
ATOM      2  C   UNL     1     -14.458   4.672 -43.526  1.00  0.00     0.119 A 
ATOM      3  C   UNL     1     -13.760   3.237 -45.895  1.00  0.00    -0.017 A 
ATOM      4  C   UNL     1     -13.552   4.598 -45.780  1.00  0.00     0.012 A 
ATOM      5  C   UNL     1     -14.327   2.614 -44.788  1.00  0.00     0.012 A 
ATOM      6  C   UNL     1     -13.896   5.280 -44.624  1.00  0.00     0.047 A 
ATOM      7  C   UNL     1     -14.667   3.290 -43.647  1.00  0.00     0.047 A 
BRANCH   3   8
ATOM      8  C   UNL     1     -13.386   2.492 -47.085  1.00  0.00    -0.007 C 
ATOM      9  C   UNL     1     -14.242   2.191 -48.027  1.00  0.00    -0.033 C 
BRANCH   9  10
ATOM     10  C   UNL     1     -13.925   1.391 -49.241  1.00  0.00     0.033 C 
ATOM     11  C   UNL     1     -13.999   2.285 -50.445  1.00  0.00     0.009 C 
ENDBRANCH   9  10
BRANCH   9  12
ATOM     12  C   UNL     1     -15.625   2.698 -47.987  1.00  0.00    -0.022 A 
ATOM     13  C   UNL     1     -15.922   4.020 -48.204  1.00  0.00     0.008 A 
ATOM     14  C   UNL     1     -16.627   1.817 -47.714  1.00  0.00     0.008 A 
ATOM     15  C   UNL     1     -17.225   4.443 -48.146  1.00  0.00     0.001 A 
ATOM     16  C   UNL     1     -17.968   2.205 -47.645  1.00  0.00     0.001 A 
ATOM     17  C   UNL     1     -18.235   3.536 -47.868  1.00  0.00     0.000 A 
ENDBRANCH   9  12
BRANCH   8  18
ATOM     18  C   UNL     1     -12.015   2.040 -47.199  1.00  0.00    -0.018 A 
ATOM     19  C   UNL     1     -11.143   2.558 -48.135  1.00  0.00     0.009 A 
ATOM     20  C   UNL     1     -11.561   1.015 -46.374  1.00  0.00     0.009 A 
ATOM     21  C   UNL     1      -9.872   2.052 -48.222  1.00  0.00     0.001 A 
ATOM     22  C   UNL     1     -10.289   0.497 -46.446  1.00  0.00     0.001 A 
ATOM     23  C   UNL     1      -9.429   1.036 -47.398  1.00  0.00     0.000 A 
ENDBRANCH   8  18
ENDBRANCH   3   8
ENDBRANCH   1   2
BRANCH   1  24
ATOM     24  C   UNL     1     -14.076   6.199 -41.591  1.00  0.00     0.290 C 
BRANCH  24  25
ATOM     25  C   UNL     1     -12.614   5.866 -41.446  1.00  0.00     0.303 C 
BRANCH  25  26
ATOM     26  N   UNL     1     -11.769   7.019 -41.519  1.00  0.00    -0.337 N 
ATOM     27  C   UNL     1     -12.290   8.161 -40.800  1.00  0.00     0.332 C 
ATOM     28  C   UNL     1     -11.522   7.450 -42.880  1.00  0.00     0.332 C 
ATOM     29  H   UNL     1     -10.809   6.823 -41.106  1.00  0.00     0.347 HD
ENDBRANCH  25  26
ENDBRANCH  24  25
ENDBRANCH   1  24
TORSDOF 8
ENDMDL
MODEL 8
REMARK VINA RESULT:      -5.9      5.607      8.802
REMARK SMILES CC/C(=C(\c1ccccc1)c1ccc(OCC[NH+](C)C)cc1)c1ccccc1
REMARK SMILES IDX 15 1 14 2 11 3 12 4 22 5 13 6 21 7 4 8 3 9 2 10 1 11 23 12
REMARK SMILES IDX 24 13 28 14 25 15 27 16 26 17 5 18 6 19 10 20 7 21 9 22 8 23
REMARK SMILES IDX 16 24 17 25 18 26 19 27 20 28
REMARK H PARENT 18 29
ROOT
ATOM      1  O   UNL     1     -10.175  -0.145 -44.925  1.00  0.00    -0.488 OA
ENDROOT
BRANCH   1   2
ATOM      2  C   UNL     1     -11.304  -0.013 -44.138  1.00  0.00     0.119 A 
ATOM      3  C   UNL     1     -13.666   0.353 -42.574  1.00  0.00    -0.017 A 
ATOM      4  C   UNL     1     -12.829  -0.730 -42.385  1.00  0.00     0.012 A 
ATOM      5  C   UNL     1     -13.286   1.249 -43.567  1.00  0.00     0.012 A 
ATOM      6  C   UNL     1     -11.687  -0.893 -43.153  1.00  0.00     0.047 A 
ATOM      7  C   UNL     1     -12.157   1.085 -44.325  1.00  0.00     0.047 A 
BRANCH   3   8
ATOM      8  C   UNL     1     -14.857   0.563 -41.769  1.00  0.00    -0.007 C 
ATOM      9  C   UNL     1     -14.808   0.994 -40.535  1.00  0.00    -0.033 C 
BRANCH   9  10
ATOM     10  C   UNL     1     -15.991   1.182 -39.651  1.00  0.00     0.033 C 
ATOM     11  C   UNL     1     -16.156  -0.039 -38.794  1.00  0.00     0.009 C 
ENDBRANCH   9  10
BRANCH   9  12
ATOM     12  C   UNL     1     -13.531   1.407 -39.925  1.00  0.00    -0.022 A 
ATOM     13  C   UNL     1     -12.798   0.561 -39.133  1.00  0.00     0.008 A 
ATOM     14  C   UNL     1     -13.087   2.673 -40.155  1.00  0.00     0.008 A 
ATOM     15  C   UNL     1     -11.620   0.997 -38.580  1.00  0.00     0.001 A 
ATOM     16  C   UNL     1     -11.894   3.159 -39.612  1.00  0.00     0.001 A 
ATOM     17  C   UNL     1     -11.179   2.287 -38.823  1.00  0.00     0.000 A 
ENDBRANCH   9  12
BRANCH   8  18
ATOM     18  C   UNL     1     -16.140   0.242 -42.360  1.00  0.00    -0.018 A 
ATOM     19  C   UNL     1     -16.924   1.192 -42.983  1.00  0.00     0.009 A 
ATOM     20  C   UNL     1     -16.634  -1.056 -42.261  1.00  0.00     0.009 A 
ATOM     21  C   UNL     1     -18.150   0.831 -43.480  1.00  0.00     0.001 A 
ATOM     22  C   UNL     1     -17.860  -1.435 -42.754  1.00  0.00     0.001 A 
ATOM     23  C   UNL     1     -18.631  -0.459 -43.379  1.00  0.00     0.000 A 
ENDBRANCH   8  18
ENDBRANCH   3   8
ENDBRANCH   1   2
BRANCH   1  24
ATOM     24  C   UNL     1     -10.089  -0.266 -46.301  1.00  0.00     0.290 C 
BRANCH  24  25
ATOM     25  C   UNL     1      -9.429   0.881 -47.020  1.00  0.00     0.303 C 
BRANCH  25  26
ATOM     26  N   UNL     1     -10.230   1.410 -48.081  1.00  0.00    -0.337 N 
ATOM     27  C   UNL     1      -9.453   1.916 -49.192  1.00  0.00     0.332 C 
ATOM     28  C   UNL     1     -11.103   2.482 -47.648  1.00  0.00     0.332 C 
ATOM     29  H   UNL     1     -10.874   0.667 -48.487  1.00  0.00     0.347 HD
ENDBRANCH  25  26
ENDBRANCH  24  25
ENDBRANCH   1  24
TORSDOF 8
ENDMDL
MODEL 9
REMARK VINA RESULT:      -5.9      1.193      4.768
REMARK SMILES CC/C(=C(\c1ccccc1)c1ccc(OCC[NH+](C)C)cc1)c1ccccc1
REMARK SMILES IDX 15 1 14 2 11 3 12 4 22 5 13 6 21 7 4 8 3 9 2 10 1 11 23 12
REMARK SMILES IDX 24 13 28 14 25 15 27 16 26 17 5 18 6 19 10 20 7 21 9 22 8 23
REMARK SMILES IDX 16 24 17 25 18 26 19 27 20 28
REMARK H PARENT 18 29
ROOT
ATOM      1  O   UNL     1     -15.075   0.947 -52.318  1.00  0.00    -0.488 OA
ENDROOT
BRANCH   1   2
ATOM      2  C   UNL     1     -15.016   1.447 -51.030  1.00  0.00     0.119 A 
ATOM      3  C   UNL     1     -14.952   2.386 -48.333  1.00  0.00    -0.017 A 
ATOM      4  C   UNL     1     -14.309   3.059 -49.353  1.00  0.00     0.012 A 
ATOM      5  C   UNL     1     -15.631   1.229 -48.702  1.00  0.00     0.012 A 
ATOM      6  C   UNL     1     -14.349   2.591 -50.657  1.00  0.00     0.047 A 
ATOM      7  C   UNL     1     -15.669   0.768 -49.991  1.00  0.00     0.047 A 
BRANCH   3   8
ATOM      8  C   UNL     1     -14.948   2.866 -46.963  1.00  0.00    -0.007 C 
ATOM      9  C   UNL     1     -13.890   2.802 -46.195  1.00  0.00    -0.033 C 
BRANCH   9  10
ATOM     10  C   UNL     1     -13.843   3.235 -44.772  1.00  0.00     0.033 C 
ATOM     11  C   UNL     1     -13.445   4.681 -44.716  1.00  0.00     0.009 C 
ENDBRANCH   9  10
BRANCH   9  12
ATOM     12  C   UNL     1     -12.595   2.340 -46.725  1.00  0.00    -0.022 A 
ATOM     13  C   UNL     1     -12.011   1.173 -46.301  1.00  0.00     0.008 A 
ATOM     14  C   UNL     1     -11.967   3.111 -47.655  1.00  0.00     0.008 A 
ATOM     15  C   UNL     1     -10.799   0.792 -46.819  1.00  0.00     0.001 A 
ATOM     16  C   UNL     1     -10.731   2.761 -48.208  1.00  0.00     0.001 A 
ATOM     17  C   UNL     1     -10.171   1.586 -47.764  1.00  0.00     0.000 A 
ENDBRANCH   9  12
BRANCH   8  18
ATOM     18  C   UNL     1     -16.183   3.400 -46.427  1.00  0.00    -0.018 A 
ATOM     19  C   UNL     1     -16.576   4.706 -46.640  1.00  0.00     0.009 A 
ATOM     20  C   UNL     1     -16.989   2.593 -45.629  1.00  0.00     0.009 A 
ATOM     21  C   UNL     1     -17.734   5.162 -46.065  1.00  0.00     0.001 A 
ATOM     22  C   UNL     1     -18.154   3.034 -45.045  1.00  0.00     0.001 A 
ATOM     23  C   UNL     1     -18.528   4.354 -45.275  1.00  0.00     0.000 A 
ENDBRANCH   8  18
ENDBRANCH   3   8
ENDBRANCH   1   2
BRANCH   1  24
ATOM     24  C   UNL     1     -15.723   1.473 -53.422  1.00  0.00     0.290 C 
BRANCH  24  25
ATOM     25  C   UNL     1     -17.044   2.143 -53.148  1.00  0.00     0.303 C 
BRANCH  25  26
ATOM     26  N   UNL     1     -18.154   1.242 -53.224  1.00  0.00    -0.337 N 
ATOM     27  C   UNL     1     -18.938   1.395 -54.430  1.00  0.00     0.332 C 
ATOM     28  C   UNL     1     -19.063   1.373 -52.104  1.00  0.00     0.332 C 
ATOM     29  H   UNL     1     -17.831   0.229 -53.209  1.00  0.00     0.347 HD
ENDBRANCH  25  26
ENDBRANCH  24  25
ENDBRANCH   1  24
TORSDOF 8
ENDMDL
