MODEL 1
REMARK VINA RESULT:      -6.0      0.000      0.000
REMARK SMILES O=C(CCC[NH+]1CCC(O)(c2ccc(Cl)cc2)CC1)c1ccc(F)cc1
REMARK SMILES IDX 4 1 3 2 2 3 1 4 20 5 21 6 26 7 22 8 25 9 23 10 24 11 5 12
REMARK SMILES IDX 6 13 7 14 19 15 8 16 18 17 9 18 10 20 11 22 12 23 17 24
REMARK SMILES IDX 13 25 16 26 14 27 15 28
REMARK H PARENT 6 19 10 21
ROOT
ATOM      1  C   UNL     1      86.721 126.236 120.764  1.00  0.00     0.070 C 
ENDROOT
BRANCH   1   2
ATOM      2  C   UNL     1      87.446 127.076 121.791  1.00  0.00     0.087 C 
BRANCH   2   3
ATOM      3  C   UNL     1      86.693 128.242 122.257  1.00  0.00     0.163 C 
ATOM      4  O   UNL     1      86.612 129.291 121.566  1.00  0.00    -0.294 OA
BRANCH   3   5
ATOM      5  C   UNL     1      85.986 128.261 123.555  1.00  0.00     0.018 A 
ATOM      6  C   UNL     1      86.446 129.049 124.594  1.00  0.00     0.015 A 
ATOM      7  C   UNL     1      84.861 127.503 123.758  1.00  0.00     0.015 A 
ATOM      8  C   UNL     1      85.784 129.062 125.799  1.00  0.00     0.040 A 
ATOM      9  C   UNL     1      84.196 127.511 124.955  1.00  0.00     0.040 A 
ATOM     10  C   UNL     1      84.661 128.294 125.975  1.00  0.00     0.123 A 
ATOM     11  F   UNL     1      83.970 128.274 127.159  1.00  0.00    -0.207 F 
ENDBRANCH   3   5
ENDBRANCH   2   3
ENDBRANCH   1   2
BRANCH   1  12
ATOM     12  C   UNL     1      87.734 125.593 119.881  1.00  0.00     0.262 C 
BRANCH  12  13
ATOM     13  N   UNL     1      87.439 124.192 119.611  1.00  0.00    -0.335 N 
ATOM     14  C   UNL     1      88.547 123.333 119.904  1.00  0.00     0.265 C 
ATOM     15  C   UNL     1      86.278 123.786 120.335  1.00  0.00     0.265 C 
ATOM     16  C   UNL     1      88.950 123.426 121.350  1.00  0.00     0.102 C 
ATOM     17  C   UNL     1      86.488 122.932 121.512  1.00  0.00     0.102 C 
ATOM     18  C   UNL     1      87.794 123.015 122.212  1.00  0.00     0.100 C 
ATOM     19  H   UNL     1      87.295 124.146 118.558  1.00  0.00     0.348 HD
BRANCH  18  20
ATOM     20  O   UNL     1      88.098 121.711 122.675  1.00  0.00    -0.385 OA
ATOM     21  H   UNL     1      89.059 121.713 122.913  1.00  0.00     0.211 HD
ENDBRANCH  18  20
BRANCH  18  22
ATOM     22  C   UNL     1      87.727 123.842 123.470  1.00  0.00    -0.016 A 
ATOM     23  C   UNL     1      86.570 123.953 124.212  1.00  0.00     0.008 A 
ATOM     24  C   UNL     1      88.812 124.537 123.957  1.00  0.00     0.008 A 
ATOM     25  C   UNL     1      86.467 124.698 125.364  1.00  0.00     0.021 A 
ATOM     26  C   UNL     1      88.733 125.291 125.111  1.00  0.00     0.021 A 
ATOM     27  C   UNL     1      87.561 125.370 125.814  1.00  0.00     0.041 A 
ATOM     28  Cl  UNL     1      87.452 126.320 127.276  1.00  0.00    -0.084 Cl
ENDBRANCH  18  22
ENDBRANCH  12  13
ENDBRANCH   1  12
TORSDOF 7
ENDMDL
MODEL 2
REMARK VINA RESULT:      -5.6      9.862     12.076
REMARK SMILES O=C(CCC[NH+]1CCC(O)(c2ccc(Cl)cc2)CC1)c1ccc(F)cc1
REMARK SMILES IDX 4 1 3 2 2 3 1 4 20 5 21 6 26 7 22 8 25 9 23 10 24 11 5 12
REMARK SMILES IDX 6 13 7 14 19 15 8 16 18 17 9 18 10 20 11 22 12 23 17 24
REMARK SMILES IDX 13 25 16 26 14 27 15 28
REMARK H PARENT 6 19 10 21
ROOT
ATOM      1  C   UNL     1      78.044 124.268 116.019  1.00  0.00     0.070 C 
ENDROOT
BRANCH   1   2
ATOM      2  C   UNL     1      79.139 124.277 114.977  1.00  0.00     0.087 C 
BRANCH   2   3
ATOM      3  C   UNL     1      78.698 124.686 113.642  1.00  0.00     0.163 C 
ATOM      4  O   UNL     1      77.724 124.130 113.073  1.00  0.00    -0.294 OA
BRANCH   3   5
ATOM      5  C   UNL     1      79.361 125.770 112.886  1.00  0.00     0.018 A 
ATOM      6  C   UNL     1      78.924 126.112 111.619  1.00  0.00     0.015 A 
ATOM      7  C   UNL     1      80.421 126.458 113.420  1.00  0.00     0.015 A 
ATOM      8  C   UNL     1      79.546 127.120 110.921  1.00  0.00     0.040 A 
ATOM      9  C   UNL     1      81.045 127.463 112.731  1.00  0.00     0.040 A 
ATOM     10  C   UNL     1      80.603 127.792 111.479  1.00  0.00     0.123 A 
ATOM     11  F   UNL     1      81.255 128.802 110.819  1.00  0.00    -0.207 F 
ENDBRANCH   3   5
ENDBRANCH   2   3
ENDBRANCH   1   2
BRANCH   1  12
ATOM     12  C   UNL     1      78.069 125.571 116.741  1.00  0.00     0.262 C 
BRANCH  12  13
ATOM     13  N   UNL     1      78.258 125.416 118.178  1.00  0.00    -0.335 N 
ATOM     14  C   UNL     1      79.617 125.128 118.523  1.00  0.00     0.265 C 
ATOM     15  C   UNL     1      77.797 126.580 118.863  1.00  0.00     0.265 C 
ATOM     16  C   UNL     1      80.545 126.224 118.074  1.00  0.00     0.102 C 
ATOM     17  C   UNL     1      78.820 127.491 119.396  1.00  0.00     0.102 C 
ATOM     18  C   UNL     1      80.152 127.508 118.742  1.00  0.00     0.100 C 
ATOM     19  H   UNL     1      77.695 124.550 118.430  1.00  0.00     0.348 HD
BRANCH  18  20
ATOM     20  O   UNL     1      81.110 127.725 119.762  1.00  0.00    -0.385 OA
ATOM     21  H   UNL     1      81.796 128.329 119.381  1.00  0.00     0.211 HD
ENDBRANCH  18  20
BRANCH  18  22
ATOM     22  C   UNL     1      80.330 128.683 117.816  1.00  0.00    -0.016 A 
ATOM     23  C   UNL     1      79.991 129.966 118.190  1.00  0.00     0.008 A 
ATOM     24  C   UNL     1      80.840 128.552 116.543  1.00  0.00     0.008 A 
ATOM     25  C   UNL     1      80.137 131.066 117.376  1.00  0.00     0.021 A 
ATOM     26  C   UNL     1      80.995 129.641 115.708  1.00  0.00     0.021 A 
ATOM     27  C   UNL     1      80.644 130.896 116.125  1.00  0.00     0.041 A 
ATOM     28  Cl  UNL     1      80.840 132.279 115.075  1.00  0.00    -0.084 Cl
ENDBRANCH  18  22
ENDBRANCH  12  13
ENDBRANCH   1  12
TORSDOF 7
ENDMDL
MODEL 3
REMARK VINA RESULT:      -5.5     11.158     13.027
REMARK SMILES O=C(CCC[NH+]1CCC(O)(c2ccc(Cl)cc2)CC1)c1ccc(F)cc1
REMARK SMILES IDX 4 1 3 2 2 3 1 4 20 5 21 6 26 7 22 8 25 9 23 10 24 11 5 12
REMARK SMILES IDX 6 13 7 14 19 15 8 16 18 17 9 18 10 20 11 22 12 23 17 24
REMARK SMILES IDX 13 25 16 26 14 27 15 28
REMARK H PARENT 6 19 10 21
ROOT
ATOM      1  C   UNL     1      80.599 128.422 117.049  1.00  0.00     0.070 C 
ENDROOT
BRANCH   1   2
ATOM      2  C   UNL     1      80.987 129.183 115.801  1.00  0.00     0.087 C 
BRANCH   2   3
ATOM      3  C   UNL     1      80.045 130.238 115.421  1.00  0.00     0.163 C 
ATOM      4  O   UNL     1      79.716 131.147 116.227  1.00  0.00    -0.294 OA
BRANCH   3   5
ATOM      5  C   UNL     1      79.428 130.303 114.079  1.00  0.00     0.018 A 
ATOM      6  C   UNL     1      78.227 129.666 113.827  1.00  0.00     0.015 A 
ATOM      7  C   UNL     1      80.029 130.994 113.058  1.00  0.00     0.015 A 
ATOM      8  C   UNL     1      77.659 129.730 112.577  1.00  0.00     0.040 A 
ATOM      9  C   UNL     1      79.469 131.062 111.810  1.00  0.00     0.040 A 
ATOM     10  C   UNL     1      78.280 130.428 111.573  1.00  0.00     0.123 A 
ATOM     11  F   UNL     1      77.752 130.517 110.311  1.00  0.00    -0.207 F 
ENDBRANCH   3   5
ENDBRANCH   2   3
ENDBRANCH   1   2
BRANCH   1  12
ATOM     12  C   UNL     1      79.264 127.798 116.823  1.00  0.00     0.262 C 
BRANCH  12  13
ATOM     13  N   UNL     1      79.261 126.365 117.087  1.00  0.00    -0.335 N 
ATOM     14  C   UNL     1      78.097 125.716 116.564  1.00  0.00     0.265 C 
ATOM     15  C   UNL     1      80.449 125.768 116.572  1.00  0.00     0.265 C 
ATOM     16  C   UNL     1      77.992 125.887 115.074  1.00  0.00     0.102 C 
ATOM     17  C   UNL     1      80.320 124.971 115.344  1.00  0.00     0.102 C 
ATOM     18  C   UNL     1      79.201 125.286 114.421  1.00  0.00     0.100 C 
ATOM     19  H   UNL     1      79.196 126.288 118.146  1.00  0.00     0.348 HD
BRANCH  18  20
ATOM     20  O   UNL     1      78.770 124.058 113.861  1.00  0.00    -0.385 OA
ATOM     21  H   UNL     1      78.592 123.448 114.619  1.00  0.00     0.211 HD
ENDBRANCH  18  20
BRANCH  18  22
ATOM     22  C   UNL     1      79.641 126.096 113.230  1.00  0.00    -0.016 A 
ATOM     23  C   UNL     1      78.922 126.117 112.053  1.00  0.00     0.008 A 
ATOM     24  C   UNL     1      80.783 126.866 113.240  1.00  0.00     0.008 A 
ATOM     25  C   UNL     1      79.290 126.843 110.943  1.00  0.00     0.021 A 
ATOM     26  C   UNL     1      81.172 127.603 112.139  1.00  0.00     0.021 A 
ATOM     27  C   UNL     1      80.425 127.591 110.992  1.00  0.00     0.041 A 
ATOM     28  Cl  UNL     1      80.908 128.521 109.594  1.00  0.00    -0.084 Cl
ENDBRANCH  18  22
ENDBRANCH  12  13
ENDBRANCH   1  12
TORSDOF 7
ENDMDL
MODEL 4
REMARK VINA RESULT:      -5.3      3.167      5.456
REMARK SMILES O=C(CCC[NH+]1CCC(O)(c2ccc(Cl)cc2)CC1)c1ccc(F)cc1
REMARK SMILES IDX 4 1 3 2 2 3 1 4 20 5 21 6 26 7 22 8 25 9 23 10 24 11 5 12
REMARK SMILES IDX 6 13 7 14 19 15 8 16 18 17 9 18 10 20 11 22 12 23 17 24
REMARK SMILES IDX 13 25 16 26 14 27 15 28
REMARK H PARENT 6 19 10 21
ROOT
ATOM      1  C   UNL     1      85.876 129.107 122.442  1.00  0.00     0.070 C 
ENDROOT
BRANCH   1   2
ATOM      2  C   UNL     1      87.240 128.991 121.799  1.00  0.00     0.087 C 
BRANCH   2   3
ATOM      3  C   UNL     1      87.953 127.753 122.118  1.00  0.00     0.163 C 
ATOM      4  O   UNL     1      88.776 127.694 123.068  1.00  0.00    -0.294 OA
BRANCH   3   5
ATOM      5  C   UNL     1      87.753 126.504 121.352  1.00  0.00     0.018 A 
ATOM      6  C   UNL     1      88.775 125.578 121.239  1.00  0.00     0.015 A 
ATOM      7  C   UNL     1      86.557 126.235 120.739  1.00  0.00     0.015 A 
ATOM      8  C   UNL     1      88.582 124.419 120.526  1.00  0.00     0.040 A 
ATOM      9  C   UNL     1      86.357 125.083 120.026  1.00  0.00     0.040 A 
ATOM     10  C   UNL     1      87.375 124.175 119.922  1.00  0.00     0.123 A 
ATOM     11  F   UNL     1      87.139 123.035 119.199  1.00  0.00    -0.207 F 
ENDBRANCH   3   5
ENDBRANCH   2   3
ENDBRANCH   1   2
BRANCH   1  12
ATOM     12  C   UNL     1      86.063 129.399 123.892  1.00  0.00     0.262 C 
BRANCH  12  13
ATOM     13  N   UNL     1      84.825 129.286 124.653  1.00  0.00    -0.335 N 
ATOM     14  C   UNL     1      83.781 128.650 123.909  1.00  0.00     0.265 C 
ATOM     15  C   UNL     1      85.064 128.598 125.880  1.00  0.00     0.265 C 
ATOM     16  C   UNL     1      84.168 127.258 123.493  1.00  0.00     0.102 C 
ATOM     17  C   UNL     1      84.586 127.211 125.974  1.00  0.00     0.102 C 
ATOM     18  C   UNL     1      84.442 126.435 124.716  1.00  0.00     0.100 C 
ATOM     19  H   UNL     1      84.514 130.291 124.808  1.00  0.00     0.348 HD
BRANCH  18  20
ATOM     20  O   UNL     1      83.315 125.593 124.879  1.00  0.00    -0.385 OA
ATOM     21  H   UNL     1      82.655 125.868 124.195  1.00  0.00     0.211 HD
ENDBRANCH  18  20
BRANCH  18  22
ATOM     22  C   UNL     1      85.583 125.479 124.490  1.00  0.00    -0.016 A 
ATOM     23  C   UNL     1      86.822 125.669 125.066  1.00  0.00     0.008 A 
ATOM     24  C   UNL     1      85.464 124.359 123.696  1.00  0.00     0.008 A 
ATOM     25  C   UNL     1      87.890 124.820 124.884  1.00  0.00     0.021 A 
ATOM     26  C   UNL     1      86.522 123.494 123.499  1.00  0.00     0.021 A 
ATOM     27  C   UNL     1      87.733 123.725 124.093  1.00  0.00     0.041 A 
ATOM     28  Cl  UNL     1      89.076 122.634 123.850  1.00  0.00    -0.084 Cl
ENDBRANCH  18  22
ENDBRANCH  12  13
ENDBRANCH   1  12
TORSDOF 7
ENDMDL
MODEL 5
REMARK VINA RESULT:      -5.3      1.917      3.683
REMARK SMILES O=C(CCC[NH+]1CCC(O)(c2ccc(Cl)cc2)CC1)c1ccc(F)cc1
REMARK SMILES IDX 4 1 3 2 2 3 1 4 20 5 21 6 26 7 22 8 25 9 23 10 24 11 5 12
REMARK SMILES IDX 6 13 7 14 19 15 8 16 18 17 9 18 10 20 11 22 12 23 17 24
REMARK SMILES IDX 13 25 16 26 14 27 15 28
REMARK H PARENT 6 19 10 21
ROOT
ATOM      1  C   UNL     1      86.755 122.569 122.750  1.00  0.00     0.070 C 
ENDROOT
BRANCH   1   2
ATOM      2  C   UNL     1      87.185 123.546 123.821  1.00  0.00     0.087 C 
BRANCH   2   3
ATOM      3  C   UNL     1      86.080 124.246 124.479  1.00  0.00     0.163 C 
ATOM      4  O   UNL     1      84.890 123.856 124.356  1.00  0.00    -0.294 OA
BRANCH   3   5
ATOM      5  C   UNL     1      86.289 125.442 125.322  1.00  0.00     0.018 A 
ATOM      6  C   UNL     1      87.272 125.452 126.294  1.00  0.00     0.015 A 
ATOM      7  C   UNL     1      85.517 126.564 125.160  1.00  0.00     0.015 A 
ATOM      8  C   UNL     1      87.461 126.568 127.075  1.00  0.00     0.040 A 
ATOM      9  C   UNL     1      85.699 127.679 125.934  1.00  0.00     0.040 A 
ATOM     10  C   UNL     1      86.676 127.677 126.892  1.00  0.00     0.123 A 
ATOM     11  F   UNL     1      86.827 128.811 127.649  1.00  0.00    -0.207 F 
ENDBRANCH   3   5
ENDBRANCH   2   3
ENDBRANCH   1   2
BRANCH   1  12
ATOM     12  C   UNL     1      85.759 123.244 121.870  1.00  0.00     0.262 C 
BRANCH  12  13
ATOM     13  N   UNL     1      86.164 123.260 120.471  1.00  0.00    -0.335 N 
ATOM     14  C   UNL     1      85.527 124.306 119.729  1.00  0.00     0.265 C 
ATOM     15  C   UNL     1      87.584 123.362 120.371  1.00  0.00     0.265 C 
ATOM     16  C   UNL     1      85.850 125.661 120.296  1.00  0.00     0.102 C 
ATOM     17  C   UNL     1      88.135 124.662 119.962  1.00  0.00     0.102 C 
ATOM     18  C   UNL     1      87.332 125.879 120.238  1.00  0.00     0.100 C 
ATOM     19  H   UNL     1      85.796 122.345 120.075  1.00  0.00     0.348 HD
BRANCH  18  20
ATOM     20  O   UNL     1      87.552 126.772 119.160  1.00  0.00    -0.385 OA
ATOM     21  H   UNL     1      87.370 127.681 119.505  1.00  0.00     0.211 HD
ENDBRANCH  18  20
BRANCH  18  22
ATOM     22  C   UNL     1      87.822 126.636 121.445  1.00  0.00    -0.016 A 
ATOM     23  C   UNL     1      87.250 127.826 121.844  1.00  0.00     0.008 A 
ATOM     24  C   UNL     1      88.867 126.191 122.224  1.00  0.00     0.008 A 
ATOM     25  C   UNL     1      87.667 128.548 122.938  1.00  0.00     0.021 A 
ATOM     26  C   UNL     1      89.304 126.899 123.326  1.00  0.00     0.021 A 
ATOM     27  C   UNL     1      88.703 128.076 123.683  1.00  0.00     0.041 A 
ATOM     28  Cl  UNL     1      89.248 128.976 125.078  1.00  0.00    -0.084 Cl
ENDBRANCH  18  22
ENDBRANCH  12  13
ENDBRANCH   1  12
TORSDOF 7
ENDMDL
MODEL 6
REMARK VINA RESULT:      -5.3      2.221      3.786
REMARK SMILES O=C(CCC[NH+]1CCC(O)(c2ccc(Cl)cc2)CC1)c1ccc(F)cc1
REMARK SMILES IDX 4 1 3 2 2 3 1 4 20 5 21 6 26 7 22 8 25 9 23 10 24 11 5 12
REMARK SMILES IDX 6 13 7 14 19 15 8 16 18 17 9 18 10 20 11 22 12 23 17 24
REMARK SMILES IDX 13 25 16 26 14 27 15 28
REMARK H PARENT 6 19 10 21
ROOT
ATOM      1  C   UNL     1      86.040 123.418 123.691  1.00  0.00     0.070 C 
ENDROOT
BRANCH   1   2
ATOM      2  C   UNL     1      85.926 124.353 124.875  1.00  0.00     0.087 C 
BRANCH   2   3
ATOM      3  C   UNL     1      85.080 125.525 124.638  1.00  0.00     0.163 C 
ATOM      4  O   UNL     1      83.998 125.436 124.003  1.00  0.00    -0.294 OA
BRANCH   3   5
ATOM      5  C   UNL     1      85.440 126.873 125.126  1.00  0.00     0.018 A 
ATOM      6  C   UNL     1      84.829 127.996 124.600  1.00  0.00     0.015 A 
ATOM      7  C   UNL     1      86.384 127.040 126.106  1.00  0.00     0.015 A 
ATOM      8  C   UNL     1      85.168 129.247 125.058  1.00  0.00     0.040 A 
ATOM      9  C   UNL     1      86.728 128.283 126.568  1.00  0.00     0.040 A 
ATOM     10  C   UNL     1      86.116 129.387 126.040  1.00  0.00     0.123 A 
ATOM     11  F   UNL     1      86.487 130.614 126.526  1.00  0.00    -0.207 F 
ENDBRANCH   3   5
ENDBRANCH   2   3
ENDBRANCH   1   2
BRANCH   1  12
ATOM     12  C   UNL     1      87.459 123.406 123.235  1.00  0.00     0.262 C 
BRANCH  12  13
ATOM     13  N   UNL     1      87.590 123.151 121.806  1.00  0.00    -0.335 N 
ATOM     14  C   UNL     1      86.458 123.614 121.063  1.00  0.00     0.265 C 
ATOM     15  C   UNL     1      88.794 123.735 121.312  1.00  0.00     0.265 C 
ATOM     16  C   UNL     1      86.256 125.096 121.227  1.00  0.00     0.102 C 
ATOM     17  C   UNL     1      88.664 124.959 120.509  1.00  0.00     0.102 C 
ATOM     18  C   UNL     1      87.474 125.817 120.731  1.00  0.00     0.100 C 
ATOM     19  H   UNL     1      87.590 122.091 121.723  1.00  0.00     0.348 HD
BRANCH  18  20
ATOM     20  O   UNL     1      87.117 126.361 119.472  1.00  0.00    -0.385 OA
ATOM     21  H   UNL     1      86.143 126.530 119.503  1.00  0.00     0.211 HD
ENDBRANCH  18  20
BRANCH  18  22
ATOM     22  C   UNL     1      87.778 127.025 121.578  1.00  0.00    -0.016 A 
ATOM     23  C   UNL     1      88.585 126.951 122.694  1.00  0.00     0.008 A 
ATOM     24  C   UNL     1      87.273 128.275 121.293  1.00  0.00     0.008 A 
ATOM     25  C   UNL     1      88.887 128.030 123.494  1.00  0.00     0.021 A 
ATOM     26  C   UNL     1      87.562 129.371 122.082  1.00  0.00     0.021 A 
ATOM     27  C   UNL     1      88.369 129.248 123.180  1.00  0.00     0.041 A 
ATOM     28  Cl  UNL     1      88.741 130.630 124.182  1.00  0.00    -0.084 Cl
ENDBRANCH  18  22
ENDBRANCH  12  13
ENDBRANCH   1  12
TORSDOF 7
ENDMDL
MODEL 7
REMARK VINA RESULT:      -5.2     11.027     12.770
REMARK SMILES O=C(CCC[NH+]1CCC(O)(c2ccc(Cl)cc2)CC1)c1ccc(F)cc1
REMARK SMILES IDX 4 1 3 2 2 3 1 4 20 5 21 6 26 7 22 8 25 9 23 10 24 11 5 12
REMARK SMILES IDX 6 13 7 14 19 15 8 16 18 17 9 18 10 20 11 22 12 23 17 24
REMARK SMILES IDX 13 25 16 26 14 27 15 28
REMARK H PARENT 6 19 10 21
ROOT
ATOM      1  C   UNL     1      79.263 127.791 116.598  1.00  0.00     0.070 C 
ENDROOT
BRANCH   1   2
ATOM      2  C   UNL     1      79.165 128.954 115.637  1.00  0.00     0.087 C 
BRANCH   2   3
ATOM      3  C   UNL     1      80.428 129.660 115.414  1.00  0.00     0.163 C 
ATOM      4  O   UNL     1      81.515 129.223 115.873  1.00  0.00    -0.294 OA
BRANCH   3   5
ATOM      5  C   UNL     1      80.507 130.918 114.642  1.00  0.00     0.018 A 
ATOM      6  C   UNL     1      80.816 132.111 115.272  1.00  0.00     0.015 A 
ATOM      7  C   UNL     1      80.276 130.934 113.290  1.00  0.00     0.015 A 
ATOM      8  C   UNL     1      80.887 133.277 114.548  1.00  0.00     0.040 A 
ATOM      9  C   UNL     1      80.345 132.091 112.563  1.00  0.00     0.040 A 
ATOM     10  C   UNL     1      80.653 133.264 113.197  1.00  0.00     0.123 A 
ATOM     11  F   UNL     1      80.710 134.403 112.436  1.00  0.00    -0.207 F 
ENDBRANCH   3   5
ENDBRANCH   2   3
ENDBRANCH   1   2
BRANCH   1  12
ATOM     12  C   UNL     1      77.944 127.098 116.636  1.00  0.00     0.262 C 
BRANCH  12  13
ATOM     13  N   UNL     1      78.070 125.652 116.760  1.00  0.00    -0.335 N 
ATOM     14  C   UNL     1      77.165 124.947 115.904  1.00  0.00     0.265 C 
ATOM     15  C   UNL     1      79.418 125.253 116.512  1.00  0.00     0.265 C 
ATOM     16  C   UNL     1      77.399 125.284 114.456  1.00  0.00     0.102 C 
ATOM     17  C   UNL     1      79.696 124.601 115.224  1.00  0.00     0.102 C 
ATOM     18  C   UNL     1      78.799 124.901 114.080  1.00  0.00     0.100 C 
ATOM     19  H   UNL     1      77.764 125.442 117.757  1.00  0.00     0.348 HD
BRANCH  18  20
ATOM     20  O   UNL     1      78.685 123.710 113.321  1.00  0.00    -0.385 OA
ATOM     21  H   UNL     1      79.454 123.140 113.574  1.00  0.00     0.211 HD
ENDBRANCH  18  20
BRANCH  18  22
ATOM     22  C   UNL     1      79.398 125.892 113.117  1.00  0.00    -0.016 A 
ATOM     23  C   UNL     1      78.802 126.192 111.910  1.00  0.00     0.008 A 
ATOM     24  C   UNL     1      80.575 126.559 113.378  1.00  0.00     0.008 A 
ATOM     25  C   UNL     1      79.316 127.090 111.003  1.00  0.00     0.021 A 
ATOM     26  C   UNL     1      81.111 127.464 112.483  1.00  0.00     0.021 A 
ATOM     27  C   UNL     1      80.481 127.729 111.297  1.00  0.00     0.041 A 
ATOM     28  Cl  UNL     1      81.150 128.874 110.160  1.00  0.00    -0.084 Cl
ENDBRANCH  18  22
ENDBRANCH  12  13
ENDBRANCH   1  12
TORSDOF 7
ENDMDL
MODEL 8
REMARK VINA RESULT:      -5.2      3.338      6.634
REMARK SMILES O=C(CCC[NH+]1CCC(O)(c2ccc(Cl)cc2)CC1)c1ccc(F)cc1
REMARK SMILES IDX 4 1 3 2 2 3 1 4 20 5 21 6 26 7 22 8 25 9 23 10 24 11 5 12
REMARK SMILES IDX 6 13 7 14 19 15 8 16 18 17 9 18 10 20 11 22 12 23 17 24
REMARK SMILES IDX 13 25 16 26 14 27 15 28
REMARK H PARENT 6 19 10 21
ROOT
ATOM      1  C   UNL     1      86.520 126.712 126.588  1.00  0.00     0.070 C 
ENDROOT
BRANCH   1   2
ATOM      2  C   UNL     1      87.455 126.292 125.477  1.00  0.00     0.087 C 
BRANCH   2   3
ATOM      3  C   UNL     1      87.839 124.879 125.514  1.00  0.00     0.163 C 
ATOM      4  O   UNL     1      88.230 124.332 126.578  1.00  0.00    -0.294 OA
BRANCH   3   5
ATOM      5  C   UNL     1      87.791 124.014 124.317  1.00  0.00     0.018 A 
ATOM      6  C   UNL     1      88.952 123.683 123.642  1.00  0.00     0.015 A 
ATOM      7  C   UNL     1      86.600 123.521 123.848  1.00  0.00     0.015 A 
ATOM      8  C   UNL     1      88.900 122.878 122.529  1.00  0.00     0.040 A 
ATOM      9  C   UNL     1      86.540 122.718 122.741  1.00  0.00     0.040 A 
ATOM     10  C   UNL     1      87.696 122.398 122.082  1.00  0.00     0.123 A 
ATOM     11  F   UNL     1      87.596 121.594 120.976  1.00  0.00    -0.207 F 
ENDBRANCH   3   5
ENDBRANCH   2   3
ENDBRANCH   1   2
BRANCH   1  12
ATOM     12  C   UNL     1      86.685 128.176 126.814  1.00  0.00     0.262 C 
BRANCH  12  13
ATOM     13  N   UNL     1      85.419 128.897 126.781  1.00  0.00    -0.335 N 
ATOM     14  C   UNL     1      85.516 130.141 126.079  1.00  0.00     0.265 C 
ATOM     15  C   UNL     1      84.399 128.075 126.216  1.00  0.00     0.265 C 
ATOM     16  C   UNL     1      85.942 129.937 124.651  1.00  0.00     0.102 C 
ATOM     17  C   UNL     1      83.968 128.389 124.847  1.00  0.00     0.102 C 
ATOM     18  C   UNL     1      84.930 129.079 123.952  1.00  0.00     0.100 C 
ATOM     19  H   UNL     1      85.224 129.142 127.798  1.00  0.00     0.348 HD
BRANCH  18  20
ATOM     20  O   UNL     1      84.177 129.955 123.133  1.00  0.00    -0.385 OA
ATOM     21  H   UNL     1      83.883 130.702 123.713  1.00  0.00     0.211 HD
ENDBRANCH  18  20
BRANCH  18  22
ATOM     22  C   UNL     1      85.589 128.141 122.974  1.00  0.00    -0.016 A 
ATOM     23  C   UNL     1      85.025 126.931 122.627  1.00  0.00     0.008 A 
ATOM     24  C   UNL     1      86.791 128.430 122.367  1.00  0.00     0.008 A 
ATOM     25  C   UNL     1      85.594 126.047 121.740  1.00  0.00     0.021 A 
ATOM     26  C   UNL     1      87.381 127.558 121.473  1.00  0.00     0.021 A 
ATOM     27  C   UNL     1      86.782 126.368 121.161  1.00  0.00     0.041 A 
ATOM     28  Cl  UNL     1      87.521 125.259 120.029  1.00  0.00    -0.084 Cl
ENDBRANCH  18  22
ENDBRANCH  12  13
ENDBRANCH   1  12
TORSDOF 7
ENDMDL
MODEL 9
REMARK VINA RESULT:      -5.2     10.966     13.249
REMARK SMILES O=C(CCC[NH+]1CCC(O)(c2ccc(Cl)cc2)CC1)c1ccc(F)cc1
REMARK SMILES IDX 4 1 3 2 2 3 1 4 20 5 21 6 26 7 22 8 25 9 23 10 24 11 5 12
REMARK SMILES IDX 6 13 7 14 19 15 8 16 18 17 9 18 10 20 11 22 12 23 17 24
REMARK SMILES IDX 13 25 16 26 14 27 15 28
REMARK H PARENT 6 19 10 21
ROOT
ATOM      1  C   UNL     1      78.557 124.754 114.976  1.00  0.00     0.070 C 
ENDROOT
BRANCH   1   2
ATOM      2  C   UNL     1      78.661 124.576 113.477  1.00  0.00     0.087 C 
BRANCH   2   3
ATOM      3  C   UNL     1      78.285 125.761 112.702  1.00  0.00     0.163 C 
ATOM      4  O   UNL     1      77.086 126.130 112.606  1.00  0.00    -0.294 OA
BRANCH   3   5
ATOM      5  C   UNL     1      79.280 126.591 111.991  1.00  0.00     0.018 A 
ATOM      6  C   UNL     1      80.525 126.826 112.548  1.00  0.00     0.015 A 
ATOM      7  C   UNL     1      78.996 127.144 110.769  1.00  0.00     0.015 A 
ATOM      8  C   UNL     1      81.445 127.599 111.881  1.00  0.00     0.040 A 
ATOM      9  C   UNL     1      79.908 127.914 110.099  1.00  0.00     0.040 A 
ATOM     10  C   UNL     1      81.135 128.140 110.660  1.00  0.00     0.123 A 
ATOM     11  F   UNL     1      82.021 128.919 109.960  1.00  0.00    -0.207 F 
ENDBRANCH   3   5
ENDBRANCH   2   3
ENDBRANCH   1   2
BRANCH   1  12
ATOM     12  C   UNL     1      79.925 124.986 115.518  1.00  0.00     0.262 C 
BRANCH  12  13
ATOM     13  N   UNL     1      79.914 125.412 116.912  1.00  0.00    -0.335 N 
ATOM     14  C   UNL     1      81.069 126.183 117.258  1.00  0.00     0.265 C 
ATOM     15  C   UNL     1      78.718 126.137 117.194  1.00  0.00     0.265 C 
ATOM     16  C   UNL     1      81.175 127.428 116.421  1.00  0.00     0.102 C 
ATOM     17  C   UNL     1      78.837 127.595 117.337  1.00  0.00     0.102 C 
ATOM     18  C   UNL     1      79.958 128.276 116.643  1.00  0.00     0.100 C 
ATOM     19  H   UNL     1      79.979 124.508 117.468  1.00  0.00     0.348 HD
BRANCH  18  20
ATOM     20  O   UNL     1      80.375 129.341 117.478  1.00  0.00    -0.385 OA
ATOM     21  H   UNL     1      79.631 129.514 118.108  1.00  0.00     0.211 HD
ENDBRANCH  18  20
BRANCH  18  22
ATOM     22  C   UNL     1      79.525 128.957 115.371  1.00  0.00    -0.016 A 
ATOM     23  C   UNL     1      80.364 129.797 114.669  1.00  0.00     0.008 A 
ATOM     24  C   UNL     1      78.270 128.785 114.829  1.00  0.00     0.008 A 
ATOM     25  C   UNL     1      80.007 130.438 113.504  1.00  0.00     0.021 A 
ATOM     26  C   UNL     1      77.890 129.418 113.663  1.00  0.00     0.021 A 
ATOM     27  C   UNL     1      78.759 130.243 113.001  1.00  0.00     0.041 A 
ATOM     28  Cl  UNL     1      78.287 131.047 111.523  1.00  0.00    -0.084 Cl
ENDBRANCH  18  22
ENDBRANCH  12  13
ENDBRANCH   1  12
TORSDOF 7
ENDMDL
