MODEL 1
REMARK VINA RESULT:      -5.5      0.000      0.000
REMARK SMILES CC/C(=C(\c1ccccc1)c1ccc(OCC[NH+](C)C)cc1)c1ccccc1
REMARK SMILES IDX 15 1 14 2 11 3 12 4 22 5 13 6 21 7 4 8 3 9 2 10 1 11 23 12
REMARK SMILES IDX 24 13 28 14 25 15 27 16 26 17 5 18 6 19 10 20 7 21 9 22 8 23
REMARK SMILES IDX 16 24 17 25 18 26 19 27 20 28
REMARK H PARENT 18 29
ROOT
ATOM      1  O   UNL     1      81.020 127.601 116.971  1.00  0.00    -0.488 OA
ENDROOT
BRANCH   1   2
ATOM      2  C   UNL     1      80.871 127.758 115.605  1.00  0.00     0.119 A 
ATOM      3  C   UNL     1      80.596 127.970 112.770  1.00  0.00    -0.017 A 
ATOM      4  C   UNL     1      80.236 129.002 113.615  1.00  0.00     0.012 A 
ATOM      5  C   UNL     1      81.099 126.829 113.385  1.00  0.00     0.012 A 
ATOM      6  C   UNL     1      80.375 128.883 114.989  1.00  0.00     0.047 A 
ATOM      7  C   UNL     1      81.236 126.714 114.742  1.00  0.00     0.047 A 
BRANCH   3   8
ATOM      8  C   UNL     1      80.483 128.075 111.326  1.00  0.00    -0.007 C 
ATOM      9  C   UNL     1      79.526 127.498 110.648  1.00  0.00    -0.033 C 
BRANCH   9  10
ATOM     10  C   UNL     1      79.390 127.533 109.166  1.00  0.00     0.033 C 
ATOM     11  C   UNL     1      78.366 128.565 108.796  1.00  0.00     0.009 C 
ENDBRANCH   9  10
BRANCH   9  12
ATOM     12  C   UNL     1      78.427 126.795 111.334  1.00  0.00    -0.022 A 
ATOM     13  C   UNL     1      78.394 125.428 111.443  1.00  0.00     0.008 A 
ATOM     14  C   UNL     1      77.416 127.540 111.861  1.00  0.00     0.008 A 
ATOM     15  C   UNL     1      77.342 124.823 112.084  1.00  0.00     0.001 A 
ATOM     16  C   UNL     1      76.326 126.964 112.521  1.00  0.00     0.001 A 
ATOM     17  C   UNL     1      76.321 125.592 112.616  1.00  0.00     0.000 A 
ENDBRANCH   9  12
BRANCH   8  18
ATOM     18  C   UNL     1      81.504 128.823 110.619  1.00  0.00    -0.018 A 
ATOM     19  C   UNL     1      82.679 128.242 110.189  1.00  0.00     0.009 A 
ATOM     20  C   UNL     1      81.326 130.186 110.402  1.00  0.00     0.009 A 
ATOM     21  C   UNL     1      83.624 129.017 109.568  1.00  0.00     0.001 A 
ATOM     22  C   UNL     1      82.263 130.979 109.780  1.00  0.00     0.001 A 
ATOM     23  C   UNL     1      83.440 130.369 109.355  1.00  0.00     0.000 A 
ENDBRANCH   8  18
ENDBRANCH   3   8
ENDBRANCH   1   2
BRANCH   1  24
ATOM     24  C   UNL     1      80.276 126.822 117.839  1.00  0.00     0.290 C 
BRANCH  24  25
ATOM     25  C   UNL     1      78.805 127.139 117.906  1.00  0.00     0.303 C 
BRANCH  25  26
ATOM     26  N   UNL     1      77.984 126.085 117.392  1.00  0.00    -0.337 N 
ATOM     27  C   UNL     1      78.683 124.826 117.252  1.00  0.00     0.332 C 
ATOM     28  C   UNL     1      77.408 126.398 116.101  1.00  0.00     0.332 C 
ATOM     29  H   UNL     1      77.156 125.892 118.032  1.00  0.00     0.347 HD
ENDBRANCH  25  26
ENDBRANCH  24  25
ENDBRANCH   1  24
TORSDOF 8
ENDMDL
MODEL 2
REMARK VINA RESULT:      -5.4      0.524      1.471
REMARK SMILES CC/C(=C(\c1ccccc1)c1ccc(OCC[NH+](C)C)cc1)c1ccccc1
REMARK SMILES IDX 15 1 14 2 11 3 12 4 22 5 13 6 21 7 4 8 3 9 2 10 1 11 23 12
REMARK SMILES IDX 24 13 28 14 25 15 27 16 26 17 5 18 6 19 10 20 7 21 9 22 8 23
REMARK SMILES IDX 16 24 17 25 18 26 19 27 20 28
REMARK H PARENT 18 29
ROOT
ATOM      1  O   UNL     1      80.828 128.252 117.046  1.00  0.00    -0.488 OA
ENDROOT
BRANCH   1   2
ATOM      2  C   UNL     1      80.760 128.169 115.667  1.00  0.00     0.119 A 
ATOM      3  C   UNL     1      80.582 128.109 112.817  1.00  0.00    -0.017 A 
ATOM      4  C   UNL     1      81.102 127.050 113.536  1.00  0.00     0.012 A 
ATOM      5  C   UNL     1      80.152 129.199 113.566  1.00  0.00     0.012 A 
ATOM      6  C   UNL     1      81.181 127.095 114.919  1.00  0.00     0.047 A 
ATOM      7  C   UNL     1      80.233 129.241 114.933  1.00  0.00     0.047 A 
BRANCH   3   8
ATOM      8  C   UNL     1      80.464 128.080 111.370  1.00  0.00    -0.007 C 
ATOM      9  C   UNL     1      79.540 127.393 110.750  1.00  0.00    -0.033 C 
BRANCH   9  10
ATOM     10  C   UNL     1      79.401 127.290 109.271  1.00  0.00     0.033 C 
ATOM     11  C   UNL     1      78.270 128.170 108.827  1.00  0.00     0.009 C 
ENDBRANCH   9  10
BRANCH   9  12
ATOM     12  C   UNL     1      78.482 126.693 111.501  1.00  0.00    -0.022 A 
ATOM     13  C   UNL     1      78.517 125.339 111.715  1.00  0.00     0.008 A 
ATOM     14  C   UNL     1      77.440 127.426 111.982  1.00  0.00     0.008 A 
ATOM     15  C   UNL     1      77.502 124.733 112.412  1.00  0.00     0.001 A 
ATOM     16  C   UNL     1      76.386 126.851 112.697  1.00  0.00     0.001 A 
ATOM     17  C   UNL     1      76.449 125.491 112.896  1.00  0.00     0.000 A 
ENDBRANCH   9  12
BRANCH   8  18
ATOM     18  C   UNL     1      81.440 128.820 110.595  1.00  0.00    -0.018 A 
ATOM     19  C   UNL     1      81.208 130.106 110.151  1.00  0.00     0.009 A 
ATOM     20  C   UNL     1      82.637 128.207 110.238  1.00  0.00     0.009 A 
ATOM     21  C   UNL     1      82.154 130.732 109.381  1.00  0.00     0.001 A 
ATOM     22  C   UNL     1      83.598 128.820 109.468  1.00  0.00     0.001 A 
ATOM     23  C   UNL     1      83.341 130.117 109.033  1.00  0.00     0.000 A 
ENDBRANCH   8  18
ENDBRANCH   3   8
ENDBRANCH   1   2
BRANCH   1  24
ATOM     24  C   UNL     1      80.393 127.338 117.990  1.00  0.00     0.290 C 
BRANCH  24  25
ATOM     25  C   UNL     1      78.987 126.829 117.809  1.00  0.00     0.303 C 
BRANCH  25  26
ATOM     26  N   UNL     1      78.931 125.418 117.577  1.00  0.00    -0.337 N 
ATOM     27  C   UNL     1      78.123 125.055 116.432  1.00  0.00     0.332 C 
ATOM     28  C   UNL     1      78.415 124.680 118.713  1.00  0.00     0.332 C 
ATOM     29  H   UNL     1      79.898 125.016 117.394  1.00  0.00     0.347 HD
ENDBRANCH  25  26
ENDBRANCH  24  25
ENDBRANCH   1  24
TORSDOF 8
ENDMDL
MODEL 3
REMARK VINA RESULT:      -5.3     10.907     13.431
REMARK SMILES CC/C(=C(\c1ccccc1)c1ccc(OCC[NH+](C)C)cc1)c1ccccc1
REMARK SMILES IDX 15 1 14 2 11 3 12 4 22 5 13 6 21 7 4 8 3 9 2 10 1 11 23 12
REMARK SMILES IDX 24 13 28 14 25 15 27 16 26 17 5 18 6 19 10 20 7 21 9 22 8 23
REMARK SMILES IDX 16 24 17 25 18 26 19 27 20 28
REMARK H PARENT 18 29
ROOT
ATOM      1  O   UNL     1      80.933 127.064 123.974  1.00  0.00    -0.488 OA
ENDROOT
BRANCH   1   2
ATOM      2  C   UNL     1      82.253 126.687 123.807  1.00  0.00     0.119 A 
ATOM      3  C   UNL     1      84.963 125.823 123.542  1.00  0.00    -0.017 A 
ATOM      4  C   UNL     1      84.441 126.831 122.756  1.00  0.00     0.012 A 
ATOM      5  C   UNL     1      84.090 125.260 124.467  1.00  0.00     0.012 A 
ATOM      6  C   UNL     1      83.123 127.239 122.897  1.00  0.00     0.047 A 
ATOM      7  C   UNL     1      82.789 125.664 124.604  1.00  0.00     0.047 A 
BRANCH   3   8
ATOM      8  C   UNL     1      86.345 125.391 123.434  1.00  0.00    -0.007 C 
ATOM      9  C   UNL     1      87.321 125.976 124.080  1.00  0.00    -0.033 C 
BRANCH   9  10
ATOM     10  C   UNL     1      88.758 125.606 123.969  1.00  0.00     0.033 C 
ATOM     11  C   UNL     1      89.412 126.495 122.953  1.00  0.00     0.009 C 
ENDBRANCH   9  10
BRANCH   9  12
ATOM     12  C   UNL     1      87.050 127.046 125.057  1.00  0.00    -0.022 A 
ATOM     13  C   UNL     1      86.889 128.354 124.676  1.00  0.00     0.008 A 
ATOM     14  C   UNL     1      86.971 126.711 126.374  1.00  0.00     0.008 A 
ATOM     15  C   UNL     1      86.649 129.314 125.627  1.00  0.00     0.001 A 
ATOM     16  C   UNL     1      86.729 127.656 127.375  1.00  0.00     0.001 A 
ATOM     17  C   UNL     1      86.571 128.959 126.963  1.00  0.00     0.000 A 
ENDBRANCH   9  12
BRANCH   8  18
ATOM     18  C   UNL     1      86.644 124.290 122.541  1.00  0.00    -0.018 A 
ATOM     19  C   UNL     1      86.768 122.990 122.988  1.00  0.00     0.009 A 
ATOM     20  C   UNL     1      86.862 124.544 121.190  1.00  0.00     0.009 A 
ATOM     21  C   UNL     1      87.099 122.002 122.097  1.00  0.00     0.001 A 
ATOM     22  C   UNL     1      87.193 123.565 120.282  1.00  0.00     0.001 A 
ATOM     23  C   UNL     1      87.313 122.263 120.758  1.00  0.00     0.000 A 
ENDBRANCH   8  18
ENDBRANCH   3   8
ENDBRANCH   1   2
BRANCH   1  24
ATOM     24  C   UNL     1      80.336 128.278 123.681  1.00  0.00     0.290 C 
BRANCH  24  25
ATOM     25  C   UNL     1      80.573 129.381 124.678  1.00  0.00     0.303 C 
BRANCH  25  26
ATOM     26  N   UNL     1      81.312 130.479 124.132  1.00  0.00    -0.337 N 
ATOM     27  C   UNL     1      81.324 130.501 122.685  1.00  0.00     0.332 C 
ATOM     28  C   UNL     1      82.693 130.501 124.569  1.00  0.00     0.332 C 
ATOM     29  H   UNL     1      80.904 131.412 124.437  1.00  0.00     0.347 HD
ENDBRANCH  25  26
ENDBRANCH  24  25
ENDBRANCH   1  24
TORSDOF 8
ENDMDL
MODEL 4
REMARK VINA RESULT:      -5.3      0.582      1.479
REMARK SMILES CC/C(=C(\c1ccccc1)c1ccc(OCC[NH+](C)C)cc1)c1ccccc1
REMARK SMILES IDX 15 1 14 2 11 3 12 4 22 5 13 6 21 7 4 8 3 9 2 10 1 11 23 12
REMARK SMILES IDX 24 13 28 14 25 15 27 16 26 17 5 18 6 19 10 20 7 21 9 22 8 23
REMARK SMILES IDX 16 24 17 25 18 26 19 27 20 28
REMARK H PARENT 18 29
ROOT
ATOM      1  O   UNL     1      80.926 127.945 116.961  1.00  0.00    -0.488 OA
ENDROOT
BRANCH   1   2
ATOM      2  C   UNL     1      80.849 127.939 115.580  1.00  0.00     0.119 A 
ATOM      3  C   UNL     1      80.654 128.037 112.732  1.00  0.00    -0.017 A 
ATOM      4  C   UNL     1      81.153 126.930 113.389  1.00  0.00     0.012 A 
ATOM      5  C   UNL     1      80.254 129.095 113.542  1.00  0.00     0.012 A 
ATOM      6  C   UNL     1      81.241 126.897 114.772  1.00  0.00     0.047 A 
ATOM      7  C   UNL     1      80.343 129.061 114.908  1.00  0.00     0.047 A 
BRANCH   3   8
ATOM      8  C   UNL     1      80.527 128.090 111.286  1.00  0.00    -0.007 C 
ATOM      9  C   UNL     1      79.556 127.497 110.640  1.00  0.00    -0.033 C 
BRANCH   9  10
ATOM     10  C   UNL     1      79.405 127.479 109.160  1.00  0.00     0.033 C 
ATOM     11  C   UNL     1      78.393 128.513 108.762  1.00  0.00     0.009 C 
ENDBRANCH   9  10
BRANCH   9  12
ATOM     12  C   UNL     1      78.459 126.831 111.364  1.00  0.00    -0.022 A 
ATOM     13  C   UNL     1      77.438 127.537 111.947  1.00  0.00     0.008 A 
ATOM     14  C   UNL     1      78.479 125.472 111.456  1.00  0.00     0.008 A 
ATOM     15  C   UNL     1      76.445 126.869 112.618  1.00  0.00     0.001 A 
ATOM     16  C   UNL     1      77.489 124.752 112.131  1.00  0.00     0.001 A 
ATOM     17  C   UNL     1      76.478 125.488 112.704  1.00  0.00     0.000 A 
ENDBRANCH   9  12
BRANCH   8  18
ATOM     18  C   UNL     1      81.546 128.801 110.542  1.00  0.00    -0.018 A 
ATOM     19  C   UNL     1      82.716 128.196 110.130  1.00  0.00     0.009 A 
ATOM     20  C   UNL     1      81.374 130.155 110.267  1.00  0.00     0.009 A 
ATOM     21  C   UNL     1      83.661 128.939 109.471  1.00  0.00     0.001 A 
ATOM     22  C   UNL     1      82.310 130.915 109.606  1.00  0.00     0.001 A 
ATOM     23  C   UNL     1      83.481 130.282 109.200  1.00  0.00     0.000 A 
ENDBRANCH   8  18
ENDBRANCH   3   8
ENDBRANCH   1   2
BRANCH   1  24
ATOM     24  C   UNL     1      80.125 127.284 117.875  1.00  0.00     0.290 C 
BRANCH  24  25
ATOM     25  C   UNL     1      78.756 127.874 118.093  1.00  0.00     0.303 C 
BRANCH  25  26
ATOM     26  N   UNL     1      77.699 126.959 117.784  1.00  0.00    -0.337 N 
ATOM     27  C   UNL     1      77.379 126.904 116.374  1.00  0.00     0.332 C 
ATOM     28  C   UNL     1      76.470 127.261 118.489  1.00  0.00     0.332 C 
ATOM     29  H   UNL     1      77.952 125.966 118.068  1.00  0.00     0.347 HD
ENDBRANCH  25  26
ENDBRANCH  24  25
ENDBRANCH   1  24
TORSDOF 8
ENDMDL
MODEL 5
REMARK VINA RESULT:      -5.2      0.790      1.338
REMARK SMILES CC/C(=C(\c1ccccc1)c1ccc(OCC[NH+](C)C)cc1)c1ccccc1
REMARK SMILES IDX 15 1 14 2 11 3 12 4 22 5 13 6 21 7 4 8 3 9 2 10 1 11 23 12
REMARK SMILES IDX 24 13 28 14 25 15 27 16 26 17 5 18 6 19 10 20 7 21 9 22 8 23
REMARK SMILES IDX 16 24 17 25 18 26 19 27 20 28
REMARK H PARENT 18 29
ROOT
ATOM      1  O   UNL     1      80.862 127.794 116.821  1.00  0.00    -0.488 OA
ENDROOT
BRANCH   1   2
ATOM      2  C   UNL     1      80.767 127.923 115.447  1.00  0.00     0.119 A 
ATOM      3  C   UNL     1      80.609 128.079 112.599  1.00  0.00    -0.017 A 
ATOM      4  C   UNL     1      80.168 129.107 113.410  1.00  0.00     0.012 A 
ATOM      5  C   UNL     1      81.133 126.970 113.256  1.00  0.00     0.012 A 
ATOM      6  C   UNL     1      80.251 129.016 114.790  1.00  0.00     0.047 A 
ATOM      7  C   UNL     1      81.214 126.882 114.620  1.00  0.00     0.047 A 
BRANCH   3   8
ATOM      8  C   UNL     1      80.556 128.156 111.150  1.00  0.00    -0.007 C 
ATOM      9  C   UNL     1      79.609 127.592 110.446  1.00  0.00    -0.033 C 
BRANCH   9  10
ATOM     10  C   UNL     1      79.532 127.599 108.960  1.00  0.00     0.033 C 
ATOM     11  C   UNL     1      78.619 128.708 108.526  1.00  0.00     0.009 C 
ENDBRANCH   9  10
BRANCH   9  12
ATOM     12  C   UNL     1      78.463 126.936 111.103  1.00  0.00    -0.022 A 
ATOM     13  C   UNL     1      77.412 127.652 111.615  1.00  0.00     0.008 A 
ATOM     14  C   UNL     1      78.471 125.578 111.205  1.00  0.00     0.008 A 
ATOM     15  C   UNL     1      76.374 126.994 112.225  1.00  0.00     0.001 A 
ATOM     16  C   UNL     1      77.435 124.868 111.819  1.00  0.00     0.001 A 
ATOM     17  C   UNL     1      76.394 125.612 112.323  1.00  0.00     0.000 A 
ENDBRANCH   9  12
BRANCH   8  18
ATOM     18  C   UNL     1      81.625 128.859 110.470  1.00  0.00    -0.018 A 
ATOM     19  C   UNL     1      82.795 128.232 110.089  1.00  0.00     0.009 A 
ATOM     20  C   UNL     1      81.502 130.224 110.228  1.00  0.00     0.009 A 
ATOM     21  C   UNL     1      83.786 128.966 109.491  1.00  0.00     0.001 A 
ATOM     22  C   UNL     1      82.486 130.975 109.628  1.00  0.00     0.001 A 
ATOM     23  C   UNL     1      83.655 130.320 109.253  1.00  0.00     0.000 A 
ENDBRANCH   8  18
ENDBRANCH   3   8
ENDBRANCH   1   2
BRANCH   1  24
ATOM     24  C   UNL     1      80.305 128.591 117.806  1.00  0.00     0.290 C 
BRANCH  24  25
ATOM     25  C   UNL     1      79.460 127.874 118.826  1.00  0.00     0.303 C 
BRANCH  25  26
ATOM     26  N   UNL     1      78.481 127.013 118.235  1.00  0.00    -0.337 N 
ATOM     27  C   UNL     1      77.120 127.371 118.571  1.00  0.00     0.332 C 
ATOM     28  C   UNL     1      78.659 125.623 118.602  1.00  0.00     0.332 C 
ATOM     29  H   UNL     1      78.537 127.034 117.173  1.00  0.00     0.347 HD
ENDBRANCH  25  26
ENDBRANCH  24  25
ENDBRANCH   1  24
TORSDOF 8
ENDMDL
MODEL 6
REMARK VINA RESULT:      -5.2      1.148      1.746
REMARK SMILES CC/C(=C(\c1ccccc1)c1ccc(OCC[NH+](C)C)cc1)c1ccccc1
REMARK SMILES IDX 15 1 14 2 11 3 12 4 22 5 13 6 21 7 4 8 3 9 2 10 1 11 23 12
REMARK SMILES IDX 24 13 28 14 25 15 27 16 26 17 5 18 6 19 10 20 7 21 9 22 8 23
REMARK SMILES IDX 16 24 17 25 18 26 19 27 20 28
REMARK H PARENT 18 29
ROOT
ATOM      1  O   UNL     1      81.009 127.751 117.028  1.00  0.00    -0.488 OA
ENDROOT
BRANCH   1   2
ATOM      2  C   UNL     1      80.913 127.780 115.648  1.00  0.00     0.119 A 
ATOM      3  C   UNL     1      80.675 127.951 112.807  1.00  0.00    -0.017 A 
ATOM      4  C   UNL     1      81.229 126.847 113.426  1.00  0.00     0.012 A 
ATOM      5  C   UNL     1      80.242 128.967 113.652  1.00  0.00     0.012 A 
ATOM      6  C   UNL     1      81.338 126.780 114.806  1.00  0.00     0.047 A 
ATOM      7  C   UNL     1      80.350 128.899 115.016  1.00  0.00     0.047 A 
BRANCH   3   8
ATOM      8  C   UNL     1      80.526 128.039 111.365  1.00  0.00    -0.007 C 
ATOM      9  C   UNL     1      79.551 127.454 110.719  1.00  0.00    -0.033 C 
BRANCH   9  10
ATOM     10  C   UNL     1      79.378 127.472 109.240  1.00  0.00     0.033 C 
ATOM     11  C   UNL     1      78.327 128.484 108.887  1.00  0.00     0.009 C 
ENDBRANCH   9  10
BRANCH   9  12
ATOM     12  C   UNL     1      78.470 126.760 111.441  1.00  0.00    -0.022 A 
ATOM     13  C   UNL     1      78.440 125.395 111.567  1.00  0.00     0.008 A 
ATOM     14  C   UNL     1      77.473 127.511 111.985  1.00  0.00     0.008 A 
ATOM     15  C   UNL     1      77.405 124.797 112.241  1.00  0.00     0.001 A 
ATOM     16  C   UNL     1      76.400 126.944 112.679  1.00  0.00     0.001 A 
ATOM     17  C   UNL     1      76.397 125.573 112.790  1.00  0.00     0.000 A 
ENDBRANCH   9  12
BRANCH   8  18
ATOM     18  C   UNL     1      81.528 128.778 110.624  1.00  0.00    -0.018 A 
ATOM     19  C   UNL     1      82.703 128.197 110.191  1.00  0.00     0.009 A 
ATOM     20  C   UNL     1      81.334 130.134 110.375  1.00  0.00     0.009 A 
ATOM     21  C   UNL     1      83.631 128.965 109.536  1.00  0.00     0.001 A 
ATOM     22  C   UNL     1      82.253 130.919 109.719  1.00  0.00     0.001 A 
ATOM     23  C   UNL     1      83.429 130.309 109.292  1.00  0.00     0.000 A 
ENDBRANCH   8  18
ENDBRANCH   3   8
ENDBRANCH   1   2
BRANCH   1  24
ATOM     24  C   UNL     1      79.992 127.782 117.966  1.00  0.00     0.290 C 
BRANCH  24  25
ATOM     25  C   UNL     1      80.430 127.915 119.401  1.00  0.00     0.303 C 
BRANCH  25  26
ATOM     26  N   UNL     1      79.653 127.116 120.299  1.00  0.00    -0.337 N 
ATOM     27  C   UNL     1      78.424 126.625 119.715  1.00  0.00     0.332 C 
ATOM     28  C   UNL     1      79.296 127.820 121.514  1.00  0.00     0.332 C 
ATOM     29  H   UNL     1      80.192 126.256 120.618  1.00  0.00     0.347 HD
ENDBRANCH  25  26
ENDBRANCH  24  25
ENDBRANCH   1  24
TORSDOF 8
ENDMDL
MODEL 7
REMARK VINA RESULT:      -5.2      0.680      1.268
REMARK SMILES CC/C(=C(\c1ccccc1)c1ccc(OCC[NH+](C)C)cc1)c1ccccc1
REMARK SMILES IDX 15 1 14 2 11 3 12 4 22 5 13 6 21 7 4 8 3 9 2 10 1 11 23 12
REMARK SMILES IDX 24 13 28 14 25 15 27 16 26 17 5 18 6 19 10 20 7 21 9 22 8 23
REMARK SMILES IDX 16 24 17 25 18 26 19 27 20 28
REMARK H PARENT 18 29
ROOT
ATOM      1  O   UNL     1      80.884 127.848 116.922  1.00  0.00    -0.488 OA
ENDROOT
BRANCH   1   2
ATOM      2  C   UNL     1      80.821 127.861 115.541  1.00  0.00     0.119 A 
ATOM      3  C   UNL     1      80.650 127.998 112.693  1.00  0.00    -0.017 A 
ATOM      4  C   UNL     1      81.177 126.897 113.338  1.00  0.00     0.012 A 
ATOM      5  C   UNL     1      80.209 129.030 113.515  1.00  0.00     0.012 A 
ATOM      6  C   UNL     1      81.253 126.845 114.721  1.00  0.00     0.047 A 
ATOM      7  C   UNL     1      80.285 128.977 114.881  1.00  0.00     0.047 A 
BRANCH   3   8
ATOM      8  C   UNL     1      80.536 128.070 111.247  1.00  0.00    -0.007 C 
ATOM      9  C   UNL     1      79.569 127.489 110.585  1.00  0.00    -0.033 C 
BRANCH   9  10
ATOM     10  C   UNL     1      79.430 127.491 109.103  1.00  0.00     0.033 C 
ATOM     11  C   UNL     1      78.423 128.533 108.711  1.00  0.00     0.009 C 
ENDBRANCH   9  10
BRANCH   9  12
ATOM     12  C   UNL     1      78.462 126.818 111.291  1.00  0.00    -0.022 A 
ATOM     13  C   UNL     1      78.424 125.458 111.456  1.00  0.00     0.008 A 
ATOM     14  C   UNL     1      77.449 127.587 111.779  1.00  0.00     0.008 A 
ATOM     15  C   UNL     1      77.366 124.881 112.112  1.00  0.00     0.001 A 
ATOM     16  C   UNL     1      76.353 127.042 112.453  1.00  0.00     0.001 A 
ATOM     17  C   UNL     1      76.342 125.674 112.604  1.00  0.00     0.000 A 
ENDBRANCH   9  12
BRANCH   8  18
ATOM     18  C   UNL     1      81.564 128.787 110.520  1.00  0.00    -0.018 A 
ATOM     19  C   UNL     1      82.732 128.180 110.104  1.00  0.00     0.009 A 
ATOM     20  C   UNL     1      81.403 130.146 110.268  1.00  0.00     0.009 A 
ATOM     21  C   UNL     1      83.686 128.928 109.463  1.00  0.00     0.001 A 
ATOM     22  C   UNL     1      82.348 130.911 109.625  1.00  0.00     0.001 A 
ATOM     23  C   UNL     1      83.517 130.276 109.215  1.00  0.00     0.000 A 
ENDBRANCH   8  18
ENDBRANCH   3   8
ENDBRANCH   1   2
BRANCH   1  24
ATOM     24  C   UNL     1      79.875 128.095 117.837  1.00  0.00     0.290 C 
BRANCH  24  25
ATOM     25  C   UNL     1      79.404 126.903 118.629  1.00  0.00     0.303 C 
BRANCH  25  26
ATOM     26  N   UNL     1      78.100 126.458 118.244  1.00  0.00    -0.337 N 
ATOM     27  C   UNL     1      77.406 127.387 117.379  1.00  0.00     0.332 C 
ATOM     28  C   UNL     1      77.234 126.204 119.378  1.00  0.00     0.332 C 
ATOM     29  H   UNL     1      78.146 125.538 117.712  1.00  0.00     0.347 HD
ENDBRANCH  25  26
ENDBRANCH  24  25
ENDBRANCH   1  24
TORSDOF 8
ENDMDL
MODEL 8
REMARK VINA RESULT:      -5.1      8.696     12.986
REMARK SMILES CC/C(=C(\c1ccccc1)c1ccc(OCC[NH+](C)C)cc1)c1ccccc1
REMARK SMILES IDX 15 1 14 2 11 3 12 4 22 5 13 6 21 7 4 8 3 9 2 10 1 11 23 12
REMARK SMILES IDX 24 13 28 14 25 15 27 16 26 17 5 18 6 19 10 20 7 21 9 22 8 23
REMARK SMILES IDX 16 24 17 25 18 26 19 27 20 28
REMARK H PARENT 18 29
ROOT
ATOM      1  O   UNL     1      80.490 126.975 124.150  1.00  0.00    -0.488 OA
ENDROOT
BRANCH   1   2
ATOM      2  C   UNL     1      81.830 126.717 123.929  1.00  0.00     0.119 A 
ATOM      3  C   UNL     1      84.591 126.092 123.545  1.00  0.00    -0.017 A 
ATOM      4  C   UNL     1      83.973 127.114 122.852  1.00  0.00     0.012 A 
ATOM      5  C   UNL     1      83.787 125.391 124.438  1.00  0.00     0.012 A 
ATOM      6  C   UNL     1      82.632 127.405 123.050  1.00  0.00     0.047 A 
ATOM      7  C   UNL     1      82.462 125.680 124.632  1.00  0.00     0.047 A 
BRANCH   3   8
ATOM      8  C   UNL     1      85.999 125.780 123.377  1.00  0.00    -0.007 C 
ATOM      9  C   UNL     1      86.952 126.527 123.871  1.00  0.00    -0.033 C 
BRANCH   9  10
ATOM     10  C   UNL     1      88.409 126.281 123.689  1.00  0.00     0.033 C 
ATOM     11  C   UNL     1      88.962 125.684 124.950  1.00  0.00     0.009 C 
ENDBRANCH   9  10
BRANCH   9  12
ATOM     12  C   UNL     1      86.642 127.679 124.737  1.00  0.00    -0.022 A 
ATOM     13  C   UNL     1      86.187 127.521 126.021  1.00  0.00     0.008 A 
ATOM     14  C   UNL     1      86.808 128.931 124.228  1.00  0.00     0.008 A 
ATOM     15  C   UNL     1      85.903 128.627 126.783  1.00  0.00     0.001 A 
ATOM     16  C   UNL     1      86.531 130.084 124.968  1.00  0.00     0.001 A 
ATOM     17  C   UNL     1      86.076 129.895 126.253  1.00  0.00     0.000 A 
ENDBRANCH   9  12
BRANCH   8  18
ATOM     18  C   UNL     1      86.346 124.611 122.595  1.00  0.00    -0.018 A 
ATOM     19  C   UNL     1      86.568 123.377 123.172  1.00  0.00     0.009 A 
ATOM     20  C   UNL     1      86.511 124.732 121.218  1.00  0.00     0.009 A 
ATOM     21  C   UNL     1      86.940 122.321 122.380  1.00  0.00     0.001 A 
ATOM     22  C   UNL     1      86.883 123.684 120.408  1.00  0.00     0.001 A 
ATOM     23  C   UNL     1      87.100 122.450 121.014  1.00  0.00     0.000 A 
ENDBRANCH   8  18
ENDBRANCH   3   8
ENDBRANCH   1   2
BRANCH   1  24
ATOM     24  C   UNL     1      79.803 128.168 124.009  1.00  0.00     0.290 C 
BRANCH  24  25
ATOM     25  C   UNL     1      79.108 128.370 122.688  1.00  0.00     0.303 C 
BRANCH  25  26
ATOM     26  N   UNL     1      78.912 127.148 121.968  1.00  0.00    -0.337 N 
ATOM     27  C   UNL     1      78.960 127.313 120.531  1.00  0.00     0.332 C 
ATOM     28  C   UNL     1      77.651 126.507 122.281  1.00  0.00     0.332 C 
ATOM     29  H   UNL     1      79.661 126.433 122.208  1.00  0.00     0.347 HD
ENDBRANCH  25  26
ENDBRANCH  24  25
ENDBRANCH   1  24
TORSDOF 8
ENDMDL
MODEL 9
REMARK VINA RESULT:      -5.0      9.571     13.222
REMARK SMILES CC/C(=C(\c1ccccc1)c1ccc(OCC[NH+](C)C)cc1)c1ccccc1
REMARK SMILES IDX 15 1 14 2 11 3 12 4 22 5 13 6 21 7 4 8 3 9 2 10 1 11 23 12
REMARK SMILES IDX 24 13 28 14 25 15 27 16 26 17 5 18 6 19 10 20 7 21 9 22 8 23
REMARK SMILES IDX 16 24 17 25 18 26 19 27 20 28
REMARK H PARENT 18 29
ROOT
ATOM      1  O   UNL     1      80.813 126.951 124.063  1.00  0.00    -0.488 OA
ENDROOT
BRANCH   1   2
ATOM      2  C   UNL     1      82.151 126.618 123.962  1.00  0.00     0.119 A 
ATOM      3  C   UNL     1      84.929 126.015 123.677  1.00  0.00    -0.017 A 
ATOM      4  C   UNL     1      84.132 125.358 124.594  1.00  0.00     0.012 A 
ATOM      5  C   UNL     1      84.294 126.983 122.904  1.00  0.00     0.012 A 
ATOM      6  C   UNL     1      82.785 125.662 124.720  1.00  0.00     0.047 A 
ATOM      7  C   UNL     1      82.964 127.282 123.032  1.00  0.00     0.047 A 
BRANCH   3   8
ATOM      8  C   UNL     1      86.336 125.701 123.505  1.00  0.00    -0.007 C 
ATOM      9  C   UNL     1      87.282 126.311 124.170  1.00  0.00    -0.033 C 
BRANCH   9  10
ATOM     10  C   UNL     1      88.740 126.063 123.999  1.00  0.00     0.033 C 
ATOM     11  C   UNL     1      89.415 127.355 123.642  1.00  0.00     0.009 C 
ENDBRANCH   9  10
BRANCH   9  12
ATOM     12  C   UNL     1      86.960 127.285 125.228  1.00  0.00    -0.022 A 
ATOM     13  C   UNL     1      86.620 128.582 124.944  1.00  0.00     0.008 A 
ATOM     14  C   UNL     1      87.016 126.869 126.524  1.00  0.00     0.008 A 
ATOM     15  C   UNL     1      86.338 129.452 125.967  1.00  0.00     0.001 A 
ATOM     16  C   UNL     1      86.738 127.721 127.597  1.00  0.00     0.001 A 
ATOM     17  C   UNL     1      86.399 129.017 127.281  1.00  0.00     0.000 A 
ENDBRANCH   9  12
BRANCH   8  18
ATOM     18  C   UNL     1      86.691 124.693 122.526  1.00  0.00    -0.018 A 
ATOM     19  C   UNL     1      87.098 125.017 121.248  1.00  0.00     0.009 A 
ATOM     20  C   UNL     1      86.577 123.346 122.858  1.00  0.00     0.009 A 
ATOM     21  C   UNL     1      87.373 124.014 120.355  1.00  0.00     0.001 A 
ATOM     22  C   UNL     1      86.850 122.327 121.976  1.00  0.00     0.001 A 
ATOM     23  C   UNL     1      87.259 122.679 120.693  1.00  0.00     0.000 A 
ENDBRANCH   8  18
ENDBRANCH   3   8
ENDBRANCH   1   2
BRANCH   1  24
ATOM     24  C   UNL     1      80.016 127.617 123.148  1.00  0.00     0.290 C 
BRANCH  24  25
ATOM     25  C   UNL     1      78.544 127.300 123.209  1.00  0.00     0.303 C 
BRANCH  25  26
ATOM     26  N   UNL     1      78.122 126.410 122.170  1.00  0.00    -0.337 N 
ATOM     27  C   UNL     1      77.141 126.990 121.279  1.00  0.00     0.332 C 
ATOM     28  C   UNL     1      77.558 125.177 122.680  1.00  0.00     0.332 C 
ATOM     29  H   UNL     1      78.939 126.115 121.557  1.00  0.00     0.347 HD
ENDBRANCH  25  26
ENDBRANCH  24  25
ENDBRANCH   1  24
TORSDOF 8
ENDMDL
