MODEL 1
REMARK VINA RESULT:      -6.7      0.000      0.000
REMARK SMILES Clc1ccccc1C(c1ccccc1)(c1ccccc1)n1ccnc1
REMARK SMILES IDX 1 1 2 2 3 3 4 4 5 5 6 6 7 7 8 8 9 9 10 10 14 11 11 12 13 13
REMARK SMILES IDX 12 14 15 15 16 16 20 17 17 18 19 19 18 20 21 21 22 22 25 23
REMARK SMILES IDX 23 24 24 25
REMARK H PARENT
ROOT
ATOM      1  Cl  UNL     1      88.994 125.436 122.997  1.00  0.00    -0.084 Cl
ATOM      2  C   UNL     1      87.763 124.212 122.780  1.00  0.00     0.047 A 
ATOM      3  C   UNL     1      88.078 122.939 122.362  1.00  0.00     0.021 A 
ATOM      4  C   UNL     1      87.115 121.963 122.221  1.00  0.00     0.002 A 
ATOM      5  C   UNL     1      85.815 122.294 122.511  1.00  0.00     0.001 A 
ATOM      6  C   UNL     1      85.495 123.590 122.937  1.00  0.00     0.008 A 
ATOM      7  C   UNL     1      86.451 124.549 123.072  1.00  0.00     0.006 A 
ENDROOT
BRANCH   7   8
ATOM      8  C   UNL     1      86.084 125.926 123.502  1.00  0.00     0.123 C 
BRANCH   8   9
ATOM      9  C   UNL     1      86.667 126.153 124.855  1.00  0.00    -0.013 A 
ATOM     10  C   UNL     1      86.820 127.356 125.462  1.00  0.00     0.007 A 
ATOM     11  C   UNL     1      87.067 124.983 125.528  1.00  0.00     0.007 A 
ATOM     12  C   UNL     1      87.365 127.411 126.732  1.00  0.00     0.000 A 
ATOM     13  C   UNL     1      87.605 125.047 126.787  1.00  0.00     0.000 A 
ATOM     14  C   UNL     1      87.765 126.261 127.411  1.00  0.00     0.000 A 
ENDBRANCH   8   9
BRANCH   8  15
ATOM     15  C   UNL     1      84.618 126.052 123.719  1.00  0.00    -0.013 A 
ATOM     16  C   UNL     1      83.904 125.217 124.538  1.00  0.00     0.007 A 
ATOM     17  C   UNL     1      83.948 127.069 123.089  1.00  0.00     0.007 A 
ATOM     18  C   UNL     1      82.538 125.372 124.741  1.00  0.00     0.000 A 
ATOM     19  C   UNL     1      82.567 127.245 123.279  1.00  0.00     0.000 A 
ATOM     20  C   UNL     1      81.881 126.396 124.101  1.00  0.00     0.000 A 
ENDBRANCH   8  15
BRANCH   8  21
ATOM     21  N   UNL     1      86.509 126.879 122.519  1.00  0.00    -0.319 N 
ATOM     22  C   UNL     1      86.999 128.124 122.774  1.00  0.00     0.109 A 
ATOM     23  C   UNL     1      86.525 126.720 121.196  1.00  0.00     0.200 A 
ATOM     24  C   UNL     1      87.317 128.734 121.581  1.00  0.00     0.131 A 
ATOM     25  N   UNL     1      87.018 127.854 120.632  1.00  0.00    -0.245 NA
ENDBRANCH   8  21
ENDBRANCH   7   8
TORSDOF 4
ENDMDL
MODEL 2
REMARK VINA RESULT:      -6.4      1.922      5.041
REMARK SMILES Clc1ccccc1C(c1ccccc1)(c1ccccc1)n1ccnc1
REMARK SMILES IDX 1 1 2 2 3 3 4 4 5 5 6 6 7 7 8 8 9 9 10 10 14 11 11 12 13 13
REMARK SMILES IDX 12 14 15 15 16 16 20 17 17 18 19 19 18 20 21 21 22 22 25 23
REMARK SMILES IDX 23 24 24 25
REMARK H PARENT
ROOT
ATOM      1  Cl  UNL     1      86.247 128.363 125.700  1.00  0.00    -0.084 Cl
ATOM      2  C   UNL     1      86.942 126.758 125.723  1.00  0.00     0.047 A 
ATOM      3  C   UNL     1      87.342 126.162 126.897  1.00  0.00     0.021 A 
ATOM      4  C   UNL     1      87.859 124.885 126.923  1.00  0.00     0.002 A 
ATOM      5  C   UNL     1      87.968 124.210 125.732  1.00  0.00     0.001 A 
ATOM      6  C   UNL     1      87.561 124.817 124.537  1.00  0.00     0.008 A 
ATOM      7  C   UNL     1      87.052 126.079 124.519  1.00  0.00     0.006 A 
ENDROOT
BRANCH   7   8
ATOM      8  C   UNL     1      86.650 126.714 123.235  1.00  0.00     0.123 C 
BRANCH   8   9
ATOM      9  C   UNL     1      87.032 125.789 122.130  1.00  0.00    -0.013 A 
ATOM     10  C   UNL     1      86.178 125.021 121.407  1.00  0.00     0.007 A 
ATOM     11  C   UNL     1      88.409 125.754 121.839  1.00  0.00     0.007 A 
ATOM     12  C   UNL     1      86.677 124.219 120.396  1.00  0.00     0.000 A 
ATOM     13  C   UNL     1      88.894 124.957 120.836  1.00  0.00     0.000 A 
ATOM     14  C   UNL     1      88.038 124.175 120.097  1.00  0.00     0.000 A 
ENDBRANCH   8   9
BRANCH   8  15
ATOM     15  C   UNL     1      87.447 127.940 122.965  1.00  0.00    -0.013 A 
ATOM     16  C   UNL     1      87.043 128.926 122.104  1.00  0.00     0.007 A 
ATOM     17  C   UNL     1      88.635 128.108 123.629  1.00  0.00     0.007 A 
ATOM     18  C   UNL     1      87.798 130.073 121.889  1.00  0.00     0.000 A 
ATOM     19  C   UNL     1      89.416 129.259 123.427  1.00  0.00     0.000 A 
ATOM     20  C   UNL     1      88.987 130.225 122.561  1.00  0.00     0.000 A 
ENDBRANCH   8  15
BRANCH   8  21
ATOM     21  N   UNL     1      85.255 127.041 123.262  1.00  0.00    -0.319 N 
ATOM     22  C   UNL     1      84.260 126.258 123.764  1.00  0.00     0.109 A 
ATOM     23  C   UNL     1      84.682 128.164 122.830  1.00  0.00     0.200 A 
ATOM     24  C   UNL     1      83.059 126.918 123.631  1.00  0.00     0.131 A 
ATOM     25  N   UNL     1      83.345 128.081 123.058  1.00  0.00    -0.245 NA
ENDBRANCH   8  21
ENDBRANCH   7   8
TORSDOF 4
ENDMDL
MODEL 3
REMARK VINA RESULT:      -6.3      1.911      4.626
REMARK SMILES Clc1ccccc1C(c1ccccc1)(c1ccccc1)n1ccnc1
REMARK SMILES IDX 1 1 2 2 3 3 4 4 5 5 6 6 7 7 8 8 9 9 10 10 14 11 11 12 13 13
REMARK SMILES IDX 12 14 15 15 16 16 20 17 17 18 19 19 18 20 21 21 22 22 25 23
REMARK SMILES IDX 23 24 24 25
REMARK H PARENT
ROOT
ATOM      1  Cl  UNL     1      84.988 124.249 124.771  1.00  0.00    -0.084 Cl
ATOM      2  C   UNL     1      85.959 124.258 123.316  1.00  0.00     0.047 A 
ATOM      3  C   UNL     1      86.045 123.153 122.500  1.00  0.00     0.021 A 
ATOM      4  C   UNL     1      86.783 123.167 121.336  1.00  0.00     0.002 A 
ATOM      5  C   UNL     1      87.441 124.325 121.004  1.00  0.00     0.001 A 
ATOM      6  C   UNL     1      87.352 125.450 121.835  1.00  0.00     0.008 A 
ATOM      7  C   UNL     1      86.623 125.428 122.984  1.00  0.00     0.006 A 
ENDROOT
BRANCH   7   8
ATOM      8  C   UNL     1      86.564 126.626 123.864  1.00  0.00     0.123 C 
BRANCH   8   9
ATOM      9  C   UNL     1      85.150 127.095 123.902  1.00  0.00    -0.013 A 
ATOM     10  C   UNL     1      84.557 127.746 124.935  1.00  0.00     0.007 A 
ATOM     11  C   UNL     1      84.408 126.829 122.736  1.00  0.00     0.007 A 
ATOM     12  C   UNL     1      83.235 128.136 124.822  1.00  0.00     0.000 A 
ATOM     13  C   UNL     1      83.099 127.221 122.632  1.00  0.00     0.000 A 
ATOM     14  C   UNL     1      82.488 127.880 123.672  1.00  0.00     0.000 A 
ENDBRANCH   8   9
BRANCH   8  15
ATOM     15  C   UNL     1      87.304 127.771 123.268  1.00  0.00    -0.013 A 
ATOM     16  C   UNL     1      86.743 128.649 122.379  1.00  0.00     0.007 A 
ATOM     17  C   UNL     1      88.607 127.976 123.645  1.00  0.00     0.007 A 
ATOM     18  C   UNL     1      87.451 129.724 121.856  1.00  0.00     0.000 A 
ATOM     19  C   UNL     1      89.343 129.055 123.129  1.00  0.00     0.000 A 
ATOM     20  C   UNL     1      88.756 129.915 122.242  1.00  0.00     0.000 A 
ENDBRANCH   8  15
BRANCH   8  21
ATOM     21  N   UNL     1      87.109 126.319 125.153  1.00  0.00    -0.319 N 
ATOM     22  C   UNL     1      86.743 126.893 126.332  1.00  0.00     0.109 A 
ATOM     23  C   UNL     1      88.044 125.413 125.438  1.00  0.00     0.200 A 
ATOM     24  C   UNL     1      87.473 126.326 127.353  1.00  0.00     0.131 A 
ATOM     25  N   UNL     1      88.260 125.424 126.780  1.00  0.00    -0.245 NA
ENDBRANCH   8  21
ENDBRANCH   7   8
TORSDOF 4
ENDMDL
MODEL 4
REMARK VINA RESULT:      -6.2      1.497      1.999
REMARK SMILES Clc1ccccc1C(c1ccccc1)(c1ccccc1)n1ccnc1
REMARK SMILES IDX 1 1 2 2 3 3 4 4 5 5 6 6 7 7 8 8 9 9 10 10 14 11 11 12 13 13
REMARK SMILES IDX 12 14 15 15 16 16 20 17 17 18 19 19 18 20 21 21 22 22 25 23
REMARK SMILES IDX 23 24 24 25
REMARK H PARENT
ROOT
ATOM      1  Cl  UNL     1      89.416 126.163 123.000  1.00  0.00    -0.084 Cl
ATOM      2  C   UNL     1      88.203 125.529 121.910  1.00  0.00     0.047 A 
ATOM      3  C   UNL     1      88.544 124.763 120.819  1.00  0.00     0.021 A 
ATOM      4  C   UNL     1      87.589 124.235 119.977  1.00  0.00     0.002 A 
ATOM      5  C   UNL     1      86.270 124.495 120.255  1.00  0.00     0.001 A 
ATOM      6  C   UNL     1      85.924 125.276 121.366  1.00  0.00     0.008 A 
ATOM      7  C   UNL     1      86.873 125.794 122.193  1.00  0.00     0.006 A 
ENDROOT
BRANCH   7   8
ATOM      8  C   UNL     1      86.483 126.641 123.352  1.00  0.00     0.123 C 
BRANCH   8   9
ATOM      9  C   UNL     1      86.967 125.969 124.591  1.00  0.00    -0.013 A 
ATOM     10  C   UNL     1      87.290 124.657 124.708  1.00  0.00     0.007 A 
ATOM     11  C   UNL     1      87.100 126.816 125.708  1.00  0.00     0.007 A 
ATOM     12  C   UNL     1      87.743 124.175 125.923  1.00  0.00     0.000 A 
ATOM     13  C   UNL     1      87.550 126.330 126.908  1.00  0.00     0.000 A 
ATOM     14  C   UNL     1      87.879 125.002 127.037  1.00  0.00     0.000 A 
ENDBRANCH   8   9
BRANCH   8  15
ATOM     15  C   UNL     1      85.006 126.679 123.521  1.00  0.00    -0.013 A 
ATOM     16  C   UNL     1      84.304 125.741 124.232  1.00  0.00     0.007 A 
ATOM     17  C   UNL     1      84.309 127.718 122.958  1.00  0.00     0.007 A 
ATOM     18  C   UNL     1      82.926 125.815 124.393  1.00  0.00     0.000 A 
ATOM     19  C   UNL     1      82.915 127.813 123.106  1.00  0.00     0.000 A 
ATOM     20  C   UNL     1      82.242 126.861 123.822  1.00  0.00     0.000 A 
ENDBRANCH   8  15
BRANCH   8  21
ATOM     21  N   UNL     1      86.983 127.973 123.180  1.00  0.00    -0.319 N 
ATOM     22  C   UNL     1      87.214 128.592 121.989  1.00  0.00     0.109 A 
ATOM     23  C   UNL     1      87.288 128.850 124.137  1.00  0.00     0.200 A 
ATOM     24  C   UNL     1      87.671 129.869 122.227  1.00  0.00     0.131 A 
ATOM     25  N   UNL     1      87.707 130.001 123.548  1.00  0.00    -0.245 NA
ENDBRANCH   8  21
ENDBRANCH   7   8
TORSDOF 4
ENDMDL
MODEL 5
REMARK VINA RESULT:      -6.2      0.612      1.140
REMARK SMILES Clc1ccccc1C(c1ccccc1)(c1ccccc1)n1ccnc1
REMARK SMILES IDX 1 1 2 2 3 3 4 4 5 5 6 6 7 7 8 8 9 9 10 10 14 11 11 12 13 13
REMARK SMILES IDX 12 14 15 15 16 16 20 17 17 18 19 19 18 20 21 21 22 22 25 23
REMARK SMILES IDX 23 24 24 25
REMARK H PARENT
ROOT
ATOM      1  Cl  UNL     1      89.012 126.179 123.201  1.00  0.00    -0.084 Cl
ATOM      2  C   UNL     1      87.907 124.850 122.935  1.00  0.00     0.047 A 
ATOM      3  C   UNL     1      88.351 123.616 122.518  1.00  0.00     0.021 A 
ATOM      4  C   UNL     1      87.487 122.557 122.338  1.00  0.00     0.002 A 
ATOM      5  C   UNL     1      86.153 122.765 122.588  1.00  0.00     0.001 A 
ATOM      6  C   UNL     1      85.702 124.022 123.012  1.00  0.00     0.008 A 
ATOM      7  C   UNL     1      86.561 125.063 123.186  1.00  0.00     0.006 A 
ENDROOT
BRANCH   7   8
ATOM      8  C   UNL     1      86.056 126.396 123.613  1.00  0.00     0.123 C 
BRANCH   8   9
ATOM      9  C   UNL     1      86.537 126.643 125.002  1.00  0.00    -0.013 A 
ATOM     10  C   UNL     1      87.262 125.779 125.756  1.00  0.00     0.007 A 
ATOM     11  C   UNL     1      86.199 127.904 125.528  1.00  0.00     0.007 A 
ATOM     12  C   UNL     1      87.654 126.153 127.029  1.00  0.00     0.000 A 
ATOM     13  C   UNL     1      86.593 128.267 126.790  1.00  0.00     0.000 A 
ATOM     14  C   UNL     1      87.326 127.399 127.562  1.00  0.00     0.000 A 
ENDBRANCH   8   9
BRANCH   8  15
ATOM     15  C   UNL     1      84.574 126.395 123.744  1.00  0.00    -0.013 A 
ATOM     16  C   UNL     1      83.894 125.571 124.602  1.00  0.00     0.007 A 
ATOM     17  C   UNL     1      83.849 127.280 122.988  1.00  0.00     0.007 A 
ATOM     18  C   UNL     1      82.510 125.608 124.720  1.00  0.00     0.000 A 
ATOM     19  C   UNL     1      82.449 127.336 123.090  1.00  0.00     0.000 A 
ATOM     20  C   UNL     1      81.798 126.500 123.955  1.00  0.00     0.000 A 
ENDBRANCH   8  15
BRANCH   8  21
ATOM     21  N   UNL     1      86.455 127.399 122.672  1.00  0.00    -0.319 N 
ATOM     22  C   UNL     1      86.897 128.650 122.979  1.00  0.00     0.109 A 
ATOM     23  C   UNL     1      86.490 127.292 121.344  1.00  0.00     0.200 A 
ATOM     24  C   UNL     1      87.205 129.316 121.813  1.00  0.00     0.131 A 
ATOM     25  N   UNL     1      86.948 128.463 120.829  1.00  0.00    -0.245 NA
ENDBRANCH   8  21
ENDBRANCH   7   8
TORSDOF 4
ENDMDL
MODEL 6
REMARK VINA RESULT:      -6.1      2.054      5.077
REMARK SMILES Clc1ccccc1C(c1ccccc1)(c1ccccc1)n1ccnc1
REMARK SMILES IDX 1 1 2 2 3 3 4 4 5 5 6 6 7 7 8 8 9 9 10 10 14 11 11 12 13 13
REMARK SMILES IDX 12 14 15 15 16 16 20 17 17 18 19 19 18 20 21 21 22 22 25 23
REMARK SMILES IDX 23 24 24 25
REMARK H PARENT
ROOT
ATOM      1  Cl  UNL     1      84.910 124.550 124.022  1.00  0.00    -0.084 Cl
ATOM      2  C   UNL     1      84.308 126.178 123.806  1.00  0.00     0.047 A 
ATOM      3  C   UNL     1      82.965 126.466 123.883  1.00  0.00     0.021 A 
ATOM      4  C   UNL     1      82.490 127.753 123.745  1.00  0.00     0.002 A 
ATOM      5  C   UNL     1      83.402 128.756 123.527  1.00  0.00     0.001 A 
ATOM      6  C   UNL     1      84.769 128.461 123.449  1.00  0.00     0.008 A 
ATOM      7  C   UNL     1      85.230 127.188 123.584  1.00  0.00     0.006 A 
ENDROOT
BRANCH   7   8
ATOM      8  C   UNL     1      86.685 126.896 123.473  1.00  0.00     0.123 C 
BRANCH   8   9
ATOM      9  C   UNL     1      87.393 128.186 123.236  1.00  0.00    -0.013 A 
ATOM     10  C   UNL     1      87.336 128.926 122.101  1.00  0.00     0.007 A 
ATOM     11  C   UNL     1      88.164 128.643 124.322  1.00  0.00     0.007 A 
ATOM     12  C   UNL     1      88.037 130.117 122.030  1.00  0.00     0.000 A 
ATOM     13  C   UNL     1      88.855 129.825 124.243  1.00  0.00     0.000 A 
ATOM     14  C   UNL     1      88.804 130.582 123.098  1.00  0.00     0.000 A 
ENDBRANCH   8   9
BRANCH   8  15
ATOM     15  C   UNL     1      86.983 126.096 122.254  1.00  0.00    -0.013 A 
ATOM     16  C   UNL     1      86.038 125.767 121.319  1.00  0.00     0.007 A 
ATOM     17  C   UNL     1      88.275 125.687 122.040  1.00  0.00     0.007 A 
ATOM     18  C   UNL     1      86.350 125.038 120.178  1.00  0.00     0.000 A 
ATOM     19  C   UNL     1      88.615 124.949 120.894  1.00  0.00     0.000 A 
ATOM     20  C   UNL     1      87.648 124.635 119.979  1.00  0.00     0.000 A 
ENDBRANCH   8  15
BRANCH   8  21
ATOM     21  N   UNL     1      87.137 126.190 124.635  1.00  0.00    -0.319 N 
ATOM     22  C   UNL     1      86.899 126.546 125.928  1.00  0.00     0.109 A 
ATOM     23  C   UNL     1      87.844 125.060 124.668  1.00  0.00     0.200 A 
ATOM     24  C   UNL     1      87.474 125.614 126.763  1.00  0.00     0.131 A 
ATOM     25  N   UNL     1      88.045 124.716 125.968  1.00  0.00    -0.245 NA
ENDBRANCH   8  21
ENDBRANCH   7   8
TORSDOF 4
ENDMDL
MODEL 7
REMARK VINA RESULT:      -6.1      1.957      4.586
REMARK SMILES Clc1ccccc1C(c1ccccc1)(c1ccccc1)n1ccnc1
REMARK SMILES IDX 1 1 2 2 3 3 4 4 5 5 6 6 7 7 8 8 9 9 10 10 14 11 11 12 13 13
REMARK SMILES IDX 12 14 15 15 16 16 20 17 17 18 19 19 18 20 21 21 22 22 25 23
REMARK SMILES IDX 23 24 24 25
REMARK H PARENT
ROOT
ATOM      1  Cl  UNL     1      85.231 123.988 124.067  1.00  0.00    -0.084 Cl
ATOM      2  C   UNL     1      86.095 124.323 122.583  1.00  0.00     0.047 A 
ATOM      3  C   UNL     1      86.131 123.415 121.550  1.00  0.00     0.021 A 
ATOM      4  C   UNL     1      86.783 123.689 120.367  1.00  0.00     0.002 A 
ATOM      5  C   UNL     1      87.405 124.906 120.241  1.00  0.00     0.001 A 
ATOM      6  C   UNL     1      87.368 125.830 121.294  1.00  0.00     0.008 A 
ATOM      7  C   UNL     1      86.723 125.552 122.459  1.00  0.00     0.006 A 
ENDROOT
BRANCH   7   8
ATOM      8  C   UNL     1      86.719 126.538 123.573  1.00  0.00     0.123 C 
BRANCH   8   9
ATOM      9  C   UNL     1      85.318 127.013 123.756  1.00  0.00    -0.013 A 
ATOM     10  C   UNL     1      84.803 127.546 124.892  1.00  0.00     0.007 A 
ATOM     11  C   UNL     1      84.499 126.889 122.617  1.00  0.00     0.007 A 
ATOM     12  C   UNL     1      83.482 127.960 124.910  1.00  0.00     0.000 A 
ATOM     13  C   UNL     1      83.193 127.302 122.644  1.00  0.00     0.000 A 
ATOM     14  C   UNL     1      82.661 127.844 123.789  1.00  0.00     0.000 A 
ENDBRANCH   8   9
BRANCH   8  15
ATOM     15  C   UNL     1      87.468 127.770 123.207  1.00  0.00    -0.013 A 
ATOM     16  C   UNL     1      88.712 128.069 123.699  1.00  0.00     0.007 A 
ATOM     17  C   UNL     1      86.899 128.641 122.314  1.00  0.00     0.007 A 
ATOM     18  C   UNL     1      89.399 129.217 123.321  1.00  0.00     0.000 A 
ATOM     19  C   UNL     1      87.574 129.808 121.918  1.00  0.00     0.000 A 
ATOM     20  C   UNL     1      88.814 130.080 122.426  1.00  0.00     0.000 A 
ENDBRANCH   8  15
BRANCH   8  21
ATOM     21  N   UNL     1      87.293 125.956 124.750  1.00  0.00    -0.319 N 
ATOM     22  C   UNL     1      86.902 126.197 126.032  1.00  0.00     0.109 A 
ATOM     23  C   UNL     1      88.286 125.069 124.808  1.00  0.00     0.200 A 
ATOM     24  C   UNL     1      87.674 125.441 126.886  1.00  0.00     0.131 A 
ATOM     25  N   UNL     1      88.512 124.761 126.113  1.00  0.00    -0.245 NA
ENDBRANCH   8  21
ENDBRANCH   7   8
TORSDOF 4
ENDMDL
MODEL 8
REMARK VINA RESULT:      -6.1      2.333      5.364
REMARK SMILES Clc1ccccc1C(c1ccccc1)(c1ccccc1)n1ccnc1
REMARK SMILES IDX 1 1 2 2 3 3 4 4 5 5 6 6 7 7 8 8 9 9 10 10 14 11 11 12 13 13
REMARK SMILES IDX 12 14 15 15 16 16 20 17 17 18 19 19 18 20 21 21 22 22 25 23
REMARK SMILES IDX 23 24 24 25
REMARK H PARENT
ROOT
ATOM      1  Cl  UNL     1      85.351 125.317 123.798  1.00  0.00    -0.084 Cl
ATOM      2  C   UNL     1      84.733 126.932 123.530  1.00  0.00     0.047 A 
ATOM      3  C   UNL     1      83.386 127.175 123.390  1.00  0.00     0.021 A 
ATOM      4  C   UNL     1      82.894 128.449 123.212  1.00  0.00     0.002 A 
ATOM      5  C   UNL     1      83.791 129.488 123.176  1.00  0.00     0.001 A 
ATOM      6  C   UNL     1      85.163 129.239 123.318  1.00  0.00     0.008 A 
ATOM      7  C   UNL     1      85.642 127.978 123.493  1.00  0.00     0.006 A 
ENDROOT
BRANCH   7   8
ATOM      8  C   UNL     1      87.105 127.736 123.616  1.00  0.00     0.123 C 
BRANCH   8   9
ATOM      9  C   UNL     1      87.802 129.035 123.398  1.00  0.00    -0.013 A 
ATOM     10  C   UNL     1      88.098 129.584 122.194  1.00  0.00     0.007 A 
ATOM     11  C   UNL     1      88.151 129.722 124.576  1.00  0.00     0.007 A 
ATOM     12  C   UNL     1      88.738 130.810 122.145  1.00  0.00     0.000 A 
ATOM     13  C   UNL     1      88.783 130.937 124.519  1.00  0.00     0.000 A 
ATOM     14  C   UNL     1      89.088 131.502 123.304  1.00  0.00     0.000 A 
ENDBRANCH   8   9
BRANCH   8  15
ATOM     15  C   UNL     1      87.604 126.873 122.512  1.00  0.00    -0.013 A 
ATOM     16  C   UNL     1      88.685 126.039 122.638  1.00  0.00     0.007 A 
ATOM     17  C   UNL     1      86.937 126.891 121.314  1.00  0.00     0.007 A 
ATOM     18  C   UNL     1      89.115 125.226 121.596  1.00  0.00     0.000 A 
ATOM     19  C   UNL     1      87.355 126.078 120.246  1.00  0.00     0.000 A 
ATOM     20  C   UNL     1      88.437 125.257 120.401  1.00  0.00     0.000 A 
ENDBRANCH   8  15
BRANCH   8  21
ATOM     21  N   UNL     1      87.399 127.123 124.878  1.00  0.00    -0.319 N 
ATOM     22  C   UNL     1      86.734 127.342 126.046  1.00  0.00     0.109 A 
ATOM     23  C   UNL     1      88.347 126.223 125.135  1.00  0.00     0.200 A 
ATOM     24  C   UNL     1      87.291 126.560 127.033  1.00  0.00     0.131 A 
ATOM     25  N   UNL     1      88.275 125.885 126.450  1.00  0.00    -0.245 NA
ENDBRANCH   8  21
ENDBRANCH   7   8
TORSDOF 4
ENDMDL
MODEL 9
REMARK VINA RESULT:      -6.1      2.324      5.407
REMARK SMILES Clc1ccccc1C(c1ccccc1)(c1ccccc1)n1ccnc1
REMARK SMILES IDX 1 1 2 2 3 3 4 4 5 5 6 6 7 7 8 8 9 9 10 10 14 11 11 12 13 13
REMARK SMILES IDX 12 14 15 15 16 16 20 17 17 18 19 19 18 20 21 21 22 22 25 23
REMARK SMILES IDX 23 24 24 25
REMARK H PARENT
ROOT
ATOM      1  Cl  UNL     1      85.126 125.290 123.650  1.00  0.00    -0.084 Cl
ATOM      2  C   UNL     1      84.594 126.936 123.387  1.00  0.00     0.047 A 
ATOM      3  C   UNL     1      83.265 127.245 123.212  1.00  0.00     0.021 A 
ATOM      4  C   UNL     1      82.838 128.543 123.037  1.00  0.00     0.002 A 
ATOM      5  C   UNL     1      83.785 129.538 123.041  1.00  0.00     0.001 A 
ATOM      6  C   UNL     1      85.138 129.223 123.220  1.00  0.00     0.008 A 
ATOM      7  C   UNL     1      85.552 127.938 123.391  1.00  0.00     0.006 A 
ENDROOT
BRANCH   7   8
ATOM      8  C   UNL     1      86.997 127.624 123.553  1.00  0.00     0.123 C 
BRANCH   8   9
ATOM      9  C   UNL     1      87.761 128.894 123.387  1.00  0.00    -0.013 A 
ATOM     10  C   UNL     1      88.065 129.487 122.206  1.00  0.00     0.007 A 
ATOM     11  C   UNL     1      88.167 129.500 124.591  1.00  0.00     0.007 A 
ATOM     12  C   UNL     1      88.770 130.678 122.207  1.00  0.00     0.000 A 
ATOM     13  C   UNL     1      88.863 130.680 124.582  1.00  0.00     0.000 A 
ATOM     14  C   UNL     1      89.178 131.290 123.392  1.00  0.00     0.000 A 
ENDBRANCH   8   9
BRANCH   8  15
ATOM     15  C   UNL     1      87.491 126.763 122.446  1.00  0.00    -0.013 A 
ATOM     16  C   UNL     1      86.781 126.532 121.297  1.00  0.00     0.007 A 
ATOM     17  C   UNL     1      88.731 126.189 122.566  1.00  0.00     0.007 A 
ATOM     18  C   UNL     1      87.278 125.741 120.268  1.00  0.00     0.000 A 
ATOM     19  C   UNL     1      89.254 125.386 121.539  1.00  0.00     0.000 A 
ATOM     20  C   UNL     1      88.521 125.172 120.405  1.00  0.00     0.000 A 
ENDBRANCH   8  15
BRANCH   8  21
ATOM     21  N   UNL     1      87.222 126.971 124.809  1.00  0.00    -0.319 N 
ATOM     22  C   UNL     1      88.008 125.877 125.010  1.00  0.00     0.109 A 
ATOM     23  C   UNL     1      86.732 127.319 125.998  1.00  0.00     0.200 A 
ATOM     24  C   UNL     1      87.993 125.553 126.348  1.00  0.00     0.131 A 
ATOM     25  N   UNL     1      87.205 126.450 126.930  1.00  0.00    -0.245 NA
ENDBRANCH   8  21
ENDBRANCH   7   8
TORSDOF 4
ENDMDL
