MODEL 1
REMARK VINA RESULT:      -7.5      0.000      0.000
REMARK SMILES Clc1ccc(COC(Cn2ccnc2)c2ccc(Cl)cc2Cl)c(Cl)c1
REMARK SMILES IDX 7 1 6 2 5 3 2 4 3 5 25 6 4 7 23 8 1 9 24 10 8 11 9 12 10 13
REMARK SMILES IDX 11 14 14 15 12 16 13 17 15 18 16 19 21 20 17 21 20 22 18 23
REMARK SMILES IDX 22 24 19 25
REMARK H PARENT
ROOT
ATOM      1  O   UNL     1     -36.045 -56.557  -7.214  1.00  0.00    -0.367 OA
ENDROOT
BRANCH   1   2
ATOM      2  C   UNL     1     -36.772 -57.584  -7.680  1.00  0.00     0.198 C 
BRANCH   2   3
ATOM      3  C   UNL     1     -36.658 -58.825  -6.883  1.00  0.00    -0.004 A 
ATOM      4  C   UNL     1     -36.207 -61.285  -5.541  1.00  0.00     0.042 A 
ATOM      5  C   UNL     1     -35.177 -60.570  -6.125  1.00  0.00     0.021 A 
ATOM      6  C   UNL     1     -37.464 -60.739  -5.646  1.00  0.00     0.041 A 
ATOM      7  C   UNL     1     -35.371 -59.378  -6.780  1.00  0.00     0.009 A 
ATOM      8  C   UNL     1     -37.677 -59.522  -6.310  1.00  0.00     0.048 A 
ATOM      9  Cl  UNL     1     -35.931 -62.813  -4.716  1.00  0.00    -0.084 Cl
ATOM     10  Cl  UNL     1     -39.293 -58.823  -6.325  1.00  0.00    -0.084 Cl
ENDBRANCH   2   3
ENDBRANCH   1   2
BRANCH   1  11
ATOM     11  C   UNL     1     -36.303 -55.760  -6.197  1.00  0.00     0.170 C 
BRANCH  11  12
ATOM     12  C   UNL     1     -35.251 -56.059  -5.099  1.00  0.00     0.160 C 
BRANCH  12  13
ATOM     13  N   UNL     1     -35.841 -56.932  -4.133  1.00  0.00    -0.335 N 
ATOM     14  C   UNL     1     -37.138 -57.041  -3.805  1.00  0.00     0.107 A 
ATOM     15  C   UNL     1     -35.128 -57.802  -3.388  1.00  0.00     0.199 A 
ATOM     16  C   UNL     1     -37.195 -58.012  -2.828  1.00  0.00     0.130 A 
ATOM     17  N   UNL     1     -35.953 -58.463  -2.589  1.00  0.00    -0.245 NA
ENDBRANCH  12  13
ENDBRANCH  11  12
BRANCH  11  18
ATOM     18  C   UNL     1     -36.169 -54.290  -6.554  1.00  0.00     0.001 A 
ATOM     19  C   UNL     1     -35.368 -53.872  -7.589  1.00  0.00     0.009 A 
ATOM     20  C   UNL     1     -36.856 -53.347  -5.833  1.00  0.00     0.048 A 
ATOM     21  C   UNL     1     -35.264 -52.506  -7.888  1.00  0.00     0.021 A 
ATOM     22  C   UNL     1     -36.762 -51.987  -6.122  1.00  0.00     0.041 A 
ATOM     23  C   UNL     1     -35.956 -51.565  -7.163  1.00  0.00     0.042 A 
ATOM     24  Cl  UNL     1     -37.873 -53.900  -4.515  1.00  0.00    -0.084 Cl
ATOM     25  Cl  UNL     1     -35.826 -49.852  -7.533  1.00  0.00    -0.084 Cl
ENDBRANCH  11  18
ENDBRANCH   1  11
TORSDOF 6
ENDMDL
MODEL 2
REMARK VINA RESULT:      -7.3      3.133      6.925
REMARK SMILES Clc1ccc(COC(Cn2ccnc2)c2ccc(Cl)cc2Cl)c(Cl)c1
REMARK SMILES IDX 7 1 6 2 5 3 2 4 3 5 25 6 4 7 23 8 1 9 24 10 8 11 9 12 10 13
REMARK SMILES IDX 11 14 14 15 12 16 13 17 15 18 16 19 21 20 17 21 20 22 18 23
REMARK SMILES IDX 22 24 19 25
REMARK H PARENT
ROOT
ATOM      1  O   UNL     1     -36.173 -60.241  -4.781  1.00  0.00    -0.367 OA
ENDROOT
BRANCH   1   2
ATOM      2  C   UNL     1     -35.224 -59.772  -5.606  1.00  0.00     0.198 C 
BRANCH   2   3
ATOM      3  C   UNL     1     -35.425 -58.371  -6.037  1.00  0.00    -0.004 A 
ATOM      4  C   UNL     1     -35.768 -55.605  -6.571  1.00  0.00     0.042 A 
ATOM      5  C   UNL     1     -34.907 -56.060  -5.587  1.00  0.00     0.021 A 
ATOM      6  C   UNL     1     -36.449 -56.566  -7.277  1.00  0.00     0.041 A 
ATOM      7  C   UNL     1     -34.726 -57.394  -5.312  1.00  0.00     0.009 A 
ATOM      8  C   UNL     1     -36.273 -57.932  -7.007  1.00  0.00     0.048 A 
ATOM      9  Cl  UNL     1     -35.986 -53.891  -6.897  1.00  0.00    -0.084 Cl
ATOM     10  Cl  UNL     1     -37.098 -59.119  -8.012  1.00  0.00    -0.084 Cl
ENDBRANCH   2   3
ENDBRANCH   1   2
BRANCH   1  11
ATOM     11  C   UNL     1     -36.709 -59.658  -3.727  1.00  0.00     0.170 C 
BRANCH  11  12
ATOM     12  C   UNL     1     -38.247 -59.735  -3.891  1.00  0.00     0.160 C 
BRANCH  12  13
ATOM     13  N   UNL     1     -38.715 -58.470  -4.368  1.00  0.00    -0.335 N 
ATOM     14  C   UNL     1     -39.637 -58.237  -5.315  1.00  0.00     0.107 A 
ATOM     15  C   UNL     1     -38.262 -57.288  -3.901  1.00  0.00     0.199 A 
ATOM     16  C   UNL     1     -39.733 -56.864  -5.413  1.00  0.00     0.130 A 
ATOM     17  N   UNL     1     -38.881 -56.306  -4.538  1.00  0.00    -0.245 NA
ENDBRANCH  12  13
ENDBRANCH  11  12
BRANCH  11  18
ATOM     18  C   UNL     1     -36.363 -60.363  -2.428  1.00  0.00     0.001 A 
ATOM     19  C   UNL     1     -36.686 -61.683  -2.218  1.00  0.00     0.009 A 
ATOM     20  C   UNL     1     -35.717 -59.678  -1.430  1.00  0.00     0.048 A 
ATOM     21  C   UNL     1     -36.356 -62.300  -1.004  1.00  0.00     0.021 A 
ATOM     22  C   UNL     1     -35.383 -60.283  -0.220  1.00  0.00     0.041 A 
ATOM     23  C   UNL     1     -35.707 -61.610  -0.007  1.00  0.00     0.042 A 
ATOM     24  Cl  UNL     1     -35.315 -57.995  -1.716  1.00  0.00    -0.084 Cl
ATOM     25  Cl  UNL     1     -35.294 -62.380   1.517  1.00  0.00    -0.084 Cl
ENDBRANCH  11  18
ENDBRANCH   1  11
TORSDOF 6
ENDMDL
MODEL 3
REMARK VINA RESULT:      -7.1      2.601      5.635
REMARK SMILES Clc1ccc(COC(Cn2ccnc2)c2ccc(Cl)cc2Cl)c(Cl)c1
REMARK SMILES IDX 7 1 6 2 5 3 2 4 3 5 25 6 4 7 23 8 1 9 24 10 8 11 9 12 10 13
REMARK SMILES IDX 11 14 14 15 12 16 13 17 15 18 16 19 21 20 17 21 20 22 18 23
REMARK SMILES IDX 22 24 19 25
REMARK H PARENT
ROOT
ATOM      1  O   UNL     1     -36.569 -57.104  -3.202  1.00  0.00    -0.367 OA
ENDROOT
BRANCH   1   2
ATOM      2  C   UNL     1     -37.548 -57.675  -2.483  1.00  0.00     0.198 C 
BRANCH   2   3
ATOM      3  C   UNL     1     -37.192 -58.988  -1.901  1.00  0.00    -0.004 A 
ATOM      4  C   UNL     1     -36.241 -61.381  -0.707  1.00  0.00     0.042 A 
ATOM      5  C   UNL     1     -35.879 -60.132  -0.234  1.00  0.00     0.021 A 
ATOM      6  C   UNL     1     -37.087 -61.401  -1.789  1.00  0.00     0.041 A 
ATOM      7  C   UNL     1     -36.327 -58.961  -0.795  1.00  0.00     0.009 A 
ATOM      8  C   UNL     1     -37.554 -60.213  -2.372  1.00  0.00     0.048 A 
ATOM      9  Cl  UNL     1     -35.646 -62.864   0.026  1.00  0.00    -0.084 Cl
ATOM     10  Cl  UNL     1     -38.715 -60.302  -3.693  1.00  0.00    -0.084 Cl
ENDBRANCH   2   3
ENDBRANCH   1   2
BRANCH   1  11
ATOM     11  C   UNL     1     -36.541 -56.843  -4.494  1.00  0.00     0.170 C 
BRANCH  11  12
ATOM     12  C   UNL     1     -35.303 -55.950  -4.756  1.00  0.00     0.160 C 
BRANCH  12  13
ATOM     13  N   UNL     1     -35.688 -54.888  -5.633  1.00  0.00    -0.335 N 
ATOM     14  C   UNL     1     -35.157 -54.570  -6.824  1.00  0.00     0.107 A 
ATOM     15  C   UNL     1     -36.688 -54.026  -5.358  1.00  0.00     0.199 A 
ATOM     16  C   UNL     1     -35.868 -53.476  -7.270  1.00  0.00     0.130 A 
ATOM     17  N   UNL     1     -36.800 -53.162  -6.355  1.00  0.00    -0.245 NA
ENDBRANCH  12  13
ENDBRANCH  11  12
BRANCH  11  18
ATOM     18  C   UNL     1     -36.377 -58.093  -5.340  1.00  0.00     0.001 A 
ATOM     19  C   UNL     1     -35.392 -59.015  -5.078  1.00  0.00     0.009 A 
ATOM     20  C   UNL     1     -37.222 -58.317  -6.397  1.00  0.00     0.048 A 
ATOM     21  C   UNL     1     -35.267 -60.155  -5.884  1.00  0.00     0.021 A 
ATOM     22  C   UNL     1     -37.108 -59.447  -7.203  1.00  0.00     0.041 A 
ATOM     23  C   UNL     1     -36.118 -60.376  -6.941  1.00  0.00     0.042 A 
ATOM     24  Cl  UNL     1     -38.471 -57.128  -6.716  1.00  0.00    -0.084 Cl
ATOM     25  Cl  UNL     1     -35.962 -61.802  -7.955  1.00  0.00    -0.084 Cl
ENDBRANCH  11  18
ENDBRANCH   1  11
TORSDOF 6
ENDMDL
MODEL 4
REMARK VINA RESULT:      -6.9      2.848      3.933
REMARK SMILES Clc1ccc(COC(Cn2ccnc2)c2ccc(Cl)cc2Cl)c(Cl)c1
REMARK SMILES IDX 7 1 6 2 5 3 2 4 3 5 25 6 4 7 23 8 1 9 24 10 8 11 9 12 10 13
REMARK SMILES IDX 11 14 14 15 12 16 13 17 15 18 16 19 21 20 17 21 20 22 18 23
REMARK SMILES IDX 22 24 19 25
REMARK H PARENT
ROOT
ATOM      1  O   UNL     1     -36.326 -57.228  -3.619  1.00  0.00    -0.367 OA
ENDROOT
BRANCH   1   2
ATOM      2  C   UNL     1     -35.393 -58.192  -3.657  1.00  0.00     0.198 C 
BRANCH   2   3
ATOM      3  C   UNL     1     -35.647 -59.324  -2.738  1.00  0.00    -0.004 A 
ATOM      4  C   UNL     1     -36.376 -61.561  -1.151  1.00  0.00     0.042 A 
ATOM      5  C   UNL     1     -36.593 -61.530  -2.517  1.00  0.00     0.021 A 
ATOM      6  C   UNL     1     -35.786 -60.449  -0.603  1.00  0.00     0.041 A 
ATOM      7  C   UNL     1     -36.249 -60.458  -3.305  1.00  0.00     0.009 A 
ATOM      8  C   UNL     1     -35.428 -59.347  -1.395  1.00  0.00     0.048 A 
ATOM      9  Cl  UNL     1     -36.834 -62.944  -0.166  1.00  0.00    -0.084 Cl
ATOM     10  Cl  UNL     1     -34.585 -57.992  -0.651  1.00  0.00    -0.084 Cl
ENDBRANCH   2   3
ENDBRANCH   1   2
BRANCH   1  11
ATOM     11  C   UNL     1     -37.211 -56.901  -4.540  1.00  0.00     0.170 C 
BRANCH  11  12
ATOM     12  C   UNL     1     -38.523 -56.528  -3.805  1.00  0.00     0.160 C 
BRANCH  12  13
ATOM     13  N   UNL     1     -38.958 -57.664  -3.053  1.00  0.00    -0.335 N 
ATOM     14  C   UNL     1     -38.950 -57.820  -1.720  1.00  0.00     0.107 A 
ATOM     15  C   UNL     1     -39.457 -58.782  -3.620  1.00  0.00     0.199 A 
ATOM     16  C   UNL     1     -39.463 -59.079  -1.488  1.00  0.00     0.130 A 
ATOM     17  N   UNL     1     -39.765 -59.648  -2.667  1.00  0.00    -0.245 NA
ENDBRANCH  12  13
ENDBRANCH  11  12
BRANCH  11  18
ATOM     18  C   UNL     1     -36.793 -55.687  -5.350  1.00  0.00     0.001 A 
ATOM     19  C   UNL     1     -37.086 -54.410  -4.936  1.00  0.00     0.009 A 
ATOM     20  C   UNL     1     -36.110 -55.855  -6.528  1.00  0.00     0.048 A 
ATOM     21  C   UNL     1     -36.688 -53.313  -5.713  1.00  0.00     0.021 A 
ATOM     22  C   UNL     1     -35.709 -54.772  -7.307  1.00  0.00     0.041 A 
ATOM     23  C   UNL     1     -36.003 -53.486  -6.892  1.00  0.00     0.042 A 
ATOM     24  Cl  UNL     1     -35.747 -57.493  -7.041  1.00  0.00    -0.084 Cl
ATOM     25  Cl  UNL     1     -35.506 -52.114  -7.869  1.00  0.00    -0.084 Cl
ENDBRANCH  11  18
ENDBRANCH   1  11
TORSDOF 6
ENDMDL
MODEL 5
REMARK VINA RESULT:      -6.8      2.302      6.904
REMARK SMILES Clc1ccc(COC(Cn2ccnc2)c2ccc(Cl)cc2Cl)c(Cl)c1
REMARK SMILES IDX 7 1 6 2 5 3 2 4 3 5 25 6 4 7 23 8 1 9 24 10 8 11 9 12 10 13
REMARK SMILES IDX 11 14 14 15 12 16 13 17 15 18 16 19 21 20 17 21 20 22 18 23
REMARK SMILES IDX 22 24 19 25
REMARK H PARENT
ROOT
ATOM      1  O   UNL     1     -36.056 -56.005  -5.536  1.00  0.00    -0.367 OA
ENDROOT
BRANCH   1   2
ATOM      2  C   UNL     1     -37.017 -55.068  -5.546  1.00  0.00     0.198 C 
BRANCH   2   3
ATOM      3  C   UNL     1     -36.562 -53.729  -5.983  1.00  0.00    -0.004 A 
ATOM      4  C   UNL     1     -35.969 -51.060  -6.743  1.00  0.00     0.042 A 
ATOM      5  C   UNL     1     -36.825 -51.350  -5.696  1.00  0.00     0.021 A 
ATOM      6  C   UNL     1     -35.420 -52.136  -7.397  1.00  0.00     0.041 A 
ATOM      7  C   UNL     1     -37.127 -52.634  -5.310  1.00  0.00     0.009 A 
ATOM      8  C   UNL     1     -35.718 -53.453  -7.014  1.00  0.00     0.048 A 
ATOM      9  Cl  UNL     1     -35.606 -49.407  -7.220  1.00  0.00    -0.084 Cl
ATOM     10  Cl  UNL     1     -34.906 -54.789  -7.825  1.00  0.00    -0.084 Cl
ENDBRANCH   2   3
ENDBRANCH   1   2
BRANCH   1  11
ATOM     11  C   UNL     1     -36.169 -57.298  -5.309  1.00  0.00     0.170 C 
BRANCH  11  12
ATOM     12  C   UNL     1     -34.900 -57.978  -5.880  1.00  0.00     0.160 C 
BRANCH  12  13
ATOM     13  N   UNL     1     -35.259 -59.276  -6.361  1.00  0.00    -0.335 N 
ATOM     14  C   UNL     1     -35.961 -59.580  -7.464  1.00  0.00     0.107 A 
ATOM     15  C   UNL     1     -34.921 -60.420  -5.731  1.00  0.00     0.199 A 
ATOM     16  C   UNL     1     -36.042 -60.957  -7.487  1.00  0.00     0.130 A 
ATOM     17  N   UNL     1     -35.398 -61.448  -6.416  1.00  0.00    -0.245 NA
ENDBRANCH  12  13
ENDBRANCH  11  12
BRANCH  11  18
ATOM     18  C   UNL     1     -36.228 -57.631  -3.829  1.00  0.00     0.001 A 
ATOM     19  C   UNL     1     -35.107 -57.574  -3.035  1.00  0.00     0.009 A 
ATOM     20  C   UNL     1     -37.419 -58.003  -3.260  1.00  0.00     0.048 A 
ATOM     21  C   UNL     1     -35.198 -57.893  -1.673  1.00  0.00     0.021 A 
ATOM     22  C   UNL     1     -37.520 -58.321  -1.907  1.00  0.00     0.041 A 
ATOM     23  C   UNL     1     -36.394 -58.264  -1.106  1.00  0.00     0.042 A 
ATOM     24  Cl  UNL     1     -38.836 -58.072  -4.290  1.00  0.00    -0.084 Cl
ATOM     25  Cl  UNL     1     -36.510 -58.667   0.600  1.00  0.00    -0.084 Cl
ENDBRANCH  11  18
ENDBRANCH   1  11
TORSDOF 6
ENDMDL
MODEL 6
REMARK VINA RESULT:      -6.8      2.336      3.717
REMARK SMILES Clc1ccc(COC(Cn2ccnc2)c2ccc(Cl)cc2Cl)c(Cl)c1
REMARK SMILES IDX 7 1 6 2 5 3 2 4 3 5 25 6 4 7 23 8 1 9 24 10 8 11 9 12 10 13
REMARK SMILES IDX 11 14 14 15 12 16 13 17 15 18 16 19 21 20 17 21 20 22 18 23
REMARK SMILES IDX 22 24 19 25
REMARK H PARENT
ROOT
ATOM      1  O   UNL     1     -35.647 -56.106  -4.616  1.00  0.00    -0.367 OA
ENDROOT
BRANCH   1   2
ATOM      2  C   UNL     1     -34.901 -57.186  -4.338  1.00  0.00     0.198 C 
BRANCH   2   3
ATOM      3  C   UNL     1     -35.616 -58.248  -3.596  1.00  0.00    -0.004 A 
ATOM      4  C   UNL     1     -36.920 -60.129  -1.918  1.00  0.00     0.042 A 
ATOM      5  C   UNL     1     -36.887 -58.779  -1.618  1.00  0.00     0.021 A 
ATOM      6  C   UNL     1     -36.286 -60.512  -3.075  1.00  0.00     0.041 A 
ATOM      7  C   UNL     1     -36.262 -57.851  -2.415  1.00  0.00     0.009 A 
ATOM      8  C   UNL     1     -35.645 -59.575  -3.900  1.00  0.00     0.048 A 
ATOM      9  Cl  UNL     1     -37.721 -61.296  -0.876  1.00  0.00    -0.084 Cl
ATOM     10  Cl  UNL     1     -34.936 -60.111  -5.420  1.00  0.00    -0.084 Cl
ENDBRANCH   2   3
ENDBRANCH   1   2
BRANCH   1  11
ATOM     11  C   UNL     1     -36.225 -55.775  -5.753  1.00  0.00     0.170 C 
BRANCH  11  12
ATOM     12  C   UNL     1     -37.643 -56.399  -5.748  1.00  0.00     0.160 C 
BRANCH  12  13
ATOM     13  N   UNL     1     -37.740 -57.309  -6.847  1.00  0.00    -0.335 N 
ATOM     14  C   UNL     1     -36.739 -57.884  -7.531  1.00  0.00     0.107 A 
ATOM     15  C   UNL     1     -38.915 -57.724  -7.364  1.00  0.00     0.199 A 
ATOM     16  C   UNL     1     -37.344 -58.669  -8.490  1.00  0.00     0.130 A 
ATOM     17  N   UNL     1     -38.676 -58.554  -8.368  1.00  0.00    -0.245 NA
ENDBRANCH  12  13
ENDBRANCH  11  12
BRANCH  11  18
ATOM     18  C   UNL     1     -36.400 -54.274  -5.907  1.00  0.00     0.001 A 
ATOM     19  C   UNL     1     -37.175 -53.547  -5.036  1.00  0.00     0.009 A 
ATOM     20  C   UNL     1     -35.778 -53.618  -6.939  1.00  0.00     0.048 A 
ATOM     21  C   UNL     1     -37.317 -52.164  -5.213  1.00  0.00     0.021 A 
ATOM     22  C   UNL     1     -35.912 -52.243  -7.123  1.00  0.00     0.041 A 
ATOM     23  C   UNL     1     -36.691 -51.509  -6.247  1.00  0.00     0.042 A 
ATOM     24  Cl  UNL     1     -34.795 -54.563  -8.041  1.00  0.00    -0.084 Cl
ATOM     25  Cl  UNL     1     -36.870 -49.777  -6.473  1.00  0.00    -0.084 Cl
ENDBRANCH  11  18
ENDBRANCH   1  11
TORSDOF 6
ENDMDL
MODEL 7
REMARK VINA RESULT:      -6.7      2.820      6.780
REMARK SMILES Clc1ccc(COC(Cn2ccnc2)c2ccc(Cl)cc2Cl)c(Cl)c1
REMARK SMILES IDX 7 1 6 2 5 3 2 4 3 5 25 6 4 7 23 8 1 9 24 10 8 11 9 12 10 13
REMARK SMILES IDX 11 14 14 15 12 16 13 17 15 18 16 19 21 20 17 21 20 22 18 23
REMARK SMILES IDX 22 24 19 25
REMARK H PARENT
ROOT
ATOM      1  O   UNL     1     -37.441 -57.634  -4.030  1.00  0.00    -0.367 OA
ENDROOT
BRANCH   1   2
ATOM      2  C   UNL     1     -37.809 -57.232  -5.257  1.00  0.00     0.198 C 
BRANCH   2   3
ATOM      3  C   UNL     1     -37.299 -55.898  -5.643  1.00  0.00    -0.004 A 
ATOM      4  C   UNL     1     -36.076 -53.484  -6.498  1.00  0.00     0.042 A 
ATOM      5  C   UNL     1     -35.920 -54.671  -7.193  1.00  0.00     0.021 A 
ATOM      6  C   UNL     1     -36.857 -53.537  -5.370  1.00  0.00     0.041 A 
ATOM      7  C   UNL     1     -36.503 -55.851  -6.798  1.00  0.00     0.009 A 
ATOM      8  C   UNL     1     -37.459 -54.735  -4.955  1.00  0.00     0.048 A 
ATOM      9  Cl  UNL     1     -35.313 -51.990  -7.023  1.00  0.00    -0.084 Cl
ATOM     10  Cl  UNL     1     -38.529 -54.719  -3.556  1.00  0.00    -0.084 Cl
ENDBRANCH   2   3
ENDBRANCH   1   2
BRANCH   1  11
ATOM     11  C   UNL     1     -36.824 -58.744  -3.678  1.00  0.00     0.170 C 
BRANCH  11  12
ATOM     12  C   UNL     1     -35.579 -58.889  -4.589  1.00  0.00     0.160 C 
BRANCH  12  13
ATOM     13  N   UNL     1     -35.813 -59.959  -5.508  1.00  0.00    -0.335 N 
ATOM     14  C   UNL     1     -35.383 -60.065  -6.775  1.00  0.00     0.107 A 
ATOM     15  C   UNL     1     -36.536 -61.055  -5.200  1.00  0.00     0.199 A 
ATOM     16  C   UNL     1     -35.870 -61.270  -7.235  1.00  0.00     0.130 A 
ATOM     17  N   UNL     1     -36.573 -61.858  -6.253  1.00  0.00    -0.245 NA
ENDBRANCH  12  13
ENDBRANCH  11  12
BRANCH  11  18
ATOM     18  C   UNL     1     -36.326 -58.709  -2.244  1.00  0.00     0.001 A 
ATOM     19  C   UNL     1     -35.227 -57.967  -1.883  1.00  0.00     0.009 A 
ATOM     20  C   UNL     1     -36.976 -59.433  -1.278  1.00  0.00     0.048 A 
ATOM     21  C   UNL     1     -34.792 -57.962  -0.550  1.00  0.00     0.021 A 
ATOM     22  C   UNL     1     -36.554 -59.434   0.050  1.00  0.00     0.041 A 
ATOM     23  C   UNL     1     -35.449 -58.688   0.415  1.00  0.00     0.042 A 
ATOM     24  Cl  UNL     1     -38.376 -60.374  -1.759  1.00  0.00    -0.084 Cl
ATOM     25  Cl  UNL     1     -34.905 -58.686   2.086  1.00  0.00    -0.084 Cl
ENDBRANCH  11  18
ENDBRANCH   1  11
TORSDOF 6
ENDMDL
MODEL 8
REMARK VINA RESULT:      -6.7      2.061      6.627
REMARK SMILES Clc1ccc(COC(Cn2ccnc2)c2ccc(Cl)cc2Cl)c(Cl)c1
REMARK SMILES IDX 7 1 6 2 5 3 2 4 3 5 25 6 4 7 23 8 1 9 24 10 8 11 9 12 10 13
REMARK SMILES IDX 11 14 14 15 12 16 13 17 15 18 16 19 21 20 17 21 20 22 18 23
REMARK SMILES IDX 22 24 19 25
REMARK H PARENT
ROOT
ATOM      1  O   UNL     1     -36.578 -56.313  -5.944  1.00  0.00    -0.367 OA
ENDROOT
BRANCH   1   2
ATOM      2  C   UNL     1     -35.646 -55.374  -5.714  1.00  0.00     0.198 C 
BRANCH   2   3
ATOM      3  C   UNL     1     -36.011 -54.021  -6.187  1.00  0.00    -0.004 A 
ATOM      4  C   UNL     1     -36.417 -51.392  -7.177  1.00  0.00     0.042 A 
ATOM      5  C   UNL     1     -35.489 -52.251  -7.739  1.00  0.00     0.021 A 
ATOM      6  C   UNL     1     -37.134 -51.882  -6.112  1.00  0.00     0.041 A 
ATOM      7  C   UNL     1     -35.275 -53.527  -7.276  1.00  0.00     0.009 A 
ATOM      8  C   UNL     1     -36.928 -53.183  -5.630  1.00  0.00     0.048 A 
ATOM      9  Cl  UNL     1     -36.664 -49.761  -7.784  1.00  0.00    -0.084 Cl
ATOM     10  Cl  UNL     1     -37.946 -53.788  -4.327  1.00  0.00    -0.084 Cl
ENDBRANCH   2   3
ENDBRANCH   1   2
BRANCH   1  11
ATOM     11  C   UNL     1     -36.601 -57.567  -5.539  1.00  0.00     0.170 C 
BRANCH  11  12
ATOM     12  C   UNL     1     -35.353 -58.266  -6.133  1.00  0.00     0.160 C 
BRANCH  12  13
ATOM     13  N   UNL     1     -35.599 -59.673  -6.176  1.00  0.00    -0.335 N 
ATOM     14  C   UNL     1     -36.694 -60.304  -6.630  1.00  0.00     0.107 A 
ATOM     15  C   UNL     1     -34.716 -60.594  -5.738  1.00  0.00     0.199 A 
ATOM     16  C   UNL     1     -36.449 -61.650  -6.455  1.00  0.00     0.130 A 
ATOM     17  N   UNL     1     -35.233 -61.802  -5.907  1.00  0.00    -0.245 NA
ENDBRANCH  12  13
ENDBRANCH  11  12
BRANCH  11  18
ATOM     18  C   UNL     1     -36.509 -57.697  -4.029  1.00  0.00     0.001 A 
ATOM     19  C   UNL     1     -35.296 -57.751  -3.385  1.00  0.00     0.009 A 
ATOM     20  C   UNL     1     -37.655 -57.768  -3.279  1.00  0.00     0.048 A 
ATOM     21  C   UNL     1     -35.249 -57.877  -1.989  1.00  0.00     0.021 A 
ATOM     22  C   UNL     1     -37.620 -57.892  -1.892  1.00  0.00     0.041 A 
ATOM     23  C   UNL     1     -36.401 -57.946  -1.241  1.00  0.00     0.042 A 
ATOM     24  Cl  UNL     1     -39.193 -57.699  -4.120  1.00  0.00    -0.084 Cl
ATOM     25  Cl  UNL     1     -36.346 -58.107   0.507  1.00  0.00    -0.084 Cl
ENDBRANCH  11  18
ENDBRANCH   1  11
TORSDOF 6
ENDMDL
MODEL 9
REMARK VINA RESULT:      -6.6      2.036      6.505
REMARK SMILES Clc1ccc(COC(Cn2ccnc2)c2ccc(Cl)cc2Cl)c(Cl)c1
REMARK SMILES IDX 7 1 6 2 5 3 2 4 3 5 25 6 4 7 23 8 1 9 24 10 8 11 9 12 10 13
REMARK SMILES IDX 11 14 14 15 12 16 13 17 15 18 16 19 21 20 17 21 20 22 18 23
REMARK SMILES IDX 22 24 19 25
REMARK H PARENT
ROOT
ATOM      1  O   UNL     1     -35.942 -56.171  -6.800  1.00  0.00    -0.367 OA
ENDROOT
BRANCH   1   2
ATOM      2  C   UNL     1     -35.342 -55.157  -6.156  1.00  0.00     0.198 C 
BRANCH   2   3
ATOM      3  C   UNL     1     -35.861 -53.817  -6.507  1.00  0.00    -0.004 A 
ATOM      4  C   UNL     1     -36.575 -51.183  -7.285  1.00  0.00     0.042 A 
ATOM      5  C   UNL     1     -35.633 -51.921  -7.979  1.00  0.00     0.021 A 
ATOM      6  C   UNL     1     -37.148 -51.795  -6.197  1.00  0.00     0.041 A 
ATOM      7  C   UNL     1     -35.272 -53.198  -7.621  1.00  0.00     0.009 A 
ATOM      8  C   UNL     1     -36.791 -53.098  -5.820  1.00  0.00     0.048 A 
ATOM      9  Cl  UNL     1     -37.013 -49.548  -7.761  1.00  0.00    -0.084 Cl
ATOM     10  Cl  UNL     1     -37.632 -53.866  -4.477  1.00  0.00    -0.084 Cl
ENDBRANCH   2   3
ENDBRANCH   1   2
BRANCH   1  11
ATOM     11  C   UNL     1     -36.207 -57.385  -6.359  1.00  0.00     0.170 C 
BRANCH  11  12
ATOM     12  C   UNL     1     -34.877 -58.179  -6.372  1.00  0.00     0.160 C 
BRANCH  12  13
ATOM     13  N   UNL     1     -35.185 -59.575  -6.410  1.00  0.00    -0.335 N 
ATOM     14  C   UNL     1     -34.891 -60.508  -5.491  1.00  0.00     0.107 A 
ATOM     15  C   UNL     1     -35.844 -60.162  -7.431  1.00  0.00     0.199 A 
ATOM     16  C   UNL     1     -35.394 -61.693  -5.987  1.00  0.00     0.130 A 
ATOM     17  N   UNL     1     -35.972 -61.455  -7.175  1.00  0.00    -0.245 NA
ENDBRANCH  12  13
ENDBRANCH  11  12
BRANCH  11  18
ATOM     18  C   UNL     1     -36.716 -57.391  -4.929  1.00  0.00     0.001 A 
ATOM     19  C   UNL     1     -35.856 -57.476  -3.860  1.00  0.00     0.009 A 
ATOM     20  C   UNL     1     -38.063 -57.314  -4.683  1.00  0.00     0.048 A 
ATOM     21  C   UNL     1     -36.362 -57.484  -2.552  1.00  0.00     0.021 A 
ATOM     22  C   UNL     1     -38.577 -57.320  -3.388  1.00  0.00     0.041 A 
ATOM     23  C   UNL     1     -37.714 -57.406  -2.311  1.00  0.00     0.042 A 
ATOM     24  Cl  UNL     1     -39.144 -57.207  -6.060  1.00  0.00    -0.084 Cl
ATOM     25  Cl  UNL     1     -38.351 -57.419  -0.675  1.00  0.00    -0.084 Cl
ENDBRANCH  11  18
ENDBRANCH   1  11
TORSDOF 6
ENDMDL
