MODEL 1
REMARK VINA RESULT:      -6.6      0.000      0.000
REMARK SMILES Clc1ccccc1C(c1ccccc1)(c1ccccc1)n1ccnc1
REMARK SMILES IDX 1 1 2 2 3 3 4 4 5 5 6 6 7 7 8 8 9 9 10 10 14 11 11 12 13 13
REMARK SMILES IDX 12 14 15 15 16 16 20 17 17 18 19 19 18 20 21 21 22 22 25 23
REMARK SMILES IDX 23 24 24 25
REMARK H PARENT
ROOT
ATOM      1  Cl  UNL     1     -37.157 -61.358  -2.496  1.00  0.00    -0.084 Cl
ATOM      2  C   UNL     1     -36.184 -60.064  -1.832  1.00  0.00     0.047 A 
ATOM      3  C   UNL     1     -35.490 -60.215  -0.654  1.00  0.00     0.021 A 
ATOM      4  C   UNL     1     -34.697 -59.209  -0.145  1.00  0.00     0.002 A 
ATOM      5  C   UNL     1     -34.615 -58.035  -0.851  1.00  0.00     0.001 A 
ATOM      6  C   UNL     1     -35.322 -57.882  -2.051  1.00  0.00     0.008 A 
ATOM      7  C   UNL     1     -36.104 -58.879  -2.546  1.00  0.00     0.006 A 
ENDROOT
BRANCH   7   8
ATOM      8  C   UNL     1     -36.866 -58.685  -3.810  1.00  0.00     0.123 C 
BRANCH   8   9
ATOM      9  C   UNL     1     -36.264 -59.571  -4.846  1.00  0.00    -0.013 A 
ATOM     10  C   UNL     1     -35.147 -60.325  -4.694  1.00  0.00     0.007 A 
ATOM     11  C   UNL     1     -36.962 -59.607  -6.069  1.00  0.00     0.007 A 
ATOM     12  C   UNL     1     -34.713 -61.115  -5.744  1.00  0.00     0.000 A 
ATOM     13  C   UNL     1     -36.526 -60.393  -7.103  1.00  0.00     0.000 A 
ATOM     14  C   UNL     1     -35.395 -61.161  -6.960  1.00  0.00     0.000 A 
ENDBRANCH   8   9
BRANCH   8  15
ATOM     15  C   UNL     1     -36.669 -57.314  -4.354  1.00  0.00    -0.013 A 
ATOM     16  C   UNL     1     -37.665 -56.376  -4.411  1.00  0.00     0.007 A 
ATOM     17  C   UNL     1     -35.421 -56.960  -4.800  1.00  0.00     0.007 A 
ATOM     18  C   UNL     1     -37.446 -55.095  -4.903  1.00  0.00     0.000 A 
ATOM     19  C   UNL     1     -35.175 -55.671  -5.303  1.00  0.00     0.000 A 
ATOM     20  C   UNL     1     -36.191 -54.756  -5.347  1.00  0.00     0.000 A 
ENDBRANCH   8  15
BRANCH   8  21
ATOM     21  N   UNL     1     -38.262 -58.918  -3.585  1.00  0.00    -0.319 N 
ATOM     22  C   UNL     1     -39.011 -58.373  -2.587  1.00  0.00     0.109 A 
ATOM     23  C   UNL     1     -39.079 -59.680  -4.310  1.00  0.00     0.200 A 
ATOM     24  C   UNL     1     -40.310 -58.815  -2.708  1.00  0.00     0.131 A 
ATOM     25  N   UNL     1     -40.324 -59.612  -3.770  1.00  0.00    -0.245 NA
ENDBRANCH   8  21
ENDBRANCH   7   8
TORSDOF 4
ENDMDL
MODEL 2
REMARK VINA RESULT:      -6.4      0.445      1.044
REMARK SMILES Clc1ccccc1C(c1ccccc1)(c1ccccc1)n1ccnc1
REMARK SMILES IDX 1 1 2 2 3 3 4 4 5 5 6 6 7 7 8 8 9 9 10 10 14 11 11 12 13 13
REMARK SMILES IDX 12 14 15 15 16 16 20 17 17 18 19 19 18 20 21 21 22 22 25 23
REMARK SMILES IDX 23 24 24 25
REMARK H PARENT
ROOT
ATOM      1  Cl  UNL     1     -37.566 -61.007  -2.692  1.00  0.00    -0.084 Cl
ATOM      2  C   UNL     1     -36.479 -59.829  -1.992  1.00  0.00     0.047 A 
ATOM      3  C   UNL     1     -35.897 -60.027  -0.761  1.00  0.00     0.021 A 
ATOM      4  C   UNL     1     -35.015 -59.116  -0.220  1.00  0.00     0.002 A 
ATOM      5  C   UNL     1     -34.726 -57.989  -0.949  1.00  0.00     0.001 A 
ATOM      6  C   UNL     1     -35.319 -57.788  -2.202  1.00  0.00     0.008 A 
ATOM      7  C   UNL     1     -36.190 -58.692  -2.729  1.00  0.00     0.006 A 
ENDROOT
BRANCH   7   8
ATOM      8  C   UNL     1     -36.827 -58.445  -4.051  1.00  0.00     0.123 C 
BRANCH   8   9
ATOM      9  C   UNL     1     -36.250 -59.415  -5.024  1.00  0.00    -0.013 A 
ATOM     10  C   UNL     1     -35.241 -60.286  -4.772  1.00  0.00     0.007 A 
ATOM     11  C   UNL     1     -36.849 -59.400  -6.298  1.00  0.00     0.007 A 
ATOM     12  C   UNL     1     -34.818 -61.143  -5.773  1.00  0.00     0.000 A 
ATOM     13  C   UNL     1     -36.425 -60.253  -7.283  1.00  0.00     0.000 A 
ATOM     14  C   UNL     1     -35.403 -61.139  -7.039  1.00  0.00     0.000 A 
ENDBRANCH   8   9
BRANCH   8  15
ATOM     15  C   UNL     1     -36.439 -57.117  -4.598  1.00  0.00    -0.013 A 
ATOM     16  C   UNL     1     -35.184 -56.835  -5.069  1.00  0.00     0.007 A 
ATOM     17  C   UNL     1     -37.390 -56.130  -4.659  1.00  0.00     0.007 A 
ATOM     18  C   UNL     1     -34.855 -55.592  -5.597  1.00  0.00     0.000 A 
ATOM     19  C   UNL     1     -37.081 -54.866  -5.188  1.00  0.00     0.000 A 
ATOM     20  C   UNL     1     -35.819 -54.614  -5.650  1.00  0.00     0.000 A 
ENDBRANCH   8  15
BRANCH   8  21
ATOM     21  N   UNL     1     -38.253 -58.518  -3.932  1.00  0.00    -0.319 N 
ATOM     22  C   UNL     1     -39.004 -57.942  -2.953  1.00  0.00     0.109 A 
ATOM     23  C   UNL     1     -39.100 -59.135  -4.756  1.00  0.00     0.200 A 
ATOM     24  C   UNL     1     -40.333 -58.216  -3.186  1.00  0.00     0.131 A 
ATOM     25  N   UNL     1     -40.364 -58.947  -4.295  1.00  0.00    -0.245 NA
ENDBRANCH   8  21
ENDBRANCH   7   8
TORSDOF 4
ENDMDL
MODEL 3
REMARK VINA RESULT:      -6.3      1.305      4.612
REMARK SMILES Clc1ccccc1C(c1ccccc1)(c1ccccc1)n1ccnc1
REMARK SMILES IDX 1 1 2 2 3 3 4 4 5 5 6 6 7 7 8 8 9 9 10 10 14 11 11 12 13 13
REMARK SMILES IDX 12 14 15 15 16 16 20 17 17 18 19 19 18 20 21 21 22 22 25 23
REMARK SMILES IDX 23 24 24 25
REMARK H PARENT
ROOT
ATOM      1  Cl  UNL     1     -38.009 -58.195  -7.114  1.00  0.00    -0.084 Cl
ATOM      2  C   UNL     1     -36.847 -59.429  -6.679  1.00  0.00     0.047 A 
ATOM      3  C   UNL     1     -36.342 -60.304  -7.613  1.00  0.00     0.021 A 
ATOM      4  C   UNL     1     -35.403 -61.256  -7.281  1.00  0.00     0.002 A 
ATOM      5  C   UNL     1     -34.976 -61.313  -5.978  1.00  0.00     0.001 A 
ATOM      6  C   UNL     1     -35.490 -60.421  -5.028  1.00  0.00     0.008 A 
ATOM      7  C   UNL     1     -36.419 -59.484  -5.363  1.00  0.00     0.006 A 
ENDROOT
BRANCH   7   8
ATOM      8  C   UNL     1     -36.970 -58.564  -4.331  1.00  0.00     0.123 C 
BRANCH   8   9
ATOM      9  C   UNL     1     -36.628 -57.171  -4.733  1.00  0.00    -0.013 A 
ATOM     10  C   UNL     1     -37.463 -56.102  -4.680  1.00  0.00     0.007 A 
ATOM     11  C   UNL     1     -35.307 -56.995  -5.187  1.00  0.00     0.007 A 
ATOM     12  C   UNL     1     -37.000 -54.859  -5.073  1.00  0.00     0.000 A 
ATOM     13  C   UNL     1     -34.857 -55.759  -5.574  1.00  0.00     0.000 A 
ATOM     14  C   UNL     1     -35.694 -54.670  -5.525  1.00  0.00     0.000 A 
ENDBRANCH   8   9
BRANCH   8  15
ATOM     15  C   UNL     1     -36.278 -58.739  -3.026  1.00  0.00    -0.013 A 
ATOM     16  C   UNL     1     -35.475 -57.781  -2.464  1.00  0.00     0.007 A 
ATOM     17  C   UNL     1     -36.470 -59.909  -2.334  1.00  0.00     0.007 A 
ATOM     18  C   UNL     1     -34.860 -57.963  -1.232  1.00  0.00     0.000 A 
ATOM     19  C   UNL     1     -35.858 -60.115  -1.087  1.00  0.00     0.000 A 
ATOM     20  C   UNL     1     -35.061 -59.140  -0.553  1.00  0.00     0.000 A 
ENDBRANCH   8  15
BRANCH   8  21
ATOM     21  N   UNL     1     -38.375 -58.794  -4.166  1.00  0.00    -0.319 N 
ATOM     22  C   UNL     1     -39.040 -59.938  -4.486  1.00  0.00     0.109 A 
ATOM     23  C   UNL     1     -39.275 -57.953  -3.656  1.00  0.00     0.200 A 
ATOM     24  C   UNL     1     -40.371 -59.788  -4.165  1.00  0.00     0.131 A 
ATOM     25  N   UNL     1     -40.488 -58.566  -3.660  1.00  0.00    -0.245 NA
ENDBRANCH   8  21
ENDBRANCH   7   8
TORSDOF 4
ENDMDL
MODEL 4
REMARK VINA RESULT:      -6.2      0.954      1.635
REMARK SMILES Clc1ccccc1C(c1ccccc1)(c1ccccc1)n1ccnc1
REMARK SMILES IDX 1 1 2 2 3 3 4 4 5 5 6 6 7 7 8 8 9 9 10 10 14 11 11 12 13 13
REMARK SMILES IDX 12 14 15 15 16 16 20 17 17 18 19 19 18 20 21 21 22 22 25 23
REMARK SMILES IDX 23 24 24 25
REMARK H PARENT
ROOT
ATOM      1  Cl  UNL     1     -37.746 -60.836  -3.318  1.00  0.00    -0.084 Cl
ATOM      2  C   UNL     1     -36.632 -59.698  -2.593  1.00  0.00     0.047 A 
ATOM      3  C   UNL     1     -36.040 -59.945  -1.376  1.00  0.00     0.021 A 
ATOM      4  C   UNL     1     -35.137 -59.067  -0.816  1.00  0.00     0.002 A 
ATOM      5  C   UNL     1     -34.838 -57.921  -1.512  1.00  0.00     0.001 A 
ATOM      6  C   UNL     1     -35.442 -57.670  -2.751  1.00  0.00     0.008 A 
ATOM      7  C   UNL     1     -36.333 -58.542  -3.296  1.00  0.00     0.006 A 
ENDROOT
BRANCH   7   8
ATOM      8  C   UNL     1     -36.981 -58.242  -4.602  1.00  0.00     0.123 C 
BRANCH   8   9
ATOM      9  C   UNL     1     -36.517 -59.261  -5.586  1.00  0.00    -0.013 A 
ATOM     10  C   UNL     1     -37.143 -59.589  -6.743  1.00  0.00     0.007 A 
ATOM     11  C   UNL     1     -35.310 -59.902  -5.246  1.00  0.00     0.007 A 
ATOM     12  C   UNL     1     -36.584 -60.547  -7.570  1.00  0.00     0.000 A 
ATOM     13  C   UNL     1     -34.763 -60.850  -6.072  1.00  0.00     0.000 A 
ATOM     14  C   UNL     1     -35.389 -61.190  -7.247  1.00  0.00     0.000 A 
ENDBRANCH   8   9
BRANCH   8  15
ATOM     15  C   UNL     1     -36.492 -56.954  -5.164  1.00  0.00    -0.013 A 
ATOM     16  C   UNL     1     -35.435 -56.864  -6.031  1.00  0.00     0.007 A 
ATOM     17  C   UNL     1     -37.147 -55.799  -4.819  1.00  0.00     0.007 A 
ATOM     18  C   UNL     1     -35.015 -55.649  -6.559  1.00  0.00     0.000 A 
ATOM     19  C   UNL     1     -36.740 -54.559  -5.339  1.00  0.00     0.000 A 
ATOM     20  C   UNL     1     -35.680 -54.501  -6.202  1.00  0.00     0.000 A 
ENDBRANCH   8  15
BRANCH   8  21
ATOM     21  N   UNL     1     -38.404 -58.191  -4.446  1.00  0.00    -0.319 N 
ATOM     22  C   UNL     1     -39.071 -57.735  -3.350  1.00  0.00     0.109 A 
ATOM     23  C   UNL     1     -39.326 -58.553  -5.337  1.00  0.00     0.200 A 
ATOM     24  C   UNL     1     -40.426 -57.823  -3.580  1.00  0.00     0.131 A 
ATOM     25  N   UNL     1     -40.555 -58.326  -4.802  1.00  0.00    -0.245 NA
ENDBRANCH   8  21
ENDBRANCH   7   8
TORSDOF 4
ENDMDL
MODEL 5
REMARK VINA RESULT:      -6.1      1.943      4.702
REMARK SMILES Clc1ccccc1C(c1ccccc1)(c1ccccc1)n1ccnc1
REMARK SMILES IDX 1 1 2 2 3 3 4 4 5 5 6 6 7 7 8 8 9 9 10 10 14 11 11 12 13 13
REMARK SMILES IDX 12 14 15 15 16 16 20 17 17 18 19 19 18 20 21 21 22 22 25 23
REMARK SMILES IDX 23 24 24 25
REMARK H PARENT
ROOT
ATOM      1  Cl  UNL     1     -37.957 -60.661  -4.238  1.00  0.00    -0.084 Cl
ATOM      2  C   UNL     1     -38.968 -59.441  -4.980  1.00  0.00     0.047 A 
ATOM      3  C   UNL     1     -40.320 -59.631  -5.150  1.00  0.00     0.021 A 
ATOM      4  C   UNL     1     -41.125 -58.660  -5.705  1.00  0.00     0.002 A 
ATOM      5  C   UNL     1     -40.538 -57.481  -6.091  1.00  0.00     0.001 A 
ATOM      6  C   UNL     1     -39.161 -57.288  -5.918  1.00  0.00     0.008 A 
ATOM      7  C   UNL     1     -38.373 -58.252  -5.370  1.00  0.00     0.006 A 
ENDROOT
BRANCH   7   8
ATOM      8  C   UNL     1     -36.908 -58.035  -5.220  1.00  0.00     0.123 C 
BRANCH   8   9
ATOM      9  C   UNL     1     -36.604 -57.972  -3.762  1.00  0.00    -0.013 A 
ATOM     10  C   UNL     1     -35.378 -58.118  -3.201  1.00  0.00     0.007 A 
ATOM     11  C   UNL     1     -37.717 -57.723  -2.937  1.00  0.00     0.007 A 
ATOM     12  C   UNL     1     -35.244 -58.018  -1.827  1.00  0.00     0.000 A 
ATOM     13  C   UNL     1     -37.575 -57.625  -1.578  1.00  0.00     0.000 A 
ATOM     14  C   UNL     1     -36.338 -57.771  -0.998  1.00  0.00     0.000 A 
ENDBRANCH   8   9
BRANCH   8  15
ATOM     15  C   UNL     1     -36.506 -56.695  -5.727  1.00  0.00    -0.013 A 
ATOM     16  C   UNL     1     -35.758 -56.512  -6.860  1.00  0.00     0.007 A 
ATOM     17  C   UNL     1     -36.925 -55.583  -5.041  1.00  0.00     0.007 A 
ATOM     18  C   UNL     1     -35.416 -55.247  -7.323  1.00  0.00     0.000 A 
ATOM     19  C   UNL     1     -36.591 -54.294  -5.490  1.00  0.00     0.000 A 
ATOM     20  C   UNL     1     -35.842 -54.143  -6.624  1.00  0.00     0.000 A 
ENDBRANCH   8  15
BRANCH   8  21
ATOM     21  N   UNL     1     -36.184 -59.053  -5.921  1.00  0.00    -0.319 N 
ATOM     22  C   UNL     1     -35.122 -59.755  -5.437  1.00  0.00     0.109 A 
ATOM     23  C   UNL     1     -36.422 -59.511  -7.150  1.00  0.00     0.200 A 
ATOM     24  C   UNL     1     -34.707 -60.657  -6.391  1.00  0.00     0.131 A 
ATOM     25  N   UNL     1     -35.519 -60.487  -7.428  1.00  0.00    -0.245 NA
ENDBRANCH   8  21
ENDBRANCH   7   8
TORSDOF 4
ENDMDL
MODEL 6
REMARK VINA RESULT:      -6.1      1.818      4.888
REMARK SMILES Clc1ccccc1C(c1ccccc1)(c1ccccc1)n1ccnc1
REMARK SMILES IDX 1 1 2 2 3 3 4 4 5 5 6 6 7 7 8 8 9 9 10 10 14 11 11 12 13 13
REMARK SMILES IDX 12 14 15 15 16 16 20 17 17 18 19 19 18 20 21 21 22 22 25 23
REMARK SMILES IDX 23 24 24 25
REMARK H PARENT
ROOT
ATOM      1  Cl  UNL     1     -38.148 -55.502  -3.759  1.00  0.00    -0.084 Cl
ATOM      2  C   UNL     1     -37.007 -55.452  -5.084  1.00  0.00     0.047 A 
ATOM      3  C   UNL     1     -36.546 -54.261  -5.593  1.00  0.00     0.021 A 
ATOM      4  C   UNL     1     -35.621 -54.217  -6.615  1.00  0.00     0.002 A 
ATOM      5  C   UNL     1     -35.164 -55.409  -7.120  1.00  0.00     0.001 A 
ATOM      6  C   UNL     1     -35.634 -56.622  -6.601  1.00  0.00     0.008 A 
ATOM      7  C   UNL     1     -36.548 -56.657  -5.593  1.00  0.00     0.006 A 
ENDROOT
BRANCH   7   8
ATOM      8  C   UNL     1     -37.052 -57.957  -5.074  1.00  0.00     0.123 C 
BRANCH   8   9
ATOM      9  C   UNL     1     -36.596 -58.092  -3.661  1.00  0.00    -0.013 A 
ATOM     10  C   UNL     1     -35.419 -57.640  -3.160  1.00  0.00     0.007 A 
ATOM     11  C   UNL     1     -37.509 -58.739  -2.806  1.00  0.00     0.007 A 
ATOM     12  C   UNL     1     -35.137 -57.824  -1.818  1.00  0.00     0.000 A 
ATOM     13  C   UNL     1     -37.222 -58.916  -1.478  1.00  0.00     0.000 A 
ATOM     14  C   UNL     1     -36.032 -58.462  -0.960  1.00  0.00     0.000 A 
ENDBRANCH   8   9
BRANCH   8  15
ATOM     15  C   UNL     1     -36.405 -59.103  -5.768  1.00  0.00    -0.013 A 
ATOM     16  C   UNL     1     -35.372 -59.825  -5.229  1.00  0.00     0.007 A 
ATOM     17  C   UNL     1     -36.879 -59.474  -7.000  1.00  0.00     0.007 A 
ATOM     18  C   UNL     1     -34.802 -60.906  -5.891  1.00  0.00     0.000 A 
ATOM     19  C   UNL     1     -36.318 -60.563  -7.689  1.00  0.00     0.000 A 
ATOM     20  C   UNL     1     -35.288 -61.264  -7.125  1.00  0.00     0.000 A 
ENDBRANCH   8  15
BRANCH   8  21
ATOM     21  N   UNL     1     -38.473 -58.036  -5.236  1.00  0.00    -0.319 N 
ATOM     22  C   UNL     1     -39.325 -58.767  -4.465  1.00  0.00     0.109 A 
ATOM     23  C   UNL     1     -39.217 -57.402  -6.142  1.00  0.00     0.200 A 
ATOM     24  C   UNL     1     -40.613 -58.574  -4.914  1.00  0.00     0.131 A 
ATOM     25  N   UNL     1     -40.519 -57.736  -5.939  1.00  0.00    -0.245 NA
ENDBRANCH   8  21
ENDBRANCH   7   8
TORSDOF 4
ENDMDL
MODEL 7
REMARK VINA RESULT:      -6.1      2.275      4.683
REMARK SMILES Clc1ccccc1C(c1ccccc1)(c1ccccc1)n1ccnc1
REMARK SMILES IDX 1 1 2 2 3 3 4 4 5 5 6 6 7 7 8 8 9 9 10 10 14 11 11 12 13 13
REMARK SMILES IDX 12 14 15 15 16 16 20 17 17 18 19 19 18 20 21 21 22 22 25 23
REMARK SMILES IDX 23 24 24 25
REMARK H PARENT
ROOT
ATOM      1  Cl  UNL     1     -34.976 -57.493  -3.478  1.00  0.00    -0.084 Cl
ATOM      2  C   UNL     1     -36.657 -57.721  -3.051  1.00  0.00     0.047 A 
ATOM      3  C   UNL     1     -37.092 -57.606  -1.751  1.00  0.00     0.021 A 
ATOM      4  C   UNL     1     -38.421 -57.752  -1.415  1.00  0.00     0.002 A 
ATOM      5  C   UNL     1     -39.314 -58.020  -2.423  1.00  0.00     0.001 A 
ATOM      6  C   UNL     1     -38.870 -58.138  -3.746  1.00  0.00     0.008 A 
ATOM      7  C   UNL     1     -37.556 -57.992  -4.070  1.00  0.00     0.006 A 
ENDROOT
BRANCH   7   8
ATOM      8  C   UNL     1     -37.104 -58.146  -5.479  1.00  0.00     0.123 C 
BRANCH   8   9
ATOM      9  C   UNL     1     -36.536 -56.841  -5.921  1.00  0.00    -0.013 A 
ATOM     10  C   UNL     1     -35.515 -56.676  -6.799  1.00  0.00     0.007 A 
ATOM     11  C   UNL     1     -37.156 -55.708  -5.361  1.00  0.00     0.007 A 
ATOM     12  C   UNL     1     -35.103 -55.397  -7.129  1.00  0.00     0.000 A 
ATOM     13  C   UNL     1     -36.741 -54.445  -5.694  1.00  0.00     0.000 A 
ATOM     14  C   UNL     1     -35.708 -54.266  -6.582  1.00  0.00     0.000 A 
ENDBRANCH   8   9
BRANCH   8  15
ATOM     15  C   UNL     1     -38.255 -58.363  -6.396  1.00  0.00    -0.013 A 
ATOM     16  C   UNL     1     -38.413 -57.691  -7.579  1.00  0.00     0.007 A 
ATOM     17  C   UNL     1     -39.197 -59.300  -6.053  1.00  0.00     0.007 A 
ATOM     18  C   UNL     1     -39.487 -57.931  -8.427  1.00  0.00     0.000 A 
ATOM     19  C   UNL     1     -40.292 -59.559  -6.894  1.00  0.00     0.000 A 
ATOM     20  C   UNL     1     -40.423 -58.872  -8.069  1.00  0.00     0.000 A 
ENDBRANCH   8  15
BRANCH   8  21
ATOM     21  N   UNL     1     -36.189 -59.244  -5.587  1.00  0.00    -0.319 N 
ATOM     22  C   UNL     1     -35.161 -59.343  -6.475  1.00  0.00     0.109 A 
ATOM     23  C   UNL     1     -36.159 -60.345  -4.837  1.00  0.00     0.200 A 
ATOM     24  C   UNL     1     -34.495 -60.529  -6.261  1.00  0.00     0.131 A 
ATOM     25  N   UNL     1     -35.125 -61.123  -5.253  1.00  0.00    -0.245 NA
ENDBRANCH   8  21
ENDBRANCH   7   8
TORSDOF 4
ENDMDL
MODEL 8
REMARK VINA RESULT:      -6.1      2.085      3.731
REMARK SMILES Clc1ccccc1C(c1ccccc1)(c1ccccc1)n1ccnc1
REMARK SMILES IDX 1 1 2 2 3 3 4 4 5 5 6 6 7 7 8 8 9 9 10 10 14 11 11 12 13 13
REMARK SMILES IDX 12 14 15 15 16 16 20 17 17 18 19 19 18 20 21 21 22 22 25 23
REMARK SMILES IDX 23 24 24 25
REMARK H PARENT
ROOT
ATOM      1  Cl  UNL     1     -39.073 -60.689  -5.023  1.00  0.00    -0.084 Cl
ATOM      2  C   UNL     1     -37.359 -60.633  -5.369  1.00  0.00     0.047 A 
ATOM      3  C   UNL     1     -36.619 -61.781  -5.536  1.00  0.00     0.021 A 
ATOM      4  C   UNL     1     -35.276 -61.740  -5.841  1.00  0.00     0.002 A 
ATOM      5  C   UNL     1     -34.683 -60.509  -5.976  1.00  0.00     0.001 A 
ATOM      6  C   UNL     1     -35.437 -59.341  -5.805  1.00  0.00     0.008 A 
ATOM      7  C   UNL     1     -36.763 -59.389  -5.503  1.00  0.00     0.006 A 
ENDROOT
BRANCH   7   8
ATOM      8  C   UNL     1     -37.538 -58.135  -5.302  1.00  0.00     0.123 C 
BRANCH   8   9
ATOM      9  C   UNL     1     -38.645 -58.117  -6.299  1.00  0.00    -0.013 A 
ATOM     10  C   UNL     1     -39.903 -57.660  -6.080  1.00  0.00     0.007 A 
ATOM     11  C   UNL     1     -38.302 -58.616  -7.570  1.00  0.00     0.007 A 
ATOM     12  C   UNL     1     -40.826 -57.692  -7.111  1.00  0.00     0.000 A 
ATOM     13  C   UNL     1     -39.222 -58.643  -8.585  1.00  0.00     0.000 A 
ATOM     14  C   UNL     1     -40.500 -58.183  -8.375  1.00  0.00     0.000 A 
ENDBRANCH   8   9
BRANCH   8  15
ATOM     15  C   UNL     1     -36.727 -56.937  -5.648  1.00  0.00    -0.013 A 
ATOM     16  C   UNL     1     -35.708 -56.464  -4.863  1.00  0.00     0.007 A 
ATOM     17  C   UNL     1     -36.993 -56.284  -6.825  1.00  0.00     0.007 A 
ATOM     18  C   UNL     1     -34.951 -55.356  -5.223  1.00  0.00     0.000 A 
ATOM     19  C   UNL     1     -36.241 -55.161  -7.210  1.00  0.00     0.000 A 
ATOM     20  C   UNL     1     -35.231 -54.712  -6.405  1.00  0.00     0.000 A 
ENDBRANCH   8  15
BRANCH   8  21
ATOM     21  N   UNL     1     -37.980 -58.041  -3.942  1.00  0.00    -0.319 N 
ATOM     22  C   UNL     1     -39.030 -57.299  -3.493  1.00  0.00     0.109 A 
ATOM     23  C   UNL     1     -37.469 -58.668  -2.883  1.00  0.00     0.200 A 
ATOM     24  C   UNL     1     -39.158 -57.478  -2.134  1.00  0.00     0.131 A 
ATOM     25  N   UNL     1     -38.192 -58.320  -1.786  1.00  0.00    -0.245 NA
ENDBRANCH   8  21
ENDBRANCH   7   8
TORSDOF 4
ENDMDL
MODEL 9
REMARK VINA RESULT:      -6.1      2.117      5.129
REMARK SMILES Clc1ccccc1C(c1ccccc1)(c1ccccc1)n1ccnc1
REMARK SMILES IDX 1 1 2 2 3 3 4 4 5 5 6 6 7 7 8 8 9 9 10 10 14 11 11 12 13 13
REMARK SMILES IDX 12 14 15 15 16 16 20 17 17 18 19 19 18 20 21 21 22 22 25 23
REMARK SMILES IDX 23 24 24 25
REMARK H PARENT
ROOT
ATOM      1  Cl  UNL     1     -38.729 -60.631  -4.509  1.00  0.00    -0.084 Cl
ATOM      2  C   UNL     1     -39.298 -59.582  -5.788  1.00  0.00     0.047 A 
ATOM      3  C   UNL     1     -40.464 -59.844  -6.471  1.00  0.00     0.021 A 
ATOM      4  C   UNL     1     -40.932 -59.003  -7.457  1.00  0.00     0.002 A 
ATOM      5  C   UNL     1     -40.197 -57.880  -7.748  1.00  0.00     0.001 A 
ATOM      6  C   UNL     1     -39.010 -57.614  -7.052  1.00  0.00     0.008 A 
ATOM      7  C   UNL     1     -38.554 -58.450  -6.081  1.00  0.00     0.006 A 
ENDROOT
BRANCH   7   8
ATOM      8  C   UNL     1     -37.277 -58.160  -5.373  1.00  0.00     0.123 C 
BRANCH   8   9
ATOM      9  C   UNL     1     -37.597 -57.916  -3.938  1.00  0.00    -0.013 A 
ATOM     10  C   UNL     1     -38.827 -57.645  -3.434  1.00  0.00     0.007 A 
ATOM     11  C   UNL     1     -36.495 -57.998  -3.066  1.00  0.00     0.007 A 
ATOM     12  C   UNL     1     -38.975 -57.455  -2.071  1.00  0.00     0.000 A 
ATOM     13  C   UNL     1     -36.651 -57.810  -1.717  1.00  0.00     0.000 A 
ATOM     14  C   UNL     1     -37.892 -57.535  -1.196  1.00  0.00     0.000 A 
ENDBRANCH   8   9
BRANCH   8  15
ATOM     15  C   UNL     1     -36.685 -56.875  -5.831  1.00  0.00    -0.013 A 
ATOM     16  C   UNL     1     -35.726 -56.792  -6.805  1.00  0.00     0.007 A 
ATOM     17  C   UNL     1     -37.138 -55.708  -5.268  1.00  0.00     0.007 A 
ATOM     18  C   UNL     1     -35.208 -55.574  -7.230  1.00  0.00     0.000 A 
ATOM     19  C   UNL     1     -36.629 -54.466  -5.681  1.00  0.00     0.000 A 
ATOM     20  C   UNL     1     -35.671 -54.415  -6.656  1.00  0.00     0.000 A 
ENDBRANCH   8  15
BRANCH   8  21
ATOM     21  N   UNL     1     -36.342 -59.225  -5.587  1.00  0.00    -0.319 N 
ATOM     22  C   UNL     1     -36.161 -59.906  -6.752  1.00  0.00     0.109 A 
ATOM     23  C   UNL     1     -35.473 -59.724  -4.708  1.00  0.00     0.200 A 
ATOM     24  C   UNL     1     -35.163 -60.839  -6.576  1.00  0.00     0.131 A 
ATOM     25  N   UNL     1     -34.760 -60.706  -5.318  1.00  0.00    -0.245 NA
ENDBRANCH   8  21
ENDBRANCH   7   8
TORSDOF 4
ENDMDL
