MODEL 1
REMARK VINA RESULT:      -5.8      0.000      0.000
REMARK SMILES O=C(CCC[NH+]1CCC(O)(c2ccc(Cl)cc2)CC1)c1ccc(F)cc1
REMARK SMILES IDX 4 1 3 2 2 3 1 4 20 5 21 6 26 7 22 8 25 9 23 10 24 11 5 12
REMARK SMILES IDX 6 13 7 14 19 15 8 16 18 17 9 18 10 20 11 22 12 23 17 24
REMARK SMILES IDX 13 25 16 26 14 27 15 28
REMARK H PARENT 6 19 10 21
ROOT
ATOM      1  C   UNL     1     100.614  88.166  73.603  1.00  0.00     0.070 C 
ENDROOT
BRANCH   1   2
ATOM      2  C   UNL     1     101.155  86.931  72.917  1.00  0.00     0.087 C 
BRANCH   2   3
ATOM      3  C   UNL     1     100.743  85.669  73.535  1.00  0.00     0.163 C 
ATOM      4  O   UNL     1     101.316  85.222  74.562  1.00  0.00    -0.294 OA
BRANCH   3   5
ATOM      5  C   UNL     1      99.637  84.848  72.997  1.00  0.00     0.018 A 
ATOM      6  C   UNL     1      98.321  85.193  73.246  1.00  0.00     0.015 A 
ATOM      7  C   UNL     1      99.888  83.731  72.243  1.00  0.00     0.015 A 
ATOM      8  C   UNL     1      97.297  84.426  72.744  1.00  0.00     0.040 A 
ATOM      9  C   UNL     1      98.874  82.961  71.739  1.00  0.00     0.040 A 
ATOM     10  C   UNL     1      97.576  83.313  71.992  1.00  0.00     0.123 A 
ATOM     11  F   UNL     1      96.588  82.517  71.473  1.00  0.00    -0.207 F 
ENDBRANCH   3   5
ENDBRANCH   2   3
ENDBRANCH   1   2
BRANCH   1  12
ATOM     12  C   UNL     1     101.479  89.323  73.239  1.00  0.00     0.262 C 
BRANCH  12  13
ATOM     13  N   UNL     1     100.712  90.504  72.863  1.00  0.00    -0.335 N 
ATOM     14  C   UNL     1     101.202  91.116  71.666  1.00  0.00     0.265 C 
ATOM     15  C   UNL     1      99.331  90.171  72.734  1.00  0.00     0.265 C 
ATOM     16  C   UNL     1     101.148  90.169  70.499  1.00  0.00     0.102 C 
ATOM     17  C   UNL     1      98.789  90.079  71.371  1.00  0.00     0.102 C 
ATOM     18  C   UNL     1      99.726  89.752  70.267  1.00  0.00     0.100 C 
ATOM     19  H   UNL     1     100.889  91.199  73.649  1.00  0.00     0.348 HD
BRANCH  18  20
ATOM     20  O   UNL     1      99.290  90.472  69.128  1.00  0.00    -0.385 OA
ATOM     21  H   UNL     1     100.079  90.960  68.783  1.00  0.00     0.211 HD
ENDBRANCH  18  20
BRANCH  18  22
ATOM     22  C   UNL     1      99.641  88.310  69.842  1.00  0.00    -0.016 A 
ATOM     23  C   UNL     1     100.687  87.670  69.209  1.00  0.00     0.008 A 
ATOM     24  C   UNL     1      98.519  87.539  70.056  1.00  0.00     0.008 A 
ATOM     25  C   UNL     1     100.650  86.356  68.804  1.00  0.00     0.021 A 
ATOM     26  C   UNL     1      98.459  86.218  69.658  1.00  0.00     0.021 A 
ATOM     27  C   UNL     1      99.523  85.628  69.033  1.00  0.00     0.041 A 
ATOM     28  Cl  UNL     1      99.456  83.956  68.529  1.00  0.00    -0.084 Cl
ENDBRANCH  18  22
ENDBRANCH  12  13
ENDBRANCH   1  12
TORSDOF 7
ENDMDL
MODEL 2
REMARK VINA RESULT:      -5.7     15.650     17.320
REMARK SMILES O=C(CCC[NH+]1CCC(O)(c2ccc(Cl)cc2)CC1)c1ccc(F)cc1
REMARK SMILES IDX 4 1 3 2 2 3 1 4 20 5 21 6 26 7 22 8 25 9 23 10 24 11 5 12
REMARK SMILES IDX 6 13 7 14 19 15 8 16 18 17 9 18 10 20 11 22 12 23 17 24
REMARK SMILES IDX 13 25 16 26 14 27 15 28
REMARK H PARENT 6 19 10 21
ROOT
ATOM      1  C   UNL     1     112.662  83.334  67.149  1.00  0.00     0.070 C 
ENDROOT
BRANCH   1   2
ATOM      2  C   UNL     1     113.999  84.008  66.934  1.00  0.00     0.087 C 
BRANCH   2   3
ATOM      3  C   UNL     1     115.152  83.204  67.344  1.00  0.00     0.163 C 
ATOM      4  O   UNL     1     115.618  83.269  68.511  1.00  0.00    -0.294 OA
BRANCH   3   5
ATOM      5  C   UNL     1     115.836  82.272  66.422  1.00  0.00     0.018 A 
ATOM      6  C   UNL     1     115.164  81.183  65.899  1.00  0.00     0.015 A 
ATOM      7  C   UNL     1     117.147  82.465  66.066  1.00  0.00     0.015 A 
ATOM      8  C   UNL     1     115.806  80.320  65.042  1.00  0.00     0.040 A 
ATOM      9  C   UNL     1     117.792  81.610  65.214  1.00  0.00     0.040 A 
ATOM     10  C   UNL     1     117.117  80.536  64.702  1.00  0.00     0.123 A 
ATOM     11  F   UNL     1     117.797  79.701  63.854  1.00  0.00    -0.207 F 
ENDBRANCH   3   5
ENDBRANCH   2   3
ENDBRANCH   1   2
BRANCH   1  12
ATOM     12  C   UNL     1     111.703  83.857  66.136  1.00  0.00     0.262 C 
BRANCH  12  13
ATOM     13  N   UNL     1     110.810  82.827  65.621  1.00  0.00    -0.335 N 
ATOM     14  C   UNL     1     110.201  83.202  64.381  1.00  0.00     0.265 C 
ATOM     15  C   UNL     1     111.510  81.591  65.488  1.00  0.00     0.265 C 
ATOM     16  C   UNL     1     111.230  83.462  63.315  1.00  0.00     0.102 C 
ATOM     17  C   UNL     1     111.868  81.167  64.127  1.00  0.00     0.102 C 
ATOM     18  C   UNL     1     112.032  82.215  63.089  1.00  0.00     0.100 C 
ATOM     19  H   UNL     1     110.024  82.772  66.336  1.00  0.00     0.348 HD
BRANCH  18  20
ATOM     20  O   UNL     1     111.562  81.667  61.871  1.00  0.00    -0.385 OA
ATOM     21  H   UNL     1     110.918  82.319  61.497  1.00  0.00     0.211 HD
ENDBRANCH  18  20
BRANCH  18  22
ATOM     22  C   UNL     1     113.477  82.536  62.811  1.00  0.00    -0.016 A 
ATOM     23  C   UNL     1     114.261  81.740  62.003  1.00  0.00     0.008 A 
ATOM     24  C   UNL     1     114.106  83.640  63.344  1.00  0.00     0.008 A 
ATOM     25  C   UNL     1     115.584  81.998  61.724  1.00  0.00     0.021 A 
ATOM     26  C   UNL     1     115.432  83.919  63.079  1.00  0.00     0.021 A 
ATOM     27  C   UNL     1     116.170  83.098  62.269  1.00  0.00     0.041 A 
ATOM     28  Cl  UNL     1     117.848  83.444  61.927  1.00  0.00    -0.084 Cl
ENDBRANCH  18  22
ENDBRANCH  12  13
ENDBRANCH   1  12
TORSDOF 7
ENDMDL
MODEL 3
REMARK VINA RESULT:      -5.6      3.231      6.243
REMARK SMILES O=C(CCC[NH+]1CCC(O)(c2ccc(Cl)cc2)CC1)c1ccc(F)cc1
REMARK SMILES IDX 4 1 3 2 2 3 1 4 20 5 21 6 26 7 22 8 25 9 23 10 24 11 5 12
REMARK SMILES IDX 6 13 7 14 19 15 8 16 18 17 9 18 10 20 11 22 12 23 17 24
REMARK SMILES IDX 13 25 16 26 14 27 15 28
REMARK H PARENT 6 19 10 21
ROOT
ATOM      1  C   UNL     1      99.170  91.389  69.269  1.00  0.00     0.070 C 
ENDROOT
BRANCH   1   2
ATOM      2  C   UNL     1     100.280  91.757  68.311  1.00  0.00     0.087 C 
BRANCH   2   3
ATOM      3  C   UNL     1     100.829  90.624  67.562  1.00  0.00     0.163 C 
ATOM      4  O   UNL     1     100.180  90.072  66.637  1.00  0.00    -0.294 OA
BRANCH   3   5
ATOM      5  C   UNL     1     102.168  90.065  67.841  1.00  0.00     0.018 A 
ATOM      6  C   UNL     1     103.215  90.894  68.201  1.00  0.00     0.015 A 
ATOM      7  C   UNL     1     102.404  88.716  67.750  1.00  0.00     0.015 A 
ATOM      8  C   UNL     1     104.458  90.367  68.459  1.00  0.00     0.040 A 
ATOM      9  C   UNL     1     103.639  88.184  68.006  1.00  0.00     0.040 A 
ATOM     10  C   UNL     1     104.667  89.015  68.361  1.00  0.00     0.123 A 
ATOM     11  F   UNL     1     105.889  88.446  68.607  1.00  0.00    -0.207 F 
ENDBRANCH   3   5
ENDBRANCH   2   3
ENDBRANCH   1   2
BRANCH   1  12
ATOM     12  C   UNL     1      99.721  90.459  70.295  1.00  0.00     0.262 C 
BRANCH  12  13
ATOM     13  N   UNL     1     100.499  91.145  71.318  1.00  0.00    -0.335 N 
ATOM     14  C   UNL     1      99.771  91.313  72.538  1.00  0.00     0.265 C 
ATOM     15  C   UNL     1     101.724  90.452  71.551  1.00  0.00     0.265 C 
ATOM     16  C   UNL     1      99.353  89.990  73.120  1.00  0.00     0.102 C 
ATOM     17  C   UNL     1     101.828  89.674  72.793  1.00  0.00     0.102 C 
ATOM     18  C   UNL     1     100.575  89.171  73.409  1.00  0.00     0.100 C 
ATOM     19  H   UNL     1     100.655  92.121  70.925  1.00  0.00     0.348 HD
BRANCH  18  20
ATOM     20  O   UNL     1     100.754  89.224  74.813  1.00  0.00    -0.385 OA
ATOM     21  H   UNL     1     100.693  88.292  75.141  1.00  0.00     0.211 HD
ENDBRANCH  18  20
BRANCH  18  22
ATOM     22  C   UNL     1     100.334  87.711  73.127  1.00  0.00    -0.016 A 
ATOM     23  C   UNL     1      99.197  87.267  72.485  1.00  0.00     0.008 A 
ATOM     24  C   UNL     1     101.231  86.729  73.489  1.00  0.00     0.008 A 
ATOM     25  C   UNL     1      98.940  85.944  72.208  1.00  0.00     0.021 A 
ATOM     26  C   UNL     1     100.994  85.395  73.223  1.00  0.00     0.021 A 
ATOM     27  C   UNL     1      99.849  85.004  72.582  1.00  0.00     0.041 A 
ATOM     28  Cl  UNL     1      99.542  83.318  72.239  1.00  0.00    -0.084 Cl
ENDBRANCH  18  22
ENDBRANCH  12  13
ENDBRANCH   1  12
TORSDOF 7
ENDMDL
MODEL 4
REMARK VINA RESULT:      -5.5      2.158      4.489
REMARK SMILES O=C(CCC[NH+]1CCC(O)(c2ccc(Cl)cc2)CC1)c1ccc(F)cc1
REMARK SMILES IDX 4 1 3 2 2 3 1 4 20 5 21 6 26 7 22 8 25 9 23 10 24 11 5 12
REMARK SMILES IDX 6 13 7 14 19 15 8 16 18 17 9 18 10 20 11 22 12 23 17 24
REMARK SMILES IDX 13 25 16 26 14 27 15 28
REMARK H PARENT 6 19 10 21
ROOT
ATOM      1  C   UNL     1     101.024  89.312  69.406  1.00  0.00     0.070 C 
ENDROOT
BRANCH   1   2
ATOM      2  C   UNL     1     100.204  88.044  69.329  1.00  0.00     0.087 C 
BRANCH   2   3
ATOM      3  C   UNL     1     100.344  87.312  68.068  1.00  0.00     0.163 C 
ATOM      4  O   UNL     1     100.511  87.913  66.975  1.00  0.00    -0.294 OA
BRANCH   3   5
ATOM      5  C   UNL     1     100.299  85.836  68.000  1.00  0.00     0.018 A 
ATOM      6  C   UNL     1     100.339  85.188  66.778  1.00  0.00     0.015 A 
ATOM      7  C   UNL     1     100.216  85.078  69.139  1.00  0.00     0.015 A 
ATOM      8  C   UNL     1     100.297  83.815  66.722  1.00  0.00     0.040 A 
ATOM      9  C   UNL     1     100.173  83.711  69.091  1.00  0.00     0.040 A 
ATOM     10  C   UNL     1     100.214  83.081  67.877  1.00  0.00     0.123 A 
ATOM     11  F   UNL     1     100.167  81.711  67.869  1.00  0.00    -0.207 F 
ENDBRANCH   3   5
ENDBRANCH   2   3
ENDBRANCH   1   2
BRANCH   1  12
ATOM     12  C   UNL     1     100.200  90.367  70.061  1.00  0.00     0.262 C 
BRANCH  12  13
ATOM     13  N   UNL     1     100.916  91.066  71.120  1.00  0.00    -0.335 N 
ATOM     14  C   UNL     1     100.073  91.387  72.231  1.00  0.00     0.265 C 
ATOM     15  C   UNL     1     102.041  90.297  71.543  1.00  0.00     0.265 C 
ATOM     16  C   UNL     1      99.477  90.152  72.848  1.00  0.00     0.102 C 
ATOM     17  C   UNL     1     101.935  89.613  72.839  1.00  0.00     0.102 C 
ATOM     18  C   UNL     1     100.581  89.262  73.335  1.00  0.00     0.100 C 
ATOM     19  H   UNL     1     101.202  91.993  70.683  1.00  0.00     0.348 HD
BRANCH  18  20
ATOM     20  O   UNL     1     100.606  89.409  74.744  1.00  0.00    -0.385 OA
ATOM     21  H   UNL     1      99.809  89.944  74.986  1.00  0.00     0.211 HD
ENDBRANCH  18  20
BRANCH  18  22
ATOM     22  C   UNL     1     100.245  87.808  73.127  1.00  0.00    -0.016 A 
ATOM     23  C   UNL     1      99.015  87.402  72.653  1.00  0.00     0.008 A 
ATOM     24  C   UNL     1     101.140  86.796  73.394  1.00  0.00     0.008 A 
ATOM     25  C   UNL     1      98.668  86.086  72.449  1.00  0.00     0.021 A 
ATOM     26  C   UNL     1     100.815  85.468  73.197  1.00  0.00     0.021 A 
ATOM     27  C   UNL     1      99.580  85.115  72.725  1.00  0.00     0.041 A 
ATOM     28  Cl  UNL     1      99.161  83.437  72.471  1.00  0.00    -0.084 Cl
ENDBRANCH  18  22
ENDBRANCH  12  13
ENDBRANCH   1  12
TORSDOF 7
ENDMDL
MODEL 5
REMARK VINA RESULT:      -5.4      3.771      6.925
REMARK SMILES O=C(CCC[NH+]1CCC(O)(c2ccc(Cl)cc2)CC1)c1ccc(F)cc1
REMARK SMILES IDX 4 1 3 2 2 3 1 4 20 5 21 6 26 7 22 8 25 9 23 10 24 11 5 12
REMARK SMILES IDX 6 13 7 14 19 15 8 16 18 17 9 18 10 20 11 22 12 23 17 24
REMARK SMILES IDX 13 25 16 26 14 27 15 28
REMARK H PARENT 6 19 10 21
ROOT
ATOM      1  C   UNL     1      99.207  86.073  68.392  1.00  0.00     0.070 C 
ENDROOT
BRANCH   1   2
ATOM      2  C   UNL     1     100.063  87.168  68.990  1.00  0.00     0.087 C 
BRANCH   2   3
ATOM      3  C   UNL     1     101.346  87.368  68.312  1.00  0.00     0.163 C 
ATOM      4  O   UNL     1     101.679  86.673  67.318  1.00  0.00    -0.294 OA
BRANCH   3   5
ATOM      5  C   UNL     1     102.321  88.390  68.748  1.00  0.00     0.018 A 
ATOM      6  C   UNL     1     101.997  89.287  69.751  1.00  0.00     0.015 A 
ATOM      7  C   UNL     1     103.563  88.473  68.173  1.00  0.00     0.015 A 
ATOM      8  C   UNL     1     102.908  90.235  70.151  1.00  0.00     0.040 A 
ATOM      9  C   UNL     1     104.476  89.414  68.567  1.00  0.00     0.040 A 
ATOM     10  C   UNL     1     104.144  90.295  69.559  1.00  0.00     0.123 A 
ATOM     11  F   UNL     1     105.083  91.225  69.925  1.00  0.00    -0.207 F 
ENDBRANCH   3   5
ENDBRANCH   2   3
ENDBRANCH   1   2
BRANCH   1  12
ATOM     12  C   UNL     1      99.627  84.771  68.983  1.00  0.00     0.262 C 
BRANCH  12  13
ATOM     13  N   UNL     1      98.526  84.063  69.623  1.00  0.00    -0.335 N 
ATOM     14  C   UNL     1      98.980  83.034  70.509  1.00  0.00     0.265 C 
ATOM     15  C   UNL     1      97.681  84.986  70.310  1.00  0.00     0.265 C 
ATOM     16  C   UNL     1      99.842  83.591  71.608  1.00  0.00     0.102 C 
ATOM     17  C   UNL     1      97.774  85.014  71.776  1.00  0.00     0.102 C 
ATOM     18  C   UNL     1      99.046  84.581  72.405  1.00  0.00     0.100 C 
ATOM     19  H   UNL     1      98.023  83.572  68.825  1.00  0.00     0.348 HD
BRANCH  18  20
ATOM     20  O   UNL     1      98.707  83.924  73.614  1.00  0.00    -0.385 OA
ATOM     21  H   UNL     1      97.741  84.082  73.759  1.00  0.00     0.211 HD
ENDBRANCH  18  20
BRANCH  18  22
ATOM     22  C   UNL     1      99.900  85.740  72.847  1.00  0.00    -0.016 A 
ATOM     23  C   UNL     1      99.564  87.047  72.560  1.00  0.00     0.008 A 
ATOM     24  C   UNL     1     101.065  85.572  73.562  1.00  0.00     0.008 A 
ATOM     25  C   UNL     1     100.316  88.134  72.945  1.00  0.00     0.021 A 
ATOM     26  C   UNL     1     101.836  86.647  73.958  1.00  0.00     0.021 A 
ATOM     27  C   UNL     1     101.461  87.926  73.649  1.00  0.00     0.041 A 
ATOM     28  Cl  UNL     1     102.429  89.292  74.149  1.00  0.00    -0.084 Cl
ENDBRANCH  18  22
ENDBRANCH  12  13
ENDBRANCH   1  12
TORSDOF 7
ENDMDL
MODEL 6
REMARK VINA RESULT:      -5.4     20.110     22.215
REMARK SMILES O=C(CCC[NH+]1CCC(O)(c2ccc(Cl)cc2)CC1)c1ccc(F)cc1
REMARK SMILES IDX 4 1 3 2 2 3 1 4 20 5 21 6 26 7 22 8 25 9 23 10 24 11 5 12
REMARK SMILES IDX 6 13 7 14 19 15 8 16 18 17 9 18 10 20 11 22 12 23 17 24
REMARK SMILES IDX 13 25 16 26 14 27 15 28
REMARK H PARENT 6 19 10 21
ROOT
ATOM      1  C   UNL     1     110.428  72.584  59.638  1.00  0.00     0.070 C 
ENDROOT
BRANCH   1   2
ATOM      2  C   UNL     1     109.072  71.917  59.591  1.00  0.00     0.087 C 
BRANCH   2   3
ATOM      3  C   UNL     1     108.711  71.198  60.815  1.00  0.00     0.163 C 
ATOM      4  O   UNL     1     109.311  70.148  61.162  1.00  0.00    -0.294 OA
BRANCH   3   5
ATOM      5  C   UNL     1     107.629  71.656  61.713  1.00  0.00     0.018 A 
ATOM      6  C   UNL     1     107.541  71.177  63.007  1.00  0.00     0.015 A 
ATOM      7  C   UNL     1     106.693  72.563  61.286  1.00  0.00     0.015 A 
ATOM      8  C   UNL     1     106.533  71.607  63.837  1.00  0.00     0.040 A 
ATOM      9  C   UNL     1     105.686  72.996  62.106  1.00  0.00     0.040 A 
ATOM     10  C   UNL     1     105.609  72.515  63.385  1.00  0.00     0.123 A 
ATOM     11  F   UNL     1     104.586  72.970  64.175  1.00  0.00    -0.207 F 
ENDBRANCH   3   5
ENDBRANCH   2   3
ENDBRANCH   1   2
BRANCH   1  12
ATOM     12  C   UNL     1     111.364  71.810  58.774  1.00  0.00     0.262 C 
BRANCH  12  13
ATOM     13  N   UNL     1     112.076  70.770  59.505  1.00  0.00    -0.335 N 
ATOM     14  C   UNL     1     113.177  70.235  58.762  1.00  0.00     0.265 C 
ATOM     15  C   UNL     1     112.512  71.269  60.769  1.00  0.00     0.265 C 
ATOM     16  C   UNL     1     114.183  71.300  58.422  1.00  0.00     0.102 C 
ATOM     17  C   UNL     1     113.945  71.565  60.913  1.00  0.00     0.102 C 
ATOM     18  C   UNL     1     114.717  71.898  59.690  1.00  0.00     0.100 C 
ATOM     19  H   UNL     1     111.370  69.981  59.604  1.00  0.00     0.348 HD
BRANCH  18  20
ATOM     20  O   UNL     1     116.014  71.355  59.860  1.00  0.00    -0.385 OA
ATOM     21  H   UNL     1     116.586  72.090  60.195  1.00  0.00     0.211 HD
ENDBRANCH  18  20
BRANCH  18  22
ATOM     22  C   UNL     1     114.956  73.377  59.539  1.00  0.00    -0.016 A 
ATOM     23  C   UNL     1     114.211  74.313  60.225  1.00  0.00     0.008 A 
ATOM     24  C   UNL     1     115.931  73.889  58.710  1.00  0.00     0.008 A 
ATOM     25  C   UNL     1     114.397  75.672  60.115  1.00  0.00     0.021 A 
ATOM     26  C   UNL     1     116.136  75.248  58.583  1.00  0.00     0.021 A 
ATOM     27  C   UNL     1     115.369  76.138  59.286  1.00  0.00     0.041 A 
ATOM     28  Cl  UNL     1     115.624  77.860  59.133  1.00  0.00    -0.084 Cl
ENDBRANCH  18  22
ENDBRANCH  12  13
ENDBRANCH   1  12
TORSDOF 7
ENDMDL
MODEL 7
REMARK VINA RESULT:      -5.4      3.139      5.185
REMARK SMILES O=C(CCC[NH+]1CCC(O)(c2ccc(Cl)cc2)CC1)c1ccc(F)cc1
REMARK SMILES IDX 4 1 3 2 2 3 1 4 20 5 21 6 26 7 22 8 25 9 23 10 24 11 5 12
REMARK SMILES IDX 6 13 7 14 19 15 8 16 18 17 9 18 10 20 11 22 12 23 17 24
REMARK SMILES IDX 13 25 16 26 14 27 15 28
REMARK H PARENT 6 19 10 21
ROOT
ATOM      1  C   UNL     1      99.643  83.485  72.195  1.00  0.00     0.070 C 
ENDROOT
BRANCH   1   2
ATOM      2  C   UNL     1      99.410  84.613  73.175  1.00  0.00     0.087 C 
BRANCH   2   3
ATOM      3  C   UNL     1     100.569  85.483  73.380  1.00  0.00     0.163 C 
ATOM      4  O   UNL     1     101.684  85.021  73.734  1.00  0.00    -0.294 OA
BRANCH   3   5
ATOM      5  C   UNL     1     100.505  86.947  73.183  1.00  0.00     0.018 A 
ATOM      6  C   UNL     1     101.596  87.744  73.478  1.00  0.00     0.015 A 
ATOM      7  C   UNL     1      99.367  87.547  72.706  1.00  0.00     0.015 A 
ATOM      8  C   UNL     1     101.529  89.104  73.294  1.00  0.00     0.040 A 
ATOM      9  C   UNL     1      99.293  88.901  72.519  1.00  0.00     0.040 A 
ATOM     10  C   UNL     1     100.380  89.679  72.815  1.00  0.00     0.123 A 
ATOM     11  F   UNL     1     100.267  91.031  72.617  1.00  0.00    -0.207 F 
ENDBRANCH   3   5
ENDBRANCH   2   3
ENDBRANCH   1   2
BRANCH   1  12
ATOM     12  C   UNL     1     100.125  84.069  70.911  1.00  0.00     0.262 C 
BRANCH  12  13
ATOM     13  N   UNL     1      99.293  83.694  69.775  1.00  0.00    -0.335 N 
ATOM     14  C   UNL     1      97.986  84.273  69.839  1.00  0.00     0.265 C 
ATOM     15  C   UNL     1      99.943  84.045  68.554  1.00  0.00     0.265 C 
ATOM     16  C   UNL     1      98.047  85.776  69.861  1.00  0.00     0.102 C 
ATOM     17  C   UNL     1      99.423  85.213  67.830  1.00  0.00     0.102 C 
ATOM     18  C   UNL     1      98.716  86.261  68.609  1.00  0.00     0.100 C 
ATOM     19  H   UNL     1      99.161  82.644  69.875  1.00  0.00     0.348 HD
BRANCH  18  20
ATOM     20  O   UNL     1      97.680  86.761  67.783  1.00  0.00    -0.385 OA
ATOM     21  H   UNL     1      98.060  87.530  67.288  1.00  0.00     0.211 HD
ENDBRANCH  18  20
BRANCH  18  22
ATOM     22  C   UNL     1      99.580  87.464  68.881  1.00  0.00    -0.016 A 
ATOM     23  C   UNL     1     100.896  87.346  69.277  1.00  0.00     0.008 A 
ATOM     24  C   UNL     1      99.115  88.754  68.752  1.00  0.00     0.008 A 
ATOM     25  C   UNL     1     101.719  88.419  69.535  1.00  0.00     0.021 A 
ATOM     26  C   UNL     1      99.921  89.846  69.006  1.00  0.00     0.021 A 
ATOM     27  C   UNL     1     101.222  89.677  69.397  1.00  0.00     0.041 A 
ATOM     28  Cl  UNL     1     102.250  91.053  69.718  1.00  0.00    -0.084 Cl
ENDBRANCH  18  22
ENDBRANCH  12  13
ENDBRANCH   1  12
TORSDOF 7
ENDMDL
MODEL 8
REMARK VINA RESULT:      -5.4      3.401      6.439
REMARK SMILES O=C(CCC[NH+]1CCC(O)(c2ccc(Cl)cc2)CC1)c1ccc(F)cc1
REMARK SMILES IDX 4 1 3 2 2 3 1 4 20 5 21 6 26 7 22 8 25 9 23 10 24 11 5 12
REMARK SMILES IDX 6 13 7 14 19 15 8 16 18 17 9 18 10 20 11 22 12 23 17 24
REMARK SMILES IDX 13 25 16 26 14 27 15 28
REMARK H PARENT 6 19 10 21
ROOT
ATOM      1  C   UNL     1      99.588  84.329  68.400  1.00  0.00     0.070 C 
ENDROOT
BRANCH   1   2
ATOM      2  C   UNL     1     100.107  85.628  67.824  1.00  0.00     0.087 C 
BRANCH   2   3
ATOM      3  C   UNL     1      99.490  86.829  68.391  1.00  0.00     0.163 C 
ATOM      4  O   UNL     1      98.258  86.878  68.641  1.00  0.00    -0.294 OA
BRANCH   3   5
ATOM      5  C   UNL     1     100.267  88.047  68.703  1.00  0.00     0.018 A 
ATOM      6  C   UNL     1      99.766  89.298  68.392  1.00  0.00     0.015 A 
ATOM      7  C   UNL     1     101.497  87.965  69.304  1.00  0.00     0.015 A 
ATOM      8  C   UNL     1     100.494  90.427  68.684  1.00  0.00     0.040 A 
ATOM      9  C   UNL     1     102.228  89.085  69.599  1.00  0.00     0.040 A 
ATOM     10  C   UNL     1     101.721  90.317  69.287  1.00  0.00     0.123 A 
ATOM     11  F   UNL     1     102.483  91.415  69.595  1.00  0.00    -0.207 F 
ENDBRANCH   3   5
ENDBRANCH   2   3
ENDBRANCH   1   2
BRANCH   1  12
ATOM     12  C   UNL     1     100.088  84.201  69.798  1.00  0.00     0.262 C 
BRANCH  12  13
ATOM     13  N   UNL     1      99.158  83.491  70.666  1.00  0.00    -0.335 N 
ATOM     14  C   UNL     1      99.707  83.234  71.963  1.00  0.00     0.265 C 
ATOM     15  C   UNL     1      97.932  84.213  70.769  1.00  0.00     0.265 C 
ATOM     16  C   UNL     1     100.078  84.510  72.669  1.00  0.00     0.102 C 
ATOM     17  C   UNL     1      97.680  84.928  72.028  1.00  0.00     0.102 C 
ATOM     18  C   UNL     1      98.851  85.355  72.836  1.00  0.00     0.100 C 
ATOM     19  H   UNL     1      99.030  82.542  70.202  1.00  0.00     0.348 HD
BRANCH  18  20
ATOM     20  O   UNL     1      98.478  85.236  74.197  1.00  0.00    -0.385 OA
ATOM     21  H   UNL     1      98.143  84.312  74.318  1.00  0.00     0.211 HD
ENDBRANCH  18  20
BRANCH  18  22
ATOM     22  C   UNL     1      99.167  86.818  72.671  1.00  0.00    -0.016 A 
ATOM     23  C   UNL     1      98.271  87.702  72.106  1.00  0.00     0.008 A 
ATOM     24  C   UNL     1     100.366  87.366  73.070  1.00  0.00     0.008 A 
ATOM     25  C   UNL     1      98.521  89.045  71.938  1.00  0.00     0.021 A 
ATOM     26  C   UNL     1     100.640  88.710  72.911  1.00  0.00     0.021 A 
ATOM     27  C   UNL     1      99.717  89.548  72.345  1.00  0.00     0.041 A 
ATOM     28  Cl  UNL     1     100.055  91.250  72.141  1.00  0.00    -0.084 Cl
ENDBRANCH  18  22
ENDBRANCH  12  13
ENDBRANCH   1  12
TORSDOF 7
ENDMDL
MODEL 9
REMARK VINA RESULT:      -5.4      4.324      6.700
REMARK SMILES O=C(CCC[NH+]1CCC(O)(c2ccc(Cl)cc2)CC1)c1ccc(F)cc1
REMARK SMILES IDX 4 1 3 2 2 3 1 4 20 5 21 6 26 7 22 8 25 9 23 10 24 11 5 12
REMARK SMILES IDX 6 13 7 14 19 15 8 16 18 17 9 18 10 20 11 22 12 23 17 24
REMARK SMILES IDX 13 25 16 26 14 27 15 28
REMARK H PARENT 6 19 10 21
ROOT
ATOM      1  C   UNL     1     102.041  90.430  72.030  1.00  0.00     0.070 C 
ENDROOT
BRANCH   1   2
ATOM      2  C   UNL     1     102.401  91.483  71.006  1.00  0.00     0.087 C 
BRANCH   2   3
ATOM      3  C   UNL     1     103.797  91.441  70.564  1.00  0.00     0.163 C 
ATOM      4  O   UNL     1     104.730  91.868  71.292  1.00  0.00    -0.294 OA
BRANCH   3   5
ATOM      5  C   UNL     1     104.194  90.899  69.247  1.00  0.00     0.018 A 
ATOM      6  C   UNL     1     104.172  89.536  69.013  1.00  0.00     0.015 A 
ATOM      7  C   UNL     1     104.593  91.731  68.232  1.00  0.00     0.015 A 
ATOM      8  C   UNL     1     104.543  89.039  67.787  1.00  0.00     0.040 A 
ATOM      9  C   UNL     1     104.963  91.243  67.008  1.00  0.00     0.040 A 
ATOM     10  C   UNL     1     104.937  89.892  66.788  1.00  0.00     0.123 A 
ATOM     11  F   UNL     1     105.318  89.441  65.551  1.00  0.00    -0.207 F 
ENDBRANCH   3   5
ENDBRANCH   2   3
ENDBRANCH   1   2
BRANCH   1  12
ATOM     12  C   UNL     1     100.556  90.313  72.083  1.00  0.00     0.262 C 
BRANCH  12  13
ATOM     13  N   UNL     1     100.100  88.929  72.099  1.00  0.00    -0.335 N 
ATOM     14  C   UNL     1      98.769  88.786  71.591  1.00  0.00     0.265 C 
ATOM     15  C   UNL     1     101.010  88.103  71.374  1.00  0.00     0.265 C 
ATOM     16  C   UNL     1      98.666  89.266  70.169  1.00  0.00     0.102 C 
ATOM     17  C   UNL     1     100.582  87.638  70.048  1.00  0.00     0.102 C 
ATOM     18  C   UNL     1      99.589  88.456  69.307  1.00  0.00     0.100 C 
ATOM     19  H   UNL     1     100.056  88.674  73.130  1.00  0.00     0.348 HD
BRANCH  18  20
ATOM     20  O   UNL     1      98.763  87.555  68.592  1.00  0.00    -0.385 OA
ATOM     21  H   UNL     1      98.670  87.922  67.678  1.00  0.00     0.211 HD
ENDBRANCH  18  20
BRANCH  18  22
ATOM     22  C   UNL     1     100.220  89.304  68.234  1.00  0.00    -0.016 A 
ATOM     23  C   UNL     1     100.760  88.754  67.090  1.00  0.00     0.008 A 
ATOM     24  C   UNL     1     100.298  90.676  68.325  1.00  0.00     0.008 A 
ATOM     25  C   UNL     1     101.345  89.492  66.087  1.00  0.00     0.021 A 
ATOM     26  C   UNL     1     100.881  91.438  67.331  1.00  0.00     0.021 A 
ATOM     27  C   UNL     1     101.403  90.846  66.213  1.00  0.00     0.041 A 
ATOM     28  Cl  UNL     1     102.141  91.802  64.951  1.00  0.00    -0.084 Cl
ENDBRANCH  18  22
ENDBRANCH  12  13
ENDBRANCH   1  12
TORSDOF 7
ENDMDL
