MODEL 1
REMARK VINA RESULT:      -6.6      0.000      0.000
REMARK SMILES O=C(CCC[NH+]1CCC(O)(c2ccc(Cl)cc2)CC1)c1ccc(F)cc1
REMARK SMILES IDX 4 1 3 2 2 3 1 4 20 5 21 6 26 7 22 8 25 9 23 10 24 11 5 12
REMARK SMILES IDX 6 13 7 14 19 15 8 16 18 17 9 18 10 20 11 22 12 23 17 24
REMARK SMILES IDX 13 25 16 26 14 27 15 28
REMARK H PARENT 6 19 10 21
ROOT
ATOM      1  C   UNL     1     152.018 143.284  97.960  1.00  0.00     0.070 C 
ENDROOT
BRANCH   1   2
ATOM      2  C   UNL     1     152.981 142.156  98.259  1.00  0.00     0.087 C 
BRANCH   2   3
ATOM      3  C   UNL     1     152.415 141.080  99.074  1.00  0.00     0.163 C 
ATOM      4  O   UNL     1     153.128 140.410  99.865  1.00  0.00    -0.294 OA
BRANCH   3   5
ATOM      5  C   UNL     1     150.983 140.716  99.022  1.00  0.00     0.018 A 
ATOM      6  C   UNL     1     150.196 140.795 100.157  1.00  0.00     0.015 A 
ATOM      7  C   UNL     1     150.403 140.294  97.853  1.00  0.00     0.015 A 
ATOM      8  C   UNL     1     148.865 140.455 100.101  1.00  0.00     0.040 A 
ATOM      9  C   UNL     1     149.079 139.954  97.789  1.00  0.00     0.040 A 
ATOM     10  C   UNL     1     148.311 140.037  98.919  1.00  0.00     0.123 A 
ATOM     11  F   UNL     1     146.989 139.685  98.817  1.00  0.00    -0.207 F 
ENDBRANCH   3   5
ENDBRANCH   2   3
ENDBRANCH   1   2
BRANCH   1  12
ATOM     12  C   UNL     1     152.756 144.574  98.068  1.00  0.00     0.262 C 
BRANCH  12  13
ATOM     13  N   UNL     1     153.154 145.106  96.772  1.00  0.00    -0.335 N 
ATOM     14  C   UNL     1     152.047 145.633  96.033  1.00  0.00     0.265 C 
ATOM     15  C   UNL     1     154.169 146.095  96.937  1.00  0.00     0.265 C 
ATOM     16  C   UNL     1     151.368 146.752  96.777  1.00  0.00     0.102 C 
ATOM     17  C   UNL     1     153.771 147.499  96.760  1.00  0.00     0.102 C 
ATOM     18  C   UNL     1     152.352 147.860  97.005  1.00  0.00     0.100 C 
ATOM     19  H   UNL     1     153.499 144.259  96.230  1.00  0.00     0.348 HD
BRANCH  18  20
ATOM     20  O   UNL     1     152.018 148.875  96.076  1.00  0.00    -0.385 OA
ATOM     21  H   UNL     1     152.506 148.665  95.241  1.00  0.00     0.211 HD
ENDBRANCH  18  20
BRANCH  18  22
ATOM     22  C   UNL     1     152.142 148.510  98.348  1.00  0.00    -0.016 A 
ATOM     23  C   UNL     1     150.954 148.395  99.039  1.00  0.00     0.008 A 
ATOM     24  C   UNL     1     153.118 149.259  98.968  1.00  0.00     0.008 A 
ATOM     25  C   UNL     1     150.722 148.973 100.266  1.00  0.00     0.021 A 
ATOM     26  C   UNL     1     152.907 149.849 100.199  1.00  0.00     0.021 A 
ATOM     27  C   UNL     1     151.710 149.705 100.846  1.00  0.00     0.041 A 
ATOM     28  Cl  UNL     1     151.437 150.447 102.405  1.00  0.00    -0.084 Cl
ENDBRANCH  18  22
ENDBRANCH  12  13
ENDBRANCH   1  12
TORSDOF 7
ENDMDL
MODEL 2
REMARK VINA RESULT:      -6.4      1.090      1.548
REMARK SMILES O=C(CCC[NH+]1CCC(O)(c2ccc(Cl)cc2)CC1)c1ccc(F)cc1
REMARK SMILES IDX 4 1 3 2 2 3 1 4 20 5 21 6 26 7 22 8 25 9 23 10 24 11 5 12
REMARK SMILES IDX 6 13 7 14 19 15 8 16 18 17 9 18 10 20 11 22 12 23 17 24
REMARK SMILES IDX 13 25 16 26 14 27 15 28
REMARK H PARENT 6 19 10 21
ROOT
ATOM      1  C   UNL     1     152.112 144.122  97.249  1.00  0.00     0.070 C 
ENDROOT
BRANCH   1   2
ATOM      2  C   UNL     1     152.478 143.380  98.515  1.00  0.00     0.087 C 
BRANCH   2   3
ATOM      3  C   UNL     1     152.345 141.924  98.421  1.00  0.00     0.163 C 
ATOM      4  O   UNL     1     153.341 141.185  98.209  1.00  0.00    -0.294 OA
BRANCH   3   5
ATOM      5  C   UNL     1     151.044 141.237  98.568  1.00  0.00     0.018 A 
ATOM      6  C   UNL     1     150.478 141.066  99.819  1.00  0.00     0.015 A 
ATOM      7  C   UNL     1     150.371 140.756  97.475  1.00  0.00     0.015 A 
ATOM      8  C   UNL     1     149.269 140.426  99.949  1.00  0.00     0.040 A 
ATOM      9  C   UNL     1     149.166 140.117  97.596  1.00  0.00     0.040 A 
ATOM     10  C   UNL     1     148.617 139.954  98.839  1.00  0.00     0.123 A 
ATOM     11  F   UNL     1     147.410 139.308  98.921  1.00  0.00    -0.207 F 
ENDBRANCH   3   5
ENDBRANCH   2   3
ENDBRANCH   1   2
BRANCH   1  12
ATOM     12  C   UNL     1     152.092 145.581  97.547  1.00  0.00     0.262 C 
BRANCH  12  13
ATOM     13  N   UNL     1     152.037 146.402  96.344  1.00  0.00    -0.335 N 
ATOM     14  C   UNL     1     150.721 146.903  96.084  1.00  0.00     0.265 C 
ATOM     15  C   UNL     1     152.977 147.471  96.435  1.00  0.00     0.265 C 
ATOM     16  C   UNL     1     150.219 147.754  97.219  1.00  0.00     0.102 C 
ATOM     17  C   UNL     1     152.441 148.814  96.696  1.00  0.00     0.102 C 
ATOM     18  C   UNL     1     151.141 148.922  97.404  1.00  0.00     0.100 C 
ATOM     19  H   UNL     1     152.264 145.730  95.552  1.00  0.00     0.348 HD
BRANCH  18  20
ATOM     20  O   UNL     1     150.465 150.041  96.857  1.00  0.00    -0.385 OA
ATOM     21  H   UNL     1     149.573 149.720  96.571  1.00  0.00     0.211 HD
ENDBRANCH  18  20
BRANCH  18  22
ATOM     22  C   UNL     1     151.300 149.268  98.861  1.00  0.00    -0.016 A 
ATOM     23  C   UNL     1     152.315 150.086  99.312  1.00  0.00     0.008 A 
ATOM     24  C   UNL     1     150.447 148.793  99.833  1.00  0.00     0.008 A 
ATOM     25  C   UNL     1     152.496 150.426 100.634  1.00  0.00     0.021 A 
ATOM     26  C   UNL     1     150.609 149.120 101.165  1.00  0.00     0.021 A 
ATOM     27  C   UNL     1     151.632 149.936 101.563  1.00  0.00     0.041 A 
ATOM     28  Cl  UNL     1     151.843 150.357 103.246  1.00  0.00    -0.084 Cl
ENDBRANCH  18  22
ENDBRANCH  12  13
ENDBRANCH   1  12
TORSDOF 7
ENDMDL
MODEL 3
REMARK VINA RESULT:      -6.4      1.153      1.518
REMARK SMILES O=C(CCC[NH+]1CCC(O)(c2ccc(Cl)cc2)CC1)c1ccc(F)cc1
REMARK SMILES IDX 4 1 3 2 2 3 1 4 20 5 21 6 26 7 22 8 25 9 23 10 24 11 5 12
REMARK SMILES IDX 6 13 7 14 19 15 8 16 18 17 9 18 10 20 11 22 12 23 17 24
REMARK SMILES IDX 13 25 16 26 14 27 15 28
REMARK H PARENT 6 19 10 21
ROOT
ATOM      1  C   UNL     1     152.077 142.879  97.611  1.00  0.00     0.070 C 
ENDROOT
BRANCH   1   2
ATOM      2  C   UNL     1     153.040 142.000  98.377  1.00  0.00     0.087 C 
BRANCH   2   3
ATOM      3  C   UNL     1     152.395 141.002  99.233  1.00  0.00     0.163 C 
ATOM      4  O   UNL     1     153.037 140.386 100.123  1.00  0.00    -0.294 OA
BRANCH   3   5
ATOM      5  C   UNL     1     150.963 140.658  99.107  1.00  0.00     0.018 A 
ATOM      6  C   UNL     1     150.440 140.263  97.889  1.00  0.00     0.015 A 
ATOM      7  C   UNL     1     150.124 140.721 100.190  1.00  0.00     0.015 A 
ATOM      8  C   UNL     1     149.107 139.944  97.780  1.00  0.00     0.040 A 
ATOM      9  C   UNL     1     148.796 140.405 100.089  1.00  0.00     0.040 A 
ATOM     10  C   UNL     1     148.290 140.016  98.879  1.00  0.00     0.123 A 
ATOM     11  F   UNL     1     146.955 139.710  98.816  1.00  0.00    -0.207 F 
ENDBRANCH   3   5
ENDBRANCH   2   3
ENDBRANCH   1   2
BRANCH   1  12
ATOM     12  C   UNL     1     152.290 144.292  98.034  1.00  0.00     0.262 C 
BRANCH  12  13
ATOM     13  N   UNL     1     152.715 145.151  96.937  1.00  0.00    -0.335 N 
ATOM     14  C   UNL     1     151.683 146.046  96.510  1.00  0.00     0.265 C 
ATOM     15  C   UNL     1     153.891 145.871  97.304  1.00  0.00     0.265 C 
ATOM     16  C   UNL     1     151.239 146.950  97.627  1.00  0.00     0.102 C 
ATOM     17  C   UNL     1     153.731 147.299  97.614  1.00  0.00     0.102 C 
ATOM     18  C   UNL     1     152.407 147.766  98.095  1.00  0.00     0.100 C 
ATOM     19  H   UNL     1     152.887 144.484  96.126  1.00  0.00     0.348 HD
BRANCH  18  20
ATOM     20  O   UNL     1     152.210 149.065  97.566  1.00  0.00    -0.385 OA
ATOM     21  H   UNL     1     152.118 148.960  96.586  1.00  0.00     0.211 HD
ENDBRANCH  18  20
BRANCH  18  22
ATOM     22  C   UNL     1     152.370 147.970  99.587  1.00  0.00    -0.016 A 
ATOM     23  C   UNL     1     151.448 148.801 100.189  1.00  0.00     0.008 A 
ATOM     24  C   UNL     1     153.250 147.344 100.442  1.00  0.00     0.008 A 
ATOM     25  C   UNL     1     151.381 149.015 101.547  1.00  0.00     0.021 A 
ATOM     26  C   UNL     1     153.202 147.543 101.807  1.00  0.00     0.021 A 
ATOM     27  C   UNL     1     152.268 148.378 102.358  1.00  0.00     0.041 A 
ATOM     28  Cl  UNL     1     152.199 148.635 104.085  1.00  0.00    -0.084 Cl
ENDBRANCH  18  22
ENDBRANCH  12  13
ENDBRANCH   1  12
TORSDOF 7
ENDMDL
MODEL 4
REMARK VINA RESULT:      -6.4      4.774      7.429
REMARK SMILES O=C(CCC[NH+]1CCC(O)(c2ccc(Cl)cc2)CC1)c1ccc(F)cc1
REMARK SMILES IDX 4 1 3 2 2 3 1 4 20 5 21 6 26 7 22 8 25 9 23 10 24 11 5 12
REMARK SMILES IDX 6 13 7 14 19 15 8 16 18 17 9 18 10 20 11 22 12 23 17 24
REMARK SMILES IDX 13 25 16 26 14 27 15 28
REMARK H PARENT 6 19 10 21
ROOT
ATOM      1  C   UNL     1     151.628 150.332  98.582  1.00  0.00     0.070 C 
ENDROOT
BRANCH   1   2
ATOM      2  C   UNL     1     150.662 150.468  97.427  1.00  0.00     0.087 C 
BRANCH   2   3
ATOM      3  C   UNL     1     150.632 149.312  96.527  1.00  0.00     0.163 C 
ATOM      4  O   UNL     1     149.548 148.768  96.193  1.00  0.00    -0.294 OA
BRANCH   3   5
ATOM      5  C   UNL     1     151.861 148.720  95.958  1.00  0.00     0.018 A 
ATOM      6  C   UNL     1     153.107 149.135  96.392  1.00  0.00     0.015 A 
ATOM      7  C   UNL     1     151.795 147.749  94.992  1.00  0.00     0.015 A 
ATOM      8  C   UNL     1     154.245 148.580  95.859  1.00  0.00     0.040 A 
ATOM      9  C   UNL     1     152.925 147.191  94.456  1.00  0.00     0.040 A 
ATOM     10  C   UNL     1     154.152 147.610  94.893  1.00  0.00     0.123 A 
ATOM     11  F   UNL     1     155.259 147.030  94.332  1.00  0.00    -0.207 F 
ENDBRANCH   3   5
ENDBRANCH   2   3
ENDBRANCH   1   2
BRANCH   1  12
ATOM     12  C   UNL     1     150.953 150.816  99.820  1.00  0.00     0.262 C 
BRANCH  12  13
ATOM     13  N   UNL     1     151.831 150.804 100.982  1.00  0.00    -0.335 N 
ATOM     14  C   UNL     1     151.341 149.960 102.029  1.00  0.00     0.265 C 
ATOM     15  C   UNL     1     153.150 150.419 100.597  1.00  0.00     0.265 C 
ATOM     16  C   UNL     1     151.201 148.534 101.571  1.00  0.00     0.102 C 
ATOM     17  C   UNL     1     153.584 149.062 100.959  1.00  0.00     0.102 C 
ATOM     18  C   UNL     1     152.543 148.020 101.141  1.00  0.00     0.100 C 
ATOM     19  H   UNL     1     151.793 151.798 101.357  1.00  0.00     0.348 HD
BRANCH  18  20
ATOM     20  O   UNL     1     152.987 147.171 102.184  1.00  0.00    -0.385 OA
ATOM     21  H   UNL     1     153.697 147.663 102.666  1.00  0.00     0.211 HD
ENDBRANCH  18  20
BRANCH  18  22
ATOM     22  C   UNL     1     152.423 147.105  99.950  1.00  0.00    -0.016 A 
ATOM     23  C   UNL     1     153.529 146.652  99.261  1.00  0.00     0.008 A 
ATOM     24  C   UNL     1     151.208 146.664  99.475  1.00  0.00     0.008 A 
ATOM     25  C   UNL     1     153.463 145.816  98.170  1.00  0.00     0.021 A 
ATOM     26  C   UNL     1     151.117 145.826  98.381  1.00  0.00     0.021 A 
ATOM     27  C   UNL     1     152.244 145.402  97.731  1.00  0.00     0.041 A 
ATOM     28  Cl  UNL     1     152.138 144.340  96.348  1.00  0.00    -0.084 Cl
ENDBRANCH  18  22
ENDBRANCH  12  13
ENDBRANCH   1  12
TORSDOF 7
ENDMDL
MODEL 5
REMARK VINA RESULT:      -6.3      1.228      1.858
REMARK SMILES O=C(CCC[NH+]1CCC(O)(c2ccc(Cl)cc2)CC1)c1ccc(F)cc1
REMARK SMILES IDX 4 1 3 2 2 3 1 4 20 5 21 6 26 7 22 8 25 9 23 10 24 11 5 12
REMARK SMILES IDX 6 13 7 14 19 15 8 16 18 17 9 18 10 20 11 22 12 23 17 24
REMARK SMILES IDX 13 25 16 26 14 27 15 28
REMARK H PARENT 6 19 10 21
ROOT
ATOM      1  C   UNL     1     152.406 144.366  97.278  1.00  0.00     0.070 C 
ENDROOT
BRANCH   1   2
ATOM      2  C   UNL     1     152.295 143.605  98.580  1.00  0.00     0.087 C 
BRANCH   2   3
ATOM      3  C   UNL     1     152.263 142.149  98.428  1.00  0.00     0.163 C 
ATOM      4  O   UNL     1     153.306 141.491  98.178  1.00  0.00    -0.294 OA
BRANCH   3   5
ATOM      5  C   UNL     1     151.015 141.367  98.557  1.00  0.00     0.018 A 
ATOM      6  C   UNL     1     150.401 140.834  97.438  1.00  0.00     0.015 A 
ATOM      7  C   UNL     1     150.440 141.151  99.783  1.00  0.00     0.015 A 
ATOM      8  C   UNL     1     149.241 140.107  97.566  1.00  0.00     0.040 A 
ATOM      9  C   UNL     1     149.285 140.428  99.918  1.00  0.00     0.040 A 
ATOM     10  C   UNL     1     148.687 139.906  98.804  1.00  0.00     0.123 A 
ATOM     11  F   UNL     1     147.531 139.191  98.979  1.00  0.00    -0.207 F 
ENDBRANCH   3   5
ENDBRANCH   2   3
ENDBRANCH   1   2
BRANCH   1  12
ATOM     12  C   UNL     1     152.468 145.822  97.587  1.00  0.00     0.262 C 
BRANCH  12  13
ATOM     13  N   UNL     1     152.247 146.657  96.413  1.00  0.00    -0.335 N 
ATOM     14  C   UNL     1     150.865 146.977  96.221  1.00  0.00     0.265 C 
ATOM     15  C   UNL     1     153.035 147.843  96.498  1.00  0.00     0.265 C 
ATOM     16  C   UNL     1     150.302 147.722  97.401  1.00  0.00     0.102 C 
ATOM     17  C   UNL     1     152.331 149.092  96.822  1.00  0.00     0.102 C 
ATOM     18  C   UNL     1     151.061 149.002  97.584  1.00  0.00     0.100 C 
ATOM     19  H   UNL     1     152.529 146.043  95.591  1.00  0.00     0.348 HD
BRANCH  18  20
ATOM     20  O   UNL     1     150.215 150.029  97.100  1.00  0.00    -0.385 OA
ATOM     21  H   UNL     1     150.784 150.829  96.975  1.00  0.00     0.211 HD
ENDBRANCH  18  20
BRANCH  18  22
ATOM     22  C   UNL     1     151.236 149.330  99.044  1.00  0.00    -0.016 A 
ATOM     23  C   UNL     1     151.526 150.607  99.477  1.00  0.00     0.008 A 
ATOM     24  C   UNL     1     151.117 148.381 100.036  1.00  0.00     0.008 A 
ATOM     25  C   UNL     1     151.693 150.948 100.800  1.00  0.00     0.021 A 
ATOM     26  C   UNL     1     151.282 148.700 101.369  1.00  0.00     0.021 A 
ATOM     27  C   UNL     1     151.569 149.983 101.750  1.00  0.00     0.041 A 
ATOM     28  Cl  UNL     1     151.776 150.395 103.435  1.00  0.00    -0.084 Cl
ENDBRANCH  18  22
ENDBRANCH  12  13
ENDBRANCH   1  12
TORSDOF 7
ENDMDL
MODEL 6
REMARK VINA RESULT:      -6.1      2.628      3.851
REMARK SMILES O=C(CCC[NH+]1CCC(O)(c2ccc(Cl)cc2)CC1)c1ccc(F)cc1
REMARK SMILES IDX 4 1 3 2 2 3 1 4 20 5 21 6 26 7 22 8 25 9 23 10 24 11 5 12
REMARK SMILES IDX 6 13 7 14 19 15 8 16 18 17 9 18 10 20 11 22 12 23 17 24
REMARK SMILES IDX 13 25 16 26 14 27 15 28
REMARK H PARENT 6 19 10 21
ROOT
ATOM      1  C   UNL     1     151.739 143.833  98.520  1.00  0.00     0.070 C 
ENDROOT
BRANCH   1   2
ATOM      2  C   UNL     1     152.762 142.785  98.141  1.00  0.00     0.087 C 
BRANCH   2   3
ATOM      3  C   UNL     1     152.440 141.433  98.601  1.00  0.00     0.163 C 
ATOM      4  O   UNL     1     153.340 140.623  98.942  1.00  0.00    -0.294 OA
BRANCH   3   5
ATOM      5  C   UNL     1     151.050 140.939  98.696  1.00  0.00     0.018 A 
ATOM      6  C   UNL     1     150.363 140.554  97.558  1.00  0.00     0.015 A 
ATOM      7  C   UNL     1     150.412 140.850  99.906  1.00  0.00     0.015 A 
ATOM      8  C   UNL     1     149.071 140.096  97.653  1.00  0.00     0.040 A 
ATOM      9  C   UNL     1     149.125 140.394 100.009  1.00  0.00     0.040 A 
ATOM     10  C   UNL     1     148.456 140.017  98.877  1.00  0.00     0.123 A 
ATOM     11  F   UNL     1     147.168 139.568  99.018  1.00  0.00    -0.207 F 
ENDBRANCH   3   5
ENDBRANCH   2   3
ENDBRANCH   1   2
BRANCH   1  12
ATOM     12  C   UNL     1     152.421 145.156  98.584  1.00  0.00     0.262 C 
BRANCH  12  13
ATOM     13  N   UNL     1     151.711 146.116  99.419  1.00  0.00    -0.335 N 
ATOM     14  C   UNL     1     152.559 147.173  99.879  1.00  0.00     0.265 C 
ATOM     15  C   UNL     1     150.584 146.639  98.717  1.00  0.00     0.265 C 
ATOM     16  C   UNL     1     153.152 147.945  98.733  1.00  0.00     0.102 C 
ATOM     17  C   UNL     1     150.691 148.013  98.208  1.00  0.00     0.102 C 
ATOM     18  C   UNL     1     152.046 148.548  97.919  1.00  0.00     0.100 C 
ATOM     19  H   UNL     1     151.428 145.562 100.282  1.00  0.00     0.348 HD
BRANCH  18  20
ATOM     20  O   UNL     1     152.025 149.925  98.250  1.00  0.00    -0.385 OA
ATOM     21  H   UNL     1     151.080 150.160  98.425  1.00  0.00     0.211 HD
ENDBRANCH  18  20
BRANCH  18  22
ATOM     22  C   UNL     1     152.375 148.531  96.449  1.00  0.00    -0.016 A 
ATOM     23  C   UNL     1     153.393 149.294  95.918  1.00  0.00     0.008 A 
ATOM     24  C   UNL     1     151.683 147.755  95.545  1.00  0.00     0.008 A 
ATOM     25  C   UNL     1     153.725 149.307  94.583  1.00  0.00     0.021 A 
ATOM     26  C   UNL     1     151.998 147.752  94.200  1.00  0.00     0.021 A 
ATOM     27  C   UNL     1     153.019 148.528  93.721  1.00  0.00     0.041 A 
ATOM     28  Cl  UNL     1     153.425 148.528  92.022  1.00  0.00    -0.084 Cl
ENDBRANCH  18  22
ENDBRANCH  12  13
ENDBRANCH   1  12
TORSDOF 7
ENDMDL
MODEL 7
REMARK VINA RESULT:      -6.0      5.157      6.201
REMARK SMILES O=C(CCC[NH+]1CCC(O)(c2ccc(Cl)cc2)CC1)c1ccc(F)cc1
REMARK SMILES IDX 4 1 3 2 2 3 1 4 20 5 21 6 26 7 22 8 25 9 23 10 24 11 5 12
REMARK SMILES IDX 6 13 7 14 19 15 8 16 18 17 9 18 10 20 11 22 12 23 17 24
REMARK SMILES IDX 13 25 16 26 14 27 15 28
REMARK H PARENT 6 19 10 21
ROOT
ATOM      1  C   UNL     1     152.419 147.251  95.758  1.00  0.00     0.070 C 
ENDROOT
BRANCH   1   2
ATOM      2  C   UNL     1     150.947 146.955  95.936  1.00  0.00     0.087 C 
BRANCH   2   3
ATOM      3  C   UNL     1     150.188 148.033  96.575  1.00  0.00     0.163 C 
ATOM      4  O   UNL     1     149.331 148.700  95.938  1.00  0.00    -0.294 OA
BRANCH   3   5
ATOM      5  C   UNL     1     150.378 148.403  97.993  1.00  0.00     0.018 A 
ATOM      6  C   UNL     1     150.961 149.611  98.332  1.00  0.00     0.015 A 
ATOM      7  C   UNL     1     149.983 147.561  99.001  1.00  0.00     0.015 A 
ATOM      8  C   UNL     1     151.135 149.948  99.653  1.00  0.00     0.040 A 
ATOM      9  C   UNL     1     150.153 147.890 100.320  1.00  0.00     0.040 A 
ATOM     10  C   UNL     1     150.730 149.088 100.643  1.00  0.00     0.123 A 
ATOM     11  F   UNL     1     150.886 149.381 101.973  1.00  0.00    -0.207 F 
ENDBRANCH   3   5
ENDBRANCH   2   3
ENDBRANCH   1   2
BRANCH   1  12
ATOM     12  C   UNL     1     152.557 148.600  95.139  1.00  0.00     0.262 C 
BRANCH  12  13
ATOM     13  N   UNL     1     153.894 148.844  94.613  1.00  0.00    -0.335 N 
ATOM     14  C   UNL     1     154.391 150.140  94.961  1.00  0.00     0.265 C 
ATOM     15  C   UNL     1     154.789 147.823  95.052  1.00  0.00     0.265 C 
ATOM     16  C   UNL     1     154.468 150.320  96.453  1.00  0.00     0.102 C 
ATOM     17  C   UNL     1     155.750 148.182  96.104  1.00  0.00     0.102 C 
ATOM     18  C   UNL     1     155.395 149.289  97.026  1.00  0.00     0.100 C 
ATOM     19  H   UNL     1     153.769 148.845  93.557  1.00  0.00     0.348 HD
BRANCH  18  20
ATOM     20  O   UNL     1     156.597 149.974  97.331  1.00  0.00    -0.385 OA
ATOM     21  H   UNL     1     156.955 149.563  98.157  1.00  0.00     0.211 HD
ENDBRANCH  18  20
BRANCH  18  22
ATOM     22  C   UNL     1     154.906 148.797  98.363  1.00  0.00    -0.016 A 
ATOM     23  C   UNL     1     154.991 149.569  99.503  1.00  0.00     0.008 A 
ATOM     24  C   UNL     1     154.346 147.550  98.533  1.00  0.00     0.008 A 
ATOM     25  C   UNL     1     154.557 149.156 100.742  1.00  0.00     0.021 A 
ATOM     26  C   UNL     1     153.903 147.114  99.767  1.00  0.00     0.021 A 
ATOM     27  C   UNL     1     154.009 147.918 100.869  1.00  0.00     0.041 A 
ATOM     28  Cl  UNL     1     153.450 147.376 102.433  1.00  0.00    -0.084 Cl
ENDBRANCH  18  22
ENDBRANCH  12  13
ENDBRANCH   1  12
TORSDOF 7
ENDMDL
MODEL 8
REMARK VINA RESULT:      -6.0      0.679      1.478
REMARK SMILES O=C(CCC[NH+]1CCC(O)(c2ccc(Cl)cc2)CC1)c1ccc(F)cc1
REMARK SMILES IDX 4 1 3 2 2 3 1 4 20 5 21 6 26 7 22 8 25 9 23 10 24 11 5 12
REMARK SMILES IDX 6 13 7 14 19 15 8 16 18 17 9 18 10 20 11 22 12 23 17 24
REMARK SMILES IDX 13 25 16 26 14 27 15 28
REMARK H PARENT 6 19 10 21
ROOT
ATOM      1  C   UNL     1     151.757 143.477  97.723  1.00  0.00     0.070 C 
ENDROOT
BRANCH   1   2
ATOM      2  C   UNL     1     152.888 142.618  98.243  1.00  0.00     0.087 C 
BRANCH   2   3
ATOM      3  C   UNL     1     152.486 141.265  98.636  1.00  0.00     0.163 C 
ATOM      4  O   UNL     1     153.338 140.385  98.926  1.00  0.00    -0.294 OA
BRANCH   3   5
ATOM      5  C   UNL     1     151.070 140.852  98.716  1.00  0.00     0.018 A 
ATOM      6  C   UNL     1     150.391 140.445  97.581  1.00  0.00     0.015 A 
ATOM      7  C   UNL     1     150.398 140.861  99.912  1.00  0.00     0.015 A 
ATOM      8  C   UNL     1     149.073 140.062  97.663  1.00  0.00     0.040 A 
ATOM      9  C   UNL     1     149.085 140.480 100.001  1.00  0.00     0.040 A 
ATOM     10  C   UNL     1     148.425 140.080  98.872  1.00  0.00     0.123 A 
ATOM     11  F   UNL     1     147.111 139.709  99.001  1.00  0.00    -0.207 F 
ENDBRANCH   3   5
ENDBRANCH   2   3
ENDBRANCH   1   2
BRANCH   1  12
ATOM     12  C   UNL     1     152.092 144.905  97.983  1.00  0.00     0.262 C 
BRANCH  12  13
ATOM     13  N   UNL     1     152.474 145.623  96.773  1.00  0.00    -0.335 N 
ATOM     14  C   UNL     1     151.389 146.369  96.214  1.00  0.00     0.265 C 
ATOM     15  C   UNL     1     153.590 146.473  97.038  1.00  0.00     0.265 C 
ATOM     16  C   UNL     1     150.863 147.392  97.183  1.00  0.00     0.102 C 
ATOM     17  C   UNL     1     153.324 147.915  97.134  1.00  0.00     0.102 C 
ATOM     18  C   UNL     1     151.963 148.350  97.533  1.00  0.00     0.100 C 
ATOM     19  H   UNL     1     152.706 144.859  96.071  1.00  0.00     0.348 HD
BRANCH  18  20
ATOM     20  O   UNL     1     151.683 149.540  96.818  1.00  0.00    -0.385 OA
ATOM     21  H   UNL     1     150.763 149.449  96.465  1.00  0.00     0.211 HD
ENDBRANCH  18  20
BRANCH  18  22
ATOM     22  C   UNL     1     151.887 148.767  98.979  1.00  0.00    -0.016 A 
ATOM     23  C   UNL     1     152.973 149.291  99.647  1.00  0.00     0.008 A 
ATOM     24  C   UNL     1     150.733 148.652  99.723  1.00  0.00     0.008 A 
ATOM     25  C   UNL     1     152.946 149.683 100.966  1.00  0.00     0.021 A 
ATOM     26  C   UNL     1     150.682 149.038 101.048  1.00  0.00     0.021 A 
ATOM     27  C   UNL     1     151.788 149.553 101.668  1.00  0.00     0.041 A 
ATOM     28  Cl  UNL     1     151.731 150.047 103.343  1.00  0.00    -0.084 Cl
ENDBRANCH  18  22
ENDBRANCH  12  13
ENDBRANCH   1  12
TORSDOF 7
ENDMDL
MODEL 9
REMARK VINA RESULT:      -6.0      4.401      5.729
REMARK SMILES O=C(CCC[NH+]1CCC(O)(c2ccc(Cl)cc2)CC1)c1ccc(F)cc1
REMARK SMILES IDX 4 1 3 2 2 3 1 4 20 5 21 6 26 7 22 8 25 9 23 10 24 11 5 12
REMARK SMILES IDX 6 13 7 14 19 15 8 16 18 17 9 18 10 20 11 22 12 23 17 24
REMARK SMILES IDX 13 25 16 26 14 27 15 28
REMARK H PARENT 6 19 10 21
ROOT
ATOM      1  C   UNL     1     151.415 145.906  97.506  1.00  0.00     0.070 C 
ENDROOT
BRANCH   1   2
ATOM      2  C   UNL     1     151.871 145.425  98.865  1.00  0.00     0.087 C 
BRANCH   2   3
ATOM      3  C   UNL     1     151.771 146.430  99.926  1.00  0.00     0.163 C 
ATOM      4  O   UNL     1     150.656 146.868 100.312  1.00  0.00    -0.294 OA
BRANCH   3   5
ATOM      5  C   UNL     1     152.960 146.987 100.604  1.00  0.00     0.018 A 
ATOM      6  C   UNL     1     152.906 147.338 101.941  1.00  0.00     0.015 A 
ATOM      7  C   UNL     1     154.139 147.169  99.928  1.00  0.00     0.015 A 
ATOM      8  C   UNL     1     154.016 147.856 102.566  1.00  0.00     0.040 A 
ATOM      9  C   UNL     1     155.249 147.684 100.543  1.00  0.00     0.040 A 
ATOM     10  C   UNL     1     155.183 148.027 101.866  1.00  0.00     0.123 A 
ATOM     11  F   UNL     1     156.313 148.541 102.447  1.00  0.00    -0.207 F 
ENDBRANCH   3   5
ENDBRANCH   2   3
ENDBRANCH   1   2
BRANCH   1  12
ATOM     12  C   UNL     1     152.488 146.761  96.924  1.00  0.00     0.262 C 
BRANCH  12  13
ATOM     13  N   UNL     1     152.009 147.607  95.839  1.00  0.00    -0.335 N 
ATOM     14  C   UNL     1     150.615 147.911  95.957  1.00  0.00     0.265 C 
ATOM     15  C   UNL     1     152.784 148.803  95.770  1.00  0.00     0.265 C 
ATOM     16  C   UNL     1     150.313 148.632  97.242  1.00  0.00     0.102 C 
ATOM     17  C   UNL     1     152.153 150.038  96.258  1.00  0.00     0.102 C 
ATOM     18  C   UNL     1     151.080 149.920  97.276  1.00  0.00     0.100 C 
ATOM     19  H   UNL     1     152.113 147.008  94.967  1.00  0.00     0.348 HD
BRANCH  18  20
ATOM     20  O   UNL     1     150.137 150.941  97.003  1.00  0.00    -0.385 OA
ATOM     21  H   UNL     1     150.649 151.785  96.928  1.00  0.00     0.211 HD
ENDBRANCH  18  20
BRANCH  18  22
ATOM     22  C   UNL     1     151.564 150.232  98.668  1.00  0.00    -0.016 A 
ATOM     23  C   UNL     1     152.879 150.555  98.931  1.00  0.00     0.008 A 
ATOM     24  C   UNL     1     150.728 150.216  99.763  1.00  0.00     0.008 A 
ATOM     25  C   UNL     1     153.361 150.846 100.187  1.00  0.00     0.021 A 
ATOM     26  C   UNL     1     151.189 150.504 101.033  1.00  0.00     0.021 A 
ATOM     27  C   UNL     1     152.504 150.819 101.243  1.00  0.00     0.041 A 
ATOM     28  Cl  UNL     1     153.095 151.187 102.845  1.00  0.00    -0.084 Cl
ENDBRANCH  18  22
ENDBRANCH  12  13
ENDBRANCH   1  12
TORSDOF 7
ENDMDL
