MODEL 1
REMARK VINA RESULT:       2.1      0.000      0.000
REMARK SMILES O=C1c2c([O-])ccc(O)c2C(=O)c2c(NCC[NH2+]CCO)ccc(NCCNCCO)c21
REMARK SMILES IDX 1 1 2 2 3 3 4 4 5 5 6 6 7 7 8 8 10 9 11 10 12 11 13 12 14 13
REMARK SMILES IDX 22 14 23 15 24 16 32 17 25 18 26 20 27 21 28 22 29 24 30 25
REMARK SMILES IDX 31 26 9 28 15 30 16 32 17 33 18 34 19 37 20 38 21 39
REMARK H PARENT 25 19 28 23 31 27 9 29 15 31 18 35 18 36 21 40
ROOT
ATOM      1  O   UNL     1       1.852  -2.701   1.973  1.00  0.00    -0.288 OA
ATOM      2  C   UNL     1       2.054  -1.918   1.012  1.00  0.00     0.196 C 
ATOM      3  C   UNL     1       3.375  -1.255   0.919  1.00  0.00     0.030 A 
ATOM      4  C   UNL     1       4.308  -1.541   1.896  1.00  0.00    -0.097 A 
ATOM      5  O   UNL     1       3.982  -2.428   2.918  1.00  0.00    -0.872 OA
ATOM      6  C   UNL     1       5.545  -0.938   1.830  1.00  0.00    -0.004 A 
ATOM      7  C   UNL     1       5.839  -0.071   0.814  1.00  0.00     0.046 A 
ATOM      8  C   UNL     1       4.924   0.229  -0.170  1.00  0.00     0.127 A 
ATOM      9  C   UNL     1       3.676  -0.389  -0.092  1.00  0.00     0.075 A 
ATOM     10  C   UNL     1       2.667  -0.101  -1.118  1.00  0.00     0.200 C 
ATOM     11  O   UNL     1       3.029   0.705  -2.008  1.00  0.00    -0.288 OA
ATOM     12  C   UNL     1       1.360  -0.740  -1.047  1.00  0.00     0.059 A 
ATOM     13  C   UNL     1       0.459  -0.433  -2.028  1.00  0.00     0.046 A 
ATOM     14  C   UNL     1      -0.795  -1.070  -1.924  1.00  0.00     0.028 A 
ATOM     15  C   UNL     1      -1.084  -1.932  -0.914  1.00  0.00     0.028 A 
ATOM     16  C   UNL     1      -0.158  -2.248   0.095  1.00  0.00     0.046 A 
ATOM     17  C   UNL     1       1.066  -1.638   0.010  1.00  0.00     0.059 A 
ENDROOT
BRANCH  16  18
ATOM     18  N   UNL     1      -0.557  -3.193   1.086  1.00  0.00    -0.383 N 
ATOM     19  H   UNL     1       0.101  -3.832   1.510  1.00  0.00     0.160 HD
BRANCH  18  20
ATOM     20  C   UNL     1      -1.931  -3.296   1.540  1.00  0.00     0.128 C 
BRANCH  20  21
ATOM     21  C   UNL     1      -2.298  -4.614   2.122  1.00  0.00     0.102 C 
BRANCH  21  22
ATOM     22  N   UNL     1      -3.489  -4.517   2.977  1.00  0.00    -0.313 NA
ATOM     23  H   UNL     1      -3.761  -5.503   3.212  1.00  0.00     0.122 HD
BRANCH  22  24
ATOM     24  C   UNL     1      -4.559  -3.987   2.145  1.00  0.00     0.109 C 
BRANCH  24  25
ATOM     25  C   UNL     1      -5.199  -5.076   1.318  1.00  0.00     0.171 C 
BRANCH  25  26
ATOM     26  O   UNL     1      -5.658  -4.589   0.096  1.00  0.00    -0.395 OA
ATOM     27  H   UNL     1      -5.560  -3.597   0.115  1.00  0.00     0.210 HD
ENDBRANCH  25  26
ENDBRANCH  24  25
ENDBRANCH  22  24
ENDBRANCH  21  22
ENDBRANCH  20  21
ENDBRANCH  18  20
ENDBRANCH  16  18
BRANCH   8  28
ATOM     28  O   UNL     1       5.229   1.117  -1.209  1.00  0.00    -0.507 OA
ATOM     29  H   UNL     1       6.189   1.411  -1.396  1.00  0.00     0.293 HD
ENDBRANCH   8  28
BRANCH  13  30
ATOM     30  N   UNL     1       0.671   0.445  -3.110  1.00  0.00    -0.379 N 
ATOM     31  H   UNL     1       1.042   1.382  -3.046  1.00  0.00     0.160 HD
BRANCH  30  32
ATOM     32  C   UNL     1       0.343   0.023  -4.487  1.00  0.00     0.174 C 
BRANCH  32  33
ATOM     33  C   UNL     1      -0.436   1.047  -5.227  1.00  0.00     0.281 C 
BRANCH  33  34
ATOM     34  N   UNL     1      -1.838   0.783  -5.325  1.00  0.00    -0.343 N 
ATOM     35  H   UNL     1      -2.158  -0.011  -4.725  1.00  0.00     0.346 HD
ATOM     36  H   UNL     1      -2.348   1.630  -4.972  1.00  0.00     0.346 HD
BRANCH  34  37
ATOM     37  C   UNL     1      -2.297   0.558  -6.674  1.00  0.00     0.289 C 
BRANCH  37  38
ATOM     38  C   UNL     1      -3.033   1.754  -7.235  1.00  0.00     0.217 C 
BRANCH  38  39
ATOM     39  O   UNL     1      -4.349   1.394  -7.472  1.00  0.00    -0.391 OA
ATOM     40  H   UNL     1      -4.749   1.155  -6.586  1.00  0.00     0.210 HD
ENDBRANCH  38  39
ENDBRANCH  37  38
ENDBRANCH  34  37
ENDBRANCH  33  34
ENDBRANCH  32  33
ENDBRANCH  30  32
ENDBRANCH  13  30
TORSDOF 15
ENDMDL
MODEL 2
REMARK VINA RESULT:       2.5      0.658      6.461
REMARK SMILES O=C1c2c([O-])ccc(O)c2C(=O)c2c(NCC[NH2+]CCO)ccc(NCCNCCO)c21
REMARK SMILES IDX 1 1 2 2 3 3 4 4 5 5 6 6 7 7 8 8 10 9 11 10 12 11 13 12 14 13
REMARK SMILES IDX 22 14 23 15 24 16 32 17 25 18 26 20 27 21 28 22 29 24 30 25
REMARK SMILES IDX 31 26 9 28 15 30 16 32 17 33 18 34 19 37 20 38 21 39
REMARK H PARENT 25 19 28 23 31 27 9 29 15 31 18 35 18 36 21 40
ROOT
ATOM      1  O   UNL     1       2.911   0.610  -2.161  1.00  0.00    -0.288 OA
ATOM      2  C   UNL     1       2.617  -0.164  -1.217  1.00  0.00     0.196 C 
ATOM      3  C   UNL     1       3.645  -0.423  -0.181  1.00  0.00     0.030 A 
ATOM      4  C   UNL     1       4.867   0.207  -0.319  1.00  0.00    -0.097 A 
ATOM      5  O   UNL     1       5.088   1.048  -1.405  1.00  0.00    -0.872 OA
ATOM      6  C   UNL     1       5.839  -0.017   0.632  1.00  0.00    -0.004 A 
ATOM      7  C   UNL     1       5.595  -0.848   1.690  1.00  0.00     0.046 A 
ATOM      8  C   UNL     1       4.384  -1.486   1.846  1.00  0.00     0.127 A 
ATOM      9  C   UNL     1       3.409  -1.250   0.877  1.00  0.00     0.075 A 
ATOM     10  C   UNL     1       2.102  -1.907   0.999  1.00  0.00     0.200 C 
ATOM     11  O   UNL     1       1.973  -2.650   2.002  1.00  0.00    -0.288 OA
ATOM     12  C   UNL     1       1.076  -1.670  -0.006  1.00  0.00     0.059 A 
ATOM     13  C   UNL     1      -0.121  -2.310   0.158  1.00  0.00     0.046 A 
ATOM     14  C   UNL     1      -1.088  -2.056  -0.836  1.00  0.00     0.028 A 
ATOM     15  C   UNL     1      -0.843  -1.228  -1.886  1.00  0.00     0.028 A 
ATOM     16  C   UNL     1       0.387  -0.570  -2.055  1.00  0.00     0.046 A 
ATOM     17  C   UNL     1       1.339  -0.805  -1.098  1.00  0.00     0.059 A 
ENDROOT
BRANCH  16  18
ATOM     18  N   UNL     1       0.522   0.303  -3.174  1.00  0.00    -0.383 N 
ATOM     19  H   UNL     1       0.909   1.232  -3.083  1.00  0.00     0.160 HD
BRANCH  18  20
ATOM     20  C   UNL     1       0.106  -0.089  -4.509  1.00  0.00     0.128 C 
BRANCH  20  21
ATOM     21  C   UNL     1      -0.215   1.042  -5.419  1.00  0.00     0.102 C 
BRANCH  21  22
ATOM     22  N   UNL     1      -1.300   1.877  -4.885  1.00  0.00    -0.313 NA
ATOM     23  H   UNL     1      -1.614   1.415  -3.997  1.00  0.00     0.122 HD
BRANCH  22  24
ATOM     24  C   UNL     1      -2.411   1.764  -5.818  1.00  0.00     0.109 C 
BRANCH  24  25
ATOM     25  C   UNL     1      -2.108   0.768  -6.912  1.00  0.00     0.171 C 
BRANCH  25  26
ATOM     26  O   UNL     1      -3.198  -0.061  -7.167  1.00  0.00    -0.395 OA
ATOM     27  H   UNL     1      -3.349  -0.614  -6.351  1.00  0.00     0.210 HD
ENDBRANCH  25  26
ENDBRANCH  24  25
ENDBRANCH  22  24
ENDBRANCH  21  22
ENDBRANCH  20  21
ENDBRANCH  18  20
ENDBRANCH  16  18
BRANCH   8  28
ATOM     28  O   UNL     1       4.138  -2.337   2.931  1.00  0.00    -0.507 OA
ATOM     29  H   UNL     1       3.335  -2.969   2.943  1.00  0.00     0.293 HD
ENDBRANCH   8  28
BRANCH  13  30
ATOM     30  N   UNL     1      -0.463  -3.181   1.212  1.00  0.00    -0.379 N 
ATOM     31  H   UNL     1       0.159  -3.500   1.939  1.00  0.00     0.160 HD
BRANCH  30  32
ATOM     32  C   UNL     1      -1.837  -3.715   1.320  1.00  0.00     0.174 C 
BRANCH  32  33
ATOM     33  C   UNL     1      -2.468  -3.402   2.627  1.00  0.00     0.281 C 
BRANCH  33  34
ATOM     34  N   UNL     1      -3.813  -3.869   2.772  1.00  0.00    -0.343 N 
ATOM     35  H   UNL     1      -4.059  -4.139   3.752  1.00  0.00     0.346 HD
ATOM     36  H   UNL     1      -4.454  -3.075   2.527  1.00  0.00     0.346 HD
BRANCH  34  37
ATOM     37  C   UNL     1      -4.151  -4.960   1.891  1.00  0.00     0.289 C 
BRANCH  37  38
ATOM     38  C   UNL     1      -5.411  -4.688   1.101  1.00  0.00     0.217 C 
BRANCH  38  39
ATOM     39  O   UNL     1      -5.424  -3.354   0.731  1.00  0.00    -0.391 OA
ATOM     40  H   UNL     1      -4.935  -2.849   1.444  1.00  0.00     0.210 HD
ENDBRANCH  38  39
ENDBRANCH  37  38
ENDBRANCH  34  37
ENDBRANCH  33  34
ENDBRANCH  32  33
ENDBRANCH  30  32
ENDBRANCH  13  30
TORSDOF 15
ENDMDL
MODEL 3
REMARK VINA RESULT:       2.9      1.093      1.097
REMARK SMILES O=C1c2c([O-])ccc(O)c2C(=O)c2c(NCC[NH2+]CCO)ccc(NCCNCCO)c21
REMARK SMILES IDX 1 1 2 2 3 3 4 4 5 5 6 6 7 7 8 8 10 9 11 10 12 11 13 12 14 13
REMARK SMILES IDX 22 14 23 15 24 16 32 17 25 18 26 20 27 21 28 22 29 24 30 25
REMARK SMILES IDX 31 26 9 28 15 30 16 32 17 33 18 34 19 37 20 38 21 39
REMARK H PARENT 25 19 28 23 31 27 9 29 15 31 18 35 18 36 21 40
ROOT
ATOM      1  O   UNL     1       2.038  -2.715   1.930  1.00  0.00    -0.288 OA
ATOM      2  C   UNL     1       2.139  -1.935   0.952  1.00  0.00     0.196 C 
ATOM      3  C   UNL     1       3.426  -1.230   0.752  1.00  0.00     0.030 A 
ATOM      4  C   UNL     1       4.441  -1.477   1.657  1.00  0.00    -0.097 A 
ATOM      5  O   UNL     1       4.223  -2.364   2.707  1.00  0.00    -0.872 OA
ATOM      6  C   UNL     1       5.648  -0.835   1.491  1.00  0.00    -0.004 A 
ATOM      7  C   UNL     1       5.835   0.031   0.450  1.00  0.00     0.046 A 
ATOM      8  C   UNL     1       4.837   0.292  -0.463  1.00  0.00     0.127 A 
ATOM      9  C   UNL     1       3.620  -0.365  -0.285  1.00  0.00     0.075 A 
ATOM     10  C   UNL     1       2.527  -0.120  -1.233  1.00  0.00     0.200 C 
ATOM     11  O   UNL     1       2.793   0.689  -2.154  1.00  0.00    -0.288 OA
ATOM     12  C   UNL     1       1.251  -0.800  -1.057  1.00  0.00     0.059 A 
ATOM     13  C   UNL     1       0.267  -0.532  -1.968  1.00  0.00     0.046 A 
ATOM     14  C   UNL     1      -0.953  -1.208  -1.763  1.00  0.00     0.028 A 
ATOM     15  C   UNL     1      -1.135  -2.069  -0.727  1.00  0.00     0.028 A 
ATOM     16  C   UNL     1      -0.125  -2.345   0.209  1.00  0.00     0.046 A 
ATOM     17  C   UNL     1       1.068  -1.697   0.026  1.00  0.00     0.059 A 
ENDROOT
BRANCH  16  18
ATOM     18  N   UNL     1      -0.415  -3.292   1.235  1.00  0.00    -0.383 N 
ATOM     19  H   UNL     1       0.256  -3.991   1.522  1.00  0.00     0.160 HD
BRANCH  18  20
ATOM     20  C   UNL     1      -1.693  -3.313   1.923  1.00  0.00     0.128 C 
BRANCH  20  21
ATOM     21  C   UNL     1      -2.544  -4.494   1.623  1.00  0.00     0.102 C 
BRANCH  21  22
ATOM     22  N   UNL     1      -3.811  -4.453   2.365  1.00  0.00    -0.313 NA
ATOM     23  H   UNL     1      -4.567  -4.638   1.661  1.00  0.00     0.122 HD
BRANCH  22  24
ATOM     24  C   UNL     1      -3.993  -3.078   2.805  1.00  0.00     0.109 C 
BRANCH  24  25
ATOM     25  C   UNL     1      -5.432  -2.644   2.664  1.00  0.00     0.171 C 
BRANCH  25  26
ATOM     26  O   UNL     1      -5.687  -1.475   3.376  1.00  0.00    -0.395 OA
ATOM     27  H   UNL     1      -6.670  -1.310   3.336  1.00  0.00     0.210 HD
ENDBRANCH  25  26
ENDBRANCH  24  25
ENDBRANCH  22  24
ENDBRANCH  21  22
ENDBRANCH  20  21
ENDBRANCH  18  20
ENDBRANCH  16  18
BRANCH   8  28
ATOM     28  O   UNL     1       5.032   1.180  -1.529  1.00  0.00    -0.507 OA
ATOM     29  H   UNL     1       4.447   2.008  -1.649  1.00  0.00     0.293 HD
ENDBRANCH   8  28
BRANCH  13  30
ATOM     30  N   UNL     1       0.367   0.342  -3.070  1.00  0.00    -0.379 N 
ATOM     31  H   UNL     1       1.212   0.787  -3.395  1.00  0.00     0.160 HD
BRANCH  30  32
ATOM     32  C   UNL     1      -0.833   0.682  -3.861  1.00  0.00     0.174 C 
BRANCH  32  33
ATOM     33  C   UNL     1      -0.523   0.920  -5.293  1.00  0.00     0.281 C 
BRANCH  33  34
ATOM     34  N   UNL     1      -1.240   0.089  -6.210  1.00  0.00    -0.343 N 
ATOM     35  H   UNL     1      -0.740  -0.795  -6.455  1.00  0.00     0.346 HD
ATOM     36  H   UNL     1      -2.131  -0.208  -5.740  1.00  0.00     0.346 HD
BRANCH  34  37
ATOM     37  C   UNL     1      -1.622   0.759  -7.430  1.00  0.00     0.289 C 
BRANCH  37  38
ATOM     38  C   UNL     1      -2.997   1.379  -7.336  1.00  0.00     0.217 C 
BRANCH  38  39
ATOM     39  O   UNL     1      -3.933   0.367  -7.207  1.00  0.00    -0.391 OA
ATOM     40  H   UNL     1      -3.448  -0.497  -7.345  1.00  0.00     0.210 HD
ENDBRANCH  38  39
ENDBRANCH  37  38
ENDBRANCH  34  37
ENDBRANCH  33  34
ENDBRANCH  32  33
ENDBRANCH  30  32
ENDBRANCH  13  30
TORSDOF 15
ENDMDL
MODEL 4
REMARK VINA RESULT:       3.3      1.538      6.580
REMARK SMILES O=C1c2c([O-])ccc(O)c2C(=O)c2c(NCC[NH2+]CCO)ccc(NCCNCCO)c21
REMARK SMILES IDX 1 1 2 2 3 3 4 4 5 5 6 6 7 7 8 8 10 9 11 10 12 11 13 12 14 13
REMARK SMILES IDX 22 14 23 15 24 16 32 17 25 18 26 20 27 21 28 22 29 24 30 25
REMARK SMILES IDX 31 26 9 28 15 30 16 32 17 33 18 34 19 37 20 38 21 39
REMARK H PARENT 25 19 28 23 31 27 9 29 15 31 18 35 18 36 21 40
ROOT
ATOM      1  O   UNL     1       2.528   0.727  -2.223  1.00  0.00    -0.288 OA
ATOM      2  C   UNL     1       2.392  -0.087  -1.278  1.00  0.00     0.196 C 
ATOM      3  C   UNL     1       3.543  -0.301  -0.370  1.00  0.00     0.030 A 
ATOM      4  C   UNL     1       4.699   0.412  -0.620  1.00  0.00    -0.097 A 
ATOM      5  O   UNL     1       4.743   1.293  -1.697  1.00  0.00    -0.872 OA
ATOM      6  C   UNL     1       5.783   0.232   0.211  1.00  0.00    -0.004 A 
ATOM      7  C   UNL     1       5.712  -0.640   1.262  1.00  0.00     0.046 A 
ATOM      8  C   UNL     1       4.570  -1.361   1.529  1.00  0.00     0.127 A 
ATOM      9  C   UNL     1       3.480  -1.169   0.681  1.00  0.00     0.075 A 
ATOM     10  C   UNL     1       2.240  -1.916   0.925  1.00  0.00     0.200 C 
ATOM     11  O   UNL     1       2.271  -2.690   1.911  1.00  0.00    -0.288 OA
ATOM     12  C   UNL     1       1.095  -1.723   0.046  1.00  0.00     0.059 A 
ATOM     13  C   UNL     1      -0.033  -2.447   0.319  1.00  0.00     0.046 A 
ATOM     14  C   UNL     1      -1.119  -2.235  -0.555  1.00  0.00     0.028 A 
ATOM     15  C   UNL     1      -1.046  -1.367  -1.598  1.00  0.00     0.028 A 
ATOM     16  C   UNL     1       0.113  -0.624  -1.880  1.00  0.00     0.046 A 
ATOM     17  C   UNL     1       1.179  -0.817  -1.040  1.00  0.00     0.059 A 
ENDROOT
BRANCH  16  18
ATOM     18  N   UNL     1       0.066   0.284  -2.979  1.00  0.00    -0.383 N 
ATOM     19  H   UNL     1       0.883   0.493  -3.535  1.00  0.00     0.160 HD
BRANCH  18  20
ATOM     20  C   UNL     1      -1.158   0.966  -3.359  1.00  0.00     0.128 C 
BRANCH  20  21
ATOM     21  C   UNL     1      -1.240   1.345  -4.794  1.00  0.00     0.102 C 
BRANCH  21  22
ATOM     22  N   UNL     1      -2.182   0.492  -5.529  1.00  0.00    -0.313 NA
ATOM     23  H   UNL     1      -2.277  -0.389  -4.967  1.00  0.00     0.122 HD
BRANCH  22  24
ATOM     24  C   UNL     1      -1.523   0.113  -6.770  1.00  0.00     0.109 C 
BRANCH  24  25
ATOM     25  C   UNL     1      -0.044   0.410  -6.716  1.00  0.00     0.171 C 
BRANCH  25  26
ATOM     26  O   UNL     1       0.690  -0.707  -6.322  1.00  0.00    -0.395 OA
ATOM     27  H   UNL     1       0.539  -1.418  -7.005  1.00  0.00     0.210 HD
ENDBRANCH  25  26
ENDBRANCH  24  25
ENDBRANCH  22  24
ENDBRANCH  21  22
ENDBRANCH  20  21
ENDBRANCH  18  20
ENDBRANCH  16  18
BRANCH   8  28
ATOM     28  O   UNL     1       4.501  -2.253   2.607  1.00  0.00    -0.507 OA
ATOM     29  H   UNL     1       3.609  -2.508   3.034  1.00  0.00     0.293 HD
ENDBRANCH   8  28
BRANCH  13  30
ATOM     30  N   UNL     1      -0.198  -3.365   1.376  1.00  0.00    -0.379 N 
ATOM     31  H   UNL     1       0.489  -4.034   1.690  1.00  0.00     0.160 HD
BRANCH  30  32
ATOM     32  C   UNL     1      -1.466  -3.408   2.133  1.00  0.00     0.174 C 
BRANCH  32  33
ATOM     33  C   UNL     1      -2.166  -4.710   2.000  1.00  0.00     0.281 C 
BRANCH  33  34
ATOM     34  N   UNL     1      -3.590  -4.621   1.896  1.00  0.00    -0.343 N 
ATOM     35  H   UNL     1      -3.992  -5.210   1.132  1.00  0.00     0.346 HD
ATOM     36  H   UNL     1      -3.998  -4.995   2.788  1.00  0.00     0.346 HD
BRANCH  34  37
ATOM     37  C   UNL     1      -4.081  -3.273   1.751  1.00  0.00     0.289 C 
BRANCH  37  38
ATOM     38  C   UNL     1      -5.085  -2.911   2.822  1.00  0.00     0.217 C 
BRANCH  38  39
ATOM     39  O   UNL     1      -4.452  -2.138   3.780  1.00  0.00    -0.391 OA
ATOM     40  H   UNL     1      -4.433  -1.199   3.432  1.00  0.00     0.210 HD
ENDBRANCH  38  39
ENDBRANCH  37  38
ENDBRANCH  34  37
ENDBRANCH  33  34
ENDBRANCH  32  33
ENDBRANCH  30  32
ENDBRANCH  13  30
TORSDOF 15
ENDMDL
MODEL 5
REMARK VINA RESULT:       3.7      1.325      6.718
REMARK SMILES O=C1c2c([O-])ccc(O)c2C(=O)c2c(NCC[NH2+]CCO)ccc(NCCNCCO)c21
REMARK SMILES IDX 1 1 2 2 3 3 4 4 5 5 6 6 7 7 8 8 10 9 11 10 12 11 13 12 14 13
REMARK SMILES IDX 22 14 23 15 24 16 32 17 25 18 26 20 27 21 28 22 29 24 30 25
REMARK SMILES IDX 31 26 9 28 15 30 16 32 17 33 18 34 19 37 20 38 21 39
REMARK H PARENT 25 19 28 23 31 27 9 29 15 31 18 35 18 36 21 40
ROOT
ATOM      1  O   UNL     1       2.951   0.576  -2.456  1.00  0.00    -0.288 OA
ATOM      2  C   UNL     1       2.610  -0.155  -1.494  1.00  0.00     0.196 C 
ATOM      3  C   UNL     1       3.622  -0.457  -0.455  1.00  0.00     0.030 A 
ATOM      4  C   UNL     1       4.882   0.088  -0.608  1.00  0.00    -0.097 A 
ATOM      5  O   UNL     1       5.154   0.889  -1.713  1.00  0.00    -0.872 OA
ATOM      6  C   UNL     1       5.839  -0.178   0.347  1.00  0.00    -0.004 A 
ATOM      7  C   UNL     1       5.545  -0.967   1.423  1.00  0.00     0.046 A 
ATOM      8  C   UNL     1       4.295  -1.521   1.595  1.00  0.00     0.127 A 
ATOM      9  C   UNL     1       3.335  -1.244   0.622  1.00  0.00     0.075 A 
ATOM     10  C   UNL     1       1.989  -1.812   0.761  1.00  0.00     0.200 C 
ATOM     11  O   UNL     1       1.814  -2.522   1.780  1.00  0.00    -0.288 OA
ATOM     12  C   UNL     1       0.977  -1.530  -0.248  1.00  0.00     0.059 A 
ATOM     13  C   UNL     1      -0.258  -2.087  -0.068  1.00  0.00     0.046 A 
ATOM     14  C   UNL     1      -1.210  -1.793  -1.067  1.00  0.00     0.028 A 
ATOM     15  C   UNL     1      -0.914  -1.007  -2.135  1.00  0.00     0.028 A 
ATOM     16  C   UNL     1       0.356  -0.435  -2.321  1.00  0.00     0.046 A 
ATOM     17  C   UNL     1       1.293  -0.709  -1.359  1.00  0.00     0.059 A 
ENDROOT
BRANCH  16  18
ATOM     18  N   UNL     1       0.544   0.403  -3.459  1.00  0.00    -0.383 N 
ATOM     19  H   UNL     1       0.607   1.408  -3.378  1.00  0.00     0.160 HD
BRANCH  18  20
ATOM     20  C   UNL     1       0.651  -0.139  -4.802  1.00  0.00     0.128 C 
BRANCH  20  21
ATOM     21  C   UNL     1      -0.393   0.332  -5.749  1.00  0.00     0.102 C 
BRANCH  21  22
ATOM     22  N   UNL     1      -1.646  -0.417  -5.591  1.00  0.00    -0.313 NA
ATOM     23  H   UNL     1      -1.641  -1.155  -6.337  1.00  0.00     0.122 HD
BRANCH  22  24
ATOM     24  C   UNL     1      -2.725   0.498  -5.932  1.00  0.00     0.109 C 
BRANCH  24  25
ATOM     25  C   UNL     1      -2.372   1.335  -7.138  1.00  0.00     0.171 C 
BRANCH  25  26
ATOM     26  O   UNL     1      -3.180   1.027  -8.231  1.00  0.00    -0.395 OA
ATOM     27  H   UNL     1      -2.577   0.810  -8.995  1.00  0.00     0.210 HD
ENDBRANCH  25  26
ENDBRANCH  24  25
ENDBRANCH  22  24
ENDBRANCH  21  22
ENDBRANCH  20  21
ENDBRANCH  18  20
ENDBRANCH  16  18
BRANCH   8  28
ATOM     28  O   UNL     1       3.997  -2.329   2.699  1.00  0.00    -0.507 OA
ATOM     29  H   UNL     1       4.689  -2.967   3.097  1.00  0.00     0.293 HD
ENDBRANCH   8  28
BRANCH  13  30
ATOM     30  N   UNL     1      -0.654  -2.911   1.005  1.00  0.00    -0.379 N 
ATOM     31  H   UNL     1      -0.083  -3.160   1.799  1.00  0.00     0.160 HD
BRANCH  30  32
ATOM     32  C   UNL     1      -2.010  -3.496   1.035  1.00  0.00     0.174 C 
BRANCH  32  33
ATOM     33  C   UNL     1      -2.318  -4.157   2.328  1.00  0.00     0.281 C 
BRANCH  33  34
ATOM     34  N   UNL     1      -2.878  -3.298   3.324  1.00  0.00    -0.343 N 
ATOM     35  H   UNL     1      -2.660  -3.593   4.303  1.00  0.00     0.346 HD
ATOM     36  H   UNL     1      -2.442  -2.350   3.209  1.00  0.00     0.346 HD
BRANCH  34  37
ATOM     37  C   UNL     1      -4.304  -3.114   3.202  1.00  0.00     0.289 C 
BRANCH  37  38
ATOM     38  C   UNL     1      -4.748  -1.751   3.684  1.00  0.00     0.217 C 
BRANCH  38  39
ATOM     39  O   UNL     1      -4.020  -1.420   4.813  1.00  0.00    -0.391 OA
ATOM     40  H   UNL     1      -4.408  -1.942   5.574  1.00  0.00     0.210 HD
ENDBRANCH  38  39
ENDBRANCH  37  38
ENDBRANCH  34  37
ENDBRANCH  33  34
ENDBRANCH  32  33
ENDBRANCH  30  32
ENDBRANCH  13  30
TORSDOF 15
ENDMDL
MODEL 6
REMARK VINA RESULT:       3.8      1.571      1.740
REMARK SMILES O=C1c2c([O-])ccc(O)c2C(=O)c2c(NCC[NH2+]CCO)ccc(NCCNCCO)c21
REMARK SMILES IDX 1 1 2 2 3 3 4 4 5 5 6 6 7 7 8 8 10 9 11 10 12 11 13 12 14 13
REMARK SMILES IDX 22 14 23 15 24 16 32 17 25 18 26 20 27 21 28 22 29 24 30 25
REMARK SMILES IDX 31 26 9 28 15 30 16 32 17 33 18 34 19 37 20 38 21 39
REMARK H PARENT 25 19 28 23 31 27 9 29 15 31 18 35 18 36 21 40
ROOT
ATOM      1  O   UNL     1       1.925  -2.574   2.103  1.00  0.00    -0.288 OA
ATOM      2  C   UNL     1       2.083  -1.854   1.087  1.00  0.00     0.196 C 
ATOM      3  C   UNL     1       3.391  -1.183   0.905  1.00  0.00     0.030 A 
ATOM      4  C   UNL     1       4.360  -1.393   1.867  1.00  0.00    -0.097 A 
ATOM      5  O   UNL     1       4.081  -2.214   2.955  1.00  0.00    -0.872 OA
ATOM      6  C   UNL     1       5.586  -0.781   1.718  1.00  0.00    -0.004 A 
ATOM      7  C   UNL     1       5.834   0.020   0.638  1.00  0.00     0.046 A 
ATOM      8  C   UNL     1       4.882   0.243  -0.332  1.00  0.00     0.127 A 
ATOM      9  C   UNL     1       3.646  -0.383  -0.170  1.00  0.00     0.075 A 
ATOM     10  C   UNL     1       2.600  -0.175  -1.178  1.00  0.00     0.200 C 
ATOM     11  O   UNL     1       2.921   0.574  -2.131  1.00  0.00    -0.288 OA
ATOM     12  C   UNL     1       1.305  -0.823  -1.021  1.00  0.00     0.059 A 
ATOM     13  C   UNL     1       0.367  -0.592  -1.988  1.00  0.00     0.046 A 
ATOM     14  C   UNL     1      -0.874  -1.235  -1.800  1.00  0.00     0.028 A 
ATOM     15  C   UNL     1      -1.117  -2.032  -0.725  1.00  0.00     0.028 A 
ATOM     16  C   UNL     1      -0.154  -2.269   0.270  1.00  0.00     0.046 A 
ATOM     17  C   UNL     1       1.059  -1.652   0.102  1.00  0.00     0.059 A 
ENDROOT
BRANCH  16  18
ATOM     18  N   UNL     1      -0.505  -3.151   1.334  1.00  0.00    -0.383 N 
ATOM     19  H   UNL     1       0.003  -3.164   2.207  1.00  0.00     0.160 HD
BRANCH  18  20
ATOM     20  C   UNL     1      -1.611  -4.085   1.223  1.00  0.00     0.128 C 
BRANCH  20  21
ATOM     21  C   UNL     1      -2.515  -4.124   2.402  1.00  0.00     0.102 C 
BRANCH  21  22
ATOM     22  N   UNL     1      -3.094  -2.804   2.686  1.00  0.00    -0.313 NA
ATOM     23  H   UNL     1      -2.285  -2.168   2.890  1.00  0.00     0.122 HD
BRANCH  22  24
ATOM     24  C   UNL     1      -3.835  -2.933   3.932  1.00  0.00     0.109 C 
BRANCH  24  25
ATOM     25  C   UNL     1      -3.809  -1.645   4.719  1.00  0.00     0.171 C 
BRANCH  25  26
ATOM     26  O   UNL     1      -3.072  -1.776   5.894  1.00  0.00    -0.395 OA
ATOM     27  H   UNL     1      -3.338  -2.638   6.318  1.00  0.00     0.210 HD
ENDBRANCH  25  26
ENDBRANCH  24  25
ENDBRANCH  22  24
ENDBRANCH  21  22
ENDBRANCH  20  21
ENDBRANCH  18  20
ENDBRANCH  16  18
BRANCH   8  28
ATOM     28  O   UNL     1       5.140   1.064  -1.437  1.00  0.00    -0.507 OA
ATOM     29  H   UNL     1       5.713   1.906  -1.355  1.00  0.00     0.293 HD
ENDBRANCH   8  28
BRANCH  13  30
ATOM     30  N   UNL     1       0.531   0.214  -3.133  1.00  0.00    -0.379 N 
ATOM     31  H   UNL     1       1.290   0.860  -3.296  1.00  0.00     0.160 HD
BRANCH  30  32
ATOM     32  C   UNL     1      -0.459   0.163  -4.228  1.00  0.00     0.174 C 
BRANCH  32  33
ATOM     33  C   UNL     1      -0.067   1.001  -5.390  1.00  0.00     0.281 C 
BRANCH  33  34
ATOM     34  N   UNL     1      -0.116   0.335  -6.655  1.00  0.00    -0.343 N 
ATOM     35  H   UNL     1       0.723   0.511  -7.253  1.00  0.00     0.346 HD
ATOM     36  H   UNL     1      -0.122  -0.699  -6.471  1.00  0.00     0.346 HD
BRANCH  34  37
ATOM     37  C   UNL     1      -1.302   0.624  -7.422  1.00  0.00     0.289 C 
BRANCH  37  38
ATOM     38  C   UNL     1      -2.481   0.977  -6.543  1.00  0.00     0.217 C 
BRANCH  38  39
ATOM     39  O   UNL     1      -3.276  -0.147  -6.394  1.00  0.00    -0.391 OA
ATOM     40  H   UNL     1      -3.170  -0.691  -7.227  1.00  0.00     0.210 HD
ENDBRANCH  38  39
ENDBRANCH  37  38
ENDBRANCH  34  37
ENDBRANCH  33  34
ENDBRANCH  32  33
ENDBRANCH  30  32
ENDBRANCH  13  30
TORSDOF 15
ENDMDL
MODEL 7
REMARK VINA RESULT:       4.0      1.220      6.455
REMARK SMILES O=C1c2c([O-])ccc(O)c2C(=O)c2c(NCC[NH2+]CCO)ccc(NCCNCCO)c21
REMARK SMILES IDX 1 1 2 2 3 3 4 4 5 5 6 6 7 7 8 8 10 9 11 10 12 11 13 12 14 13
REMARK SMILES IDX 22 14 23 15 24 16 32 17 25 18 26 20 27 21 28 22 29 24 30 25
REMARK SMILES IDX 31 26 9 28 15 30 16 32 17 33 18 34 19 37 20 38 21 39
REMARK H PARENT 25 19 28 23 31 27 9 29 15 31 18 35 18 36 21 40
ROOT
ATOM      1  O   UNL     1       2.791   0.559  -2.230  1.00  0.00    -0.288 OA
ATOM      2  C   UNL     1       2.549  -0.217  -1.273  1.00  0.00     0.196 C 
ATOM      3  C   UNL     1       3.622  -0.455  -0.279  1.00  0.00     0.030 A 
ATOM      4  C   UNL     1       4.826   0.195  -0.467  1.00  0.00    -0.097 A 
ATOM      5  O   UNL     1       4.988   1.037  -1.563  1.00  0.00    -0.872 OA
ATOM      6  C   UNL     1       5.839  -0.010   0.444  1.00  0.00    -0.004 A 
ATOM      7  C   UNL     1       5.652  -0.842   1.513  1.00  0.00     0.046 A 
ATOM      8  C   UNL     1       4.460  -1.500   1.718  1.00  0.00     0.127 A 
ATOM      9  C   UNL     1       3.443  -1.284   0.789  1.00  0.00     0.075 A 
ATOM     10  C   UNL     1       2.153  -1.963   0.966  1.00  0.00     0.200 C 
ATOM     11  O   UNL     1       2.077  -2.705   1.974  1.00  0.00    -0.288 OA
ATOM     12  C   UNL     1       1.083  -1.746   0.002  1.00  0.00     0.059 A 
ATOM     13  C   UNL     1      -0.095  -2.406   0.215  1.00  0.00     0.046 A 
ATOM     14  C   UNL     1      -1.105  -2.172  -0.740  1.00  0.00     0.028 A 
ATOM     15  C   UNL     1      -0.917  -1.343  -1.800  1.00  0.00     0.028 A 
ATOM     16  C   UNL     1       0.294  -0.664  -2.020  1.00  0.00     0.046 A 
ATOM     17  C   UNL     1       1.287  -0.880  -1.101  1.00  0.00     0.059 A 
ENDROOT
BRANCH  16  18
ATOM     18  N   UNL     1       0.368   0.208  -3.145  1.00  0.00    -0.383 N 
ATOM     19  H   UNL     1       0.268   1.209  -3.053  1.00  0.00     0.160 HD
BRANCH  18  20
ATOM     20  C   UNL     1       0.587  -0.291  -4.491  1.00  0.00     0.128 C 
BRANCH  20  21
ATOM     21  C   UNL     1      -0.240   0.362  -5.540  1.00  0.00     0.102 C 
BRANCH  21  22
ATOM     22  N   UNL     1      -0.477   1.781  -5.240  1.00  0.00    -0.313 NA
ATOM     23  H   UNL     1      -0.386   1.878  -4.199  1.00  0.00     0.122 HD
BRANCH  22  24
ATOM     24  C   UNL     1      -1.872   2.046  -5.553  1.00  0.00     0.109 C 
BRANCH  24  25
ATOM     25  C   UNL     1      -2.787   1.079  -4.842  1.00  0.00     0.171 C 
BRANCH  25  26
ATOM     26  O   UNL     1      -2.610   1.126  -3.461  1.00  0.00    -0.395 OA
ATOM     27  H   UNL     1      -3.512   1.231  -3.049  1.00  0.00     0.210 HD
ENDBRANCH  25  26
ENDBRANCH  24  25
ENDBRANCH  22  24
ENDBRANCH  21  22
ENDBRANCH  20  21
ENDBRANCH  18  20
ENDBRANCH  16  18
BRANCH   8  28
ATOM     28  O   UNL     1       4.272  -2.352   2.814  1.00  0.00    -0.507 OA
ATOM     29  H   UNL     1       4.632  -2.118   3.741  1.00  0.00     0.293 HD
ENDBRANCH   8  28
BRANCH  13  30
ATOM     30  N   UNL     1      -0.379  -3.281   1.284  1.00  0.00    -0.379 N 
ATOM     31  H   UNL     1       0.211  -4.035   1.602  1.00  0.00     0.160 HD
BRANCH  30  32
ATOM     32  C   UNL     1      -1.636  -3.139   2.048  1.00  0.00     0.174 C 
BRANCH  32  33
ATOM     33  C   UNL     1      -2.317  -4.439   2.271  1.00  0.00     0.281 C 
BRANCH  33  34
ATOM     34  N   UNL     1      -3.529  -4.618   1.533  1.00  0.00    -0.343 N 
ATOM     35  H   UNL     1      -3.380  -4.968   0.560  1.00  0.00     0.346 HD
ATOM     36  H   UNL     1      -4.091  -5.360   2.019  1.00  0.00     0.346 HD
BRANCH  34  37
ATOM     37  C   UNL     1      -4.359  -3.440   1.480  1.00  0.00     0.289 C 
BRANCH  37  38
ATOM     38  C   UNL     1      -5.433  -3.447   2.545  1.00  0.00     0.217 C 
BRANCH  38  39
ATOM     39  O   UNL     1      -5.580  -4.739   3.018  1.00  0.00    -0.391 OA
ATOM     40  H   UNL     1      -4.659  -5.113   3.137  1.00  0.00     0.210 HD
ENDBRANCH  38  39
ENDBRANCH  37  38
ENDBRANCH  34  37
ENDBRANCH  33  34
ENDBRANCH  32  33
ENDBRANCH  30  32
ENDBRANCH  13  30
TORSDOF 15
ENDMDL
MODEL 8
REMARK VINA RESULT:       4.1      0.974      6.715
REMARK SMILES O=C1c2c([O-])ccc(O)c2C(=O)c2c(NCC[NH2+]CCO)ccc(NCCNCCO)c21
REMARK SMILES IDX 1 1 2 2 3 3 4 4 5 5 6 6 7 7 8 8 10 9 11 10 12 11 13 12 14 13
REMARK SMILES IDX 22 14 23 15 24 16 32 17 25 18 26 20 27 21 28 22 29 24 30 25
REMARK SMILES IDX 31 26 9 28 15 30 16 32 17 33 18 34 19 37 20 38 21 39
REMARK H PARENT 25 19 28 23 31 27 9 29 15 31 18 35 18 36 21 40
ROOT
ATOM      1  O   UNL     1       3.067   0.712  -2.665  1.00  0.00    -0.288 OA
ATOM      2  C   UNL     1       2.676  -0.007  -1.713  1.00  0.00     0.196 C 
ATOM      3  C   UNL     1       3.644  -0.326  -0.637  1.00  0.00     0.030 A 
ATOM      4  C   UNL     1       4.920   0.192  -0.747  1.00  0.00    -0.097 A 
ATOM      5  O   UNL     1       5.248   0.981  -1.845  1.00  0.00    -0.872 OA
ATOM      6  C   UNL     1       5.837  -0.090   0.242  1.00  0.00    -0.004 A 
ATOM      7  C   UNL     1       5.487  -0.868   1.310  1.00  0.00     0.046 A 
ATOM      8  C   UNL     1       4.221  -1.394   1.439  1.00  0.00     0.127 A 
ATOM      9  C   UNL     1       3.302  -1.101   0.431  1.00  0.00     0.075 A 
ATOM     10  C   UNL     1       1.939  -1.639   0.525  1.00  0.00     0.200 C 
ATOM     11  O   UNL     1       1.713  -2.340   1.540  1.00  0.00    -0.288 OA
ATOM     12  C   UNL     1       0.971  -1.340  -0.521  1.00  0.00     0.059 A 
ATOM     13  C   UNL     1      -0.282  -1.870  -0.384  1.00  0.00     0.046 A 
ATOM     14  C   UNL     1      -1.191  -1.561  -1.416  1.00  0.00     0.028 A 
ATOM     15  C   UNL     1      -0.841  -0.785  -2.477  1.00  0.00     0.028 A 
ATOM     16  C   UNL     1       0.447  -0.242  -2.619  1.00  0.00     0.046 A 
ATOM     17  C   UNL     1       1.344  -0.532  -1.624  1.00  0.00     0.059 A 
ENDROOT
BRANCH  16  18
ATOM     18  N   UNL     1       0.694   0.587  -3.753  1.00  0.00    -0.383 N 
ATOM     19  H   UNL     1       1.337   1.365  -3.717  1.00  0.00     0.160 HD
BRANCH  18  20
ATOM     20  C   UNL     1       0.032   0.363  -5.025  1.00  0.00     0.128 C 
BRANCH  20  21
ATOM     21  C   UNL     1      -0.772   1.511  -5.520  1.00  0.00     0.102 C 
BRANCH  21  22
ATOM     22  N   UNL     1      -2.172   1.133  -5.754  1.00  0.00    -0.313 NA
ATOM     23  H   UNL     1      -2.209   0.088  -5.679  1.00  0.00     0.122 HD
BRANCH  22  24
ATOM     24  C   UNL     1      -2.464   1.452  -7.144  1.00  0.00     0.109 C 
BRANCH  24  25
ATOM     25  C   UNL     1      -3.887   1.095  -7.500  1.00  0.00     0.171 C 
BRANCH  25  26
ATOM     26  O   UNL     1      -4.195  -0.212  -7.132  1.00  0.00    -0.395 OA
ATOM     27  H   UNL     1      -3.340  -0.725  -7.108  1.00  0.00     0.210 HD
ENDBRANCH  25  26
ENDBRANCH  24  25
ENDBRANCH  22  24
ENDBRANCH  21  22
ENDBRANCH  20  21
ENDBRANCH  18  20
ENDBRANCH  16  18
BRANCH   8  28
ATOM     28  O   UNL     1       3.866  -2.191   2.535  1.00  0.00    -0.507 OA
ATOM     29  H   UNL     1       3.310  -3.040   2.421  1.00  0.00     0.293 HD
ENDBRANCH   8  28
BRANCH  13  30
ATOM     30  N   UNL     1      -0.733  -2.680   0.679  1.00  0.00    -0.379 N 
ATOM     31  H   UNL     1      -0.167  -3.321   1.213  1.00  0.00     0.160 HD
BRANCH  30  32
ATOM     32  C   UNL     1      -2.149  -2.638   1.098  1.00  0.00     0.174 C 
BRANCH  32  33
ATOM     33  C   UNL     1      -2.676  -3.977   1.464  1.00  0.00     0.281 C 
BRANCH  33  34
ATOM     34  N   UNL     1      -4.057  -4.185   1.155  1.00  0.00    -0.343 N 
ATOM     35  H   UNL     1      -4.577  -3.303   0.947  1.00  0.00     0.346 HD
ATOM     36  H   UNL     1      -4.104  -4.758   0.277  1.00  0.00     0.346 HD
BRANCH  34  37
ATOM     37  C   UNL     1      -4.777  -4.921   2.166  1.00  0.00     0.289 C 
BRANCH  37  38
ATOM     38  C   UNL     1      -6.138  -5.372   1.686  1.00  0.00     0.217 C 
BRANCH  38  39
ATOM     39  O   UNL     1      -6.864  -5.826   2.773  1.00  0.00    -0.391 OA
ATOM     40  H   UNL     1      -7.464  -6.555   2.439  1.00  0.00     0.210 HD
ENDBRANCH  38  39
ENDBRANCH  37  38
ENDBRANCH  34  37
ENDBRANCH  33  34
ENDBRANCH  32  33
ENDBRANCH  30  32
ENDBRANCH  13  30
TORSDOF 15
ENDMDL
MODEL 9
REMARK VINA RESULT:       5.0      1.650      1.742
REMARK SMILES O=C1c2c([O-])ccc(O)c2C(=O)c2c(NCC[NH2+]CCO)ccc(NCCNCCO)c21
REMARK SMILES IDX 1 1 2 2 3 3 4 4 5 5 6 6 7 7 8 8 10 9 11 10 12 11 13 12 14 13
REMARK SMILES IDX 22 14 23 15 24 16 32 17 25 18 26 20 27 21 28 22 29 24 30 25
REMARK SMILES IDX 31 26 9 28 15 30 16 32 17 33 18 34 19 37 20 38 21 39
REMARK H PARENT 25 19 28 23 31 27 9 29 15 31 18 35 18 36 21 40
ROOT
ATOM      1  O   UNL     1       2.085  -2.724   1.885  1.00  0.00    -0.288 OA
ATOM      2  C   UNL     1       2.100  -1.929   0.914  1.00  0.00     0.196 C 
ATOM      3  C   UNL     1       3.348  -1.175   0.649  1.00  0.00     0.030 A 
ATOM      4  C   UNL     1       4.422  -1.395   1.490  1.00  0.00    -0.097 A 
ATOM      5  O   UNL     1       4.298  -2.303   2.538  1.00  0.00    -0.872 OA
ATOM      6  C   UNL     1       5.593  -0.707   1.264  1.00  0.00    -0.004 A 
ATOM      7  C   UNL     1       5.687   0.179   0.226  1.00  0.00     0.046 A 
ATOM      8  C   UNL     1       4.629   0.414  -0.623  1.00  0.00     0.127 A 
ATOM      9  C   UNL     1       3.449  -0.290  -0.384  1.00  0.00     0.075 A 
ATOM     10  C   UNL     1       2.293  -0.073  -1.262  1.00  0.00     0.200 C 
ATOM     11  O   UNL     1       2.475   0.756  -2.185  1.00  0.00    -0.288 OA
ATOM     12  C   UNL     1       1.056  -0.802  -1.023  1.00  0.00     0.059 A 
ATOM     13  C   UNL     1       0.011  -0.559  -1.870  1.00  0.00     0.046 A 
ATOM     14  C   UNL     1      -1.170  -1.282  -1.605  1.00  0.00     0.028 A 
ATOM     15  C   UNL     1      -1.260  -2.162  -0.573  1.00  0.00     0.028 A 
ATOM     16  C   UNL     1      -0.187  -2.412   0.299  1.00  0.00     0.046 A 
ATOM     17  C   UNL     1       0.969  -1.718   0.055  1.00  0.00     0.059 A 
ENDROOT
BRANCH  16  18
ATOM     18  N   UNL     1      -0.382  -3.383   1.325  1.00  0.00    -0.383 N 
ATOM     19  H   UNL     1       0.320  -4.076   1.545  1.00  0.00     0.160 HD
BRANCH  18  20
ATOM     20  C   UNL     1      -1.601  -3.436   2.111  1.00  0.00     0.128 C 
BRANCH  20  21
ATOM     21  C   UNL     1      -2.179  -4.796   2.275  1.00  0.00     0.102 C 
BRANCH  21  22
ATOM     22  N   UNL     1      -3.592  -4.741   2.669  1.00  0.00    -0.313 NA
ATOM     23  H   UNL     1      -4.133  -4.545   1.791  1.00  0.00     0.122 HD
BRANCH  22  24
ATOM     24  C   UNL     1      -3.746  -3.565   3.512  1.00  0.00     0.109 C 
BRANCH  24  25
ATOM     25  C   UNL     1      -4.916  -2.721   3.066  1.00  0.00     0.171 C 
BRANCH  25  26
ATOM     26  O   UNL     1      -5.105  -2.794   1.688  1.00  0.00    -0.395 OA
ATOM     27  H   UNL     1      -5.430  -3.713   1.480  1.00  0.00     0.210 HD
ENDBRANCH  25  26
ENDBRANCH  24  25
ENDBRANCH  22  24
ENDBRANCH  21  22
ENDBRANCH  20  21
ENDBRANCH  18  20
ENDBRANCH  16  18
BRANCH   8  28
ATOM     28  O   UNL     1       4.729   1.322  -1.686  1.00  0.00    -0.507 OA
ATOM     29  H   UNL     1       5.574   1.875  -1.838  1.00  0.00     0.293 HD
ENDBRANCH   8  28
BRANCH  13  30
ATOM     30  N   UNL     1       0.015   0.332  -2.963  1.00  0.00    -0.379 N 
ATOM     31  H   UNL     1       0.825   0.606  -3.499  1.00  0.00     0.160 HD
BRANCH  30  32
ATOM     32  C   UNL     1      -1.244   0.959  -3.417  1.00  0.00     0.174 C 
BRANCH  32  33
ATOM     33  C   UNL     1      -1.131   1.547  -4.775  1.00  0.00     0.281 C 
BRANCH  33  34
ATOM     34  N   UNL     1       0.126   1.329  -5.422  1.00  0.00    -0.343 N 
ATOM     35  H   UNL     1       0.655   2.208  -5.618  1.00  0.00     0.346 HD
ATOM     36  H   UNL     1       0.729   0.774  -4.767  1.00  0.00     0.346 HD
BRANCH  34  37
ATOM     37  C   UNL     1       0.030   0.563  -6.642  1.00  0.00     0.289 C 
BRANCH  37  38
ATOM     38  C   UNL     1       0.416  -0.885  -6.441  1.00  0.00     0.217 C 
BRANCH  38  39
ATOM     39  O   UNL     1       1.043  -1.011  -5.213  1.00  0.00    -0.391 OA
ATOM     40  H   UNL     1       2.026  -1.064  -5.393  1.00  0.00     0.210 HD
ENDBRANCH  38  39
ENDBRANCH  37  38
ENDBRANCH  34  37
ENDBRANCH  33  34
ENDBRANCH  32  33
ENDBRANCH  30  32
ENDBRANCH  13  30
TORSDOF 15
ENDMDL
