MODEL 1
REMARK VINA RESULT:      -6.0      0.000      0.000
REMARK SMILES O=S(=O)([N-]CC[NH2+]C/C=C/c1ccc(Br)cc1)c1cccc2cnccc12
REMARK SMILES IDX 6 1 5 2 4 3 2 4 1 5 3 6 18 7 19 8 27 9 20 10 26 11 22 12
REMARK SMILES IDX 21 13 25 14 23 15 24 16 7 17 8 20 9 21 10 22 11 23 12 24
REMARK SMILES IDX 17 25 13 26 16 27 14 28 15 29
REMARK H PARENT 7 18 7 19
ROOT
ATOM      1  C   UNL     1       2.384 -19.574  25.392  1.00  0.00     0.238 C 
ENDROOT
BRANCH   1   2
ATOM      2  C   UNL     1       2.831 -19.108  26.758  1.00  0.00    -0.070 C 
BRANCH   2   3
ATOM      3  N   UNL     1       3.106 -20.238  27.619  1.00  0.00    -0.540 NA
BRANCH   3   4
ATOM      4  S   UNL     1       3.541 -19.680  29.228  1.00  0.00     0.102 S 
ATOM      5  O   UNL     1       2.751 -18.482  29.427  1.00  0.00    -0.244 OA
ATOM      6  O   UNL     1       4.993 -19.295  29.118  1.00  0.00    -0.244 OA
BRANCH   4   7
ATOM      7  C   UNL     1       3.385 -21.010  30.267  1.00  0.00     0.056 A 
ATOM      8  C   UNL     1       4.488 -21.506  30.930  1.00  0.00     0.019 A 
ATOM      9  C   UNL     1       2.176 -21.635  30.483  1.00  0.00     0.002 A 
ATOM     10  C   UNL     1       4.356 -22.596  31.778  1.00  0.00     0.002 A 
ATOM     11  C   UNL     1       1.077 -21.136  29.821  1.00  0.00     0.030 A 
ATOM     12  C   UNL     1       2.016 -22.732  31.331  1.00  0.00     0.001 A 
ATOM     13  C   UNL     1       3.139 -23.211  31.984  1.00  0.00     0.010 A 
ATOM     14  C   UNL     1      -0.136 -21.730  30.014  1.00  0.00     0.111 A 
ATOM     15  C   UNL     1       0.776 -23.312  31.505  1.00  0.00     0.119 A 
ATOM     16  N   UNL     1      -0.258 -22.784  30.834  1.00  0.00    -0.264 NA
ENDBRANCH   4   7
ENDBRANCH   3   4
ENDBRANCH   2   3
ENDBRANCH   1   2
BRANCH   1  17
ATOM     17  N   UNL     1       1.290 -18.808  24.871  1.00  0.00    -0.344 N 
ATOM     18  H   UNL     1       0.600 -18.624  25.606  1.00  0.00     0.346 HD
ATOM     19  H   UNL     1       1.670 -17.919  24.469  1.00  0.00     0.346 HD
BRANCH  17  20
ATOM     20  C   UNL     1       0.717 -19.545  23.765  1.00  0.00     0.289 C 
BRANCH  20  21
ATOM     21  C   UNL     1       1.710 -19.972  22.775  1.00  0.00     0.034 C 
ATOM     22  C   UNL     1       1.431 -20.969  21.957  1.00  0.00     0.009 C 
BRANCH  22  23
ATOM     23  C   UNL     1       2.333 -21.483  20.934  1.00  0.00    -0.026 A 
ATOM     24  C   UNL     1       2.277 -22.809  20.567  1.00  0.00     0.009 A 
ATOM     25  C   UNL     1       3.265 -20.704  20.292  1.00  0.00     0.009 A 
ATOM     26  C   UNL     1       3.107 -23.352  19.603  1.00  0.00     0.016 A 
ATOM     27  C   UNL     1       4.111 -21.243  19.315  1.00  0.00     0.016 A 
ATOM     28  C   UNL     1       4.041 -22.568  18.962  1.00  0.00     0.018 A 
ATOM     29  Br  UNL     1       5.208 -23.284  17.621  1.00  0.00    -0.051 Br
ENDBRANCH  22  23
ENDBRANCH  20  21
ENDBRANCH  17  20
ENDBRANCH   1  17
TORSDOF 8
ENDMDL
MODEL 2
REMARK VINA RESULT:      -6.0      5.737      6.921
REMARK SMILES O=S(=O)([N-]CC[NH2+]C/C=C/c1ccc(Br)cc1)c1cccc2cnccc12
REMARK SMILES IDX 6 1 5 2 4 3 2 4 1 5 3 6 18 7 19 8 27 9 20 10 26 11 22 12
REMARK SMILES IDX 21 13 25 14 23 15 24 16 7 17 8 20 9 21 10 22 11 23 12 24
REMARK SMILES IDX 17 25 13 26 16 27 14 28 15 29
REMARK H PARENT 7 18 7 19
ROOT
ATOM      1  C   UNL     1       2.278 -20.605  29.068  1.00  0.00     0.238 C 
ENDROOT
BRANCH   1   2
ATOM      2  C   UNL     1       1.147 -21.119  29.929  1.00  0.00    -0.070 C 
BRANCH   2   3
ATOM      3  N   UNL     1       1.070 -22.562  29.863  1.00  0.00    -0.540 NA
BRANCH   3   4
ATOM      4  S   UNL     1       0.759 -23.224  31.461  1.00  0.00     0.102 S 
ATOM      5  O   UNL     1      -0.668 -23.479  31.481  1.00  0.00    -0.244 OA
ATOM      6  O   UNL     1       1.066 -22.094  32.409  1.00  0.00    -0.244 OA
BRANCH   4   7
ATOM      7  C   UNL     1       1.873 -24.480  31.698  1.00  0.00     0.056 A 
ATOM      8  C   UNL     1       1.457 -25.794  31.651  1.00  0.00     0.019 A 
ATOM      9  C   UNL     1       3.207 -24.242  31.942  1.00  0.00     0.002 A 
ATOM     10  C   UNL     1       2.370 -26.819  31.847  1.00  0.00     0.002 A 
ATOM     11  C   UNL     1       3.619 -22.928  31.987  1.00  0.00     0.030 A 
ATOM     12  C   UNL     1       4.147 -25.253  32.142  1.00  0.00     0.001 A 
ATOM     13  C   UNL     1       3.705 -26.564  32.091  1.00  0.00     0.010 A 
ATOM     14  C   UNL     1       4.935 -22.657  32.225  1.00  0.00     0.111 A 
ATOM     15  C   UNL     1       5.472 -24.946  32.382  1.00  0.00     0.119 A 
ATOM     16  N   UNL     1       5.815 -23.651  32.414  1.00  0.00    -0.264 NA
ENDBRANCH   4   7
ENDBRANCH   3   4
ENDBRANCH   2   3
ENDBRANCH   1   2
BRANCH   1  17
ATOM     17  N   UNL     1       2.776 -21.591  28.153  1.00  0.00    -0.344 N 
ATOM     18  H   UNL     1       2.205 -22.441  28.198  1.00  0.00     0.346 HD
ATOM     19  H   UNL     1       2.777 -21.179  27.190  1.00  0.00     0.346 HD
BRANCH  17  20
ATOM     20  C   UNL     1       4.159 -21.852  28.488  1.00  0.00     0.289 C 
BRANCH  20  21
ATOM     21  C   UNL     1       4.480 -23.281  28.556  1.00  0.00     0.034 C 
ATOM     22  C   UNL     1       3.527 -24.175  28.368  1.00  0.00     0.009 C 
BRANCH  22  23
ATOM     23  C   UNL     1       3.722 -25.619  28.411  1.00  0.00    -0.026 A 
ATOM     24  C   UNL     1       2.653 -26.465  28.216  1.00  0.00     0.009 A 
ATOM     25  C   UNL     1       4.942 -26.208  28.640  1.00  0.00     0.009 A 
ATOM     26  C   UNL     1       2.778 -27.842  28.246  1.00  0.00     0.016 A 
ATOM     27  C   UNL     1       5.079 -27.601  28.672  1.00  0.00     0.016 A 
ATOM     28  C   UNL     1       4.002 -28.429  28.476  1.00  0.00     0.018 A 
ATOM     29  Br  UNL     1       4.214 -30.333  28.523  1.00  0.00    -0.051 Br
ENDBRANCH  22  23
ENDBRANCH  20  21
ENDBRANCH  17  20
ENDBRANCH   1  17
TORSDOF 8
ENDMDL
MODEL 3
REMARK VINA RESULT:      -5.9      2.259      2.767
REMARK SMILES O=S(=O)([N-]CC[NH2+]C/C=C/c1ccc(Br)cc1)c1cccc2cnccc12
REMARK SMILES IDX 6 1 5 2 4 3 2 4 1 5 3 6 18 7 19 8 27 9 20 10 26 11 22 12
REMARK SMILES IDX 21 13 25 14 23 15 24 16 7 17 8 20 9 21 10 22 11 23 12 24
REMARK SMILES IDX 17 25 13 26 16 27 14 28 15 29
REMARK H PARENT 7 18 7 19
ROOT
ATOM      1  C   UNL     1       2.594 -19.427  25.724  1.00  0.00     0.238 C 
ENDROOT
BRANCH   1   2
ATOM      2  C   UNL     1       2.825 -19.026  27.163  1.00  0.00    -0.070 C 
BRANCH   2   3
ATOM      3  N   UNL     1       3.454 -20.101  27.898  1.00  0.00    -0.540 NA
BRANCH   3   4
ATOM      4  S   UNL     1       3.631 -19.654  29.589  1.00  0.00     0.102 S 
ATOM      5  O   UNL     1       2.767 -18.502  29.756  1.00  0.00    -0.244 OA
ATOM      6  O   UNL     1       5.065 -19.213  29.719  1.00  0.00    -0.244 OA
BRANCH   4   7
ATOM      7  C   UNL     1       3.387 -21.065  30.497  1.00  0.00     0.056 A 
ATOM      8  C   UNL     1       4.443 -21.655  31.159  1.00  0.00     0.019 A 
ATOM      9  C   UNL     1       2.152 -21.665  30.604  1.00  0.00     0.002 A 
ATOM     10  C   UNL     1       4.241 -22.810  31.899  1.00  0.00     0.002 A 
ATOM     11  C   UNL     1       1.099 -21.072  29.943  1.00  0.00     0.030 A 
ATOM     12  C   UNL     1       1.920 -22.826  31.342  1.00  0.00     0.001 A 
ATOM     13  C   UNL     1       2.997 -23.400  31.997  1.00  0.00     0.010 A 
ATOM     14  C   UNL     1      -0.139 -21.640  30.030  1.00  0.00     0.111 A 
ATOM     15  C   UNL     1       0.656 -23.377  31.410  1.00  0.00     0.119 A 
ATOM     16  N   UNL     1      -0.329 -22.757  30.746  1.00  0.00    -0.264 NA
ENDBRANCH   4   7
ENDBRANCH   3   4
ENDBRANCH   2   3
ENDBRANCH   1   2
BRANCH   1  17
ATOM     17  N   UNL     1       1.406 -18.851  25.167  1.00  0.00    -0.344 N 
ATOM     18  H   UNL     1       0.600 -19.036  25.772  1.00  0.00     0.346 HD
ATOM     19  H   UNL     1       1.563 -17.823  25.041  1.00  0.00     0.346 HD
BRANCH  17  20
ATOM     20  C   UNL     1       1.223 -19.401  23.841  1.00  0.00     0.289 C 
BRANCH  20  21
ATOM     21  C   UNL     1       2.123 -18.819  22.841  1.00  0.00     0.034 C 
ATOM     22  C   UNL     1       1.707 -18.664  21.598  1.00  0.00     0.009 C 
BRANCH  22  23
ATOM     23  C   UNL     1       2.507 -18.099  20.519  1.00  0.00    -0.026 A 
ATOM     24  C   UNL     1       3.062 -16.845  20.655  1.00  0.00     0.009 A 
ATOM     25  C   UNL     1       2.752 -18.757  19.338  1.00  0.00     0.009 A 
ATOM     26  C   UNL     1       3.830 -16.259  19.666  1.00  0.00     0.016 A 
ATOM     27  C   UNL     1       3.528 -18.172  18.329  1.00  0.00     0.016 A 
ATOM     28  C   UNL     1       4.072 -16.921  18.483  1.00  0.00     0.018 A 
ATOM     29  Br  UNL     1       5.132 -16.141  17.090  1.00  0.00    -0.051 Br
ENDBRANCH  22  23
ENDBRANCH  20  21
ENDBRANCH  17  20
ENDBRANCH   1  17
TORSDOF 8
ENDMDL
MODEL 4
REMARK VINA RESULT:      -5.8      5.397      7.534
REMARK SMILES O=S(=O)([N-]CC[NH2+]C/C=C/c1ccc(Br)cc1)c1cccc2cnccc12
REMARK SMILES IDX 6 1 5 2 4 3 2 4 1 5 3 6 18 7 19 8 27 9 20 10 26 11 22 12
REMARK SMILES IDX 21 13 25 14 23 15 24 16 7 17 8 20 9 21 10 22 11 23 12 24
REMARK SMILES IDX 17 25 13 26 16 27 14 28 15 29
REMARK H PARENT 7 18 7 19
ROOT
ATOM      1  C   UNL     1       2.665 -17.102  30.722  1.00  0.00     0.238 C 
ENDROOT
BRANCH   1   2
ATOM      2  C   UNL     1       3.634 -15.995  30.381  1.00  0.00    -0.070 C 
BRANCH   2   3
ATOM      3  N   UNL     1       4.981 -16.511  30.268  1.00  0.00    -0.540 NA
BRANCH   3   4
ATOM      4  S   UNL     1       5.319 -16.960  28.602  1.00  0.00     0.102 S 
ATOM      5  O   UNL     1       6.698 -16.568  28.389  1.00  0.00    -0.244 OA
ATOM      6  O   UNL     1       4.425 -16.070  27.779  1.00  0.00    -0.244 OA
BRANCH   4   7
ATOM      7  C   UNL     1       4.833 -18.574  28.420  1.00  0.00     0.056 A 
ATOM      8  C   UNL     1       3.710 -18.882  27.682  1.00  0.00     0.019 A 
ATOM      9  C   UNL     1       5.526 -19.618  28.993  1.00  0.00     0.002 A 
ATOM     10  C   UNL     1       3.314 -20.203  27.538  1.00  0.00     0.002 A 
ATOM     11  C   UNL     1       6.648 -19.307  29.729  1.00  0.00     0.030 A 
ATOM     12  C   UNL     1       5.150 -20.955  28.864  1.00  0.00     0.001 A 
ATOM     13  C   UNL     1       4.019 -21.238  28.118  1.00  0.00     0.010 A 
ATOM     14  C   UNL     1       7.359 -20.318  30.308  1.00  0.00     0.111 A 
ATOM     15  C   UNL     1       5.890 -21.956  29.463  1.00  0.00     0.119 A 
ATOM     16  N   UNL     1       6.972 -21.594  30.166  1.00  0.00    -0.264 NA
ENDBRANCH   4   7
ENDBRANCH   3   4
ENDBRANCH   2   3
ENDBRANCH   1   2
BRANCH   1  17
ATOM     17  N   UNL     1       1.795 -16.768  31.811  1.00  0.00    -0.344 N 
ATOM     18  H   UNL     1       2.339 -16.580  32.659  1.00  0.00     0.346 HD
ATOM     19  H   UNL     1       1.219 -15.938  31.532  1.00  0.00     0.346 HD
BRANCH  17  20
ATOM     20  C   UNL     1       0.869 -17.864  31.996  1.00  0.00     0.289 C 
BRANCH  20  21
ATOM     21  C   UNL     1       1.458 -19.176  31.707  1.00  0.00     0.034 C 
ATOM     22  C   UNL     1       0.790 -20.046  30.973  1.00  0.00     0.009 C 
BRANCH  22  23
ATOM     23  C   UNL     1       1.269 -21.376  30.620  1.00  0.00    -0.026 A 
ATOM     24  C   UNL     1       2.266 -21.970  31.362  1.00  0.00     0.009 A 
ATOM     25  C   UNL     1       0.774 -22.098  29.561  1.00  0.00     0.009 A 
ATOM     26  C   UNL     1       2.759 -23.229  31.075  1.00  0.00     0.016 A 
ATOM     27  C   UNL     1       1.268 -23.375  29.261  1.00  0.00     0.016 A 
ATOM     28  C   UNL     1       2.261 -23.950  30.012  1.00  0.00     0.018 A 
ATOM     29  Br  UNL     1       2.920 -25.698  29.583  1.00  0.00    -0.051 Br
ENDBRANCH  22  23
ENDBRANCH  20  21
ENDBRANCH  17  20
ENDBRANCH   1  17
TORSDOF 8
ENDMDL
MODEL 5
REMARK VINA RESULT:      -5.7      7.343      8.990
REMARK SMILES O=S(=O)([N-]CC[NH2+]C/C=C/c1ccc(Br)cc1)c1cccc2cnccc12
REMARK SMILES IDX 6 1 5 2 4 3 2 4 1 5 3 6 18 7 19 8 27 9 20 10 26 11 22 12
REMARK SMILES IDX 21 13 25 14 23 15 24 16 7 17 8 20 9 21 10 22 11 23 12 24
REMARK SMILES IDX 17 25 13 26 16 27 14 28 15 29
REMARK H PARENT 7 18 7 19
ROOT
ATOM      1  C   UNL     1       1.428 -19.095  21.388  1.00  0.00     0.238 C 
ENDROOT
BRANCH   1   2
ATOM      2  C   UNL     1       1.564 -20.581  21.624  1.00  0.00    -0.070 C 
BRANCH   2   3
ATOM      3  N   UNL     1       1.545 -21.301  20.368  1.00  0.00    -0.540 NA
BRANCH   3   4
ATOM      4  S   UNL     1       2.989 -22.290  20.217  1.00  0.00     0.102 S 
ATOM      5  O   UNL     1       4.028 -21.526  20.877  1.00  0.00    -0.244 OA
ATOM      6  O   UNL     1       3.273 -22.326  18.738  1.00  0.00    -0.244 OA
BRANCH   4   7
ATOM      7  C   UNL     1       2.577 -23.845  20.752  1.00  0.00     0.056 A 
ATOM      8  C   UNL     1       1.314 -24.098  21.244  1.00  0.00     0.019 A 
ATOM      9  C   UNL     1       3.470 -24.894  20.717  1.00  0.00     0.002 A 
ATOM     10  C   UNL     1       0.982 -25.370  21.683  1.00  0.00     0.002 A 
ATOM     11  C   UNL     1       4.730 -24.639  20.223  1.00  0.00     0.030 A 
ATOM     12  C   UNL     1       3.161 -26.183  21.151  1.00  0.00     0.001 A 
ATOM     13  C   UNL     1       1.887 -26.411  21.642  1.00  0.00     0.010 A 
ATOM     14  C   UNL     1       5.638 -25.656  20.173  1.00  0.00     0.111 A 
ATOM     15  C   UNL     1       4.103 -27.192  21.089  1.00  0.00     0.119 A 
ATOM     16  N   UNL     1       5.312 -26.885  20.599  1.00  0.00    -0.264 NA
ENDBRANCH   4   7
ENDBRANCH   3   4
ENDBRANCH   2   3
ENDBRANCH   1   2
BRANCH   1  17
ATOM     17  N   UNL     1       1.853 -18.695  20.079  1.00  0.00    -0.344 N 
ATOM     18  H   UNL     1       1.858 -19.499  19.444  1.00  0.00     0.346 HD
ATOM     19  H   UNL     1       1.212 -17.940  19.738  1.00  0.00     0.346 HD
BRANCH  17  20
ATOM     20  C   UNL     1       3.164 -18.094  20.200  1.00  0.00     0.289 C 
BRANCH  20  21
ATOM     21  C   UNL     1       3.461 -17.131  19.136  1.00  0.00     0.034 C 
ATOM     22  C   UNL     1       3.841 -17.564  17.948  1.00  0.00     0.009 C 
BRANCH  22  23
ATOM     23  C   UNL     1       4.163 -16.706  16.815  1.00  0.00    -0.026 A 
ATOM     24  C   UNL     1       3.708 -17.028  15.556  1.00  0.00     0.009 A 
ATOM     25  C   UNL     1       4.915 -15.561  16.926  1.00  0.00     0.009 A 
ATOM     26  C   UNL     1       3.981 -16.253  14.444  1.00  0.00     0.016 A 
ATOM     27  C   UNL     1       5.197 -14.769  15.805  1.00  0.00     0.016 A 
ATOM     28  C   UNL     1       4.735 -15.106  14.558  1.00  0.00     0.018 A 
ATOM     29  Br  UNL     1       5.134 -14.006  13.040  1.00  0.00    -0.051 Br
ENDBRANCH  22  23
ENDBRANCH  20  21
ENDBRANCH  17  20
ENDBRANCH   1  17
TORSDOF 8
ENDMDL
MODEL 6
REMARK VINA RESULT:      -5.7      5.362      7.051
REMARK SMILES O=S(=O)([N-]CC[NH2+]C/C=C/c1ccc(Br)cc1)c1cccc2cnccc12
REMARK SMILES IDX 6 1 5 2 4 3 2 4 1 5 3 6 18 7 19 8 27 9 20 10 26 11 22 12
REMARK SMILES IDX 21 13 25 14 23 15 24 16 7 17 8 20 9 21 10 22 11 23 12 24
REMARK SMILES IDX 17 25 13 26 16 27 14 28 15 29
REMARK H PARENT 7 18 7 19
ROOT
ATOM      1  C   UNL     1       3.650 -23.026  32.172  1.00  0.00     0.238 C 
ENDROOT
BRANCH   1   2
ATOM      2  C   UNL     1       2.454 -23.547  31.408  1.00  0.00    -0.070 C 
BRANCH   2   3
ATOM      3  N   UNL     1       1.347 -22.620  31.499  1.00  0.00    -0.540 NA
BRANCH   3   4
ATOM      4  S   UNL     1       0.815 -22.153  29.890  1.00  0.00     0.102 S 
ATOM      5  O   UNL     1      -0.630 -22.102  29.982  1.00  0.00    -0.244 OA
ATOM      6  O   UNL     1       1.208 -23.309  29.008  1.00  0.00    -0.244 OA
BRANCH   4   7
ATOM      7  C   UNL     1       1.711 -20.780  29.457  1.00  0.00     0.056 A 
ATOM      8  C   UNL     1       2.486 -20.789  28.317  1.00  0.00     0.019 A 
ATOM      9  C   UNL     1       1.701 -19.629  30.213  1.00  0.00     0.002 A 
ATOM     10  C   UNL     1       3.218 -19.665  27.967  1.00  0.00     0.002 A 
ATOM     11  C   UNL     1       0.924 -19.623  31.351  1.00  0.00     0.030 A 
ATOM     12  C   UNL     1       2.427 -18.484  29.884  1.00  0.00     0.001 A 
ATOM     13  C   UNL     1       3.198 -18.518  28.734  1.00  0.00     0.010 A 
ATOM     14  C   UNL     1       0.890 -18.497  32.121  1.00  0.00     0.111 A 
ATOM     15  C   UNL     1       2.373 -17.361  30.684  1.00  0.00     0.119 A 
ATOM     16  N   UNL     1       1.601 -17.413  31.779  1.00  0.00    -0.264 NA
ENDBRANCH   4   7
ENDBRANCH   3   4
ENDBRANCH   2   3
ENDBRANCH   1   2
BRANCH   1  17
ATOM     17  N   UNL     1       4.285 -21.915  31.526  1.00  0.00    -0.344 N 
ATOM     18  H   UNL     1       3.686 -21.544  30.781  1.00  0.00     0.346 HD
ATOM     19  H   UNL     1       4.494 -21.186  32.248  1.00  0.00     0.346 HD
BRANCH  17  20
ATOM     20  C   UNL     1       5.563 -22.365  31.018  1.00  0.00     0.289 C 
BRANCH  20  21
ATOM     21  C   UNL     1       6.022 -21.608  29.849  1.00  0.00     0.034 C 
ATOM     22  C   UNL     1       6.297 -20.323  29.968  1.00  0.00     0.009 C 
BRANCH  22  23
ATOM     23  C   UNL     1       6.759 -19.468  28.883  1.00  0.00    -0.026 A 
ATOM     24  C   UNL     1       6.875 -19.974  27.607  1.00  0.00     0.009 A 
ATOM     25  C   UNL     1       7.097 -18.147  29.055  1.00  0.00     0.009 A 
ATOM     26  C   UNL     1       7.308 -19.211  26.538  1.00  0.00     0.016 A 
ATOM     27  C   UNL     1       7.537 -17.365  27.979  1.00  0.00     0.016 A 
ATOM     28  C   UNL     1       7.646 -17.888  26.715  1.00  0.00     0.018 A 
ATOM     29  Br  UNL     1       8.249 -16.798  25.258  1.00  0.00    -0.051 Br
ENDBRANCH  22  23
ENDBRANCH  20  21
ENDBRANCH  17  20
ENDBRANCH   1  17
TORSDOF 8
ENDMDL
MODEL 7
REMARK VINA RESULT:      -5.7      4.681      8.726
REMARK SMILES O=S(=O)([N-]CC[NH2+]C/C=C/c1ccc(Br)cc1)c1cccc2cnccc12
REMARK SMILES IDX 6 1 5 2 4 3 2 4 1 5 3 6 18 7 19 8 27 9 20 10 26 11 22 12
REMARK SMILES IDX 21 13 25 14 23 15 24 16 7 17 8 20 9 21 10 22 11 23 12 24
REMARK SMILES IDX 17 25 13 26 16 27 14 28 15 29
REMARK H PARENT 7 18 7 19
ROOT
ATOM      1  C   UNL     1       5.928 -15.851  26.700  1.00  0.00     0.238 C 
ENDROOT
BRANCH   1   2
ATOM      2  C   UNL     1       6.494 -16.562  25.492  1.00  0.00    -0.070 C 
BRANCH   2   3
ATOM      3  N   UNL     1       5.734 -17.759  25.202  1.00  0.00    -0.540 NA
BRANCH   3   4
ATOM      4  S   UNL     1       4.977 -17.626  23.622  1.00  0.00     0.102 S 
ATOM      5  O   UNL     1       6.013 -18.012  22.685  1.00  0.00    -0.244 OA
ATOM      6  O   UNL     1       4.693 -16.156  23.458  1.00  0.00    -0.244 OA
BRANCH   4   7
ATOM      7  C   UNL     1       3.514 -18.479  23.705  1.00  0.00     0.056 A 
ATOM      8  C   UNL     1       3.110 -19.049  24.894  1.00  0.00     0.019 A 
ATOM      9  C   UNL     1       2.692 -18.635  22.610  1.00  0.00     0.002 A 
ATOM     10  C   UNL     1       1.914 -19.747  24.957  1.00  0.00     0.002 A 
ATOM     11  C   UNL     1       3.099 -18.064  21.425  1.00  0.00     0.030 A 
ATOM     12  C   UNL     1       1.485 -19.332  22.646  1.00  0.00     0.001 A 
ATOM     13  C   UNL     1       1.101 -19.895  23.852  1.00  0.00     0.010 A 
ATOM     14  C   UNL     1       2.307 -18.197  20.322  1.00  0.00     0.111 A 
ATOM     15  C   UNL     1       0.706 -19.451  21.513  1.00  0.00     0.119 A 
ATOM     16  N   UNL     1       1.152 -18.875  20.388  1.00  0.00    -0.264 NA
ENDBRANCH   4   7
ENDBRANCH   3   4
ENDBRANCH   2   3
ENDBRANCH   1   2
BRANCH   1  17
ATOM     17  N   UNL     1       4.643 -16.350  27.091  1.00  0.00    -0.344 N 
ATOM     18  H   UNL     1       3.904 -15.912  26.531  1.00  0.00     0.346 HD
ATOM     19  H   UNL     1       4.642 -17.391  26.978  1.00  0.00     0.346 HD
BRANCH  17  20
ATOM     20  C   UNL     1       4.475 -16.091  28.504  1.00  0.00     0.289 C 
BRANCH  20  21
ATOM     21  C   UNL     1       3.845 -17.200  29.226  1.00  0.00     0.034 C 
ATOM     22  C   UNL     1       3.342 -18.218  28.552  1.00  0.00     0.009 C 
BRANCH  22  23
ATOM     23  C   UNL     1       2.693 -19.375  29.156  1.00  0.00    -0.026 A 
ATOM     24  C   UNL     1       2.302 -19.336  30.476  1.00  0.00     0.009 A 
ATOM     25  C   UNL     1       2.438 -20.539  28.471  1.00  0.00     0.009 A 
ATOM     26  C   UNL     1       1.683 -20.402  31.102  1.00  0.00     0.016 A 
ATOM     27  C   UNL     1       1.811 -21.625  29.096  1.00  0.00     0.016 A 
ATOM     28  C   UNL     1       1.429 -21.567  30.412  1.00  0.00     0.018 A 
ATOM     29  Br  UNL     1       0.572 -23.066  31.246  1.00  0.00    -0.051 Br
ENDBRANCH  22  23
ENDBRANCH  20  21
ENDBRANCH  17  20
ENDBRANCH   1  17
TORSDOF 8
ENDMDL
MODEL 8
REMARK VINA RESULT:      -5.7      5.455      7.703
REMARK SMILES O=S(=O)([N-]CC[NH2+]C/C=C/c1ccc(Br)cc1)c1cccc2cnccc12
REMARK SMILES IDX 6 1 5 2 4 3 2 4 1 5 3 6 18 7 19 8 27 9 20 10 26 11 22 12
REMARK SMILES IDX 21 13 25 14 23 15 24 16 7 17 8 20 9 21 10 22 11 23 12 24
REMARK SMILES IDX 17 25 13 26 16 27 14 28 15 29
REMARK H PARENT 7 18 7 19
ROOT
ATOM      1  C   UNL     1       0.294 -19.487  22.917  1.00  0.00     0.238 C 
ENDROOT
BRANCH   1   2
ATOM      2  C   UNL     1       1.339 -19.049  23.916  1.00  0.00    -0.070 C 
BRANCH   2   3
ATOM      3  N   UNL     1       2.484 -19.934  23.878  1.00  0.00    -0.540 NA
BRANCH   3   4
ATOM      4  S   UNL     1       3.885 -19.082  23.246  1.00  0.00     0.102 S 
ATOM      5  O   UNL     1       4.953 -19.393  24.175  1.00  0.00    -0.244 OA
ATOM      6  O   UNL     1       3.535 -17.623  23.376  1.00  0.00    -0.244 OA
BRANCH   4   7
ATOM      7  C   UNL     1       4.010 -19.491  21.606  1.00  0.00     0.056 A 
ATOM      8  C   UNL     1       3.229 -18.848  20.669  1.00  0.00     0.019 A 
ATOM      9  C   UNL     1       4.876 -20.462  21.155  1.00  0.00     0.002 A 
ATOM     10  C   UNL     1       3.332 -19.186  19.328  1.00  0.00     0.002 A 
ATOM     11  C   UNL     1       5.656 -21.102  22.094  1.00  0.00     0.030 A 
ATOM     12  C   UNL     1       5.000 -20.822  19.813  1.00  0.00     0.001 A 
ATOM     13  C   UNL     1       4.205 -20.162  18.892  1.00  0.00     0.010 A 
ATOM     14  C   UNL     1       6.527 -22.068  21.681  1.00  0.00     0.111 A 
ATOM     15  C   UNL     1       5.890 -21.805  19.427  1.00  0.00     0.119 A 
ATOM     16  N   UNL     1       6.622 -22.393  20.383  1.00  0.00    -0.264 NA
ENDBRANCH   4   7
ENDBRANCH   3   4
ENDBRANCH   2   3
ENDBRANCH   1   2
BRANCH   1  17
ATOM     17  N   UNL     1       0.223 -20.911  22.769  1.00  0.00    -0.344 N 
ATOM     18  H   UNL     1       0.884 -21.370  23.404  1.00  0.00     0.346 HD
ATOM     19  H   UNL     1      -0.762 -21.216  22.957  1.00  0.00     0.346 HD
BRANCH  17  20
ATOM     20  C   UNL     1       0.494 -21.231  21.384  1.00  0.00     0.289 C 
BRANCH  20  21
ATOM     21  C   UNL     1       1.598 -22.180  21.213  1.00  0.00     0.034 C 
ATOM     22  C   UNL     1       1.372 -23.475  21.334  1.00  0.00     0.009 C 
BRANCH  22  23
ATOM     23  C   UNL     1       2.385 -24.512  21.186  1.00  0.00    -0.026 A 
ATOM     24  C   UNL     1       2.195 -25.749  21.762  1.00  0.00     0.009 A 
ATOM     25  C   UNL     1       3.554 -24.330  20.487  1.00  0.00     0.009 A 
ATOM     26  C   UNL     1       3.120 -26.771  21.655  1.00  0.00     0.016 A 
ATOM     27  C   UNL     1       4.498 -25.359  20.373  1.00  0.00     0.016 A 
ATOM     28  C   UNL     1       4.291 -26.585  20.954  1.00  0.00     0.018 A 
ATOM     29  Br  UNL     1       5.596 -27.978  20.784  1.00  0.00    -0.051 Br
ENDBRANCH  22  23
ENDBRANCH  20  21
ENDBRANCH  17  20
ENDBRANCH   1  17
TORSDOF 8
ENDMDL
MODEL 9
REMARK VINA RESULT:      -5.7      4.942      8.520
REMARK SMILES O=S(=O)([N-]CC[NH2+]C/C=C/c1ccc(Br)cc1)c1cccc2cnccc12
REMARK SMILES IDX 6 1 5 2 4 3 2 4 1 5 3 6 18 7 19 8 27 9 20 10 26 11 22 12
REMARK SMILES IDX 21 13 25 14 23 15 24 16 7 17 8 20 9 21 10 22 11 23 12 24
REMARK SMILES IDX 17 25 13 26 16 27 14 28 15 29
REMARK H PARENT 7 18 7 19
ROOT
ATOM      1  C   UNL     1      -0.451 -19.699  21.467  1.00  0.00     0.238 C 
ENDROOT
BRANCH   1   2
ATOM      2  C   UNL     1       0.223 -20.557  20.421  1.00  0.00    -0.070 C 
BRANCH   2   3
ATOM      3  N   UNL     1       1.476 -19.965  20.006  1.00  0.00    -0.540 NA
BRANCH   3   4
ATOM      4  S   UNL     1       2.820 -20.985  20.500  1.00  0.00     0.102 S 
ATOM      5  O   UNL     1       3.176 -21.725  19.306  1.00  0.00    -0.244 OA
ATOM      6  O   UNL     1       2.226 -21.937  21.505  1.00  0.00    -0.244 OA
BRANCH   4   7
ATOM      7  C   UNL     1       3.944 -19.977  21.269  1.00  0.00     0.056 A 
ATOM      8  C   UNL     1       3.673 -18.635  21.437  1.00  0.00     0.019 A 
ATOM      9  C   UNL     1       5.149 -20.449  21.745  1.00  0.00     0.002 A 
ATOM     10  C   UNL     1       4.597 -17.814  22.065  1.00  0.00     0.002 A 
ATOM     11  C   UNL     1       5.415 -21.789  21.577  1.00  0.00     0.030 A 
ATOM     12  C   UNL     1       6.095 -19.645  22.380  1.00  0.00     0.001 A 
ATOM     13  C   UNL     1       5.799 -18.301  22.536  1.00  0.00     0.010 A 
ATOM     14  C   UNL     1       6.598 -22.290  22.038  1.00  0.00     0.111 A 
ATOM     15  C   UNL     1       7.283 -20.180  22.835  1.00  0.00     0.119 A 
ATOM     16  N   UNL     1       7.488 -21.491  22.644  1.00  0.00    -0.264 NA
ENDBRANCH   4   7
ENDBRANCH   3   4
ENDBRANCH   2   3
ENDBRANCH   1   2
BRANCH   1  17
ATOM     17  N   UNL     1      -0.227 -20.167  22.803  1.00  0.00    -0.344 N 
ATOM     18  H   UNL     1      -1.119 -20.302  23.289  1.00  0.00     0.346 HD
ATOM     19  H   UNL     1       0.322 -21.058  22.755  1.00  0.00     0.346 HD
BRANCH  17  20
ATOM     20  C   UNL     1       0.615 -19.204  23.478  1.00  0.00     0.289 C 
BRANCH  20  21
ATOM     21  C   UNL     1       1.721 -19.818  24.219  1.00  0.00     0.034 C 
ATOM     22  C   UNL     1       2.166 -19.247  25.324  1.00  0.00     0.009 C 
BRANCH  22  23
ATOM     23  C   UNL     1       3.255 -19.761  26.144  1.00  0.00    -0.026 A 
ATOM     24  C   UNL     1       4.533 -19.821  25.634  1.00  0.00     0.009 A 
ATOM     25  C   UNL     1       3.083 -20.201  27.434  1.00  0.00     0.009 A 
ATOM     26  C   UNL     1       5.605 -20.298  26.366  1.00  0.00     0.016 A 
ATOM     27  C   UNL     1       4.163 -20.687  28.184  1.00  0.00     0.016 A 
ATOM     28  C   UNL     1       5.429 -20.740  27.658  1.00  0.00     0.018 A 
ATOM     29  Br  UNL     1       6.891 -21.407  28.703  1.00  0.00    -0.051 Br
ENDBRANCH  22  23
ENDBRANCH  20  21
ENDBRANCH  17  20
ENDBRANCH   1  17
TORSDOF 8
ENDMDL
