MODEL 1
REMARK VINA RESULT:      -5.8      0.000      0.000
REMARK SMILES COc1c(C)c2c(c([O-])c1C/C=C(\C)CCC(=O)[O-])C(=O)OC2
REMARK SMILES IDX 12 1 13 2 14 3 11 4 10 5 3 6 4 7 6 8 8 9 7 10 23 11 20 12
REMARK SMILES IDX 22 13 21 14 5 15 9 16 2 17 1 18 15 19 16 20 17 21 18 22
REMARK SMILES IDX 19 23
REMARK H PARENT
ROOT
ATOM      1  C   UNL     1     126.346 157.529 104.579  1.00  0.00    -0.023 C 
ATOM      2  C   UNL     1     126.226 158.837 104.924  1.00  0.00    -0.077 C 
ATOM      3  C   UNL     1     125.606 159.762 103.952  1.00  0.00     0.039 C 
ENDROOT
BRANCH   1   4
ATOM      4  C   UNL     1     125.897 156.973 103.304  1.00  0.00     0.066 C 
BRANCH   4   5
ATOM      5  C   UNL     1     126.893 156.196 102.542  1.00  0.00    -0.009 A 
ATOM      6  C   UNL     1     127.625 156.691 101.496  1.00  0.00     0.125 A 
ATOM      7  C   UNL     1     128.542 155.845 100.855  1.00  0.00    -0.001 A 
ATOM      8  C   UNL     1     128.736 154.537 101.235  1.00  0.00     0.010 A 
ATOM      9  C   UNL     1     127.104 154.859 102.916  1.00  0.00    -0.086 A 
ATOM     10  C   UNL     1     128.003 154.033 102.285  1.00  0.00     0.059 A 
ATOM     11  C   UNL     1     129.631 153.446 100.729  1.00  0.00     0.270 C 
ATOM     12  C   UNL     1     128.396 152.631 102.486  1.00  0.00     0.338 C 
ATOM     13  O   UNL     1     129.361 152.339 101.539  1.00  0.00    -0.457 OA
ATOM     14  O   UNL     1     127.916 151.856 103.378  1.00  0.00    -0.246 OA
ATOM     15  C   UNL     1     129.300 156.428  99.739  1.00  0.00     0.049 C 
ATOM     16  O   UNL     1     126.398 154.273 103.972  1.00  0.00    -0.872 OA
BRANCH   6  17
ATOM     17  O   UNL     1     127.464 157.998 101.073  1.00  0.00    -0.496 OA
ATOM     18  C   UNL     1     128.241 159.045 101.595  1.00  0.00     0.278 C 
ENDBRANCH   6  17
ENDBRANCH   4   5
ENDBRANCH   1   4
BRANCH   2  19
ATOM     19  C   UNL     1     126.719 159.336 106.210  1.00  0.00     0.036 C 
BRANCH  19  20
ATOM     20  C   UNL     1     126.062 158.772 107.433  1.00  0.00     0.057 C 
BRANCH  20  21
ATOM     21  C   UNL     1     125.752 159.732 108.496  1.00  0.00     0.042 C 
ATOM     22  O   UNL     1     126.565 159.967 109.425  1.00  0.00    -0.550 OA
ATOM     23  O   UNL     1     124.517 160.404 108.475  1.00  0.00    -0.550 OA
ENDBRANCH  20  21
ENDBRANCH  19  20
ENDBRANCH   2  19
TORSDOF 6
ENDMDL
MODEL 2
REMARK VINA RESULT:      -5.5      1.307      2.960
REMARK SMILES COc1c(C)c2c(c([O-])c1C/C=C(\C)CCC(=O)[O-])C(=O)OC2
REMARK SMILES IDX 12 1 13 2 14 3 11 4 10 5 3 6 4 7 6 8 8 9 7 10 23 11 20 12
REMARK SMILES IDX 22 13 21 14 5 15 9 16 2 17 1 18 15 19 16 20 17 21 18 22
REMARK SMILES IDX 19 23
REMARK H PARENT
ROOT
ATOM      1  C   UNL     1     126.089 157.807 104.641  1.00  0.00    -0.023 C 
ATOM      2  C   UNL     1     126.541 159.043 104.976  1.00  0.00    -0.077 C 
ATOM      3  C   UNL     1     126.839 159.996 103.886  1.00  0.00     0.039 C 
ENDROOT
BRANCH   1   4
ATOM      4  C   UNL     1     125.875 157.356 103.267  1.00  0.00     0.066 C 
BRANCH   4   5
ATOM      5  C   UNL     1     126.629 156.161 102.846  1.00  0.00    -0.009 A 
ATOM      6  C   UNL     1     126.374 154.889 103.287  1.00  0.00     0.125 A 
ATOM      7  C   UNL     1     127.168 153.838 102.807  1.00  0.00    -0.001 A 
ATOM      8  C   UNL     1     128.193 154.031 101.910  1.00  0.00     0.010 A 
ATOM      9  C   UNL     1     127.680 156.339 101.932  1.00  0.00    -0.086 A 
ATOM     10  C   UNL     1     128.455 155.306 101.463  1.00  0.00     0.059 A 
ATOM     11  C   UNL     1     129.169 153.100 101.256  1.00  0.00     0.270 C 
ATOM     12  C   UNL     1     129.584 155.239 100.525  1.00  0.00     0.338 C 
ATOM     13  O   UNL     1     129.965 153.912 100.440  1.00  0.00    -0.457 OA
ATOM     14  O   UNL     1     130.093 156.238  99.919  1.00  0.00    -0.246 OA
ATOM     15  C   UNL     1     126.850 152.495 103.313  1.00  0.00     0.049 C 
ATOM     16  O   UNL     1     128.008 157.604 101.431  1.00  0.00    -0.872 OA
BRANCH   6  17
ATOM     17  O   UNL     1     125.357 154.643 104.192  1.00  0.00    -0.496 OA
ATOM     18  C   UNL     1     124.004 154.777 103.838  1.00  0.00     0.278 C 
ENDBRANCH   6  17
ENDBRANCH   4   5
ENDBRANCH   1   4
BRANCH   2  19
ATOM     19  C   UNL     1     126.758 159.426 106.373  1.00  0.00     0.036 C 
BRANCH  19  20
ATOM     20  C   UNL     1     125.947 158.686 107.393  1.00  0.00     0.057 C 
BRANCH  20  21
ATOM     21  C   UNL     1     125.533 159.459 108.568  1.00  0.00     0.042 C 
ATOM     22  O   UNL     1     126.105 159.321 109.678  1.00  0.00    -0.550 OA
ATOM     23  O   UNL     1     124.472 160.374 108.448  1.00  0.00    -0.550 OA
ENDBRANCH  20  21
ENDBRANCH  19  20
ENDBRANCH   2  19
TORSDOF 6
ENDMDL
MODEL 3
REMARK VINA RESULT:      -5.3      2.267      3.267
REMARK SMILES COc1c(C)c2c(c([O-])c1C/C=C(\C)CCC(=O)[O-])C(=O)OC2
REMARK SMILES IDX 12 1 13 2 14 3 11 4 10 5 3 6 4 7 6 8 8 9 7 10 23 11 20 12
REMARK SMILES IDX 22 13 21 14 5 15 9 16 2 17 1 18 15 19 16 20 17 21 18 22
REMARK SMILES IDX 19 23
REMARK H PARENT
ROOT
ATOM      1  C   UNL     1     126.663 154.884 103.713  1.00  0.00    -0.023 C 
ATOM      2  C   UNL     1     125.741 155.859 103.922  1.00  0.00    -0.077 C 
ATOM      3  C   UNL     1     124.320 155.545 103.659  1.00  0.00     0.039 C 
ENDROOT
BRANCH   1   4
ATOM      4  C   UNL     1     126.341 153.538 103.243  1.00  0.00     0.066 C 
BRANCH   4   5
ATOM      5  C   UNL     1     127.010 153.100 102.003  1.00  0.00    -0.009 A 
ATOM      6  C   UNL     1     126.934 153.764 100.807  1.00  0.00     0.125 A 
ATOM      7  C   UNL     1     127.619 153.240  99.701  1.00  0.00    -0.001 A 
ATOM      8  C   UNL     1     128.366 152.086  99.769  1.00  0.00     0.010 A 
ATOM      9  C   UNL     1     127.775 151.925 102.053  1.00  0.00    -0.086 A 
ATOM     10  C   UNL     1     128.445 151.415 100.967  1.00  0.00     0.059 A 
ATOM     11  C   UNL     1     129.175 151.331  98.759  1.00  0.00     0.270 C 
ATOM     12  C   UNL     1     129.293 150.229 100.772  1.00  0.00     0.338 C 
ATOM     13  O   UNL     1     129.696 150.231  99.449  1.00  0.00    -0.457 OA
ATOM     14  O   UNL     1     129.582 149.378 101.677  1.00  0.00    -0.246 OA
ATOM     15  C   UNL     1     127.504 153.993  98.444  1.00  0.00     0.049 C 
ATOM     16  O   UNL     1     127.905 151.185 103.233  1.00  0.00    -0.872 OA
BRANCH   6  17
ATOM     17  O   UNL     1     126.194 154.926 100.686  1.00  0.00    -0.496 OA
ATOM     18  C   UNL     1     124.879 154.917 100.189  1.00  0.00     0.278 C 
ENDBRANCH   6  17
ENDBRANCH   4   5
ENDBRANCH   1   4
BRANCH   2  19
ATOM     19  C   UNL     1     126.131 157.198 104.372  1.00  0.00     0.036 C 
BRANCH  19  20
ATOM     20  C   UNL     1     126.477 157.332 105.823  1.00  0.00     0.057 C 
BRANCH  20  21
ATOM     21  C   UNL     1     126.363 158.680 106.388  1.00  0.00     0.042 C 
ATOM     22  O   UNL     1     126.027 158.863 107.584  1.00  0.00    -0.550 OA
ATOM     23  O   UNL     1     126.636 159.792 105.571  1.00  0.00    -0.550 OA
ENDBRANCH  20  21
ENDBRANCH  19  20
ENDBRANCH   2  19
TORSDOF 6
ENDMDL
MODEL 4
REMARK VINA RESULT:      -5.3      2.614      3.576
REMARK SMILES COc1c(C)c2c(c([O-])c1C/C=C(\C)CCC(=O)[O-])C(=O)OC2
REMARK SMILES IDX 12 1 13 2 14 3 11 4 10 5 3 6 4 7 6 8 8 9 7 10 23 11 20 12
REMARK SMILES IDX 22 13 21 14 5 15 9 16 2 17 1 18 15 19 16 20 17 21 18 22
REMARK SMILES IDX 19 23
REMARK H PARENT
ROOT
ATOM      1  C   UNL     1     126.739 154.905 103.878  1.00  0.00    -0.023 C 
ATOM      2  C   UNL     1     125.856 155.899 104.153  1.00  0.00    -0.077 C 
ATOM      3  C   UNL     1     124.418 155.637 103.929  1.00  0.00     0.039 C 
ENDROOT
BRANCH   1   4
ATOM      4  C   UNL     1     126.360 153.586 103.375  1.00  0.00     0.066 C 
BRANCH   4   5
ATOM      5  C   UNL     1     127.004 153.154 102.120  1.00  0.00    -0.009 A 
ATOM      6  C   UNL     1     126.918 153.833 100.933  1.00  0.00     0.125 A 
ATOM      7  C   UNL     1     127.579 153.314  99.811  1.00  0.00    -0.001 A 
ATOM      8  C   UNL     1     128.312 152.150  99.853  1.00  0.00     0.010 A 
ATOM      9  C   UNL     1     127.755 151.968 102.144  1.00  0.00    -0.086 A 
ATOM     10  C   UNL     1     128.402 151.463 101.042  1.00  0.00     0.059 A 
ATOM     11  C   UNL     1     129.096 151.396  98.822  1.00  0.00     0.270 C 
ATOM     12  C   UNL     1     129.231 150.270 100.820  1.00  0.00     0.338 C 
ATOM     13  O   UNL     1     129.614 150.282  99.491  1.00  0.00    -0.457 OA
ATOM     14  O   UNL     1     129.523 149.405 101.710  1.00  0.00    -0.246 OA
ATOM     15  C   UNL     1     127.453 154.082  98.564  1.00  0.00     0.049 C 
ATOM     16  O   UNL     1     127.894 151.213 103.314  1.00  0.00    -0.872 OA
BRANCH   6  17
ATOM     17  O   UNL     1     126.190 155.005 100.837  1.00  0.00    -0.496 OA
ATOM     18  C   UNL     1     124.839 155.008 100.450  1.00  0.00     0.278 C 
ENDBRANCH   6  17
ENDBRANCH   4   5
ENDBRANCH   1   4
BRANCH   2  19
ATOM     19  C   UNL     1     126.303 157.209 104.633  1.00  0.00     0.036 C 
BRANCH  19  20
ATOM     20  C   UNL     1     126.390 158.294 103.603  1.00  0.00     0.057 C 
BRANCH  20  21
ATOM     21  C   UNL     1     126.404 159.666 104.117  1.00  0.00     0.042 C 
ATOM     22  O   UNL     1     125.358 160.220 104.538  1.00  0.00    -0.550 OA
ATOM     23  O   UNL     1     127.617 160.379 104.140  1.00  0.00    -0.550 OA
ENDBRANCH  20  21
ENDBRANCH  19  20
ENDBRANCH   2  19
TORSDOF 6
ENDMDL
MODEL 5
REMARK VINA RESULT:      -5.3      1.343      3.169
REMARK SMILES COc1c(C)c2c(c([O-])c1C/C=C(\C)CCC(=O)[O-])C(=O)OC2
REMARK SMILES IDX 12 1 13 2 14 3 11 4 10 5 3 6 4 7 6 8 8 9 7 10 23 11 20 12
REMARK SMILES IDX 22 13 21 14 5 15 9 16 2 17 1 18 15 19 16 20 17 21 18 22
REMARK SMILES IDX 19 23
REMARK H PARENT
ROOT
ATOM      1  C   UNL     1     126.228 157.709 104.183  1.00  0.00    -0.023 C 
ATOM      2  C   UNL     1     126.335 159.004 104.580  1.00  0.00    -0.077 C 
ATOM      3  C   UNL     1     126.137 160.063 103.569  1.00  0.00     0.039 C 
ENDROOT
BRANCH   1   4
ATOM      4  C   UNL     1     125.926 157.294 102.814  1.00  0.00     0.066 C 
BRANCH   4   5
ATOM      5  C   UNL     1     126.890 156.374 102.182  1.00  0.00    -0.009 A 
ATOM      6  C   UNL     1     126.793 155.008 102.215  1.00  0.00     0.125 A 
ATOM      7  C   UNL     1     127.779 154.246 101.571  1.00  0.00    -0.001 A 
ATOM      8  C   UNL     1     128.841 154.816 100.907  1.00  0.00     0.010 A 
ATOM      9  C   UNL     1     127.981 156.937 101.500  1.00  0.00    -0.086 A 
ATOM     10  C   UNL     1     128.944 156.187 100.870  1.00  0.00     0.059 A 
ATOM     11  C   UNL     1     130.004 154.242 100.155  1.00  0.00     0.270 C 
ATOM     12  C   UNL     1     130.153 156.535 100.108  1.00  0.00     0.338 C 
ATOM     13  O   UNL     1     130.738 155.347  99.710  1.00  0.00    -0.457 OA
ATOM     14  O   UNL     1     130.557 157.722  99.876  1.00  0.00    -0.246 OA
ATOM     15  C   UNL     1     127.625 152.786 101.638  1.00  0.00     0.049 C 
ATOM     16  O   UNL     1     128.157 158.323 101.418  1.00  0.00    -0.872 OA
BRANCH   6  17
ATOM     17  O   UNL     1     125.747 154.387 102.873  1.00  0.00    -0.496 OA
ATOM     18  C   UNL     1     125.824 154.053 104.236  1.00  0.00     0.278 C 
ENDBRANCH   6  17
ENDBRANCH   4   5
ENDBRANCH   1   4
BRANCH   2  19
ATOM     19  C   UNL     1     126.665 159.354 105.964  1.00  0.00     0.036 C 
BRANCH  19  20
ATOM     20  C   UNL     1     126.024 158.516 107.027  1.00  0.00     0.057 C 
BRANCH  20  21
ATOM     21  C   UNL     1     125.554 159.236 108.215  1.00  0.00     0.042 C 
ATOM     22  O   UNL     1     124.730 160.179 108.127  1.00  0.00    -0.550 OA
ATOM     23  O   UNL     1     126.038 158.859 109.481  1.00  0.00    -0.550 OA
ENDBRANCH  20  21
ENDBRANCH  19  20
ENDBRANCH   2  19
TORSDOF 6
ENDMDL
MODEL 6
REMARK VINA RESULT:      -5.2      4.069      7.784
REMARK SMILES COc1c(C)c2c(c([O-])c1C/C=C(\C)CCC(=O)[O-])C(=O)OC2
REMARK SMILES IDX 12 1 13 2 14 3 11 4 10 5 3 6 4 7 6 8 8 9 7 10 23 11 20 12
REMARK SMILES IDX 22 13 21 14 5 15 9 16 2 17 1 18 15 19 16 20 17 21 18 22
REMARK SMILES IDX 19 23
REMARK H PARENT
ROOT
ATOM      1  C   UNL     1     126.271 154.336 101.561  1.00  0.00    -0.023 C 
ATOM      2  C   UNL     1     127.223 153.417 101.867  1.00  0.00    -0.077 C 
ATOM      3  C   UNL     1     127.960 153.572 103.138  1.00  0.00     0.039 C 
ENDROOT
BRANCH   1   4
ATOM      4  C   UNL     1     125.924 155.472 102.413  1.00  0.00     0.066 C 
BRANCH   4   5
ATOM      5  C   UNL     1     124.484 155.716 102.624  1.00  0.00    -0.009 A 
ATOM      6  C   UNL     1     123.736 156.608 101.901  1.00  0.00     0.125 A 
ATOM      7  C   UNL     1     122.374 156.745 102.203  1.00  0.00    -0.001 A 
ATOM      8  C   UNL     1     121.757 156.019 103.197  1.00  0.00     0.010 A 
ATOM      9  C   UNL     1     123.838 154.985 103.634  1.00  0.00    -0.086 A 
ATOM     10  C   UNL     1     122.503 155.122 103.927  1.00  0.00     0.059 A 
ATOM     11  C   UNL     1     120.349 155.978 103.709  1.00  0.00     0.270 C 
ATOM     12  C   UNL     1     121.617 154.486 104.912  1.00  0.00     0.338 C 
ATOM     13  O   UNL     1     120.357 155.029 104.737  1.00  0.00    -0.457 OA
ATOM     14  O   UNL     1     121.977 153.601 105.757  1.00  0.00    -0.246 OA
ATOM     15  C   UNL     1     121.620 157.715 101.397  1.00  0.00     0.049 C 
ATOM     16  O   UNL     1     124.527 154.055 104.420  1.00  0.00    -0.872 OA
BRANCH   6  17
ATOM     17  O   UNL     1     124.311 157.363 100.895  1.00  0.00    -0.496 OA
ATOM     18  C   UNL     1     124.390 156.896  99.573  1.00  0.00     0.278 C 
ENDBRANCH   6  17
ENDBRANCH   4   5
ENDBRANCH   1   4
BRANCH   2  19
ATOM     19  C   UNL     1     127.540 152.313 100.957  1.00  0.00     0.036 C 
BRANCH  19  20
ATOM     20  C   UNL     1     127.838 150.993 101.600  1.00  0.00     0.057 C 
BRANCH  20  21
ATOM     21  C   UNL     1     128.852 150.169 100.936  1.00  0.00     0.042 C 
ATOM     22  O   UNL     1     129.013 150.205  99.691  1.00  0.00    -0.550 OA
ATOM     23  O   UNL     1     129.662 149.320 101.711  1.00  0.00    -0.550 OA
ENDBRANCH  20  21
ENDBRANCH  19  20
ENDBRANCH   2  19
TORSDOF 6
ENDMDL
MODEL 7
REMARK VINA RESULT:      -5.2      1.379      3.530
REMARK SMILES COc1c(C)c2c(c([O-])c1C/C=C(\C)CCC(=O)[O-])C(=O)OC2
REMARK SMILES IDX 12 1 13 2 14 3 11 4 10 5 3 6 4 7 6 8 8 9 7 10 23 11 20 12
REMARK SMILES IDX 22 13 21 14 5 15 9 16 2 17 1 18 15 19 16 20 17 21 18 22
REMARK SMILES IDX 19 23
REMARK H PARENT
ROOT
ATOM      1  C   UNL     1     126.272 156.420 104.494  1.00  0.00    -0.023 C 
ATOM      2  C   UNL     1     126.251 157.670 105.023  1.00  0.00    -0.077 C 
ATOM      3  C   UNL     1     126.041 158.812 104.107  1.00  0.00     0.039 C 
ENDROOT
BRANCH   1   4
ATOM      4  C   UNL     1     126.098 156.127 103.072  1.00  0.00     0.066 C 
BRANCH   4   5
ATOM      5  C   UNL     1     127.332 155.912 102.293  1.00  0.00    -0.009 A 
ATOM      6  C   UNL     1     128.180 154.850 102.464  1.00  0.00     0.125 A 
ATOM      7  C   UNL     1     129.323 154.764 101.655  1.00  0.00    -0.001 A 
ATOM      8  C   UNL     1     129.626 155.702 100.695  1.00  0.00     0.010 A 
ATOM      9  C   UNL     1     127.657 156.860 101.309  1.00  0.00    -0.086 A 
ATOM     10  C   UNL     1     128.777 156.771 100.518  1.00  0.00     0.059 A 
ATOM     11  C   UNL     1     130.756 155.841  99.721  1.00  0.00     0.270 C 
ATOM     12  C   UNL     1     129.322 157.615  99.445  1.00  0.00     0.338 C 
ATOM     13  O   UNL     1     130.491 157.017  99.011  1.00  0.00    -0.457 OA
ATOM     14  O   UNL     1     128.790 158.692  99.019  1.00  0.00    -0.246 OA
ATOM     15  C   UNL     1     130.198 153.605 101.882  1.00  0.00     0.049 C 
ATOM     16  O   UNL     1     126.846 157.974 101.069  1.00  0.00    -0.872 OA
BRANCH   6  17
ATOM     17  O   UNL     1     127.922 153.883 103.418  1.00  0.00    -0.496 OA
ATOM     18  C   UNL     1     127.068 152.798 103.159  1.00  0.00     0.278 C 
ENDBRANCH   6  17
ENDBRANCH   4   5
ENDBRANCH   1   4
BRANCH   2  19
ATOM     19  C   UNL     1     126.456 157.898 106.455  1.00  0.00     0.036 C 
BRANCH  19  20
ATOM     20  C   UNL     1     126.222 159.296 106.941  1.00  0.00     0.057 C 
BRANCH  20  21
ATOM     21  C   UNL     1     125.514 159.422 108.218  1.00  0.00     0.042 C 
ATOM     22  O   UNL     1     124.559 160.226 108.362  1.00  0.00    -0.550 OA
ATOM     23  O   UNL     1     125.914 158.625 109.306  1.00  0.00    -0.550 OA
ENDBRANCH  20  21
ENDBRANCH  19  20
ENDBRANCH   2  19
TORSDOF 6
ENDMDL
MODEL 8
REMARK VINA RESULT:      -5.1      4.324      6.741
REMARK SMILES COc1c(C)c2c(c([O-])c1C/C=C(\C)CCC(=O)[O-])C(=O)OC2
REMARK SMILES IDX 12 1 13 2 14 3 11 4 10 5 3 6 4 7 6 8 8 9 7 10 23 11 20 12
REMARK SMILES IDX 22 13 21 14 5 15 9 16 2 17 1 18 15 19 16 20 17 21 18 22
REMARK SMILES IDX 19 23
REMARK H PARENT
ROOT
ATOM      1  C   UNL     1     126.499 159.400 105.215  1.00  0.00    -0.023 C 
ATOM      2  C   UNL     1     126.329 158.239 105.898  1.00  0.00    -0.077 C 
ATOM      3  C   UNL     1     126.318 156.974 105.132  1.00  0.00     0.039 C 
ENDROOT
BRANCH   1   4
ATOM      4  C   UNL     1     126.674 159.482 103.766  1.00  0.00     0.066 C 
BRANCH   4   5
ATOM      5  C   UNL     1     126.769 160.838 103.194  1.00  0.00    -0.009 A 
ATOM      6  C   UNL     1     125.701 161.676 103.006  1.00  0.00     0.125 A 
ATOM      7  C   UNL     1     125.928 162.943 102.451  1.00  0.00    -0.001 A 
ATOM      8  C   UNL     1     127.181 163.381 102.088  1.00  0.00     0.010 A 
ATOM      9  C   UNL     1     128.039 161.302 102.817  1.00  0.00    -0.086 A 
ATOM     10  C   UNL     1     128.258 162.545 102.274  1.00  0.00     0.059 A 
ATOM     11  C   UNL     1     127.684 164.659 101.488  1.00  0.00     0.270 C 
ATOM     12  C   UNL     1     129.465 163.243 101.810  1.00  0.00     0.338 C 
ATOM     13  O   UNL     1     129.067 164.488 101.357  1.00  0.00    -0.457 OA
ATOM     14  O   UNL     1     130.646 162.762 101.835  1.00  0.00    -0.246 OA
ATOM     15  C   UNL     1     124.747 163.800 102.272  1.00  0.00     0.049 C 
ATOM     16  O   UNL     1     129.183 160.511 102.973  1.00  0.00    -0.872 OA
BRANCH   6  17
ATOM     17  O   UNL     1     124.421 161.281 103.351  1.00  0.00    -0.496 OA
ATOM     18  C   UNL     1     123.646 160.466 102.509  1.00  0.00     0.278 C 
ENDBRANCH   6  17
ENDBRANCH   4   5
ENDBRANCH   1   4
BRANCH   2  19
ATOM     19  C   UNL     1     126.134 158.227 107.350  1.00  0.00     0.036 C 
BRANCH  19  20
ATOM     20  C   UNL     1     126.496 159.487 108.074  1.00  0.00     0.057 C 
BRANCH  20  21
ATOM     21  C   UNL     1     125.421 160.112 108.851  1.00  0.00     0.042 C 
ATOM     22  O   UNL     1     124.292 160.333 108.348  1.00  0.00    -0.550 OA
ATOM     23  O   UNL     1     125.662 160.472 110.190  1.00  0.00    -0.550 OA
ENDBRANCH  20  21
ENDBRANCH  19  20
ENDBRANCH   2  19
TORSDOF 6
ENDMDL
MODEL 9
REMARK VINA RESULT:      -5.0      2.166      2.482
REMARK SMILES COc1c(C)c2c(c([O-])c1C/C=C(\C)CCC(=O)[O-])C(=O)OC2
REMARK SMILES IDX 12 1 13 2 14 3 11 4 10 5 3 6 4 7 6 8 8 9 7 10 23 11 20 12
REMARK SMILES IDX 22 13 21 14 5 15 9 16 2 17 1 18 15 19 16 20 17 21 18 22
REMARK SMILES IDX 19 23
REMARK H PARENT
ROOT
ATOM      1  C   UNL     1     126.560 157.119 103.798  1.00  0.00    -0.023 C 
ATOM      2  C   UNL     1     126.454 158.205 104.607  1.00  0.00    -0.077 C 
ATOM      3  C   UNL     1     126.671 159.541 104.013  1.00  0.00     0.039 C 
ENDROOT
BRANCH   1   4
ATOM      4  C   UNL     1     126.875 157.186 102.372  1.00  0.00     0.066 C 
BRANCH   4   5
ATOM      5  C   UNL     1     126.570 155.981 101.578  1.00  0.00    -0.009 A 
ATOM      6  C   UNL     1     125.508 155.869 100.720  1.00  0.00     0.125 A 
ATOM      7  C   UNL     1     125.330 154.665 100.022  1.00  0.00    -0.001 A 
ATOM      8  C   UNL     1     126.180 153.592 100.163  1.00  0.00     0.010 A 
ATOM      9  C   UNL     1     127.426 154.876 101.710  1.00  0.00    -0.086 A 
ATOM     10  C   UNL     1     127.249 153.699 101.024  1.00  0.00     0.059 A 
ATOM     11  C   UNL     1     126.213 152.225  99.550  1.00  0.00     0.270 C 
ATOM     12  C   UNL     1     127.991 152.430 100.992  1.00  0.00     0.338 C 
ATOM     13  O   UNL     1     127.334 151.597 100.104  1.00  0.00    -0.457 OA
ATOM     14  O   UNL     1     129.040 152.177 101.670  1.00  0.00    -0.246 OA
ATOM     15  C   UNL     1     124.175 154.599  99.115  1.00  0.00     0.049 C 
ATOM     16  O   UNL     1     128.533 154.905 102.565  1.00  0.00    -0.872 OA
BRANCH   6  17
ATOM     17  O   UNL     1     124.623 156.917 100.545  1.00  0.00    -0.496 OA
ATOM     18  C   UNL     1     123.559 157.142 101.435  1.00  0.00     0.278 C 
ENDBRANCH   6  17
ENDBRANCH   4   5
ENDBRANCH   1   4
BRANCH   2  19
ATOM     19  C   UNL     1     126.159 158.069 106.035  1.00  0.00     0.036 C 
BRANCH  19  20
ATOM     20  C   UNL     1     126.327 159.305 106.864  1.00  0.00     0.057 C 
BRANCH  20  21
ATOM     21  C   UNL     1     125.590 159.334 108.131  1.00  0.00     0.042 C 
ATOM     22  O   UNL     1     125.885 158.565 109.079  1.00  0.00    -0.550 OA
ATOM     23  O   UNL     1     124.529 160.245 108.287  1.00  0.00    -0.550 OA
ENDBRANCH  20  21
ENDBRANCH  19  20
ENDBRANCH   2  19
TORSDOF 6
ENDMDL
