MODEL 1
REMARK VINA RESULT:      -5.0      0.000      0.000
REMARK SMILES O=C1c2c([O-])ccc(O)c2C(=O)c2c(NCC[NH2+]CCO)ccc(NCCNCCO)c21
REMARK SMILES IDX 1 1 2 2 3 3 4 4 5 5 6 6 7 7 8 8 10 9 11 10 12 11 13 12 14 13
REMARK SMILES IDX 22 14 23 15 24 16 32 17 25 18 26 20 27 21 28 22 29 24 30 25
REMARK SMILES IDX 31 26 9 28 15 30 16 32 17 33 18 34 19 37 20 38 21 39
REMARK H PARENT 25 19 28 23 31 27 9 29 15 31 18 35 18 36 21 40
ROOT
ATOM      1  O   UNL     1      42.711  36.968  53.733  1.00  0.00    -0.288 OA
ATOM      2  C   UNL     1      41.987  36.025  53.330  1.00  0.00     0.196 C 
ATOM      3  C   UNL     1      41.291  36.185  52.032  1.00  0.00     0.030 A 
ATOM      4  C   UNL     1      41.484  37.366  51.341  1.00  0.00    -0.097 A 
ATOM      5  O   UNL     1      42.312  38.348  51.878  1.00  0.00    -0.872 OA
ATOM      6  C   UNL     1      40.849  37.538  50.131  1.00  0.00    -0.004 A 
ATOM      7  C   UNL     1      40.042  36.556  49.626  1.00  0.00     0.046 A 
ATOM      8  C   UNL     1      39.836  35.372  50.298  1.00  0.00     0.127 A 
ATOM      9  C   UNL     1      40.485  35.210  51.522  1.00  0.00     0.075 A 
ATOM     10  C   UNL     1      40.296  33.965  52.275  1.00  0.00     0.200 C 
ATOM     11  O   UNL     1      39.539  33.124  51.732  1.00  0.00    -0.288 OA
ATOM     12  C   UNL     1      40.969  33.783  53.554  1.00  0.00     0.059 A 
ATOM     13  C   UNL     1      40.755  32.605  54.213  1.00  0.00     0.046 A 
ATOM     14  C   UNL     1      41.421  32.468  55.448  1.00  0.00     0.028 A 
ATOM     15  C   UNL     1      42.223  33.445  55.947  1.00  0.00     0.028 A 
ATOM     16  C   UNL     1      42.443  34.657  55.270  1.00  0.00     0.046 A 
ATOM     17  C   UNL     1      41.804  34.807  54.067  1.00  0.00     0.059 A 
ENDROOT
BRANCH  16  18
ATOM     18  N   UNL     1      43.333  35.597  55.869  1.00  0.00    -0.383 N 
ATOM     19  H   UNL     1      43.961  36.164  55.318  1.00  0.00     0.160 HD
BRANCH  18  20
ATOM     20  C   UNL     1      43.392  35.790  57.307  1.00  0.00     0.128 C 
BRANCH  20  21
ATOM     21  C   UNL     1      43.179  37.190  57.757  1.00  0.00     0.102 C 
BRANCH  21  22
ATOM     22  N   UNL     1      43.033  38.109  56.620  1.00  0.00    -0.313 NA
ATOM     23  H   UNL     1      43.820  38.800  56.701  1.00  0.00     0.122 HD
BRANCH  22  24
ATOM     24  C   UNL     1      41.808  38.861  56.845  1.00  0.00     0.109 C 
BRANCH  24  25
ATOM     25  C   UNL     1      40.657  38.279  56.060  1.00  0.00     0.171 C 
BRANCH  25  26
ATOM     26  O   UNL     1      40.542  38.871  54.804  1.00  0.00    -0.395 OA
ATOM     27  H   UNL     1      39.643  39.298  54.757  1.00  0.00     0.210 HD
ENDBRANCH  25  26
ENDBRANCH  24  25
ENDBRANCH  22  24
ENDBRANCH  21  22
ENDBRANCH  20  21
ENDBRANCH  18  20
ENDBRANCH  16  18
BRANCH   8  28
ATOM     28  O   UNL     1      39.008  34.368  49.778  1.00  0.00    -0.507 OA
ATOM     29  H   UNL     1      38.780  34.326  48.783  1.00  0.00     0.293 HD
ENDBRANCH   8  28
BRANCH  13  30
ATOM     30  N   UNL     1      39.943  31.539  53.773  1.00  0.00    -0.379 N 
ATOM     31  H   UNL     1      39.380  31.533  52.935  1.00  0.00     0.160 HD
BRANCH  30  32
ATOM     32  C   UNL     1      39.861  30.292  54.560  1.00  0.00     0.174 C 
BRANCH  32  33
ATOM     33  C   UNL     1      38.532  30.106  55.195  1.00  0.00     0.281 C 
BRANCH  33  34
ATOM     34  N   UNL     1      37.418  30.215  54.304  1.00  0.00    -0.343 N 
ATOM     35  H   UNL     1      37.692  30.403  53.313  1.00  0.00     0.346 HD
ATOM     36  H   UNL     1      36.927  29.287  54.293  1.00  0.00     0.346 HD
BRANCH  34  37
ATOM     37  C   UNL     1      36.440  31.195  54.709  1.00  0.00     0.289 C 
BRANCH  37  38
ATOM     38  C   UNL     1      36.043  32.110  53.573  1.00  0.00     0.217 C 
BRANCH  38  39
ATOM     39  O   UNL     1      37.134  32.283  52.739  1.00  0.00    -0.391 OA
ATOM     40  H   UNL     1      37.287  31.410  52.275  1.00  0.00     0.210 HD
ENDBRANCH  38  39
ENDBRANCH  37  38
ENDBRANCH  34  37
ENDBRANCH  33  34
ENDBRANCH  32  33
ENDBRANCH  30  32
ENDBRANCH  13  30
TORSDOF 15
ENDMDL
MODEL 2
REMARK VINA RESULT:      -4.7      0.943      6.035
REMARK SMILES O=C1c2c([O-])ccc(O)c2C(=O)c2c(NCC[NH2+]CCO)ccc(NCCNCCO)c21
REMARK SMILES IDX 1 1 2 2 3 3 4 4 5 5 6 6 7 7 8 8 10 9 11 10 12 11 13 12 14 13
REMARK SMILES IDX 22 14 23 15 24 16 32 17 25 18 26 20 27 21 28 22 29 24 30 25
REMARK SMILES IDX 31 26 9 28 15 30 16 32 17 33 18 34 19 37 20 38 21 39
REMARK H PARENT 25 19 28 23 31 27 9 29 15 31 18 35 18 36 21 40
ROOT
ATOM      1  O   UNL     1      39.534  33.177  51.697  1.00  0.00    -0.288 OA
ATOM      2  C   UNL     1      40.285  34.040  52.213  1.00  0.00     0.196 C 
ATOM      3  C   UNL     1      40.522  35.296  51.465  1.00  0.00     0.030 A 
ATOM      4  C   UNL     1      39.898  35.442  50.241  1.00  0.00    -0.097 A 
ATOM      5  O   UNL     1      39.082  34.422  49.761  1.00  0.00    -0.872 OA
ATOM      6  C   UNL     1      40.102  36.602  49.526  1.00  0.00    -0.004 A 
ATOM      7  C   UNL     1      40.909  37.588  50.022  1.00  0.00     0.046 A 
ATOM      8  C   UNL     1      41.541  37.463  51.239  1.00  0.00     0.127 A 
ATOM      9  C   UNL     1      41.326  36.284  51.953  1.00  0.00     0.075 A 
ATOM     10  C   UNL     1      41.978  36.105  53.255  1.00  0.00     0.200 C 
ATOM     11  O   UNL     1      42.698  37.063  53.626  1.00  0.00    -0.288 OA
ATOM     12  C   UNL     1      41.761  34.879  54.010  1.00  0.00     0.059 A 
ATOM     13  C   UNL     1      42.396  34.765  55.216  1.00  0.00     0.046 A 
ATOM     14  C   UNL     1      42.163  33.563  55.915  1.00  0.00     0.028 A 
ATOM     15  C   UNL     1      41.359  32.584  55.420  1.00  0.00     0.028 A 
ATOM     16  C   UNL     1      40.707  32.701  54.181  1.00  0.00     0.046 A 
ATOM     17  C   UNL     1      40.922  33.863  53.487  1.00  0.00     0.059 A 
ENDROOT
BRANCH  16  18
ATOM     18  N   UNL     1      39.859  31.628  53.777  1.00  0.00    -0.383 N 
ATOM     19  H   UNL     1      40.025  31.107  52.927  1.00  0.00     0.160 HD
BRANCH  18  20
ATOM     20  C   UNL     1      38.705  31.225  54.559  1.00  0.00     0.128 C 
BRANCH  20  21
ATOM     21  C   UNL     1      37.470  30.983  53.768  1.00  0.00     0.102 C 
BRANCH  21  22
ATOM     22  N   UNL     1      37.020  32.199  53.078  1.00  0.00    -0.313 NA
ATOM     23  H   UNL     1      37.847  32.845  53.055  1.00  0.00     0.122 HD
BRANCH  22  24
ATOM     24  C   UNL     1      36.036  32.831  53.943  1.00  0.00     0.109 C 
BRANCH  24  25
ATOM     25  C   UNL     1      34.744  32.049  53.964  1.00  0.00     0.171 C 
BRANCH  25  26
ATOM     26  O   UNL     1      33.654  32.850  53.629  1.00  0.00    -0.395 OA
ATOM     27  H   UNL     1      32.990  32.773  54.369  1.00  0.00     0.210 HD
ENDBRANCH  25  26
ENDBRANCH  24  25
ENDBRANCH  22  24
ENDBRANCH  21  22
ENDBRANCH  20  21
ENDBRANCH  18  20
ENDBRANCH  16  18
BRANCH   8  28
ATOM     28  O   UNL     1      42.367  38.476  51.744  1.00  0.00    -0.507 OA
ATOM     29  H   UNL     1      43.353  38.541  51.484  1.00  0.00     0.293 HD
ENDBRANCH   8  28
BRANCH  13  30
ATOM     30  N   UNL     1      43.243  35.725  55.806  1.00  0.00    -0.379 N 
ATOM     31  H   UNL     1      43.799  36.405  55.310  1.00  0.00     0.160 HD
BRANCH  30  32
ATOM     32  C   UNL     1      43.378  35.795  57.275  1.00  0.00     0.174 C 
BRANCH  32  33
ATOM     33  C   UNL     1      42.505  36.832  57.879  1.00  0.00     0.281 C 
BRANCH  33  34
ATOM     34  N   UNL     1      42.992  38.172  57.762  1.00  0.00    -0.343 N 
ATOM     35  H   UNL     1      42.920  38.723  58.648  1.00  0.00     0.346 HD
ATOM     36  H   UNL     1      44.017  38.120  57.542  1.00  0.00     0.346 HD
BRANCH  34  37
ATOM     37  C   UNL     1      42.379  38.926  56.696  1.00  0.00     0.289 C 
BRANCH  37  38
ATOM     38  C   UNL     1      40.899  38.644  56.574  1.00  0.00     0.217 C 
BRANCH  38  39
ATOM     39  O   UNL     1      40.599  38.415  55.242  1.00  0.00    -0.391 OA
ATOM     40  H   UNL     1      39.616  38.572  55.133  1.00  0.00     0.210 HD
ENDBRANCH  38  39
ENDBRANCH  37  38
ENDBRANCH  34  37
ENDBRANCH  33  34
ENDBRANCH  32  33
ENDBRANCH  30  32
ENDBRANCH  13  30
TORSDOF 15
ENDMDL
MODEL 3
REMARK VINA RESULT:      -4.7      1.552      2.010
REMARK SMILES O=C1c2c([O-])ccc(O)c2C(=O)c2c(NCC[NH2+]CCO)ccc(NCCNCCO)c21
REMARK SMILES IDX 1 1 2 2 3 3 4 4 5 5 6 6 7 7 8 8 10 9 11 10 12 11 13 12 14 13
REMARK SMILES IDX 22 14 23 15 24 16 32 17 25 18 26 20 27 21 28 22 29 24 30 25
REMARK SMILES IDX 31 26 9 28 15 30 16 32 17 33 18 34 19 37 20 38 21 39
REMARK H PARENT 25 19 28 23 31 27 9 29 15 31 18 35 18 36 21 40
ROOT
ATOM      1  O   UNL     1      42.539  37.412  53.408  1.00  0.00    -0.288 OA
ATOM      2  C   UNL     1      41.909  36.364  53.123  1.00  0.00     0.196 C 
ATOM      3  C   UNL     1      41.135  36.337  51.860  1.00  0.00     0.030 A 
ATOM      4  C   UNL     1      41.157  37.470  51.069  1.00  0.00    -0.097 A 
ATOM      5  O   UNL     1      41.891  38.579  51.479  1.00  0.00    -0.872 OA
ATOM      6  C   UNL     1      40.446  37.468  49.889  1.00  0.00    -0.004 A 
ATOM      7  C   UNL     1      39.734  36.365  49.510  1.00  0.00     0.046 A 
ATOM      8  C   UNL     1      39.698  35.225  50.283  1.00  0.00     0.127 A 
ATOM      9  C   UNL     1      40.422  35.239  51.475  1.00  0.00     0.075 A 
ATOM     10  C   UNL     1      40.415  34.048  52.333  1.00  0.00     0.200 C 
ATOM     11  O   UNL     1      39.734  33.087  51.902  1.00  0.00    -0.288 OA
ATOM     12  C   UNL     1      41.167  34.050  53.580  1.00  0.00     0.059 A 
ATOM     13  C   UNL     1      41.123  32.915  54.340  1.00  0.00     0.046 A 
ATOM     14  C   UNL     1      41.861  32.956  55.541  1.00  0.00     0.028 A 
ATOM     15  C   UNL     1      42.570  34.055  55.914  1.00  0.00     0.028 A 
ATOM     16  C   UNL     1      42.615  35.222  55.133  1.00  0.00     0.046 A 
ATOM     17  C   UNL     1      41.903  35.200  53.962  1.00  0.00     0.059 A 
ENDROOT
BRANCH  16  18
ATOM     18  N   UNL     1      43.420  36.302  55.604  1.00  0.00    -0.383 N 
ATOM     19  H   UNL     1      44.054  36.800  54.996  1.00  0.00     0.160 HD
BRANCH  18  20
ATOM     20  C   UNL     1      43.378  36.744  56.986  1.00  0.00     0.128 C 
BRANCH  20  21
ATOM     21  C   UNL     1      44.318  37.848  57.315  1.00  0.00     0.102 C 
BRANCH  21  22
ATOM     22  N   UNL     1      45.546  37.345  57.946  1.00  0.00    -0.313 NA
ATOM     23  H   UNL     1      45.812  38.055  58.672  1.00  0.00     0.122 HD
BRANCH  22  24
ATOM     24  C   UNL     1      46.587  37.393  56.931  1.00  0.00     0.109 C 
BRANCH  24  25
ATOM     25  C   UNL     1      46.467  38.636  56.082  1.00  0.00     0.171 C 
BRANCH  25  26
ATOM     26  O   UNL     1      46.680  38.359  54.733  1.00  0.00    -0.395 OA
ATOM     27  H   UNL     1      47.413  37.685  54.680  1.00  0.00     0.210 HD
ENDBRANCH  25  26
ENDBRANCH  24  25
ENDBRANCH  22  24
ENDBRANCH  21  22
ENDBRANCH  20  21
ENDBRANCH  18  20
ENDBRANCH  16  18
BRANCH   8  28
ATOM     28  O   UNL     1      38.967  34.096  49.892  1.00  0.00    -0.507 OA
ATOM     29  H   UNL     1      39.332  33.152  50.024  1.00  0.00     0.293 HD
ENDBRANCH   8  28
BRANCH  13  30
ATOM     30  N   UNL     1      40.419  31.733  54.033  1.00  0.00    -0.379 N 
ATOM     31  H   UNL     1      40.386  31.284  53.130  1.00  0.00     0.160 HD
BRANCH  30  32
ATOM     32  C   UNL     1      39.637  31.039  55.077  1.00  0.00     0.174 C 
BRANCH  32  33
ATOM     33  C   UNL     1      38.219  30.836  54.687  1.00  0.00     0.281 C 
BRANCH  33  34
ATOM     34  N   UNL     1      37.790  31.603  53.558  1.00  0.00    -0.343 N 
ATOM     35  H   UNL     1      38.570  32.087  53.059  1.00  0.00     0.346 HD
ATOM     36  H   UNL     1      37.376  30.937  52.859  1.00  0.00     0.346 HD
BRANCH  34  37
ATOM     37  C   UNL     1      36.764  32.570  53.864  1.00  0.00     0.289 C 
BRANCH  37  38
ATOM     38  C   UNL     1      35.375  32.030  53.611  1.00  0.00     0.217 C 
BRANCH  38  39
ATOM     39  O   UNL     1      34.463  33.061  53.762  1.00  0.00    -0.391 OA
ATOM     40  H   UNL     1      34.987  33.914  53.768  1.00  0.00     0.210 HD
ENDBRANCH  38  39
ENDBRANCH  37  38
ENDBRANCH  34  37
ENDBRANCH  33  34
ENDBRANCH  32  33
ENDBRANCH  30  32
ENDBRANCH  13  30
TORSDOF 15
ENDMDL
MODEL 4
REMARK VINA RESULT:      -4.7      1.264      1.346
REMARK SMILES O=C1c2c([O-])ccc(O)c2C(=O)c2c(NCC[NH2+]CCO)ccc(NCCNCCO)c21
REMARK SMILES IDX 1 1 2 2 3 3 4 4 5 5 6 6 7 7 8 8 10 9 11 10 12 11 13 12 14 13
REMARK SMILES IDX 22 14 23 15 24 16 32 17 25 18 26 20 27 21 28 22 29 24 30 25
REMARK SMILES IDX 31 26 9 28 15 30 16 32 17 33 18 34 19 37 20 38 21 39
REMARK H PARENT 25 19 28 23 31 27 9 29 15 31 18 35 18 36 21 40
ROOT
ATOM      1  O   UNL     1      42.626  37.576  53.442  1.00  0.00    -0.288 OA
ATOM      2  C   UNL     1      42.017  36.510  53.181  1.00  0.00     0.196 C 
ATOM      3  C   UNL     1      41.219  36.449  51.934  1.00  0.00     0.030 A 
ATOM      4  C   UNL     1      41.196  37.574  51.132  1.00  0.00    -0.097 A 
ATOM      5  O   UNL     1      41.911  38.705  51.514  1.00  0.00    -0.872 OA
ATOM      6  C   UNL     1      40.462  37.542  49.966  1.00  0.00    -0.004 A 
ATOM      7  C   UNL     1      39.770  36.417  49.614  1.00  0.00     0.046 A 
ATOM      8  C   UNL     1      39.779  35.285  50.399  1.00  0.00     0.127 A 
ATOM      9  C   UNL     1      40.526  35.331  51.576  1.00  0.00     0.075 A 
ATOM     10  C   UNL     1      40.566  34.149  52.446  1.00  0.00     0.200 C 
ATOM     11  O   UNL     1      39.901  33.167  52.040  1.00  0.00    -0.288 OA
ATOM     12  C   UNL     1      41.342  34.184  53.677  1.00  0.00     0.059 A 
ATOM     13  C   UNL     1      41.342  33.056  54.450  1.00  0.00     0.046 A 
ATOM     14  C   UNL     1      42.103  33.129  55.635  1.00  0.00     0.028 A 
ATOM     15  C   UNL     1      42.791  34.249  55.982  1.00  0.00     0.028 A 
ATOM     16  C   UNL     1      42.792  35.408  55.189  1.00  0.00     0.046 A 
ATOM     17  C   UNL     1      42.057  35.355  54.033  1.00  0.00     0.059 A 
ENDROOT
BRANCH  16  18
ATOM     18  N   UNL     1      43.578  36.512  55.631  1.00  0.00    -0.383 N 
ATOM     19  H   UNL     1      44.403  36.815  55.133  1.00  0.00     0.160 HD
BRANCH  18  20
ATOM     20  C   UNL     1      43.242  37.263  56.828  1.00  0.00     0.128 C 
BRANCH  20  21
ATOM     21  C   UNL     1      41.802  37.603  56.966  1.00  0.00     0.102 C 
BRANCH  21  22
ATOM     22  N   UNL     1      41.218  37.010  58.177  1.00  0.00    -0.313 NA
ATOM     23  H   UNL     1      41.949  36.366  58.568  1.00  0.00     0.122 HD
BRANCH  22  24
ATOM     24  C   UNL     1      40.122  36.160  57.738  1.00  0.00     0.109 C 
BRANCH  24  25
ATOM     25  C   UNL     1      39.540  36.646  56.433  1.00  0.00     0.171 C 
BRANCH  25  26
ATOM     26  O   UNL     1      38.772  35.662  55.815  1.00  0.00    -0.395 OA
ATOM     27  H   UNL     1      37.878  35.662  56.257  1.00  0.00     0.210 HD
ENDBRANCH  25  26
ENDBRANCH  24  25
ENDBRANCH  22  24
ENDBRANCH  21  22
ENDBRANCH  20  21
ENDBRANCH  18  20
ENDBRANCH  16  18
BRANCH   8  28
ATOM     28  O   UNL     1      39.068  34.134  50.035  1.00  0.00    -0.507 OA
ATOM     29  H   UNL     1      39.232  33.237  50.495  1.00  0.00     0.293 HD
ENDBRANCH   8  28
BRANCH  13  30
ATOM     30  N   UNL     1      40.661  31.853  54.170  1.00  0.00    -0.379 N 
ATOM     31  H   UNL     1      40.677  31.358  53.291  1.00  0.00     0.160 HD
BRANCH  30  32
ATOM     32  C   UNL     1      39.831  31.208  55.208  1.00  0.00     0.174 C 
BRANCH  32  33
ATOM     33  C   UNL     1      38.609  31.988  55.526  1.00  0.00     0.281 C 
BRANCH  33  34
ATOM     34  N   UNL     1      37.406  31.218  55.598  1.00  0.00    -0.343 N 
ATOM     35  H   UNL     1      37.530  30.288  56.060  1.00  0.00     0.346 HD
ATOM     36  H   UNL     1      36.725  31.745  56.198  1.00  0.00     0.346 HD
BRANCH  34  37
ATOM     37  C   UNL     1      36.762  31.019  54.322  1.00  0.00     0.289 C 
BRANCH  37  38
ATOM     38  C   UNL     1      36.724  32.286  53.497  1.00  0.00     0.217 C 
BRANCH  38  39
ATOM     39  O   UNL     1      37.434  32.076  52.328  1.00  0.00    -0.391 OA
ATOM     40  H   UNL     1      37.255  31.133  52.043  1.00  0.00     0.210 HD
ENDBRANCH  38  39
ENDBRANCH  37  38
ENDBRANCH  34  37
ENDBRANCH  33  34
ENDBRANCH  32  33
ENDBRANCH  30  32
ENDBRANCH  13  30
TORSDOF 15
ENDMDL
MODEL 5
REMARK VINA RESULT:      -4.7      2.956      6.345
REMARK SMILES O=C1c2c([O-])ccc(O)c2C(=O)c2c(NCC[NH2+]CCO)ccc(NCCNCCO)c21
REMARK SMILES IDX 1 1 2 2 3 3 4 4 5 5 6 6 7 7 8 8 10 9 11 10 12 11 13 12 14 13
REMARK SMILES IDX 22 14 23 15 24 16 32 17 25 18 26 20 27 21 28 22 29 24 30 25
REMARK SMILES IDX 31 26 9 28 15 30 16 32 17 33 18 34 19 37 20 38 21 39
REMARK H PARENT 25 19 28 23 31 27 9 29 15 31 18 35 18 36 21 40
ROOT
ATOM      1  O   UNL     1      41.252  34.922  52.504  1.00  0.00    -0.288 OA
ATOM      2  C   UNL     1      40.528  35.016  53.524  1.00  0.00     0.196 C 
ATOM      3  C   UNL     1      39.480  33.990  53.733  1.00  0.00     0.030 A 
ATOM      4  C   UNL     1      39.366  32.988  52.789  1.00  0.00    -0.097 A 
ATOM      5  O   UNL     1      40.224  32.975  51.694  1.00  0.00    -0.872 OA
ATOM      6  C   UNL     1      38.399  32.021  52.962  1.00  0.00    -0.004 A 
ATOM      7  C   UNL     1      37.570  32.057  54.048  1.00  0.00     0.046 A 
ATOM      8  C   UNL     1      37.666  33.047  55.000  1.00  0.00     0.127 A 
ATOM      9  C   UNL     1      38.648  34.019  54.814  1.00  0.00     0.075 A 
ATOM     10  C   UNL     1      38.790  35.095  55.803  1.00  0.00     0.200 C 
ATOM     11  O   UNL     1      37.985  35.043  56.763  1.00  0.00    -0.288 OA
ATOM     12  C   UNL     1      39.812  36.116  55.619  1.00  0.00     0.059 A 
ATOM     13  C   UNL     1      39.896  37.095  56.570  1.00  0.00     0.046 A 
ATOM     14  C   UNL     1      40.896  38.066  56.356  1.00  0.00     0.028 A 
ATOM     15  C   UNL     1      41.720  38.027  55.276  1.00  0.00     0.028 A 
ATOM     16  C   UNL     1      41.633  37.022  54.299  1.00  0.00     0.046 A 
ATOM     17  C   UNL     1      40.667  36.069  54.490  1.00  0.00     0.059 A 
ENDROOT
BRANCH  16  18
ATOM     18  N   UNL     1      42.573  37.059  53.226  1.00  0.00    -0.383 N 
ATOM     19  H   UNL     1      43.359  36.426  53.182  1.00  0.00     0.160 HD
BRANCH  18  20
ATOM     20  C   UNL     1      42.457  38.012  52.137  1.00  0.00     0.128 C 
BRANCH  20  21
ATOM     21  C   UNL     1      41.085  38.536  51.911  1.00  0.00     0.102 C 
BRANCH  21  22
ATOM     22  N   UNL     1      40.252  37.577  51.174  1.00  0.00    -0.313 NA
ATOM     23  H   UNL     1      40.142  36.743  51.801  1.00  0.00     0.122 HD
BRANCH  22  24
ATOM     24  C   UNL     1      41.040  37.129  50.035  1.00  0.00     0.109 C 
BRANCH  24  25
ATOM     25  C   UNL     1      40.225  36.247  49.119  1.00  0.00     0.171 C 
BRANCH  25  26
ATOM     26  O   UNL     1      39.736  35.127  49.787  1.00  0.00    -0.395 OA
ATOM     27  H   UNL     1      40.520  34.635  50.158  1.00  0.00     0.210 HD
ENDBRANCH  25  26
ENDBRANCH  24  25
ENDBRANCH  22  24
ENDBRANCH  21  22
ENDBRANCH  20  21
ENDBRANCH  18  20
ENDBRANCH  16  18
BRANCH   8  28
ATOM     28  O   UNL     1      36.814  33.080  56.112  1.00  0.00    -0.507 OA
ATOM     29  H   UNL     1      37.180  33.077  57.066  1.00  0.00     0.293 HD
ENDBRANCH   8  28
BRANCH  13  30
ATOM     30  N   UNL     1      39.088  37.214  57.719  1.00  0.00    -0.379 N 
ATOM     31  H   UNL     1      38.917  36.487  58.397  1.00  0.00     0.160 HD
BRANCH  30  32
ATOM     32  C   UNL     1      38.398  38.486  58.016  1.00  0.00     0.174 C 
BRANCH  32  33
ATOM     33  C   UNL     1      37.181  38.681  57.189  1.00  0.00     0.281 C 
BRANCH  33  34
ATOM     34  N   UNL     1      37.368  39.491  56.025  1.00  0.00    -0.343 N 
ATOM     35  H   UNL     1      37.867  39.000  55.249  1.00  0.00     0.346 HD
ATOM     36  H   UNL     1      36.418  39.728  55.646  1.00  0.00     0.346 HD
BRANCH  34  37
ATOM     37  C   UNL     1      38.033  40.744  56.285  1.00  0.00     0.289 C 
BRANCH  37  38
ATOM     38  C   UNL     1      38.048  41.647  55.072  1.00  0.00     0.217 C 
BRANCH  38  39
ATOM     39  O   UNL     1      37.485  42.864  55.417  1.00  0.00    -0.391 OA
ATOM     40  H   UNL     1      38.160  43.349  55.976  1.00  0.00     0.210 HD
ENDBRANCH  38  39
ENDBRANCH  37  38
ENDBRANCH  34  37
ENDBRANCH  33  34
ENDBRANCH  32  33
ENDBRANCH  30  32
ENDBRANCH  13  30
TORSDOF 15
ENDMDL
MODEL 6
REMARK VINA RESULT:      -4.6      3.389      5.883
REMARK SMILES O=C1c2c([O-])ccc(O)c2C(=O)c2c(NCC[NH2+]CCO)ccc(NCCNCCO)c21
REMARK SMILES IDX 1 1 2 2 3 3 4 4 5 5 6 6 7 7 8 8 10 9 11 10 12 11 13 12 14 13
REMARK SMILES IDX 22 14 23 15 24 16 32 17 25 18 26 20 27 21 28 22 29 24 30 25
REMARK SMILES IDX 31 26 9 28 15 30 16 32 17 33 18 34 19 37 20 38 21 39
REMARK H PARENT 25 19 28 23 31 27 9 29 15 31 18 35 18 36 21 40
ROOT
ATOM      1  O   UNL     1      40.630  34.536  52.555  1.00  0.00    -0.288 OA
ATOM      2  C   UNL     1      39.936  34.628  53.597  1.00  0.00     0.196 C 
ATOM      3  C   UNL     1      38.782  33.711  53.749  1.00  0.00     0.030 A 
ATOM      4  C   UNL     1      38.543  32.806  52.733  1.00  0.00    -0.097 A 
ATOM      5  O   UNL     1      39.378  32.787  51.620  1.00  0.00    -0.872 OA
ATOM      6  C   UNL     1      37.477  31.942  52.852  1.00  0.00    -0.004 A 
ATOM      7  C   UNL     1      36.672  31.982  53.957  1.00  0.00     0.046 A 
ATOM      8  C   UNL     1      36.893  32.876  54.981  1.00  0.00     0.127 A 
ATOM      9  C   UNL     1      37.975  33.745  54.848  1.00  0.00     0.075 A 
ATOM     10  C   UNL     1      38.251  34.716  55.914  1.00  0.00     0.200 C 
ATOM     11  O   UNL     1      37.459  34.677  56.886  1.00  0.00    -0.288 OA
ATOM     12  C   UNL     1      39.378  35.629  55.787  1.00  0.00     0.059 A 
ATOM     13  C   UNL     1      39.586  36.513  56.809  1.00  0.00     0.046 A 
ATOM     14  C   UNL     1      40.686  37.382  56.648  1.00  0.00     0.028 A 
ATOM     15  C   UNL     1      41.484  37.338  55.549  1.00  0.00     0.028 A 
ATOM     16  C   UNL     1      41.271  36.430  54.499  1.00  0.00     0.046 A 
ATOM     17  C   UNL     1      40.207  35.578  54.638  1.00  0.00     0.059 A 
ENDROOT
BRANCH  16  18
ATOM     18  N   UNL     1      42.193  36.449  53.411  1.00  0.00    -0.383 N 
ATOM     19  H   UNL     1      42.696  35.622  53.123  1.00  0.00     0.160 HD
BRANCH  18  20
ATOM     20  C   UNL     1      42.465  37.659  52.656  1.00  0.00     0.128 C 
BRANCH  20  21
ATOM     21  C   UNL     1      41.290  38.229  51.947  1.00  0.00     0.102 C 
BRANCH  21  22
ATOM     22  N   UNL     1      40.459  37.180  51.343  1.00  0.00    -0.313 NA
ATOM     23  H   UNL     1      41.015  36.292  51.408  1.00  0.00     0.122 HD
BRANCH  22  24
ATOM     24  C   UNL     1      40.357  37.493  49.925  1.00  0.00     0.109 C 
BRANCH  24  25
ATOM     25  C   UNL     1      40.243  36.237  49.094  1.00  0.00     0.171 C 
BRANCH  25  26
ATOM     26  O   UNL     1      39.814  35.154  49.858  1.00  0.00    -0.395 OA
ATOM     27  H   UNL     1      38.844  35.019  49.665  1.00  0.00     0.210 HD
ENDBRANCH  25  26
ENDBRANCH  24  25
ENDBRANCH  22  24
ENDBRANCH  21  22
ENDBRANCH  20  21
ENDBRANCH  18  20
ENDBRANCH  16  18
BRANCH   8  28
ATOM     28  O   UNL     1      36.067  32.914  56.112  1.00  0.00    -0.507 OA
ATOM     29  H   UNL     1      36.435  33.150  57.035  1.00  0.00     0.293 HD
ENDBRANCH   8  28
BRANCH  13  30
ATOM     30  N   UNL     1      38.813  36.628  57.982  1.00  0.00    -0.379 N 
ATOM     31  H   UNL     1      38.627  35.887  58.641  1.00  0.00     0.160 HD
BRANCH  30  32
ATOM     32  C   UNL     1      38.189  37.919  58.339  1.00  0.00     0.174 C 
BRANCH  32  33
ATOM     33  C   UNL     1      37.097  38.300  57.408  1.00  0.00     0.281 C 
BRANCH  33  34
ATOM     34  N   UNL     1      36.125  37.278  57.170  1.00  0.00    -0.343 N 
ATOM     35  H   UNL     1      36.079  36.967  56.173  1.00  0.00     0.346 HD
ATOM     36  H   UNL     1      36.413  36.430  57.719  1.00  0.00     0.346 HD
BRANCH  34  37
ATOM     37  C   UNL     1      34.795  37.622  57.611  1.00  0.00     0.289 C 
BRANCH  37  38
ATOM     38  C   UNL     1      34.064  38.482  56.605  1.00  0.00     0.217 C 
BRANCH  38  39
ATOM     39  O   UNL     1      34.021  37.812  55.395  1.00  0.00    -0.391 OA
ATOM     40  H   UNL     1      34.487  36.937  55.530  1.00  0.00     0.210 HD
ENDBRANCH  38  39
ENDBRANCH  37  38
ENDBRANCH  34  37
ENDBRANCH  33  34
ENDBRANCH  32  33
ENDBRANCH  30  32
ENDBRANCH  13  30
TORSDOF 15
ENDMDL
MODEL 7
REMARK VINA RESULT:      -4.6      1.635      1.858
REMARK SMILES O=C1c2c([O-])ccc(O)c2C(=O)c2c(NCC[NH2+]CCO)ccc(NCCNCCO)c21
REMARK SMILES IDX 1 1 2 2 3 3 4 4 5 5 6 6 7 7 8 8 10 9 11 10 12 11 13 12 14 13
REMARK SMILES IDX 22 14 23 15 24 16 32 17 25 18 26 20 27 21 28 22 29 24 30 25
REMARK SMILES IDX 31 26 9 28 15 30 16 32 17 33 18 34 19 37 20 38 21 39
REMARK H PARENT 25 19 28 23 31 27 9 29 15 31 18 35 18 36 21 40
ROOT
ATOM      1  O   UNL     1      42.633  37.833  53.149  1.00  0.00    -0.288 OA
ATOM      2  C   UNL     1      42.078  36.710  53.077  1.00  0.00     0.196 C 
ATOM      3  C   UNL     1      41.207  36.436  51.910  1.00  0.00     0.030 A 
ATOM      4  C   UNL     1      41.059  37.438  50.970  1.00  0.00    -0.097 A 
ATOM      5  O   UNL     1      41.723  38.648  51.147  1.00  0.00    -0.872 OA
ATOM      6  C   UNL     1      40.255  37.207  49.876  1.00  0.00    -0.004 A 
ATOM      7  C   UNL     1      39.615  36.008  49.727  1.00  0.00     0.046 A 
ATOM      8  C   UNL     1      39.748  34.996  50.652  1.00  0.00     0.127 A 
ATOM      9  C   UNL     1      40.566  35.242  51.755  1.00  0.00     0.075 A 
ATOM     10  C   UNL     1      40.739  34.195  52.768  1.00  0.00     0.200 C 
ATOM     11  O   UNL     1      40.113  33.130  52.545  1.00  0.00    -0.288 OA
ATOM     12  C   UNL     1      41.590  34.440  53.924  1.00  0.00     0.059 A 
ATOM     13  C   UNL     1      41.712  33.430  54.837  1.00  0.00     0.046 A 
ATOM     14  C   UNL     1      42.542  33.705  55.943  1.00  0.00     0.028 A 
ATOM     15  C   UNL     1      43.178  34.898  56.088  1.00  0.00     0.028 A 
ATOM     16  C   UNL     1      43.052  35.937  55.150  1.00  0.00     0.046 A 
ATOM     17  C   UNL     1      42.249  35.686  54.068  1.00  0.00     0.059 A 
ENDROOT
BRANCH  16  18
ATOM     18  N   UNL     1      43.792  37.133  55.385  1.00  0.00    -0.383 N 
ATOM     19  H   UNL     1      44.551  37.418  54.782  1.00  0.00     0.160 HD
BRANCH  18  20
ATOM     20  C   UNL     1      43.502  38.008  56.506  1.00  0.00     0.128 C 
BRANCH  20  21
ATOM     21  C   UNL     1      42.078  38.416  56.626  1.00  0.00     0.102 C 
BRANCH  21  22
ATOM     22  N   UNL     1      41.517  38.052  57.934  1.00  0.00    -0.313 NA
ATOM     23  H   UNL     1      42.285  37.561  58.454  1.00  0.00     0.122 HD
BRANCH  22  24
ATOM     24  C   UNL     1      40.491  37.051  57.684  1.00  0.00     0.109 C 
BRANCH  24  25
ATOM     25  C   UNL     1      39.528  37.509  56.614  1.00  0.00     0.171 C 
BRANCH  25  26
ATOM     26  O   UNL     1      39.304  36.513  55.666  1.00  0.00    -0.395 OA
ATOM     27  H   UNL     1      39.791  35.698  55.969  1.00  0.00     0.210 HD
ENDBRANCH  25  26
ENDBRANCH  24  25
ENDBRANCH  22  24
ENDBRANCH  21  22
ENDBRANCH  20  21
ENDBRANCH  18  20
ENDBRANCH  16  18
BRANCH   8  28
ATOM     28  O   UNL     1      39.092  33.769  50.496  1.00  0.00    -0.507 OA
ATOM     29  H   UNL     1      38.116  33.646  50.771  1.00  0.00     0.293 HD
ENDBRANCH   8  28
BRANCH  13  30
ATOM     30  N   UNL     1      41.094  32.164  54.768  1.00  0.00    -0.379 N 
ATOM     31  H   UNL     1      40.099  31.993  54.749  1.00  0.00     0.160 HD
BRANCH  30  32
ATOM     32  C   UNL     1      41.914  30.936  54.720  1.00  0.00     0.174 C 
BRANCH  32  33
ATOM     33  C   UNL     1      41.092  29.706  54.594  1.00  0.00     0.281 C 
BRANCH  33  34
ATOM     34  N   UNL     1      40.589  29.451  53.280  1.00  0.00    -0.343 N 
ATOM     35  H   UNL     1      40.972  30.096  52.551  1.00  0.00     0.346 HD
ATOM     36  H   UNL     1      40.900  28.489  53.000  1.00  0.00     0.346 HD
BRANCH  34  37
ATOM     37  C   UNL     1      39.149  29.460  53.194  1.00  0.00     0.289 C 
BRANCH  37  38
ATOM     38  C   UNL     1      38.633  30.587  52.328  1.00  0.00     0.217 C 
BRANCH  38  39
ATOM     39  O   UNL     1      39.409  30.657  51.183  1.00  0.00    -0.391 OA
ATOM     40  H   UNL     1      38.780  30.642  50.404  1.00  0.00     0.210 HD
ENDBRANCH  38  39
ENDBRANCH  37  38
ENDBRANCH  34  37
ENDBRANCH  33  34
ENDBRANCH  32  33
ENDBRANCH  30  32
ENDBRANCH  13  30
TORSDOF 15
ENDMDL
MODEL 8
REMARK VINA RESULT:      -4.6      2.126      6.731
REMARK SMILES O=C1c2c([O-])ccc(O)c2C(=O)c2c(NCC[NH2+]CCO)ccc(NCCNCCO)c21
REMARK SMILES IDX 1 1 2 2 3 3 4 4 5 5 6 6 7 7 8 8 10 9 11 10 12 11 13 12 14 13
REMARK SMILES IDX 22 14 23 15 24 16 32 17 25 18 26 20 27 21 28 22 29 24 30 25
REMARK SMILES IDX 31 26 9 28 15 30 16 32 17 33 18 34 19 37 20 38 21 39
REMARK H PARENT 25 19 28 23 31 27 9 29 15 31 18 35 18 36 21 40
ROOT
ATOM      1  O   UNL     1      40.054  33.086  52.075  1.00  0.00    -0.288 OA
ATOM      2  C   UNL     1      40.650  34.126  52.448  1.00  0.00     0.196 C 
ATOM      3  C   UNL     1      40.552  35.332  51.591  1.00  0.00     0.030 A 
ATOM      4  C   UNL     1      39.806  35.236  50.432  1.00  0.00    -0.097 A 
ATOM      5  O   UNL     1      39.183  34.033  50.113  1.00  0.00    -0.872 OA
ATOM      6  C   UNL     1      39.699  36.344  49.620  1.00  0.00    -0.004 A 
ATOM      7  C   UNL     1      40.321  37.514  49.957  1.00  0.00     0.046 A 
ATOM      8  C   UNL     1      41.069  37.630  51.108  1.00  0.00     0.127 A 
ATOM      9  C   UNL     1      41.169  36.502  51.922  1.00  0.00     0.075 A 
ATOM     10  C   UNL     1      41.956  36.577  53.159  1.00  0.00     0.200 C 
ATOM     11  O   UNL     1      42.488  37.690  53.384  1.00  0.00    -0.288 OA
ATOM     12  C   UNL     1      42.068  35.406  54.017  1.00  0.00     0.059 A 
ATOM     13  C   UNL     1      42.815  35.532  55.155  1.00  0.00     0.046 A 
ATOM     14  C   UNL     1      42.901  34.377  55.958  1.00  0.00     0.028 A 
ATOM     15  C   UNL     1      42.281  33.216  55.620  1.00  0.00     0.028 A 
ATOM     16  C   UNL     1      41.514  33.085  54.451  1.00  0.00     0.046 A 
ATOM     17  C   UNL     1      41.418  34.198  53.658  1.00  0.00     0.059 A 
ENDROOT
BRANCH  16  18
ATOM     18  N   UNL     1      40.878  31.831  54.214  1.00  0.00    -0.383 N 
ATOM     19  H   UNL     1      40.886  31.391  53.304  1.00  0.00     0.160 HD
BRANCH  18  20
ATOM     20  C   UNL     1      40.176  31.115  55.264  1.00  0.00     0.128 C 
BRANCH  20  21
ATOM     21  C   UNL     1      38.693  31.184  55.182  1.00  0.00     0.102 C 
BRANCH  21  22
ATOM     22  N   UNL     1      38.239  31.511  53.824  1.00  0.00    -0.313 NA
ATOM     23  H   UNL     1      39.027  32.035  53.371  1.00  0.00     0.122 HD
BRANCH  22  24
ATOM     24  C   UNL     1      37.146  32.461  53.967  1.00  0.00     0.109 C 
BRANCH  24  25
ATOM     25  C   UNL     1      37.621  33.752  54.590  1.00  0.00     0.171 C 
BRANCH  25  26
ATOM     26  O   UNL     1      36.635  34.331  55.384  1.00  0.00    -0.395 OA
ATOM     27  H   UNL     1      36.101  33.590  55.784  1.00  0.00     0.210 HD
ENDBRANCH  25  26
ENDBRANCH  24  25
ENDBRANCH  22  24
ENDBRANCH  21  22
ENDBRANCH  20  21
ENDBRANCH  18  20
ENDBRANCH  16  18
BRANCH   8  28
ATOM     28  O   UNL     1      41.705  38.830  51.451  1.00  0.00    -0.507 OA
ATOM     29  H   UNL     1      41.512  39.699  50.950  1.00  0.00     0.293 HD
ENDBRANCH   8  28
BRANCH  13  30
ATOM     30  N   UNL     1      43.490  36.693  55.584  1.00  0.00    -0.379 N 
ATOM     31  H   UNL     1      43.054  37.553  55.884  1.00  0.00     0.160 HD
BRANCH  30  32
ATOM     32  C   UNL     1      44.966  36.725  55.622  1.00  0.00     0.174 C 
BRANCH  32  33
ATOM     33  C   UNL     1      45.502  38.092  55.843  1.00  0.00     0.281 C 
BRANCH  33  34
ATOM     34  N   UNL     1      46.827  38.140  56.378  1.00  0.00    -0.343 N 
ATOM     35  H   UNL     1      47.228  37.198  56.590  1.00  0.00     0.346 HD
ATOM     36  H   UNL     1      47.452  38.556  55.644  1.00  0.00     0.346 HD
BRANCH  34  37
ATOM     37  C   UNL     1      46.955  38.972  57.549  1.00  0.00     0.289 C 
BRANCH  37  38
ATOM     38  C   UNL     1      45.911  40.066  57.590  1.00  0.00     0.217 C 
BRANCH  38  39
ATOM     39  O   UNL     1      46.543  41.289  57.446  1.00  0.00    -0.391 OA
ATOM     40  H   UNL     1      47.517  41.135  57.616  1.00  0.00     0.210 HD
ENDBRANCH  38  39
ENDBRANCH  37  38
ENDBRANCH  34  37
ENDBRANCH  33  34
ENDBRANCH  32  33
ENDBRANCH  30  32
ENDBRANCH  13  30
TORSDOF 15
ENDMDL
MODEL 9
REMARK VINA RESULT:      -4.6      1.689      6.465
REMARK SMILES O=C1c2c([O-])ccc(O)c2C(=O)c2c(NCC[NH2+]CCO)ccc(NCCNCCO)c21
REMARK SMILES IDX 1 1 2 2 3 3 4 4 5 5 6 6 7 7 8 8 10 9 11 10 12 11 13 12 14 13
REMARK SMILES IDX 22 14 23 15 24 16 32 17 25 18 26 20 27 21 28 22 29 24 30 25
REMARK SMILES IDX 31 26 9 28 15 30 16 32 17 33 18 34 19 37 20 38 21 39
REMARK H PARENT 25 19 28 23 31 27 9 29 15 31 18 35 18 36 21 40
ROOT
ATOM      1  O   UNL     1      40.280  33.054  52.537  1.00  0.00    -0.288 OA
ATOM      2  C   UNL     1      40.880  34.132  52.769  1.00  0.00     0.196 C 
ATOM      3  C   UNL     1      40.666  35.263  51.836  1.00  0.00     0.030 A 
ATOM      4  C   UNL     1      39.815  35.061  50.767  1.00  0.00    -0.097 A 
ATOM      5  O   UNL     1      39.197  33.825  50.604  1.00  0.00    -0.872 OA
ATOM      6  C   UNL     1      39.599  36.099  49.886  1.00  0.00    -0.004 A 
ATOM      7  C   UNL     1      40.217  37.304  50.070  1.00  0.00     0.046 A 
ATOM      8  C   UNL     1      41.070  37.526  51.129  1.00  0.00     0.127 A 
ATOM      9  C   UNL     1      41.280  36.468  52.013  1.00  0.00     0.075 A 
ATOM     10  C   UNL     1      42.179  36.657  53.157  1.00  0.00     0.200 C 
ATOM     11  O   UNL     1      42.700  37.795  53.242  1.00  0.00    -0.288 OA
ATOM     12  C   UNL     1      42.407  35.560  54.087  1.00  0.00     0.059 A 
ATOM     13  C   UNL     1      43.256  35.791  55.133  1.00  0.00     0.046 A 
ATOM     14  C   UNL     1      43.453  34.705  56.011  1.00  0.00     0.028 A 
ATOM     15  C   UNL     1      42.835  33.508  55.826  1.00  0.00     0.028 A 
ATOM     16  C   UNL     1      41.962  33.270  54.751  1.00  0.00     0.046 A 
ATOM     17  C   UNL     1      41.759  34.315  53.888  1.00  0.00     0.059 A 
ENDROOT
BRANCH  16  18
ATOM     18  N   UNL     1      41.341  31.988  54.675  1.00  0.00    -0.383 N 
ATOM     19  H   UNL     1      41.222  31.503  53.797  1.00  0.00     0.160 HD
BRANCH  18  20
ATOM     20  C   UNL     1      40.840  31.307  55.855  1.00  0.00     0.128 C 
BRANCH  20  21
ATOM     21  C   UNL     1      39.380  31.026  55.839  1.00  0.00     0.102 C 
BRANCH  21  22
ATOM     22  N   UNL     1      38.642  32.036  55.069  1.00  0.00    -0.313 NA
ATOM     23  H   UNL     1      38.137  32.628  55.773  1.00  0.00     0.122 HD
BRANCH  22  24
ATOM     24  C   UNL     1      37.614  31.324  54.325  1.00  0.00     0.109 C 
BRANCH  24  25
ATOM     25  C   UNL     1      36.948  32.225  53.313  1.00  0.00     0.171 C 
BRANCH  25  26
ATOM     26  O   UNL     1      37.565  32.141  52.067  1.00  0.00    -0.395 OA
ATOM     27  H   UNL     1      36.882  31.814  51.418  1.00  0.00     0.210 HD
ENDBRANCH  25  26
ENDBRANCH  24  25
ENDBRANCH  22  24
ENDBRANCH  21  22
ENDBRANCH  20  21
ENDBRANCH  18  20
ENDBRANCH  16  18
BRANCH   8  28
ATOM     28  O   UNL     1      41.702  38.762  51.314  1.00  0.00    -0.507 OA
ATOM     29  H   UNL     1      41.628  39.274  52.195  1.00  0.00     0.293 HD
ENDBRANCH   8  28
BRANCH  13  30
ATOM     30  N   UNL     1      43.937  36.996  55.403  1.00  0.00    -0.379 N 
ATOM     31  H   UNL     1      43.519  37.843  55.758  1.00  0.00     0.160 HD
BRANCH  30  32
ATOM     32  C   UNL     1      45.392  37.098  55.167  1.00  0.00     0.174 C 
BRANCH  32  33
ATOM     33  C   UNL     1      46.173  37.142  56.428  1.00  0.00     0.281 C 
BRANCH  33  34
ATOM     34  N   UNL     1      45.496  37.745  57.535  1.00  0.00    -0.343 N 
ATOM     35  H   UNL     1      44.464  37.579  57.535  1.00  0.00     0.346 HD
ATOM     36  H   UNL     1      45.856  37.296  58.412  1.00  0.00     0.346 HD
BRANCH  34  37
ATOM     37  C   UNL     1      45.738  39.161  57.667  1.00  0.00     0.289 C 
BRANCH  37  38
ATOM     38  C   UNL     1      44.469  39.974  57.535  1.00  0.00     0.217 C 
BRANCH  38  39
ATOM     39  O   UNL     1      43.397  39.107  57.412  1.00  0.00    -0.391 OA
ATOM     40  H   UNL     1      42.784  39.498  56.724  1.00  0.00     0.210 HD
ENDBRANCH  38  39
ENDBRANCH  37  38
ENDBRANCH  34  37
ENDBRANCH  33  34
ENDBRANCH  32  33
ENDBRANCH  30  32
ENDBRANCH  13  30
TORSDOF 15
ENDMDL
