MODEL 1
REMARK VINA RESULT:      -8.0      0.000      0.000
REMARK SMILES O=C(CCC[NH+]1CCC(O)(c2ccc(Cl)cc2)CC1)c1ccc(F)cc1
REMARK SMILES IDX 4 1 3 2 2 3 1 4 20 5 21 6 26 7 22 8 25 9 23 10 24 11 5 12
REMARK SMILES IDX 6 13 7 14 19 15 8 16 18 17 9 18 10 20 11 22 12 23 17 24
REMARK SMILES IDX 13 25 16 26 14 27 15 28
REMARK H PARENT 6 19 10 21
ROOT
ATOM      1  C   UNL     1     110.826 109.318 150.019  1.00  0.00     0.070 C 
ENDROOT
BRANCH   1   2
ATOM      2  C   UNL     1     110.921 110.744 149.524  1.00  0.00     0.087 C 
BRANCH   2   3
ATOM      3  C   UNL     1     111.702 110.906 148.296  1.00  0.00     0.163 C 
ATOM      4  O   UNL     1     112.394 109.965 147.829  1.00  0.00    -0.294 OA
BRANCH   3   5
ATOM      5  C   UNL     1     111.726 112.172 147.534  1.00  0.00     0.018 A 
ATOM      6  C   UNL     1     112.900 112.891 147.403  1.00  0.00     0.015 A 
ATOM      7  C   UNL     1     110.590 112.661 146.941  1.00  0.00     0.015 A 
ATOM      8  C   UNL     1     112.915 114.068 146.693  1.00  0.00     0.040 A 
ATOM      9  C   UNL     1     110.597 113.832 146.232  1.00  0.00     0.040 A 
ATOM     10  C   UNL     1     111.765 114.535 146.109  1.00  0.00     0.123 A 
ATOM     11  F   UNL     1     111.733 115.704 145.394  1.00  0.00    -0.207 F 
ENDBRANCH   3   5
ENDBRANCH   2   3
ENDBRANCH   1   2
BRANCH   1  12
ATOM     12  C   UNL     1     110.293 109.336 151.411  1.00  0.00     0.262 C 
BRANCH  12  13
ATOM     13  N   UNL     1     111.344 109.440 152.415  1.00  0.00    -0.335 N 
ATOM     14  C   UNL     1     110.841 109.309 153.748  1.00  0.00     0.265 C 
ATOM     15  C   UNL     1     112.363 108.473 152.160  1.00  0.00     0.265 C 
ATOM     16  C   UNL     1     110.165 107.982 153.957  1.00  0.00     0.102 C 
ATOM     17  C   UNL     1     112.410 107.302 153.047  1.00  0.00     0.102 C 
ATOM     18  C   UNL     1     111.154 106.881 153.717  1.00  0.00     0.100 C 
ATOM     19  H   UNL     1     111.702 110.437 152.325  1.00  0.00     0.348 HD
BRANCH  18  20
ATOM     20  O   UNL     1     111.513 106.394 154.997  1.00  0.00    -0.385 OA
ATOM     21  H   UNL     1     111.692 107.188 155.561  1.00  0.00     0.211 HD
ENDBRANCH  18  20
BRANCH  18  22
ATOM     22  C   UNL     1     110.506 105.699 153.045  1.00  0.00    -0.016 A 
ATOM     23  C   UNL     1     109.367 105.827 152.277  1.00  0.00     0.008 A 
ATOM     24  C   UNL     1     111.005 104.420 153.154  1.00  0.00     0.008 A 
ATOM     25  C   UNL     1     108.744 104.774 151.648  1.00  0.00     0.021 A 
ATOM     26  C   UNL     1     110.397 103.347 152.532  1.00  0.00     0.021 A 
ATOM     27  C   UNL     1     109.268 103.525 151.779  1.00  0.00     0.041 A 
ATOM     28  Cl  UNL     1     108.493 102.174 150.987  1.00  0.00    -0.084 Cl
ENDBRANCH  18  22
ENDBRANCH  12  13
ENDBRANCH   1  12
TORSDOF 7
ENDMDL
MODEL 2
REMARK VINA RESULT:      -7.9      1.296      2.014
REMARK SMILES O=C(CCC[NH+]1CCC(O)(c2ccc(Cl)cc2)CC1)c1ccc(F)cc1
REMARK SMILES IDX 4 1 3 2 2 3 1 4 20 5 21 6 26 7 22 8 25 9 23 10 24 11 5 12
REMARK SMILES IDX 6 13 7 14 19 15 8 16 18 17 9 18 10 20 11 22 12 23 17 24
REMARK SMILES IDX 13 25 16 26 14 27 15 28
REMARK H PARENT 6 19 10 21
ROOT
ATOM      1  C   UNL     1     111.229 109.400 149.535  1.00  0.00     0.070 C 
ENDROOT
BRANCH   1   2
ATOM      2  C   UNL     1     111.668 110.188 148.321  1.00  0.00     0.087 C 
BRANCH   2   3
ATOM      3  C   UNL     1     112.230 111.505 148.629  1.00  0.00     0.163 C 
ATOM      4  O   UNL     1     112.885 111.710 149.683  1.00  0.00    -0.294 OA
BRANCH   3   5
ATOM      5  C   UNL     1     112.068 112.666 147.728  1.00  0.00     0.018 A 
ATOM      6  C   UNL     1     110.813 113.035 147.277  1.00  0.00     0.015 A 
ATOM      7  C   UNL     1     113.151 113.401 147.320  1.00  0.00     0.015 A 
ATOM      8  C   UNL     1     110.669 114.115 146.440  1.00  0.00     0.040 A 
ATOM      9  C   UNL     1     113.016 114.478 146.486  1.00  0.00     0.040 A 
ATOM     10  C   UNL     1     111.769 114.833 146.047  1.00  0.00     0.123 A 
ATOM     11  F   UNL     1     111.674 115.916 145.211  1.00  0.00    -0.207 F 
ENDBRANCH   3   5
ENDBRANCH   2   3
ENDBRANCH   1   2
BRANCH   1  12
ATOM     12  C   UNL     1     110.126 110.144 150.207  1.00  0.00     0.262 C 
BRANCH  12  13
ATOM     13  N   UNL     1     110.478 110.579 151.553  1.00  0.00    -0.335 N 
ATOM     14  C   UNL     1     109.336 110.689 152.408  1.00  0.00     0.265 C 
ATOM     15  C   UNL     1     111.449 109.697 152.115  1.00  0.00     0.265 C 
ATOM     16  C   UNL     1     108.618 109.374 152.545  1.00  0.00     0.102 C 
ATOM     17  C   UNL     1     110.983 108.760 153.147  1.00  0.00     0.102 C 
ATOM     18  C   UNL     1     109.553 108.362 153.136  1.00  0.00     0.100 C 
ATOM     19  H   UNL     1     110.854 111.565 151.425  1.00  0.00     0.348 HD
BRANCH  18  20
ATOM     20  O   UNL     1     109.157 108.209 154.487  1.00  0.00    -0.385 OA
ATOM     21  H   UNL     1     109.399 107.286 154.751  1.00  0.00     0.211 HD
ENDBRANCH  18  20
BRANCH  18  22
ATOM     22  C   UNL     1     109.335 106.998 152.535  1.00  0.00    -0.016 A 
ATOM     23  C   UNL     1     109.805 105.849 153.137  1.00  0.00     0.008 A 
ATOM     24  C   UNL     1     108.655 106.811 151.352  1.00  0.00     0.008 A 
ATOM     25  C   UNL     1     109.627 104.586 152.621  1.00  0.00     0.021 A 
ATOM     26  C   UNL     1     108.465 105.553 150.815  1.00  0.00     0.021 A 
ATOM     27  C   UNL     1     108.950 104.442 151.450  1.00  0.00     0.041 A 
ATOM     28  Cl  UNL     1     108.712 102.847 150.779  1.00  0.00    -0.084 Cl
ENDBRANCH  18  22
ENDBRANCH  12  13
ENDBRANCH   1  12
TORSDOF 7
ENDMDL
MODEL 3
REMARK VINA RESULT:      -7.8      1.704      2.487
REMARK SMILES O=C(CCC[NH+]1CCC(O)(c2ccc(Cl)cc2)CC1)c1ccc(F)cc1
REMARK SMILES IDX 4 1 3 2 2 3 1 4 20 5 21 6 26 7 22 8 25 9 23 10 24 11 5 12
REMARK SMILES IDX 6 13 7 14 19 15 8 16 18 17 9 18 10 20 11 22 12 23 17 24
REMARK SMILES IDX 13 25 16 26 14 27 15 28
REMARK H PARENT 6 19 10 21
ROOT
ATOM      1  C   UNL     1     111.573 110.304 150.826  1.00  0.00     0.070 C 
ENDROOT
BRANCH   1   2
ATOM      2  C   UNL     1     110.800 110.495 149.540  1.00  0.00     0.087 C 
BRANCH   2   3
ATOM      3  C   UNL     1     111.638 110.696 148.357  1.00  0.00     0.163 C 
ATOM      4  O   UNL     1     112.400 109.791 147.929  1.00  0.00    -0.294 OA
BRANCH   3   5
ATOM      5  C   UNL     1     111.642 111.963 147.595  1.00  0.00     0.018 A 
ATOM      6  C   UNL     1     110.508 112.381 146.922  1.00  0.00     0.015 A 
ATOM      7  C   UNL     1     112.763 112.751 147.539  1.00  0.00     0.015 A 
ATOM      8  C   UNL     1     110.519 113.561 146.215  1.00  0.00     0.040 A 
ATOM      9  C   UNL     1     112.781 113.927 146.838  1.00  0.00     0.040 A 
ATOM     10  C   UNL     1     111.654 114.330 146.176  1.00  0.00     0.123 A 
ATOM     11  F   UNL     1     111.711 115.511 145.483  1.00  0.00    -0.207 F 
ENDBRANCH   3   5
ENDBRANCH   2   3
ENDBRANCH   1   2
BRANCH   1  12
ATOM     12  C   UNL     1     111.151 109.015 151.443  1.00  0.00     0.262 C 
BRANCH  12  13
ATOM     13  N   UNL     1     109.882 109.117 152.150  1.00  0.00    -0.335 N 
ATOM     14  C   UNL     1     108.872 108.272 151.588  1.00  0.00     0.265 C 
ATOM     15  C   UNL     1     110.067 108.832 153.536  1.00  0.00     0.265 C 
ATOM     16  C   UNL     1     109.280 106.825 151.626  1.00  0.00     0.102 C 
ATOM     17  C   UNL     1     109.588 107.530 154.022  1.00  0.00     0.102 C 
ATOM     18  C   UNL     1     109.501 106.411 153.050  1.00  0.00     0.100 C 
ATOM     19  H   UNL     1     109.562 110.118 151.983  1.00  0.00     0.348 HD
BRANCH  18  20
ATOM     20  O   UNL     1     108.369 105.639 153.411  1.00  0.00    -0.385 OA
ATOM     21  H   UNL     1     107.947 105.344 152.566  1.00  0.00     0.211 HD
ENDBRANCH  18  20
BRANCH  18  22
ATOM     22  C   UNL     1     110.653 105.448 153.169  1.00  0.00    -0.016 A 
ATOM     23  C   UNL     1     110.531 104.116 152.831  1.00  0.00     0.008 A 
ATOM     24  C   UNL     1     111.896 105.833 153.619  1.00  0.00     0.008 A 
ATOM     25  C   UNL     1     111.558 103.205 152.925  1.00  0.00     0.021 A 
ATOM     26  C   UNL     1     112.941 104.937 153.722  1.00  0.00     0.021 A 
ATOM     27  C   UNL     1     112.771 103.624 153.375  1.00  0.00     0.041 A 
ATOM     28  Cl  UNL     1     114.089 102.483 153.500  1.00  0.00    -0.084 Cl
ENDBRANCH  18  22
ENDBRANCH  12  13
ENDBRANCH   1  12
TORSDOF 7
ENDMDL
MODEL 4
REMARK VINA RESULT:      -7.8      0.503      1.048
REMARK SMILES O=C(CCC[NH+]1CCC(O)(c2ccc(Cl)cc2)CC1)c1ccc(F)cc1
REMARK SMILES IDX 4 1 3 2 2 3 1 4 20 5 21 6 26 7 22 8 25 9 23 10 24 11 5 12
REMARK SMILES IDX 6 13 7 14 19 15 8 16 18 17 9 18 10 20 11 22 12 23 17 24
REMARK SMILES IDX 13 25 16 26 14 27 15 28
REMARK H PARENT 6 19 10 21
ROOT
ATOM      1  C   UNL     1     110.421 110.201 150.047  1.00  0.00     0.070 C 
ENDROOT
BRANCH   1   2
ATOM      2  C   UNL     1     111.617 111.083 149.762  1.00  0.00     0.087 C 
BRANCH   2   3
ATOM      3  C   UNL     1     112.010 111.127 148.352  1.00  0.00     0.163 C 
ATOM      4  O   UNL     1     112.420 110.101 147.751  1.00  0.00    -0.294 OA
BRANCH   3   5
ATOM      5  C   UNL     1     111.951 112.369 147.552  1.00  0.00     0.018 A 
ATOM      6  C   UNL     1     113.101 113.092 147.291  1.00  0.00     0.015 A 
ATOM      7  C   UNL     1     110.760 112.832 147.052  1.00  0.00     0.015 A 
ATOM      8  C   UNL     1     113.039 114.246 146.546  1.00  0.00     0.040 A 
ATOM      9  C   UNL     1     110.690 113.980 146.310  1.00  0.00     0.040 A 
ATOM     10  C   UNL     1     111.835 114.686 146.058  1.00  0.00     0.123 A 
ATOM     11  F   UNL     1     111.725 115.832 145.314  1.00  0.00    -0.207 F 
ENDBRANCH   3   5
ENDBRANCH   2   3
ENDBRANCH   1   2
BRANCH   1  12
ATOM     12  C   UNL     1     110.900 108.958 150.714  1.00  0.00     0.262 C 
BRANCH  12  13
ATOM     13  N   UNL     1     111.588 109.223 151.972  1.00  0.00    -0.335 N 
ATOM     14  C   UNL     1     110.680 109.414 153.061  1.00  0.00     0.265 C 
ATOM     15  C   UNL     1     112.509 108.173 152.258  1.00  0.00     0.265 C 
ATOM     16  C   UNL     1     109.816 108.202 153.281  1.00  0.00     0.102 C 
ATOM     17  C   UNL     1     112.134 107.222 153.314  1.00  0.00     0.102 C 
ATOM     18  C   UNL     1     110.690 107.025 153.596  1.00  0.00     0.100 C 
ATOM     19  H   UNL     1     112.074 110.157 151.819  1.00  0.00     0.348 HD
BRANCH  18  20
ATOM     20  O   UNL     1     110.567 106.812 154.991  1.00  0.00    -0.385 OA
ATOM     21  H   UNL     1     110.514 105.832 155.123  1.00  0.00     0.211 HD
ENDBRANCH  18  20
BRANCH  18  22
ATOM     22  C   UNL     1     110.147 105.760 152.984  1.00  0.00    -0.016 A 
ATOM     23  C   UNL     1     110.828 104.563 153.052  1.00  0.00     0.008 A 
ATOM     24  C   UNL     1     108.940 105.718 152.319  1.00  0.00     0.008 A 
ATOM     25  C   UNL     1     110.367 103.386 152.506  1.00  0.00     0.021 A 
ATOM     26  C   UNL     1     108.458 104.550 151.763  1.00  0.00     0.021 A 
ATOM     27  C   UNL     1     109.171 103.385 151.858  1.00  0.00     0.041 A 
ATOM     28  Cl  UNL     1     108.567 101.902 151.159  1.00  0.00    -0.084 Cl
ENDBRANCH  18  22
ENDBRANCH  12  13
ENDBRANCH   1  12
TORSDOF 7
ENDMDL
MODEL 5
REMARK VINA RESULT:      -7.6      2.018      2.854
REMARK SMILES O=C(CCC[NH+]1CCC(O)(c2ccc(Cl)cc2)CC1)c1ccc(F)cc1
REMARK SMILES IDX 4 1 3 2 2 3 1 4 20 5 21 6 26 7 22 8 25 9 23 10 24 11 5 12
REMARK SMILES IDX 6 13 7 14 19 15 8 16 18 17 9 18 10 20 11 22 12 23 17 24
REMARK SMILES IDX 13 25 16 26 14 27 15 28
REMARK H PARENT 6 19 10 21
ROOT
ATOM      1  C   UNL     1     110.661 108.821 150.307  1.00  0.00     0.070 C 
ENDROOT
BRANCH   1   2
ATOM      2  C   UNL     1     110.404 110.297 150.508  1.00  0.00     0.087 C 
BRANCH   2   3
ATOM      3  C   UNL     1     111.490 111.166 150.049  1.00  0.00     0.163 C 
ATOM      4  O   UNL     1     112.534 111.330 150.733  1.00  0.00    -0.294 OA
BRANCH   3   5
ATOM      5  C   UNL     1     111.431 111.897 148.766  1.00  0.00     0.018 A 
ATOM      6  C   UNL     1     110.271 111.902 148.013  1.00  0.00     0.015 A 
ATOM      7  C   UNL     1     112.520 112.585 148.294  1.00  0.00     0.015 A 
ATOM      8  C   UNL     1     110.223 112.584 146.821  1.00  0.00     0.040 A 
ATOM      9  C   UNL     1     112.479 113.266 147.107  1.00  0.00     0.040 A 
ATOM     10  C   UNL     1     111.326 113.264 146.371  1.00  0.00     0.123 A 
ATOM     11  F   UNL     1     111.325 113.955 145.187  1.00  0.00    -0.207 F 
ENDBRANCH   3   5
ENDBRANCH   2   3
ENDBRANCH   1   2
BRANCH   1  12
ATOM     12  C   UNL     1     110.549 108.139 151.628  1.00  0.00     0.262 C 
BRANCH  12  13
ATOM     13  N   UNL     1     109.203 108.202 152.182  1.00  0.00    -0.335 N 
ATOM     14  C   UNL     1     108.242 107.528 151.363  1.00  0.00     0.265 C 
ATOM     15  C   UNL     1     109.193 107.678 153.509  1.00  0.00     0.265 C 
ATOM     16  C   UNL     1     108.581 106.072 151.198  1.00  0.00     0.102 C 
ATOM     17  C   UNL     1     108.601 106.346 153.699  1.00  0.00     0.102 C 
ATOM     18  C   UNL     1     108.596 105.413 152.545  1.00  0.00     0.100 C 
ATOM     19  H   UNL     1     108.950 109.234 152.153  1.00  0.00     0.348 HD
BRANCH  18  20
ATOM     20  O   UNL     1     107.396 104.665 152.625  1.00  0.00    -0.385 OA
ATOM     21  H   UNL     1     107.521 104.007 153.355  1.00  0.00     0.211 HD
ENDBRANCH  18  20
BRANCH  18  22
ATOM     22  C   UNL     1     109.682 104.373 152.634  1.00  0.00    -0.016 A 
ATOM     23  C   UNL     1     110.946 104.673 153.097  1.00  0.00     0.008 A 
ATOM     24  C   UNL     1     109.484 103.062 152.261  1.00  0.00     0.008 A 
ATOM     25  C   UNL     1     111.965 103.754 153.194  1.00  0.00     0.021 A 
ATOM     26  C   UNL     1     110.491 102.122 152.349  1.00  0.00     0.021 A 
ATOM     27  C   UNL     1     111.730 102.468 152.815  1.00  0.00     0.041 A 
ATOM     28  Cl  UNL     1     113.010 101.285 152.932  1.00  0.00    -0.084 Cl
ENDBRANCH  18  22
ENDBRANCH  12  13
ENDBRANCH   1  12
TORSDOF 7
ENDMDL
MODEL 6
REMARK VINA RESULT:      -7.5      0.728      1.238
REMARK SMILES O=C(CCC[NH+]1CCC(O)(c2ccc(Cl)cc2)CC1)c1ccc(F)cc1
REMARK SMILES IDX 4 1 3 2 2 3 1 4 20 5 21 6 26 7 22 8 25 9 23 10 24 11 5 12
REMARK SMILES IDX 6 13 7 14 19 15 8 16 18 17 9 18 10 20 11 22 12 23 17 24
REMARK SMILES IDX 13 25 16 26 14 27 15 28
REMARK H PARENT 6 19 10 21
ROOT
ATOM      1  C   UNL     1     110.671 111.253 150.446  1.00  0.00     0.070 C 
ENDROOT
BRANCH   1   2
ATOM      2  C   UNL     1     110.553 110.574 149.100  1.00  0.00     0.087 C 
BRANCH   2   3
ATOM      3  C   UNL     1     111.611 110.927 148.151  1.00  0.00     0.163 C 
ATOM      4  O   UNL     1     112.560 110.140 147.901  1.00  0.00    -0.294 OA
BRANCH   3   5
ATOM      5  C   UNL     1     111.631 112.219 147.432  1.00  0.00     0.018 A 
ATOM      6  C   UNL     1     110.481 112.711 146.841  1.00  0.00     0.015 A 
ATOM      7  C   UNL     1     112.783 112.956 147.335  1.00  0.00     0.015 A 
ATOM      8  C   UNL     1     110.506 113.913 146.173  1.00  0.00     0.040 A 
ATOM      9  C   UNL     1     112.816 114.154 146.672  1.00  0.00     0.040 A 
ATOM     10  C   UNL     1     111.673 114.630 146.092  1.00  0.00     0.123 A 
ATOM     11  F   UNL     1     111.745 115.832 145.435  1.00  0.00    -0.207 F 
ENDBRANCH   3   5
ENDBRANCH   2   3
ENDBRANCH   1   2
BRANCH   1  12
ATOM     12  C   UNL     1     110.493 110.225 151.509  1.00  0.00     0.262 C 
BRANCH  12  13
ATOM     13  N   UNL     1     111.661 110.097 152.371  1.00  0.00    -0.335 N 
ATOM     14  C   UNL     1     111.310 109.909 153.745  1.00  0.00     0.265 C 
ATOM     15  C   UNL     1     112.496 109.035 151.911  1.00  0.00     0.265 C 
ATOM     16  C   UNL     1     110.484 108.667 153.940  1.00  0.00     0.102 C 
ATOM     17  C   UNL     1     112.485 107.790 152.691  1.00  0.00     0.102 C 
ATOM     18  C   UNL     1     111.273 107.474 153.487  1.00  0.00     0.100 C 
ATOM     19  H   UNL     1     112.142 111.044 152.311  1.00  0.00     0.348 HD
BRANCH  18  20
ATOM     20  O   UNL     1     111.712 106.828 154.669  1.00  0.00    -0.385 OA
ATOM     21  H   UNL     1     111.181 105.996 154.749  1.00  0.00     0.211 HD
ENDBRANCH  18  20
BRANCH  18  22
ATOM     22  C   UNL     1     110.389 106.454 152.819  1.00  0.00    -0.016 A 
ATOM     23  C   UNL     1     109.377 106.816 151.955  1.00  0.00     0.008 A 
ATOM     24  C   UNL     1     110.533 105.100 153.028  1.00  0.00     0.008 A 
ATOM     25  C   UNL     1     108.548 105.916 151.325  1.00  0.00     0.021 A 
ATOM     26  C   UNL     1     109.713 104.178 152.407  1.00  0.00     0.021 A 
ATOM     27  C   UNL     1     108.722 104.587 151.556  1.00  0.00     0.041 A 
ATOM     28  Cl  UNL     1     107.681 103.428 150.765  1.00  0.00    -0.084 Cl
ENDBRANCH  18  22
ENDBRANCH  12  13
ENDBRANCH   1  12
TORSDOF 7
ENDMDL
MODEL 7
REMARK VINA RESULT:      -7.3      1.657      1.939
REMARK SMILES O=C(CCC[NH+]1CCC(O)(c2ccc(Cl)cc2)CC1)c1ccc(F)cc1
REMARK SMILES IDX 4 1 3 2 2 3 1 4 20 5 21 6 26 7 22 8 25 9 23 10 24 11 5 12
REMARK SMILES IDX 6 13 7 14 19 15 8 16 18 17 9 18 10 20 11 22 12 23 17 24
REMARK SMILES IDX 13 25 16 26 14 27 15 28
REMARK H PARENT 6 19 10 21
ROOT
ATOM      1  C   UNL     1     111.758 110.791 150.713  1.00  0.00     0.070 C 
ENDROOT
BRANCH   1   2
ATOM      2  C   UNL     1     110.970 110.819 149.422  1.00  0.00     0.087 C 
BRANCH   2   3
ATOM      3  C   UNL     1     111.783 111.036 148.224  1.00  0.00     0.163 C 
ATOM      4  O   UNL     1     112.538 110.137 147.770  1.00  0.00    -0.294 OA
BRANCH   3   5
ATOM      5  C   UNL     1     111.767 112.311 147.476  1.00  0.00     0.018 A 
ATOM      6  C   UNL     1     112.914 113.079 147.373  1.00  0.00     0.015 A 
ATOM      7  C   UNL     1     110.622 112.762 146.871  1.00  0.00     0.015 A 
ATOM      8  C   UNL     1     112.892 114.264 146.677  1.00  0.00     0.040 A 
ATOM      9  C   UNL     1     110.593 113.941 146.176  1.00  0.00     0.040 A 
ATOM     10  C   UNL     1     111.734 114.691 146.080  1.00  0.00     0.123 A 
ATOM     11  F   UNL     1     111.665 115.867 145.379  1.00  0.00    -0.207 F 
ENDBRANCH   3   5
ENDBRANCH   2   3
ENDBRANCH   1   2
BRANCH   1  12
ATOM     12  C   UNL     1     111.185 109.733 151.592  1.00  0.00     0.262 C 
BRANCH  12  13
ATOM     13  N   UNL     1     110.776 110.243 152.894  1.00  0.00    -0.335 N 
ATOM     14  C   UNL     1     109.417 110.691 152.904  1.00  0.00     0.265 C 
ATOM     15  C   UNL     1     110.990 109.252 153.898  1.00  0.00     0.265 C 
ATOM     16  C   UNL     1     108.466 109.581 152.549  1.00  0.00     0.102 C 
ATOM     17  C   UNL     1     109.802 108.564 154.423  1.00  0.00     0.102 C 
ATOM     18  C   UNL     1     108.604 108.475 153.552  1.00  0.00     0.100 C 
ATOM     19  H   UNL     1     111.378 111.106 153.044  1.00  0.00     0.348 HD
BRANCH  18  20
ATOM     20  O   UNL     1     107.471 108.571 154.396  1.00  0.00    -0.385 OA
ATOM     21  H   UNL     1     107.782 108.987 155.239  1.00  0.00     0.211 HD
ENDBRANCH  18  20
BRANCH  18  22
ATOM     22  C   UNL     1     108.459 107.124 152.900  1.00  0.00    -0.016 A 
ATOM     23  C   UNL     1     108.772 106.915 151.573  1.00  0.00     0.008 A 
ATOM     24  C   UNL     1     108.007 106.017 153.584  1.00  0.00     0.008 A 
ATOM     25  C   UNL     1     108.654 105.698 150.940  1.00  0.00     0.021 A 
ATOM     26  C   UNL     1     107.880 104.787 152.970  1.00  0.00     0.021 A 
ATOM     27  C   UNL     1     108.203 104.629 151.649  1.00  0.00     0.041 A 
ATOM     28  Cl  UNL     1     108.047 103.075 150.865  1.00  0.00    -0.084 Cl
ENDBRANCH  18  22
ENDBRANCH  12  13
ENDBRANCH   1  12
TORSDOF 7
ENDMDL
MODEL 8
REMARK VINA RESULT:      -7.3      4.464      8.566
REMARK SMILES O=C(CCC[NH+]1CCC(O)(c2ccc(Cl)cc2)CC1)c1ccc(F)cc1
REMARK SMILES IDX 4 1 3 2 2 3 1 4 20 5 21 6 26 7 22 8 25 9 23 10 24 11 5 12
REMARK SMILES IDX 6 13 7 14 19 15 8 16 18 17 9 18 10 20 11 22 12 23 17 24
REMARK SMILES IDX 13 25 16 26 14 27 15 28
REMARK H PARENT 6 19 10 21
ROOT
ATOM      1  C   UNL     1     110.930 110.586 151.149  1.00  0.00     0.070 C 
ENDROOT
BRANCH   1   2
ATOM      2  C   UNL     1     110.620 109.181 150.684  1.00  0.00     0.087 C 
BRANCH   2   3
ATOM      3  C   UNL     1     109.495 108.551 151.378  1.00  0.00     0.163 C 
ATOM      4  O   UNL     1     108.536 109.231 151.827  1.00  0.00    -0.294 OA
BRANCH   3   5
ATOM      5  C   UNL     1     109.414 107.091 151.592  1.00  0.00     0.018 A 
ATOM      6  C   UNL     1     110.193 106.478 152.557  1.00  0.00     0.015 A 
ATOM      7  C   UNL     1     108.568 106.312 150.844  1.00  0.00     0.015 A 
ATOM      8  C   UNL     1     110.113 105.120 152.751  1.00  0.00     0.040 A 
ATOM      9  C   UNL     1     108.483 104.959 151.032  1.00  0.00     0.040 A 
ATOM     10  C   UNL     1     109.259 104.364 151.989  1.00  0.00     0.123 A 
ATOM     11  F   UNL     1     109.148 103.007 152.146  1.00  0.00    -0.207 F 
ENDBRANCH   3   5
ENDBRANCH   2   3
ENDBRANCH   1   2
BRANCH   1  12
ATOM     12  C   UNL     1     112.347 110.627 151.611  1.00  0.00     0.262 C 
BRANCH  12  13
ATOM     13  N   UNL     1     112.669 111.852 152.332  1.00  0.00    -0.335 N 
ATOM     14  C   UNL     1     113.890 112.447 151.882  1.00  0.00     0.265 C 
ATOM     15  C   UNL     1     111.587 112.778 152.235  1.00  0.00     0.265 C 
ATOM     16  C   UNL     1     113.826 112.803 150.421  1.00  0.00     0.102 C 
ATOM     17  C   UNL     1     111.769 113.927 151.337  1.00  0.00     0.102 C 
ATOM     18  C   UNL     1     112.714 113.784 150.201  1.00  0.00     0.100 C 
ATOM     19  H   UNL     1     112.841 111.536 153.333  1.00  0.00     0.348 HD
BRANCH  18  20
ATOM     20  O   UNL     1     113.336 115.043 150.021  1.00  0.00    -0.385 OA
ATOM     21  H   UNL     1     114.144 114.883 149.471  1.00  0.00     0.211 HD
ENDBRANCH  18  20
BRANCH  18  22
ATOM     22  C   UNL     1     112.013 113.533 148.892  1.00  0.00    -0.016 A 
ATOM     23  C   UNL     1     110.687 113.158 148.832  1.00  0.00     0.008 A 
ATOM     24  C   UNL     1     112.648 113.660 147.676  1.00  0.00     0.008 A 
ATOM     25  C   UNL     1     110.010 112.919 147.657  1.00  0.00     0.021 A 
ATOM     26  C   UNL     1     111.990 113.424 146.485  1.00  0.00     0.021 A 
ATOM     27  C   UNL     1     110.672 113.054 146.477  1.00  0.00     0.041 A 
ATOM     28  Cl  UNL     1     109.831 112.757 144.974  1.00  0.00    -0.084 Cl
ENDBRANCH  18  22
ENDBRANCH  12  13
ENDBRANCH   1  12
TORSDOF 7
ENDMDL
MODEL 9
REMARK VINA RESULT:      -7.3      1.700      2.081
REMARK SMILES O=C(CCC[NH+]1CCC(O)(c2ccc(Cl)cc2)CC1)c1ccc(F)cc1
REMARK SMILES IDX 4 1 3 2 2 3 1 4 20 5 21 6 26 7 22 8 25 9 23 10 24 11 5 12
REMARK SMILES IDX 6 13 7 14 19 15 8 16 18 17 9 18 10 20 11 22 12 23 17 24
REMARK SMILES IDX 13 25 16 26 14 27 15 28
REMARK H PARENT 6 19 10 21
ROOT
ATOM      1  C   UNL     1     111.316 110.880 150.622  1.00  0.00     0.070 C 
ENDROOT
BRANCH   1   2
ATOM      2  C   UNL     1     110.798 110.567 149.235  1.00  0.00     0.087 C 
BRANCH   2   3
ATOM      3  C   UNL     1     111.743 110.867 148.157  1.00  0.00     0.163 C 
ATOM      4  O   UNL     1     112.600 110.026 147.782  1.00  0.00    -0.294 OA
BRANCH   3   5
ATOM      5  C   UNL     1     111.749 112.163 147.447  1.00  0.00     0.018 A 
ATOM      6  C   UNL     1     112.919 112.889 147.319  1.00  0.00     0.015 A 
ATOM      7  C   UNL     1     110.600 112.675 146.900  1.00  0.00     0.015 A 
ATOM      8  C   UNL     1     112.918 114.094 146.658  1.00  0.00     0.040 A 
ATOM      9  C   UNL     1     110.590 113.874 146.240  1.00  0.00     0.040 A 
ATOM     10  C   UNL     1     111.754 114.583 146.120  1.00  0.00     0.123 A 
ATOM     11  F   UNL     1     111.705 115.780 145.455  1.00  0.00    -0.207 F 
ENDBRANCH   3   5
ENDBRANCH   2   3
ENDBRANCH   1   2
BRANCH   1  12
ATOM     12  C   UNL     1     110.166 111.306 151.469  1.00  0.00     0.262 C 
BRANCH  12  13
ATOM     13  N   UNL     1     110.522 111.443 152.875  1.00  0.00    -0.335 N 
ATOM     14  C   UNL     1     109.375 111.466 153.730  1.00  0.00     0.265 C 
ATOM     15  C   UNL     1     111.418 110.400 153.258  1.00  0.00     0.265 C 
ATOM     16  C   UNL     1     108.565 110.205 153.604  1.00  0.00     0.102 C 
ATOM     17  C   UNL     1     110.869 109.316 154.084  1.00  0.00     0.102 C 
ATOM     18  C   UNL     1     109.415 109.032 153.989  1.00  0.00     0.100 C 
ATOM     19  H   UNL     1     110.969 112.405 152.945  1.00  0.00     0.348 HD
BRANCH  18  20
ATOM     20  O   UNL     1     108.984 108.647 155.282  1.00  0.00    -0.385 OA
ATOM     21  H   UNL     1     108.750 109.481 155.762  1.00  0.00     0.211 HD
ENDBRANCH  18  20
BRANCH  18  22
ATOM     22  C   UNL     1     109.113 107.831 153.131  1.00  0.00    -0.016 A 
ATOM     23  C   UNL     1     108.684 106.636 153.670  1.00  0.00     0.008 A 
ATOM     24  C   UNL     1     109.245 107.849 151.760  1.00  0.00     0.008 A 
ATOM     25  C   UNL     1     108.398 105.517 152.922  1.00  0.00     0.021 A 
ATOM     26  C   UNL     1     108.965 106.738 150.989  1.00  0.00     0.021 A 
ATOM     27  C   UNL     1     108.541 105.573 151.571  1.00  0.00     0.041 A 
ATOM     28  Cl  UNL     1     108.182 104.164 150.603  1.00  0.00    -0.084 Cl
ENDBRANCH  18  22
ENDBRANCH  12  13
ENDBRANCH   1  12
TORSDOF 7
ENDMDL
