MODEL 1
REMARK VINA RESULT:      -5.7      0.000      0.000
REMARK SMILES CC1=[NH+]c2ccc(Cl)cc2S(=O)(=O)N1
REMARK SMILES IDX 1 1 2 2 3 3 4 4 5 5 6 6 7 7 8 8 9 9 10 10 11 11 12 12 13 13
REMARK SMILES IDX 14 14
REMARK H PARENT 3 15 14 16
ROOT
ATOM      1  C   UNL     1      51.058 -14.135  32.005  1.00  0.00     0.146 C 
ATOM      2  C   UNL     1      51.110 -13.160  33.158  1.00  0.00     0.259 C 
ATOM      3  N   UNL     1      52.033 -12.298  33.151  1.00  0.00    -0.243 N 
ATOM      4  C   UNL     1      52.234 -11.309  34.145  1.00  0.00     0.147 A 
ATOM      5  C   UNL     1      53.302 -10.419  34.003  1.00  0.00     0.055 A 
ATOM      6  C   UNL     1      53.558  -9.434  34.930  1.00  0.00     0.025 A 
ATOM      7  C   UNL     1      52.767  -9.287  36.039  1.00  0.00     0.042 A 
ATOM      8  Cl  UNL     1      53.090  -8.049  37.204  1.00  0.00    -0.084 Cl
ATOM      9  C   UNL     1      51.717 -10.163  36.180  1.00  0.00     0.049 A 
ATOM     10  C   UNL     1      51.456 -11.141  35.268  1.00  0.00     0.156 A 
ATOM     11  S   UNL     1      50.101 -12.237  35.489  1.00  0.00     0.332 S 
ATOM     12  O   UNL     1      48.806 -11.501  35.632  1.00  0.00    -0.179 OA
ATOM     13  O   UNL     1      50.387 -13.079  36.720  1.00  0.00    -0.179 OA
ATOM     14  N   UNL     1      50.116 -13.303  34.144  1.00  0.00    -0.166 N 
ATOM     15  H   UNL     1      52.707 -12.308  32.348  1.00  0.00     0.312 HD
ATOM     16  H   UNL     1      49.425 -14.060  34.013  1.00  0.00     0.327 HD
ENDROOT
TORSDOF 0
ENDMDL
MODEL 2
REMARK VINA RESULT:      -5.6      3.549      4.825
REMARK SMILES CC1=[NH+]c2ccc(Cl)cc2S(=O)(=O)N1
REMARK SMILES IDX 1 1 2 2 3 3 4 4 5 5 6 6 7 7 8 8 9 9 10 10 11 11 12 12 13 13
REMARK SMILES IDX 14 14
REMARK H PARENT 3 15 14 16
ROOT
ATOM      1  C   UNL     1      55.102  -8.511  36.617  1.00  0.00     0.146 C 
ATOM      2  C   UNL     1      53.946  -9.380  36.180  1.00  0.00     0.259 C 
ATOM      3  N   UNL     1      53.279  -9.958  37.083  1.00  0.00    -0.243 N 
ATOM      4  C   UNL     1      52.168 -10.807  36.860  1.00  0.00     0.147 A 
ATOM      5  C   UNL     1      51.524 -11.379  37.962  1.00  0.00     0.055 A 
ATOM      6  C   UNL     1      50.439 -12.213  37.819  1.00  0.00     0.025 A 
ATOM      7  C   UNL     1      49.942 -12.519  36.580  1.00  0.00     0.042 A 
ATOM      8  Cl  UNL     1      48.578 -13.569  36.402  1.00  0.00    -0.084 Cl
ATOM      9  C   UNL     1      50.575 -11.957  35.496  1.00  0.00     0.049 A 
ATOM     10  C   UNL     1      51.649 -11.131  35.626  1.00  0.00     0.156 A 
ATOM     11  S   UNL     1      52.425 -10.435  34.212  1.00  0.00     0.332 S 
ATOM     12  O   UNL     1      51.458  -9.665  33.369  1.00  0.00    -0.179 OA
ATOM     13  O   UNL     1      53.049 -11.573  33.423  1.00  0.00    -0.179 OA
ATOM     14  N   UNL     1      53.718  -9.468  34.795  1.00  0.00    -0.166 N 
ATOM     15  H   UNL     1      53.564  -9.801  38.080  1.00  0.00     0.312 HD
ATOM     16  H   UNL     1      54.351  -8.936  34.176  1.00  0.00     0.327 HD
ENDROOT
TORSDOF 0
ENDMDL
MODEL 3
REMARK VINA RESULT:      -5.3      2.749      3.483
REMARK SMILES CC1=[NH+]c2ccc(Cl)cc2S(=O)(=O)N1
REMARK SMILES IDX 1 1 2 2 3 3 4 4 5 5 6 6 7 7 8 8 9 9 10 10 11 11 12 12 13 13
REMARK SMILES IDX 14 14
REMARK H PARENT 3 15 14 16
ROOT
ATOM      1  C   UNL     1      49.743 -13.061  36.214  1.00  0.00     0.146 C 
ATOM      2  C   UNL     1      50.739 -11.949  35.983  1.00  0.00     0.259 C 
ATOM      3  N   UNL     1      51.088 -11.262  36.984  1.00  0.00    -0.243 N 
ATOM      4  C   UNL     1      52.007 -10.185  36.956  1.00  0.00     0.147 A 
ATOM      5  C   UNL     1      52.298  -9.516  38.148  1.00  0.00     0.055 A 
ATOM      6  C   UNL     1      53.181  -8.461  38.194  1.00  0.00     0.025 A 
ATOM      7  C   UNL     1      53.815  -8.021  37.061  1.00  0.00     0.042 A 
ATOM      8  Cl  UNL     1      54.924  -6.695  37.120  1.00  0.00    -0.084 Cl
ATOM      9  C   UNL     1      53.529  -8.679  35.888  1.00  0.00     0.049 A 
ATOM     10  C   UNL     1      52.657  -9.724  35.832  1.00  0.00     0.156 A 
ATOM     11  S   UNL     1      52.322 -10.535  34.311  1.00  0.00     0.332 S 
ATOM     12  O   UNL     1      53.571 -11.053  33.670  1.00  0.00    -0.179 OA
ATOM     13  O   UNL     1      51.618  -9.541  33.405  1.00  0.00    -0.179 OA
ATOM     14  N   UNL     1      51.190 -11.777  34.662  1.00  0.00    -0.166 N 
ATOM     15  H   UNL     1      50.668 -11.504  37.914  1.00  0.00     0.312 HD
ATOM     16  H   UNL     1      50.812 -12.418  33.945  1.00  0.00     0.327 HD
ENDROOT
TORSDOF 0
ENDMDL
MODEL 4
REMARK VINA RESULT:      -5.3      2.429      3.248
REMARK SMILES CC1=[NH+]c2ccc(Cl)cc2S(=O)(=O)N1
REMARK SMILES IDX 1 1 2 2 3 3 4 4 5 5 6 6 7 7 8 8 9 9 10 10 11 11 12 12 13 13
REMARK SMILES IDX 14 14
REMARK H PARENT 3 15 14 16
ROOT
ATOM      1  C   UNL     1      50.600 -14.131  31.999  1.00  0.00     0.146 C 
ATOM      2  C   UNL     1      50.957 -13.151  33.092  1.00  0.00     0.259 C 
ATOM      3  N   UNL     1      50.444 -13.337  34.231  1.00  0.00    -0.243 N 
ATOM      4  C   UNL     1      50.664 -12.523  35.369  1.00  0.00     0.147 A 
ATOM      5  C   UNL     1      50.026 -12.853  36.567  1.00  0.00     0.055 A 
ATOM      6  C   UNL     1      50.193 -12.107  37.712  1.00  0.00     0.025 A 
ATOM      7  C   UNL     1      51.001 -11.000  37.721  1.00  0.00     0.042 A 
ATOM      8  Cl  UNL     1      51.211 -10.062  39.159  1.00  0.00    -0.084 Cl
ATOM      9  C   UNL     1      51.629 -10.674  36.541  1.00  0.00     0.049 A 
ATOM     10  C   UNL     1      51.469 -11.406  35.404  1.00  0.00     0.156 A 
ATOM     11  S   UNL     1      52.293 -10.953  33.920  1.00  0.00     0.332 S 
ATOM     12  O   UNL     1      53.775 -10.870  34.108  1.00  0.00    -0.179 OA
ATOM     13  O   UNL     1      51.727  -9.618  33.469  1.00  0.00    -0.179 OA
ATOM     14  N   UNL     1      51.836 -12.111  32.738  1.00  0.00    -0.166 N 
ATOM     15  H   UNL     1      49.803 -14.158  34.352  1.00  0.00     0.312 HD
ATOM     16  H   UNL     1      52.174 -12.089  31.763  1.00  0.00     0.327 HD
ENDROOT
TORSDOF 0
ENDMDL
MODEL 5
REMARK VINA RESULT:      -5.3      3.334      4.253
REMARK SMILES CC1=[NH+]c2ccc(Cl)cc2S(=O)(=O)N1
REMARK SMILES IDX 1 1 2 2 3 3 4 4 5 5 6 6 7 7 8 8 9 9 10 10 11 11 12 12 13 13
REMARK SMILES IDX 14 14
REMARK H PARENT 3 15 14 16
ROOT
ATOM      1  C   UNL     1      51.188 -14.110  31.334  1.00  0.00     0.146 C 
ATOM      2  C   UNL     1      50.883 -13.596  32.721  1.00  0.00     0.259 C 
ATOM      3  N   UNL     1      49.819 -13.998  33.271  1.00  0.00    -0.243 N 
ATOM      4  C   UNL     1      49.374 -13.622  34.562  1.00  0.00     0.147 A 
ATOM      5  C   UNL     1      48.172 -14.151  35.041  1.00  0.00     0.055 A 
ATOM      6  C   UNL     1      47.679 -13.829  36.285  1.00  0.00     0.025 A 
ATOM      7  C   UNL     1      48.355 -12.970  37.112  1.00  0.00     0.042 A 
ATOM      8  Cl  UNL     1      47.735 -12.566  38.675  1.00  0.00    -0.084 Cl
ATOM      9  C   UNL     1      49.538 -12.450  36.640  1.00  0.00     0.049 A 
ATOM     10  C   UNL     1      50.033 -12.761  35.411  1.00  0.00     0.156 A 
ATOM     11  S   UNL     1      51.549 -12.073  34.852  1.00  0.00     0.332 S 
ATOM     12  O   UNL     1      52.674 -12.362  35.795  1.00  0.00    -0.179 OA
ATOM     13  O   UNL     1      51.344 -10.576  34.693  1.00  0.00    -0.179 OA
ATOM     14  N   UNL     1      51.819 -12.706  33.279  1.00  0.00    -0.166 N 
ATOM     15  H   UNL     1      49.212 -14.664  32.735  1.00  0.00     0.312 HD
ATOM     16  H   UNL     1      52.645 -12.467  32.707  1.00  0.00     0.327 HD
ENDROOT
TORSDOF 0
ENDMDL
MODEL 6
REMARK VINA RESULT:      -5.2      4.011      4.611
REMARK SMILES CC1=[NH+]c2ccc(Cl)cc2S(=O)(=O)N1
REMARK SMILES IDX 1 1 2 2 3 3 4 4 5 5 6 6 7 7 8 8 9 9 10 10 11 11 12 12 13 13
REMARK SMILES IDX 14 14
REMARK H PARENT 3 15 14 16
ROOT
ATOM      1  C   UNL     1      51.533 -13.692  31.353  1.00  0.00     0.146 C 
ATOM      2  C   UNL     1      50.434 -13.840  32.378  1.00  0.00     0.259 C 
ATOM      3  N   UNL     1      50.627 -13.328  33.517  1.00  0.00    -0.243 N 
ATOM      4  C   UNL     1      49.711 -13.369  34.596  1.00  0.00     0.147 A 
ATOM      5  C   UNL     1      50.063 -12.756  35.802  1.00  0.00     0.055 A 
ATOM      6  C   UNL     1      49.223 -12.757  36.892  1.00  0.00     0.025 A 
ATOM      7  C   UNL     1      47.996 -13.364  36.837  1.00  0.00     0.042 A 
ATOM      8  Cl  UNL     1      46.940 -13.365  38.208  1.00  0.00    -0.084 Cl
ATOM      9  C   UNL     1      47.649 -13.968  35.651  1.00  0.00     0.049 A 
ATOM     10  C   UNL     1      48.474 -13.973  34.567  1.00  0.00     0.156 A 
ATOM     11  S   UNL     1      47.988 -14.756  33.071  1.00  0.00     0.332 S 
ATOM     12  O   UNL     1      46.692 -14.215  32.555  1.00  0.00    -0.179 OA
ATOM     13  O   UNL     1      47.886 -16.246  33.345  1.00  0.00    -0.179 OA
ATOM     14  N   UNL     1      49.285 -14.541  31.968  1.00  0.00    -0.166 N 
ATOM     15  H   UNL     1      51.536 -12.832  33.683  1.00  0.00     0.312 HD
ATOM     16  H   UNL     1      49.272 -14.904  31.001  1.00  0.00     0.327 HD
ENDROOT
TORSDOF 0
ENDMDL
MODEL 7
REMARK VINA RESULT:      -5.2      3.124      4.899
REMARK SMILES CC1=[NH+]c2ccc(Cl)cc2S(=O)(=O)N1
REMARK SMILES IDX 1 1 2 2 3 3 4 4 5 5 6 6 7 7 8 8 9 9 10 10 11 11 12 12 13 13
REMARK SMILES IDX 14 14
REMARK H PARENT 3 15 14 16
ROOT
ATOM      1  C   UNL     1      53.462 -10.360  34.122  1.00  0.00     0.146 C 
ATOM      2  C   UNL     1      52.267 -11.282  34.180  1.00  0.00     0.259 C 
ATOM      3  N   UNL     1      52.072 -12.046  33.194  1.00  0.00    -0.243 N 
ATOM      4  C   UNL     1      51.008 -12.972  33.076  1.00  0.00     0.147 A 
ATOM      5  C   UNL     1      50.920 -13.755  31.922  1.00  0.00     0.055 A 
ATOM      6  C   UNL     1      49.912 -14.675  31.740  1.00  0.00     0.025 A 
ATOM      7  C   UNL     1      48.946 -14.861  32.694  1.00  0.00     0.042 A 
ATOM      8  Cl  UNL     1      47.679 -16.017  32.465  1.00  0.00    -0.084 Cl
ATOM      9  C   UNL     1      49.031 -14.090  33.830  1.00  0.00     0.049 A 
ATOM     10  C   UNL     1      50.024 -13.178  34.019  1.00  0.00     0.156 A 
ATOM     11  S   UNL     1      50.094 -12.216  35.487  1.00  0.00     0.332 S 
ATOM     12  O   UNL     1      50.133 -13.073  36.713  1.00  0.00    -0.179 OA
ATOM     13  O   UNL     1      48.879 -11.305  35.498  1.00  0.00    -0.179 OA
ATOM     14  N   UNL     1      51.472 -11.204  35.338  1.00  0.00    -0.166 N 
ATOM     15  H   UNL     1      52.750 -11.997  32.395  1.00  0.00     0.312 HD
ATOM     16  H   UNL     1      51.758 -10.526  36.064  1.00  0.00     0.327 HD
ENDROOT
TORSDOF 0
ENDMDL
MODEL 8
REMARK VINA RESULT:      -5.2      3.626      5.059
REMARK SMILES CC1=[NH+]c2ccc(Cl)cc2S(=O)(=O)N1
REMARK SMILES IDX 1 1 2 2 3 3 4 4 5 5 6 6 7 7 8 8 9 9 10 10 11 11 12 12 13 13
REMARK SMILES IDX 14 14
REMARK H PARENT 3 15 14 16
ROOT
ATOM      1  C   UNL     1      54.847  -6.666  37.171  1.00  0.00     0.146 C 
ATOM      2  C   UNL     1      54.045  -7.935  37.004  1.00  0.00     0.259 C 
ATOM      3  N   UNL     1      53.737  -8.279  35.829  1.00  0.00    -0.243 N 
ATOM      4  C   UNL     1      52.992  -9.434  35.485  1.00  0.00     0.147 A 
ATOM      5  C   UNL     1      52.728  -9.688  34.136  1.00  0.00     0.055 A 
ATOM      6  C   UNL     1      52.010 -10.790  33.730  1.00  0.00     0.025 A 
ATOM      7  C   UNL     1      51.521 -11.690  34.641  1.00  0.00     0.042 A 
ATOM      8  Cl  UNL     1      50.618 -13.074  34.129  1.00  0.00    -0.084 Cl
ATOM      9  C   UNL     1      51.780 -11.439  35.968  1.00  0.00     0.049 A 
ATOM     10  C   UNL     1      52.489 -10.352  36.380  1.00  0.00     0.156 A 
ATOM     11  S   UNL     1      52.797 -10.073  38.087  1.00  0.00     0.332 S 
ATOM     12  O   UNL     1      53.488 -11.237  38.725  1.00  0.00    -0.179 OA
ATOM     13  O   UNL     1      51.462  -9.800  38.756  1.00  0.00    -0.179 OA
ATOM     14  N   UNL     1      53.709  -8.622  38.185  1.00  0.00    -0.166 N 
ATOM     15  H   UNL     1      54.056  -7.668  35.039  1.00  0.00     0.312 HD
ATOM     16  H   UNL     1      54.032  -8.215  39.078  1.00  0.00     0.327 HD
ENDROOT
TORSDOF 0
ENDMDL
MODEL 9
REMARK VINA RESULT:      -5.1      2.447      3.188
REMARK SMILES CC1=[NH+]c2ccc(Cl)cc2S(=O)(=O)N1
REMARK SMILES IDX 1 1 2 2 3 3 4 4 5 5 6 6 7 7 8 8 9 9 10 10 11 11 12 12 13 13
REMARK SMILES IDX 14 14
REMARK H PARENT 3 15 14 16
ROOT
ATOM      1  C   UNL     1      49.434 -13.684  35.044  1.00  0.00     0.146 C 
ATOM      2  C   UNL     1      50.394 -12.533  35.229  1.00  0.00     0.259 C 
ATOM      3  N   UNL     1      50.542 -12.079  36.398  1.00  0.00    -0.243 N 
ATOM      4  C   UNL     1      51.396 -11.008  36.756  1.00  0.00     0.147 A 
ATOM      5  C   UNL     1      51.457 -10.614  38.096  1.00  0.00     0.055 A 
ATOM      6  C   UNL     1      52.264  -9.581  38.515  1.00  0.00     0.025 A 
ATOM      7  C   UNL     1      53.048  -8.892  37.627  1.00  0.00     0.042 A 
ATOM      8  Cl  UNL     1      54.062  -7.594  38.155  1.00  0.00    -0.084 Cl
ATOM      9  C   UNL     1      52.988  -9.279  36.309  1.00  0.00     0.049 A 
ATOM     10  C   UNL     1      52.193 -10.300  35.884  1.00  0.00     0.156 A 
ATOM     11  S   UNL     1      52.150 -10.761  34.189  1.00  0.00     0.332 S 
ATOM     12  O   UNL     1      53.510 -11.104  33.671  1.00  0.00    -0.179 OA
ATOM     13  O   UNL     1      51.548  -9.603  33.413  1.00  0.00    -0.179 OA
ATOM     14  N   UNL     1      51.042 -12.067  34.070  1.00  0.00    -0.166 N 
ATOM     15  H   UNL     1      49.992 -12.527  37.170  1.00  0.00     0.312 HD
ATOM     16  H   UNL     1      50.818 -12.540  33.179  1.00  0.00     0.327 HD
ENDROOT
TORSDOF 0
ENDMDL
