MODEL 1
REMARK VINA RESULT:      -7.1      0.000      0.000
REMARK SMILES COc1cccc2c1C(=O)c1c(O)c3c(c(O)c1C2=O)C[C@@](O)(C(=O)CO)C[C@@H]3O[C@H]1C[C@H](N)[C@H](O)[C@H](C)O1
REMARK SMILES IDX 3 1 4 2 5 3 6 4 7 5 8 6 9 7 10 8 11 9 12 10 14 11 15 12
REMARK SMILES IDX 16 13 18 14 19 15 20 16 21 17 22 18 28 19 29 20 2 21 1 22
REMARK SMILES IDX 13 23 17 25 30 27 31 28 32 29 39 30 33 31 37 32 35 33 38 34
REMARK SMILES IDX 34 35 36 38 23 40 24 42 25 43 26 44 27 45
REMARK H PARENT 13 24 17 26 34 36 34 37 36 39 23 41 27 46
ROOT
ATOM      1  C   UNL     1     123.745 107.158 109.627  1.00  0.00     0.130 A 
ATOM      2  C   UNL     1     122.777 107.906 109.032  1.00  0.00     0.047 A 
ATOM      3  C   UNL     1     122.663 108.053 107.661  1.00  0.00     0.005 A 
ATOM      4  C   UNL     1     123.581 107.407 106.867  1.00  0.00     0.013 A 
ATOM      5  C   UNL     1     124.583 106.632 107.464  1.00  0.00     0.038 A 
ATOM      6  C   UNL     1     124.667 106.507 108.829  1.00  0.00     0.076 A 
ATOM      7  C   UNL     1     125.733 105.686 109.426  1.00  0.00     0.202 C 
ATOM      8  O   UNL     1     125.782 105.592 110.667  1.00  0.00    -0.288 OA
ATOM      9  C   UNL     1     126.706 104.999 108.588  1.00  0.00     0.080 A 
ATOM     10  C   UNL     1     127.724 104.216 109.133  1.00  0.00     0.133 A 
ATOM     11  C   UNL     1     128.637 103.571 108.358  1.00  0.00     0.031 A 
ATOM     12  C   UNL     1     128.566 103.688 106.956  1.00  0.00     0.008 A 
ATOM     13  C   UNL     1     127.558 104.463 106.436  1.00  0.00     0.131 A 
ATOM     14  C   UNL     1     126.625 105.122 107.212  1.00  0.00     0.080 A 
ATOM     15  C   UNL     1     125.563 105.940 106.634  1.00  0.00     0.198 C 
ATOM     16  O   UNL     1     125.459 106.075 105.389  1.00  0.00    -0.288 OA
ATOM     17  C   UNL     1     129.556 102.987 106.115  1.00  0.00     0.083 C 
ATOM     18  C   UNL     1     129.956 101.630 106.624  1.00  0.00     0.132 C 
ATOM     19  C   UNL     1     129.599 101.431 108.065  1.00  0.00     0.081 C 
ATOM     20  C   UNL     1     129.753 102.716 108.819  1.00  0.00     0.159 C 
ENDROOT
BRANCH   1  21
ATOM     21  O   UNL     1     123.884 106.991 110.998  1.00  0.00    -0.496 OA
ATOM     22  C   UNL     1     123.524 107.941 111.956  1.00  0.00     0.278 C 
ENDBRANCH   1  21
BRANCH  10  23
ATOM     23  O   UNL     1     127.798 104.096 110.506  1.00  0.00    -0.507 OA
ATOM     24  H   UNL     1     127.825 103.195 110.959  1.00  0.00     0.293 HD
ENDBRANCH  10  23
BRANCH  13  25
ATOM     25  O   UNL     1     127.447 104.608 105.061  1.00  0.00    -0.507 OA
ATOM     26  H   UNL     1     128.228 104.509 104.428  1.00  0.00     0.293 HD
ENDBRANCH  13  25
BRANCH  20  27
ATOM     27  O   UNL     1     129.736 102.596 110.173  1.00  0.00    -0.344 OA
BRANCH  27  28
ATOM     28  C   UNL     1     130.183 101.389 110.665  1.00  0.00     0.252 C 
ATOM     29  C   UNL     1     131.573 101.365 111.189  1.00  0.00     0.083 C 
ATOM     30  O   UNL     1     129.311 101.017 111.689  1.00  0.00    -0.347 OA
ATOM     31  C   UNL     1     131.669 100.188 112.155  1.00  0.00     0.087 C 
ATOM     32  C   UNL     1     129.734 101.446 112.939  1.00  0.00     0.148 C 
ATOM     33  C   UNL     1     130.937 100.623 113.415  1.00  0.00     0.160 C 
ATOM     34  C   UNL     1     128.598 101.207 113.913  1.00  0.00     0.041 C 
BRANCH  31  35
ATOM     35  N   UNL     1     130.870  99.120 111.559  1.00  0.00    -0.325 NA
ATOM     36  H   UNL     1     130.876  99.150 110.534  1.00  0.00     0.119 HD
ATOM     37  H   UNL     1     131.069  98.194 111.980  1.00  0.00     0.119 HD
ENDBRANCH  31  35
BRANCH  33  38
ATOM     38  O   UNL     1     130.515  99.502 114.116  1.00  0.00    -0.389 OA
ATOM     39  H   UNL     1     130.679  98.719 113.540  1.00  0.00     0.211 HD
ENDBRANCH  33  38
ENDBRANCH  27  28
ENDBRANCH  20  27
BRANCH  18  40
ATOM     40  O   UNL     1     129.150 100.693 105.910  1.00  0.00    -0.382 OA
ATOM     41  H   UNL     1     129.256  99.792 106.298  1.00  0.00     0.212 HD
ENDBRANCH  18  40
BRANCH  18  42
ATOM     42  C   UNL     1     131.363 101.294 106.294  1.00  0.00     0.190 C 
ATOM     43  O   UNL     1     132.214 102.167 106.339  1.00  0.00    -0.294 OA
BRANCH  42  44
ATOM     44  C   UNL     1     131.830  99.946 105.903  1.00  0.00     0.234 C 
BRANCH  44  45
ATOM     45  O   UNL     1     131.466  99.634 104.585  1.00  0.00    -0.388 OA
ATOM     46  H   UNL     1     131.910 100.224 103.938  1.00  0.00     0.211 HD
ENDBRANCH  44  45
ENDBRANCH  42  44
ENDBRANCH  18  42
TORSDOF 11
ENDMDL
MODEL 2
REMARK VINA RESULT:      -6.8      2.750      7.740
REMARK SMILES COc1cccc2c1C(=O)c1c(O)c3c(c(O)c1C2=O)C[C@@](O)(C(=O)CO)C[C@@H]3O[C@H]1C[C@H](N)[C@H](O)[C@H](C)O1
REMARK SMILES IDX 3 1 4 2 5 3 6 4 7 5 8 6 9 7 10 8 11 9 12 10 14 11 15 12
REMARK SMILES IDX 16 13 18 14 19 15 20 16 21 17 22 18 28 19 29 20 2 21 1 22
REMARK SMILES IDX 13 23 17 25 30 27 31 28 32 29 39 30 33 31 37 32 35 33 38 34
REMARK SMILES IDX 34 35 36 38 23 40 24 42 25 43 26 44 27 45
REMARK H PARENT 13 24 17 26 34 36 34 37 36 39 23 41 27 46
ROOT
ATOM      1  C   UNL     1     129.619  99.087 114.234  1.00  0.00     0.130 A 
ATOM      2  C   UNL     1     130.001  97.859 114.680  1.00  0.00     0.047 A 
ATOM      3  C   UNL     1     130.586  96.903 113.870  1.00  0.00     0.005 A 
ATOM      4  C   UNL     1     130.789  97.218 112.547  1.00  0.00     0.013 A 
ATOM      5  C   UNL     1     130.401  98.476 112.072  1.00  0.00     0.038 A 
ATOM      6  C   UNL     1     129.822  99.404 112.904  1.00  0.00     0.076 A 
ATOM      7  C   UNL     1     129.426 100.719 112.374  1.00  0.00     0.202 C 
ATOM      8  O   UNL     1     128.903 101.537 113.153  1.00  0.00    -0.288 OA
ATOM      9  C   UNL     1     129.639 101.055 110.972  1.00  0.00     0.080 A 
ATOM     10  C   UNL     1     129.271 102.295 110.450  1.00  0.00     0.133 A 
ATOM     11  C   UNL     1     129.466 102.619 109.143  1.00  0.00     0.031 A 
ATOM     12  C   UNL     1     130.058 101.680 108.276  1.00  0.00     0.008 A 
ATOM     13  C   UNL     1     130.415 100.465 108.806  1.00  0.00     0.131 A 
ATOM     14  C   UNL     1     130.222 100.125 110.130  1.00  0.00     0.080 A 
ATOM     15  C   UNL     1     130.610  98.825 110.670  1.00  0.00     0.198 C 
ATOM     16  O   UNL     1     131.142  97.955 109.935  1.00  0.00    -0.288 OA
ATOM     17  C   UNL     1     130.272 102.032 106.857  1.00  0.00     0.083 C 
ATOM     18  C   UNL     1     130.673 103.461 106.624  1.00  0.00     0.132 C 
ATOM     19  C   UNL     1     130.381 104.338 107.803  1.00  0.00     0.081 C 
ATOM     20  C   UNL     1     129.120 103.894 108.479  1.00  0.00     0.159 C 
ENDROOT
BRANCH   1  21
ATOM     21  O   UNL     1     129.030 100.066 115.022  1.00  0.00    -0.496 OA
ATOM     22  C   UNL     1     129.206 100.191 116.401  1.00  0.00     0.278 C 
ENDBRANCH   1  21
BRANCH  10  23
ATOM     23  O   UNL     1     128.691 103.219 111.295  1.00  0.00    -0.507 OA
ATOM     24  H   UNL     1     128.166 102.938 112.110  1.00  0.00     0.293 HD
ENDBRANCH  10  23
BRANCH  13  25
ATOM     25  O   UNL     1     131.002  99.507 107.991  1.00  0.00    -0.507 OA
ATOM     26  H   UNL     1     131.132  98.545 108.272  1.00  0.00     0.293 HD
ENDBRANCH  13  25
BRANCH  20  27
ATOM     27  O   UNL     1     128.605 104.777 109.376  1.00  0.00    -0.344 OA
BRANCH  27  28
ATOM     28  C   UNL     1     127.480 105.454 108.959  1.00  0.00     0.252 C 
ATOM     29  C   UNL     1     127.605 106.220 107.691  1.00  0.00     0.083 C 
ATOM     30  O   UNL     1     126.465 104.509 108.812  1.00  0.00    -0.347 OA
ATOM     31  C   UNL     1     126.197 106.398 107.132  1.00  0.00     0.087 C 
ATOM     32  C   UNL     1     126.384 104.000 107.524  1.00  0.00     0.148 C 
ATOM     33  C   UNL     1     125.799 105.044 106.565  1.00  0.00     0.160 C 
ATOM     34  C   UNL     1     125.431 102.822 107.556  1.00  0.00     0.041 C 
BRANCH  31  35
ATOM     35  N   UNL     1     125.337 106.631 108.292  1.00  0.00    -0.325 NA
ATOM     36  H   UNL     1     125.830 107.103 109.057  1.00  0.00     0.119 HD
ATOM     37  H   UNL     1     124.421 107.039 108.030  1.00  0.00     0.119 HD
ENDBRANCH  31  35
BRANCH  33  38
ATOM     38  O   UNL     1     124.416 104.948 106.523  1.00  0.00    -0.389 OA
ATOM     39  H   UNL     1     124.169 104.682 105.606  1.00  0.00     0.211 HD
ENDBRANCH  33  38
ENDBRANCH  27  28
ENDBRANCH  20  27
BRANCH  18  40
ATOM     40  O   UNL     1     132.096 103.454 106.512  1.00  0.00    -0.382 OA
ATOM     41  H   UNL     1     132.360 103.381 105.565  1.00  0.00     0.212 HD
ENDBRANCH  18  40
BRANCH  18  42
ATOM     42  C   UNL     1     130.164 103.988 105.334  1.00  0.00     0.190 C 
ATOM     43  O   UNL     1     128.997 104.332 105.246  1.00  0.00    -0.294 OA
BRANCH  42  44
ATOM     44  C   UNL     1     130.982 104.133 104.110  1.00  0.00     0.234 C 
BRANCH  44  45
ATOM     45  O   UNL     1     131.877 105.209 104.210  1.00  0.00    -0.388 OA
ATOM     46  H   UNL     1     132.330 105.222 105.081  1.00  0.00     0.211 HD
ENDBRANCH  44  45
ENDBRANCH  42  44
ENDBRANCH  18  42
TORSDOF 11
ENDMDL
MODEL 3
REMARK VINA RESULT:      -6.7      2.395      7.782
REMARK SMILES COc1cccc2c1C(=O)c1c(O)c3c(c(O)c1C2=O)C[C@@](O)(C(=O)CO)C[C@@H]3O[C@H]1C[C@H](N)[C@H](O)[C@H](C)O1
REMARK SMILES IDX 3 1 4 2 5 3 6 4 7 5 8 6 9 7 10 8 11 9 12 10 14 11 15 12
REMARK SMILES IDX 16 13 18 14 19 15 20 16 21 17 22 18 28 19 29 20 2 21 1 22
REMARK SMILES IDX 13 23 17 25 30 27 31 28 32 29 39 30 33 31 37 32 35 33 38 34
REMARK SMILES IDX 34 35 36 38 23 40 24 42 25 43 26 44 27 45
REMARK H PARENT 13 24 17 26 34 36 34 37 36 39 23 41 27 46
ROOT
ATOM      1  C   UNL     1     129.659  99.140 114.096  1.00  0.00     0.130 A 
ATOM      2  C   UNL     1     130.142  97.954 114.556  1.00  0.00     0.047 A 
ATOM      3  C   UNL     1     130.853  97.065 113.769  1.00  0.00     0.005 A 
ATOM      4  C   UNL     1     131.077  97.406 112.456  1.00  0.00     0.013 A 
ATOM      5  C   UNL     1     130.586  98.623 111.968  1.00  0.00     0.038 A 
ATOM      6  C   UNL     1     129.884  99.483 112.777  1.00  0.00     0.076 A 
ATOM      7  C   UNL     1     129.380 100.755 112.233  1.00  0.00     0.202 C 
ATOM      8  O   UNL     1     128.747 101.513 112.991  1.00  0.00    -0.288 OA
ATOM      9  C   UNL     1     129.616 101.119 110.842  1.00  0.00     0.080 A 
ATOM     10  C   UNL     1     129.147 102.319 110.307  1.00  0.00     0.133 A 
ATOM     11  C   UNL     1     129.362 102.668 109.010  1.00  0.00     0.031 A 
ATOM     12  C   UNL     1     130.081 101.798 108.166  1.00  0.00     0.008 A 
ATOM     13  C   UNL     1     130.534 100.621 108.709  1.00  0.00     0.131 A 
ATOM     14  C   UNL     1     130.323 100.256 110.023  1.00  0.00     0.080 A 
ATOM     15  C   UNL     1     130.816  98.998 110.576  1.00  0.00     0.198 C 
ATOM     16  O   UNL     1     131.461  98.190 109.863  1.00  0.00    -0.288 OA
ATOM     17  C   UNL     1     130.316 102.177 106.758  1.00  0.00     0.083 C 
ATOM     18  C   UNL     1     130.582 103.641 106.544  1.00  0.00     0.132 C 
ATOM     19  C   UNL     1     130.156 104.478 107.711  1.00  0.00     0.081 C 
ATOM     20  C   UNL     1     128.919 103.907 108.334  1.00  0.00     0.159 C 
ENDROOT
BRANCH   1  21
ATOM     21  O   UNL     1     128.943 100.051 114.861  1.00  0.00    -0.496 OA
ATOM     22  C   UNL     1     129.111 100.243 116.234  1.00  0.00     0.278 C 
ENDBRANCH   1  21
BRANCH  10  23
ATOM     23  O   UNL     1     128.444 103.176 111.129  1.00  0.00    -0.507 OA
ATOM     24  H   UNL     1     127.732 103.793 110.768  1.00  0.00     0.293 HD
ENDBRANCH  10  23
BRANCH  13  25
ATOM     25  O   UNL     1     131.247  99.732 107.917  1.00  0.00    -0.507 OA
ATOM     26  H   UNL     1     131.734  98.928 108.288  1.00  0.00     0.293 HD
ENDBRANCH  13  25
BRANCH  20  27
ATOM     27  O   UNL     1     128.283 104.728 109.211  1.00  0.00    -0.344 OA
BRANCH  27  28
ATOM     28  C   UNL     1     126.909 104.623 109.227  1.00  0.00     0.252 C 
ATOM     29  C   UNL     1     126.177 105.676 109.979  1.00  0.00     0.083 C 
ATOM     30  O   UNL     1     126.482 104.643 107.899  1.00  0.00    -0.347 OA
ATOM     31  C   UNL     1     124.756 105.719 109.424  1.00  0.00     0.087 C 
ATOM     32  C   UNL     1     126.171 105.919 107.451  1.00  0.00     0.148 C 
ATOM     33  C   UNL     1     124.857 106.406 108.072  1.00  0.00     0.160 C 
ATOM     34  C   UNL     1     125.970 105.841 105.951  1.00  0.00     0.041 C 
BRANCH  31  35
ATOM     35  N   UNL     1     124.393 104.328 109.157  1.00  0.00    -0.325 NA
ATOM     36  H   UNL     1     125.196 103.693 109.222  1.00  0.00     0.119 HD
ATOM     37  H   UNL     1     123.546 104.033 109.677  1.00  0.00     0.119 HD
ENDBRANCH  31  35
BRANCH  33  38
ATOM     38  O   UNL     1     123.777 106.036 107.283  1.00  0.00    -0.389 OA
ATOM     39  H   UNL     1     124.138 105.728 106.419  1.00  0.00     0.211 HD
ENDBRANCH  33  38
ENDBRANCH  27  28
ENDBRANCH  20  27
BRANCH  18  40
ATOM     40  O   UNL     1     132.002 103.776 106.490  1.00  0.00    -0.382 OA
ATOM     41  H   UNL     1     132.431 102.906 106.669  1.00  0.00     0.212 HD
ENDBRANCH  18  40
BRANCH  18  42
ATOM     42  C   UNL     1     130.076 104.122 105.235  1.00  0.00     0.190 C 
ATOM     43  O   UNL     1     128.904 104.446 105.127  1.00  0.00    -0.294 OA
BRANCH  42  44
ATOM     44  C   UNL     1     130.902 104.244 104.013  1.00  0.00     0.234 C 
BRANCH  44  45
ATOM     45  O   UNL     1     131.907 105.210 104.162  1.00  0.00    -0.388 OA
ATOM     46  H   UNL     1     132.368 105.122 105.025  1.00  0.00     0.211 HD
ENDBRANCH  44  45
ENDBRANCH  42  44
ENDBRANCH  18  42
TORSDOF 11
ENDMDL
MODEL 4
REMARK VINA RESULT:      -6.6      4.711      8.013
REMARK SMILES COc1cccc2c1C(=O)c1c(O)c3c(c(O)c1C2=O)C[C@@](O)(C(=O)CO)C[C@@H]3O[C@H]1C[C@H](N)[C@H](O)[C@H](C)O1
REMARK SMILES IDX 3 1 4 2 5 3 6 4 7 5 8 6 9 7 10 8 11 9 12 10 14 11 15 12
REMARK SMILES IDX 16 13 18 14 19 15 20 16 21 17 22 18 28 19 29 20 2 21 1 22
REMARK SMILES IDX 13 23 17 25 30 27 31 28 32 29 39 30 33 31 37 32 35 33 38 34
REMARK SMILES IDX 34 35 36 38 23 40 24 42 25 43 26 44 27 45
REMARK H PARENT 13 24 17 26 34 36 34 37 36 39 23 41 27 46
ROOT
ATOM      1  C   UNL     1     131.140 101.089 104.939  1.00  0.00     0.130 A 
ATOM      2  C   UNL     1     131.155 102.160 104.100  1.00  0.00     0.047 A 
ATOM      3  C   UNL     1     131.002 103.466 104.530  1.00  0.00     0.005 A 
ATOM      4  C   UNL     1     130.824 103.684 105.876  1.00  0.00     0.013 A 
ATOM      5  C   UNL     1     130.806 102.592 106.752  1.00  0.00     0.038 A 
ATOM      6  C   UNL     1     130.962 101.307 106.292  1.00  0.00     0.076 A 
ATOM      7  C   UNL     1     130.937 100.181 107.240  1.00  0.00     0.202 C 
ATOM      8  O   UNL     1     131.081  99.029 106.792  1.00  0.00    -0.288 OA
ATOM      9  C   UNL     1     130.749 100.408 108.667  1.00  0.00     0.080 A 
ATOM     10  C   UNL     1     130.723  99.355 109.582  1.00  0.00     0.133 A 
ATOM     11  C   UNL     1     130.548  99.557 110.915  1.00  0.00     0.031 A 
ATOM     12  C   UNL     1     130.387 100.868 111.404  1.00  0.00     0.008 A 
ATOM     13  C   UNL     1     130.415 101.893 110.491  1.00  0.00     0.131 A 
ATOM     14  C   UNL     1     130.592 101.701 109.135  1.00  0.00     0.080 A 
ATOM     15  C   UNL     1     130.618 102.808 108.184  1.00  0.00     0.198 C 
ATOM     16  O   UNL     1     130.479 103.994 108.572  1.00  0.00    -0.288 OA
ATOM     17  C   UNL     1     130.199 101.088 112.853  1.00  0.00     0.083 C 
ATOM     18  C   UNL     1     131.004 100.172 113.731  1.00  0.00     0.132 C 
ATOM     19  C   UNL     1     131.510  98.969 112.994  1.00  0.00     0.081 C 
ATOM     20  C   UNL     1     130.505  98.526 111.975  1.00  0.00     0.159 C 
ENDROOT
BRANCH   1  21
ATOM     21  O   UNL     1     131.291  99.769 104.539  1.00  0.00    -0.496 OA
ATOM     22  C   UNL     1     130.917  99.268 103.290  1.00  0.00     0.278 C 
ENDBRANCH   1  21
BRANCH  10  23
ATOM     23  O   UNL     1     130.882  98.068 109.108  1.00  0.00    -0.507 OA
ATOM     24  H   UNL     1     131.769  97.737 108.759  1.00  0.00     0.293 HD
ENDBRANCH  10  23
BRANCH  13  25
ATOM     25  O   UNL     1     130.261 103.202 110.924  1.00  0.00    -0.507 OA
ATOM     26  H   UNL     1     130.997 103.726 111.376  1.00  0.00     0.293 HD
ENDBRANCH  13  25
BRANCH  20  27
ATOM     27  O   UNL     1     130.722  97.291 111.450  1.00  0.00    -0.344 OA
BRANCH  27  28
ATOM     28  C   UNL     1     130.756  96.259 112.364  1.00  0.00     0.252 C 
ATOM     29  C   UNL     1     129.464  95.906 113.007  1.00  0.00     0.083 C 
ATOM     30  O   UNL     1     131.244  95.137 111.694  1.00  0.00    -0.347 OA
ATOM     31  C   UNL     1     129.585  94.468 113.500  1.00  0.00     0.087 C 
ATOM     32  C   UNL     1     130.236  94.350 111.155  1.00  0.00     0.148 C 
ATOM     33  C   UNL     1     129.490  93.593 112.260  1.00  0.00     0.160 C 
ATOM     34  C   UNL     1     130.890  93.322 110.254  1.00  0.00     0.041 C 
BRANCH  31  35
ATOM     35  N   UNL     1     130.952  94.334 113.999  1.00  0.00    -0.325 NA
ATOM     36  H   UNL     1     130.988  93.952 114.950  1.00  0.00     0.119 HD
ATOM     37  H   UNL     1     131.582  93.883 113.312  1.00  0.00     0.119 HD
ENDBRANCH  31  35
BRANCH  33  38
ATOM     38  O   UNL     1     130.097  92.370 112.509  1.00  0.00    -0.389 OA
ATOM     39  H   UNL     1     131.057  92.474 112.310  1.00  0.00     0.211 HD
ENDBRANCH  33  38
ENDBRANCH  27  28
ENDBRANCH  20  27
BRANCH  18  40
ATOM     40  O   UNL     1     132.175 100.905 114.089  1.00  0.00    -0.382 OA
ATOM     41  H   UNL     1     132.041 101.865 113.910  1.00  0.00     0.212 HD
ENDBRANCH  18  40
BRANCH  18  42
ATOM     42  C   UNL     1     130.313  99.857 115.005  1.00  0.00     0.190 C 
ATOM     43  O   UNL     1     129.149 100.193 115.155  1.00  0.00    -0.294 OA
BRANCH  42  44
ATOM     44  C   UNL     1     130.940  99.149 116.143  1.00  0.00     0.234 C 
BRANCH  44  45
ATOM     45  O   UNL     1     132.157  99.740 116.514  1.00  0.00    -0.388 OA
ATOM     46  H   UNL     1     132.017 100.598 116.972  1.00  0.00     0.211 HD
ENDBRANCH  44  45
ENDBRANCH  42  44
ENDBRANCH  18  42
TORSDOF 11
ENDMDL
MODEL 5
REMARK VINA RESULT:      -6.4      4.302      7.820
REMARK SMILES COc1cccc2c1C(=O)c1c(O)c3c(c(O)c1C2=O)C[C@@](O)(C(=O)CO)C[C@@H]3O[C@H]1C[C@H](N)[C@H](O)[C@H](C)O1
REMARK SMILES IDX 3 1 4 2 5 3 6 4 7 5 8 6 9 7 10 8 11 9 12 10 14 11 15 12
REMARK SMILES IDX 16 13 18 14 19 15 20 16 21 17 22 18 28 19 29 20 2 21 1 22
REMARK SMILES IDX 13 23 17 25 30 27 31 28 32 29 39 30 33 31 37 32 35 33 38 34
REMARK SMILES IDX 34 35 36 38 23 40 24 42 25 43 26 44 27 45
REMARK H PARENT 13 24 17 26 34 36 34 37 36 39 23 41 27 46
ROOT
ATOM      1  C   UNL     1     131.104 101.508 105.241  1.00  0.00     0.130 A 
ATOM      2  C   UNL     1     131.005 102.605 104.442  1.00  0.00     0.047 A 
ATOM      3  C   UNL     1     130.583 103.842 104.898  1.00  0.00     0.005 A 
ATOM      4  C   UNL     1     130.249 103.958 106.227  1.00  0.00     0.013 A 
ATOM      5  C   UNL     1     130.346 102.838 107.061  1.00  0.00     0.038 A 
ATOM      6  C   UNL     1     130.769 101.624 106.576  1.00  0.00     0.076 A 
ATOM      7  C   UNL     1     130.859 100.465 107.479  1.00  0.00     0.202 C 
ATOM      8  O   UNL     1     131.245  99.378 107.010  1.00  0.00    -0.288 OA
ATOM      9  C   UNL     1     130.506 100.584 108.888  1.00  0.00     0.080 A 
ATOM     10  C   UNL     1     130.585  99.499 109.760  1.00  0.00     0.133 A 
ATOM     11  C   UNL     1     130.258  99.601 111.077  1.00  0.00     0.031 A 
ATOM     12  C   UNL     1     129.822 100.838 111.591  1.00  0.00     0.008 A 
ATOM     13  C   UNL     1     129.751 101.896 110.718  1.00  0.00     0.131 A 
ATOM     14  C   UNL     1     130.080 101.805 109.381  1.00  0.00     0.080 A 
ATOM     15  C   UNL     1     129.995 102.946 108.474  1.00  0.00     0.198 C 
ATOM     16  O   UNL     1     129.612 104.069 108.886  1.00  0.00    -0.288 OA
ATOM     17  C   UNL     1     129.469 100.950 113.020  1.00  0.00     0.083 C 
ATOM     18  C   UNL     1     130.341 100.145 113.942  1.00  0.00     0.132 C 
ATOM     19  C   UNL     1     131.117  99.086 113.219  1.00  0.00     0.081 C 
ATOM     20  C   UNL     1     130.302  98.527 112.093  1.00  0.00     0.159 C 
ENDROOT
BRANCH   1  21
ATOM     21  O   UNL     1     131.523 100.255 104.813  1.00  0.00    -0.496 OA
ATOM     22  C   UNL     1     131.370  99.765 103.515  1.00  0.00     0.278 C 
ENDBRANCH   1  21
BRANCH  10  23
ATOM     23  O   UNL     1     131.012  98.285 109.263  1.00  0.00    -0.507 OA
ATOM     24  H   UNL     1     131.951  98.153 108.918  1.00  0.00     0.293 HD
ENDBRANCH  10  23
BRANCH  13  25
ATOM     25  O   UNL     1     129.328 103.136 111.178  1.00  0.00    -0.507 OA
ATOM     26  H   UNL     1     129.931 103.945 111.222  1.00  0.00     0.293 HD
ENDBRANCH  13  25
BRANCH  20  27
ATOM     27  O   UNL     1     130.782  97.376 111.551  1.00  0.00    -0.344 OA
BRANCH  27  28
ATOM     28  C   UNL     1     130.422  96.219 112.209  1.00  0.00     0.252 C 
ATOM     29  C   UNL     1     130.451  94.969 111.407  1.00  0.00     0.083 C 
ATOM     30  O   UNL     1     131.293  96.078 113.291  1.00  0.00    -0.347 OA
ATOM     31  C   UNL     1     130.588  93.808 112.388  1.00  0.00     0.087 C 
ATOM     32  C   UNL     1     132.409  95.312 112.987  1.00  0.00     0.148 C 
ATOM     33  C   UNL     1     132.032  93.831 112.862  1.00  0.00     0.160 C 
ATOM     34  C   UNL     1     133.381  95.443 114.142  1.00  0.00     0.041 C 
BRANCH  31  35
ATOM     35  N   UNL     1     129.766  94.167 113.543  1.00  0.00    -0.325 NA
ATOM     36  H   UNL     1     129.006  94.810 113.299  1.00  0.00     0.119 HD
ATOM     37  H   UNL     1     129.491  93.341 114.104  1.00  0.00     0.119 HD
ENDBRANCH  31  35
BRANCH  33  38
ATOM     38  O   UNL     1     132.126  93.197 114.093  1.00  0.00    -0.389 OA
ATOM     39  H   UNL     1     131.209  93.100 114.441  1.00  0.00     0.211 HD
ENDBRANCH  33  38
ENDBRANCH  27  28
ENDBRANCH  20  27
BRANCH  18  40
ATOM     40  O   UNL     1     131.326 101.052 114.437  1.00  0.00    -0.382 OA
ATOM     41  H   UNL     1     132.193 100.591 114.529  1.00  0.00     0.212 HD
ENDBRANCH  18  40
BRANCH  18  42
ATOM     42  C   UNL     1     129.605  99.652 115.132  1.00  0.00     0.190 C 
ATOM     43  O   UNL     1     128.409  99.876 115.232  1.00  0.00    -0.294 OA
BRANCH  42  44
ATOM     44  C   UNL     1     130.222  98.891 116.240  1.00  0.00     0.234 C 
BRANCH  44  45
ATOM     45  O   UNL     1     131.140  99.672 116.957  1.00  0.00    -0.388 OA
ATOM     46  H   UNL     1     132.053  99.564 116.612  1.00  0.00     0.211 HD
ENDBRANCH  44  45
ENDBRANCH  42  44
ENDBRANCH  18  42
TORSDOF 11
ENDMDL
MODEL 6
REMARK VINA RESULT:      -6.0      4.387      8.140
REMARK SMILES COc1cccc2c1C(=O)c1c(O)c3c(c(O)c1C2=O)C[C@@](O)(C(=O)CO)C[C@@H]3O[C@H]1C[C@H](N)[C@H](O)[C@H](C)O1
REMARK SMILES IDX 3 1 4 2 5 3 6 4 7 5 8 6 9 7 10 8 11 9 12 10 14 11 15 12
REMARK SMILES IDX 16 13 18 14 19 15 20 16 21 17 22 18 28 19 29 20 2 21 1 22
REMARK SMILES IDX 13 23 17 25 30 27 31 28 32 29 39 30 33 31 37 32 35 33 38 34
REMARK SMILES IDX 34 35 36 38 23 40 24 42 25 43 26 44 27 45
REMARK H PARENT 13 24 17 26 34 36 34 37 36 39 23 41 27 46
ROOT
ATOM      1  C   UNL     1     131.016 101.535 105.692  1.00  0.00     0.130 A 
ATOM      2  C   UNL     1     130.918 102.703 105.002  1.00  0.00     0.047 A 
ATOM      3  C   UNL     1     130.546 103.902 105.584  1.00  0.00     0.005 A 
ATOM      4  C   UNL     1     130.263 103.903 106.930  1.00  0.00     0.013 A 
ATOM      5  C   UNL     1     130.360 102.709 107.654  1.00  0.00     0.038 A 
ATOM      6  C   UNL     1     130.733 101.535 107.045  1.00  0.00     0.076 A 
ATOM      7  C   UNL     1     130.825 100.296 107.834  1.00  0.00     0.202 C 
ATOM      8  O   UNL     1     131.164  99.249 107.253  1.00  0.00    -0.288 OA
ATOM      9  C   UNL     1     130.526 100.294 109.260  1.00  0.00     0.080 A 
ATOM     10  C   UNL     1     130.607  99.131 110.026  1.00  0.00     0.133 A 
ATOM     11  C   UNL     1     130.330  99.118 111.358  1.00  0.00     0.031 A 
ATOM     12  C   UNL     1     129.947 100.313 111.999  1.00  0.00     0.008 A 
ATOM     13  C   UNL     1     129.872 101.448 111.230  1.00  0.00     0.131 A 
ATOM     14  C   UNL     1     130.150 101.473 109.878  1.00  0.00     0.080 A 
ATOM     15  C   UNL     1     130.063 102.694 109.083  1.00  0.00     0.198 C 
ATOM     16  O   UNL     1     129.726 103.784 109.610  1.00  0.00    -0.288 OA
ATOM     17  C   UNL     1     129.648 100.301 113.445  1.00  0.00     0.083 C 
ATOM     18  C   UNL     1     130.531  99.395 114.256  1.00  0.00     0.132 C 
ATOM     19  C   UNL     1     131.252  98.389 113.410  1.00  0.00     0.081 C 
ATOM     20  C   UNL     1     130.383  97.955 112.270  1.00  0.00     0.159 C 
ENDROOT
BRANCH   1  21
ATOM     21  O   UNL     1     131.386 100.317 105.137  1.00  0.00    -0.496 OA
ATOM     22  C   UNL     1     131.066  99.903 103.842  1.00  0.00     0.278 C 
ENDBRANCH   1  21
BRANCH  10  23
ATOM     23  O   UNL     1     130.983  97.958 109.404  1.00  0.00    -0.507 OA
ATOM     24  H   UNL     1     130.482  97.595 108.607  1.00  0.00     0.293 HD
ENDBRANCH  10  23
BRANCH  13  25
ATOM     25  O   UNL     1     129.499 102.650 111.817  1.00  0.00    -0.507 OA
ATOM     26  H   UNL     1     128.794 103.260 111.429  1.00  0.00     0.293 HD
ENDBRANCH  13  25
BRANCH  20  27
ATOM     27  O   UNL     1     130.811  96.848 111.607  1.00  0.00    -0.344 OA
BRANCH  27  28
ATOM     28  C   UNL     1     130.868  95.695 112.360  1.00  0.00     0.252 C 
ATOM     29  C   UNL     1     129.581  95.213 112.925  1.00  0.00     0.083 C 
ATOM     30  O   UNL     1     131.398  94.697 111.540  1.00  0.00    -0.347 OA
ATOM     31  C   UNL     1     129.741  93.722 113.204  1.00  0.00     0.087 C 
ATOM     32  C   UNL     1     130.421  93.969 110.877  1.00  0.00     0.148 C 
ATOM     33  C   UNL     1     129.688  93.036 111.848  1.00  0.00     0.160 C 
ATOM     34  C   UNL     1     131.117  93.104 109.845  1.00  0.00     0.041 C 
BRANCH  31  35
ATOM     35  N   UNL     1     131.107  93.557 113.699  1.00  0.00    -0.325 NA
ATOM     36  H   UNL     1     131.785  94.124 113.178  1.00  0.00     0.119 HD
ATOM     37  H   UNL     1     131.165  93.626 114.731  1.00  0.00     0.119 HD
ENDBRANCH  31  35
BRANCH  33  38
ATOM     38  O   UNL     1     130.330  91.808 111.925  1.00  0.00    -0.389 OA
ATOM     39  H   UNL     1     130.891  91.721 111.119  1.00  0.00     0.211 HD
ENDBRANCH  33  38
ENDBRANCH  27  28
ENDBRANCH  20  27
BRANCH  18  40
ATOM     40  O   UNL     1     131.558 100.228 114.793  1.00  0.00    -0.382 OA
ATOM     41  H   UNL     1     131.303 101.177 114.706  1.00  0.00     0.212 HD
ENDBRANCH  18  40
BRANCH  18  42
ATOM     42  C   UNL     1     129.825  98.812 115.423  1.00  0.00     0.190 C 
ATOM     43  O   UNL     1     130.350  98.854 116.524  1.00  0.00    -0.294 OA
BRANCH  42  44
ATOM     44  C   UNL     1     128.497  98.162 115.358  1.00  0.00     0.234 C 
BRANCH  44  45
ATOM     45  O   UNL     1     127.545  98.853 116.122  1.00  0.00    -0.388 OA
ATOM     46  H   UNL     1     127.970  99.427 116.796  1.00  0.00     0.211 HD
ENDBRANCH  44  45
ENDBRANCH  42  44
ENDBRANCH  18  42
TORSDOF 11
ENDMDL
MODEL 7
REMARK VINA RESULT:      -5.9      3.304      9.184
REMARK SMILES COc1cccc2c1C(=O)c1c(O)c3c(c(O)c1C2=O)C[C@@](O)(C(=O)CO)C[C@@H]3O[C@H]1C[C@H](N)[C@H](O)[C@H](C)O1
REMARK SMILES IDX 3 1 4 2 5 3 6 4 7 5 8 6 9 7 10 8 11 9 12 10 14 11 15 12
REMARK SMILES IDX 16 13 18 14 19 15 20 16 21 17 22 18 28 19 29 20 2 21 1 22
REMARK SMILES IDX 13 23 17 25 30 27 31 28 32 29 39 30 33 31 37 32 35 33 38 34
REMARK SMILES IDX 34 35 36 38 23 40 24 42 25 43 26 44 27 45
REMARK H PARENT 13 24 17 26 34 36 34 37 36 39 23 41 27 46
ROOT
ATOM      1  C   UNL     1     130.396  95.860 114.504  1.00  0.00     0.130 A 
ATOM      2  C   UNL     1     130.120  95.539 115.797  1.00  0.00     0.047 A 
ATOM      3  C   UNL     1     129.585  96.434 116.706  1.00  0.00     0.005 A 
ATOM      4  C   UNL     1     129.323  97.712 116.272  1.00  0.00     0.013 A 
ATOM      5  C   UNL     1     129.602  98.058 114.944  1.00  0.00     0.038 A 
ATOM      6  C   UNL     1     130.132  97.144 114.067  1.00  0.00     0.076 A 
ATOM      7  C   UNL     1     130.414  97.540 112.677  1.00  0.00     0.202 C 
ATOM      8  O   UNL     1     130.895  96.689 111.906  1.00  0.00    -0.288 OA
ATOM      9  C   UNL     1     130.137  98.893 112.214  1.00  0.00     0.080 A 
ATOM     10  C   UNL     1     130.397  99.289 110.901  1.00  0.00     0.133 A 
ATOM     11  C   UNL     1     130.142 100.549 110.459  1.00  0.00     0.031 A 
ATOM     12  C   UNL     1     129.598 101.500 111.346  1.00  0.00     0.008 A 
ATOM     13  C   UNL     1     129.349 101.094 112.634  1.00  0.00     0.131 A 
ATOM     14  C   UNL     1     129.603  99.818 113.094  1.00  0.00     0.080 A 
ATOM     15  C   UNL     1     129.328  99.411 114.469  1.00  0.00     0.198 C 
ATOM     16  O   UNL     1     128.843 100.223 115.296  1.00  0.00    -0.288 OA
ATOM     17  C   UNL     1     129.319 102.868 110.866  1.00  0.00     0.083 C 
ATOM     18  C   UNL     1     128.806 102.941 109.456  1.00  0.00     0.132 C 
ATOM     19  C   UNL     1     129.063 101.682 108.686  1.00  0.00     0.081 C 
ATOM     20  C   UNL     1     130.372 101.082 109.099  1.00  0.00     0.159 C 
ENDROOT
BRANCH   1  21
ATOM     21  O   UNL     1     130.931  94.985 113.569  1.00  0.00    -0.496 OA
ATOM     22  C   UNL     1     131.463  93.729 113.868  1.00  0.00     0.278 C 
ENDBRANCH   1  21
BRANCH  10  23
ATOM     23  O   UNL     1     130.929  98.361 110.028  1.00  0.00    -0.507 OA
ATOM     24  H   UNL     1     130.357  97.883 109.348  1.00  0.00     0.293 HD
ENDBRANCH  10  23
BRANCH  13  25
ATOM     25  O   UNL     1     128.812 101.994 113.544  1.00  0.00    -0.507 OA
ATOM     26  H   UNL     1     128.728 102.984 113.359  1.00  0.00     0.293 HD
ENDBRANCH  13  25
BRANCH  20  27
ATOM     27  O   UNL     1     130.844 100.106 108.277  1.00  0.00    -0.344 OA
BRANCH  27  28
ATOM     28  C   UNL     1     130.996 100.469 106.956  1.00  0.00     0.252 C 
ATOM     29  C   UNL     1     132.056  99.759 106.196  1.00  0.00     0.083 C 
ATOM     30  O   UNL     1     129.770 100.247 106.328  1.00  0.00    -0.347 OA
ATOM     31  C   UNL     1     131.699  99.867 104.717  1.00  0.00     0.087 C 
ATOM     32  C   UNL     1     129.678  98.986 105.756  1.00  0.00     0.148 C 
ATOM     33  C   UNL     1     130.546  98.900 104.495  1.00  0.00     0.160 C 
ATOM     34  C   UNL     1     128.236  98.779 105.336  1.00  0.00     0.041 C 
BRANCH  31  35
ATOM     35  N   UNL     1     131.153 101.211 104.539  1.00  0.00    -0.325 NA
ATOM     36  H   UNL     1     131.885 101.924 104.454  1.00  0.00     0.119 HD
ATOM     37  H   UNL     1     130.410 101.244 103.817  1.00  0.00     0.119 HD
ENDBRANCH  31  35
BRANCH  33  38
ATOM     38  O   UNL     1     129.824  99.289 103.376  1.00  0.00    -0.389 OA
ATOM     39  H   UNL     1     130.061 100.227 103.187  1.00  0.00     0.211 HD
ENDBRANCH  33  38
ENDBRANCH  27  28
ENDBRANCH  20  27
BRANCH  18  40
ATOM     40  O   UNL     1     127.385 103.025 109.561  1.00  0.00    -0.382 OA
ATOM     41  H   UNL     1     126.973 102.931 108.671  1.00  0.00     0.212 HD
ENDBRANCH  18  40
BRANCH  18  42
ATOM     42  C   UNL     1     129.237 104.178 108.759  1.00  0.00     0.190 C 
ATOM     43  O   UNL     1     130.424 104.458 108.717  1.00  0.00    -0.294 OA
BRANCH  42  44
ATOM     44  C   UNL     1     128.318 105.126 108.093  1.00  0.00     0.234 C 
BRANCH  44  45
ATOM     45  O   UNL     1     127.660 105.948 109.020  1.00  0.00    -0.388 OA
ATOM     46  H   UNL     1     126.780 105.586 109.263  1.00  0.00     0.211 HD
ENDBRANCH  44  45
ENDBRANCH  42  44
ENDBRANCH  18  42
TORSDOF 11
ENDMDL
MODEL 8
REMARK VINA RESULT:      -5.9      2.592      7.957
REMARK SMILES COc1cccc2c1C(=O)c1c(O)c3c(c(O)c1C2=O)C[C@@](O)(C(=O)CO)C[C@@H]3O[C@H]1C[C@H](N)[C@H](O)[C@H](C)O1
REMARK SMILES IDX 3 1 4 2 5 3 6 4 7 5 8 6 9 7 10 8 11 9 12 10 14 11 15 12
REMARK SMILES IDX 16 13 18 14 19 15 20 16 21 17 22 18 28 19 29 20 2 21 1 22
REMARK SMILES IDX 13 23 17 25 30 27 31 28 32 29 39 30 33 31 37 32 35 33 38 34
REMARK SMILES IDX 34 35 36 38 23 40 24 42 25 43 26 44 27 45
REMARK H PARENT 13 24 17 26 34 36 34 37 36 39 23 41 27 46
ROOT
ATOM      1  C   UNL     1     129.238  99.398 115.471  1.00  0.00     0.130 A 
ATOM      2  C   UNL     1     130.009  98.856 116.452  1.00  0.00     0.047 A 
ATOM      3  C   UNL     1     131.340  98.521 116.277  1.00  0.00     0.005 A 
ATOM      4  C   UNL     1     131.904  98.751 115.044  1.00  0.00     0.013 A 
ATOM      5  C   UNL     1     131.123  99.308 114.024  1.00  0.00     0.038 A 
ATOM      6  C   UNL     1     129.804  99.630 114.232  1.00  0.00     0.076 A 
ATOM      7  C   UNL     1     129.011 100.214 113.138  1.00  0.00     0.202 C 
ATOM      8  O   UNL     1     127.818 100.494 113.358  1.00  0.00    -0.288 OA
ATOM      9  C   UNL     1     129.605 100.459 111.831  1.00  0.00     0.080 A 
ATOM     10  C   UNL     1     128.871 101.012 110.781  1.00  0.00     0.133 A 
ATOM     11  C   UNL     1     129.417 101.244 109.557  1.00  0.00     0.031 A 
ATOM     12  C   UNL     1     130.769 100.921 109.327  1.00  0.00     0.008 A 
ATOM     13  C   UNL     1     131.477 100.378 110.370  1.00  0.00     0.131 A 
ATOM     14  C   UNL     1     130.934 100.137 111.617  1.00  0.00     0.080 A 
ATOM     15  C   UNL     1     131.708  99.558 112.710  1.00  0.00     0.198 C 
ATOM     16  O   UNL     1     132.917  99.253 112.552  1.00  0.00    -0.288 OA
ATOM     17  C   UNL     1     131.363 101.175 107.998  1.00  0.00     0.083 C 
ATOM     18  C   UNL     1     130.883 102.434 107.333  1.00  0.00     0.132 C 
ATOM     19  C   UNL     1     129.619 102.959 107.942  1.00  0.00     0.081 C 
ATOM     20  C   UNL     1     128.743 101.824 108.375  1.00  0.00     0.159 C 
ENDROOT
BRANCH   1  21
ATOM     21  O   UNL     1     127.901  99.744 115.616  1.00  0.00    -0.496 OA
ATOM     22  C   UNL     1     126.955  98.989 116.311  1.00  0.00     0.278 C 
ENDBRANCH   1  21
BRANCH  10  23
ATOM     23  O   UNL     1     127.547 101.332 111.002  1.00  0.00    -0.507 OA
ATOM     24  H   UNL     1     127.170 101.421 111.934  1.00  0.00     0.293 HD
ENDBRANCH  10  23
BRANCH  13  25
ATOM     25  O   UNL     1     132.812 100.043 110.192  1.00  0.00    -0.507 OA
ATOM     26  H   UNL     1     133.121  99.113 109.945  1.00  0.00     0.293 HD
ENDBRANCH  13  25
BRANCH  20  27
ATOM     27  O   UNL     1     127.462 102.166 108.675  1.00  0.00    -0.344 OA
BRANCH  27  28
ATOM     28  C   UNL     1     126.922 103.169 107.900  1.00  0.00     0.252 C 
ATOM     29  C   UNL     1     125.455 103.105 107.668  1.00  0.00     0.083 C 
ATOM     30  O   UNL     1     127.224 104.378 108.528  1.00  0.00    -0.347 OA
ATOM     31  C   UNL     1     124.994 104.516 107.314  1.00  0.00     0.087 C 
ATOM     32  C   UNL     1     126.227 104.798 109.397  1.00  0.00     0.148 C 
ATOM     33  C   UNL     1     125.004 105.297 108.619  1.00  0.00     0.160 C 
ATOM     34  C   UNL     1     126.775 105.966 110.191  1.00  0.00     0.041 C 
BRANCH  31  35
ATOM     35  N   UNL     1     126.054 105.082 106.483  1.00  0.00    -0.325 NA
ATOM     36  H   UNL     1     126.225 106.073 106.684  1.00  0.00     0.119 HD
ATOM     37  H   UNL     1     126.897 104.480 106.452  1.00  0.00     0.119 HD
ENDBRANCH  31  35
BRANCH  33  38
ATOM     38  O   UNL     1     125.119 106.653 108.345  1.00  0.00    -0.389 OA
ATOM     39  H   UNL     1     124.916 106.776 107.389  1.00  0.00     0.211 HD
ENDBRANCH  33  38
ENDBRANCH  27  28
ENDBRANCH  20  27
BRANCH  18  40
ATOM     40  O   UNL     1     131.870 103.426 107.617  1.00  0.00    -0.382 OA
ATOM     41  H   UNL     1     132.417 103.147 108.389  1.00  0.00     0.212 HD
ENDBRANCH  18  40
BRANCH  18  42
ATOM     42  C   UNL     1     130.840 102.312 105.855  1.00  0.00     0.190 C 
ATOM     43  O   UNL     1     131.072 101.233 105.336  1.00  0.00    -0.294 OA
BRANCH  42  44
ATOM     44  C   UNL     1     130.532 103.428 104.933  1.00  0.00     0.234 C 
BRANCH  44  45
ATOM     45  O   UNL     1     131.371 104.529 105.154  1.00  0.00    -0.388 OA
ATOM     46  H   UNL     1     131.901 104.421 105.974  1.00  0.00     0.211 HD
ENDBRANCH  44  45
ENDBRANCH  42  44
ENDBRANCH  18  42
TORSDOF 11
ENDMDL
MODEL 9
REMARK VINA RESULT:      -5.9      1.001      1.223
REMARK SMILES COc1cccc2c1C(=O)c1c(O)c3c(c(O)c1C2=O)C[C@@](O)(C(=O)CO)C[C@@H]3O[C@H]1C[C@H](N)[C@H](O)[C@H](C)O1
REMARK SMILES IDX 3 1 4 2 5 3 6 4 7 5 8 6 9 7 10 8 11 9 12 10 14 11 15 12
REMARK SMILES IDX 16 13 18 14 19 15 20 16 21 17 22 18 28 19 29 20 2 21 1 22
REMARK SMILES IDX 13 23 17 25 30 27 31 28 32 29 39 30 33 31 37 32 35 33 38 34
REMARK SMILES IDX 34 35 36 38 23 40 24 42 25 43 26 44 27 45
REMARK H PARENT 13 24 17 26 34 36 34 37 36 39 23 41 27 46
ROOT
ATOM      1  C   UNL     1     123.570 107.210 109.688  1.00  0.00     0.130 A 
ATOM      2  C   UNL     1     122.543 107.886 109.106  1.00  0.00     0.047 A 
ATOM      3  C   UNL     1     122.359 107.961 107.737  1.00  0.00     0.005 A 
ATOM      4  C   UNL     1     123.267 107.315 106.930  1.00  0.00     0.013 A 
ATOM      5  C   UNL     1     124.329 106.614 107.514  1.00  0.00     0.038 A 
ATOM      6  C   UNL     1     124.482 106.560 108.878  1.00  0.00     0.076 A 
ATOM      7  C   UNL     1     125.611 105.815 109.460  1.00  0.00     0.202 C 
ATOM      8  O   UNL     1     125.722 105.785 110.700  1.00  0.00    -0.288 OA
ATOM      9  C   UNL     1     126.574 105.129 108.609  1.00  0.00     0.080 A 
ATOM     10  C   UNL     1     127.650 104.418 109.140  1.00  0.00     0.133 A 
ATOM     11  C   UNL     1     128.554 103.775 108.353  1.00  0.00     0.031 A 
ATOM     12  C   UNL     1     128.412 103.820 106.952  1.00  0.00     0.008 A 
ATOM     13  C   UNL     1     127.347 104.524 106.446  1.00  0.00     0.131 A 
ATOM     14  C   UNL     1     126.423 105.181 107.234  1.00  0.00     0.080 A 
ATOM     15  C   UNL     1     125.300 105.923 106.670  1.00  0.00     0.198 C 
ATOM     16  O   UNL     1     125.132 105.992 105.427  1.00  0.00    -0.288 OA
ATOM     17  C   UNL     1     129.392 103.120 106.098  1.00  0.00     0.083 C 
ATOM     18  C   UNL     1     129.876 101.809 106.650  1.00  0.00     0.132 C 
ATOM     19  C   UNL     1     129.596 101.666 108.115  1.00  0.00     0.081 C 
ATOM     20  C   UNL     1     129.727 102.992 108.799  1.00  0.00     0.159 C 
ENDROOT
BRANCH   1  21
ATOM     21  O   UNL     1     123.781 107.117 111.057  1.00  0.00    -0.496 OA
ATOM     22  C   UNL     1     123.504 108.132 111.975  1.00  0.00     0.278 C 
ENDBRANCH   1  21
BRANCH  10  23
ATOM     23  O   UNL     1     127.793 104.370 110.512  1.00  0.00    -0.507 OA
ATOM     24  H   UNL     1     127.295 105.002 111.120  1.00  0.00     0.293 HD
ENDBRANCH  10  23
BRANCH  13  25
ATOM     25  O   UNL     1     127.165 104.597 105.072  1.00  0.00    -0.507 OA
ATOM     26  H   UNL     1     127.676 104.024 104.415  1.00  0.00     0.293 HD
ENDBRANCH  13  25
BRANCH  20  27
ATOM     27  O   UNL     1     129.778 102.939 110.157  1.00  0.00    -0.344 OA
BRANCH  27  28
ATOM     28  C   UNL     1     129.894 101.675 110.693  1.00  0.00     0.252 C 
ATOM     29  C   UNL     1     130.350 100.605 109.768  1.00  0.00     0.083 C 
ATOM     30  O   UNL     1     130.795 101.763 111.755  1.00  0.00    -0.347 OA
ATOM     31  C   UNL     1     130.940  99.490 110.625  1.00  0.00     0.087 C 
ATOM     32  C   UNL     1     132.103 101.496 111.375  1.00  0.00     0.148 C 
ATOM     33  C   UNL     1     132.292 100.000 111.100  1.00  0.00     0.160 C 
ATOM     34  C   UNL     1     133.001 101.866 112.538  1.00  0.00     0.041 C 
BRANCH  31  35
ATOM     35  N   UNL     1     130.088  99.409 111.810  1.00  0.00    -0.325 NA
ATOM     36  H   UNL     1     130.435  99.985 112.584  1.00  0.00     0.119 HD
ATOM     37  H   UNL     1     129.083  99.522 111.584  1.00  0.00     0.119 HD
ENDBRANCH  31  35
BRANCH  33  38
ATOM     38  O   UNL     1     132.658  99.331 112.259  1.00  0.00    -0.389 OA
ATOM     39  H   UNL     1     131.965  98.652 112.436  1.00  0.00     0.211 HD
ENDBRANCH  33  38
ENDBRANCH  27  28
ENDBRANCH  20  27
BRANCH  18  40
ATOM     40  O   UNL     1     129.080 100.804 106.022  1.00  0.00    -0.382 OA
ATOM     41  H   UNL     1     128.848 100.101 106.674  1.00  0.00     0.212 HD
ENDBRANCH  18  40
BRANCH  18  42
ATOM     42  C   UNL     1     131.279 101.517 106.269  1.00  0.00     0.190 C 
ATOM     43  O   UNL     1     132.108 102.412 106.300  1.00  0.00    -0.294 OA
BRANCH  42  44
ATOM     44  C   UNL     1     131.769 100.188 105.839  1.00  0.00     0.234 C 
BRANCH  44  45
ATOM     45  O   UNL     1     131.292  99.848 104.564  1.00  0.00    -0.388 OA
ATOM     46  H   UNL     1     130.486 100.360 104.332  1.00  0.00     0.211 HD
ENDBRANCH  44  45
ENDBRANCH  42  44
ENDBRANCH  18  42
TORSDOF 11
ENDMDL
