MODEL 1
REMARK VINA RESULT:      -9.2      0.000      0.000
REMARK SMILES CC/C(=C(\c1ccccc1)c1ccc(OCC[NH+](C)C)cc1)c1ccccc1
REMARK SMILES IDX 15 1 14 2 11 3 12 4 22 5 13 6 21 7 4 8 3 9 2 10 1 11 23 12
REMARK SMILES IDX 24 13 28 14 25 15 27 16 26 17 5 18 6 19 10 20 7 21 9 22 8 23
REMARK SMILES IDX 16 24 17 25 18 26 19 27 20 28
REMARK H PARENT 18 29
ROOT
ATOM      1  O   UNL     1     132.066 101.575 110.943  1.00  0.00    -0.488 OA
ENDROOT
BRANCH   1   2
ATOM      2  C   UNL     1     131.110 102.277 110.233  1.00  0.00     0.119 A 
ATOM      3  C   UNL     1     129.057 103.649 108.798  1.00  0.00    -0.017 A 
ATOM      4  C   UNL     1     130.338 104.155 108.896  1.00  0.00     0.012 A 
ATOM      5  C   UNL     1     128.833 102.434 109.437  1.00  0.00     0.012 A 
ATOM      6  C   UNL     1     131.324 103.478 109.596  1.00  0.00     0.047 A 
ATOM      7  C   UNL     1     129.808 101.767 110.129  1.00  0.00     0.047 A 
BRANCH   3   8
ATOM      8  C   UNL     1     128.010 104.324 108.051  1.00  0.00    -0.007 C 
ATOM      9  C   UNL     1     128.078 104.521 106.759  1.00  0.00    -0.033 C 
BRANCH   9  10
ATOM     10  C   UNL     1     127.059 105.247 105.953  1.00  0.00     0.033 C 
ATOM     11  C   UNL     1     127.104 106.703 106.312  1.00  0.00     0.009 C 
ENDBRANCH   9  10
BRANCH   9  12
ATOM     12  C   UNL     1     129.183 103.957 105.963  1.00  0.00    -0.022 A 
ATOM     13  C   UNL     1     129.470 102.616 105.964  1.00  0.00     0.008 A 
ATOM     14  C   UNL     1     129.939 104.809 105.217  1.00  0.00     0.008 A 
ATOM     15  C   UNL     1     130.516 102.143 105.212  1.00  0.00     0.001 A 
ATOM     16  C   UNL     1     131.014 104.371 104.438  1.00  0.00     0.001 A 
ATOM     17  C   UNL     1     131.277 103.020 104.458  1.00  0.00     0.000 A 
ENDBRANCH   9  12
BRANCH   8  18
ATOM     18  C   UNL     1     126.868 104.827 108.787  1.00  0.00    -0.018 A 
ATOM     19  C   UNL     1     126.987 105.804 109.755  1.00  0.00     0.009 A 
ATOM     20  C   UNL     1     125.609 104.281 108.554  1.00  0.00     0.009 A 
ATOM     21  C   UNL     1     125.873 106.201 110.448  1.00  0.00     0.001 A 
ATOM     22  C   UNL     1     124.481 104.669 109.240  1.00  0.00     0.001 A 
ATOM     23  C   UNL     1     124.627 105.655 110.210  1.00  0.00     0.000 A 
ENDBRANCH   8  18
ENDBRANCH   3   8
ENDBRANCH   1   2
BRANCH   1  24
ATOM     24  C   UNL     1     131.961 100.330 111.538  1.00  0.00     0.290 C 
BRANCH  24  25
ATOM     25  C   UNL     1     132.054 100.313 113.042  1.00  0.00     0.303 C 
BRANCH  25  26
ATOM     26  N   UNL     1     130.775 100.221 113.678  1.00  0.00    -0.337 N 
ATOM     27  C   UNL     1     130.839  99.697 115.025  1.00  0.00     0.332 C 
ATOM     28  C   UNL     1     129.838  99.396 112.944  1.00  0.00     0.332 C 
ATOM     29  H   UNL     1     130.312 101.175 113.755  1.00  0.00     0.347 HD
ENDBRANCH  25  26
ENDBRANCH  24  25
ENDBRANCH   1  24
TORSDOF 8
ENDMDL
MODEL 2
REMARK VINA RESULT:      -9.1      0.586      1.423
REMARK SMILES CC/C(=C(\c1ccccc1)c1ccc(OCC[NH+](C)C)cc1)c1ccccc1
REMARK SMILES IDX 15 1 14 2 11 3 12 4 22 5 13 6 21 7 4 8 3 9 2 10 1 11 23 12
REMARK SMILES IDX 24 13 28 14 25 15 27 16 26 17 5 18 6 19 10 20 7 21 9 22 8 23
REMARK SMILES IDX 16 24 17 25 18 26 19 27 20 28
REMARK H PARENT 18 29
ROOT
ATOM      1  O   UNL     1     131.721 101.385 111.257  1.00  0.00    -0.488 OA
ENDROOT
BRANCH   1   2
ATOM      2  C   UNL     1     130.805 102.106 110.512  1.00  0.00     0.119 A 
ATOM      3  C   UNL     1     128.830 103.524 109.014  1.00  0.00    -0.017 A 
ATOM      4  C   UNL     1     130.150 103.929 109.044  1.00  0.00     0.012 A 
ATOM      5  C   UNL     1     128.527 102.387 109.755  1.00  0.00     0.012 A 
ATOM      6  C   UNL     1     131.097 103.230 109.776  1.00  0.00     0.047 A 
ATOM      7  C   UNL     1     129.464 101.698 110.478  1.00  0.00     0.047 A 
BRANCH   3   8
ATOM      8  C   UNL     1     127.822 104.223 108.237  1.00  0.00    -0.007 C 
ATOM      9  C   UNL     1     127.942 104.435 106.952  1.00  0.00    -0.033 C 
BRANCH   9  10
ATOM     10  C   UNL     1     126.963 105.185 106.117  1.00  0.00     0.033 C 
ATOM     11  C   UNL     1     127.090 106.650 106.418  1.00  0.00     0.009 C 
ENDBRANCH   9  10
BRANCH   9  12
ATOM     12  C   UNL     1     129.069 103.867 106.191  1.00  0.00    -0.022 A 
ATOM     13  C   UNL     1     129.900 104.649 105.430  1.00  0.00     0.008 A 
ATOM     14  C   UNL     1     129.271 102.522 106.247  1.00  0.00     0.008 A 
ATOM     15  C   UNL     1     130.929 104.069 104.732  1.00  0.00     0.001 A 
ATOM     16  C   UNL     1     130.306 101.890 105.552  1.00  0.00     0.001 A 
ATOM     17  C   UNL     1     131.124 102.700 104.798  1.00  0.00     0.000 A 
ENDBRANCH   9  12
BRANCH   8  18
ATOM     18  C   UNL     1     126.659 104.731 108.936  1.00  0.00    -0.018 A 
ATOM     19  C   UNL     1     125.386 104.257 108.692  1.00  0.00     0.009 A 
ATOM     20  C   UNL     1     126.810 105.766 109.854  1.00  0.00     0.009 A 
ATOM     21  C   UNL     1     124.322 104.815 109.353  1.00  0.00     0.001 A 
ATOM     22  C   UNL     1     125.755 106.337 110.528  1.00  0.00     0.001 A 
ATOM     23  C   UNL     1     124.482 105.841 110.264  1.00  0.00     0.000 A 
ENDBRANCH   8  18
ENDBRANCH   3   8
ENDBRANCH   1   2
BRANCH   1  24
ATOM     24  C   UNL     1     131.484 100.429 112.229  1.00  0.00     0.290 C 
BRANCH  24  25
ATOM     25  C   UNL     1     132.009 100.749 113.604  1.00  0.00     0.303 C 
BRANCH  25  26
ATOM     26  N   UNL     1     131.427  99.935 114.628  1.00  0.00    -0.337 N 
ATOM     27  C   UNL     1     131.787  98.537 114.525  1.00  0.00     0.332 C 
ATOM     28  C   UNL     1     129.980 100.001 114.645  1.00  0.00     0.332 C 
ATOM     29  H   UNL     1     131.736 100.249 115.596  1.00  0.00     0.347 HD
ENDBRANCH  25  26
ENDBRANCH  24  25
ENDBRANCH   1  24
TORSDOF 8
ENDMDL
MODEL 3
REMARK VINA RESULT:      -9.1      0.688      1.528
REMARK SMILES CC/C(=C(\c1ccccc1)c1ccc(OCC[NH+](C)C)cc1)c1ccccc1
REMARK SMILES IDX 15 1 14 2 11 3 12 4 22 5 13 6 21 7 4 8 3 9 2 10 1 11 23 12
REMARK SMILES IDX 24 13 28 14 25 15 27 16 26 17 5 18 6 19 10 20 7 21 9 22 8 23
REMARK SMILES IDX 16 24 17 25 18 26 19 27 20 28
REMARK H PARENT 18 29
ROOT
ATOM      1  O   UNL     1     131.788 101.120 111.139  1.00  0.00    -0.488 OA
ENDROOT
BRANCH   1   2
ATOM      2  C   UNL     1     130.825 101.826 110.441  1.00  0.00     0.119 A 
ATOM      3  C   UNL     1     128.920 103.359 108.965  1.00  0.00    -0.017 A 
ATOM      4  C   UNL     1     128.570 102.188 109.607  1.00  0.00     0.012 A 
ATOM      5  C   UNL     1     130.252 103.743 109.083  1.00  0.00     0.012 A 
ATOM      6  C   UNL     1     129.507 101.455 110.320  1.00  0.00     0.047 A 
ATOM      7  C   UNL     1     131.175 103.017 109.788  1.00  0.00     0.047 A 
BRANCH   3   8
ATOM      8  C   UNL     1     127.956 104.160 108.231  1.00  0.00    -0.007 C 
ATOM      9  C   UNL     1     128.081 104.425 106.957  1.00  0.00    -0.033 C 
BRANCH   9  10
ATOM     10  C   UNL     1     127.150 105.278 106.168  1.00  0.00     0.033 C 
ATOM     11  C   UNL     1     127.366 106.714 106.549  1.00  0.00     0.009 C 
ENDBRANCH   9  10
BRANCH   9  12
ATOM     12  C   UNL     1     129.163 103.821 106.158  1.00  0.00    -0.022 A 
ATOM     13  C   UNL     1     129.402 102.471 106.162  1.00  0.00     0.008 A 
ATOM     14  C   UNL     1     129.947 104.644 105.409  1.00  0.00     0.008 A 
ATOM     15  C   UNL     1     130.428 101.959 105.408  1.00  0.00     0.001 A 
ATOM     16  C   UNL     1     131.003 104.166 104.627  1.00  0.00     0.001 A 
ATOM     17  C   UNL     1     131.218 102.807 104.650  1.00  0.00     0.000 A 
ENDBRANCH   9  12
BRANCH   8  18
ATOM     18  C   UNL     1     126.834 104.710 108.965  1.00  0.00    -0.018 A 
ATOM     19  C   UNL     1     125.536 104.294 108.749  1.00  0.00     0.009 A 
ATOM     20  C   UNL     1     127.053 105.728 109.889  1.00  0.00     0.009 A 
ATOM     21  C   UNL     1     124.515 104.890 109.443  1.00  0.00     0.001 A 
ATOM     22  C   UNL     1     126.041 106.336 110.594  1.00  0.00     0.001 A 
ATOM     23  C   UNL     1     124.741 105.899 110.359  1.00  0.00     0.000 A 
ENDBRANCH   8  18
ENDBRANCH   3   8
ENDBRANCH   1   2
BRANCH   1  24
ATOM     24  C   UNL     1     132.112 101.194 112.482  1.00  0.00     0.290 C 
BRANCH  24  25
ATOM     25  C   UNL     1     131.362 100.253 113.389  1.00  0.00     0.303 C 
BRANCH  25  26
ATOM     26  N   UNL     1     131.055  99.002 112.764  1.00  0.00    -0.337 N 
ATOM     27  C   UNL     1     129.701  98.555 113.006  1.00  0.00     0.332 C 
ATOM     28  C   UNL     1     131.938  97.932 113.181  1.00  0.00     0.332 C 
ATOM     29  H   UNL     1     131.162  99.061 111.707  1.00  0.00     0.347 HD
ENDBRANCH  25  26
ENDBRANCH  24  25
ENDBRANCH   1  24
TORSDOF 8
ENDMDL
MODEL 4
REMARK VINA RESULT:      -9.0      0.682      1.134
REMARK SMILES CC/C(=C(\c1ccccc1)c1ccc(OCC[NH+](C)C)cc1)c1ccccc1
REMARK SMILES IDX 15 1 14 2 11 3 12 4 22 5 13 6 21 7 4 8 3 9 2 10 1 11 23 12
REMARK SMILES IDX 24 13 28 14 25 15 27 16 26 17 5 18 6 19 10 20 7 21 9 22 8 23
REMARK SMILES IDX 16 24 17 25 18 26 19 27 20 28
REMARK H PARENT 18 29
ROOT
ATOM      1  O   UNL     1     131.728 101.319 111.201  1.00  0.00    -0.488 OA
ENDROOT
BRANCH   1   2
ATOM      2  C   UNL     1     130.815 102.055 110.468  1.00  0.00     0.119 A 
ATOM      3  C   UNL     1     128.846 103.504 108.992  1.00  0.00    -0.017 A 
ATOM      4  C   UNL     1     130.163 103.914 109.043  1.00  0.00     0.012 A 
ATOM      5  C   UNL     1     128.542 102.345 109.700  1.00  0.00     0.012 A 
ATOM      6  C   UNL     1     131.108 103.200 109.765  1.00  0.00     0.047 A 
ATOM      7  C   UNL     1     129.476 101.642 110.412  1.00  0.00     0.047 A 
BRANCH   3   8
ATOM      8  C   UNL     1     127.840 104.218 108.225  1.00  0.00    -0.007 C 
ATOM      9  C   UNL     1     127.952 104.432 106.939  1.00  0.00    -0.033 C 
BRANCH   9  10
ATOM     10  C   UNL     1     126.976 105.197 106.115  1.00  0.00     0.033 C 
ATOM     11  C   UNL     1     127.116 106.658 106.428  1.00  0.00     0.009 C 
ENDBRANCH   9  10
BRANCH   9  12
ATOM     12  C   UNL     1     129.065 103.851 106.167  1.00  0.00    -0.022 A 
ATOM     13  C   UNL     1     129.327 102.505 106.170  1.00  0.00     0.008 A 
ATOM     14  C   UNL     1     129.853 104.691 105.442  1.00  0.00     0.008 A 
ATOM     15  C   UNL     1     130.382 102.015 105.442  1.00  0.00     0.001 A 
ATOM     16  C   UNL     1     130.938 104.236 104.686  1.00  0.00     0.001 A 
ATOM     17  C   UNL     1     131.176 102.881 104.708  1.00  0.00     0.000 A 
ENDBRANCH   9  12
BRANCH   8  18
ATOM     18  C   UNL     1     126.690 104.740 108.935  1.00  0.00    -0.018 A 
ATOM     19  C   UNL     1     125.409 104.284 108.701  1.00  0.00     0.009 A 
ATOM     20  C   UNL     1     126.863 105.771 109.854  1.00  0.00     0.009 A 
ATOM     21  C   UNL     1     124.359 104.854 109.373  1.00  0.00     0.001 A 
ATOM     22  C   UNL     1     125.822 106.354 110.538  1.00  0.00     0.001 A 
ATOM     23  C   UNL     1     124.539 105.876 110.284  1.00  0.00     0.000 A 
ENDBRANCH   8  18
ENDBRANCH   3   8
ENDBRANCH   1   2
BRANCH   1  24
ATOM     24  C   UNL     1     131.561 100.083 111.802  1.00  0.00     0.290 C 
BRANCH  24  25
ATOM     25  C   UNL     1     130.798 100.084 113.101  1.00  0.00     0.303 C 
BRANCH  25  26
ATOM     26  N   UNL     1     131.102  98.956 113.927  1.00  0.00    -0.337 N 
ATOM     27  C   UNL     1     131.954  99.278 115.051  1.00  0.00     0.332 C 
ATOM     28  C   UNL     1     131.746  97.882 113.198  1.00  0.00     0.332 C 
ATOM     29  H   UNL     1     130.219  98.529 114.339  1.00  0.00     0.347 HD
ENDBRANCH  25  26
ENDBRANCH  24  25
ENDBRANCH   1  24
TORSDOF 8
ENDMDL
MODEL 5
REMARK VINA RESULT:      -8.7      0.797      1.334
REMARK SMILES CC/C(=C(\c1ccccc1)c1ccc(OCC[NH+](C)C)cc1)c1ccccc1
REMARK SMILES IDX 15 1 14 2 11 3 12 4 22 5 13 6 21 7 4 8 3 9 2 10 1 11 23 12
REMARK SMILES IDX 24 13 28 14 25 15 27 16 26 17 5 18 6 19 10 20 7 21 9 22 8 23
REMARK SMILES IDX 16 24 17 25 18 26 19 27 20 28
REMARK H PARENT 18 29
ROOT
ATOM      1  O   UNL     1     130.852 100.613 111.044  1.00  0.00    -0.488 OA
ENDROOT
BRANCH   1   2
ATOM      2  C   UNL     1     130.075 101.569 110.417  1.00  0.00     0.119 A 
ATOM      3  C   UNL     1     128.567 103.608 109.102  1.00  0.00    -0.017 A 
ATOM      4  C   UNL     1     127.981 102.435 109.537  1.00  0.00     0.012 A 
ATOM      5  C   UNL     1     129.931 103.732 109.345  1.00  0.00     0.012 A 
ATOM      6  C   UNL     1     128.726 101.455 110.174  1.00  0.00     0.047 A 
ATOM      7  C   UNL     1     130.665 102.762 109.974  1.00  0.00     0.047 A 
BRANCH   3   8
ATOM      8  C   UNL     1     127.806 104.662 108.454  1.00  0.00    -0.007 C 
ATOM      9  C   UNL     1     128.067 105.078 107.241  1.00  0.00    -0.033 C 
BRANCH   9  10
ATOM     10  C   UNL     1     127.352 106.184 106.548  1.00  0.00     0.033 C 
ATOM     11  C   UNL     1     126.420 105.597 105.529  1.00  0.00     0.009 C 
ENDBRANCH   9  10
BRANCH   9  12
ATOM     12  C   UNL     1     129.086 104.410 106.412  1.00  0.00    -0.022 A 
ATOM     13  C   UNL     1     129.117 103.048 106.255  1.00  0.00     0.008 A 
ATOM     14  C   UNL     1     130.024 105.183 105.799  1.00  0.00     0.008 A 
ATOM     15  C   UNL     1     130.093 102.475 105.480  1.00  0.00     0.001 A 
ATOM     16  C   UNL     1     131.036 104.641 105.001  1.00  0.00     0.001 A 
ATOM     17  C   UNL     1     131.042 103.272 104.861  1.00  0.00     0.000 A 
ENDBRANCH   9  12
BRANCH   8  18
ATOM     18  C   UNL     1     126.744 105.293 109.209  1.00  0.00    -0.018 A 
ATOM     19  C   UNL     1     126.995 106.173 110.243  1.00  0.00     0.009 A 
ATOM     20  C   UNL     1     125.419 104.975 108.925  1.00  0.00     0.009 A 
ATOM     21  C   UNL     1     125.944 106.699 110.949  1.00  0.00     0.001 A 
ATOM     22  C   UNL     1     124.352 105.494 109.622  1.00  0.00     0.001 A 
ATOM     23  C   UNL     1     124.632 106.378 110.659  1.00  0.00     0.000 A 
ENDBRANCH   8  18
ENDBRANCH   3   8
ENDBRANCH   1   2
BRANCH   1  24
ATOM     24  C   UNL     1     132.106 100.753 111.613  1.00  0.00     0.290 C 
BRANCH  24  25
ATOM     25  C   UNL     1     132.143 100.778 113.118  1.00  0.00     0.303 C 
BRANCH  25  26
ATOM     26  N   UNL     1     131.206  99.875 113.714  1.00  0.00    -0.337 N 
ATOM     27  C   UNL     1     129.968 100.509 114.113  1.00  0.00     0.332 C 
ATOM     28  C   UNL     1     131.736  99.204 114.884  1.00  0.00     0.332 C 
ATOM     29  H   UNL     1     130.935  99.097 113.041  1.00  0.00     0.347 HD
ENDBRANCH  25  26
ENDBRANCH  24  25
ENDBRANCH   1  24
TORSDOF 8
ENDMDL
MODEL 6
REMARK VINA RESULT:      -8.7      1.154      2.154
REMARK SMILES CC/C(=C(\c1ccccc1)c1ccc(OCC[NH+](C)C)cc1)c1ccccc1
REMARK SMILES IDX 15 1 14 2 11 3 12 4 22 5 13 6 21 7 4 8 3 9 2 10 1 11 23 12
REMARK SMILES IDX 24 13 28 14 25 15 27 16 26 17 5 18 6 19 10 20 7 21 9 22 8 23
REMARK SMILES IDX 16 24 17 25 18 26 19 27 20 28
REMARK H PARENT 18 29
ROOT
ATOM      1  O   UNL     1     131.700 100.706 111.966  1.00  0.00    -0.488 OA
ENDROOT
BRANCH   1   2
ATOM      2  C   UNL     1     130.787 101.339 111.143  1.00  0.00     0.119 A 
ATOM      3  C   UNL     1     128.990 102.703 109.391  1.00  0.00    -0.017 A 
ATOM      4  C   UNL     1     128.550 101.744 110.282  1.00  0.00     0.012 A 
ATOM      5  C   UNL     1     130.357 102.962 109.403  1.00  0.00     0.012 A 
ATOM      6  C   UNL     1     129.434 101.091 111.126  1.00  0.00     0.047 A 
ATOM      7  C   UNL     1     131.229 102.315 110.237  1.00  0.00     0.047 A 
BRANCH   3   8
ATOM      8  C   UNL     1     128.084 103.421 108.512  1.00  0.00    -0.007 C 
ATOM      9  C   UNL     1     128.165 103.357 107.208  1.00  0.00    -0.033 C 
BRANCH   9  10
ATOM     10  C   UNL     1     127.294 104.107 106.262  1.00  0.00     0.033 C 
ATOM     11  C   UNL     1     127.910 105.450 105.996  1.00  0.00     0.009 C 
ENDBRANCH   9  10
BRANCH   9  12
ATOM     12  C   UNL     1     129.121 102.448 106.551  1.00  0.00    -0.022 A 
ATOM     13  C   UNL     1     130.208 102.915 105.857  1.00  0.00     0.008 A 
ATOM     14  C   UNL     1     128.899 101.107 106.638  1.00  0.00     0.008 A 
ATOM     15  C   UNL     1     131.063 102.026 105.254  1.00  0.00     0.001 A 
ATOM     16  C   UNL     1     129.743 100.168 106.039  1.00  0.00     0.001 A 
ATOM     17  C   UNL     1     130.825 100.665 105.350  1.00  0.00     0.000 A 
ENDBRANCH   9  12
BRANCH   8  18
ATOM     18  C   UNL     1     127.078 104.267 109.121  1.00  0.00    -0.018 A 
ATOM     19  C   UNL     1     125.726 104.060 108.931  1.00  0.00     0.009 A 
ATOM     20  C   UNL     1     127.474 105.360 109.887  1.00  0.00     0.009 A 
ATOM     21  C   UNL     1     124.827 104.927 109.497  1.00  0.00     0.001 A 
ATOM     22  C   UNL     1     126.586 106.239 110.463  1.00  0.00     0.001 A 
ATOM     23  C   UNL     1     125.229 106.008 110.258  1.00  0.00     0.000 A 
ENDBRANCH   8  18
ENDBRANCH   3   8
ENDBRANCH   1   2
BRANCH   1  24
ATOM     24  C   UNL     1     131.483  99.684 112.874  1.00  0.00     0.290 C 
BRANCH  24  25
ATOM     25  C   UNL     1     131.173 100.115 114.284  1.00  0.00     0.303 C 
BRANCH  25  26
ATOM     26  N   UNL     1     129.876  99.698 114.722  1.00  0.00    -0.337 N 
ATOM     27  C   UNL     1     129.313  98.633 113.920  1.00  0.00     0.332 C 
ATOM     28  C   UNL     1     128.910 100.778 114.732  1.00  0.00     0.332 C 
ATOM     29  H   UNL     1     129.903  99.333 115.720  1.00  0.00     0.347 HD
ENDBRANCH  25  26
ENDBRANCH  24  25
ENDBRANCH   1  24
TORSDOF 8
ENDMDL
MODEL 7
REMARK VINA RESULT:      -8.7      1.051      1.606
REMARK SMILES CC/C(=C(\c1ccccc1)c1ccc(OCC[NH+](C)C)cc1)c1ccccc1
REMARK SMILES IDX 15 1 14 2 11 3 12 4 22 5 13 6 21 7 4 8 3 9 2 10 1 11 23 12
REMARK SMILES IDX 24 13 28 14 25 15 27 16 26 17 5 18 6 19 10 20 7 21 9 22 8 23
REMARK SMILES IDX 16 24 17 25 18 26 19 27 20 28
REMARK H PARENT 18 29
ROOT
ATOM      1  O   UNL     1     131.719 100.773 111.915  1.00  0.00    -0.488 OA
ENDROOT
BRANCH   1   2
ATOM      2  C   UNL     1     130.865 101.470 111.081  1.00  0.00     0.119 A 
ATOM      3  C   UNL     1     129.010 102.853 109.406  1.00  0.00    -0.017 A 
ATOM      4  C   UNL     1     130.358 103.151 109.399  1.00  0.00     0.012 A 
ATOM      5  C   UNL     1     128.616 101.840 110.275  1.00  0.00     0.012 A 
ATOM      6  C   UNL     1     131.246 102.471 110.218  1.00  0.00     0.047 A 
ATOM      7  C   UNL     1     129.495 101.170 111.083  1.00  0.00     0.047 A 
BRANCH   3   8
ATOM      8  C   UNL     1     128.061 103.531 108.542  1.00  0.00    -0.007 C 
ATOM      9  C   UNL     1     128.106 103.446 107.237  1.00  0.00    -0.033 C 
BRANCH   9  10
ATOM     10  C   UNL     1     127.189 104.157 106.304  1.00  0.00     0.033 C 
ATOM     11  C   UNL     1     127.660 105.573 106.146  1.00  0.00     0.009 C 
ENDBRANCH   9  10
BRANCH   9  12
ATOM     12  C   UNL     1     129.066 102.549 106.568  1.00  0.00    -0.022 A 
ATOM     13  C   UNL     1     128.967 101.184 106.653  1.00  0.00     0.008 A 
ATOM     14  C   UNL     1     130.083 103.111 105.858  1.00  0.00     0.008 A 
ATOM     15  C   UNL     1     129.893 100.394 106.019  1.00  0.00     0.001 A 
ATOM     16  C   UNL     1     131.048 102.344 105.198  1.00  0.00     0.001 A 
ATOM     17  C   UNL     1     130.922 100.978 105.300  1.00  0.00     0.000 A 
ENDBRANCH   9  12
BRANCH   8  18
ATOM     18  C   UNL     1     127.051 104.363 109.165  1.00  0.00    -0.018 A 
ATOM     19  C   UNL     1     125.700 104.138 108.991  1.00  0.00     0.009 A 
ATOM     20  C   UNL     1     127.442 105.459 109.928  1.00  0.00     0.009 A 
ATOM     21  C   UNL     1     124.797 104.992 109.570  1.00  0.00     0.001 A 
ATOM     22  C   UNL     1     126.551 106.325 110.517  1.00  0.00     0.001 A 
ATOM     23  C   UNL     1     125.194 106.077 110.328  1.00  0.00     0.000 A 
ENDBRANCH   8  18
ENDBRANCH   3   8
ENDBRANCH   1   2
BRANCH   1  24
ATOM     24  C   UNL     1     131.789  99.409 112.139  1.00  0.00     0.290 C 
BRANCH  24  25
ATOM     25  C   UNL     1     130.966  98.892 113.290  1.00  0.00     0.303 C 
BRANCH  25  26
ATOM     26  N   UNL     1     130.972  99.772 114.419  1.00  0.00    -0.337 N 
ATOM     27  C   UNL     1     131.745  99.271 115.535  1.00  0.00     0.332 C 
ATOM     28  C   UNL     1     129.641 100.057 114.917  1.00  0.00     0.332 C 
ATOM     29  H   UNL     1     131.390 100.718 114.171  1.00  0.00     0.347 HD
ENDBRANCH  25  26
ENDBRANCH  24  25
ENDBRANCH   1  24
TORSDOF 8
ENDMDL
MODEL 8
REMARK VINA RESULT:      -8.7      0.819      1.027
REMARK SMILES CC/C(=C(\c1ccccc1)c1ccc(OCC[NH+](C)C)cc1)c1ccccc1
REMARK SMILES IDX 15 1 14 2 11 3 12 4 22 5 13 6 21 7 4 8 3 9 2 10 1 11 23 12
REMARK SMILES IDX 24 13 28 14 25 15 27 16 26 17 5 18 6 19 10 20 7 21 9 22 8 23
REMARK SMILES IDX 16 24 17 25 18 26 19 27 20 28
REMARK H PARENT 18 29
ROOT
ATOM      1  O   UNL     1     131.344 100.747 111.546  1.00  0.00    -0.488 OA
ENDROOT
BRANCH   1   2
ATOM      2  C   UNL     1     130.553 101.576 110.772  1.00  0.00     0.119 A 
ATOM      3  C   UNL     1     128.826 103.228 109.208  1.00  0.00    -0.017 A 
ATOM      4  C   UNL     1     130.179 103.485 109.314  1.00  0.00     0.012 A 
ATOM      5  C   UNL     1     128.362 102.119 109.907  1.00  0.00     0.012 A 
ATOM      6  C   UNL     1     131.004 102.674 110.077  1.00  0.00     0.047 A 
ATOM      7  C   UNL     1     129.179 101.319 110.661  1.00  0.00     0.047 A 
BRANCH   3   8
ATOM      8  C   UNL     1     127.942 104.046 108.396  1.00  0.00    -0.007 C 
ATOM      9  C   UNL     1     128.096 104.187 107.105  1.00  0.00    -0.033 C 
BRANCH   9  10
ATOM     10  C   UNL     1     127.250 105.048 106.235  1.00  0.00     0.033 C 
ATOM     11  C   UNL     1     127.560 106.487 106.527  1.00  0.00     0.009 C 
ENDBRANCH   9  10
BRANCH   9  12
ATOM     12  C   UNL     1     129.121 103.419 106.375  1.00  0.00    -0.022 A 
ATOM     13  C   UNL     1     129.174 102.049 106.422  1.00  0.00     0.008 A 
ATOM     14  C   UNL     1     130.043 104.106 105.646  1.00  0.00     0.008 A 
ATOM     15  C   UNL     1     130.154 101.382 105.732  1.00  0.00     0.001 A 
ATOM     16  C   UNL     1     131.059 103.468 104.929  1.00  0.00     0.001 A 
ATOM     17  C   UNL     1     131.086 102.093 104.993  1.00  0.00     0.000 A 
ENDBRANCH   9  12
BRANCH   8  18
ATOM     18  C   UNL     1     126.873 104.759 109.066  1.00  0.00    -0.018 A 
ATOM     19  C   UNL     1     127.115 105.775 109.969  1.00  0.00     0.009 A 
ATOM     20  C   UNL     1     125.552 104.384 108.837  1.00  0.00     0.009 A 
ATOM     21  C   UNL     1     126.059 106.375 110.604  1.00  0.00     0.001 A 
ATOM     22  C   UNL     1     124.481 104.977 109.464  1.00  0.00     0.001 A 
ATOM     23  C   UNL     1     124.751 105.999 110.369  1.00  0.00     0.000 A 
ENDBRANCH   8  18
ENDBRANCH   3   8
ENDBRANCH   1   2
BRANCH   1  24
ATOM     24  C   UNL     1     131.567 100.791 112.911  1.00  0.00     0.290 C 
BRANCH  24  25
ATOM     25  C   UNL     1     130.851  99.746 113.726  1.00  0.00     0.303 C 
BRANCH  25  26
ATOM     26  N   UNL     1     130.910  99.998 115.134  1.00  0.00    -0.337 N 
ATOM     27  C   UNL     1     131.745  99.059 115.852  1.00  0.00     0.332 C 
ATOM     28  C   UNL     1     129.606  99.979 115.764  1.00  0.00     0.332 C 
ATOM     29  H   UNL     1     131.309 100.963 115.338  1.00  0.00     0.347 HD
ENDBRANCH  25  26
ENDBRANCH  24  25
ENDBRANCH   1  24
TORSDOF 8
ENDMDL
MODEL 9
REMARK VINA RESULT:      -8.7      0.885      1.324
REMARK SMILES CC/C(=C(\c1ccccc1)c1ccc(OCC[NH+](C)C)cc1)c1ccccc1
REMARK SMILES IDX 15 1 14 2 11 3 12 4 22 5 13 6 21 7 4 8 3 9 2 10 1 11 23 12
REMARK SMILES IDX 24 13 28 14 25 15 27 16 26 17 5 18 6 19 10 20 7 21 9 22 8 23
REMARK SMILES IDX 16 24 17 25 18 26 19 27 20 28
REMARK H PARENT 18 29
ROOT
ATOM      1  O   UNL     1     130.868 100.618 111.065  1.00  0.00    -0.488 OA
ENDROOT
BRANCH   1   2
ATOM      2  C   UNL     1     130.173 101.633 110.434  1.00  0.00     0.119 A 
ATOM      3  C   UNL     1     128.638 103.672 109.151  1.00  0.00    -0.017 A 
ATOM      4  C   UNL     1     130.002 103.791 109.327  1.00  0.00     0.012 A 
ATOM      5  C   UNL     1     128.063 102.501 109.634  1.00  0.00     0.012 A 
ATOM      6  C   UNL     1     130.733 102.793 109.952  1.00  0.00     0.047 A 
ATOM      7  C   UNL     1     128.787 101.516 110.251  1.00  0.00     0.047 A 
BRANCH   3   8
ATOM      8  C   UNL     1     127.850 104.690 108.479  1.00  0.00    -0.007 C 
ATOM      9  C   UNL     1     128.103 105.088 107.259  1.00  0.00    -0.033 C 
BRANCH   9  10
ATOM     10  C   UNL     1     127.360 106.159 106.540  1.00  0.00     0.033 C 
ATOM     11  C   UNL     1     126.436 105.524 105.542  1.00  0.00     0.009 C 
ENDBRANCH   9  10
BRANCH   9  12
ATOM     12  C   UNL     1     129.145 104.433 106.447  1.00  0.00    -0.022 A 
ATOM     13  C   UNL     1     130.129 105.148 105.813  1.00  0.00     0.008 A 
ATOM     14  C   UNL     1     129.109 103.078 106.325  1.00  0.00     0.008 A 
ATOM     15  C   UNL     1     131.070 104.491 105.061  1.00  0.00     0.001 A 
ATOM     16  C   UNL     1     130.046 102.368 105.569  1.00  0.00     0.001 A 
ATOM     17  C   UNL     1     131.021 103.111 104.945  1.00  0.00     0.000 A 
ENDBRANCH   9  12
BRANCH   8  18
ATOM     18  C   UNL     1     126.766 105.306 109.217  1.00  0.00    -0.018 A 
ATOM     19  C   UNL     1     126.988 106.187 110.256  1.00  0.00     0.009 A 
ATOM     20  C   UNL     1     125.451 104.969 108.910  1.00  0.00     0.009 A 
ATOM     21  C   UNL     1     125.918 106.697 110.945  1.00  0.00     0.001 A 
ATOM     22  C   UNL     1     124.366 105.473 109.590  1.00  0.00     0.001 A 
ATOM     23  C   UNL     1     124.616 106.359 110.633  1.00  0.00     0.000 A 
ENDBRANCH   8  18
ENDBRANCH   3   8
ENDBRANCH   1   2
BRANCH   1  24
ATOM     24  C   UNL     1     131.788 100.709 112.095  1.00  0.00     0.290 C 
BRANCH  24  25
ATOM     25  C   UNL     1     131.311 100.236 113.443  1.00  0.00     0.303 C 
BRANCH  25  26
ATOM     26  N   UNL     1     129.896 100.023 113.491  1.00  0.00    -0.337 N 
ATOM     27  C   UNL     1     129.179 101.078 114.173  1.00  0.00     0.332 C 
ATOM     28  C   UNL     1     129.536  98.777 114.136  1.00  0.00     0.332 C 
ATOM     29  H   UNL     1     129.480  99.967 112.514  1.00  0.00     0.347 HD
ENDBRANCH  25  26
ENDBRANCH  24  25
ENDBRANCH   1  24
TORSDOF 8
ENDMDL
