MODEL 1
REMARK VINA RESULT:      -8.1      0.000      0.000
REMARK SMILES O=C(CCC[NH+]1CCC(O)(c2ccc(Cl)cc2)CC1)c1ccc(F)cc1
REMARK SMILES IDX 4 1 3 2 2 3 1 4 20 5 21 6 26 7 22 8 25 9 23 10 24 11 5 12
REMARK SMILES IDX 6 13 7 14 19 15 8 16 18 17 9 18 10 20 11 22 12 23 17 24
REMARK SMILES IDX 13 25 16 26 14 27 15 28
REMARK H PARENT 6 19 10 21
ROOT
ATOM      1  C   UNL     1     114.561  99.847 115.341  1.00  0.00     0.070 C 
ENDROOT
BRANCH   1   2
ATOM      2  C   UNL     1     114.371  98.867 116.477  1.00  0.00     0.087 C 
BRANCH   2   3
ATOM      3  C   UNL     1     113.865  99.468 117.713  1.00  0.00     0.163 C 
ATOM      4  O   UNL     1     114.602 100.171 118.451  1.00  0.00    -0.294 OA
BRANCH   3   5
ATOM      5  C   UNL     1     112.470  99.290 118.166  1.00  0.00     0.018 A 
ATOM      6  C   UNL     1     111.729  98.199 117.747  1.00  0.00     0.015 A 
ATOM      7  C   UNL     1     111.879 100.196 119.009  1.00  0.00     0.015 A 
ATOM      8  C   UNL     1     110.431  98.040 118.173  1.00  0.00     0.040 A 
ATOM      9  C   UNL     1     110.588 100.044 119.438  1.00  0.00     0.040 A 
ATOM     10  C   UNL     1     109.865  98.961 119.016  1.00  0.00     0.123 A 
ATOM     11  F   UNL     1     108.575  98.844 119.464  1.00  0.00    -0.207 F 
ENDBRANCH   3   5
ENDBRANCH   2   3
ENDBRANCH   1   2
BRANCH   1  12
ATOM     12  C   UNL     1     114.593  99.085 114.061  1.00  0.00     0.262 C 
BRANCH  12  13
ATOM     13  N   UNL     1     113.306  99.080 113.376  1.00  0.00    -0.335 N 
ATOM     14  C   UNL     1     113.236 100.063 112.337  1.00  0.00     0.265 C 
ATOM     15  C   UNL     1     113.029  97.779 112.861  1.00  0.00     0.265 C 
ATOM     16  C   UNL     1     114.292  99.837 111.290  1.00  0.00     0.102 C 
ATOM     17  C   UNL     1     113.166  97.589 111.410  1.00  0.00     0.102 C 
ATOM     18  C   UNL     1     114.093  98.484 110.673  1.00  0.00     0.100 C 
ATOM     19  H   UNL     1     112.607  99.379 114.119  1.00  0.00     0.348 HD
BRANCH  18  20
ATOM     20  O   UNL     1     113.516  98.719 109.401  1.00  0.00    -0.385 OA
ATOM     21  H   UNL     1     112.734  98.115 109.329  1.00  0.00     0.211 HD
ENDBRANCH  18  20
BRANCH  18  22
ATOM     22  C   UNL     1     115.411  97.826 110.360  1.00  0.00    -0.016 A 
ATOM     23  C   UNL     1     115.494  96.688 109.585  1.00  0.00     0.008 A 
ATOM     24  C   UNL     1     116.611  98.314 110.826  1.00  0.00     0.008 A 
ATOM     25  C   UNL     1     116.677  96.055 109.277  1.00  0.00     0.021 A 
ATOM     26  C   UNL     1     117.811  97.697 110.530  1.00  0.00     0.021 A 
ATOM     27  C   UNL     1     117.842  96.568 109.756  1.00  0.00     0.041 A 
ATOM     28  Cl  UNL     1     119.355  95.782 109.375  1.00  0.00    -0.084 Cl
ENDBRANCH  18  22
ENDBRANCH  12  13
ENDBRANCH   1  12
TORSDOF 7
ENDMDL
MODEL 2
REMARK VINA RESULT:      -7.4      2.569      3.880
REMARK SMILES O=C(CCC[NH+]1CCC(O)(c2ccc(Cl)cc2)CC1)c1ccc(F)cc1
REMARK SMILES IDX 4 1 3 2 2 3 1 4 20 5 21 6 26 7 22 8 25 9 23 10 24 11 5 12
REMARK SMILES IDX 6 13 7 14 19 15 8 16 18 17 9 18 10 20 11 22 12 23 17 24
REMARK SMILES IDX 13 25 16 26 14 27 15 28
REMARK H PARENT 6 19 10 21
ROOT
ATOM      1  C   UNL     1     114.112 100.408 112.887  1.00  0.00     0.070 C 
ENDROOT
BRANCH   1   2
ATOM      2  C   UNL     1     114.209  99.303 113.914  1.00  0.00     0.087 C 
BRANCH   2   3
ATOM      3  C   UNL     1     114.318  99.772 115.297  1.00  0.00     0.163 C 
ATOM      4  O   UNL     1     115.264 100.514 115.667  1.00  0.00    -0.294 OA
BRANCH   3   5
ATOM      5  C   UNL     1     113.331  99.410 116.336  1.00  0.00     0.018 A 
ATOM      6  C   UNL     1     113.386  99.990 117.591  1.00  0.00     0.015 A 
ATOM      7  C   UNL     1     112.342  98.494 116.083  1.00  0.00     0.015 A 
ATOM      8  C   UNL     1     112.465  99.648 118.552  1.00  0.00     0.040 A 
ATOM      9  C   UNL     1     111.421  98.149 117.035  1.00  0.00     0.040 A 
ATOM     10  C   UNL     1     111.486  98.730 118.272  1.00  0.00     0.123 A 
ATOM     11  F   UNL     1     110.548  98.357 119.201  1.00  0.00    -0.207 F 
ENDBRANCH   3   5
ENDBRANCH   2   3
ENDBRANCH   1   2
BRANCH   1  12
ATOM     12  C   UNL     1     115.217 100.235 111.902  1.00  0.00     0.262 C 
BRANCH  12  13
ATOM     13  N   UNL     1     114.738 100.146 110.529  1.00  0.00    -0.335 N 
ATOM     14  C   UNL     1     115.356  99.078 109.803  1.00  0.00     0.265 C 
ATOM     15  C   UNL     1     113.318 100.015 110.511  1.00  0.00     0.265 C 
ATOM     16  C   UNL     1     115.091  97.745 110.447  1.00  0.00     0.102 C 
ATOM     17  C   UNL     1     112.772  98.688 110.192  1.00  0.00     0.102 C 
ATOM     18  C   UNL     1     113.612  97.499 110.479  1.00  0.00     0.100 C 
ATOM     19  H   UNL     1     115.067 101.048 110.072  1.00  0.00     0.348 HD
BRANCH  18  20
ATOM     20  O   UNL     1     113.353  96.553 109.457  1.00  0.00    -0.385 OA
ATOM     21  H   UNL     1     112.690  96.968 108.850  1.00  0.00     0.211 HD
ENDBRANCH  18  20
BRANCH  18  22
ATOM     22  C   UNL     1     113.202  96.790 111.744  1.00  0.00    -0.016 A 
ATOM     23  C   UNL     1     111.927  96.892 112.260  1.00  0.00     0.008 A 
ATOM     24  C   UNL     1     114.071  96.000 112.464  1.00  0.00     0.008 A 
ATOM     25  C   UNL     1     111.513  96.262 113.411  1.00  0.00     0.021 A 
ATOM     26  C   UNL     1     113.678  95.358 113.622  1.00  0.00     0.021 A 
ATOM     27  C   UNL     1     112.400  95.490 114.094  1.00  0.00     0.041 A 
ATOM     28  Cl  UNL     1     111.895  94.680 115.558  1.00  0.00    -0.084 Cl
ENDBRANCH  18  22
ENDBRANCH  12  13
ENDBRANCH   1  12
TORSDOF 7
ENDMDL
MODEL 3
REMARK VINA RESULT:      -7.4      2.874      4.054
REMARK SMILES O=C(CCC[NH+]1CCC(O)(c2ccc(Cl)cc2)CC1)c1ccc(F)cc1
REMARK SMILES IDX 4 1 3 2 2 3 1 4 20 5 21 6 26 7 22 8 25 9 23 10 24 11 5 12
REMARK SMILES IDX 6 13 7 14 19 15 8 16 18 17 9 18 10 20 11 22 12 23 17 24
REMARK SMILES IDX 13 25 16 26 14 27 15 28
REMARK H PARENT 6 19 10 21
ROOT
ATOM      1  C   UNL     1     112.666  98.318 114.310  1.00  0.00     0.070 C 
ENDROOT
BRANCH   1   2
ATOM      2  C   UNL     1     112.027  97.323 115.253  1.00  0.00     0.087 C 
BRANCH   2   3
ATOM      3  C   UNL     1     112.491  97.421 116.639  1.00  0.00     0.163 C 
ATOM      4  O   UNL     1     113.353  96.630 117.101  1.00  0.00    -0.294 OA
BRANCH   3   5
ATOM      5  C   UNL     1     111.983  98.448 117.573  1.00  0.00     0.018 A 
ATOM      6  C   UNL     1     112.770  99.531 117.922  1.00  0.00     0.015 A 
ATOM      7  C   UNL     1     110.726  98.353 118.112  1.00  0.00     0.015 A 
ATOM      8  C   UNL     1     112.291 100.482 118.792  1.00  0.00     0.040 A 
ATOM      9  C   UNL     1     110.242  99.296 118.979  1.00  0.00     0.040 A 
ATOM     10  C   UNL     1     111.030 100.362 119.317  1.00  0.00     0.123 A 
ATOM     11  F   UNL     1     110.512 101.285 120.189  1.00  0.00    -0.207 F 
ENDBRANCH   3   5
ENDBRANCH   2   3
ENDBRANCH   1   2
BRANCH   1  12
ATOM     12  C   UNL     1     114.037  97.837 113.976  1.00  0.00     0.262 C 
BRANCH  12  13
ATOM     13  N   UNL     1     114.856  98.864 113.347  1.00  0.00    -0.335 N 
ATOM     14  C   UNL     1     115.649  98.348 112.272  1.00  0.00     0.265 C 
ATOM     15  C   UNL     1     114.035  99.942 112.899  1.00  0.00     0.265 C 
ATOM     16  C   UNL     1     114.792  97.748 111.191  1.00  0.00     0.102 C 
ATOM     17  C   UNL     1     113.794 100.043 111.452  1.00  0.00     0.102 C 
ATOM     18  C   UNL     1     113.881  98.804 110.640  1.00  0.00     0.100 C 
ATOM     19  H   UNL     1     115.538  99.164 114.105  1.00  0.00     0.348 HD
BRANCH  18  20
ATOM     20  O   UNL     1     114.425  99.170 109.385  1.00  0.00    -0.385 OA
ATOM     21  H   UNL     1     114.643 100.134 109.442  1.00  0.00     0.211 HD
ENDBRANCH  18  20
BRANCH  18  22
ATOM     22  C   UNL     1     112.527  98.237 110.301  1.00  0.00    -0.016 A 
ATOM     23  C   UNL     1     112.051  97.081 110.883  1.00  0.00     0.008 A 
ATOM     24  C   UNL     1     111.682  98.833 109.391  1.00  0.00     0.008 A 
ATOM     25  C   UNL     1     110.822  96.530 110.601  1.00  0.00     0.021 A 
ATOM     26  C   UNL     1     110.445  98.298 109.091  1.00  0.00     0.021 A 
ATOM     27  C   UNL     1     110.016  97.148 109.696  1.00  0.00     0.041 A 
ATOM     28  Cl  UNL     1     108.451  96.466 109.324  1.00  0.00    -0.084 Cl
ENDBRANCH  18  22
ENDBRANCH  12  13
ENDBRANCH   1  12
TORSDOF 7
ENDMDL
MODEL 4
REMARK VINA RESULT:      -7.3      1.102      1.183
REMARK SMILES O=C(CCC[NH+]1CCC(O)(c2ccc(Cl)cc2)CC1)c1ccc(F)cc1
REMARK SMILES IDX 4 1 3 2 2 3 1 4 20 5 21 6 26 7 22 8 25 9 23 10 24 11 5 12
REMARK SMILES IDX 6 13 7 14 19 15 8 16 18 17 9 18 10 20 11 22 12 23 17 24
REMARK SMILES IDX 13 25 16 26 14 27 15 28
REMARK H PARENT 6 19 10 21
ROOT
ATOM      1  C   UNL     1     114.550 100.169 115.215  1.00  0.00     0.070 C 
ENDROOT
BRANCH   1   2
ATOM      2  C   UNL     1     114.845  99.077 116.219  1.00  0.00     0.087 C 
BRANCH   2   3
ATOM      3  C   UNL     1     113.683  98.265 116.587  1.00  0.00     0.163 C 
ATOM      4  O   UNL     1     113.541  97.090 116.162  1.00  0.00    -0.294 OA
BRANCH   3   5
ATOM      5  C   UNL     1     112.613  98.770 117.473  1.00  0.00     0.018 A 
ATOM      6  C   UNL     1     111.381  98.142 117.516  1.00  0.00     0.015 A 
ATOM      7  C   UNL     1     112.815  99.868 118.270  1.00  0.00     0.015 A 
ATOM      8  C   UNL     1     110.391  98.617 118.342  1.00  0.00     0.040 A 
ATOM      9  C   UNL     1     111.833 100.347 119.096  1.00  0.00     0.040 A 
ATOM     10  C   UNL     1     110.619  99.717 119.129  1.00  0.00     0.123 A 
ATOM     11  F   UNL     1     109.660 100.226 119.966  1.00  0.00    -0.207 F 
ENDBRANCH   3   5
ENDBRANCH   2   3
ENDBRANCH   1   2
BRANCH   1  12
ATOM     12  C   UNL     1     114.637  99.586 113.846  1.00  0.00     0.262 C 
BRANCH  12  13
ATOM     13  N   UNL     1     113.473  99.896 113.026  1.00  0.00    -0.335 N 
ATOM     14  C   UNL     1     113.746 100.905 112.048  1.00  0.00     0.265 C 
ATOM     15  C   UNL     1     112.978  98.710 112.406  1.00  0.00     0.265 C 
ATOM     16  C   UNL     1     114.843 100.482 111.110  1.00  0.00     0.102 C 
ATOM     17  C   UNL     1     113.243  98.545 110.970  1.00  0.00     0.102 C 
ATOM     18  C   UNL     1     114.425  99.232 110.394  1.00  0.00     0.100 C 
ATOM     19  H   UNL     1     112.772 100.319 113.705  1.00  0.00     0.348 HD
BRANCH  18  20
ATOM     20  O   UNL     1     114.071  99.635 109.083  1.00  0.00    -0.385 OA
ATOM     21  H   UNL     1     114.914  99.871 108.622  1.00  0.00     0.211 HD
ENDBRANCH  18  20
BRANCH  18  22
ATOM     22  C   UNL     1     115.593  98.304 110.187  1.00  0.00    -0.016 A 
ATOM     23  C   UNL     1     115.541  97.249 109.299  1.00  0.00     0.008 A 
ATOM     24  C   UNL     1     116.782  98.447 110.867  1.00  0.00     0.008 A 
ATOM     25  C   UNL     1     116.585  96.378 109.082  1.00  0.00     0.021 A 
ATOM     26  C   UNL     1     117.843  97.585 110.666  1.00  0.00     0.021 A 
ATOM     27  C   UNL     1     117.743  96.553 109.773  1.00  0.00     0.041 A 
ATOM     28  Cl  UNL     1     119.080  95.459 109.510  1.00  0.00    -0.084 Cl
ENDBRANCH  18  22
ENDBRANCH  12  13
ENDBRANCH   1  12
TORSDOF 7
ENDMDL
MODEL 5
REMARK VINA RESULT:      -7.3      2.987      4.140
REMARK SMILES O=C(CCC[NH+]1CCC(O)(c2ccc(Cl)cc2)CC1)c1ccc(F)cc1
REMARK SMILES IDX 4 1 3 2 2 3 1 4 20 5 21 6 26 7 22 8 25 9 23 10 24 11 5 12
REMARK SMILES IDX 6 13 7 14 19 15 8 16 18 17 9 18 10 20 11 22 12 23 17 24
REMARK SMILES IDX 13 25 16 26 14 27 15 28
REMARK H PARENT 6 19 10 21
ROOT
ATOM      1  C   UNL     1     112.978  98.060 114.672  1.00  0.00     0.070 C 
ENDROOT
BRANCH   1   2
ATOM      2  C   UNL     1     112.249  96.748 114.859  1.00  0.00     0.087 C 
BRANCH   2   3
ATOM      3  C   UNL     1     111.718  96.541 116.209  1.00  0.00     0.163 C 
ATOM      4  O   UNL     1     111.383  95.398 116.614  1.00  0.00    -0.294 OA
BRANCH   3   5
ATOM      5  C   UNL     1     111.546  97.650 117.170  1.00  0.00     0.018 A 
ATOM      6  C   UNL     1     110.305  97.916 117.720  1.00  0.00     0.015 A 
ATOM      7  C   UNL     1     112.607  98.436 117.540  1.00  0.00     0.015 A 
ATOM      8  C   UNL     1     110.151  98.949 118.614  1.00  0.00     0.040 A 
ATOM      9  C   UNL     1     112.462  99.467 118.430  1.00  0.00     0.040 A 
ATOM     10  C   UNL     1     111.229  99.721 118.966  1.00  0.00     0.123 A 
ATOM     11  F   UNL     1     111.123 100.762 119.851  1.00  0.00    -0.207 F 
ENDBRANCH   3   5
ENDBRANCH   2   3
ENDBRANCH   1   2
BRANCH   1  12
ATOM     12  C   UNL     1     114.266  97.787 113.973  1.00  0.00     0.262 C 
BRANCH  12  13
ATOM     13  N   UNL     1     114.894  98.997 113.457  1.00  0.00    -0.335 N 
ATOM     14  C   UNL     1     115.691  98.747 112.295  1.00  0.00     0.265 C 
ATOM     15  C   UNL     1     113.904  99.989 113.189  1.00  0.00     0.265 C 
ATOM     16  C   UNL     1     114.871  98.168 111.176  1.00  0.00     0.102 C 
ATOM     17  C   UNL     1     113.571 100.237 111.779  1.00  0.00     0.102 C 
ATOM     18  C   UNL     1     113.789  99.138 110.805  1.00  0.00     0.100 C 
ATOM     19  H   UNL     1     115.568  99.296 114.224  1.00  0.00     0.348 HD
BRANCH  18  20
ATOM     20  O   UNL     1     114.204  99.739 109.591  1.00  0.00    -0.385 OA
ATOM     21  H   UNL     1     113.521  99.508 108.913  1.00  0.00     0.211 HD
ENDBRANCH  18  20
BRANCH  18  22
ATOM     22  C   UNL     1     112.514  98.424 110.441  1.00  0.00    -0.016 A 
ATOM     23  C   UNL     1     112.076  97.311 111.129  1.00  0.00     0.008 A 
ATOM     24  C   UNL     1     111.705  98.834 109.404  1.00  0.00     0.008 A 
ATOM     25  C   UNL     1     110.919  96.630 110.829  1.00  0.00     0.021 A 
ATOM     26  C   UNL     1     110.540  98.166 109.084  1.00  0.00     0.021 A 
ATOM     27  C   UNL     1     110.148  97.065 109.796  1.00  0.00     0.041 A 
ATOM     28  Cl  UNL     1     108.673  96.216 109.400  1.00  0.00    -0.084 Cl
ENDBRANCH  18  22
ENDBRANCH  12  13
ENDBRANCH   1  12
TORSDOF 7
ENDMDL
MODEL 6
REMARK VINA RESULT:      -7.2      2.563      3.728
REMARK SMILES O=C(CCC[NH+]1CCC(O)(c2ccc(Cl)cc2)CC1)c1ccc(F)cc1
REMARK SMILES IDX 4 1 3 2 2 3 1 4 20 5 21 6 26 7 22 8 25 9 23 10 24 11 5 12
REMARK SMILES IDX 6 13 7 14 19 15 8 16 18 17 9 18 10 20 11 22 12 23 17 24
REMARK SMILES IDX 13 25 16 26 14 27 15 28
REMARK H PARENT 6 19 10 21
ROOT
ATOM      1  C   UNL     1     113.499 100.245 113.956  1.00  0.00     0.070 C 
ENDROOT
BRANCH   1   2
ATOM      2  C   UNL     1     113.806  99.224 115.029  1.00  0.00     0.087 C 
BRANCH   2   3
ATOM      3  C   UNL     1     113.628  99.715 116.397  1.00  0.00     0.163 C 
ATOM      4  O   UNL     1     114.481 100.461 116.944  1.00  0.00    -0.294 OA
BRANCH   3   5
ATOM      5  C   UNL     1     112.445  99.371 117.214  1.00  0.00     0.018 A 
ATOM      6  C   UNL     1     112.047 100.193 118.254  1.00  0.00     0.015 A 
ATOM      7  C   UNL     1     111.718  98.236 116.963  1.00  0.00     0.015 A 
ATOM      8  C   UNL     1     110.947  99.867 119.010  1.00  0.00     0.040 A 
ATOM      9  C   UNL     1     110.621  97.905 117.712  1.00  0.00     0.040 A 
ATOM     10  C   UNL     1     110.237  98.725 118.737  1.00  0.00     0.123 A 
ATOM     11  F   UNL     1     109.135  98.359 119.466  1.00  0.00    -0.207 F 
ENDBRANCH   3   5
ENDBRANCH   2   3
ENDBRANCH   1   2
BRANCH   1  12
ATOM     12  C   UNL     1     114.766 100.574 113.243  1.00  0.00     0.262 C 
BRANCH  12  13
ATOM     13  N   UNL     1     114.615 100.565 111.794  1.00  0.00    -0.335 N 
ATOM     14  C   UNL     1     115.521  99.660 111.155  1.00  0.00     0.265 C 
ATOM     15  C   UNL     1     113.266 100.264 111.442  1.00  0.00     0.265 C 
ATOM     16  C   UNL     1     115.314  98.246 111.625  1.00  0.00     0.102 C 
ATOM     17  C   UNL     1     112.996  98.919 110.913  1.00  0.00     0.102 C 
ATOM     18  C   UNL     1     113.914  97.819 111.301  1.00  0.00     0.100 C 
ATOM     19  H   UNL     1     114.904 101.543 111.489  1.00  0.00     0.348 HD
BRANCH  18  20
ATOM     20  O   UNL     1     114.020  96.957 110.182  1.00  0.00    -0.385 OA
ATOM     21  H   UNL     1     114.888  96.488 110.268  1.00  0.00     0.211 HD
ENDBRANCH  18  20
BRANCH  18  22
ATOM     22  C   UNL     1     113.343  96.942 112.385  1.00  0.00    -0.016 A 
ATOM     23  C   UNL     1     114.129  96.071 113.111  1.00  0.00     0.008 A 
ATOM     24  C   UNL     1     112.007  96.954 112.720  1.00  0.00     0.008 A 
ATOM     25  C   UNL     1     113.648  95.254 114.108  1.00  0.00     0.021 A 
ATOM     26  C   UNL     1     111.502  96.142 113.716  1.00  0.00     0.021 A 
ATOM     27  C   UNL     1     112.322  95.294 114.409  1.00  0.00     0.041 A 
ATOM     28  Cl  UNL     1     111.691  94.266 115.673  1.00  0.00    -0.084 Cl
ENDBRANCH  18  22
ENDBRANCH  12  13
ENDBRANCH   1  12
TORSDOF 7
ENDMDL
MODEL 7
REMARK VINA RESULT:      -7.2      2.545      3.690
REMARK SMILES O=C(CCC[NH+]1CCC(O)(c2ccc(Cl)cc2)CC1)c1ccc(F)cc1
REMARK SMILES IDX 4 1 3 2 2 3 1 4 20 5 21 6 26 7 22 8 25 9 23 10 24 11 5 12
REMARK SMILES IDX 6 13 7 14 19 15 8 16 18 17 9 18 10 20 11 22 12 23 17 24
REMARK SMILES IDX 13 25 16 26 14 27 15 28
REMARK H PARENT 6 19 10 21
ROOT
ATOM      1  C   UNL     1     113.822 100.176 113.420  1.00  0.00     0.070 C 
ENDROOT
BRANCH   1   2
ATOM      2  C   UNL     1     114.176  99.200 114.519  1.00  0.00     0.087 C 
BRANCH   2   3
ATOM      3  C   UNL     1     114.066  99.750 115.872  1.00  0.00     0.163 C 
ATOM      4  O   UNL     1     114.934 100.535 116.335  1.00  0.00    -0.294 OA
BRANCH   3   5
ATOM      5  C   UNL     1     112.939  99.423 116.771  1.00  0.00     0.018 A 
ATOM      6  C   UNL     1     112.165  98.298 116.547  1.00  0.00     0.015 A 
ATOM      7  C   UNL     1     112.635 100.222 117.843  1.00  0.00     0.015 A 
ATOM      8  C   UNL     1     111.119  98.000 117.386  1.00  0.00     0.040 A 
ATOM      9  C   UNL     1     111.594  99.932 118.684  1.00  0.00     0.040 A 
ATOM     10  C   UNL     1     110.836  98.816 118.452  1.00  0.00     0.123 A 
ATOM     11  F   UNL     1     109.802  98.560 119.314  1.00  0.00    -0.207 F 
ENDBRANCH   3   5
ENDBRANCH   2   3
ENDBRANCH   1   2
BRANCH   1  12
ATOM     12  C   UNL     1     114.997 100.310 112.513  1.00  0.00     0.262 C 
BRANCH  12  13
ATOM     13  N   UNL     1     114.634 100.217 111.104  1.00  0.00    -0.335 N 
ATOM     14  C   UNL     1     115.376  99.207 110.414  1.00  0.00     0.265 C 
ATOM     15  C   UNL     1     113.231  99.996 110.971  1.00  0.00     0.265 C 
ATOM     16  C   UNL     1     115.149  97.847 111.015  1.00  0.00     0.102 C 
ATOM     17  C   UNL     1     112.800  98.644 110.590  1.00  0.00     0.102 C 
ATOM     18  C   UNL     1     113.691  97.505 110.925  1.00  0.00     0.100 C 
ATOM     19  H   UNL     1     114.938 101.148 110.689  1.00  0.00     0.348 HD
BRANCH  18  20
ATOM     20  O   UNL     1     113.576  96.566 109.872  1.00  0.00    -0.385 OA
ATOM     21  H   UNL     1     114.381  96.676 109.306  1.00  0.00     0.211 HD
ENDBRANCH  18  20
BRANCH  18  22
ATOM     22  C   UNL     1     113.231  96.747 112.143  1.00  0.00    -0.016 A 
ATOM     23  C   UNL     1     111.936  96.830 112.611  1.00  0.00     0.008 A 
ATOM     24  C   UNL     1     114.069  95.925 112.864  1.00  0.00     0.008 A 
ATOM     25  C   UNL     1     111.476  96.155 113.718  1.00  0.00     0.021 A 
ATOM     26  C   UNL     1     113.630  95.238 113.978  1.00  0.00     0.021 A 
ATOM     27  C   UNL     1     112.335  95.353 114.404  1.00  0.00     0.041 A 
ATOM     28  Cl  UNL     1     111.770  94.485 115.811  1.00  0.00    -0.084 Cl
ENDBRANCH  18  22
ENDBRANCH  12  13
ENDBRANCH   1  12
TORSDOF 7
ENDMDL
MODEL 8
REMARK VINA RESULT:      -7.2      3.117      4.688
REMARK SMILES O=C(CCC[NH+]1CCC(O)(c2ccc(Cl)cc2)CC1)c1ccc(F)cc1
REMARK SMILES IDX 4 1 3 2 2 3 1 4 20 5 21 6 26 7 22 8 25 9 23 10 24 11 5 12
REMARK SMILES IDX 6 13 7 14 19 15 8 16 18 17 9 18 10 20 11 22 12 23 17 24
REMARK SMILES IDX 13 25 16 26 14 27 15 28
REMARK H PARENT 6 19 10 21
ROOT
ATOM      1  C   UNL     1     115.059  99.869 111.449  1.00  0.00     0.070 C 
ENDROOT
BRANCH   1   2
ATOM      2  C   UNL     1     114.825  99.326 112.841  1.00  0.00     0.087 C 
BRANCH   2   3
ATOM      3  C   UNL     1     113.748  99.993 113.575  1.00  0.00     0.163 C 
ATOM      4  O   UNL     1     112.893 100.704 112.986  1.00  0.00    -0.294 OA
BRANCH   3   5
ATOM      5  C   UNL     1     113.597  99.875 115.041  1.00  0.00     0.018 A 
ATOM      6  C   UNL     1     112.342  99.757 115.611  1.00  0.00     0.015 A 
ATOM      7  C   UNL     1     114.692  99.879 115.867  1.00  0.00     0.015 A 
ATOM      8  C   UNL     1     112.209  99.648 116.974  1.00  0.00     0.040 A 
ATOM      9  C   UNL     1     114.567  99.771 117.226  1.00  0.00     0.040 A 
ATOM     10  C   UNL     1     113.320  99.654 117.778  1.00  0.00     0.123 A 
ATOM     11  F   UNL     1     113.236  99.550 119.142  1.00  0.00    -0.207 F 
ENDBRANCH   3   5
ENDBRANCH   2   3
ENDBRANCH   1   2
BRANCH   1  12
ATOM     12  C   UNL     1     115.998  98.955 110.739  1.00  0.00     0.262 C 
BRANCH  12  13
ATOM     13  N   UNL     1     115.436  98.416 109.508  1.00  0.00    -0.335 N 
ATOM     14  C   UNL     1     115.786  97.043 109.302  1.00  0.00     0.265 C 
ATOM     15  C   UNL     1     114.019  98.584 109.500  1.00  0.00     0.265 C 
ATOM     16  C   UNL     1     115.295  96.173 110.427  1.00  0.00     0.102 C 
ATOM     17  C   UNL     1     113.201  97.385 109.735  1.00  0.00     0.102 C 
ATOM     18  C   UNL     1     113.801  96.271 110.510  1.00  0.00     0.100 C 
ATOM     19  H   UNL     1     115.912  98.966 108.733  1.00  0.00     0.348 HD
BRANCH  18  20
ATOM     20  O   UNL     1     113.301  95.067 109.957  1.00  0.00    -0.385 OA
ATOM     21  H   UNL     1     112.487  95.307 109.446  1.00  0.00     0.211 HD
ENDBRANCH  18  20
BRANCH  18  22
ATOM     22  C   UNL     1     113.329  96.239 111.940  1.00  0.00    -0.016 A 
ATOM     23  C   UNL     1     112.138  96.815 112.331  1.00  0.00     0.008 A 
ATOM     24  C   UNL     1     114.052  95.635 112.945  1.00  0.00     0.008 A 
ATOM     25  C   UNL     1     111.672  96.808 113.626  1.00  0.00     0.021 A 
ATOM     26  C   UNL     1     113.605  95.616 114.251  1.00  0.00     0.021 A 
ATOM     27  C   UNL     1     112.415  96.202 114.590  1.00  0.00     0.041 A 
ATOM     28  Cl  UNL     1     111.841  96.180 116.240  1.00  0.00    -0.084 Cl
ENDBRANCH  18  22
ENDBRANCH  12  13
ENDBRANCH   1  12
TORSDOF 7
ENDMDL
MODEL 9
REMARK VINA RESULT:      -7.1      0.902      1.338
REMARK SMILES O=C(CCC[NH+]1CCC(O)(c2ccc(Cl)cc2)CC1)c1ccc(F)cc1
REMARK SMILES IDX 4 1 3 2 2 3 1 4 20 5 21 6 26 7 22 8 25 9 23 10 24 11 5 12
REMARK SMILES IDX 6 13 7 14 19 15 8 16 18 17 9 18 10 20 11 22 12 23 17 24
REMARK SMILES IDX 13 25 16 26 14 27 15 28
REMARK H PARENT 6 19 10 21
ROOT
ATOM      1  C   UNL     1     114.353  97.868 114.594  1.00  0.00     0.070 C 
ENDROOT
BRANCH   1   2
ATOM      2  C   UNL     1     113.044  97.743 115.342  1.00  0.00     0.087 C 
BRANCH   2   3
ATOM      3  C   UNL     1     113.158  97.924 116.791  1.00  0.00     0.163 C 
ATOM      4  O   UNL     1     114.240  97.709 117.397  1.00  0.00    -0.294 OA
BRANCH   3   5
ATOM      5  C   UNL     1     112.022  98.368 117.626  1.00  0.00     0.018 A 
ATOM      6  C   UNL     1     112.130  99.498 118.416  1.00  0.00     0.015 A 
ATOM      7  C   UNL     1     110.840  97.673 117.637  1.00  0.00     0.015 A 
ATOM      8  C   UNL     1     111.070  99.905 119.190  1.00  0.00     0.040 A 
ATOM      9  C   UNL     1     109.779  98.073 118.405  1.00  0.00     0.040 A 
ATOM     10  C   UNL     1     109.898  99.193 119.182  1.00  0.00     0.123 A 
ATOM     11  F   UNL     1     108.816  99.559 119.939  1.00  0.00    -0.207 F 
ENDBRANCH   3   5
ENDBRANCH   2   3
ENDBRANCH   1   2
BRANCH   1  12
ATOM     12  C   UNL     1     114.348  99.157 113.847  1.00  0.00     0.262 C 
BRANCH  12  13
ATOM     13  N   UNL     1     113.147  99.336 113.041  1.00  0.00    -0.335 N 
ATOM     14  C   UNL     1     113.286 100.388 112.079  1.00  0.00     0.265 C 
ATOM     15  C   UNL     1     112.797  98.109 112.403  1.00  0.00     0.265 C 
ATOM     16  C   UNL     1     114.419 100.119 111.126  1.00  0.00     0.102 C 
ATOM     17  C   UNL     1     113.068  98.003 110.962  1.00  0.00     0.102 C 
ATOM     18  C   UNL     1     114.152  98.840 110.391  1.00  0.00     0.100 C 
ATOM     19  H   UNL     1     112.406  99.658 113.732  1.00  0.00     0.348 HD
BRANCH  18  20
ATOM     20  O   UNL     1     113.739  99.219 109.090  1.00  0.00    -0.385 OA
ATOM     21  H   UNL     1     113.658 100.205 109.095  1.00  0.00     0.211 HD
ENDBRANCH  18  20
BRANCH  18  22
ATOM     22  C   UNL     1     115.423  98.066 110.159  1.00  0.00    -0.016 A 
ATOM     23  C   UNL     1     115.470  96.970 109.324  1.00  0.00     0.008 A 
ATOM     24  C   UNL     1     116.614  98.401 110.765  1.00  0.00     0.008 A 
ATOM     25  C   UNL     1     116.610  96.235 109.086  1.00  0.00     0.021 A 
ATOM     26  C   UNL     1     117.770  97.679 110.542  1.00  0.00     0.021 A 
ATOM     27  C   UNL     1     117.767  96.597 109.703  1.00  0.00     0.041 A 
ATOM     28  Cl  UNL     1     119.225  95.680 109.413  1.00  0.00    -0.084 Cl
ENDBRANCH  18  22
ENDBRANCH  12  13
ENDBRANCH   1  12
TORSDOF 7
ENDMDL
