MODEL 1
REMARK VINA RESULT:      -7.9      0.000      0.000
REMARK SMILES O=C1NCN(c2ccccc2)C12CC[NH+](CCCC(c1ccc(F)cc1)c1ccc(F)cc1)CC2
REMARK SMILES IDX 17 1 16 2 15 3 1 4 2 5 3 6 12 7 4 8 5 9 13 10 35 11 14 12
REMARK SMILES IDX 34 13 6 16 7 17 11 18 8 19 10 20 9 21 18 22 19 23 20 24
REMARK SMILES IDX 21 25 26 26 22 27 25 28 23 29 24 30 27 31 28 32 33 33 29 34
REMARK SMILES IDX 32 35 30 36 31 37
REMARK H PARENT 3 14 15 15
ROOT
ATOM      1  C   UNL     1     114.648 100.286 114.427  1.00  0.00     0.062 C 
ENDROOT
BRANCH   1   2
ATOM      2  C   UNL     1     113.363 100.301 113.652  1.00  0.00     0.262 C 
BRANCH   2   3
ATOM      3  N   UNL     1     113.376  99.252 112.639  1.00  0.00    -0.335 N 
ATOM      4  O   UNL     1     111.840  96.720 111.350  1.00  0.00    -0.272 OA
ATOM      5  C   UNL     1     112.900  96.441 110.753  1.00  0.00     0.247 C 
ATOM      6  N   UNL     1     113.060  95.337 109.897  1.00  0.00    -0.336 N 
ATOM      7  C   UNL     1     114.188  97.227 110.839  1.00  0.00     0.131 C 
ATOM      8  C   UNL     1     114.199  95.624 109.084  1.00  0.00     0.238 C 
ATOM      9  N   UNL     1     115.051  96.457 109.947  1.00  0.00    -0.339 N 
ATOM     10  C   UNL     1     114.677  97.201 112.273  1.00  0.00     0.100 C 
ATOM     11  C   UNL     1     113.907  98.609 110.368  1.00  0.00     0.100 C 
ATOM     12  C   UNL     1     113.744  97.963 113.186  1.00  0.00     0.265 C 
ATOM     13  C   UNL     1     114.146  99.588 111.470  1.00  0.00     0.265 C 
ATOM     14  H   UNL     1     112.445  94.479 109.879  1.00  0.00     0.165 HD
ATOM     15  H   UNL     1     112.379  99.178 112.339  1.00  0.00     0.348 HD
BRANCH   9  16
ATOM     16  C   UNL     1     116.465  96.413 109.842  1.00  0.00     0.039 A 
ATOM     17  C   UNL     1     117.243  97.447 110.306  1.00  0.00     0.026 A 
ATOM     18  C   UNL     1     117.068  95.323 109.294  1.00  0.00     0.026 A 
ATOM     19  C   UNL     1     118.638  97.406 110.227  1.00  0.00     0.002 A 
ATOM     20  C   UNL     1     118.431  95.263 109.207  1.00  0.00     0.002 A 
ATOM     21  C   UNL     1     119.217  96.288 109.666  1.00  0.00     0.000 A 
ENDBRANCH   9  16
ENDBRANCH   2   3
ENDBRANCH   1   2
BRANCH   1  22
ATOM     22  C   UNL     1     114.701 101.098 115.648  1.00  0.00     0.019 C 
BRANCH  22  23
ATOM     23  C   UNL     1     114.757 100.516 116.982  1.00  0.00     0.049 C 
BRANCH  23  24
ATOM     24  C   UNL     1     113.570  99.678 117.377  1.00  0.00    -0.040 A 
ATOM     25  C   UNL     1     112.730 100.209 118.331  1.00  0.00     0.007 A 
ATOM     26  C   UNL     1     113.332  98.438 116.848  1.00  0.00     0.007 A 
ATOM     27  C   UNL     1     111.640  99.497 118.762  1.00  0.00     0.039 A 
ATOM     28  C   UNL     1     112.243  97.731 117.280  1.00  0.00     0.039 A 
ATOM     29  C   UNL     1     111.374  98.248 118.248  1.00  0.00     0.123 A 
ATOM     30  F   UNL     1     110.292  97.553 118.683  1.00  0.00    -0.207 F 
ENDBRANCH  23  24
BRANCH  23  31
ATOM     31  C   UNL     1     115.989  99.933 117.488  1.00  0.00    -0.040 A 
ATOM     32  C   UNL     1     117.194 100.562 117.630  1.00  0.00     0.007 A 
ATOM     33  C   UNL     1     115.909  98.581 117.846  1.00  0.00     0.007 A 
ATOM     34  C   UNL     1     118.285  99.832 118.119  1.00  0.00     0.039 A 
ATOM     35  C   UNL     1     116.958  97.864 118.323  1.00  0.00     0.039 A 
ATOM     36  C   UNL     1     118.166  98.508 118.459  1.00  0.00     0.123 A 
ATOM     37  F   UNL     1     119.209  97.778 118.938  1.00  0.00    -0.207 F 
ENDBRANCH  23  31
ENDBRANCH  22  23
ENDBRANCH   1  22
TORSDOF 7
ENDMDL
MODEL 2
REMARK VINA RESULT:      -7.5      2.960      7.678
REMARK SMILES O=C1NCN(c2ccccc2)C12CC[NH+](CCCC(c1ccc(F)cc1)c1ccc(F)cc1)CC2
REMARK SMILES IDX 17 1 16 2 15 3 1 4 2 5 3 6 12 7 4 8 5 9 13 10 35 11 14 12
REMARK SMILES IDX 34 13 6 16 7 17 11 18 8 19 10 20 9 21 18 22 19 23 20 24
REMARK SMILES IDX 21 25 26 26 22 27 25 28 23 29 24 30 27 31 28 32 33 33 29 34
REMARK SMILES IDX 32 35 30 36 31 37
REMARK H PARENT 3 14 15 15
ROOT
ATOM      1  C   UNL     1     113.158  96.630 111.765  1.00  0.00     0.062 C 
ENDROOT
BRANCH   1   2
ATOM      2  C   UNL     1     113.221  95.885 113.066  1.00  0.00     0.262 C 
BRANCH   2   3
ATOM      3  N   UNL     1     113.104  96.814 114.184  1.00  0.00    -0.335 N 
ATOM      4  O   UNL     1     111.404  99.193 115.554  1.00  0.00    -0.272 OA
ATOM      5  C   UNL     1     112.383  99.400 116.300  1.00  0.00     0.247 C 
ATOM      6  N   UNL     1     112.431 100.401 117.287  1.00  0.00    -0.336 N 
ATOM      7  C   UNL     1     113.679  98.622 116.281  1.00  0.00     0.131 C 
ATOM      8  C   UNL     1     113.468 100.019 118.192  1.00  0.00     0.238 C 
ATOM      9  N   UNL     1     114.424  99.284 117.350  1.00  0.00    -0.339 N 
ATOM     10  C   UNL     1     114.335  98.805 114.927  1.00  0.00     0.100 C 
ATOM     11  C   UNL     1     113.356  97.198 116.559  1.00  0.00     0.100 C 
ATOM     12  C   UNL     1     113.524  98.154 113.831  1.00  0.00     0.265 C 
ATOM     13  C   UNL     1     113.733  96.346 115.391  1.00  0.00     0.265 C 
ATOM     14  H   UNL     1     111.811 101.254 117.326  1.00  0.00     0.165 HD
ATOM     15  H   UNL     1     112.078  96.859 114.369  1.00  0.00     0.348 HD
BRANCH   9  16
ATOM     16  C   UNL     1     115.814  99.309 117.626  1.00  0.00     0.039 A 
ATOM     17  C   UNL     1     116.562 100.441 117.406  1.00  0.00     0.026 A 
ATOM     18  C   UNL     1     116.421  98.203 118.138  1.00  0.00     0.026 A 
ATOM     19  C   UNL     1     117.929 100.484 117.694  1.00  0.00     0.002 A 
ATOM     20  C   UNL     1     117.757  98.223 118.427  1.00  0.00     0.002 A 
ATOM     21  C   UNL     1     118.512  99.346 118.211  1.00  0.00     0.000 A 
ENDBRANCH   9  16
ENDBRANCH   2   3
ENDBRANCH   1   2
BRANCH   1  22
ATOM     22  C   UNL     1     114.051  96.178 110.692  1.00  0.00     0.019 C 
BRANCH  22  23
ATOM     23  C   UNL     1     115.018  97.055 110.047  1.00  0.00     0.049 C 
BRANCH  23  24
ATOM     24  C   UNL     1     114.907  98.516 110.396  1.00  0.00    -0.040 A 
ATOM     25  C   UNL     1     114.088  99.282 109.596  1.00  0.00     0.007 A 
ATOM     26  C   UNL     1     115.595  99.081 111.437  1.00  0.00     0.007 A 
ATOM     27  C   UNL     1     113.952 100.626 109.835  1.00  0.00     0.039 A 
ATOM     28  C   UNL     1     115.457 100.422 111.672  1.00  0.00     0.039 A 
ATOM     29  C   UNL     1     114.631 101.222 110.874  1.00  0.00     0.123 A 
ATOM     30  F   UNL     1     114.489 102.553 111.100  1.00  0.00    -0.207 F 
ENDBRANCH  23  24
BRANCH  23  31
ATOM     31  C   UNL     1     116.412  96.662 109.921  1.00  0.00    -0.040 A 
ATOM     32  C   UNL     1     116.889  95.508 109.367  1.00  0.00     0.007 A 
ATOM     33  C   UNL     1     117.341  97.571 110.444  1.00  0.00     0.007 A 
ATOM     34  C   UNL     1     118.272  95.287 109.349  1.00  0.00     0.039 A 
ATOM     35  C   UNL     1     118.683  97.369 110.432  1.00  0.00     0.039 A 
ATOM     36  C   UNL     1     119.150  96.202 109.873  1.00  0.00     0.123 A 
ATOM     37  F   UNL     1     120.497  96.013 109.867  1.00  0.00    -0.207 F 
ENDBRANCH  23  31
ENDBRANCH  22  23
ENDBRANCH   1  22
TORSDOF 7
ENDMDL
MODEL 3
REMARK VINA RESULT:      -7.1      3.539      8.233
REMARK SMILES O=C1NCN(c2ccccc2)C12CC[NH+](CCCC(c1ccc(F)cc1)c1ccc(F)cc1)CC2
REMARK SMILES IDX 17 1 16 2 15 3 1 4 2 5 3 6 12 7 4 8 5 9 13 10 35 11 14 12
REMARK SMILES IDX 34 13 6 16 7 17 11 18 8 19 10 20 9 21 18 22 19 23 20 24
REMARK SMILES IDX 21 25 26 26 22 27 25 28 23 29 24 30 27 31 28 32 33 33 29 34
REMARK SMILES IDX 32 35 30 36 31 37
REMARK H PARENT 3 14 15 15
ROOT
ATOM      1  C   UNL     1     114.440 100.897 112.102  1.00  0.00     0.062 C 
ENDROOT
BRANCH   1   2
ATOM      2  C   UNL     1     115.031 101.252 113.434  1.00  0.00     0.262 C 
BRANCH   2   3
ATOM      3  N   UNL     1     114.226 100.684 114.509  1.00  0.00    -0.335 N 
ATOM      4  O   UNL     1     113.447 100.775 117.642  1.00  0.00    -0.272 OA
ATOM      5  C   UNL     1     112.892  99.667 117.488  1.00  0.00     0.247 C 
ATOM      6  N   UNL     1     112.249  98.954 118.515  1.00  0.00    -0.336 N 
ATOM      7  C   UNL     1     112.811  98.900 116.188  1.00  0.00     0.131 C 
ATOM      8  C   UNL     1     111.377  98.023 117.869  1.00  0.00     0.238 C 
ATOM      9  N   UNL     1     112.059  97.718 116.602  1.00  0.00    -0.339 N 
ATOM     10  C   UNL     1     114.217  98.558 115.739  1.00  0.00     0.100 C 
ATOM     11  C   UNL     1     112.101  99.756 115.201  1.00  0.00     0.100 C 
ATOM     12  C   UNL     1     114.992  99.799 115.361  1.00  0.00     0.265 C 
ATOM     13  C   UNL     1     113.002 100.077 114.054  1.00  0.00     0.265 C 
ATOM     14  H   UNL     1     112.399  99.098 119.550  1.00  0.00     0.165 HD
ATOM     15  H   UNL     1     113.962 101.508 115.091  1.00  0.00     0.348 HD
BRANCH   9  16
ATOM     16  C   UNL     1     111.940  96.442 115.994  1.00  0.00     0.039 A 
ATOM     17  C   UNL     1     112.415  96.213 114.725  1.00  0.00     0.026 A 
ATOM     18  C   UNL     1     111.366  95.418 116.683  1.00  0.00     0.026 A 
ATOM     19  C   UNL     1     112.322  94.954 114.124  1.00  0.00     0.002 A 
ATOM     20  C   UNL     1     111.264  94.178 116.114  1.00  0.00     0.002 A 
ATOM     21  C   UNL     1     111.734  93.939 114.849  1.00  0.00     0.000 A 
ENDBRANCH   9  16
ENDBRANCH   2   3
ENDBRANCH   1   2
BRANCH   1  22
ATOM     22  C   UNL     1     115.358 100.383 111.079  1.00  0.00     0.019 C 
BRANCH  22  23
ATOM     23  C   UNL     1     115.043  99.235 110.240  1.00  0.00     0.049 C 
BRANCH  23  24
ATOM     24  C   UNL     1     116.140  98.213 110.096  1.00  0.00    -0.040 A 
ATOM     25  C   UNL     1     115.891  97.156 109.248  1.00  0.00     0.007 A 
ATOM     26  C   UNL     1     117.321  98.296 110.783  1.00  0.00     0.007 A 
ATOM     27  C   UNL     1     116.831  96.171 109.082  1.00  0.00     0.039 A 
ATOM     28  C   UNL     1     118.257  97.311 110.613  1.00  0.00     0.039 A 
ATOM     29  C   UNL     1     118.029  96.227 109.757  1.00  0.00     0.123 A 
ATOM     30  F   UNL     1     118.951  95.246 109.584  1.00  0.00    -0.207 F 
ENDBRANCH  23  24
BRANCH  23  31
ATOM     31  C   UNL     1     113.745  98.586 110.324  1.00  0.00    -0.040 A 
ATOM     32  C   UNL     1     113.329  97.709 111.286  1.00  0.00     0.007 A 
ATOM     33  C   UNL     1     112.851  98.897 109.291  1.00  0.00     0.007 A 
ATOM     34  C   UNL     1     112.043  97.164 111.195  1.00  0.00     0.039 A 
ATOM     35  C   UNL     1     111.601  98.376 109.193  1.00  0.00     0.039 A 
ATOM     36  C   UNL     1     111.197  97.493 110.167  1.00  0.00     0.123 A 
ATOM     37  F   UNL     1     109.942  96.980 110.056  1.00  0.00    -0.207 F 
ENDBRANCH  23  31
ENDBRANCH  22  23
ENDBRANCH   1  22
TORSDOF 7
ENDMDL
MODEL 4
REMARK VINA RESULT:      -6.9      2.308      3.974
REMARK SMILES O=C1NCN(c2ccccc2)C12CC[NH+](CCCC(c1ccc(F)cc1)c1ccc(F)cc1)CC2
REMARK SMILES IDX 17 1 16 2 15 3 1 4 2 5 3 6 12 7 4 8 5 9 13 10 35 11 14 12
REMARK SMILES IDX 34 13 6 16 7 17 11 18 8 19 10 20 9 21 18 22 19 23 20 24
REMARK SMILES IDX 21 25 26 26 22 27 25 28 23 29 24 30 27 31 28 32 33 33 29 34
REMARK SMILES IDX 32 35 30 36 31 37
REMARK H PARENT 3 14 15 15
ROOT
ATOM      1  C   UNL     1     111.712  95.640 115.454  1.00  0.00     0.062 C 
ENDROOT
BRANCH   1   2
ATOM      2  C   UNL     1     112.163  94.651 114.420  1.00  0.00     0.262 C 
BRANCH   2   3
ATOM      3  N   UNL     1     112.525  95.341 113.188  1.00  0.00    -0.335 N 
ATOM      4  O   UNL     1     113.628  95.076 110.164  1.00  0.00    -0.272 OA
ATOM      5  C   UNL     1     113.799  96.312 110.168  1.00  0.00     0.247 C 
ATOM      6  N   UNL     1     114.320  97.044 109.086  1.00  0.00    -0.336 N 
ATOM      7  C   UNL     1     113.482  97.238 111.320  1.00  0.00     0.131 C 
ATOM      8  C   UNL     1     113.928  98.402 109.296  1.00  0.00     0.238 C 
ATOM      9  N   UNL     1     113.867  98.531 110.760  1.00  0.00    -0.339 N 
ATOM     10  C   UNL     1     114.341  96.848 112.506  1.00  0.00     0.100 C 
ATOM     11  C   UNL     1     112.030  97.112 111.615  1.00  0.00     0.100 C 
ATOM     12  C   UNL     1     113.958  95.487 113.039  1.00  0.00     0.265 C 
ATOM     13  C   UNL     1     111.829  96.587 112.999  1.00  0.00     0.265 C 
ATOM     14  H   UNL     1     114.884  96.643 108.289  1.00  0.00     0.165 HD
ATOM     15  H   UNL     1     112.208  94.695 112.433  1.00  0.00     0.348 HD
BRANCH   9  16
ATOM     16  C   UNL     1     114.172  99.759 111.401  1.00  0.00     0.039 A 
ATOM     17  C   UNL     1     114.344  99.825 112.763  1.00  0.00     0.026 A 
ATOM     18  C   UNL     1     114.318 100.890 110.658  1.00  0.00     0.026 A 
ATOM     19  C   UNL     1     114.665 101.027 113.403  1.00  0.00     0.002 A 
ATOM     20  C   UNL     1     114.631 102.075 111.263  1.00  0.00     0.002 A 
ATOM     21  C   UNL     1     114.806 102.153 112.621  1.00  0.00     0.000 A 
ENDBRANCH   9  16
ENDBRANCH   2   3
ENDBRANCH   1   2
BRANCH   1  22
ATOM     22  C   UNL     1     112.756  96.323 116.225  1.00  0.00     0.019 C 
BRANCH  22  23
ATOM     23  C   UNL     1     112.706  97.746 116.535  1.00  0.00     0.049 C 
BRANCH  23  24
ATOM     24  C   UNL     1     111.604  98.170 117.471  1.00  0.00    -0.040 A 
ATOM     25  C   UNL     1     110.773  97.175 117.937  1.00  0.00     0.007 A 
ATOM     26  C   UNL     1     111.405  99.475 117.833  1.00  0.00     0.007 A 
ATOM     27  C   UNL     1     109.731  97.484 118.774  1.00  0.00     0.039 A 
ATOM     28  C   UNL     1     110.364  99.779 118.670  1.00  0.00     0.039 A 
ATOM     29  C   UNL     1     109.506  98.786 119.157  1.00  0.00     0.123 A 
ATOM     30  F   UNL     1     108.471  99.079 119.985  1.00  0.00    -0.207 F 
ENDBRANCH  23  24
BRANCH  23  31
ATOM     31  C   UNL     1     113.923  98.493 116.804  1.00  0.00    -0.040 A 
ATOM     32  C   UNL     1     115.118  97.984 117.230  1.00  0.00     0.007 A 
ATOM     33  C   UNL     1     113.831  99.878 116.616  1.00  0.00     0.007 A 
ATOM     34  C   UNL     1     116.185  98.861 117.458  1.00  0.00     0.039 A 
ATOM     35  C   UNL     1     114.859 100.738 116.832  1.00  0.00     0.039 A 
ATOM     36  C   UNL     1     116.055 100.213 117.262  1.00  0.00     0.123 A 
ATOM     37  F   UNL     1     117.076 101.086 117.474  1.00  0.00    -0.207 F 
ENDBRANCH  23  31
ENDBRANCH  22  23
ENDBRANCH   1  22
TORSDOF 7
ENDMDL
MODEL 5
REMARK VINA RESULT:      -6.6      1.643      4.501
REMARK SMILES O=C1NCN(c2ccccc2)C12CC[NH+](CCCC(c1ccc(F)cc1)c1ccc(F)cc1)CC2
REMARK SMILES IDX 17 1 16 2 15 3 1 4 2 5 3 6 12 7 4 8 5 9 13 10 35 11 14 12
REMARK SMILES IDX 34 13 6 16 7 17 11 18 8 19 10 20 9 21 18 22 19 23 20 24
REMARK SMILES IDX 21 25 26 26 22 27 25 28 23 29 24 30 27 31 28 32 33 33 29 34
REMARK SMILES IDX 32 35 30 36 31 37
REMARK H PARENT 3 14 15 15
ROOT
ATOM      1  C   UNL     1     112.105  96.149 115.364  1.00  0.00     0.062 C 
ENDROOT
BRANCH   1   2
ATOM      2  C   UNL     1     112.145  95.536 113.995  1.00  0.00     0.262 C 
BRANCH   2   3
ATOM      3  N   UNL     1     112.702  96.483 113.036  1.00  0.00    -0.335 N 
ATOM      4  O   UNL     1     112.100  98.690 110.757  1.00  0.00    -0.272 OA
ATOM      5  C   UNL     1     113.306  98.623 110.439  1.00  0.00     0.247 C 
ATOM      6  N   UNL     1     113.895  99.365 109.400  1.00  0.00    -0.336 N 
ATOM      7  C   UNL     1     114.340  97.744 111.105  1.00  0.00     0.131 C 
ATOM      8  C   UNL     1     115.301  99.365 109.657  1.00  0.00     0.238 C 
ATOM      9  N   UNL     1     115.538  98.085 110.341  1.00  0.00    -0.339 N 
ATOM     10  C   UNL     1     113.935  96.295 110.921  1.00  0.00     0.100 C 
ATOM     11  C   UNL     1     114.405  98.128 112.540  1.00  0.00     0.100 C 
ATOM     12  C   UNL     1     112.668  95.976 111.680  1.00  0.00     0.265 C 
ATOM     13  C   UNL     1     114.004  96.976 113.401  1.00  0.00     0.265 C 
ATOM     14  H   UNL     1     113.377  99.821 108.601  1.00  0.00     0.165 HD
ATOM     15  H   UNL     1     112.046  97.294 113.071  1.00  0.00     0.348 HD
BRANCH   9  16
ATOM     16  C   UNL     1     116.763  97.388 110.189  1.00  0.00     0.039 A 
ATOM     17  C   UNL     1     116.897  96.384 109.258  1.00  0.00     0.026 A 
ATOM     18  C   UNL     1     117.833  97.728 110.957  1.00  0.00     0.026 A 
ATOM     19  C   UNL     1     118.107  95.704 109.085  1.00  0.00     0.002 A 
ATOM     20  C   UNL     1     119.025  97.075 110.804  1.00  0.00     0.002 A 
ATOM     21  C   UNL     1     119.171  96.073 109.880  1.00  0.00     0.000 A 
ENDBRANCH   9  16
ENDBRANCH   2   3
ENDBRANCH   1   2
BRANCH   1  22
ATOM     22  C   UNL     1     113.377  96.618 115.924  1.00  0.00     0.019 C 
BRANCH  22  23
ATOM     23  C   UNL     1     113.453  97.519 117.066  1.00  0.00     0.049 C 
BRANCH  23  24
ATOM     24  C   UNL     1     114.574  98.524 117.029  1.00  0.00    -0.040 A 
ATOM     25  C   UNL     1     115.559  98.385 117.982  1.00  0.00     0.007 A 
ATOM     26  C   UNL     1     114.619  99.548 116.120  1.00  0.00     0.007 A 
ATOM     27  C   UNL     1     116.601  99.276 118.030  1.00  0.00     0.039 A 
ATOM     28  C   UNL     1     115.661 100.434 116.171  1.00  0.00     0.039 A 
ATOM     29  C   UNL     1     116.675 100.314 117.129  1.00  0.00     0.123 A 
ATOM     30  F   UNL     1     117.711 101.189 117.186  1.00  0.00    -0.207 F 
ENDBRANCH  23  24
BRANCH  23  31
ATOM     31  C   UNL     1     112.251  98.111 117.628  1.00  0.00    -0.040 A 
ATOM     32  C   UNL     1     112.072  99.419 117.983  1.00  0.00     0.007 A 
ATOM     33  C   UNL     1     111.184  97.226 117.831  1.00  0.00     0.007 A 
ATOM     34  C   UNL     1     110.845  99.810 118.531  1.00  0.00     0.039 A 
ATOM     35  C   UNL     1     109.989  97.593 118.360  1.00  0.00     0.039 A 
ATOM     36  C   UNL     1     109.824  98.912 118.715  1.00  0.00     0.123 A 
ATOM     37  F   UNL     1     108.621  99.266 119.244  1.00  0.00    -0.207 F 
ENDBRANCH  23  31
ENDBRANCH  22  23
ENDBRANCH   1  22
TORSDOF 7
ENDMDL
MODEL 6
REMARK VINA RESULT:      -6.2      2.235      3.542
REMARK SMILES O=C1NCN(c2ccccc2)C12CC[NH+](CCCC(c1ccc(F)cc1)c1ccc(F)cc1)CC2
REMARK SMILES IDX 17 1 16 2 15 3 1 4 2 5 3 6 12 7 4 8 5 9 13 10 35 11 14 12
REMARK SMILES IDX 34 13 6 16 7 17 11 18 8 19 10 20 9 21 18 22 19 23 20 24
REMARK SMILES IDX 21 25 26 26 22 27 25 28 23 29 24 30 27 31 28 32 33 33 29 34
REMARK SMILES IDX 32 35 30 36 31 37
REMARK H PARENT 3 14 15 15
ROOT
ATOM      1  C   UNL     1     112.485  96.153 115.815  1.00  0.00     0.062 C 
ENDROOT
BRANCH   1   2
ATOM      2  C   UNL     1     111.911  95.240 114.772  1.00  0.00     0.262 C 
BRANCH   2   3
ATOM      3  N   UNL     1     112.305  95.688 113.441  1.00  0.00    -0.335 N 
ATOM      4  O   UNL     1     113.418  94.850 110.528  1.00  0.00    -0.272 OA
ATOM      5  C   UNL     1     113.633  96.061 110.313  1.00  0.00     0.247 C 
ATOM      6  N   UNL     1     114.187  96.569 109.125  1.00  0.00    -0.336 N 
ATOM      7  C   UNL     1     113.342  97.187 111.278  1.00  0.00     0.131 C 
ATOM      8  C   UNL     1     113.843  97.955 109.085  1.00  0.00     0.238 C 
ATOM      9  N   UNL     1     113.776  98.346 110.502  1.00  0.00    -0.339 N 
ATOM     10  C   UNL     1     114.178  96.986 112.526  1.00  0.00     0.100 C 
ATOM     11  C   UNL     1     111.884  97.165 111.572  1.00  0.00     0.100 C 
ATOM     12  C   UNL     1     113.743  95.756 113.287  1.00  0.00     0.265 C 
ATOM     13  C   UNL     1     111.655  96.903 113.024  1.00  0.00     0.265 C 
ATOM     14  H   UNL     1     114.743  96.014 108.419  1.00  0.00     0.165 HD
ATOM     15  H   UNL     1     111.970  94.928 112.809  1.00  0.00     0.348 HD
BRANCH   9  16
ATOM     16  C   UNL     1     114.120  99.658 110.918  1.00  0.00     0.039 A 
ATOM     17  C   UNL     1     114.133 100.000 112.249  1.00  0.00     0.026 A 
ATOM     18  C   UNL     1     114.465 100.591 109.989  1.00  0.00     0.026 A 
ATOM     19  C   UNL     1     114.490 101.284 112.671  1.00  0.00     0.002 A 
ATOM     20  C   UNL     1     114.817 101.853 110.381  1.00  0.00     0.002 A 
ATOM     21  C   UNL     1     114.834 102.205 111.705  1.00  0.00     0.000 A 
ENDBRANCH   9  16
ENDBRANCH   2   3
ENDBRANCH   1   2
BRANCH   1  22
ATOM     22  C   UNL     1     113.012  97.443 115.358  1.00  0.00     0.019 C 
BRANCH  22  23
ATOM     23  C   UNL     1     113.070  98.621 116.213  1.00  0.00     0.049 C 
BRANCH  23  24
ATOM     24  C   UNL     1     111.962  98.745 117.227  1.00  0.00    -0.040 A 
ATOM     25  C   UNL     1     111.220  97.611 117.471  1.00  0.00     0.007 A 
ATOM     26  C   UNL     1     111.675  99.921 117.866  1.00  0.00     0.007 A 
ATOM     27  C   UNL     1     110.178  97.648 118.363  1.00  0.00     0.039 A 
ATOM     28  C   UNL     1     110.635  99.954 118.755  1.00  0.00     0.039 A 
ATOM     29  C   UNL     1     109.865  98.815 119.022  1.00  0.00     0.123 A 
ATOM     30  F   UNL     1     108.832  98.840 119.902  1.00  0.00    -0.207 F 
ENDBRANCH  23  24
BRANCH  23  31
ATOM     31  C   UNL     1     114.333  99.071 116.775  1.00  0.00    -0.040 A 
ATOM     32  C   UNL     1     114.849 100.335 116.718  1.00  0.00     0.007 A 
ATOM     33  C   UNL     1     115.086  98.084 117.424  1.00  0.00     0.007 A 
ATOM     34  C   UNL     1     116.097 100.584 117.302  1.00  0.00     0.039 A 
ATOM     35  C   UNL     1     116.296  98.313 117.995  1.00  0.00     0.039 A 
ATOM     36  C   UNL     1     116.805  99.589 117.928  1.00  0.00     0.123 A 
ATOM     37  F   UNL     1     118.018  99.804 118.505  1.00  0.00    -0.207 F 
ENDBRANCH  23  31
ENDBRANCH  22  23
ENDBRANCH   1  22
TORSDOF 7
ENDMDL
MODEL 7
REMARK VINA RESULT:      -6.0      3.316      5.044
REMARK SMILES O=C1NCN(c2ccccc2)C12CC[NH+](CCCC(c1ccc(F)cc1)c1ccc(F)cc1)CC2
REMARK SMILES IDX 17 1 16 2 15 3 1 4 2 5 3 6 12 7 4 8 5 9 13 10 35 11 14 12
REMARK SMILES IDX 34 13 6 16 7 17 11 18 8 19 10 20 9 21 18 22 19 23 20 24
REMARK SMILES IDX 21 25 26 26 22 27 25 28 23 29 24 30 27 31 28 32 33 33 29 34
REMARK SMILES IDX 32 35 30 36 31 37
REMARK H PARENT 3 14 15 15
ROOT
ATOM      1  C   UNL     1     114.294  99.667 116.177  1.00  0.00     0.062 C 
ENDROOT
BRANCH   1   2
ATOM      2  C   UNL     1     115.529  99.760 115.330  1.00  0.00     0.262 C 
BRANCH   2   3
ATOM      3  N   UNL     1     115.169 100.068 113.950  1.00  0.00    -0.335 N 
ATOM      4  O   UNL     1     114.606 102.367 111.753  1.00  0.00    -0.272 OA
ATOM      5  C   UNL     1     114.112 101.483 111.023  1.00  0.00     0.247 C 
ATOM      6  N   UNL     1     113.569 101.719 109.748  1.00  0.00    -0.336 N 
ATOM      7  C   UNL     1     114.007 100.015 111.372  1.00  0.00     0.131 C 
ATOM      8  C   UNL     1     113.551 100.456 109.082  1.00  0.00     0.238 C 
ATOM      9  N   UNL     1     113.372  99.482 110.170  1.00  0.00    -0.339 N 
ATOM     10  C   UNL     1     113.129  99.870 112.598  1.00  0.00     0.100 C 
ATOM     11  C   UNL     1     115.385  99.507 111.607  1.00  0.00     0.100 C 
ATOM     12  C   UNL     1     113.784 100.470 113.820  1.00  0.00     0.265 C 
ATOM     13  C   UNL     1     115.526  99.033 113.016  1.00  0.00     0.265 C 
ATOM     14  H   UNL     1     113.248 102.656 109.382  1.00  0.00     0.165 HD
ATOM     15  H   UNL     1     115.749 100.904 113.719  1.00  0.00     0.348 HD
BRANCH   9  16
ATOM     16  C   UNL     1     112.665  98.271 109.961  1.00  0.00     0.039 A 
ATOM     17  C   UNL     1     113.330  97.096 109.703  1.00  0.00     0.026 A 
ATOM     18  C   UNL     1     111.306  98.261 110.036  1.00  0.00     0.026 A 
ATOM     19  C   UNL     1     112.644  95.892 109.516  1.00  0.00     0.002 A 
ATOM     20  C   UNL     1     110.615  97.095 109.856  1.00  0.00     0.002 A 
ATOM     21  C   UNL     1     111.268  95.917 109.599  1.00  0.00     0.000 A 
ENDBRANCH   9  16
ENDBRANCH   2   3
ENDBRANCH   1   2
BRANCH   1  22
ATOM     22  C   UNL     1     114.247  98.592 117.175  1.00  0.00     0.019 C 
BRANCH  22  23
ATOM     23  C   UNL     1     113.146  97.644 117.263  1.00  0.00     0.049 C 
BRANCH  23  24
ATOM     24  C   UNL     1     111.925  98.129 118.001  1.00  0.00    -0.040 A 
ATOM     25  C   UNL     1     110.806  97.330 117.934  1.00  0.00     0.007 A 
ATOM     26  C   UNL     1     111.900  99.313 118.688  1.00  0.00     0.007 A 
ATOM     27  C   UNL     1     109.646  97.714 118.559  1.00  0.00     0.039 A 
ATOM     28  C   UNL     1     110.742  99.692 119.312  1.00  0.00     0.039 A 
ATOM     29  C   UNL     1     109.591  98.898 119.259  1.00  0.00     0.123 A 
ATOM     30  F   UNL     1     108.438  99.268 119.874  1.00  0.00    -0.207 F 
ENDBRANCH  23  24
BRANCH  23  31
ATOM     31  C   UNL     1     112.764  96.838 116.115  1.00  0.00    -0.040 A 
ATOM     32  C   UNL     1     112.571  95.485 116.094  1.00  0.00     0.007 A 
ATOM     33  C   UNL     1     112.600  97.542 114.915  1.00  0.00     0.007 A 
ATOM     34  C   UNL     1     112.223  94.870 114.885  1.00  0.00     0.039 A 
ATOM     35  C   UNL     1     112.262  96.958 113.738  1.00  0.00     0.039 A 
ATOM     36  C   UNL     1     112.072  95.595 113.730  1.00  0.00     0.123 A 
ATOM     37  F   UNL     1     111.732  95.023 112.543  1.00  0.00    -0.207 F 
ENDBRANCH  23  31
ENDBRANCH  22  23
ENDBRANCH   1  22
TORSDOF 7
ENDMDL
MODEL 8
REMARK VINA RESULT:      -5.8      3.292      5.347
REMARK SMILES O=C1NCN(c2ccccc2)C12CC[NH+](CCCC(c1ccc(F)cc1)c1ccc(F)cc1)CC2
REMARK SMILES IDX 17 1 16 2 15 3 1 4 2 5 3 6 12 7 4 8 5 9 13 10 35 11 14 12
REMARK SMILES IDX 34 13 6 16 7 17 11 18 8 19 10 20 9 21 18 22 19 23 20 24
REMARK SMILES IDX 21 25 26 26 22 27 25 28 23 29 24 30 27 31 28 32 33 33 29 34
REMARK SMILES IDX 32 35 30 36 31 37
REMARK H PARENT 3 14 15 15
ROOT
ATOM      1  C   UNL     1     114.993  98.672 115.926  1.00  0.00     0.062 C 
ENDROOT
BRANCH   1   2
ATOM      2  C   UNL     1     115.317 100.065 115.473  1.00  0.00     0.262 C 
BRANCH   2   3
ATOM      3  N   UNL     1     115.048 100.205 114.047  1.00  0.00    -0.335 N 
ATOM      4  O   UNL     1     114.736 102.217 111.540  1.00  0.00    -0.272 OA
ATOM      5  C   UNL     1     114.226 101.271 110.904  1.00  0.00     0.247 C 
ATOM      6  N   UNL     1     113.764 101.365 109.580  1.00  0.00    -0.336 N 
ATOM      7  C   UNL     1     114.016  99.872 111.434  1.00  0.00     0.131 C 
ATOM      8  C   UNL     1     113.702 100.026 109.083  1.00  0.00     0.238 C 
ATOM      9  N   UNL     1     113.411  99.217 110.277  1.00  0.00    -0.339 N 
ATOM     10  C   UNL     1     113.069  99.937 112.616  1.00  0.00     0.100 C 
ATOM     11  C   UNL     1     115.346  99.326 111.813  1.00  0.00     0.100 C 
ATOM     12  C   UNL     1     113.698 100.660 113.785  1.00  0.00     0.265 C 
ATOM     13  C   UNL     1     115.388  99.037 113.278  1.00  0.00     0.265 C 
ATOM     14  H   UNL     1     113.518 102.260 109.076  1.00  0.00     0.165 HD
ATOM     15  H   UNL     1     115.687 100.971 113.742  1.00  0.00     0.348 HD
BRANCH   9  16
ATOM     16  C   UNL     1     112.643  98.028 110.187  1.00  0.00     0.039 A 
ATOM     17  C   UNL     1     111.276  98.075 110.048  1.00  0.00     0.026 A 
ATOM     18  C   UNL     1     113.266  96.818 110.215  1.00  0.00     0.026 A 
ATOM     19  C   UNL     1     110.511  96.910 109.938  1.00  0.00     0.002 A 
ATOM     20  C   UNL     1     112.537  95.667 110.109  1.00  0.00     0.002 A 
ATOM     21  C   UNL     1     111.174  95.701 109.971  1.00  0.00     0.000 A 
ENDBRANCH   9  16
ENDBRANCH   2   3
ENDBRANCH   1   2
BRANCH   1  22
ATOM     22  C   UNL     1     113.954  98.529 116.952  1.00  0.00     0.019 C 
BRANCH  22  23
ATOM     23  C   UNL     1     112.560  98.256 116.632  1.00  0.00     0.049 C 
BRANCH  23  24
ATOM     24  C   UNL     1     112.293  96.933 115.961  1.00  0.00    -0.040 A 
ATOM     25  C   UNL     1     112.129  95.844 116.788  1.00  0.00     0.007 A 
ATOM     26  C   UNL     1     112.237  96.794 114.600  1.00  0.00     0.007 A 
ATOM     27  C   UNL     1     111.906  94.601 116.253  1.00  0.00     0.039 A 
ATOM     28  C   UNL     1     112.014  95.552 114.070  1.00  0.00     0.039 A 
ATOM     29  C   UNL     1     111.843  94.429 114.888  1.00  0.00     0.123 A 
ATOM     30  F   UNL     1     111.623  93.194 114.371  1.00  0.00    -0.207 F 
ENDBRANCH  23  24
BRANCH  23  31
ATOM     31  C   UNL     1     111.502  98.574 117.577  1.00  0.00    -0.040 A 
ATOM     32  C   UNL     1     111.357  99.737 118.280  1.00  0.00     0.007 A 
ATOM     33  C   UNL     1     110.556  97.562 117.782  1.00  0.00     0.007 A 
ATOM     34  C   UNL     1     110.281  99.862 119.167  1.00  0.00     0.039 A 
ATOM     35  C   UNL     1     109.508  97.671 118.638  1.00  0.00     0.039 A 
ATOM     36  C   UNL     1     109.374  98.847 119.340  1.00  0.00     0.123 A 
ATOM     37  F   UNL     1     108.320  98.943 120.194  1.00  0.00    -0.207 F 
ENDBRANCH  23  31
ENDBRANCH  22  23
ENDBRANCH   1  22
TORSDOF 7
ENDMDL
MODEL 9
REMARK VINA RESULT:      -5.7      0.861      1.369
REMARK SMILES O=C1NCN(c2ccccc2)C12CC[NH+](CCCC(c1ccc(F)cc1)c1ccc(F)cc1)CC2
REMARK SMILES IDX 17 1 16 2 15 3 1 4 2 5 3 6 12 7 4 8 5 9 13 10 35 11 14 12
REMARK SMILES IDX 34 13 6 16 7 17 11 18 8 19 10 20 9 21 18 22 19 23 20 24
REMARK SMILES IDX 21 25 26 26 22 27 25 28 23 29 24 30 27 31 28 32 33 33 29 34
REMARK SMILES IDX 32 35 30 36 31 37
REMARK H PARENT 3 14 15 15
ROOT
ATOM      1  C   UNL     1     115.169 101.197 114.484  1.00  0.00     0.062 C 
ENDROOT
BRANCH   1   2
ATOM      2  C   UNL     1     114.771 101.493 113.068  1.00  0.00     0.262 C 
BRANCH   2   3
ATOM      3  N   UNL     1     114.455 100.255 112.365  1.00  0.00    -0.335 N 
ATOM      4  O   UNL     1     112.413  97.774 112.048  1.00  0.00    -0.272 OA
ATOM      5  C   UNL     1     113.286  97.203 111.363  1.00  0.00     0.247 C 
ATOM      6  N   UNL     1     113.140  95.924 110.798  1.00  0.00    -0.336 N 
ATOM      7  C   UNL     1     114.642  97.775 111.019  1.00  0.00     0.131 C 
ATOM      8  C   UNL     1     114.108  95.837 109.750  1.00  0.00     0.238 C 
ATOM      9  N   UNL     1     115.209  96.697 110.211  1.00  0.00    -0.339 N 
ATOM     10  C   UNL     1     115.416  97.995 112.303  1.00  0.00     0.100 C 
ATOM     11  C   UNL     1     114.423  99.042 110.273  1.00  0.00     0.100 C 
ATOM     12  C   UNL     1     114.786  99.080 113.145  1.00  0.00     0.265 C 
ATOM     13  C   UNL     1     114.995 100.194 111.033  1.00  0.00     0.265 C 
ATOM     14  H   UNL     1     112.444  95.192 111.106  1.00  0.00     0.165 HD
ATOM     15  H   UNL     1     113.416 100.274 112.275  1.00  0.00     0.348 HD
BRANCH   9  16
ATOM     16  C   UNL     1     116.555  96.409 109.872  1.00  0.00     0.039 A 
ATOM     17  C   UNL     1     116.926  95.157 109.441  1.00  0.00     0.026 A 
ATOM     18  C   UNL     1     117.496  97.389 109.952  1.00  0.00     0.026 A 
ATOM     19  C   UNL     1     118.246  94.867 109.084  1.00  0.00     0.002 A 
ATOM     20  C   UNL     1     118.793  97.127 109.608  1.00  0.00     0.002 A 
ATOM     21  C   UNL     1     119.174  95.882 109.177  1.00  0.00     0.000 A 
ENDBRANCH   9  16
ENDBRANCH   2   3
ENDBRANCH   1   2
BRANCH   1  22
ATOM     22  C   UNL     1     114.091 100.881 115.429  1.00  0.00     0.019 C 
BRANCH  22  23
ATOM     23  C   UNL     1     114.336 100.565 116.829  1.00  0.00     0.049 C 
BRANCH  23  24
ATOM     24  C   UNL     1     113.217  99.851 117.541  1.00  0.00    -0.040 A 
ATOM     25  C   UNL     1     112.416  99.037 116.770  1.00  0.00     0.007 A 
ATOM     26  C   UNL     1     112.974 100.007 118.879  1.00  0.00     0.007 A 
ATOM     27  C   UNL     1     111.361  98.370 117.340  1.00  0.00     0.039 A 
ATOM     28  C   UNL     1     111.921  99.339 119.444  1.00  0.00     0.039 A 
ATOM     29  C   UNL     1     111.092  98.506 118.683  1.00  0.00     0.123 A 
ATOM     30  F   UNL     1     110.046  97.842 119.235  1.00  0.00    -0.207 F 
ENDBRANCH  23  24
BRANCH  23  31
ATOM     31  C   UNL     1     115.627 100.058 117.263  1.00  0.00    -0.040 A 
ATOM     32  C   UNL     1     116.761 100.788 117.483  1.00  0.00     0.007 A 
ATOM     33  C   UNL     1     115.693  98.671 117.452  1.00  0.00     0.007 A 
ATOM     34  C   UNL     1     117.927 100.124 117.882  1.00  0.00     0.039 A 
ATOM     35  C   UNL     1     116.817  98.016 117.840  1.00  0.00     0.039 A 
ATOM     36  C   UNL     1     117.952  98.763 118.057  1.00  0.00     0.123 A 
ATOM     37  F   UNL     1     119.071  98.094 118.446  1.00  0.00    -0.207 F 
ENDBRANCH  23  31
ENDBRANCH  22  23
ENDBRANCH   1  22
TORSDOF 7
ENDMDL
