MODEL 1
REMARK VINA RESULT:      -6.0      0.000      0.000
REMARK SMILES O=C1Nc2ccc(I)cc2/C1=C/c1cc(Br)c(O)c(Br)c1
REMARK SMILES IDX 13 1 14 2 15 3 16 4 17 5 19 6 20 7 21 8 12 9 1 10 2 11 3 12
REMARK SMILES IDX 11 13 4 14 10 15 5 16 9 17 6 18 7 19 8 21 18 22
REMARK H PARENT 3 20 18 23
ROOT
ATOM      1  C   UNL     1      14.919 -20.662 -18.318  1.00  0.00    -0.022 A 
ATOM      2  C   UNL     1      13.752 -20.606 -19.013  1.00  0.00     0.027 A 
ATOM      3  C   UNL     1      13.794 -20.323 -20.367  1.00  0.00     0.061 A 
ATOM      4  Br  UNL     1      12.150 -20.247 -21.343  1.00  0.00    -0.047 Br
ATOM      5  C   UNL     1      14.991 -20.097 -21.026  1.00  0.00     0.143 A 
ATOM      6  C   UNL     1      16.144 -20.161 -20.293  1.00  0.00     0.061 A 
ATOM      7  Br  UNL     1      17.836 -19.857 -21.134  1.00  0.00    -0.047 Br
ATOM      8  C   UNL     1      16.124 -20.439 -18.953  1.00  0.00     0.027 A 
ENDROOT
BRANCH   1   9
ATOM      9  C   UNL     1      14.987 -20.986 -16.903  1.00  0.00     0.022 C 
ATOM     10  O   UNL     1      14.827 -17.972 -17.155  1.00  0.00    -0.269 OA
ATOM     11  C   UNL     1      14.924 -18.628 -16.091  1.00  0.00     0.256 C 
ATOM     12  N   UNL     1      14.986 -18.080 -14.762  1.00  0.00    -0.321 N 
ATOM     13  C   UNL     1      14.990 -20.073 -15.951  1.00  0.00     0.050 C 
ATOM     14  C   UNL     1      15.089 -19.152 -13.810  1.00  0.00     0.049 A 
ATOM     15  C   UNL     1      15.091 -20.350 -14.514  1.00  0.00     0.012 A 
ATOM     16  C   UNL     1      15.174 -19.113 -12.430  1.00  0.00     0.028 A 
ATOM     17  C   UNL     1      15.184 -21.510 -13.755  1.00  0.00     0.025 A 
ATOM     18  C   UNL     1      15.264 -20.303 -11.728  1.00  0.00     0.017 A 
ATOM     19  C   UNL     1      15.270 -21.517 -12.382  1.00  0.00     0.014 A 
ATOM     20  H   UNL     1      14.959 -17.071 -14.572  1.00  0.00     0.170 HD
ATOM     21  I   UNL     1      15.406 -23.328 -11.294  1.00  0.00    -0.044 I 
ENDBRANCH   1   9
BRANCH   5  22
ATOM     22  O   UNL     1      15.021 -19.816 -22.388  1.00  0.00    -0.506 OA
ATOM     23  H   UNL     1      15.059 -18.853 -22.703  1.00  0.00     0.293 HD
ENDBRANCH   5  22
TORSDOF 2
ENDMDL
MODEL 2
REMARK VINA RESULT:      -5.8     15.118     16.865
REMARK SMILES O=C1Nc2ccc(I)cc2/C1=C/c1cc(Br)c(O)c(Br)c1
REMARK SMILES IDX 13 1 14 2 15 3 16 4 17 5 19 6 20 7 21 8 12 9 1 10 2 11 3 12
REMARK SMILES IDX 11 13 4 14 10 15 5 16 9 17 6 18 7 19 8 21 18 22
REMARK H PARENT 3 20 18 23
ROOT
ATOM      1  C   UNL     1      28.762 -23.472 -24.184  1.00  0.00    -0.022 A 
ATOM      2  C   UNL     1      29.146 -23.339 -25.482  1.00  0.00     0.027 A 
ATOM      3  C   UNL     1      28.281 -22.730 -26.374  1.00  0.00     0.061 A 
ATOM      4  Br  UNL     1      28.824 -22.543 -28.200  1.00  0.00    -0.047 Br
ATOM      5  C   UNL     1      27.041 -22.256 -25.979  1.00  0.00     0.143 A 
ATOM      6  C   UNL     1      26.690 -22.409 -24.666  1.00  0.00     0.061 A 
ATOM      7  Br  UNL     1      24.992 -21.782 -24.045  1.00  0.00    -0.047 Br
ATOM      8  C   UNL     1      27.531 -23.008 -23.766  1.00  0.00     0.027 A 
ENDROOT
BRANCH   1   9
ATOM      9  C   UNL     1      29.609 -24.063 -23.162  1.00  0.00     0.022 C 
ATOM     10  O   UNL     1      30.666 -21.287 -23.750  1.00  0.00    -0.269 OA
ATOM     11  C   UNL     1      31.150 -22.113 -22.941  1.00  0.00     0.256 C 
ATOM     12  N   UNL     1      32.319 -21.915 -22.126  1.00  0.00    -0.321 N 
ATOM     13  C   UNL     1      30.649 -23.444 -22.638  1.00  0.00     0.050 C 
ATOM     14  C   UNL     1      32.548 -23.091 -21.330  1.00  0.00     0.049 A 
ATOM     15  C   UNL     1      31.551 -24.011 -21.631  1.00  0.00     0.012 A 
ATOM     16  C   UNL     1      33.541 -23.362 -20.406  1.00  0.00     0.028 A 
ATOM     17  C   UNL     1      31.607 -25.222 -20.951  1.00  0.00     0.025 A 
ATOM     18  C   UNL     1      33.543 -24.586 -19.761  1.00  0.00     0.017 A 
ATOM     19  C   UNL     1      32.575 -25.532 -20.025  1.00  0.00     0.014 A 
ATOM     20  H   UNL     1      32.873 -21.051 -22.144  1.00  0.00     0.170 HD
ATOM     21  I   UNL     1      32.592 -27.400 -19.028  1.00  0.00    -0.044 I 
ENDBRANCH   1   9
BRANCH   5  22
ATOM     22  O   UNL     1      26.181 -21.645 -26.885  1.00  0.00    -0.506 OA
ATOM     23  H   UNL     1      25.309 -22.095 -27.135  1.00  0.00     0.293 HD
ENDBRANCH   5  22
TORSDOF 2
ENDMDL
MODEL 3
REMARK VINA RESULT:      -5.8      4.108      5.618
REMARK SMILES O=C1Nc2ccc(I)cc2/C1=C/c1cc(Br)c(O)c(Br)c1
REMARK SMILES IDX 13 1 14 2 15 3 16 4 17 5 19 6 20 7 21 8 12 9 1 10 2 11 3 12
REMARK SMILES IDX 11 13 4 14 10 15 5 16 9 17 6 18 7 19 8 21 18 22
REMARK H PARENT 3 20 18 23
ROOT
ATOM      1  C   UNL     1      18.032 -20.403 -21.993  1.00  0.00    -0.022 A 
ATOM      2  C   UNL     1      18.614 -19.226 -22.346  1.00  0.00     0.027 A 
ATOM      3  C   UNL     1      19.628 -19.239 -23.288  1.00  0.00     0.061 A 
ATOM      4  Br  UNL     1      20.445 -17.581 -23.784  1.00  0.00    -0.047 Br
ATOM      5  C   UNL     1      20.060 -20.416 -23.876  1.00  0.00     0.143 A 
ATOM      6  C   UNL     1      19.451 -21.580 -23.495  1.00  0.00     0.061 A 
ATOM      7  Br  UNL     1      19.996 -23.246 -24.262  1.00  0.00    -0.047 Br
ATOM      8  C   UNL     1      18.446 -21.590 -22.565  1.00  0.00     0.027 A 
ENDROOT
BRANCH   1   9
ATOM      9  C   UNL     1      16.937 -20.495 -21.042  1.00  0.00     0.022 C 
ATOM     10  O   UNL     1      19.528 -20.780 -19.501  1.00  0.00    -0.269 OA
ATOM     11  C   UNL     1      18.368 -20.832 -19.027  1.00  0.00     0.256 C 
ATOM     12  N   UNL     1      18.027 -21.046 -17.646  1.00  0.00    -0.321 N 
ATOM     13  C   UNL     1      17.115 -20.685 -19.750  1.00  0.00     0.050 C 
ATOM     14  C   UNL     1      16.596 -21.035 -17.503  1.00  0.00     0.049 A 
ATOM     15  C   UNL     1      16.043 -20.819 -18.759  1.00  0.00     0.012 A 
ATOM     16  C   UNL     1      15.812 -21.196 -16.374  1.00  0.00     0.028 A 
ATOM     17  C   UNL     1      14.655 -20.774 -18.820  1.00  0.00     0.025 A 
ATOM     18  C   UNL     1      14.434 -21.141 -16.499  1.00  0.00     0.017 A 
ATOM     19  C   UNL     1      13.838 -20.929 -17.725  1.00  0.00     0.014 A 
ATOM     20  H   UNL     1      18.731 -21.182 -16.910  1.00  0.00     0.170 HD
ATOM     21  I   UNL     1      11.730 -20.846 -17.898  1.00  0.00    -0.044 I 
ENDBRANCH   1   9
BRANCH   5  22
ATOM     22  O   UNL     1      21.079 -20.417 -24.823  1.00  0.00    -0.506 OA
ATOM     23  H   UNL     1      21.004 -19.828 -25.644  1.00  0.00     0.293 HD
ENDBRANCH   5  22
TORSDOF 2
ENDMDL
MODEL 4
REMARK VINA RESULT:      -5.8      4.144      5.675
REMARK SMILES O=C1Nc2ccc(I)cc2/C1=C/c1cc(Br)c(O)c(Br)c1
REMARK SMILES IDX 13 1 14 2 15 3 16 4 17 5 19 6 20 7 21 8 12 9 1 10 2 11 3 12
REMARK SMILES IDX 11 13 4 14 10 15 5 16 9 17 6 18 7 19 8 21 18 22
REMARK H PARENT 3 20 18 23
ROOT
ATOM      1  C   UNL     1      18.077 -20.565 -22.128  1.00  0.00    -0.022 A 
ATOM      2  C   UNL     1      18.602 -21.673 -22.717  1.00  0.00     0.027 A 
ATOM      3  C   UNL     1      19.657 -21.523 -23.600  1.00  0.00     0.061 A 
ATOM      4  Br  UNL     1      20.394 -23.084 -24.427  1.00  0.00    -0.047 Br
ATOM      5  C   UNL     1      20.187 -20.279 -23.896  1.00  0.00     0.143 A 
ATOM      6  C   UNL     1      19.633 -19.188 -23.285  1.00  0.00     0.061 A 
ATOM      7  Br  UNL     1      20.312 -17.436 -23.646  1.00  0.00    -0.047 Br
ATOM      8  C   UNL     1      18.590 -19.314 -22.408  1.00  0.00     0.027 A 
ENDROOT
BRANCH   1   9
ATOM      9  C   UNL     1      16.995 -20.616 -21.160  1.00  0.00     0.022 C 
ATOM     10  O   UNL     1      19.606 -20.839 -19.642  1.00  0.00    -0.269 OA
ATOM     11  C   UNL     1      18.452 -20.871 -19.151  1.00  0.00     0.256 C 
ATOM     12  N   UNL     1      18.129 -21.027 -17.758  1.00  0.00    -0.321 N 
ATOM     13  C   UNL     1      17.190 -20.753 -19.863  1.00  0.00     0.050 C 
ATOM     14  C   UNL     1      16.700 -21.009 -17.597  1.00  0.00     0.049 A 
ATOM     15  C   UNL     1      16.131 -20.845 -18.854  1.00  0.00     0.012 A 
ATOM     16  C   UNL     1      15.931 -21.123 -16.453  1.00  0.00     0.028 A 
ATOM     17  C   UNL     1      14.742 -20.801 -18.899  1.00  0.00     0.025 A 
ATOM     18  C   UNL     1      14.552 -21.072 -16.562  1.00  0.00     0.017 A 
ATOM     19  C   UNL     1      13.940 -20.911 -17.787  1.00  0.00     0.014 A 
ATOM     20  H   UNL     1      18.843 -21.133 -17.027  1.00  0.00     0.170 HD
ATOM     21  I   UNL     1      11.830 -20.833 -17.936  1.00  0.00    -0.044 I 
ENDBRANCH   1   9
BRANCH   5  22
ATOM     22  O   UNL     1      21.249 -20.141 -24.784  1.00  0.00    -0.506 OA
ATOM     23  H   UNL     1      21.352 -19.286 -25.318  1.00  0.00     0.293 HD
ENDBRANCH   5  22
TORSDOF 2
ENDMDL
MODEL 5
REMARK VINA RESULT:      -5.8      1.435      1.556
REMARK SMILES O=C1Nc2ccc(I)cc2/C1=C/c1cc(Br)c(O)c(Br)c1
REMARK SMILES IDX 13 1 14 2 15 3 16 4 17 5 19 6 20 7 21 8 12 9 1 10 2 11 3 12
REMARK SMILES IDX 11 13 4 14 10 15 5 16 9 17 6 18 7 19 8 21 18 22
REMARK H PARENT 3 20 18 23
ROOT
ATOM      1  C   UNL     1      13.785 -20.012 -17.555  1.00  0.00    -0.022 A 
ATOM      2  C   UNL     1      12.614 -19.381 -17.841  1.00  0.00     0.027 A 
ATOM      3  C   UNL     1      12.413 -18.896 -19.122  1.00  0.00     0.061 A 
ATOM      4  Br  UNL     1      10.764 -18.010 -19.521  1.00  0.00    -0.047 Br
ATOM      5  C   UNL     1      13.370 -19.037 -20.112  1.00  0.00     0.143 A 
ATOM      6  C   UNL     1      14.535 -19.676 -19.787  1.00  0.00     0.061 A 
ATOM      7  Br  UNL     1      15.904 -19.907 -21.103  1.00  0.00    -0.047 Br
ATOM      8  C   UNL     1      14.754 -20.164 -18.527  1.00  0.00     0.027 A 
ENDROOT
BRANCH   1   9
ATOM      9  C   UNL     1      14.080 -20.589 -16.255  1.00  0.00     0.022 C 
ATOM     10  O   UNL     1      14.804 -17.650 -16.151  1.00  0.00    -0.269 OA
ATOM     11  C   UNL     1      14.941 -18.485 -15.226  1.00  0.00     0.256 C 
ATOM     12  N   UNL     1      15.481 -18.220 -13.919  1.00  0.00    -0.321 N 
ATOM     13  C   UNL     1      14.589 -19.895 -15.255  1.00  0.00     0.050 C 
ATOM     14  C   UNL     1      15.469 -19.432 -13.145  1.00  0.00     0.049 A 
ATOM     15  C   UNL     1      14.935 -20.440 -13.938  1.00  0.00     0.012 A 
ATOM     16  C   UNL     1      15.884 -19.664 -11.846  1.00  0.00     0.028 A 
ATOM     17  C   UNL     1      14.841 -21.698 -13.354  1.00  0.00     0.025 A 
ATOM     18  C   UNL     1      15.764 -20.939 -11.319  1.00  0.00     0.017 A 
ATOM     19  C   UNL     1      15.241 -21.972 -12.067  1.00  0.00     0.014 A 
ATOM     20  H   UNL     1      15.812 -17.292 -13.629  1.00  0.00     0.170 HD
ATOM     21  I   UNL     1      15.063 -23.915 -11.246  1.00  0.00    -0.044 I 
ENDBRANCH   1   9
BRANCH   5  22
ATOM     22  O   UNL     1      13.155 -18.547 -21.396  1.00  0.00    -0.506 OA
ATOM     23  H   UNL     1      13.628 -17.703 -21.699  1.00  0.00     0.293 HD
ENDBRANCH   5  22
TORSDOF 2
ENDMDL
MODEL 6
REMARK VINA RESULT:      -5.8      4.459      6.287
REMARK SMILES O=C1Nc2ccc(I)cc2/C1=C/c1cc(Br)c(O)c(Br)c1
REMARK SMILES IDX 13 1 14 2 15 3 16 4 17 5 19 6 20 7 21 8 12 9 1 10 2 11 3 12
REMARK SMILES IDX 11 13 4 14 10 15 5 16 9 17 6 18 7 19 8 21 18 22
REMARK H PARENT 3 20 18 23
ROOT
ATOM      1  C   UNL     1      18.278 -20.654 -22.497  1.00  0.00    -0.022 A 
ATOM      2  C   UNL     1      19.206 -19.767 -22.946  1.00  0.00     0.027 A 
ATOM      3  C   UNL     1      20.242 -20.228 -23.740  1.00  0.00     0.061 A 
ATOM      4  Br  UNL     1      21.545 -18.976 -24.370  1.00  0.00    -0.047 Br
ATOM      5  C   UNL     1      20.354 -21.564 -24.086  1.00  0.00     0.143 A 
ATOM      6  C   UNL     1      19.402 -22.427 -23.615  1.00  0.00     0.061 A 
ATOM      7  Br  UNL     1      19.493 -24.288 -24.050  1.00  0.00    -0.047 Br
ATOM      8  C   UNL     1      18.369 -21.991 -22.829  1.00  0.00     0.027 A 
ENDROOT
BRANCH   1   9
ATOM      9  C   UNL     1      17.134 -20.268 -21.690  1.00  0.00     0.022 C 
ATOM     10  O   UNL     1      19.418 -20.913 -19.810  1.00  0.00    -0.269 OA
ATOM     11  C   UNL     1      18.259 -20.566 -19.483  1.00  0.00     0.256 C 
ATOM     12  N   UNL     1      17.770 -20.408 -18.139  1.00  0.00    -0.321 N 
ATOM     13  C   UNL     1      17.155 -20.241 -20.371  1.00  0.00     0.050 C 
ATOM     14  C   UNL     1      16.393 -19.995 -18.180  1.00  0.00     0.049 A 
ATOM     15  C   UNL     1      16.017 -19.892 -19.514  1.00  0.00     0.012 A 
ATOM     16  C   UNL     1      15.513 -19.721 -17.148  1.00  0.00     0.028 A 
ATOM     17  C   UNL     1      14.706 -19.499 -19.756  1.00  0.00     0.025 A 
ATOM     18  C   UNL     1      14.220 -19.334 -17.453  1.00  0.00     0.017 A 
ATOM     19  C   UNL     1      13.800 -19.218 -18.761  1.00  0.00     0.014 A 
ATOM     20  H   UNL     1      18.351 -20.576 -17.309  1.00  0.00     0.170 HD
ATOM     21  I   UNL     1      11.818 -18.622 -19.209  1.00  0.00    -0.044 I 
ENDBRANCH   1   9
BRANCH   5  22
ATOM     22  O   UNL     1      21.398 -22.015 -24.886  1.00  0.00    -0.506 OA
ATOM     23  H   UNL     1      22.334 -22.083 -24.503  1.00  0.00     0.293 HD
ENDBRANCH   5  22
TORSDOF 2
ENDMDL
MODEL 7
REMARK VINA RESULT:      -5.7      0.618      2.119
REMARK SMILES O=C1Nc2ccc(I)cc2/C1=C/c1cc(Br)c(O)c(Br)c1
REMARK SMILES IDX 13 1 14 2 15 3 16 4 17 5 19 6 20 7 21 8 12 9 1 10 2 11 3 12
REMARK SMILES IDX 11 13 4 14 10 15 5 16 9 17 6 18 7 19 8 21 18 22
REMARK H PARENT 3 20 18 23
ROOT
ATOM      1  C   UNL     1      14.550 -20.609 -18.106  1.00  0.00    -0.022 A 
ATOM      2  C   UNL     1      15.605 -20.382 -18.934  1.00  0.00     0.027 A 
ATOM      3  C   UNL     1      15.358 -20.015 -20.245  1.00  0.00     0.061 A 
ATOM      4  Br  UNL     1      16.845 -19.696 -21.407  1.00  0.00    -0.047 Br
ATOM      5  C   UNL     1      14.069 -19.875 -20.731  1.00  0.00     0.143 A 
ATOM      6  C   UNL     1      13.034 -20.112 -19.870  1.00  0.00     0.061 A 
ATOM      7  Br  UNL     1      11.225 -19.940 -20.469  1.00  0.00    -0.047 Br
ATOM      8  C   UNL     1      13.256 -20.475 -18.568  1.00  0.00     0.027 A 
ENDROOT
BRANCH   1   9
ATOM      9  C   UNL     1      14.701 -20.962 -16.705  1.00  0.00     0.022 C 
ATOM     10  O   UNL     1      14.833 -17.945 -16.918  1.00  0.00    -0.269 OA
ATOM     11  C   UNL     1      14.949 -18.624 -15.871  1.00  0.00     0.256 C 
ATOM     12  N   UNL     1      15.177 -18.108 -14.548  1.00  0.00    -0.321 N 
ATOM     13  C   UNL     1      14.876 -20.071 -15.749  1.00  0.00     0.050 C 
ATOM     14  C   UNL     1      15.247 -19.201 -13.617  1.00  0.00     0.049 A 
ATOM     15  C   UNL     1      15.067 -20.381 -14.329  1.00  0.00     0.012 A 
ATOM     16  C   UNL     1      15.449 -19.195 -12.248  1.00  0.00     0.028 A 
ATOM     17  C   UNL     1      15.101 -21.557 -13.589  1.00  0.00     0.025 A 
ATOM     18  C   UNL     1      15.473 -20.400 -11.567  1.00  0.00     0.017 A 
ATOM     19  C   UNL     1      15.299 -21.596 -12.229  1.00  0.00     0.014 A 
ATOM     20  H   UNL     1      15.270 -17.105 -14.347  1.00  0.00     0.170 HD
ATOM     21  I   UNL     1      15.337 -23.430 -11.171  1.00  0.00    -0.044 I 
ENDBRANCH   1   9
BRANCH   5  22
ATOM     22  O   UNL     1      13.833 -19.504 -22.051  1.00  0.00    -0.506 OA
ATOM     23  H   UNL     1      12.883 -19.367 -22.374  1.00  0.00     0.293 HD
ENDBRANCH   5  22
TORSDOF 2
ENDMDL
MODEL 8
REMARK VINA RESULT:      -5.7     15.039     16.703
REMARK SMILES O=C1Nc2ccc(I)cc2/C1=C/c1cc(Br)c(O)c(Br)c1
REMARK SMILES IDX 13 1 14 2 15 3 16 4 17 5 19 6 20 7 21 8 12 9 1 10 2 11 3 12
REMARK SMILES IDX 11 13 4 14 10 15 5 16 9 17 6 18 7 19 8 21 18 22
REMARK H PARENT 3 20 18 23
ROOT
ATOM      1  C   UNL     1      28.575 -23.312 -24.002  1.00  0.00    -0.022 A 
ATOM      2  C   UNL     1      27.326 -22.858 -23.711  1.00  0.00     0.027 A 
ATOM      3  C   UNL     1      26.558 -22.320 -24.728  1.00  0.00     0.061 A 
ATOM      4  Br  UNL     1      24.801 -21.683 -24.316  1.00  0.00    -0.047 Br
ATOM      5  C   UNL     1      27.027 -22.235 -26.028  1.00  0.00     0.143 A 
ATOM      6  C   UNL     1      28.288 -22.701 -26.282  1.00  0.00     0.061 A 
ATOM      7  Br  UNL     1      29.006 -22.614 -28.053  1.00  0.00    -0.047 Br
ATOM      8  C   UNL     1      29.065 -23.237 -25.290  1.00  0.00     0.027 A 
ENDROOT
BRANCH   1   9
ATOM      9  C   UNL     1      29.447 -23.926 -23.016  1.00  0.00     0.022 C 
ATOM     10  O   UNL     1      30.589 -21.205 -23.695  1.00  0.00    -0.269 OA
ATOM     11  C   UNL     1      31.079 -22.042 -22.900  1.00  0.00     0.256 C 
ATOM     12  N   UNL     1      32.295 -21.885 -22.148  1.00  0.00    -0.321 N 
ATOM     13  C   UNL     1      30.538 -23.346 -22.554  1.00  0.00     0.050 C 
ATOM     14  C   UNL     1      32.515 -23.060 -21.349  1.00  0.00     0.049 A 
ATOM     15  C   UNL     1      31.466 -23.940 -21.587  1.00  0.00     0.012 A 
ATOM     16  C   UNL     1      33.542 -23.362 -20.473  1.00  0.00     0.028 A 
ATOM     17  C   UNL     1      31.506 -25.144 -20.894  1.00  0.00     0.025 A 
ATOM     18  C   UNL     1      33.525 -24.578 -19.812  1.00  0.00     0.017 A 
ATOM     19  C   UNL     1      32.507 -25.485 -20.015  1.00  0.00     0.014 A 
ATOM     20  H   UNL     1      32.883 -21.045 -22.206  1.00  0.00     0.170 HD
ATOM     21  I   UNL     1      32.496 -27.340 -18.994  1.00  0.00    -0.044 I 
ENDBRANCH   1   9
BRANCH   5  22
ATOM     22  O   UNL     1      26.245 -21.694 -27.043  1.00  0.00    -0.506 OA
ATOM     23  H   UNL     1      25.574 -20.965 -26.828  1.00  0.00     0.293 HD
ENDBRANCH   5  22
TORSDOF 2
ENDMDL
MODEL 9
REMARK VINA RESULT:      -5.5     15.395     17.348
REMARK SMILES O=C1Nc2ccc(I)cc2/C1=C/c1cc(Br)c(O)c(Br)c1
REMARK SMILES IDX 13 1 14 2 15 3 16 4 17 5 19 6 20 7 21 8 12 9 1 10 2 11 3 12
REMARK SMILES IDX 11 13 4 14 10 15 5 16 9 17 6 18 7 19 8 21 18 22
REMARK H PARENT 3 20 18 23
ROOT
ATOM      1  C   UNL     1      28.549 -23.510 -23.498  1.00  0.00    -0.022 A 
ATOM      2  C   UNL     1      27.885 -23.020 -24.579  1.00  0.00     0.027 A 
ATOM      3  C   UNL     1      26.589 -22.563 -24.415  1.00  0.00     0.061 A 
ATOM      4  Br  UNL     1      25.657 -21.873 -25.938  1.00  0.00    -0.047 Br
ATOM      5  C   UNL     1      25.957 -22.594 -23.184  1.00  0.00     0.143 A 
ATOM      6  C   UNL     1      26.656 -23.095 -22.120  1.00  0.00     0.061 A 
ATOM      7  Br  UNL     1      25.848 -23.171 -20.388  1.00  0.00    -0.047 Br
ATOM      8  C   UNL     1      27.939 -23.551 -22.260  1.00  0.00     0.027 A 
ENDROOT
BRANCH   1   9
ATOM      9  C   UNL     1      29.923 -23.980 -23.555  1.00  0.00     0.022 C 
ATOM     10  O   UNL     1      29.948 -21.184 -22.392  1.00  0.00    -0.269 OA
ATOM     11  C   UNL     1      30.947 -21.906 -22.619  1.00  0.00     0.256 C 
ATOM     12  N   UNL     1      32.320 -21.552 -22.378  1.00  0.00    -0.321 N 
ATOM     13  C   UNL     1      30.952 -23.254 -23.165  1.00  0.00     0.050 C 
ATOM     14  C   UNL     1      33.169 -22.647 -22.763  1.00  0.00     0.049 A 
ATOM     15  C   UNL     1      32.357 -23.671 -23.236  1.00  0.00     0.012 A 
ATOM     16  C   UNL     1      34.546 -22.767 -22.715  1.00  0.00     0.028 A 
ATOM     17  C   UNL     1      33.005 -24.825 -23.657  1.00  0.00     0.025 A 
ATOM     18  C   UNL     1      35.134 -23.943 -23.149  1.00  0.00     0.017 A 
ATOM     19  C   UNL     1      34.370 -24.987 -23.626  1.00  0.00     0.014 A 
ATOM     20  H   UNL     1      32.603 -20.644 -21.991  1.00  0.00     0.170 HD
ATOM     21  I   UNL     1      35.285 -26.779 -24.284  1.00  0.00    -0.044 I 
ENDBRANCH   1   9
BRANCH   5  22
ATOM     22  O   UNL     1      24.654 -22.131 -23.031  1.00  0.00    -0.506 OA
ATOM     23  H   UNL     1      23.874 -22.760 -23.181  1.00  0.00     0.293 HD
ENDBRANCH   5  22
TORSDOF 2
ENDMDL
