MODEL 1
REMARK VINA RESULT:      -6.6      0.000      0.000
REMARK SMILES Cc1c(OCC(F)(F)F)ccnc1C[S+](O)c1nc2ccccc2[n-]1
REMARK SMILES IDX 1 1 2 2 3 3 10 4 11 5 12 6 13 7 4 8 5 9 6 10 7 11 8 12 9 13
REMARK SMILES IDX 14 14 15 15 16 16 17 18 18 19 25 20 19 21 24 22 20 23 23 24
REMARK SMILES IDX 21 25 22 26
REMARK H PARENT 16 17
ROOT
ATOM      1  C   UNL     1      36.297 -13.368 -27.881  1.00  0.00     0.050 C 
ATOM      2  C   UNL     1      36.059 -14.081 -29.161  1.00  0.00     0.018 A 
ATOM      3  C   UNL     1      35.459 -13.412 -30.228  1.00  0.00     0.126 A 
ATOM      4  C   UNL     1      35.247 -14.120 -31.390  1.00  0.00     0.067 A 
ATOM      5  C   UNL     1      35.616 -15.440 -31.488  1.00  0.00     0.115 A 
ATOM      6  N   UNL     1      36.185 -16.042 -30.452  1.00  0.00    -0.256 NA
ATOM      7  C   UNL     1      36.424 -15.402 -29.275  1.00  0.00     0.100 A 
ENDROOT
BRANCH   3   8
ATOM      8  O   UNL     1      35.112 -12.082 -30.063  1.00  0.00    -0.484 OA
BRANCH   8   9
ATOM      9  C   UNL     1      34.730 -11.262 -31.129  1.00  0.00     0.344 C 
BRANCH   9  10
ATOM     10  C   UNL     1      33.331 -10.757 -30.841  1.00  0.00     0.422 C 
ATOM     11  F   UNL     1      32.579 -10.955 -31.987  1.00  0.00    -0.167 F 
ATOM     12  F   UNL     1      33.342  -9.411 -30.540  1.00  0.00    -0.167 F 
ATOM     13  F   UNL     1      32.748 -11.472 -29.816  1.00  0.00    -0.167 F 
ENDBRANCH   9  10
ENDBRANCH   8   9
ENDBRANCH   3   8
BRANCH   7  14
ATOM     14  C   UNL     1      37.084 -16.154 -28.168  1.00  0.00     0.380 C 
BRANCH  14  15
ATOM     15  S   UNL     1      35.903 -17.020 -27.284  1.00  0.00     0.181 S 
BRANCH  15  16
ATOM     16  O   UNL     1      36.204 -18.518 -26.754  1.00  0.00    -0.182 OA
ATOM     17  H   UNL     1      36.932 -18.935 -27.301  1.00  0.00     0.283 HD
ENDBRANCH  15  16
BRANCH  15  18
ATOM     18  C   UNL     1      34.517 -16.199 -26.719  1.00  0.00     0.179 A 
ATOM     19  N   UNL     1      34.325 -15.378 -25.678  1.00  0.00    -0.390 NA
ATOM     20  N   UNL     1      33.302 -16.298 -27.325  1.00  0.00    -0.390 NA
ATOM     21  C   UNL     1      33.041 -14.983 -25.642  1.00  0.00    -0.035 A 
ATOM     22  C   UNL     1      32.379 -15.568 -26.693  1.00  0.00    -0.035 A 
ATOM     23  C   UNL     1      32.315 -14.149 -24.796  1.00  0.00     0.004 A 
ATOM     24  C   UNL     1      31.018 -15.330 -26.903  1.00  0.00     0.004 A 
ATOM     25  C   UNL     1      30.979 -13.902 -24.984  1.00  0.00     0.000 A 
ATOM     26  C   UNL     1      30.332 -14.496 -26.043  1.00  0.00     0.000 A 
ENDBRANCH  15  18
ENDBRANCH  14  15
ENDBRANCH   7  14
TORSDOF 7
ENDMDL
MODEL 2
REMARK VINA RESULT:      -6.4      0.701      1.458
REMARK SMILES Cc1c(OCC(F)(F)F)ccnc1C[S+](O)c1nc2ccccc2[n-]1
REMARK SMILES IDX 1 1 2 2 3 3 10 4 11 5 12 6 13 7 4 8 5 9 6 10 7 11 8 12 9 13
REMARK SMILES IDX 14 14 15 15 16 16 17 18 18 19 25 20 19 21 24 22 20 23 23 24
REMARK SMILES IDX 21 25 22 26
REMARK H PARENT 16 17
ROOT
ATOM      1  C   UNL     1      36.492 -13.673 -27.693  1.00  0.00     0.050 C 
ATOM      2  C   UNL     1      36.076 -14.375 -28.932  1.00  0.00     0.018 A 
ATOM      3  C   UNL     1      35.380 -13.683 -29.923  1.00  0.00     0.126 A 
ATOM      4  C   UNL     1      35.004 -14.382 -31.049  1.00  0.00     0.067 A 
ATOM      5  C   UNL     1      35.307 -15.715 -31.184  1.00  0.00     0.115 A 
ATOM      6  N   UNL     1      35.971 -16.340 -30.220  1.00  0.00    -0.256 NA
ATOM      7  C   UNL     1      36.373 -15.710 -29.082  1.00  0.00     0.100 A 
ENDROOT
BRANCH   3   8
ATOM      8  O   UNL     1      35.107 -12.340 -29.725  1.00  0.00    -0.484 OA
BRANCH   8   9
ATOM      9  C   UNL     1      33.857 -11.775 -29.992  1.00  0.00     0.344 C 
BRANCH   9  10
ATOM     10  C   UNL     1      34.052 -10.714 -31.057  1.00  0.00     0.422 C 
ATOM     11  F   UNL     1      35.413 -10.500 -31.179  1.00  0.00    -0.167 F 
ATOM     12  F   UNL     1      33.443  -9.531 -30.694  1.00  0.00    -0.167 F 
ATOM     13  F   UNL     1      33.573 -11.144 -32.276  1.00  0.00    -0.167 F 
ENDBRANCH   9  10
ENDBRANCH   8   9
ENDBRANCH   3   8
BRANCH   7  14
ATOM     14  C   UNL     1      37.130 -16.487 -28.059  1.00  0.00     0.380 C 
BRANCH  14  15
ATOM     15  S   UNL     1      36.033 -17.190 -26.950  1.00  0.00     0.181 S 
BRANCH  15  16
ATOM     16  O   UNL     1      36.490 -18.418 -26.003  1.00  0.00    -0.182 OA
ATOM     17  H   UNL     1      37.481 -18.388 -25.857  1.00  0.00     0.283 HD
ENDBRANCH  15  16
BRANCH  15  18
ATOM     18  C   UNL     1      34.544 -16.411 -26.644  1.00  0.00     0.179 A 
ATOM     19  N   UNL     1      33.357 -16.474 -27.261  1.00  0.00    -0.390 NA
ATOM     20  N   UNL     1      34.369 -15.529 -25.621  1.00  0.00    -0.390 NA
ATOM     21  C   UNL     1      32.481 -15.663 -26.644  1.00  0.00    -0.035 A 
ATOM     22  C   UNL     1      33.121 -15.054 -25.593  1.00  0.00    -0.035 A 
ATOM     23  C   UNL     1      31.141 -15.353 -26.861  1.00  0.00     0.004 A 
ATOM     24  C   UNL     1      32.444 -14.151 -24.769  1.00  0.00     0.004 A 
ATOM     25  C   UNL     1      30.458 -14.470 -26.064  1.00  0.00     0.000 A 
ATOM     26  C   UNL     1      31.116 -13.869 -25.015  1.00  0.00     0.000 A 
ENDBRANCH  15  18
ENDBRANCH  14  15
ENDBRANCH   7  14
TORSDOF 7
ENDMDL
MODEL 3
REMARK VINA RESULT:      -6.4      0.732      1.049
REMARK SMILES Cc1c(OCC(F)(F)F)ccnc1C[S+](O)c1nc2ccccc2[n-]1
REMARK SMILES IDX 1 1 2 2 3 3 10 4 11 5 12 6 13 7 4 8 5 9 6 10 7 11 8 12 9 13
REMARK SMILES IDX 14 14 15 15 16 16 17 18 18 19 25 20 19 21 24 22 20 23 23 24
REMARK SMILES IDX 21 25 22 26
REMARK H PARENT 16 17
ROOT
ATOM      1  C   UNL     1      35.798 -12.871 -28.572  1.00  0.00     0.050 C 
ATOM      2  C   UNL     1      36.003 -13.598 -29.848  1.00  0.00     0.018 A 
ATOM      3  C   UNL     1      35.587 -13.024 -31.051  1.00  0.00     0.126 A 
ATOM      4  C   UNL     1      35.788 -13.745 -32.207  1.00  0.00     0.067 A 
ATOM      5  C   UNL     1      36.376 -14.986 -32.171  1.00  0.00     0.115 A 
ATOM      6  N   UNL     1      36.758 -15.499 -31.009  1.00  0.00    -0.256 NA
ATOM      7  C   UNL     1      36.591 -14.841 -29.828  1.00  0.00     0.100 A 
ENDROOT
BRANCH   3   8
ATOM      8  O   UNL     1      35.002 -11.770 -31.017  1.00  0.00    -0.484 OA
BRANCH   8   9
ATOM      9  C   UNL     1      33.942 -11.408 -31.853  1.00  0.00     0.344 C 
BRANCH   9  10
ATOM     10  C   UNL     1      32.909 -10.697 -31.003  1.00  0.00     0.422 C 
ATOM     11  F   UNL     1      32.686 -11.482 -29.885  1.00  0.00    -0.167 F 
ATOM     12  F   UNL     1      31.722 -10.546 -31.688  1.00  0.00    -0.167 F 
ATOM     13  F   UNL     1      33.376  -9.470 -30.580  1.00  0.00    -0.167 F 
ENDBRANCH   9  10
ENDBRANCH   8   9
ENDBRANCH   3   8
BRANCH   7  14
ATOM     14  C   UNL     1      37.067 -15.488 -28.571  1.00  0.00     0.380 C 
BRANCH  14  15
ATOM     15  S   UNL     1      35.850 -16.529 -27.970  1.00  0.00     0.181 S 
BRANCH  15  16
ATOM     16  O   UNL     1      36.098 -18.125 -27.884  1.00  0.00    -0.182 OA
ATOM     17  H   UNL     1      36.969 -18.312 -27.425  1.00  0.00     0.283 HD
ENDBRANCH  15  16
BRANCH  15  18
ATOM     18  C   UNL     1      34.483 -15.857 -27.200  1.00  0.00     0.179 A 
ATOM     19  N   UNL     1      34.353 -15.123 -26.087  1.00  0.00    -0.390 NA
ATOM     20  N   UNL     1      33.216 -16.011 -27.676  1.00  0.00    -0.390 NA
ATOM     21  C   UNL     1      33.057 -14.832 -25.883  1.00  0.00    -0.035 A 
ATOM     22  C   UNL     1      32.322 -15.397 -26.897  1.00  0.00    -0.035 A 
ATOM     23  C   UNL     1      32.375 -14.113 -24.905  1.00  0.00     0.004 A 
ATOM     24  C   UNL     1      30.933 -15.252 -26.940  1.00  0.00     0.004 A 
ATOM     25  C   UNL     1      31.012 -13.959 -24.928  1.00  0.00     0.000 A 
ATOM     26  C   UNL     1      30.292 -14.533 -25.952  1.00  0.00     0.000 A 
ENDBRANCH  15  18
ENDBRANCH  14  15
ENDBRANCH   7  14
TORSDOF 7
ENDMDL
MODEL 4
REMARK VINA RESULT:      -6.3     14.369     17.529
REMARK SMILES Cc1c(OCC(F)(F)F)ccnc1C[S+](O)c1nc2ccccc2[n-]1
REMARK SMILES IDX 1 1 2 2 3 3 10 4 11 5 12 6 13 7 4 8 5 9 6 10 7 11 8 12 9 13
REMARK SMILES IDX 14 14 15 15 16 16 17 18 18 19 25 20 19 21 24 22 20 23 23 24
REMARK SMILES IDX 21 25 22 26
REMARK H PARENT 16 17
ROOT
ATOM      1  C   UNL     1      19.148 -22.985 -22.821  1.00  0.00     0.050 C 
ATOM      2  C   UNL     1      18.961 -21.544 -22.523  1.00  0.00     0.018 A 
ATOM      3  C   UNL     1      18.155 -21.154 -21.452  1.00  0.00     0.126 A 
ATOM      4  C   UNL     1      18.002 -19.804 -21.224  1.00  0.00     0.067 A 
ATOM      5  C   UNL     1      18.622 -18.879 -22.028  1.00  0.00     0.115 A 
ATOM      6  N   UNL     1      19.381 -19.287 -23.037  1.00  0.00    -0.256 NA
ATOM      7  C   UNL     1      19.576 -20.605 -23.318  1.00  0.00     0.100 A 
ENDROOT
BRANCH   3   8
ATOM      8  O   UNL     1      17.559 -22.137 -20.681  1.00  0.00    -0.484 OA
BRANCH   8   9
ATOM      9  C   UNL     1      18.092 -22.570 -19.463  1.00  0.00     0.344 C 
BRANCH   9  10
ATOM     10  C   UNL     1      17.320 -21.885 -18.355  1.00  0.00     0.422 C 
ATOM     11  F   UNL     1      18.089 -20.820 -17.917  1.00  0.00    -0.167 F 
ATOM     12  F   UNL     1      17.103 -22.744 -17.298  1.00  0.00    -0.167 F 
ATOM     13  F   UNL     1      16.122 -21.387 -18.821  1.00  0.00    -0.167 F 
ENDBRANCH   9  10
ENDBRANCH   8   9
ENDBRANCH   3   8
BRANCH   7  14
ATOM     14  C   UNL     1      20.460 -20.973 -24.462  1.00  0.00     0.380 C 
BRANCH  14  15
ATOM     15  S   UNL     1      21.957 -20.159 -24.311  1.00  0.00     0.181 S 
BRANCH  15  16
ATOM     16  O   UNL     1      22.022 -18.654 -23.722  1.00  0.00    -0.182 OA
ATOM     17  H   UNL     1      21.335 -18.538 -23.001  1.00  0.00     0.283 HD
ENDBRANCH  15  16
BRANCH  15  18
ATOM     18  C   UNL     1      23.407 -21.036 -24.518  1.00  0.00     0.179 A 
ATOM     19  N   UNL     1      24.149 -21.753 -23.664  1.00  0.00    -0.390 NA
ATOM     20  N   UNL     1      24.060 -21.113 -25.711  1.00  0.00    -0.390 NA
ATOM     21  C   UNL     1      25.219 -22.256 -24.303  1.00  0.00    -0.035 A 
ATOM     22  C   UNL     1      25.169 -21.851 -25.614  1.00  0.00    -0.035 A 
ATOM     23  C   UNL     1      26.287 -23.056 -23.907  1.00  0.00     0.004 A 
ATOM     24  C   UNL     1      26.163 -22.232 -26.519  1.00  0.00     0.004 A 
ATOM     25  C   UNL     1      27.274 -23.441 -24.779  1.00  0.00     0.000 A 
ATOM     26  C   UNL     1      27.207 -23.026 -26.090  1.00  0.00     0.000 A 
ENDBRANCH  15  18
ENDBRANCH  14  15
ENDBRANCH   7  14
TORSDOF 7
ENDMDL
MODEL 5
REMARK VINA RESULT:      -6.3      0.635      1.298
REMARK SMILES Cc1c(OCC(F)(F)F)ccnc1C[S+](O)c1nc2ccccc2[n-]1
REMARK SMILES IDX 1 1 2 2 3 3 10 4 11 5 12 6 13 7 4 8 5 9 6 10 7 11 8 12 9 13
REMARK SMILES IDX 14 14 15 15 16 16 17 18 18 19 25 20 19 21 24 22 20 23 23 24
REMARK SMILES IDX 21 25 22 26
REMARK H PARENT 16 17
ROOT
ATOM      1  C   UNL     1      36.192 -13.293 -27.800  1.00  0.00     0.050 C 
ATOM      2  C   UNL     1      36.284 -14.023 -29.088  1.00  0.00     0.018 A 
ATOM      3  C   UNL     1      35.879 -13.402 -30.270  1.00  0.00     0.126 A 
ATOM      4  C   UNL     1      35.971 -14.127 -31.438  1.00  0.00     0.067 A 
ATOM      5  C   UNL     1      36.445 -15.417 -31.432  1.00  0.00     0.115 A 
ATOM      6  N   UNL     1      36.821 -15.973 -30.288  1.00  0.00    -0.256 NA
ATOM      7  C   UNL     1      36.758 -15.314 -29.098  1.00  0.00     0.100 A 
ENDROOT
BRANCH   3   8
ATOM      8  O   UNL     1      35.411 -12.101 -30.207  1.00  0.00    -0.484 OA
BRANCH   8   9
ATOM      9  C   UNL     1      34.316 -11.654 -30.951  1.00  0.00     0.344 C 
BRANCH   9  10
ATOM     10  C   UNL     1      33.151 -11.483 -29.997  1.00  0.00     0.422 C 
ATOM     11  F   UNL     1      32.008 -11.347 -30.765  1.00  0.00    -0.167 F 
ATOM     12  F   UNL     1      33.307 -10.353 -29.222  1.00  0.00    -0.167 F 
ATOM     13  F   UNL     1      33.001 -12.596 -29.197  1.00  0.00    -0.167 F 
ENDBRANCH   9  10
ENDBRANCH   8   9
ENDBRANCH   3   8
BRANCH   7  14
ATOM     14  C   UNL     1      37.218 -16.013 -27.863  1.00  0.00     0.380 C 
BRANCH  14  15
ATOM     15  S   UNL     1      35.952 -16.989 -27.255  1.00  0.00     0.181 S 
BRANCH  15  16
ATOM     16  O   UNL     1      36.230 -18.520 -26.811  1.00  0.00    -0.182 OA
ATOM     17  H   UNL     1      37.205 -18.649 -26.617  1.00  0.00     0.283 HD
ENDBRANCH  15  16
BRANCH  15  18
ATOM     18  C   UNL     1      34.460 -16.264 -26.852  1.00  0.00     0.179 A 
ATOM     19  N   UNL     1      33.244 -16.349 -27.408  1.00  0.00    -0.390 NA
ATOM     20  N   UNL     1      34.313 -15.411 -25.801  1.00  0.00    -0.390 NA
ATOM     21  C   UNL     1      32.378 -15.579 -26.727  1.00  0.00    -0.035 A 
ATOM     22  C   UNL     1      33.055 -14.975 -25.696  1.00  0.00    -0.035 A 
ATOM     23  C   UNL     1      31.020 -15.305 -26.866  1.00  0.00     0.004 A 
ATOM     24  C   UNL     1      32.396 -14.112 -24.816  1.00  0.00     0.004 A 
ATOM     25  C   UNL     1      30.355 -14.462 -26.013  1.00  0.00     0.000 A 
ATOM     26  C   UNL     1      31.049 -13.865 -24.985  1.00  0.00     0.000 A 
ENDBRANCH  15  18
ENDBRANCH  14  15
ENDBRANCH   7  14
TORSDOF 7
ENDMDL
MODEL 6
REMARK VINA RESULT:      -6.2     14.613     17.323
REMARK SMILES Cc1c(OCC(F)(F)F)ccnc1C[S+](O)c1nc2ccccc2[n-]1
REMARK SMILES IDX 1 1 2 2 3 3 10 4 11 5 12 6 13 7 4 8 5 9 6 10 7 11 8 12 9 13
REMARK SMILES IDX 14 14 15 15 16 16 17 18 18 19 25 20 19 21 24 22 20 23 23 24
REMARK SMILES IDX 21 25 22 26
REMARK H PARENT 16 17
ROOT
ATOM      1  C   UNL     1      18.965 -19.535 -22.306  1.00  0.00     0.050 C 
ATOM      2  C   UNL     1      19.052 -20.938 -22.779  1.00  0.00     0.018 A 
ATOM      3  C   UNL     1      18.485 -21.964 -22.022  1.00  0.00     0.126 A 
ATOM      4  C   UNL     1      18.604 -23.251 -22.497  1.00  0.00     0.067 A 
ATOM      5  C   UNL     1      19.259 -23.510 -23.676  1.00  0.00     0.115 A 
ATOM      6  N   UNL     1      19.785 -22.508 -24.370  1.00  0.00    -0.256 NA
ATOM      7  C   UNL     1      19.704 -21.212 -23.959  1.00  0.00     0.100 A 
ENDROOT
BRANCH   3   8
ATOM      8  O   UNL     1      17.839 -21.635 -20.843  1.00  0.00    -0.484 OA
BRANCH   8   9
ATOM      9  C   UNL     1      18.235 -22.133 -19.598  1.00  0.00     0.344 C 
BRANCH   9  10
ATOM     10  C   UNL     1      18.662 -20.955 -18.747  1.00  0.00     0.422 C 
ATOM     11  F   UNL     1      20.046 -20.936 -18.736  1.00  0.00    -0.167 F 
ATOM     12  F   UNL     1      18.206 -21.089 -17.452  1.00  0.00    -0.167 F 
ATOM     13  F   UNL     1      18.220 -19.767 -19.289  1.00  0.00    -0.167 F 
ENDBRANCH   9  10
ENDBRANCH   8   9
ENDBRANCH   3   8
BRANCH   7  14
ATOM     14  C   UNL     1      20.309 -20.149 -24.811  1.00  0.00     0.380 C 
BRANCH  14  15
ATOM     15  S   UNL     1      21.954 -19.947 -24.388  1.00  0.00     0.181 S 
BRANCH  15  16
ATOM     16  O   UNL     1      22.456 -18.601 -23.645  1.00  0.00    -0.182 OA
ATOM     17  H   UNL     1      22.799 -17.944 -24.320  1.00  0.00     0.283 HD
ENDBRANCH  15  16
BRANCH  15  18
ATOM     18  C   UNL     1      23.013 -21.282 -24.495  1.00  0.00     0.179 A 
ATOM     19  N   UNL     1      23.087 -22.299 -25.365  1.00  0.00    -0.390 NA
ATOM     20  N   UNL     1      24.019 -21.501 -23.604  1.00  0.00    -0.390 NA
ATOM     21  C   UNL     1      24.100 -23.114 -25.026  1.00  0.00    -0.035 A 
ATOM     22  C   UNL     1      24.702 -22.610 -23.899  1.00  0.00    -0.035 A 
ATOM     23  C   UNL     1      24.612 -24.288 -25.571  1.00  0.00     0.004 A 
ATOM     24  C   UNL     1      25.796 -23.260 -23.321  1.00  0.00     0.004 A 
ATOM     25  C   UNL     1      25.685 -24.942 -25.019  1.00  0.00     0.000 A 
ATOM     26  C   UNL     1      26.276 -24.422 -23.890  1.00  0.00     0.000 A 
ENDBRANCH  15  18
ENDBRANCH  14  15
ENDBRANCH   7  14
TORSDOF 7
ENDMDL
MODEL 7
REMARK VINA RESULT:      -6.0     13.522     16.373
REMARK SMILES Cc1c(OCC(F)(F)F)ccnc1C[S+](O)c1nc2ccccc2[n-]1
REMARK SMILES IDX 1 1 2 2 3 3 10 4 11 5 12 6 13 7 4 8 5 9 6 10 7 11 8 12 9 13
REMARK SMILES IDX 14 14 15 15 16 16 17 18 18 19 25 20 19 21 24 22 20 23 23 24
REMARK SMILES IDX 21 25 22 26
REMARK H PARENT 16 17
ROOT
ATOM      1  C   UNL     1      20.489 -18.480 -23.542  1.00  0.00     0.050 C 
ATOM      2  C   UNL     1      20.134 -19.919 -23.465  1.00  0.00     0.018 A 
ATOM      3  C   UNL     1      18.921 -20.307 -22.895  1.00  0.00     0.126 A 
ATOM      4  C   UNL     1      18.643 -21.654 -22.835  1.00  0.00     0.067 A 
ATOM      5  C   UNL     1      19.535 -22.580 -23.321  1.00  0.00     0.115 A 
ATOM      6  N   UNL     1      20.679 -22.173 -23.856  1.00  0.00    -0.256 NA
ATOM      7  C   UNL     1      21.016 -20.857 -23.948  1.00  0.00     0.100 A 
ENDROOT
BRANCH   3   8
ATOM      8  O   UNL     1      18.067 -19.323 -22.425  1.00  0.00    -0.484 OA
BRANCH   8   9
ATOM      9  C   UNL     1      17.855 -19.094 -21.063  1.00  0.00     0.344 C 
BRANCH   9  10
ATOM     10  C   UNL     1      16.407 -19.423 -20.762  1.00  0.00     0.422 C 
ATOM     11  F   UNL     1      16.404 -20.446 -19.829  1.00  0.00    -0.167 F 
ATOM     12  F   UNL     1      15.750 -19.852 -21.897  1.00  0.00    -0.167 F 
ATOM     13  F   UNL     1      15.757 -18.338 -20.214  1.00  0.00    -0.167 F 
ENDBRANCH   9  10
ENDBRANCH   8   9
ENDBRANCH   3   8
BRANCH   7  14
ATOM     14  C   UNL     1      22.316 -20.491 -24.581  1.00  0.00     0.380 C 
BRANCH  14  15
ATOM     15  S   UNL     1      23.238 -21.906 -24.849  1.00  0.00     0.181 S 
BRANCH  15  16
ATOM     16  O   UNL     1      22.917 -22.875 -26.104  1.00  0.00    -0.182 OA
ATOM     17  H   UNL     1      22.031 -22.634 -26.505  1.00  0.00     0.283 HD
ENDBRANCH  15  16
BRANCH  15  18
ATOM     18  C   UNL     1      24.675 -22.147 -23.958  1.00  0.00     0.179 A 
ATOM     19  N   UNL     1      24.892 -22.403 -22.662  1.00  0.00    -0.390 NA
ATOM     20  N   UNL     1      25.913 -22.095 -24.524  1.00  0.00    -0.390 NA
ATOM     21  C   UNL     1      26.212 -22.507 -22.434  1.00  0.00    -0.035 A 
ATOM     22  C   UNL     1      26.872 -22.311 -23.622  1.00  0.00    -0.035 A 
ATOM     23  C   UNL     1      26.975 -22.760 -21.297  1.00  0.00     0.004 A 
ATOM     24  C   UNL     1      28.268 -22.365 -23.682  1.00  0.00     0.004 A 
ATOM     25  C   UNL     1      28.344 -22.817 -21.334  1.00  0.00     0.000 A 
ATOM     26  C   UNL     1      28.990 -22.619 -22.534  1.00  0.00     0.000 A 
ENDBRANCH  15  18
ENDBRANCH  14  15
ENDBRANCH   7  14
TORSDOF 7
ENDMDL
MODEL 8
REMARK VINA RESULT:      -5.9     16.399     19.645
REMARK SMILES Cc1c(OCC(F)(F)F)ccnc1C[S+](O)c1nc2ccccc2[n-]1
REMARK SMILES IDX 1 1 2 2 3 3 10 4 11 5 12 6 13 7 4 8 5 9 6 10 7 11 8 12 9 13
REMARK SMILES IDX 14 14 15 15 16 16 17 18 18 19 25 20 19 21 24 22 20 23 23 24
REMARK SMILES IDX 21 25 22 26
REMARK H PARENT 16 17
ROOT
ATOM      1  C   UNL     1      17.924 -24.846 -21.891  1.00  0.00     0.050 C 
ATOM      2  C   UNL     1      18.371 -23.781 -20.960  1.00  0.00     0.018 A 
ATOM      3  C   UNL     1      18.561 -24.073 -19.609  1.00  0.00     0.126 A 
ATOM      4  C   UNL     1      18.964 -23.048 -18.782  1.00  0.00     0.067 A 
ATOM      5  C   UNL     1      19.170 -21.783 -19.277  1.00  0.00     0.115 A 
ATOM      6  N   UNL     1      18.980 -21.543 -20.568  1.00  0.00    -0.256 NA
ATOM      7  C   UNL     1      18.583 -22.510 -21.441  1.00  0.00     0.100 A 
ENDROOT
BRANCH   3   8
ATOM      8  O   UNL     1      18.337 -25.369 -19.175  1.00  0.00    -0.484 OA
BRANCH   8   9
ATOM      9  C   UNL     1      17.500 -25.671 -18.097  1.00  0.00     0.344 C 
BRANCH   9  10
ATOM     10  C   UNL     1      18.319 -26.439 -17.081  1.00  0.00     0.422 C 
ATOM     11  F   UNL     1      19.050 -25.512 -16.358  1.00  0.00    -0.167 F 
ATOM     12  F   UNL     1      19.190 -27.309 -17.702  1.00  0.00    -0.167 F 
ATOM     13  F   UNL     1      17.504 -27.123 -16.203  1.00  0.00    -0.167 F 
ENDBRANCH   9  10
ENDBRANCH   8   9
ENDBRANCH   3   8
BRANCH   7  14
ATOM     14  C   UNL     1      18.410 -22.154 -22.879  1.00  0.00     0.380 C 
BRANCH  14  15
ATOM     15  S   UNL     1      19.715 -21.168 -23.383  1.00  0.00     0.181 S 
BRANCH  15  16
ATOM     16  O   UNL     1      19.858 -19.650 -22.843  1.00  0.00    -0.182 OA
ATOM     17  H   UNL     1      20.819 -19.448 -22.640  1.00  0.00     0.283 HD
ENDBRANCH  15  16
BRANCH  15  18
ATOM     18  C   UNL     1      21.016 -21.877 -24.231  1.00  0.00     0.179 A 
ATOM     19  N   UNL     1      21.089 -22.956 -25.020  1.00  0.00    -0.390 NA
ATOM     20  N   UNL     1      22.281 -21.374 -24.197  1.00  0.00    -0.390 NA
ATOM     21  C   UNL     1      22.349 -23.115 -25.458  1.00  0.00    -0.035 A 
ATOM     22  C   UNL     1      23.119 -22.105 -24.935  1.00  0.00    -0.035 A 
ATOM     23  C   UNL     1      22.969 -24.047 -26.286  1.00  0.00     0.004 A 
ATOM     24  C   UNL     1      24.482 -22.021 -25.229  1.00  0.00     0.004 A 
ATOM     25  C   UNL     1      24.305 -23.982 -26.587  1.00  0.00     0.000 A 
ATOM     26  C   UNL     1      25.062 -22.963 -26.054  1.00  0.00     0.000 A 
ENDBRANCH  15  18
ENDBRANCH  14  15
ENDBRANCH   7  14
TORSDOF 7
ENDMDL
MODEL 9
REMARK VINA RESULT:      -5.9      1.787      2.386
REMARK SMILES Cc1c(OCC(F)(F)F)ccnc1C[S+](O)c1nc2ccccc2[n-]1
REMARK SMILES IDX 1 1 2 2 3 3 10 4 11 5 12 6 13 7 4 8 5 9 6 10 7 11 8 12 9 13
REMARK SMILES IDX 14 14 15 15 16 16 17 18 18 19 25 20 19 21 24 22 20 23 23 24
REMARK SMILES IDX 21 25 22 26
REMARK H PARENT 16 17
ROOT
ATOM      1  C   UNL     1      36.176 -12.608 -30.801  1.00  0.00     0.050 C 
ATOM      2  C   UNL     1      35.373 -13.469 -31.704  1.00  0.00     0.018 A 
ATOM      3  C   UNL     1      34.478 -12.888 -32.604  1.00  0.00     0.126 A 
ATOM      4  C   UNL     1      33.745 -13.730 -33.411  1.00  0.00     0.067 A 
ATOM      5  C   UNL     1      33.894 -15.093 -33.327  1.00  0.00     0.115 A 
ATOM      6  N   UNL     1      34.755 -15.609 -32.459  1.00  0.00    -0.256 NA
ATOM      7  C   UNL     1      35.511 -14.835 -31.633  1.00  0.00     0.100 A 
ENDROOT
BRANCH   3   8
ATOM      8  O   UNL     1      34.377 -11.508 -32.638  1.00  0.00    -0.484 OA
BRANCH   8   9
ATOM      9  C   UNL     1      34.330 -10.724 -31.481  1.00  0.00     0.344 C 
BRANCH   9  10
ATOM     10  C   UNL     1      32.896 -10.711 -30.993  1.00  0.00     0.422 C 
ATOM     11  F   UNL     1      32.680  -9.485 -30.387  1.00  0.00    -0.167 F 
ATOM     12  F   UNL     1      32.677 -11.712 -30.070  1.00  0.00    -0.167 F 
ATOM     13  F   UNL     1      32.014 -10.830 -32.046  1.00  0.00    -0.167 F 
ENDBRANCH   9  10
ENDBRANCH   8   9
ENDBRANCH   3   8
BRANCH   7  14
ATOM     14  C   UNL     1      36.466 -15.501 -30.700  1.00  0.00     0.380 C 
BRANCH  14  15
ATOM     15  S   UNL     1      35.592 -16.358 -29.505  1.00  0.00     0.181 S 
BRANCH  15  16
ATOM     16  O   UNL     1      35.833 -17.942 -29.284  1.00  0.00    -0.182 OA
ATOM     17  H   UNL     1      35.104 -18.466 -29.730  1.00  0.00     0.283 HD
ENDBRANCH  15  16
BRANCH  15  18
ATOM     18  C   UNL     1      34.673 -15.488 -28.359  1.00  0.00     0.179 A 
ATOM     19  N   UNL     1      33.876 -15.889 -27.360  1.00  0.00    -0.390 NA
ATOM     20  N   UNL     1      34.633 -14.128 -28.324  1.00  0.00    -0.390 NA
ATOM     21  C   UNL     1      33.363 -14.819 -26.731  1.00  0.00    -0.035 A 
ATOM     22  C   UNL     1      33.843 -13.687 -27.342  1.00  0.00    -0.035 A 
ATOM     23  C   UNL     1      32.498 -14.662 -25.651  1.00  0.00     0.004 A 
ATOM     24  C   UNL     1      33.472 -12.418 -26.889  1.00  0.00     0.004 A 
ATOM     25  C   UNL     1      32.122 -13.426 -25.191  1.00  0.00     0.000 A 
ATOM     26  C   UNL     1      32.613 -12.301 -25.815  1.00  0.00     0.000 A 
ENDBRANCH  15  18
ENDBRANCH  14  15
ENDBRANCH   7  14
TORSDOF 7
ENDMDL
