MODEL 1
REMARK VINA RESULT:       4.6      0.000      0.000
REMARK SMILES CC/C(=C(\c1ccccc1)c1ccc(OCC[NH+](C)C)cc1)c1ccccc1
REMARK SMILES IDX 15 1 14 2 11 3 12 4 22 5 13 6 21 7 4 8 3 9 2 10 1 11 23 12
REMARK SMILES IDX 24 13 28 14 25 15 27 16 26 17 5 18 6 19 10 20 7 21 9 22 8 23
REMARK SMILES IDX 16 24 17 25 18 26 19 27 20 28
REMARK H PARENT 18 29
ROOT
ATOM      1  O   UNL     1     127.393 127.121 165.067  1.00  0.00    -0.488 OA
ENDROOT
BRANCH   1   2
ATOM      2  C   UNL     1     127.066 125.786 165.219  1.00  0.00     0.119 A 
ATOM      3  C   UNL     1     126.279 123.058 165.533  1.00  0.00    -0.017 A 
ATOM      4  C   UNL     1     127.601 123.419 165.367  1.00  0.00     0.012 A 
ATOM      5  C   UNL     1     125.360 124.103 165.540  1.00  0.00     0.012 A 
ATOM      6  C   UNL     1     127.968 124.747 165.215  1.00  0.00     0.047 A 
ATOM      7  C   UNL     1     125.724 125.415 165.390  1.00  0.00     0.047 A 
BRANCH   3   8
ATOM      8  C   UNL     1     125.868 121.678 165.718  1.00  0.00    -0.007 C 
ATOM      9  C   UNL     1     125.138 121.034 164.844  1.00  0.00    -0.033 C 
BRANCH   9  10
ATOM     10  C   UNL     1     124.650 119.637 165.005  1.00  0.00     0.033 C 
ATOM     11  C   UNL     1     123.174 119.666 165.273  1.00  0.00     0.009 C 
ENDBRANCH   9  10
BRANCH   9  12
ATOM     12  C   UNL     1     124.785 121.648 163.551  1.00  0.00    -0.022 A 
ATOM     13  C   UNL     1     125.715 122.288 162.773  1.00  0.00     0.008 A 
ATOM     14  C   UNL     1     123.490 121.577 163.137  1.00  0.00     0.008 A 
ATOM     15  C   UNL     1     125.333 122.852 161.581  1.00  0.00     0.001 A 
ATOM     16  C   UNL     1     123.057 122.138 161.932  1.00  0.00     0.001 A 
ATOM     17  C   UNL     1     124.013 122.773 161.171  1.00  0.00     0.000 A 
ENDBRANCH   9  12
BRANCH   8  18
ATOM     18  C   UNL     1     126.260 121.012 166.944  1.00  0.00    -0.018 A 
ATOM     19  C   UNL     1     127.582 120.823 167.290  1.00  0.00     0.009 A 
ATOM     20  C   UNL     1     125.279 120.499 167.789  1.00  0.00     0.009 A 
ATOM     21  C   UNL     1     127.885 120.142 168.442  1.00  0.00     0.001 A 
ATOM     22  C   UNL     1     125.565 119.816 168.948  1.00  0.00     0.001 A 
ATOM     23  C   UNL     1     126.906 119.638 169.275  1.00  0.00     0.000 A 
ENDBRANCH   8  18
ENDBRANCH   3   8
ENDBRANCH   1   2
BRANCH   1  24
ATOM     24  C   UNL     1     126.549 128.215 164.996  1.00  0.00     0.290 C 
BRANCH  24  25
ATOM     25  C   UNL     1     126.486 128.907 163.659  1.00  0.00     0.303 C 
BRANCH  25  26
ATOM     26  N   UNL     1     127.755 129.409 163.230  1.00  0.00    -0.337 N 
ATOM     27  C   UNL     1     128.249 128.775 162.027  1.00  0.00     0.332 C 
ATOM     28  C   UNL     1     128.786 129.270 164.238  1.00  0.00     0.332 C 
ATOM     29  H   UNL     1     127.708 130.450 163.016  1.00  0.00     0.347 HD
ENDBRANCH  25  26
ENDBRANCH  24  25
ENDBRANCH   1  24
TORSDOF 8
ENDMDL
MODEL 2
REMARK VINA RESULT:       5.5      0.930      4.552
REMARK SMILES CC/C(=C(\c1ccccc1)c1ccc(OCC[NH+](C)C)cc1)c1ccccc1
REMARK SMILES IDX 15 1 14 2 11 3 12 4 22 5 13 6 21 7 4 8 3 9 2 10 1 11 23 12
REMARK SMILES IDX 24 13 28 14 25 15 27 16 26 17 5 18 6 19 10 20 7 21 9 22 8 23
REMARK SMILES IDX 16 24 17 25 18 26 19 27 20 28
REMARK H PARENT 18 29
ROOT
ATOM      1  O   UNL     1     127.889 126.984 165.675  1.00  0.00    -0.488 OA
ENDROOT
BRANCH   1   2
ATOM      2  C   UNL     1     127.284 125.768 165.415  1.00  0.00     0.119 A 
ATOM      3  C   UNL     1     125.948 123.313 164.822  1.00  0.00    -0.017 A 
ATOM      4  C   UNL     1     127.175 123.340 165.457  1.00  0.00     0.012 A 
ATOM      5  C   UNL     1     125.408 124.553 164.494  1.00  0.00     0.012 A 
ATOM      6  C   UNL     1     127.810 124.539 165.738  1.00  0.00     0.047 A 
ATOM      7  C   UNL     1     126.038 125.736 164.772  1.00  0.00     0.047 A 
BRANCH   3   8
ATOM      8  C   UNL     1     125.248 122.074 164.537  1.00  0.00    -0.007 C 
ATOM      9  C   UNL     1     125.330 121.022 165.311  1.00  0.00    -0.033 C 
BRANCH   9  10
ATOM     10  C   UNL     1     124.673 119.713 165.042  1.00  0.00     0.033 C 
ATOM     11  C   UNL     1     123.403 119.636 165.837  1.00  0.00     0.009 C 
ENDBRANCH   9  10
BRANCH   9  12
ATOM     12  C   UNL     1     126.055 121.077 166.593  1.00  0.00    -0.022 A 
ATOM     13  C   UNL     1     127.425 121.089 166.653  1.00  0.00     0.008 A 
ATOM     14  C   UNL     1     125.328 121.106 167.743  1.00  0.00     0.008 A 
ATOM     15  C   UNL     1     128.052 121.131 167.873  1.00  0.00     0.001 A 
ATOM     16  C   UNL     1     125.925 121.148 169.007  1.00  0.00     0.001 A 
ATOM     17  C   UNL     1     127.301 121.160 169.036  1.00  0.00     0.000 A 
ENDBRANCH   9  12
BRANCH   8  18
ATOM     18  C   UNL     1     124.461 122.004 163.323  1.00  0.00    -0.018 A 
ATOM     19  C   UNL     1     123.087 122.142 163.326  1.00  0.00     0.009 A 
ATOM     20  C   UNL     1     125.093 121.740 162.111  1.00  0.00     0.009 A 
ATOM     21  C   UNL     1     122.397 122.017 162.148  1.00  0.00     0.001 A 
ATOM     22  C   UNL     1     124.416 121.613 160.920  1.00  0.00     0.001 A 
ATOM     23  C   UNL     1     123.032 121.758 160.949  1.00  0.00     0.000 A 
ENDBRANCH   8  18
ENDBRANCH   3   8
ENDBRANCH   1   2
BRANCH   1  24
ATOM     24  C   UNL     1     127.467 128.254 165.323  1.00  0.00     0.290 C 
BRANCH  24  25
ATOM     25  C   UNL     1     126.870 128.386 163.946  1.00  0.00     0.303 C 
BRANCH  25  26
ATOM     26  N   UNL     1     127.843 128.695 162.943  1.00  0.00    -0.337 N 
ATOM     27  C   UNL     1     128.063 130.115 162.773  1.00  0.00     0.332 C 
ATOM     28  C   UNL     1     127.501 128.158 161.642  1.00  0.00     0.332 C 
ATOM     29  H   UNL     1     128.792 128.277 163.182  1.00  0.00     0.347 HD
ENDBRANCH  25  26
ENDBRANCH  24  25
ENDBRANCH   1  24
TORSDOF 8
ENDMDL
MODEL 3
REMARK VINA RESULT:       5.8      0.712      1.605
REMARK SMILES CC/C(=C(\c1ccccc1)c1ccc(OCC[NH+](C)C)cc1)c1ccccc1
REMARK SMILES IDX 15 1 14 2 11 3 12 4 22 5 13 6 21 7 4 8 3 9 2 10 1 11 23 12
REMARK SMILES IDX 24 13 28 14 25 15 27 16 26 17 5 18 6 19 10 20 7 21 9 22 8 23
REMARK SMILES IDX 16 24 17 25 18 26 19 27 20 28
REMARK H PARENT 18 29
ROOT
ATOM      1  O   UNL     1     127.566 127.165 165.242  1.00  0.00    -0.488 OA
ENDROOT
BRANCH   1   2
ATOM      2  C   UNL     1     127.148 125.854 165.381  1.00  0.00     0.119 A 
ATOM      3  C   UNL     1     126.386 123.121 165.717  1.00  0.00    -0.017 A 
ATOM      4  C   UNL     1     125.512 124.063 165.211  1.00  0.00     0.012 A 
ATOM      5  C   UNL     1     127.655 123.586 166.049  1.00  0.00     0.012 A 
ATOM      6  C   UNL     1     125.897 125.386 165.053  1.00  0.00     0.047 A 
ATOM      7  C   UNL     1     128.032 124.894 165.893  1.00  0.00     0.047 A 
BRANCH   3   8
ATOM      8  C   UNL     1     126.020 121.725 165.870  1.00  0.00    -0.007 C 
ATOM      9  C   UNL     1     125.311 121.079 164.980  1.00  0.00    -0.033 C 
BRANCH   9  10
ATOM     10  C   UNL     1     124.868 119.664 165.108  1.00  0.00     0.033 C 
ATOM     11  C   UNL     1     123.399 119.641 165.417  1.00  0.00     0.009 C 
ENDBRANCH   9  10
BRANCH   9  12
ATOM     12  C   UNL     1     124.940 121.710 163.701  1.00  0.00    -0.022 A 
ATOM     13  C   UNL     1     123.650 121.709 163.237  1.00  0.00     0.008 A 
ATOM     14  C   UNL     1     125.923 122.300 162.965  1.00  0.00     0.008 A 
ATOM     15  C   UNL     1     123.359 122.303 162.034  1.00  0.00     0.001 A 
ATOM     16  C   UNL     1     125.672 122.915 161.735  1.00  0.00     0.001 A 
ATOM     17  C   UNL     1     124.368 122.899 161.296  1.00  0.00     0.000 A 
ENDBRANCH   9  12
BRANCH   8  18
ATOM     18  C   UNL     1     126.431 121.044 167.081  1.00  0.00    -0.018 A 
ATOM     19  C   UNL     1     127.750 120.728 167.337  1.00  0.00     0.009 A 
ATOM     20  C   UNL     1     125.469 120.648 168.005  1.00  0.00     0.009 A 
ATOM     21  C   UNL     1     128.067 120.041 168.481  1.00  0.00     0.001 A 
ATOM     22  C   UNL     1     125.768 119.959 169.157  1.00  0.00     0.001 A 
ATOM     23  C   UNL     1     127.105 119.652 169.393  1.00  0.00     0.000 A 
ENDBRANCH   8  18
ENDBRANCH   3   8
ENDBRANCH   1   2
BRANCH   1  24
ATOM     24  C   UNL     1     127.350 128.035 164.189  1.00  0.00     0.290 C 
BRANCH  24  25
ATOM     25  C   UNL     1     127.826 127.563 162.840  1.00  0.00     0.303 C 
BRANCH  25  26
ATOM     26  N   UNL     1     127.899 128.616 161.873  1.00  0.00    -0.337 N 
ATOM     27  C   UNL     1     127.202 129.817 162.278  1.00  0.00     0.332 C 
ATOM     28  C   UNL     1     127.370 128.231 160.581  1.00  0.00     0.332 C 
ATOM     29  H   UNL     1     128.906 128.906 161.692  1.00  0.00     0.347 HD
ENDBRANCH  25  26
ENDBRANCH  24  25
ENDBRANCH   1  24
TORSDOF 8
ENDMDL
MODEL 4
REMARK VINA RESULT:       6.2      0.774      1.199
REMARK SMILES CC/C(=C(\c1ccccc1)c1ccc(OCC[NH+](C)C)cc1)c1ccccc1
REMARK SMILES IDX 15 1 14 2 11 3 12 4 22 5 13 6 21 7 4 8 3 9 2 10 1 11 23 12
REMARK SMILES IDX 24 13 28 14 25 15 27 16 26 17 5 18 6 19 10 20 7 21 9 22 8 23
REMARK SMILES IDX 16 24 17 25 18 26 19 27 20 28
REMARK H PARENT 18 29
ROOT
ATOM      1  O   UNL     1     127.233 127.004 164.537  1.00  0.00    -0.488 OA
ENDROOT
BRANCH   1   2
ATOM      2  C   UNL     1     126.843 125.705 164.804  1.00  0.00     0.119 A 
ATOM      3  C   UNL     1     125.927 123.058 165.366  1.00  0.00    -0.017 A 
ATOM      4  C   UNL     1     127.241 123.317 165.029  1.00  0.00     0.012 A 
ATOM      5  C   UNL     1     125.083 124.163 165.415  1.00  0.00     0.012 A 
ATOM      6  C   UNL     1     127.670 124.607 164.759  1.00  0.00     0.047 A 
ATOM      7  C   UNL     1     125.510 125.437 165.147  1.00  0.00     0.047 A 
BRANCH   3   8
ATOM      8  C   UNL     1     125.455 121.721 165.678  1.00  0.00    -0.007 C 
ATOM      9  C   UNL     1     124.758 121.003 164.835  1.00  0.00    -0.033 C 
BRANCH   9  10
ATOM     10  C   UNL     1     124.209 119.649 165.119  1.00  0.00     0.033 C 
ATOM     11  C   UNL     1     123.641 119.637 166.508  1.00  0.00     0.009 C 
ENDBRANCH   9  10
BRANCH   9  12
ATOM     12  C   UNL     1     124.510 121.475 163.460  1.00  0.00    -0.022 A 
ATOM     13  C   UNL     1     125.403 122.273 162.793  1.00  0.00     0.008 A 
ATOM     14  C   UNL     1     123.348 121.106 162.853  1.00  0.00     0.008 A 
ATOM     15  C   UNL     1     125.119 122.693 161.518  1.00  0.00     0.001 A 
ATOM     16  C   UNL     1     123.018 121.512 161.557  1.00  0.00     0.001 A 
ATOM     17  C   UNL     1     123.934 122.311 160.912  1.00  0.00     0.000 A 
ENDBRANCH   9  12
BRANCH   8  18
ATOM     18  C   UNL     1     125.745 121.189 166.994  1.00  0.00    -0.018 A 
ATOM     19  C   UNL     1     124.895 121.373 168.067  1.00  0.00     0.009 A 
ATOM     20  C   UNL     1     126.940 120.509 167.210  1.00  0.00     0.009 A 
ATOM     21  C   UNL     1     125.252 120.884 169.297  1.00  0.00     0.001 A 
ATOM     22  C   UNL     1     127.313 120.012 168.437  1.00  0.00     0.001 A 
ATOM     23  C   UNL     1     126.439 120.209 169.502  1.00  0.00     0.000 A 
ENDBRANCH   8  18
ENDBRANCH   3   8
ENDBRANCH   1   2
BRANCH   1  24
ATOM     24  C   UNL     1     128.220 127.755 165.151  1.00  0.00     0.290 C 
BRANCH  24  25
ATOM     25  C   UNL     1     128.257 129.215 164.781  1.00  0.00     0.303 C 
BRANCH  25  26
ATOM     26  N   UNL     1     128.260 129.432 163.366  1.00  0.00    -0.337 N 
ATOM     27  C   UNL     1     127.712 128.324 162.613  1.00  0.00     0.332 C 
ATOM     28  C   UNL     1     129.583 129.692 162.838  1.00  0.00     0.332 C 
ATOM     29  H   UNL     1     127.678 130.283 163.103  1.00  0.00     0.347 HD
ENDBRANCH  25  26
ENDBRANCH  24  25
ENDBRANCH   1  24
TORSDOF 8
ENDMDL
MODEL 5
REMARK VINA RESULT:       7.4      0.963      4.565
REMARK SMILES CC/C(=C(\c1ccccc1)c1ccc(OCC[NH+](C)C)cc1)c1ccccc1
REMARK SMILES IDX 15 1 14 2 11 3 12 4 22 5 13 6 21 7 4 8 3 9 2 10 1 11 23 12
REMARK SMILES IDX 24 13 28 14 25 15 27 16 26 17 5 18 6 19 10 20 7 21 9 22 8 23
REMARK SMILES IDX 16 24 17 25 18 26 19 27 20 28
REMARK H PARENT 18 29
ROOT
ATOM      1  O   UNL     1     127.351 127.256 165.431  1.00  0.00    -0.488 OA
ENDROOT
BRANCH   1   2
ATOM      2  C   UNL     1     126.753 126.040 165.153  1.00  0.00     0.119 A 
ATOM      3  C   UNL     1     125.623 123.484 164.565  1.00  0.00    -0.017 A 
ATOM      4  C   UNL     1     124.841 124.553 164.955  1.00  0.00     0.012 A 
ATOM      5  C   UNL     1     126.989 123.731 164.476  1.00  0.00     0.012 A 
ATOM      6  C   UNL     1     125.404 125.787 165.237  1.00  0.00     0.047 A 
ATOM      7  C   UNL     1     127.544 124.952 164.756  1.00  0.00     0.047 A 
BRANCH   3   8
ATOM      8  C   UNL     1     125.059 122.186 164.239  1.00  0.00    -0.007 C 
ATOM      9  C   UNL     1     125.252 121.125 164.980  1.00  0.00    -0.033 C 
BRANCH   9  10
ATOM     10  C   UNL     1     124.737 119.764 164.668  1.00  0.00     0.033 C 
ATOM     11  C   UNL     1     123.339 119.640 165.199  1.00  0.00     0.009 C 
ENDBRANCH   9  10
BRANCH   9  12
ATOM     12  C   UNL     1     125.967 121.217 166.265  1.00  0.00    -0.022 A 
ATOM     13  C   UNL     1     127.325 121.396 166.330  1.00  0.00     0.008 A 
ATOM     14  C   UNL     1     125.243 121.109 167.414  1.00  0.00     0.008 A 
ATOM     15  C   UNL     1     127.944 121.465 167.553  1.00  0.00     0.001 A 
ATOM     16  C   UNL     1     125.833 121.173 168.680  1.00  0.00     0.001 A 
ATOM     17  C   UNL     1     127.197 121.354 168.714  1.00  0.00     0.000 A 
ENDBRANCH   9  12
BRANCH   8  18
ATOM     18  C   UNL     1     124.283 122.071 163.020  1.00  0.00    -0.018 A 
ATOM     19  C   UNL     1     124.825 122.318 161.775  1.00  0.00     0.009 A 
ATOM     20  C   UNL     1     122.932 121.747 163.097  1.00  0.00     0.009 A 
ATOM     21  C   UNL     1     124.024 122.237 160.666  1.00  0.00     0.001 A 
ATOM     22  C   UNL     1     122.114 121.661 161.995  1.00  0.00     0.001 A 
ATOM     23  C   UNL     1     122.684 121.914 160.750  1.00  0.00     0.000 A 
ENDBRANCH   8  18
ENDBRANCH   3   8
ENDBRANCH   1   2
BRANCH   1  24
ATOM     24  C   UNL     1     126.867 128.531 165.202  1.00  0.00     0.290 C 
BRANCH  24  25
ATOM     25  C   UNL     1     126.764 128.943 163.756  1.00  0.00     0.303 C 
BRANCH  25  26
ATOM     26  N   UNL     1     127.937 128.624 163.001  1.00  0.00    -0.337 N 
ATOM     27  C   UNL     1     128.424 129.727 162.200  1.00  0.00     0.332 C 
ATOM     28  C   UNL     1     127.743 127.501 162.105  1.00  0.00     0.332 C 
ATOM     29  H   UNL     1     128.743 128.343 163.636  1.00  0.00     0.347 HD
ENDBRANCH  25  26
ENDBRANCH  24  25
ENDBRANCH   1  24
TORSDOF 8
ENDMDL
MODEL 6
REMARK VINA RESULT:       7.5      1.191      4.736
REMARK SMILES CC/C(=C(\c1ccccc1)c1ccc(OCC[NH+](C)C)cc1)c1ccccc1
REMARK SMILES IDX 15 1 14 2 11 3 12 4 22 5 13 6 21 7 4 8 3 9 2 10 1 11 23 12
REMARK SMILES IDX 24 13 28 14 25 15 27 16 26 17 5 18 6 19 10 20 7 21 9 22 8 23
REMARK SMILES IDX 16 24 17 25 18 26 19 27 20 28
REMARK H PARENT 18 29
ROOT
ATOM      1  O   UNL     1     127.445 127.309 164.798  1.00  0.00    -0.488 OA
ENDROOT
BRANCH   1   2
ATOM      2  C   UNL     1     126.827 126.081 164.648  1.00  0.00     0.119 A 
ATOM      3  C   UNL     1     125.629 123.517 164.257  1.00  0.00    -0.017 A 
ATOM      4  C   UNL     1     125.186 124.386 165.235  1.00  0.00     0.012 A 
ATOM      5  C   UNL     1     126.689 123.970 163.478  1.00  0.00     0.012 A 
ATOM      6  C   UNL     1     125.777 125.627 165.413  1.00  0.00     0.047 A 
ATOM      7  C   UNL     1     127.272 125.196 163.655  1.00  0.00     0.047 A 
BRANCH   3   8
ATOM      8  C   UNL     1     125.012 122.222 164.032  1.00  0.00    -0.007 C 
ATOM      9  C   UNL     1     125.201 121.202 164.829  1.00  0.00    -0.033 C 
BRANCH   9  10
ATOM     10  C   UNL     1     124.633 119.842 164.621  1.00  0.00     0.033 C 
ATOM     11  C   UNL     1     123.448 119.666 165.524  1.00  0.00     0.009 C 
ENDBRANCH   9  10
BRANCH   9  12
ATOM     12  C   UNL     1     125.967 121.347 166.080  1.00  0.00    -0.022 A 
ATOM     13  C   UNL     1     125.423 121.053 167.304  1.00  0.00     0.008 A 
ATOM     14  C   UNL     1     127.249 121.798 166.001  1.00  0.00     0.008 A 
ATOM     15  C   UNL     1     126.176 121.215 168.439  1.00  0.00     0.001 A 
ATOM     16  C   UNL     1     128.051 121.979 167.131  1.00  0.00     0.001 A 
ATOM     17  C   UNL     1     127.479 121.675 168.345  1.00  0.00     0.000 A 
ENDBRANCH   9  12
BRANCH   8  18
ATOM     18  C   UNL     1     124.188 122.059 162.852  1.00  0.00    -0.018 A 
ATOM     19  C   UNL     1     123.093 121.218 162.827  1.00  0.00     0.009 A 
ATOM     20  C   UNL     1     124.527 122.731 161.681  1.00  0.00     0.009 A 
ATOM     21  C   UNL     1     122.384 121.073 161.663  1.00  0.00     0.001 A 
ATOM     22  C   UNL     1     123.826 122.598 160.505  1.00  0.00     0.001 A 
ATOM     23  C   UNL     1     122.727 121.745 160.506  1.00  0.00     0.000 A 
ENDBRANCH   8  18
ENDBRANCH   3   8
ENDBRANCH   1   2
BRANCH   1  24
ATOM     24  C   UNL     1     128.368 127.920 163.968  1.00  0.00     0.290 C 
BRANCH  24  25
ATOM     25  C   UNL     1     127.851 129.076 163.153  1.00  0.00     0.303 C 
BRANCH  25  26
ATOM     26  N   UNL     1     128.889 129.959 162.716  1.00  0.00    -0.337 N 
ATOM     27  C   UNL     1     128.953 130.105 161.277  1.00  0.00     0.332 C 
ATOM     28  C   UNL     1     130.204 129.546 163.161  1.00  0.00     0.332 C 
ATOM     29  H   UNL     1     128.754 130.940 163.105  1.00  0.00     0.347 HD
ENDBRANCH  25  26
ENDBRANCH  24  25
ENDBRANCH   1  24
TORSDOF 8
ENDMDL
