MODEL 1
REMARK VINA RESULT:      -8.0      0.000      0.000
REMARK SMILES O=C(CCCN1CCC(O)(c2ccc(Cl)cc2)CC1)c1ccc(F)cc1
REMARK SMILES IDX 4 1 3 2 2 3 1 4 20 5 21 6 26 7 22 8 25 9 23 10 24 11 5 12
REMARK SMILES IDX 6 13 7 14 19 15 8 16 18 17 9 18 10 19 11 21 12 22 17 23
REMARK SMILES IDX 13 24 16 25 14 26 15 27
REMARK H PARENT 10 20
ROOT
ATOM      1  C   UNL     1     -15.965  18.074 -15.887  1.00  0.00     0.024 C 
ENDROOT
BRANCH   1   2
ATOM      2  C   UNL     1     -15.706  16.647 -16.303  1.00  0.00     0.082 C 
BRANCH   2   3
ATOM      3  C   UNL     1     -15.935  15.661 -15.222  1.00  0.00     0.162 C 
ATOM      4  O   UNL     1     -17.095  15.259 -14.959  1.00  0.00    -0.294 OA
BRANCH   3   5
ATOM      5  C   UNL     1     -14.836  15.120 -14.425  1.00  0.00     0.018 A 
ATOM      6  C   UNL     1     -14.970  13.860 -13.848  1.00  0.00     0.015 A 
ATOM      7  C   UNL     1     -13.692  15.825 -14.238  1.00  0.00     0.015 A 
ATOM      8  C   UNL     1     -13.925  13.364 -13.100  1.00  0.00     0.040 A 
ATOM      9  C   UNL     1     -12.659  15.305 -13.481  1.00  0.00     0.040 A 
ATOM     10  C   UNL     1     -12.746  14.062 -12.893  1.00  0.00     0.123 A 
ATOM     11  F   UNL     1     -11.740  13.539 -12.148  1.00  0.00    -0.207 F 
ENDBRANCH   3   5
ENDBRANCH   2   3
ENDBRANCH   1   2
BRANCH   1  12
ATOM     12  C   UNL     1     -15.615  19.105 -16.873  1.00  0.00     0.085 C 
BRANCH  12  13
ATOM     13  N   UNL     1     -14.406  19.791 -16.691  1.00  0.00    -0.303 NA
ATOM     14  C   UNL     1     -13.881  20.445 -17.828  1.00  0.00     0.088 C 
ATOM     15  C   UNL     1     -13.432  19.275 -15.819  1.00  0.00     0.088 C 
ATOM     16  C   UNL     1     -12.497  20.986 -17.537  1.00  0.00     0.056 C 
ATOM     17  C   UNL     1     -12.696  20.435 -15.155  1.00  0.00     0.056 C 
ATOM     18  C   UNL     1     -12.530  21.557 -16.133  1.00  0.00     0.092 C 
BRANCH  18  19
ATOM     19  O   UNL     1     -13.734  22.313 -16.091  1.00  0.00    -0.385 OA
ATOM     20  H   UNL     1     -14.063  22.221 -15.165  1.00  0.00     0.211 HD
ENDBRANCH  18  19
BRANCH  18  21
ATOM     21  C   UNL     1     -11.370  22.441 -15.870  1.00  0.00    -0.016 A 
ATOM     22  C   UNL     1     -10.951  23.332 -16.867  1.00  0.00     0.008 A 
ATOM     23  C   UNL     1     -10.648  22.456 -14.705  1.00  0.00     0.008 A 
ATOM     24  C   UNL     1      -9.877  24.177 -16.693  1.00  0.00     0.021 A 
ATOM     25  C   UNL     1      -9.555  23.314 -14.527  1.00  0.00     0.021 A 
ATOM     26  C   UNL     1      -9.160  24.181 -15.518  1.00  0.00     0.041 A 
ATOM     27  Cl  UNL     1      -7.781  25.267 -15.294  1.00  0.00    -0.084 Cl
ENDBRANCH  18  21
ENDBRANCH  12  13
ENDBRANCH   1  12
TORSDOF 7
ENDMDL
MODEL 2
REMARK VINA RESULT:      -8.0      0.571      1.426
REMARK SMILES O=C(CCCN1CCC(O)(c2ccc(Cl)cc2)CC1)c1ccc(F)cc1
REMARK SMILES IDX 4 1 3 2 2 3 1 4 20 5 21 6 26 7 22 8 25 9 23 10 24 11 5 12
REMARK SMILES IDX 6 13 7 14 19 15 8 16 18 17 9 18 10 19 11 21 12 22 17 23
REMARK SMILES IDX 13 24 16 25 14 26 15 27
REMARK H PARENT 10 20
ROOT
ATOM      1  C   UNL     1     -16.058  17.485 -16.875  1.00  0.00     0.024 C 
ENDROOT
BRANCH   1   2
ATOM      2  C   UNL     1     -15.107  16.400 -16.436  1.00  0.00     0.082 C 
BRANCH   2   3
ATOM      3  C   UNL     1     -15.561  15.662 -15.234  1.00  0.00     0.162 C 
ATOM      4  O   UNL     1     -16.784  15.568 -14.967  1.00  0.00    -0.294 OA
BRANCH   3   5
ATOM      5  C   UNL     1     -14.619  15.021 -14.319  1.00  0.00     0.018 A 
ATOM      6  C   UNL     1     -13.483  15.717 -13.914  1.00  0.00     0.015 A 
ATOM      7  C   UNL     1     -14.834  13.762 -13.860  1.00  0.00     0.015 A 
ATOM      8  C   UNL     1     -12.606  15.098 -13.050  1.00  0.00     0.040 A 
ATOM      9  C   UNL     1     -13.937  13.164 -12.996  1.00  0.00     0.040 A 
ATOM     10  C   UNL     1     -12.800  13.815 -12.567  1.00  0.00     0.123 A 
ATOM     11  F   UNL     1     -11.911  13.240 -11.718  1.00  0.00    -0.207 F 
ENDBRANCH   3   5
ENDBRANCH   2   3
ENDBRANCH   1   2
BRANCH   1  12
ATOM     12  C   UNL     1     -15.961  18.758 -16.148  1.00  0.00     0.085 C 
BRANCH  12  13
ATOM     13  N   UNL     1     -14.756  19.469 -16.246  1.00  0.00    -0.303 NA
ATOM     14  C   UNL     1     -14.475  20.054 -17.502  1.00  0.00     0.088 C 
ATOM     15  C   UNL     1     -13.621  19.024 -15.548  1.00  0.00     0.088 C 
ATOM     16  C   UNL     1     -13.075  20.629 -17.517  1.00  0.00     0.056 C 
ATOM     17  C   UNL     1     -12.800  20.234 -15.112  1.00  0.00     0.056 C 
ATOM     18  C   UNL     1     -12.853  21.291 -16.172  1.00  0.00     0.092 C 
BRANCH  18  19
ATOM     19  O   UNL     1     -14.045  22.033 -15.945  1.00  0.00    -0.385 OA
ATOM     20  H   UNL     1     -13.842  22.947 -16.257  1.00  0.00     0.211 HD
ENDBRANCH  18  19
BRANCH  18  21
ATOM     21  C   UNL     1     -11.686  22.205 -16.193  1.00  0.00    -0.016 A 
ATOM     22  C   UNL     1     -10.771  22.170 -15.133  1.00  0.00     0.008 A 
ATOM     23  C   UNL     1     -11.424  23.112 -17.187  1.00  0.00     0.008 A 
ATOM     24  C   UNL     1      -9.670  22.995 -15.085  1.00  0.00     0.021 A 
ATOM     25  C   UNL     1     -10.304  23.953 -17.139  1.00  0.00     0.021 A 
ATOM     26  C   UNL     1      -9.418  23.903 -16.090  1.00  0.00     0.041 A 
ATOM     27  Cl  UNL     1      -8.003  24.963 -16.029  1.00  0.00    -0.084 Cl
ENDBRANCH  18  21
ENDBRANCH  12  13
ENDBRANCH   1  12
TORSDOF 7
ENDMDL
MODEL 3
REMARK VINA RESULT:      -7.9      1.446      2.243
REMARK SMILES O=C(CCCN1CCC(O)(c2ccc(Cl)cc2)CC1)c1ccc(F)cc1
REMARK SMILES IDX 4 1 3 2 2 3 1 4 20 5 21 6 26 7 22 8 25 9 23 10 24 11 5 12
REMARK SMILES IDX 6 13 7 14 19 15 8 16 18 17 9 18 10 19 11 21 12 22 17 23
REMARK SMILES IDX 13 24 16 25 14 26 15 27
REMARK H PARENT 10 20
ROOT
ATOM      1  C   UNL     1     -14.223  19.191 -15.953  1.00  0.00     0.024 C 
ENDROOT
BRANCH   1   2
ATOM      2  C   UNL     1     -15.290  18.212 -15.529  1.00  0.00     0.082 C 
BRANCH   2   3
ATOM      3  C   UNL     1     -15.020  16.818 -15.952  1.00  0.00     0.162 C 
ATOM      4  O   UNL     1     -15.205  16.464 -17.143  1.00  0.00    -0.294 OA
BRANCH   3   5
ATOM      5  C   UNL     1     -14.533  15.807 -15.016  1.00  0.00     0.018 A 
ATOM      6  C   UNL     1     -13.225  15.891 -14.544  1.00  0.00     0.015 A 
ATOM      7  C   UNL     1     -15.332  14.792 -14.602  1.00  0.00     0.015 A 
ATOM      8  C   UNL     1     -12.782  14.930 -13.661  1.00  0.00     0.040 A 
ATOM      9  C   UNL     1     -14.862  13.840 -13.717  1.00  0.00     0.040 A 
ATOM     10  C   UNL     1     -13.576  13.883 -13.222  1.00  0.00     0.123 A 
ATOM     11  F   UNL     1     -13.101  12.956 -12.353  1.00  0.00    -0.207 F 
ENDBRANCH   3   5
ENDBRANCH   2   3
ENDBRANCH   1   2
BRANCH   1  12
ATOM     12  C   UNL     1     -13.179  19.474 -14.960  1.00  0.00     0.085 C 
BRANCH  12  13
ATOM     13  N   UNL     1     -12.238  20.465 -15.274  1.00  0.00    -0.303 NA
ATOM     14  C   UNL     1     -12.528  21.268 -16.400  1.00  0.00     0.088 C 
ATOM     15  C   UNL     1     -10.869  20.220 -15.074  1.00  0.00     0.088 C 
ATOM     16  C   UNL     1     -11.354  22.166 -16.727  1.00  0.00     0.056 C 
ATOM     17  C   UNL     1     -10.186  21.523 -14.668  1.00  0.00     0.056 C 
ATOM     18  C   UNL     1     -10.801  22.671 -15.409  1.00  0.00     0.092 C 
BRANCH  18  19
ATOM     19  O   UNL     1     -11.953  23.059 -14.671  1.00  0.00    -0.385 OA
ATOM     20  H   UNL     1     -11.889  24.040 -14.594  1.00  0.00     0.211 HD
ENDBRANCH  18  19
BRANCH  18  21
ATOM     21  C   UNL     1      -9.906  23.837 -15.597  1.00  0.00    -0.016 A 
ATOM     22  C   UNL     1      -9.790  24.410 -16.871  1.00  0.00     0.008 A 
ATOM     23  C   UNL     1      -9.155  24.413 -14.605  1.00  0.00     0.008 A 
ATOM     24  C   UNL     1      -8.972  25.490 -17.118  1.00  0.00     0.021 A 
ATOM     25  C   UNL     1      -8.322  25.511 -14.856  1.00  0.00     0.021 A 
ATOM     26  C   UNL     1      -8.222  26.059 -16.112  1.00  0.00     0.041 A 
ATOM     27  Cl  UNL     1      -7.172  27.447 -16.430  1.00  0.00    -0.084 Cl
ENDBRANCH  18  21
ENDBRANCH  12  13
ENDBRANCH   1  12
TORSDOF 7
ENDMDL
MODEL 4
REMARK VINA RESULT:      -7.9      0.700      1.166
REMARK SMILES O=C(CCCN1CCC(O)(c2ccc(Cl)cc2)CC1)c1ccc(F)cc1
REMARK SMILES IDX 4 1 3 2 2 3 1 4 20 5 21 6 26 7 22 8 25 9 23 10 24 11 5 12
REMARK SMILES IDX 6 13 7 14 19 15 8 16 18 17 9 18 10 19 11 21 12 22 17 23
REMARK SMILES IDX 13 24 16 25 14 26 15 27
REMARK H PARENT 10 20
ROOT
ATOM      1  C   UNL     1     -15.683  18.212 -17.075  1.00  0.00     0.024 C 
ENDROOT
BRANCH   1   2
ATOM      2  C   UNL     1     -15.285  16.764 -16.942  1.00  0.00     0.082 C 
BRANCH   2   3
ATOM      3  C   UNL     1     -15.763  16.128 -15.692  1.00  0.00     0.162 C 
ATOM      4  O   UNL     1     -16.978  16.172 -15.378  1.00  0.00    -0.294 OA
BRANCH   3   5
ATOM      5  C   UNL     1     -14.857  15.431 -14.783  1.00  0.00     0.018 A 
ATOM      6  C   UNL     1     -13.558  15.907 -14.621  1.00  0.00     0.015 A 
ATOM      7  C   UNL     1     -15.259  14.332 -14.097  1.00  0.00     0.015 A 
ATOM      8  C   UNL     1     -12.716  15.238 -13.759  1.00  0.00     0.040 A 
ATOM      9  C   UNL     1     -14.394  13.680 -13.239  1.00  0.00     0.040 A 
ATOM     10  C   UNL     1     -13.100  14.115 -13.046  1.00  0.00     0.123 A 
ATOM     11  F   UNL     1     -12.239  13.484 -12.208  1.00  0.00    -0.207 F 
ENDBRANCH   3   5
ENDBRANCH   2   3
ENDBRANCH   1   2
BRANCH   1  12
ATOM     12  C   UNL     1     -15.297  19.091 -15.963  1.00  0.00     0.085 C 
BRANCH  12  13
ATOM     13  N   UNL     1     -14.124  19.846 -16.112  1.00  0.00    -0.303 NA
ATOM     14  C   UNL     1     -13.911  20.427 -17.382  1.00  0.00     0.088 C 
ATOM     15  C   UNL     1     -12.948  19.450 -15.452  1.00  0.00     0.088 C 
ATOM     16  C   UNL     1     -12.536  21.055 -17.455  1.00  0.00     0.056 C 
ATOM     17  C   UNL     1     -12.159  20.695 -15.057  1.00  0.00     0.056 C 
ATOM     18  C   UNL     1     -12.290  21.738 -16.124  1.00  0.00     0.092 C 
BRANCH  18  19
ATOM     19  O   UNL     1     -13.500  22.438 -15.861  1.00  0.00    -0.385 OA
ATOM     20  H   UNL     1     -14.050  22.312 -16.669  1.00  0.00     0.211 HD
ENDBRANCH  18  19
BRANCH  18  21
ATOM     21  C   UNL     1     -11.160  22.695 -16.197  1.00  0.00    -0.016 A 
ATOM     22  C   UNL     1     -11.039  23.524 -17.320  1.00  0.00     0.008 A 
ATOM     23  C   UNL     1     -10.193  22.835 -15.235  1.00  0.00     0.008 A 
ATOM     24  C   UNL     1     -10.010  24.431 -17.456  1.00  0.00     0.021 A 
ATOM     25  C   UNL     1      -9.146  23.756 -15.373  1.00  0.00     0.021 A 
ATOM     26  C   UNL     1      -9.045  24.561 -16.483  1.00  0.00     0.041 A 
ATOM     27  Cl  UNL     1      -7.725  25.725 -16.657  1.00  0.00    -0.084 Cl
ENDBRANCH  18  21
ENDBRANCH  12  13
ENDBRANCH   1  12
TORSDOF 7
ENDMDL
MODEL 5
REMARK VINA RESULT:      -7.8      2.281      3.387
REMARK SMILES O=C(CCCN1CCC(O)(c2ccc(Cl)cc2)CC1)c1ccc(F)cc1
REMARK SMILES IDX 4 1 3 2 2 3 1 4 20 5 21 6 26 7 22 8 25 9 23 10 24 11 5 12
REMARK SMILES IDX 6 13 7 14 19 15 8 16 18 17 9 18 10 19 11 21 12 22 17 23
REMARK SMILES IDX 13 24 16 25 14 26 15 27
REMARK H PARENT 10 20
ROOT
ATOM      1  C   UNL     1     -13.938  20.434 -16.909  1.00  0.00     0.024 C 
ENDROOT
BRANCH   1   2
ATOM      2  C   UNL     1     -13.942  19.441 -15.774  1.00  0.00     0.082 C 
BRANCH   2   3
ATOM      3  C   UNL     1     -15.046  18.457 -15.849  1.00  0.00     0.162 C 
ATOM      4  O   UNL     1     -16.150  18.773 -16.357  1.00  0.00    -0.294 OA
BRANCH   3   5
ATOM      5  C   UNL     1     -14.903  17.094 -15.341  1.00  0.00     0.018 A 
ATOM      6  C   UNL     1     -15.883  16.150 -15.640  1.00  0.00     0.015 A 
ATOM      7  C   UNL     1     -13.835  16.735 -14.586  1.00  0.00     0.015 A 
ATOM      8  C   UNL     1     -15.732  14.869 -15.155  1.00  0.00     0.040 A 
ATOM      9  C   UNL     1     -13.709  15.444 -14.110  1.00  0.00     0.040 A 
ATOM     10  C   UNL     1     -14.652  14.477 -14.382  1.00  0.00     0.123 A 
ATOM     11  F   UNL     1     -14.542  13.205 -13.921  1.00  0.00    -0.207 F 
ENDBRANCH   3   5
ENDBRANCH   2   3
ENDBRANCH   1   2
BRANCH   1  12
ATOM     12  C   UNL     1     -12.626  20.982 -17.278  1.00  0.00     0.085 C 
BRANCH  12  13
ATOM     13  N   UNL     1     -12.086  21.980 -16.454  1.00  0.00    -0.303 NA
ATOM     14  C   UNL     1     -11.121  21.558 -15.511  1.00  0.00     0.088 C 
ATOM     15  C   UNL     1     -12.895  23.043 -16.017  1.00  0.00     0.088 C 
ATOM     16  C   UNL     1     -10.761  22.693 -14.576  1.00  0.00     0.056 C 
ATOM     17  C   UNL     1     -12.043  24.304 -15.911  1.00  0.00     0.056 C 
ATOM     18  C   UNL     1     -10.673  23.950 -15.419  1.00  0.00     0.092 C 
BRANCH  18  19
ATOM     19  O   UNL     1      -9.922  23.555 -16.561  1.00  0.00    -0.385 OA
ATOM     20  H   UNL     1      -9.815  22.579 -16.472  1.00  0.00     0.211 HD
ENDBRANCH  18  19
BRANCH  18  21
ATOM     21  C   UNL     1      -9.969  25.043 -14.707  1.00  0.00    -0.016 A 
ATOM     22  C   UNL     1     -10.721  26.036 -14.066  1.00  0.00     0.008 A 
ATOM     23  C   UNL     1      -8.607  25.172 -14.627  1.00  0.00     0.008 A 
ATOM     24  C   UNL     1     -10.133  27.083 -13.392  1.00  0.00     0.021 A 
ATOM     25  C   UNL     1      -8.007  26.237 -13.942  1.00  0.00     0.021 A 
ATOM     26  C   UNL     1      -8.763  27.201 -13.320  1.00  0.00     0.041 A 
ATOM     27  Cl  UNL     1      -8.007  28.546 -12.454  1.00  0.00    -0.084 Cl
ENDBRANCH  18  21
ENDBRANCH  12  13
ENDBRANCH   1  12
TORSDOF 7
ENDMDL
MODEL 6
REMARK VINA RESULT:      -7.7      2.022      2.856
REMARK SMILES O=C(CCCN1CCC(O)(c2ccc(Cl)cc2)CC1)c1ccc(F)cc1
REMARK SMILES IDX 4 1 3 2 2 3 1 4 20 5 21 6 26 7 22 8 25 9 23 10 24 11 5 12
REMARK SMILES IDX 6 13 7 14 19 15 8 16 18 17 9 18 10 19 11 21 12 22 17 23
REMARK SMILES IDX 13 24 16 25 14 26 15 27
REMARK H PARENT 10 20
ROOT
ATOM      1  C   UNL     1     -14.383  20.089 -16.587  1.00  0.00     0.024 C 
ENDROOT
BRANCH   1   2
ATOM      2  C   UNL     1     -15.121  18.894 -17.139  1.00  0.00     0.082 C 
BRANCH   2   3
ATOM      3  C   UNL     1     -15.950  18.191 -16.132  1.00  0.00     0.162 C 
ATOM      4  O   UNL     1     -17.037  18.685 -15.743  1.00  0.00    -0.294 OA
BRANCH   3   5
ATOM      5  C   UNL     1     -15.546  16.911 -15.556  1.00  0.00     0.018 A 
ATOM      6  C   UNL     1     -16.444  15.847 -15.566  1.00  0.00     0.015 A 
ATOM      7  C   UNL     1     -14.314  16.744 -15.013  1.00  0.00     0.015 A 
ATOM      8  C   UNL     1     -16.046  14.646 -15.019  1.00  0.00     0.040 A 
ATOM      9  C   UNL     1     -13.941  15.530 -14.470  1.00  0.00     0.040 A 
ATOM     10  C   UNL     1     -14.795  14.448 -14.458  1.00  0.00     0.123 A 
ATOM     11  F   UNL     1     -14.443  13.250 -13.928  1.00  0.00    -0.207 F 
ENDBRANCH   3   5
ENDBRANCH   2   3
ENDBRANCH   1   2
BRANCH   1  12
ATOM     12  C   UNL     1     -13.209  20.528 -17.352  1.00  0.00     0.085 C 
BRANCH  12  13
ATOM     13  N   UNL     1     -12.369  21.481 -16.759  1.00  0.00    -0.303 NA
ATOM     14  C   UNL     1     -12.010  22.586 -17.563  1.00  0.00     0.088 C 
ATOM     15  C   UNL     1     -11.370  21.071 -15.859  1.00  0.00     0.088 C 
ATOM     16  C   UNL     1     -10.966  23.433 -16.866  1.00  0.00     0.056 C 
ATOM     17  C   UNL     1     -11.193  22.146 -14.790  1.00  0.00     0.056 C 
ATOM     18  C   UNL     1     -11.357  23.503 -15.403  1.00  0.00     0.092 C 
BRANCH  18  19
ATOM     19  O   UNL     1     -12.753  23.772 -15.426  1.00  0.00    -0.385 OA
ATOM     20  H   UNL     1     -13.113  23.330 -14.620  1.00  0.00     0.211 HD
ENDBRANCH  18  19
BRANCH  18  21
ATOM     21  C   UNL     1     -10.644  24.593 -14.694  1.00  0.00    -0.016 A 
ATOM     22  C   UNL     1     -11.388  25.614 -14.090  1.00  0.00     0.008 A 
ATOM     23  C   UNL     1      -9.282  24.692 -14.584  1.00  0.00     0.008 A 
ATOM     24  C   UNL     1     -10.792  26.660 -13.421  1.00  0.00     0.021 A 
ATOM     25  C   UNL     1      -8.673  25.755 -13.905  1.00  0.00     0.021 A 
ATOM     26  C   UNL     1      -9.422  26.748 -13.318  1.00  0.00     0.041 A 
ATOM     27  Cl  UNL     1      -8.655  28.092 -12.459  1.00  0.00    -0.084 Cl
ENDBRANCH  18  21
ENDBRANCH  12  13
ENDBRANCH   1  12
TORSDOF 7
ENDMDL
MODEL 7
REMARK VINA RESULT:      -7.7      1.929      2.886
REMARK SMILES O=C(CCCN1CCC(O)(c2ccc(Cl)cc2)CC1)c1ccc(F)cc1
REMARK SMILES IDX 4 1 3 2 2 3 1 4 20 5 21 6 26 7 22 8 25 9 23 10 24 11 5 12
REMARK SMILES IDX 6 13 7 14 19 15 8 16 18 17 9 18 10 19 11 21 12 22 17 23
REMARK SMILES IDX 13 24 16 25 14 26 15 27
REMARK H PARENT 10 20
ROOT
ATOM      1  C   UNL     1     -14.332  20.011 -16.503  1.00  0.00     0.024 C 
ENDROOT
BRANCH   1   2
ATOM      2  C   UNL     1     -15.142  18.892 -17.111  1.00  0.00     0.082 C 
BRANCH   2   3
ATOM      3  C   UNL     1     -15.986  18.169 -16.132  1.00  0.00     0.162 C 
ATOM      4  O   UNL     1     -17.083  18.650 -15.757  1.00  0.00    -0.294 OA
BRANCH   3   5
ATOM      5  C   UNL     1     -15.585  16.882 -15.568  1.00  0.00     0.018 A 
ATOM      6  C   UNL     1     -14.307  16.742 -15.034  1.00  0.00     0.015 A 
ATOM      7  C   UNL     1     -16.436  15.826 -15.556  1.00  0.00     0.015 A 
ATOM      8  C   UNL     1     -13.945  15.522 -14.505  1.00  0.00     0.040 A 
ATOM      9  C   UNL     1     -16.047  14.613 -15.021  1.00  0.00     0.040 A 
ATOM     10  C   UNL     1     -14.793  14.428 -14.481  1.00  0.00     0.123 A 
ATOM     11  F   UNL     1     -14.397  13.243 -13.951  1.00  0.00    -0.207 F 
ENDBRANCH   3   5
ENDBRANCH   2   3
ENDBRANCH   1   2
BRANCH   1  12
ATOM     12  C   UNL     1     -13.299  20.599 -17.365  1.00  0.00     0.085 C 
BRANCH  12  13
ATOM     13  N   UNL     1     -12.434  21.540 -16.790  1.00  0.00    -0.303 NA
ATOM     14  C   UNL     1     -12.021  22.603 -17.625  1.00  0.00     0.088 C 
ATOM     15  C   UNL     1     -11.466  21.125 -15.859  1.00  0.00     0.088 C 
ATOM     16  C   UNL     1     -10.958  23.434 -16.939  1.00  0.00     0.056 C 
ATOM     17  C   UNL     1     -11.267  22.229 -14.824  1.00  0.00     0.056 C 
ATOM     18  C   UNL     1     -11.369  23.569 -15.486  1.00  0.00     0.092 C 
BRANCH  18  19
ATOM     19  O   UNL     1     -12.754  23.889 -15.543  1.00  0.00    -0.385 OA
ATOM     20  H   UNL     1     -13.074  23.812 -14.613  1.00  0.00     0.211 HD
ENDBRANCH  18  19
BRANCH  18  21
ATOM     21  C   UNL     1     -10.629  24.656 -14.802  1.00  0.00    -0.016 A 
ATOM     22  C   UNL     1      -9.397  25.075 -15.322  1.00  0.00     0.008 A 
ATOM     23  C   UNL     1     -11.056  25.297 -13.669  1.00  0.00     0.008 A 
ATOM     24  C   UNL     1      -8.653  26.074 -14.733  1.00  0.00     0.021 A 
ATOM     25  C   UNL     1     -10.300  26.313 -13.069  1.00  0.00     0.021 A 
ATOM     26  C   UNL     1      -9.093  26.710 -13.594  1.00  0.00     0.041 A 
ATOM     27  Cl  UNL     1      -8.138  27.993 -12.839  1.00  0.00    -0.084 Cl
ENDBRANCH  18  21
ENDBRANCH  12  13
ENDBRANCH   1  12
TORSDOF 7
ENDMDL
MODEL 8
REMARK VINA RESULT:      -7.7      1.594      2.344
REMARK SMILES O=C(CCCN1CCC(O)(c2ccc(Cl)cc2)CC1)c1ccc(F)cc1
REMARK SMILES IDX 4 1 3 2 2 3 1 4 20 5 21 6 26 7 22 8 25 9 23 10 24 11 5 12
REMARK SMILES IDX 6 13 7 14 19 15 8 16 18 17 9 18 10 19 11 21 12 22 17 23
REMARK SMILES IDX 13 24 16 25 14 26 15 27
REMARK H PARENT 10 20
ROOT
ATOM      1  C   UNL     1     -14.503  19.418 -16.574  1.00  0.00     0.024 C 
ENDROOT
BRANCH   1   2
ATOM      2  C   UNL     1     -15.643  18.510 -16.184  1.00  0.00     0.082 C 
BRANCH   2   3
ATOM      3  C   UNL     1     -15.440  17.097 -16.579  1.00  0.00     0.162 C 
ATOM      4  O   UNL     1     -15.506  16.756 -17.786  1.00  0.00    -0.294 OA
BRANCH   3   5
ATOM      5  C   UNL     1     -15.159  16.053 -15.598  1.00  0.00     0.018 A 
ATOM      6  C   UNL     1     -16.032  14.973 -15.484  1.00  0.00     0.015 A 
ATOM      7  C   UNL     1     -14.065  16.118 -14.798  1.00  0.00     0.015 A 
ATOM      8  C   UNL     1     -15.752  13.996 -14.554  1.00  0.00     0.040 A 
ATOM      9  C   UNL     1     -13.809  15.125 -13.871  1.00  0.00     0.040 A 
ATOM     10  C   UNL     1     -14.643  14.038 -13.725  1.00  0.00     0.123 A 
ATOM     11  F   UNL     1     -14.404  13.055 -12.820  1.00  0.00    -0.207 F 
ENDBRANCH   3   5
ENDBRANCH   2   3
ENDBRANCH   1   2
BRANCH   1  12
ATOM     12  C   UNL     1     -13.551  19.750 -15.506  1.00  0.00     0.085 C 
BRANCH  12  13
ATOM     13  N   UNL     1     -12.629  20.777 -15.755  1.00  0.00    -0.303 NA
ATOM     14  C   UNL     1     -12.866  21.564 -16.905  1.00  0.00     0.088 C 
ATOM     15  C   UNL     1     -11.270  20.586 -15.454  1.00  0.00     0.088 C 
ATOM     16  C   UNL     1     -11.707  22.506 -17.151  1.00  0.00     0.056 C 
ATOM     17  C   UNL     1     -10.670  21.916 -15.007  1.00  0.00     0.056 C 
ATOM     18  C   UNL     1     -11.272  23.036 -15.799  1.00  0.00     0.092 C 
BRANCH  18  19
ATOM     19  O   UNL     1     -12.490  23.382 -15.150  1.00  0.00    -0.385 OA
ATOM     20  H   UNL     1     -12.716  24.280 -15.489  1.00  0.00     0.211 HD
ENDBRANCH  18  19
BRANCH  18  21
ATOM     21  C   UNL     1     -10.412  24.237 -15.928  1.00  0.00    -0.016 A 
ATOM     22  C   UNL     1      -9.022  24.093 -15.832  1.00  0.00     0.008 A 
ATOM     23  C   UNL     1     -10.875  25.510 -16.131  1.00  0.00     0.008 A 
ATOM     24  C   UNL     1      -8.164  25.166 -15.935  1.00  0.00     0.021 A 
ATOM     25  C   UNL     1     -10.004  26.603 -16.236  1.00  0.00     0.021 A 
ATOM     26  C   UNL     1      -8.643  26.441 -16.139  1.00  0.00     0.041 A 
ATOM     27  Cl  UNL     1      -7.541  27.819 -16.272  1.00  0.00    -0.084 Cl
ENDBRANCH  18  21
ENDBRANCH  12  13
ENDBRANCH   1  12
TORSDOF 7
ENDMDL
MODEL 9
REMARK VINA RESULT:      -7.6      1.672      2.534
REMARK SMILES O=C(CCCN1CCC(O)(c2ccc(Cl)cc2)CC1)c1ccc(F)cc1
REMARK SMILES IDX 4 1 3 2 2 3 1 4 20 5 21 6 26 7 22 8 25 9 23 10 24 11 5 12
REMARK SMILES IDX 6 13 7 14 19 15 8 16 18 17 9 18 10 19 11 21 12 22 17 23
REMARK SMILES IDX 13 24 16 25 14 26 15 27
REMARK H PARENT 10 20
ROOT
ATOM      1  C   UNL     1     -13.700  19.224 -15.775  1.00  0.00     0.024 C 
ENDROOT
BRANCH   1   2
ATOM      2  C   UNL     1     -14.862  18.395 -15.286  1.00  0.00     0.082 C 
BRANCH   2   3
ATOM      3  C   UNL     1     -14.810  16.981 -15.724  1.00  0.00     0.162 C 
ATOM      4  O   UNL     1     -15.139  16.661 -16.892  1.00  0.00    -0.294 OA
BRANCH   3   5
ATOM      5  C   UNL     1     -14.380  15.911 -14.827  1.00  0.00     0.018 A 
ATOM      6  C   UNL     1     -15.187  14.786 -14.673  1.00  0.00     0.015 A 
ATOM      7  C   UNL     1     -13.209  15.995 -14.146  1.00  0.00     0.015 A 
ATOM      8  C   UNL     1     -14.766  13.786 -13.824  1.00  0.00     0.040 A 
ATOM      9  C   UNL     1     -12.811  14.977 -13.300  1.00  0.00     0.040 A 
ATOM     10  C   UNL     1     -13.577  13.846 -13.116  1.00  0.00     0.123 A 
ATOM     11  F   UNL     1     -13.199  12.839 -12.289  1.00  0.00    -0.207 F 
ENDBRANCH   3   5
ENDBRANCH   2   3
ENDBRANCH   1   2
BRANCH   1  12
ATOM     12  C   UNL     1     -12.653  19.508 -14.784  1.00  0.00     0.085 C 
BRANCH  12  13
ATOM     13  N   UNL     1     -11.816  20.607 -15.025  1.00  0.00    -0.303 NA
ATOM     14  C   UNL     1     -12.175  21.442 -16.107  1.00  0.00     0.088 C 
ATOM     15  C   UNL     1     -10.431  20.491 -14.820  1.00  0.00     0.088 C 
ATOM     16  C   UNL     1     -11.096  22.473 -16.364  1.00  0.00     0.056 C 
ATOM     17  C   UNL     1      -9.888  21.830 -14.328  1.00  0.00     0.056 C 
ATOM     18  C   UNL     1     -10.609  22.951 -15.010  1.00  0.00     0.092 C 
BRANCH  18  19
ATOM     19  O   UNL     1     -11.802  23.176 -14.268  1.00  0.00    -0.385 OA
ATOM     20  H   UNL     1     -12.217  23.968 -14.685  1.00  0.00     0.211 HD
ENDBRANCH  18  19
BRANCH  18  21
ATOM     21  C   UNL     1      -9.836  24.211 -15.116  1.00  0.00    -0.016 A 
ATOM     22  C   UNL     1     -10.175  25.292 -14.292  1.00  0.00     0.008 A 
ATOM     23  C   UNL     1      -8.794  24.416 -15.983  1.00  0.00     0.008 A 
ATOM     24  C   UNL     1      -9.504  26.493 -14.342  1.00  0.00     0.021 A 
ATOM     25  C   UNL     1      -8.111  25.638 -16.036  1.00  0.00     0.021 A 
ATOM     26  C   UNL     1      -8.459  26.687 -15.218  1.00  0.00     0.041 A 
ATOM     27  Cl  UNL     1      -7.596  28.230 -15.283  1.00  0.00    -0.084 Cl
ENDBRANCH  18  21
ENDBRANCH  12  13
ENDBRANCH   1  12
TORSDOF 7
ENDMDL
