MODEL 1
REMARK VINA RESULT:      -5.8      0.000      0.000
REMARK SMILES COC(=O)c1cc(O)c(=O)c2c(O)c(O)ccc2c1
REMARK SMILES IDX 5 1 6 2 7 3 9 4 10 5 11 6 12 7 14 8 16 9 17 10 18 11 19 12
REMARK SMILES IDX 3 13 4 14 2 15 1 16 8 17 13 19 15 21
REMARK H PARENT 8 18 13 20 15 22
ROOT
ATOM      1  C   UNL     1      15.837  24.194  48.727  1.00  0.00     0.064 A 
ATOM      2  C   UNL     1      14.472  24.305  48.529  1.00  0.00     0.066 A 
ATOM      3  C   UNL     1      13.427  23.528  49.014  1.00  0.00     0.164 A 
ATOM      4  C   UNL     1      13.492  22.546  49.976  1.00  0.00     0.231 A 
ATOM      5  O   UNL     1      12.396  22.213  50.483  1.00  0.00    -0.285 OA
ATOM      6  C   UNL     1      14.620  21.875  50.460  1.00  0.00     0.079 A 
ATOM      7  C   UNL     1      14.300  20.860  51.324  1.00  0.00     0.169 A 
ATOM      8  C   UNL     1      15.304  20.082  51.906  1.00  0.00     0.158 A 
ATOM      9  C   UNL     1      16.626  20.324  51.617  1.00  0.00     0.051 A 
ATOM     10  C   UNL     1      16.920  21.351  50.744  1.00  0.00     0.013 A 
ATOM     11  C   UNL     1      15.947  22.130  50.160  1.00  0.00    -0.009 A 
ATOM     12  C   UNL     1      16.459  23.114  49.310  1.00  0.00     0.024 A 
ENDROOT
BRANCH   1  13
ATOM     13  C   UNL     1      16.677  25.299  48.291  1.00  0.00     0.338 C 
ATOM     14  O   UNL     1      17.816  25.405  48.806  1.00  0.00    -0.246 OA
BRANCH  13  15
ATOM     15  O   UNL     1      16.285  26.225  47.349  1.00  0.00    -0.465 OA
ATOM     16  C   UNL     1      15.666  27.462  47.686  1.00  0.00     0.282 C 
ENDBRANCH  13  15
ENDBRANCH   1  13
BRANCH   3  17
ATOM     17  O   UNL     1      12.183  23.773  48.467  1.00  0.00    -0.504 OA
ATOM     18  H   UNL     1      11.351  23.891  49.013  1.00  0.00     0.293 HD
ENDBRANCH   3  17
BRANCH   7  19
ATOM     19  O   UNL     1      12.967  20.590  51.637  1.00  0.00    -0.504 OA
ATOM     20  H   UNL     1      12.501  21.160  52.340  1.00  0.00     0.293 HD
ENDBRANCH   7  19
BRANCH   8  21
ATOM     21  O   UNL     1      14.938  19.068  52.773  1.00  0.00    -0.504 OA
ATOM     22  H   UNL     1      15.252  18.117  52.609  1.00  0.00     0.293 HD
ENDBRANCH   8  21
TORSDOF 5
ENDMDL
MODEL 2
REMARK VINA RESULT:      -5.7      2.035      3.453
REMARK SMILES COC(=O)c1cc(O)c(=O)c2c(O)c(O)ccc2c1
REMARK SMILES IDX 5 1 6 2 7 3 9 4 10 5 11 6 12 7 14 8 16 9 17 10 18 11 19 12
REMARK SMILES IDX 3 13 4 14 2 15 1 16 8 17 13 19 15 21
REMARK H PARENT 8 18 13 20 15 22
ROOT
ATOM      1  C   UNL     1      15.794  24.436  48.823  1.00  0.00     0.064 A 
ATOM      2  C   UNL     1      16.149  23.118  48.599  1.00  0.00     0.066 A 
ATOM      3  C   UNL     1      15.439  21.945  48.828  1.00  0.00     0.164 A 
ATOM      4  C   UNL     1      14.113  21.824  49.174  1.00  0.00     0.231 A 
ATOM      5  O   UNL     1      13.613  20.687  49.010  1.00  0.00    -0.285 OA
ATOM      6  C   UNL     1      13.255  22.803  49.684  1.00  0.00     0.079 A 
ATOM      7  C   UNL     1      12.032  22.298  50.043  1.00  0.00     0.169 A 
ATOM      8  C   UNL     1      11.046  23.135  50.572  1.00  0.00     0.158 A 
ATOM      9  C   UNL     1      11.292  24.477  50.740  1.00  0.00     0.051 A 
ATOM     10  C   UNL     1      12.530  24.959  50.371  1.00  0.00     0.013 A 
ATOM     11  C   UNL     1      13.515  24.152  49.848  1.00  0.00    -0.009 A 
ATOM     12  C   UNL     1      14.692  24.841  49.541  1.00  0.00     0.024 A 
ENDROOT
BRANCH   1  13
ATOM     13  C   UNL     1      16.645  25.472  48.258  1.00  0.00     0.338 C 
ATOM     14  O   UNL     1      17.825  25.552  48.676  1.00  0.00    -0.246 OA
BRANCH  13  15
ATOM     15  O   UNL     1      16.221  26.360  47.294  1.00  0.00    -0.465 OA
ATOM     16  C   UNL     1      15.589  27.598  47.602  1.00  0.00     0.282 C 
ENDBRANCH  13  15
ENDBRANCH   1  13
BRANCH   3  17
ATOM     17  O   UNL     1      16.150  20.768  48.690  1.00  0.00    -0.504 OA
ATOM     18  H   UNL     1      17.076  20.722  48.313  1.00  0.00     0.293 HD
ENDBRANCH   3  17
BRANCH   7  19
ATOM     19  O   UNL     1      11.752  20.939  49.884  1.00  0.00    -0.504 OA
ATOM     20  H   UNL     1      11.782  20.537  48.950  1.00  0.00     0.293 HD
ENDBRANCH   7  19
BRANCH   8  21
ATOM     21  O   UNL     1       9.826  22.584  50.921  1.00  0.00    -0.504 OA
ATOM     22  H   UNL     1       8.979  22.876  50.445  1.00  0.00     0.293 HD
ENDBRANCH   8  21
TORSDOF 5
ENDMDL
MODEL 3
REMARK VINA RESULT:      -5.7      3.117      5.223
REMARK SMILES COC(=O)c1cc(O)c(=O)c2c(O)c(O)ccc2c1
REMARK SMILES IDX 5 1 6 2 7 3 9 4 10 5 11 6 12 7 14 8 16 9 17 10 18 11 19 12
REMARK SMILES IDX 3 13 4 14 2 15 1 16 8 17 13 19 15 21
REMARK H PARENT 8 18 13 20 15 22
ROOT
ATOM      1  C   UNL     1      12.601  26.609  50.752  1.00  0.00     0.064 A 
ATOM      2  C   UNL     1      13.402  27.514  50.079  1.00  0.00     0.066 A 
ATOM      3  C   UNL     1      14.492  27.300  49.244  1.00  0.00     0.164 A 
ATOM      4  C   UNL     1      14.934  26.101  48.735  1.00  0.00     0.231 A 
ATOM      5  O   UNL     1      15.718  26.182  47.761  1.00  0.00    -0.285 OA
ATOM      6  C   UNL     1      14.621  24.807  49.162  1.00  0.00     0.079 A 
ATOM      7  C   UNL     1      15.347  23.845  48.509  1.00  0.00     0.169 A 
ATOM      8  C   UNL     1      15.164  22.492  48.808  1.00  0.00     0.158 A 
ATOM      9  C   UNL     1      14.253  22.110  49.764  1.00  0.00     0.051 A 
ATOM     10  C   UNL     1      13.536  23.097  50.406  1.00  0.00     0.013 A 
ATOM     11  C   UNL     1      13.700  24.435  50.126  1.00  0.00    -0.009 A 
ATOM     12  C   UNL     1      12.876  25.267  50.889  1.00  0.00     0.024 A 
ENDROOT
BRANCH   1  13
ATOM     13  C   UNL     1      11.377  27.109  51.359  1.00  0.00     0.338 C 
ATOM     14  O   UNL     1      11.394  28.268  51.840  1.00  0.00    -0.246 OA
BRANCH  13  15
ATOM     15  O   UNL     1      10.211  26.379  51.431  1.00  0.00    -0.465 OA
ATOM     16  C   UNL     1       9.593  26.019  52.662  1.00  0.00     0.282 C 
ENDBRANCH  13  15
ENDBRANCH   1  13
BRANCH   3  17
ATOM     17  O   UNL     1      15.212  28.424  48.885  1.00  0.00    -0.504 OA
ATOM     18  H   UNL     1      15.777  28.480  48.061  1.00  0.00     0.293 HD
ENDBRANCH   3  17
BRANCH   7  19
ATOM     19  O   UNL     1      16.280  24.202  47.534  1.00  0.00    -0.504 OA
ATOM     20  H   UNL     1      16.072  24.985  46.917  1.00  0.00     0.293 HD
ENDBRANCH   7  19
BRANCH   8  21
ATOM     21  O   UNL     1      15.918  21.554  48.126  1.00  0.00    -0.504 OA
ATOM     22  H   UNL     1      15.465  20.766  47.675  1.00  0.00     0.293 HD
ENDBRANCH   8  21
TORSDOF 5
ENDMDL
MODEL 4
REMARK VINA RESULT:      -5.6      2.300      5.641
REMARK SMILES COC(=O)c1cc(O)c(=O)c2c(O)c(O)ccc2c1
REMARK SMILES IDX 5 1 6 2 7 3 9 4 10 5 11 6 12 7 14 8 16 9 17 10 18 11 19 12
REMARK SMILES IDX 3 13 4 14 2 15 1 16 8 17 13 19 15 21
REMARK H PARENT 8 18 13 20 15 22
ROOT
ATOM      1  C   UNL     1      14.432  22.317  49.481  1.00  0.00     0.064 A 
ATOM      2  C   UNL     1      13.453  22.665  50.395  1.00  0.00     0.066 A 
ATOM      3  C   UNL     1      13.007  23.916  50.802  1.00  0.00     0.164 A 
ATOM      4  C   UNL     1      13.318  25.136  50.246  1.00  0.00     0.231 A 
ATOM      5  O   UNL     1      12.560  26.082  50.559  1.00  0.00    -0.285 OA
ATOM      6  C   UNL     1      14.368  25.454  49.379  1.00  0.00     0.079 A 
ATOM      7  C   UNL     1      14.457  26.799  49.128  1.00  0.00     0.169 A 
ATOM      8  C   UNL     1      15.449  27.299  48.282  1.00  0.00     0.158 A 
ATOM      9  C   UNL     1      16.351  26.447  47.689  1.00  0.00     0.051 A 
ATOM     10  C   UNL     1      16.239  25.099  47.958  1.00  0.00     0.013 A 
ATOM     11  C   UNL     1      15.269  24.585  48.789  1.00  0.00    -0.009 A 
ATOM     12  C   UNL     1      15.333  23.196  48.925  1.00  0.00     0.024 A 
ENDROOT
BRANCH   1  13
ATOM     13  C   UNL     1      14.515  20.922  49.076  1.00  0.00     0.338 C 
ATOM     14  O   UNL     1      15.379  20.613  48.220  1.00  0.00    -0.246 OA
BRANCH  13  15
ATOM     15  O   UNL     1      13.699  19.934  49.581  1.00  0.00    -0.465 OA
ATOM     16  C   UNL     1      12.593  19.397  48.863  1.00  0.00     0.282 C 
ENDBRANCH  13  15
ENDBRANCH   1  13
BRANCH   3  17
ATOM     17  O   UNL     1      12.153  23.934  51.887  1.00  0.00    -0.504 OA
ATOM     18  H   UNL     1      11.222  24.301  51.854  1.00  0.00     0.293 HD
ENDBRANCH   3  17
BRANCH   7  19
ATOM     19  O   UNL     1      13.556  27.690  49.715  1.00  0.00    -0.504 OA
ATOM     20  H   UNL     1      13.309  28.541  49.215  1.00  0.00     0.293 HD
ENDBRANCH   7  19
BRANCH   8  21
ATOM     21  O   UNL     1      15.503  28.663  48.056  1.00  0.00    -0.504 OA
ATOM     22  H   UNL     1      14.804  29.112  47.474  1.00  0.00     0.293 HD
ENDBRANCH   8  21
TORSDOF 5
ENDMDL
MODEL 5
REMARK VINA RESULT:      -5.6      2.406      5.633
REMARK SMILES COC(=O)c1cc(O)c(=O)c2c(O)c(O)ccc2c1
REMARK SMILES IDX 5 1 6 2 7 3 9 4 10 5 11 6 12 7 14 8 16 9 17 10 18 11 19 12
REMARK SMILES IDX 3 13 4 14 2 15 1 16 8 17 13 19 15 21
REMARK H PARENT 8 18 13 20 15 22
ROOT
ATOM      1  C   UNL     1      14.120  22.295  49.582  1.00  0.00     0.064 A 
ATOM      2  C   UNL     1      13.192  22.703  50.524  1.00  0.00     0.066 A 
ATOM      3  C   UNL     1      12.836  23.980  50.939  1.00  0.00     0.164 A 
ATOM      4  C   UNL     1      13.206  25.178  50.371  1.00  0.00     0.231 A 
ATOM      5  O   UNL     1      12.517  26.169  50.704  1.00  0.00    -0.285 OA
ATOM      6  C   UNL     1      14.248  25.429  49.473  1.00  0.00     0.079 A 
ATOM      7  C   UNL     1      14.412  26.766  49.217  1.00  0.00     0.169 A 
ATOM      8  C   UNL     1      15.408  27.203  48.340  1.00  0.00     0.158 A 
ATOM      9  C   UNL     1      16.237  26.296  47.723  1.00  0.00     0.051 A 
ATOM     10  C   UNL     1      16.050  24.958  47.999  1.00  0.00     0.013 A 
ATOM     11  C   UNL     1      15.075  24.506  48.859  1.00  0.00    -0.009 A 
ATOM     12  C   UNL     1      15.057  23.115  48.997  1.00  0.00     0.024 A 
ENDROOT
BRANCH   1  13
ATOM     13  C   UNL     1      14.105  20.897  49.178  1.00  0.00     0.338 C 
ATOM     14  O   UNL     1      12.999  20.303  49.167  1.00  0.00    -0.246 OA
BRANCH  13  15
ATOM     15  O   UNL     1      15.235  20.201  48.809  1.00  0.00    -0.465 OA
ATOM     16  C   UNL     1      15.280  19.334  47.680  1.00  0.00     0.282 C 
ENDBRANCH  13  15
ENDBRANCH   1  13
BRANCH   3  17
ATOM     17  O   UNL     1      12.017  24.051  52.050  1.00  0.00    -0.504 OA
ATOM     18  H   UNL     1      12.337  23.893  52.985  1.00  0.00     0.293 HD
ENDBRANCH   3  17
BRANCH   7  19
ATOM     19  O   UNL     1      13.586  27.711  49.827  1.00  0.00    -0.504 OA
ATOM     20  H   UNL     1      13.929  28.663  49.942  1.00  0.00     0.293 HD
ENDBRANCH   7  19
BRANCH   8  21
ATOM     21  O   UNL     1      15.540  28.560  48.109  1.00  0.00    -0.504 OA
ATOM     22  H   UNL     1      14.837  29.207  48.450  1.00  0.00     0.293 HD
ENDBRANCH   8  21
TORSDOF 5
ENDMDL
MODEL 6
REMARK VINA RESULT:      -5.6      2.953      4.668
REMARK SMILES COC(=O)c1cc(O)c(=O)c2c(O)c(O)ccc2c1
REMARK SMILES IDX 5 1 6 2 7 3 9 4 10 5 11 6 12 7 14 8 16 9 17 10 18 11 19 12
REMARK SMILES IDX 3 13 4 14 2 15 1 16 8 17 13 19 15 21
REMARK H PARENT 8 18 13 20 15 22
ROOT
ATOM      1  C   UNL     1      12.989  26.535  50.283  1.00  0.00     0.064 A 
ATOM      2  C   UNL     1      13.935  27.178  49.505  1.00  0.00     0.066 A 
ATOM      3  C   UNL     1      15.014  26.665  48.795  1.00  0.00     0.164 A 
ATOM      4  C   UNL     1      15.299  25.342  48.548  1.00  0.00     0.231 A 
ATOM      5  O   UNL     1      16.122  25.129  47.628  1.00  0.00    -0.285 OA
ATOM      6  C   UNL     1      14.789  24.208  49.188  1.00  0.00     0.079 A 
ATOM      7  C   UNL     1      15.395  23.050  48.773  1.00  0.00     0.169 A 
ATOM      8  C   UNL     1      15.011  21.818  49.307  1.00  0.00     0.158 A 
ATOM      9  C   UNL     1      14.020  21.751  50.258  1.00  0.00     0.051 A 
ATOM     10  C   UNL     1      13.428  22.930  50.657  1.00  0.00     0.013 A 
ATOM     11  C   UNL     1      13.790  24.155  50.144  1.00  0.00    -0.009 A 
ATOM     12  C   UNL     1      13.065  25.221  50.685  1.00  0.00     0.024 A 
ENDROOT
BRANCH   1  13
ATOM     13  C   UNL     1      11.827  27.301  50.708  1.00  0.00     0.338 C 
ATOM     14  O   UNL     1      11.078  27.769  49.817  1.00  0.00    -0.246 OA
BRANCH  13  15
ATOM     15  O   UNL     1      11.513  27.534  52.029  1.00  0.00    -0.465 OA
ATOM     16  C   UNL     1      12.177  28.511  52.825  1.00  0.00     0.282 C 
ENDBRANCH  13  15
ENDBRANCH   1  13
BRANCH   3  17
ATOM     17  O   UNL     1      15.898  27.593  48.280  1.00  0.00    -0.504 OA
ATOM     18  H   UNL     1      15.612  28.418  47.789  1.00  0.00     0.293 HD
ENDBRANCH   3  17
BRANCH   7  19
ATOM     19  O   UNL     1      16.405  23.085  47.809  1.00  0.00    -0.504 OA
ATOM     20  H   UNL     1      16.853  22.214  47.535  1.00  0.00     0.293 HD
ENDBRANCH   7  19
BRANCH   8  21
ATOM     21  O   UNL     1      15.648  20.674  48.860  1.00  0.00    -0.504 OA
ATOM     22  H   UNL     1      15.715  20.482  47.866  1.00  0.00     0.293 HD
ENDBRANCH   8  21
TORSDOF 5
ENDMDL
MODEL 7
REMARK VINA RESULT:      -5.6      2.068      5.598
REMARK SMILES COC(=O)c1cc(O)c(=O)c2c(O)c(O)ccc2c1
REMARK SMILES IDX 5 1 6 2 7 3 9 4 10 5 11 6 12 7 14 8 16 9 17 10 18 11 19 12
REMARK SMILES IDX 3 13 4 14 2 15 1 16 8 17 13 19 15 21
REMARK H PARENT 8 18 13 20 15 22
ROOT
ATOM      1  C   UNL     1      14.999  22.348  49.545  1.00  0.00     0.064 A 
ATOM      2  C   UNL     1      13.983  22.608  50.448  1.00  0.00     0.066 A 
ATOM      3  C   UNL     1      13.399  23.813  50.821  1.00  0.00     0.164 A 
ATOM      4  C   UNL     1      13.577  25.045  50.235  1.00  0.00     0.231 A 
ATOM      5  O   UNL     1      12.717  25.909  50.523  1.00  0.00    -0.285 OA
ATOM      6  C   UNL     1      14.589  25.455  49.363  1.00  0.00     0.079 A 
ATOM      7  C   UNL     1      14.530  26.795  49.078  1.00  0.00     0.169 A 
ATOM      8  C   UNL     1      15.466  27.381  48.221  1.00  0.00     0.158 A 
ATOM      9  C   UNL     1      16.459  26.618  47.653  1.00  0.00     0.051 A 
ATOM     10  C   UNL     1      16.495  25.274  47.956  1.00  0.00     0.013 A 
ATOM     11  C   UNL     1      15.584  24.677  48.797  1.00  0.00    -0.009 A 
ATOM     12  C   UNL     1      15.801  23.307  48.969  1.00  0.00     0.024 A 
ENDROOT
BRANCH   1  13
ATOM     13  C   UNL     1      15.238  20.961  49.175  1.00  0.00     0.338 C 
ATOM     14  O   UNL     1      15.356  20.694  47.955  1.00  0.00    -0.246 OA
BRANCH  13  15
ATOM     15  O   UNL     1      15.341  19.938  50.092  1.00  0.00    -0.465 OA
ATOM     16  C   UNL     1      16.498  19.728  50.895  1.00  0.00     0.282 C 
ENDBRANCH  13  15
ENDBRANCH   1  13
BRANCH   3  17
ATOM     17  O   UNL     1      12.543  23.763  51.904  1.00  0.00    -0.504 OA
ATOM     18  H   UNL     1      11.988  22.962  52.135  1.00  0.00     0.293 HD
ENDBRANCH   3  17
BRANCH   7  19
ATOM     19  O   UNL     1      13.533  27.595  49.640  1.00  0.00    -0.504 OA
ATOM     20  H   UNL     1      12.579  27.242  49.672  1.00  0.00     0.293 HD
ENDBRANCH   7  19
BRANCH   8  21
ATOM     21  O   UNL     1      15.369  28.735  47.960  1.00  0.00    -0.504 OA
ATOM     22  H   UNL     1      15.023  29.369  48.673  1.00  0.00     0.293 HD
ENDBRANCH   8  21
TORSDOF 5
ENDMDL
MODEL 8
REMARK VINA RESULT:      -5.5      2.669      2.859
REMARK SMILES COC(=O)c1cc(O)c(=O)c2c(O)c(O)ccc2c1
REMARK SMILES IDX 5 1 6 2 7 3 9 4 10 5 11 6 12 7 14 8 16 9 17 10 18 11 19 12
REMARK SMILES IDX 3 13 4 14 2 15 1 16 8 17 13 19 15 21
REMARK H PARENT 8 18 13 20 15 22
ROOT
ATOM      1  C   UNL     1      14.778  23.722  49.615  1.00  0.00     0.064 A 
ATOM      2  C   UNL     1      13.668  24.547  49.595  1.00  0.00     0.066 A 
ATOM      3  C   UNL     1      12.731  24.817  50.586  1.00  0.00     0.164 A 
ATOM      4  C   UNL     1      12.788  24.455  51.912  1.00  0.00     0.231 A 
ATOM      5  O   UNL     1      12.012  25.074  52.675  1.00  0.00    -0.285 OA
ATOM      6  C   UNL     1      13.599  23.488  52.515  1.00  0.00     0.079 A 
ATOM      7  C   UNL     1      13.297  23.297  53.839  1.00  0.00     0.169 A 
ATOM      8  C   UNL     1      14.007  22.366  54.602  1.00  0.00     0.158 A 
ATOM      9  C   UNL     1      15.019  21.629  54.032  1.00  0.00     0.051 A 
ATOM     10  C   UNL     1      15.301  21.841  52.699  1.00  0.00     0.013 A 
ATOM     11  C   UNL     1      14.614  22.752  51.930  1.00  0.00    -0.009 A 
ATOM     12  C   UNL     1      15.060  22.810  50.606  1.00  0.00     0.024 A 
ENDROOT
BRANCH   1  13
ATOM     13  C   UNL     1      15.718  23.825  48.509  1.00  0.00     0.338 C 
ATOM     14  O   UNL     1      16.496  22.861  48.312  1.00  0.00    -0.246 OA
BRANCH  13  15
ATOM     15  O   UNL     1      15.793  24.919  47.676  1.00  0.00    -0.465 OA
ATOM     16  C   UNL     1      16.604  26.055  47.957  1.00  0.00     0.282 C 
ENDBRANCH  13  15
ENDBRANCH   1  13
BRANCH   3  17
ATOM     17  O   UNL     1      11.617  25.531  50.190  1.00  0.00    -0.504 OA
ATOM     18  H   UNL     1      10.906  25.845  50.822  1.00  0.00     0.293 HD
ENDBRANCH   3  17
BRANCH   7  19
ATOM     19  O   UNL     1      12.275  24.030  54.445  1.00  0.00    -0.504 OA
ATOM     20  H   UNL     1      11.644  24.573  53.859  1.00  0.00     0.293 HD
ENDBRANCH   7  19
BRANCH   8  21
ATOM     21  O   UNL     1      13.671  22.206  55.933  1.00  0.00    -0.504 OA
ATOM     22  H   UNL     1      14.252  21.639  56.542  1.00  0.00     0.293 HD
ENDBRANCH   8  21
TORSDOF 5
ENDMDL
MODEL 9
REMARK VINA RESULT:      -5.5      1.728      3.537
REMARK SMILES COC(=O)c1cc(O)c(=O)c2c(O)c(O)ccc2c1
REMARK SMILES IDX 5 1 6 2 7 3 9 4 10 5 11 6 12 7 14 8 16 9 17 10 18 11 19 12
REMARK SMILES IDX 3 13 4 14 2 15 1 16 8 17 13 19 15 21
REMARK H PARENT 8 18 13 20 15 22
ROOT
ATOM      1  C   UNL     1      15.832  24.107  48.892  1.00  0.00     0.064 A 
ATOM      2  C   UNL     1      16.543  23.026  49.383  1.00  0.00     0.066 A 
ATOM      3  C   UNL     1      16.106  21.768  49.777  1.00  0.00     0.164 A 
ATOM      4  C   UNL     1      14.854  21.224  49.601  1.00  0.00     0.231 A 
ATOM      5  O   UNL     1      14.781  19.981  49.737  1.00  0.00    -0.285 OA
ATOM      6  C   UNL     1      13.658  21.877  49.291  1.00  0.00     0.079 A 
ATOM      7  C   UNL     1      12.574  21.038  49.322  1.00  0.00     0.169 A 
ATOM      8  C   UNL     1      11.294  21.521  49.036  1.00  0.00     0.158 A 
ATOM      9  C   UNL     1      11.106  22.846  48.722  1.00  0.00     0.051 A 
ATOM     10  C   UNL     1      12.213  23.668  48.698  1.00  0.00     0.013 A 
ATOM     11  C   UNL     1      13.482  23.213  48.975  1.00  0.00    -0.009 A 
ATOM     12  C   UNL     1      14.459  24.210  48.895  1.00  0.00     0.024 A 
ENDROOT
BRANCH   1  13
ATOM     13  C   UNL     1      16.587  25.216  48.329  1.00  0.00     0.338 C 
ATOM     14  O   UNL     1      17.761  25.390  48.737  1.00  0.00    -0.246 OA
BRANCH  13  15
ATOM     15  O   UNL     1      16.081  26.075  47.379  1.00  0.00    -0.465 OA
ATOM     16  C   UNL     1      15.638  27.394  47.680  1.00  0.00     0.282 C 
ENDBRANCH  13  15
ENDBRANCH   1  13
BRANCH   3  17
ATOM     17  O   UNL     1      17.038  20.974  50.418  1.00  0.00    -0.504 OA
ATOM     18  H   UNL     1      16.820  20.383  51.197  1.00  0.00     0.293 HD
ENDBRANCH   3  17
BRANCH   7  19
ATOM     19  O   UNL     1      12.733  19.688  49.638  1.00  0.00    -0.504 OA
ATOM     20  H   UNL     1      13.530  19.406  50.206  1.00  0.00     0.293 HD
ENDBRANCH   7  19
BRANCH   8  21
ATOM     21  O   UNL     1      10.229  20.640  49.079  1.00  0.00    -0.504 OA
ATOM     22  H   UNL     1       9.341  20.892  48.657  1.00  0.00     0.293 HD
ENDBRANCH   8  21
TORSDOF 5
ENDMDL
