MODEL 1
REMARK VINA RESULT:      -5.1      0.000      0.000
REMARK SMILES O=C1c2c([O-])ccc(O)c2C(=O)c2c(NCC[NH2+]CCO)ccc(NCCNCCO)c21
REMARK SMILES IDX 1 1 2 2 3 3 4 4 5 5 6 6 7 7 8 8 10 9 11 10 12 11 13 12 14 13
REMARK SMILES IDX 22 14 23 15 24 16 32 17 25 18 26 20 27 21 28 22 29 24 30 25
REMARK SMILES IDX 31 26 9 28 15 30 16 32 17 33 18 34 19 37 20 38 21 39
REMARK H PARENT 25 19 28 23 31 27 9 29 15 31 18 35 18 36 21 40
ROOT
ATOM      1  O   UNL     1     -24.559  43.973  18.442  1.00  0.00    -0.288 OA
ATOM      2  C   UNL     1     -25.027  44.332  19.549  1.00  0.00     0.196 C 
ATOM      3  C   UNL     1     -24.232  45.275  20.370  1.00  0.00     0.030 A 
ATOM      4  C   UNL     1     -23.020  45.703  19.863  1.00  0.00    -0.097 A 
ATOM      5  O   UNL     1     -22.595  45.243  18.620  1.00  0.00    -0.872 OA
ATOM      6  C   UNL     1     -22.262  46.580  20.607  1.00  0.00    -0.004 A 
ATOM      7  C   UNL     1     -22.704  47.017  21.825  1.00  0.00     0.046 A 
ATOM      8  C   UNL     1     -23.909  46.603  22.349  1.00  0.00     0.127 A 
ATOM      9  C   UNL     1     -24.666  45.715  21.586  1.00  0.00     0.075 A 
ATOM     10  C   UNL     1     -25.957  45.245  22.102  1.00  0.00     0.200 C 
ATOM     11  O   UNL     1     -26.278  45.701  23.226  1.00  0.00    -0.288 OA
ATOM     12  C   UNL     1     -26.757  44.318  21.315  1.00  0.00     0.059 A 
ATOM     13  C   UNL     1     -27.950  43.912  21.846  1.00  0.00     0.046 A 
ATOM     14  C   UNL     1     -28.695  43.013  21.055  1.00  0.00     0.028 A 
ATOM     15  C   UNL     1     -28.253  42.582  19.844  1.00  0.00     0.028 A 
ATOM     16  C   UNL     1     -27.027  42.998  19.298  1.00  0.00     0.046 A 
ATOM     17  C   UNL     1     -26.290  43.872  20.053  1.00  0.00     0.059 A 
ENDROOT
BRANCH  16  18
ATOM     18  N   UNL     1     -26.680  42.510  18.004  1.00  0.00    -0.383 N 
ATOM     19  H   UNL     1     -26.579  43.126  17.210  1.00  0.00     0.160 HD
BRANCH  18  20
ATOM     20  C   UNL     1     -26.457  41.098  17.750  1.00  0.00     0.128 C 
BRANCH  20  21
ATOM     21  C   UNL     1     -25.182  40.785  17.053  1.00  0.00     0.102 C 
BRANCH  21  22
ATOM     22  N   UNL     1     -24.016  41.243  17.820  1.00  0.00    -0.313 NA
ATOM     23  H   UNL     1     -23.171  40.952  17.270  1.00  0.00     0.122 HD
BRANCH  22  24
ATOM     24  C   UNL     1     -23.991  40.462  19.048  1.00  0.00     0.109 C 
BRANCH  24  25
ATOM     25  C   UNL     1     -23.280  41.204  20.154  1.00  0.00     0.171 C 
BRANCH  25  26
ATOM     26  O   UNL     1     -22.434  42.189  19.650  1.00  0.00    -0.395 OA
ATOM     27  H   UNL     1     -22.063  41.850  18.789  1.00  0.00     0.210 HD
ENDBRANCH  25  26
ENDBRANCH  24  25
ENDBRANCH  22  24
ENDBRANCH  21  22
ENDBRANCH  20  21
ENDBRANCH  18  20
ENDBRANCH  16  18
BRANCH   8  28
ATOM     28  O   UNL     1     -24.359  47.053  23.597  1.00  0.00    -0.507 OA
ATOM     29  H   UNL     1     -24.747  46.409  24.289  1.00  0.00     0.293 HD
ENDBRANCH   8  28
BRANCH  13  30
ATOM     30  N   UNL     1     -28.487  44.307  23.089  1.00  0.00    -0.379 N 
ATOM     31  H   UNL     1     -28.083  44.114  23.993  1.00  0.00     0.160 HD
BRANCH  30  32
ATOM     32  C   UNL     1     -29.750  45.071  23.145  1.00  0.00     0.174 C 
BRANCH  32  33
ATOM     33  C   UNL     1     -29.530  46.516  23.407  1.00  0.00     0.281 C 
BRANCH  33  34
ATOM     34  N   UNL     1     -29.049  47.264  22.287  1.00  0.00    -0.343 N 
ATOM     35  H   UNL     1     -28.832  48.262  22.511  1.00  0.00     0.346 HD
ATOM     36  H   UNL     1     -28.139  46.836  21.986  1.00  0.00     0.346 HD
BRANCH  34  37
ATOM     37  C   UNL     1     -29.922  47.226  21.139  1.00  0.00     0.289 C 
BRANCH  37  38
ATOM     38  C   UNL     1     -29.200  46.793  19.884  1.00  0.00     0.217 C 
BRANCH  38  39
ATOM     39  O   UNL     1     -27.906  47.283  19.925  1.00  0.00    -0.391 OA
ATOM     40  H   UNL     1     -27.319  46.592  19.500  1.00  0.00     0.210 HD
ENDBRANCH  38  39
ENDBRANCH  37  38
ENDBRANCH  34  37
ENDBRANCH  33  34
ENDBRANCH  32  33
ENDBRANCH  30  32
ENDBRANCH  13  30
TORSDOF 15
ENDMDL
MODEL 2
REMARK VINA RESULT:      -4.8      3.255      7.342
REMARK SMILES O=C1c2c([O-])ccc(O)c2C(=O)c2c(NCC[NH2+]CCO)ccc(NCCNCCO)c21
REMARK SMILES IDX 1 1 2 2 3 3 4 4 5 5 6 6 7 7 8 8 10 9 11 10 12 11 13 12 14 13
REMARK SMILES IDX 22 14 23 15 24 16 32 17 25 18 26 20 27 21 28 22 29 24 30 25
REMARK SMILES IDX 31 26 9 28 15 30 16 32 17 33 18 34 19 37 20 38 21 39
REMARK H PARENT 25 19 28 23 31 27 9 29 15 31 18 35 18 36 21 40
ROOT
ATOM      1  O   UNL     1     -24.118  46.639  22.578  1.00  0.00    -0.288 OA
ATOM      2  C   UNL     1     -24.670  45.615  22.108  1.00  0.00     0.196 C 
ATOM      3  C   UNL     1     -25.849  45.069  22.820  1.00  0.00     0.030 A 
ATOM      4  C   UNL     1     -26.270  45.724  23.961  1.00  0.00    -0.097 A 
ATOM      5  O   UNL     1     -25.586  46.855  24.395  1.00  0.00    -0.872 OA
ATOM      6  C   UNL     1     -27.365  45.236  24.640  1.00  0.00    -0.004 A 
ATOM      7  C   UNL     1     -28.019  44.123  24.191  1.00  0.00     0.046 A 
ATOM      8  C   UNL     1     -27.615  43.454  23.057  1.00  0.00     0.127 A 
ATOM      9  C   UNL     1     -26.506  43.958  22.378  1.00  0.00     0.075 A 
ATOM     10  C   UNL     1     -26.039  43.280  21.163  1.00  0.00     0.200 C 
ATOM     11  O   UNL     1     -26.702  42.269  20.830  1.00  0.00    -0.288 OA
ATOM     12  C   UNL     1     -24.882  43.797  20.446  1.00  0.00     0.059 A 
ATOM     13  C   UNL     1     -24.489  43.124  19.323  1.00  0.00     0.046 A 
ATOM     14  C   UNL     1     -23.364  43.654  18.657  1.00  0.00     0.028 A 
ATOM     15  C   UNL     1     -22.717  44.762  19.105  1.00  0.00     0.028 A 
ATOM     16  C   UNL     1     -23.120  45.453  20.260  1.00  0.00     0.046 A 
ATOM     17  C   UNL     1     -24.212  44.953  20.920  1.00  0.00     0.059 A 
ENDROOT
BRANCH  16  18
ATOM     18  N   UNL     1     -22.389  46.624  20.618  1.00  0.00    -0.383 N 
ATOM     19  H   UNL     1     -22.181  46.851  21.580  1.00  0.00     0.160 HD
BRANCH  18  20
ATOM     20  C   UNL     1     -21.905  47.562  19.621  1.00  0.00     0.128 C 
BRANCH  20  21
ATOM     21  C   UNL     1     -21.977  48.991  20.023  1.00  0.00     0.102 C 
BRANCH  21  22
ATOM     22  N   UNL     1     -20.935  49.793  19.366  1.00  0.00    -0.313 NA
ATOM     23  H   UNL     1     -20.061  49.654  19.930  1.00  0.00     0.122 HD
BRANCH  22  24
ATOM     24  C   UNL     1     -21.312  51.188  19.538  1.00  0.00     0.109 C 
BRANCH  24  25
ATOM     25  C   UNL     1     -22.813  51.355  19.526  1.00  0.00     0.171 C 
BRANCH  25  26
ATOM     26  O   UNL     1     -23.179  52.685  19.329  1.00  0.00    -0.395 OA
ATOM     27  H   UNL     1     -23.069  53.156  20.201  1.00  0.00     0.210 HD
ENDBRANCH  25  26
ENDBRANCH  24  25
ENDBRANCH  22  24
ENDBRANCH  21  22
ENDBRANCH  20  21
ENDBRANCH  18  20
ENDBRANCH  16  18
BRANCH   8  28
ATOM     28  O   UNL     1     -28.288  42.314  22.599  1.00  0.00    -0.507 OA
ATOM     29  H   UNL     1     -29.309  42.264  22.587  1.00  0.00     0.293 HD
ENDBRANCH   8  28
BRANCH  13  30
ATOM     30  N   UNL     1     -25.099  41.972  18.785  1.00  0.00    -0.379 N 
ATOM     31  H   UNL     1     -26.075  41.878  18.547  1.00  0.00     0.160 HD
BRANCH  30  32
ATOM     32  C   UNL     1     -24.298  40.759  18.523  1.00  0.00     0.174 C 
BRANCH  32  33
ATOM     33  C   UNL     1     -24.835  39.560  19.215  1.00  0.00     0.281 C 
BRANCH  33  34
ATOM     34  N   UNL     1     -23.845  38.696  19.779  1.00  0.00    -0.343 N 
ATOM     35  H   UNL     1     -23.094  39.204  20.301  1.00  0.00     0.346 HD
ATOM     36  H   UNL     1     -24.321  38.086  20.488  1.00  0.00     0.346 HD
BRANCH  34  37
ATOM     37  C   UNL     1     -23.228  37.812  18.822  1.00  0.00     0.289 C 
BRANCH  37  38
ATOM     38  C   UNL     1     -21.736  37.686  19.036  1.00  0.00     0.217 C 
BRANCH  38  39
ATOM     39  O   UNL     1     -21.276  38.843  19.641  1.00  0.00    -0.391 OA
ATOM     40  H   UNL     1     -21.364  38.710  20.629  1.00  0.00     0.210 HD
ENDBRANCH  38  39
ENDBRANCH  37  38
ENDBRANCH  34  37
ENDBRANCH  33  34
ENDBRANCH  32  33
ENDBRANCH  30  32
ENDBRANCH  13  30
TORSDOF 15
ENDMDL
MODEL 3
REMARK VINA RESULT:      -4.7      3.099      5.565
REMARK SMILES O=C1c2c([O-])ccc(O)c2C(=O)c2c(NCC[NH2+]CCO)ccc(NCCNCCO)c21
REMARK SMILES IDX 1 1 2 2 3 3 4 4 5 5 6 6 7 7 8 8 10 9 11 10 12 11 13 12 14 13
REMARK SMILES IDX 22 14 23 15 24 16 32 17 25 18 26 20 27 21 28 22 29 24 30 25
REMARK SMILES IDX 31 26 9 28 15 30 16 32 17 33 18 34 19 37 20 38 21 39
REMARK H PARENT 25 19 28 23 31 27 9 29 15 31 18 35 18 36 21 40
ROOT
ATOM      1  O   UNL     1     -22.540  45.897  22.397  1.00  0.00    -0.288 OA
ATOM      2  C   UNL     1     -23.781  45.710  22.420  1.00  0.00     0.196 C 
ATOM      3  C   UNL     1     -24.493  45.906  23.705  1.00  0.00     0.030 A 
ATOM      4  C   UNL     1     -23.744  46.287  24.801  1.00  0.00    -0.097 A 
ATOM      5  O   UNL     1     -22.371  46.471  24.665  1.00  0.00    -0.872 OA
ATOM      6  C   UNL     1     -24.383  46.478  26.007  1.00  0.00    -0.004 A 
ATOM      7  C   UNL     1     -25.733  46.291  26.113  1.00  0.00     0.046 A 
ATOM      8  C   UNL     1     -26.498  45.911  25.032  1.00  0.00     0.127 A 
ATOM      9  C   UNL     1     -25.839  45.722  23.818  1.00  0.00     0.075 A 
ATOM     10  C   UNL     1     -26.612  45.316  22.638  1.00  0.00     0.200 C 
ATOM     11  O   UNL     1     -27.843  45.170  22.832  1.00  0.00    -0.288 OA
ATOM     12  C   UNL     1     -25.936  45.116  21.364  1.00  0.00     0.059 A 
ATOM     13  C   UNL     1     -26.705  44.736  20.299  1.00  0.00     0.046 A 
ATOM     14  C   UNL     1     -26.014  44.550  19.084  1.00  0.00     0.028 A 
ATOM     15  C   UNL     1     -24.672  44.738  18.982  1.00  0.00     0.028 A 
ATOM     16  C   UNL     1     -23.881  45.128  20.076  1.00  0.00     0.046 A 
ATOM     17  C   UNL     1     -24.536  45.313  21.265  1.00  0.00     0.059 A 
ENDROOT
BRANCH  16  18
ATOM     18  N   UNL     1     -22.488  45.330  19.846  1.00  0.00    -0.383 N 
ATOM     19  H   UNL     1     -21.788  44.710  20.227  1.00  0.00     0.160 HD
BRANCH  18  20
ATOM     20  C   UNL     1     -21.994  46.443  19.055  1.00  0.00     0.128 C 
BRANCH  20  21
ATOM     21  C   UNL     1     -22.071  47.767  19.727  1.00  0.00     0.102 C 
BRANCH  21  22
ATOM     22  N   UNL     1     -21.222  48.764  19.061  1.00  0.00    -0.313 NA
ATOM     23  H   UNL     1     -20.232  48.507  19.296  1.00  0.00     0.122 HD
BRANCH  22  24
ATOM     24  C   UNL     1     -21.479  50.037  19.717  1.00  0.00     0.109 C 
BRANCH  24  25
ATOM     25  C   UNL     1     -20.358  51.017  19.468  1.00  0.00     0.171 C 
BRANCH  25  26
ATOM     26  O   UNL     1     -19.585  51.213  20.610  1.00  0.00    -0.395 OA
ATOM     27  H   UNL     1     -20.170  51.637  21.297  1.00  0.00     0.210 HD
ENDBRANCH  25  26
ENDBRANCH  24  25
ENDBRANCH  22  24
ENDBRANCH  21  22
ENDBRANCH  20  21
ENDBRANCH  18  20
ENDBRANCH  16  18
BRANCH   8  28
ATOM     28  O   UNL     1     -27.882  45.720  25.144  1.00  0.00    -0.507 OA
ATOM     29  H   UNL     1     -28.525  46.032  24.414  1.00  0.00     0.293 HD
ENDBRANCH   8  28
BRANCH  13  30
ATOM     30  N   UNL     1     -28.098  44.521  20.312  1.00  0.00    -0.379 N 
ATOM     31  H   UNL     1     -28.794  45.177  20.632  1.00  0.00     0.160 HD
BRANCH  30  32
ATOM     32  C   UNL     1     -28.658  43.241  19.830  1.00  0.00     0.174 C 
BRANCH  32  33
ATOM     33  C   UNL     1     -28.188  42.078  20.624  1.00  0.00     0.281 C 
BRANCH  33  34
ATOM     34  N   UNL     1     -28.239  42.258  22.042  1.00  0.00    -0.343 N 
ATOM     35  H   UNL     1     -27.847  43.172  22.364  1.00  0.00     0.346 HD
ATOM     36  H   UNL     1     -29.250  42.267  22.325  1.00  0.00     0.346 HD
BRANCH  34  37
ATOM     37  C   UNL     1     -27.612  41.195  22.789  1.00  0.00     0.289 C 
BRANCH  37  38
ATOM     38  C   UNL     1     -26.190  40.943  22.340  1.00  0.00     0.217 C 
BRANCH  38  39
ATOM     39  O   UNL     1     -25.400  42.004  22.749  1.00  0.00    -0.391 OA
ATOM     40  H   UNL     1     -24.807  41.662  23.479  1.00  0.00     0.210 HD
ENDBRANCH  38  39
ENDBRANCH  37  38
ENDBRANCH  34  37
ENDBRANCH  33  34
ENDBRANCH  32  33
ENDBRANCH  30  32
ENDBRANCH  13  30
TORSDOF 15
ENDMDL
MODEL 4
REMARK VINA RESULT:      -4.7      2.932      5.977
REMARK SMILES O=C1c2c([O-])ccc(O)c2C(=O)c2c(NCC[NH2+]CCO)ccc(NCCNCCO)c21
REMARK SMILES IDX 1 1 2 2 3 3 4 4 5 5 6 6 7 7 8 8 10 9 11 10 12 11 13 12 14 13
REMARK SMILES IDX 22 14 23 15 24 16 32 17 25 18 26 20 27 21 28 22 29 24 30 25
REMARK SMILES IDX 31 26 9 28 15 30 16 32 17 33 18 34 19 37 20 38 21 39
REMARK H PARENT 25 19 28 23 31 27 9 29 15 31 18 35 18 36 21 40
ROOT
ATOM      1  O   UNL     1     -23.231  46.514  22.497  1.00  0.00    -0.288 OA
ATOM      2  C   UNL     1     -24.337  45.939  22.348  1.00  0.00     0.196 C 
ATOM      3  C   UNL     1     -25.226  45.822  23.527  1.00  0.00     0.030 A 
ATOM      4  C   UNL     1     -24.782  46.356  24.721  1.00  0.00    -0.097 A 
ATOM      5  O   UNL     1     -23.537  46.975  24.776  1.00  0.00    -0.872 OA
ATOM      6  C   UNL     1     -25.592  46.260  25.832  1.00  0.00    -0.004 A 
ATOM      7  C   UNL     1     -26.812  45.647  25.749  1.00  0.00     0.046 A 
ATOM      8  C   UNL     1     -27.273  45.108  24.569  1.00  0.00     0.127 A 
ATOM      9  C   UNL     1     -26.444  45.212  23.452  1.00  0.00     0.075 A 
ATOM     10  C   UNL     1     -26.892  44.653  22.171  1.00  0.00     0.200 C 
ATOM     11  O   UNL     1     -28.023  44.111  22.194  1.00  0.00    -0.288 OA
ATOM     12  C   UNL     1     -26.036  44.755  20.998  1.00  0.00     0.059 A 
ATOM     13  C   UNL     1     -26.503  44.214  19.833  1.00  0.00     0.046 A 
ATOM     14  C   UNL     1     -25.645  44.331  18.720  1.00  0.00     0.028 A 
ATOM     15  C   UNL     1     -24.433  44.942  18.805  1.00  0.00     0.028 A 
ATOM     16  C   UNL     1     -23.952  45.497  20.002  1.00  0.00     0.046 A 
ATOM     17  C   UNL     1     -24.774  45.393  21.094  1.00  0.00     0.059 A 
ENDROOT
BRANCH  16  18
ATOM     18  N   UNL     1     -22.683  46.146  19.968  1.00  0.00    -0.383 N 
ATOM     19  H   UNL     1     -22.190  46.401  20.812  1.00  0.00     0.160 HD
BRANCH  18  20
ATOM     20  C   UNL     1     -22.027  46.484  18.717  1.00  0.00     0.128 C 
BRANCH  20  21
ATOM     21  C   UNL     1     -21.164  47.693  18.773  1.00  0.00     0.102 C 
BRANCH  21  22
ATOM     22  N   UNL     1     -21.806  48.783  19.519  1.00  0.00    -0.313 NA
ATOM     23  H   UNL     1     -22.598  49.121  18.919  1.00  0.00     0.122 HD
BRANCH  22  24
ATOM     24  C   UNL     1     -20.843  49.874  19.573  1.00  0.00     0.109 C 
BRANCH  24  25
ATOM     25  C   UNL     1     -21.537  51.215  19.593  1.00  0.00     0.171 C 
BRANCH  25  26
ATOM     26  O   UNL     1     -22.883  51.101  19.255  1.00  0.00    -0.395 OA
ATOM     27  H   UNL     1     -23.405  51.618  19.930  1.00  0.00     0.210 HD
ENDBRANCH  25  26
ENDBRANCH  24  25
ENDBRANCH  22  24
ENDBRANCH  21  22
ENDBRANCH  20  21
ENDBRANCH  18  20
ENDBRANCH  16  18
BRANCH   8  28
ATOM     28  O   UNL     1     -28.523  44.481  24.488  1.00  0.00    -0.507 OA
ATOM     29  H   UNL     1     -29.343  44.861  24.965  1.00  0.00     0.293 HD
ENDBRANCH   8  28
BRANCH  13  30
ATOM     30  N   UNL     1     -27.742  43.566  19.652  1.00  0.00    -0.379 N 
ATOM     31  H   UNL     1     -28.651  43.994  19.744  1.00  0.00     0.160 HD
BRANCH  30  32
ATOM     32  C   UNL     1     -27.787  42.132  19.298  1.00  0.00     0.174 C 
BRANCH  32  33
ATOM     33  C   UNL     1     -27.037  41.284  20.258  1.00  0.00     0.281 C 
BRANCH  33  34
ATOM     34  N   UNL     1     -26.055  40.429  19.666  1.00  0.00    -0.343 N 
ATOM     35  H   UNL     1     -26.431  39.497  19.376  1.00  0.00     0.346 HD
ATOM     36  H   UNL     1     -25.723  40.889  18.782  1.00  0.00     0.346 HD
BRANCH  34  37
ATOM     37  C   UNL     1     -24.887  40.223  20.487  1.00  0.00     0.289 C 
BRANCH  37  38
ATOM     38  C   UNL     1     -24.231  41.525  20.886  1.00  0.00     0.217 C 
BRANCH  38  39
ATOM     39  O   UNL     1     -23.512  41.322  22.052  1.00  0.00    -0.391 OA
ATOM     40  H   UNL     1     -22.932  42.127  22.180  1.00  0.00     0.210 HD
ENDBRANCH  38  39
ENDBRANCH  37  38
ENDBRANCH  34  37
ENDBRANCH  33  34
ENDBRANCH  32  33
ENDBRANCH  30  32
ENDBRANCH  13  30
TORSDOF 15
ENDMDL
MODEL 5
REMARK VINA RESULT:      -4.7      2.745      4.653
REMARK SMILES O=C1c2c([O-])ccc(O)c2C(=O)c2c(NCC[NH2+]CCO)ccc(NCCNCCO)c21
REMARK SMILES IDX 1 1 2 2 3 3 4 4 5 5 6 6 7 7 8 8 10 9 11 10 12 11 13 12 14 13
REMARK SMILES IDX 22 14 23 15 24 16 32 17 25 18 26 20 27 21 28 22 29 24 30 25
REMARK SMILES IDX 31 26 9 28 15 30 16 32 17 33 18 34 19 37 20 38 21 39
REMARK H PARENT 25 19 28 23 31 27 9 29 15 31 18 35 18 36 21 40
ROOT
ATOM      1  O   UNL     1     -22.842  45.710  22.290  1.00  0.00    -0.288 OA
ATOM      2  C   UNL     1     -24.061  45.467  22.465  1.00  0.00     0.196 C 
ATOM      3  C   UNL     1     -24.647  45.761  23.794  1.00  0.00     0.030 A 
ATOM      4  C   UNL     1     -23.812  46.289  24.761  1.00  0.00    -0.097 A 
ATOM      5  O   UNL     1     -22.474  46.522  24.459  1.00  0.00    -0.872 OA
ATOM      6  C   UNL     1     -24.334  46.572  26.004  1.00  0.00    -0.004 A 
ATOM      7  C   UNL     1     -25.653  46.334  26.273  1.00  0.00     0.046 A 
ATOM      8  C   UNL     1     -26.502  45.808  25.324  1.00  0.00     0.127 A 
ATOM      9  C   UNL     1     -25.962  45.526  24.069  1.00  0.00     0.075 A 
ATOM     10  C   UNL     1     -26.827  44.964  23.025  1.00  0.00     0.200 C 
ATOM     11  O   UNL     1     -28.020  44.781  23.365  1.00  0.00    -0.288 OA
ATOM     12  C   UNL     1     -26.275  44.666  21.711  1.00  0.00     0.059 A 
ATOM     13  C   UNL     1     -27.125  44.142  20.778  1.00  0.00     0.046 A 
ATOM     14  C   UNL     1     -26.553  43.864  19.520  1.00  0.00     0.028 A 
ATOM     15  C   UNL     1     -25.242  44.104  19.255  1.00  0.00     0.028 A 
ATOM     16  C   UNL     1     -24.366  44.641  20.214  1.00  0.00     0.046 A 
ATOM     17  C   UNL     1     -24.906  44.918  21.443  1.00  0.00     0.059 A 
ENDROOT
BRANCH  16  18
ATOM     18  N   UNL     1     -23.019  44.885  19.816  1.00  0.00    -0.383 N 
ATOM     19  H   UNL     1     -22.235  44.492  20.317  1.00  0.00     0.160 HD
BRANCH  18  20
ATOM     20  C   UNL     1     -22.695  45.716  18.671  1.00  0.00     0.128 C 
BRANCH  20  21
ATOM     21  C   UNL     1     -21.829  46.885  18.974  1.00  0.00     0.102 C 
BRANCH  21  22
ATOM     22  N   UNL     1     -22.285  47.602  20.173  1.00  0.00    -0.313 NA
ATOM     23  H   UNL     1     -23.329  47.501  20.193  1.00  0.00     0.122 HD
BRANCH  22  24
ATOM     24  C   UNL     1     -22.017  49.013  19.942  1.00  0.00     0.109 C 
BRANCH  24  25
ATOM     25  C   UNL     1     -20.760  49.206  19.129  1.00  0.00     0.171 C 
BRANCH  25  26
ATOM     26  O   UNL     1     -20.378  50.545  19.083  1.00  0.00    -0.395 OA
ATOM     27  H   UNL     1     -19.419  50.591  19.353  1.00  0.00     0.210 HD
ENDBRANCH  25  26
ENDBRANCH  24  25
ENDBRANCH  22  24
ENDBRANCH  21  22
ENDBRANCH  20  21
ENDBRANCH  18  20
ENDBRANCH  16  18
BRANCH   8  28
ATOM     28  O   UNL     1     -27.853  45.565  25.602  1.00  0.00    -0.507 OA
ATOM     29  H   UNL     1     -28.495  45.226  24.883  1.00  0.00     0.293 HD
ENDBRANCH   8  28
BRANCH  13  30
ATOM     30  N   UNL     1     -28.495  43.863  20.963  1.00  0.00    -0.379 N 
ATOM     31  H   UNL     1     -28.970  43.801  21.851  1.00  0.00     0.160 HD
BRANCH  30  32
ATOM     32  C   UNL     1     -29.370  43.626  19.796  1.00  0.00     0.174 C 
BRANCH  32  33
ATOM     33  C   UNL     1     -30.604  44.452  19.832  1.00  0.00     0.281 C 
BRANCH  33  34
ATOM     34  N   UNL     1     -30.527  45.680  19.103  1.00  0.00    -0.343 N 
ATOM     35  H   UNL     1     -29.904  45.632  18.265  1.00  0.00     0.346 HD
ATOM     36  H   UNL     1     -31.487  45.890  18.732  1.00  0.00     0.346 HD
BRANCH  34  37
ATOM     37  C   UNL     1     -30.137  46.813  19.906  1.00  0.00     0.289 C 
BRANCH  37  38
ATOM     38  C   UNL     1     -29.786  48.018  19.063  1.00  0.00     0.217 C 
BRANCH  38  39
ATOM     39  O   UNL     1     -28.415  48.208  19.109  1.00  0.00    -0.391 OA
ATOM     40  H   UNL     1     -28.098  47.828  19.979  1.00  0.00     0.210 HD
ENDBRANCH  38  39
ENDBRANCH  37  38
ENDBRANCH  34  37
ENDBRANCH  33  34
ENDBRANCH  32  33
ENDBRANCH  30  32
ENDBRANCH  13  30
TORSDOF 15
ENDMDL
MODEL 6
REMARK VINA RESULT:      -4.6      3.256      7.882
REMARK SMILES O=C1c2c([O-])ccc(O)c2C(=O)c2c(NCC[NH2+]CCO)ccc(NCCNCCO)c21
REMARK SMILES IDX 1 1 2 2 3 3 4 4 5 5 6 6 7 7 8 8 10 9 11 10 12 11 13 12 14 13
REMARK SMILES IDX 22 14 23 15 24 16 32 17 25 18 26 20 27 21 28 22 29 24 30 25
REMARK SMILES IDX 31 26 9 28 15 30 16 32 17 33 18 34 19 37 20 38 21 39
REMARK H PARENT 25 19 28 23 31 27 9 29 15 31 18 35 18 36 21 40
ROOT
ATOM      1  O   UNL     1     -28.385  45.917  24.823  1.00  0.00    -0.288 OA
ATOM      2  C   UNL     1     -27.548  45.810  23.894  1.00  0.00     0.196 C 
ATOM      3  C   UNL     1     -28.049  45.494  22.536  1.00  0.00     0.030 A 
ATOM      4  C   UNL     1     -29.412  45.338  22.375  1.00  0.00    -0.097 A 
ATOM      5  O   UNL     1     -30.254  45.480  23.474  1.00  0.00    -0.872 OA
ATOM      6  C   UNL     1     -29.903  45.045  21.122  1.00  0.00    -0.004 A 
ATOM      7  C   UNL     1     -29.053  44.911  20.059  1.00  0.00     0.046 A 
ATOM      8  C   UNL     1     -27.691  45.062  20.197  1.00  0.00     0.127 A 
ATOM      9  C   UNL     1     -27.207  45.359  21.471  1.00  0.00     0.075 A 
ATOM     10  C   UNL     1     -25.763  45.530  21.668  1.00  0.00     0.200 C 
ATOM     11  O   UNL     1     -25.065  45.389  20.636  1.00  0.00    -0.288 OA
ATOM     12  C   UNL     1     -25.246  45.840  22.994  1.00  0.00     0.059 A 
ATOM     13  C   UNL     1     -23.892  45.986  23.120  1.00  0.00     0.046 A 
ATOM     14  C   UNL     1     -23.429  46.283  24.418  1.00  0.00     0.028 A 
ATOM     15  C   UNL     1     -24.277  46.417  25.472  1.00  0.00     0.028 A 
ATOM     16  C   UNL     1     -25.668  46.267  25.344  1.00  0.00     0.046 A 
ATOM     17  C   UNL     1     -26.136  45.978  24.088  1.00  0.00     0.059 A 
ENDROOT
BRANCH  16  18
ATOM     18  N   UNL     1     -26.465  46.465  26.510  1.00  0.00    -0.383 N 
ATOM     19  H   UNL     1     -26.976  45.708  26.942  1.00  0.00     0.160 HD
BRANCH  18  20
ATOM     20  C   UNL     1     -26.592  47.765  27.141  1.00  0.00     0.128 C 
BRANCH  20  21
ATOM     21  C   UNL     1     -26.765  48.902  26.198  1.00  0.00     0.102 C 
BRANCH  21  22
ATOM     22  N   UNL     1     -28.113  48.923  25.615  1.00  0.00    -0.313 NA
ATOM     23  H   UNL     1     -28.048  48.393  24.711  1.00  0.00     0.122 HD
BRANCH  22  24
ATOM     24  C   UNL     1     -28.391  50.305  25.256  1.00  0.00     0.109 C 
BRANCH  24  25
ATOM     25  C   UNL     1     -27.843  51.260  26.290  1.00  0.00     0.171 C 
BRANCH  25  26
ATOM     26  O   UNL     1     -27.795  52.566  25.808  1.00  0.00    -0.395 OA
ATOM     27  H   UNL     1     -27.880  53.176  26.592  1.00  0.00     0.210 HD
ENDBRANCH  25  26
ENDBRANCH  24  25
ENDBRANCH  22  24
ENDBRANCH  21  22
ENDBRANCH  20  21
ENDBRANCH  18  20
ENDBRANCH  16  18
BRANCH   8  28
ATOM     28  O   UNL     1     -26.824  44.925  19.106  1.00  0.00    -0.507 OA
ATOM     29  H   UNL     1     -26.345  45.730  18.699  1.00  0.00     0.293 HD
ENDBRANCH   8  28
BRANCH  13  30
ATOM     30  N   UNL     1     -22.941  45.867  22.085  1.00  0.00    -0.379 N 
ATOM     31  H   UNL     1     -22.852  46.484  21.292  1.00  0.00     0.160 HD
BRANCH  30  32
ATOM     32  C   UNL     1     -21.960  44.762  22.099  1.00  0.00     0.174 C 
BRANCH  32  33
ATOM     33  C   UNL     1     -22.590  43.438  21.867  1.00  0.00     0.281 C 
BRANCH  33  34
ATOM     34  N   UNL     1     -22.308  42.853  20.592  1.00  0.00    -0.343 N 
ATOM     35  H   UNL     1     -21.764  43.478  19.955  1.00  0.00     0.346 HD
ATOM     36  H   UNL     1     -21.700  42.013  20.755  1.00  0.00     0.346 HD
BRANCH  34  37
ATOM     37  C   UNL     1     -23.480  42.385  19.893  1.00  0.00     0.289 C 
BRANCH  37  38
ATOM     38  C   UNL     1     -23.532  42.882  18.466  1.00  0.00     0.217 C 
BRANCH  38  39
ATOM     39  O   UNL     1     -23.975  44.193  18.468  1.00  0.00    -0.391 OA
ATOM     40  H   UNL     1     -23.843  44.543  19.397  1.00  0.00     0.210 HD
ENDBRANCH  38  39
ENDBRANCH  37  38
ENDBRANCH  34  37
ENDBRANCH  33  34
ENDBRANCH  32  33
ENDBRANCH  30  32
ENDBRANCH  13  30
TORSDOF 15
ENDMDL
MODEL 7
REMARK VINA RESULT:      -4.6      2.211      6.827
REMARK SMILES O=C1c2c([O-])ccc(O)c2C(=O)c2c(NCC[NH2+]CCO)ccc(NCCNCCO)c21
REMARK SMILES IDX 1 1 2 2 3 3 4 4 5 5 6 6 7 7 8 8 10 9 11 10 12 11 13 12 14 13
REMARK SMILES IDX 22 14 23 15 24 16 32 17 25 18 26 20 27 21 28 22 29 24 30 25
REMARK SMILES IDX 31 26 9 28 15 30 16 32 17 33 18 34 19 37 20 38 21 39
REMARK H PARENT 25 19 28 23 31 27 9 29 15 31 18 35 18 36 21 40
ROOT
ATOM      1  O   UNL     1     -26.073  46.653  24.104  1.00  0.00    -0.288 OA
ATOM      2  C   UNL     1     -25.763  45.892  23.155  1.00  0.00     0.196 C 
ATOM      3  C   UNL     1     -24.337  45.525  22.992  1.00  0.00     0.030 A 
ATOM      4  C   UNL     1     -23.433  46.044  23.898  1.00  0.00    -0.097 A 
ATOM      5  O   UNL     1     -23.884  46.879  24.917  1.00  0.00    -0.872 OA
ATOM      6  C   UNL     1     -22.101  45.717  23.768  1.00  0.00    -0.004 A 
ATOM      7  C   UNL     1     -21.685  44.894  22.758  1.00  0.00     0.046 A 
ATOM      8  C   UNL     1     -22.570  44.366  21.844  1.00  0.00     0.127 A 
ATOM      9  C   UNL     1     -23.915  44.705  21.987  1.00  0.00     0.075 A 
ATOM     10  C   UNL     1     -24.896  44.167  21.037  1.00  0.00     0.200 C 
ATOM     11  O   UNL     1     -24.420  43.422  20.147  1.00  0.00    -0.288 OA
ATOM     12  C   UNL     1     -26.303  44.513  21.176  1.00  0.00     0.059 A 
ATOM     13  C   UNL     1     -27.171  43.985  20.262  1.00  0.00     0.046 A 
ATOM     14  C   UNL     1     -28.525  44.345  20.428  1.00  0.00     0.028 A 
ATOM     15  C   UNL     1     -28.935  45.162  21.434  1.00  0.00     0.028 A 
ATOM     16  C   UNL     1     -28.043  45.705  22.373  1.00  0.00     0.046 A 
ATOM     17  C   UNL     1     -26.723  45.366  22.227  1.00  0.00     0.059 A 
ENDROOT
BRANCH  16  18
ATOM     18  N   UNL     1     -28.588  46.522  23.408  1.00  0.00    -0.383 N 
ATOM     19  H   UNL     1     -28.114  46.654  24.290  1.00  0.00     0.160 HD
BRANCH  18  20
ATOM     20  C   UNL     1     -29.859  47.207  23.256  1.00  0.00     0.128 C 
BRANCH  20  21
ATOM     21  C   UNL     1     -30.020  48.416  24.104  1.00  0.00     0.102 C 
BRANCH  21  22
ATOM     22  N   UNL     1     -28.745  49.120  24.294  1.00  0.00    -0.313 NA
ATOM     23  H   UNL     1     -28.376  48.809  25.226  1.00  0.00     0.122 HD
BRANCH  22  24
ATOM     24  C   UNL     1     -29.065  50.533  24.435  1.00  0.00     0.109 C 
BRANCH  24  25
ATOM     25  C   UNL     1     -29.880  51.028  23.264  1.00  0.00     0.171 C 
BRANCH  25  26
ATOM     26  O   UNL     1     -29.482  52.301  22.864  1.00  0.00    -0.395 OA
ATOM     27  H   UNL     1     -28.968  52.199  22.015  1.00  0.00     0.210 HD
ENDBRANCH  25  26
ENDBRANCH  24  25
ENDBRANCH  22  24
ENDBRANCH  21  22
ENDBRANCH  20  21
ENDBRANCH  18  20
ENDBRANCH  16  18
BRANCH   8  28
ATOM     28  O   UNL     1     -22.140  43.523  20.811  1.00  0.00    -0.507 OA
ATOM     29  H   UNL     1     -21.235  43.654  20.355  1.00  0.00     0.293 HD
ENDBRANCH   8  28
BRANCH  13  30
ATOM     30  N   UNL     1     -26.837  43.131  19.191  1.00  0.00    -0.379 N 
ATOM     31  H   UNL     1     -26.177  43.336  18.456  1.00  0.00     0.160 HD
BRANCH  30  32
ATOM     32  C   UNL     1     -27.473  41.803  19.071  1.00  0.00     0.174 C 
BRANCH  32  33
ATOM     33  C   UNL     1     -26.599  40.706  19.557  1.00  0.00     0.281 C 
BRANCH  33  34
ATOM     34  N   UNL     1     -25.242  40.774  19.108  1.00  0.00    -0.343 N 
ATOM     35  H   UNL     1     -25.143  40.743  18.068  1.00  0.00     0.346 HD
ATOM     36  H   UNL     1     -24.856  41.705  19.403  1.00  0.00     0.346 HD
BRANCH  34  37
ATOM     37  C   UNL     1     -24.384  39.770  19.686  1.00  0.00     0.289 C 
BRANCH  37  38
ATOM     38  C   UNL     1     -24.263  39.915  21.187  1.00  0.00     0.217 C 
BRANCH  38  39
ATOM     39  O   UNL     1     -23.425  40.981  21.464  1.00  0.00    -0.391 OA
ATOM     40  H   UNL     1     -23.661  41.306  22.381  1.00  0.00     0.210 HD
ENDBRANCH  38  39
ENDBRANCH  37  38
ENDBRANCH  34  37
ENDBRANCH  33  34
ENDBRANCH  32  33
ENDBRANCH  30  32
ENDBRANCH  13  30
TORSDOF 15
ENDMDL
MODEL 8
REMARK VINA RESULT:      -4.6      2.985      4.987
REMARK SMILES O=C1c2c([O-])ccc(O)c2C(=O)c2c(NCC[NH2+]CCO)ccc(NCCNCCO)c21
REMARK SMILES IDX 1 1 2 2 3 3 4 4 5 5 6 6 7 7 8 8 10 9 11 10 12 11 13 12 14 13
REMARK SMILES IDX 22 14 23 15 24 16 32 17 25 18 26 20 27 21 28 22 29 24 30 25
REMARK SMILES IDX 31 26 9 28 15 30 16 32 17 33 18 34 19 37 20 38 21 39
REMARK H PARENT 25 19 28 23 31 27 9 29 15 31 18 35 18 36 21 40
ROOT
ATOM      1  O   UNL     1     -22.542  45.850  22.308  1.00  0.00    -0.288 OA
ATOM      2  C   UNL     1     -23.784  45.688  22.382  1.00  0.00     0.196 C 
ATOM      3  C   UNL     1     -24.440  45.908  23.692  1.00  0.00     0.030 A 
ATOM      4  C   UNL     1     -23.641  46.282  24.755  1.00  0.00    -0.097 A 
ATOM      5  O   UNL     1     -22.271  46.437  24.563  1.00  0.00    -0.872 OA
ATOM      6  C   UNL     1     -24.228  46.493  25.983  1.00  0.00    -0.004 A 
ATOM      7  C   UNL     1     -25.576  46.335  26.144  1.00  0.00     0.046 A 
ATOM      8  C   UNL     1     -26.391  45.962  25.097  1.00  0.00     0.127 A 
ATOM      9  C   UNL     1     -25.784  45.751  23.859  1.00  0.00     0.075 A 
ATOM     10  C   UNL     1     -26.611  45.353  22.714  1.00  0.00     0.200 C 
ATOM     11  O   UNL     1     -27.836  45.233  22.958  1.00  0.00    -0.288 OA
ATOM     12  C   UNL     1     -25.990  45.130  21.416  1.00  0.00     0.059 A 
ATOM     13  C   UNL     1     -26.808  44.758  20.385  1.00  0.00     0.046 A 
ATOM     14  C   UNL     1     -26.169  44.549  19.146  1.00  0.00     0.028 A 
ATOM     15  C   UNL     1     -24.829  44.710  18.989  1.00  0.00     0.028 A 
ATOM     16  C   UNL     1     -23.987  45.091  20.048  1.00  0.00     0.046 A 
ATOM     17  C   UNL     1     -24.591  45.298  21.261  1.00  0.00     0.059 A 
ENDROOT
BRANCH  16  18
ATOM     18  N   UNL     1     -22.601  45.264  19.762  1.00  0.00    -0.383 N 
ATOM     19  H   UNL     1     -21.935  44.513  19.874  1.00  0.00     0.160 HD
BRANCH  18  20
ATOM     20  C   UNL     1     -22.066  46.531  19.297  1.00  0.00     0.128 C 
BRANCH  20  21
ATOM     21  C   UNL     1     -21.670  46.551  17.864  1.00  0.00     0.102 C 
BRANCH  21  22
ATOM     22  N   UNL     1     -20.598  47.524  17.611  1.00  0.00    -0.313 NA
ATOM     23  H   UNL     1     -19.696  47.007  17.750  1.00  0.00     0.122 HD
BRANCH  22  24
ATOM     24  C   UNL     1     -20.670  48.511  18.678  1.00  0.00     0.109 C 
BRANCH  24  25
ATOM     25  C   UNL     1     -19.535  49.502  18.583  1.00  0.00     0.171 C 
BRANCH  25  26
ATOM     26  O   UNL     1     -19.792  50.649  19.332  1.00  0.00    -0.395 OA
ATOM     27  H   UNL     1     -19.286  51.398  18.911  1.00  0.00     0.210 HD
ENDBRANCH  25  26
ENDBRANCH  24  25
ENDBRANCH  22  24
ENDBRANCH  21  22
ENDBRANCH  20  21
ENDBRANCH  18  20
ENDBRANCH  16  18
BRANCH   8  28
ATOM     28  O   UNL     1     -27.772  45.800  25.265  1.00  0.00    -0.507 OA
ATOM     29  H   UNL     1     -28.175  45.556  26.171  1.00  0.00     0.293 HD
ENDBRANCH   8  28
BRANCH  13  30
ATOM     30  N   UNL     1     -28.204  44.570  20.455  1.00  0.00    -0.379 N 
ATOM     31  H   UNL     1     -28.672  43.760  20.831  1.00  0.00     0.160 HD
BRANCH  30  32
ATOM     32  C   UNL     1     -29.121  45.612  19.948  1.00  0.00     0.174 C 
BRANCH  32  33
ATOM     33  C   UNL     1     -30.515  45.122  19.805  1.00  0.00     0.281 C 
BRANCH  33  34
ATOM     34  N   UNL     1     -30.763  43.835  20.378  1.00  0.00    -0.343 N 
ATOM     35  H   UNL     1     -31.116  43.131  19.690  1.00  0.00     0.346 HD
ATOM     36  H   UNL     1     -29.846  43.459  20.723  1.00  0.00     0.346 HD
BRANCH  34  37
ATOM     37  C   UNL     1     -31.652  43.862  21.513  1.00  0.00     0.289 C 
BRANCH  37  38
ATOM     38  C   UNL     1     -30.950  43.491  22.799  1.00  0.00     0.217 C 
BRANCH  38  39
ATOM     39  O   UNL     1     -29.698  42.987  22.492  1.00  0.00    -0.391 OA
ATOM     40  H   UNL     1     -29.385  43.464  21.670  1.00  0.00     0.210 HD
ENDBRANCH  38  39
ENDBRANCH  37  38
ENDBRANCH  34  37
ENDBRANCH  33  34
ENDBRANCH  32  33
ENDBRANCH  30  32
ENDBRANCH  13  30
TORSDOF 15
ENDMDL
MODEL 9
REMARK VINA RESULT:      -4.6      2.172      3.188
REMARK SMILES O=C1c2c([O-])ccc(O)c2C(=O)c2c(NCC[NH2+]CCO)ccc(NCCNCCO)c21
REMARK SMILES IDX 1 1 2 2 3 3 4 4 5 5 6 6 7 7 8 8 10 9 11 10 12 11 13 12 14 13
REMARK SMILES IDX 22 14 23 15 24 16 32 17 25 18 26 20 27 21 28 22 29 24 30 25
REMARK SMILES IDX 31 26 9 28 15 30 16 32 17 33 18 34 19 37 20 38 21 39
REMARK H PARENT 25 19 28 23 31 27 9 29 15 31 18 35 18 36 21 40
ROOT
ATOM      1  O   UNL     1     -22.669  44.000  18.004  1.00  0.00    -0.288 OA
ATOM      2  C   UNL     1     -23.291  44.052  19.093  1.00  0.00     0.196 C 
ATOM      3  C   UNL     1     -23.158  45.278  19.914  1.00  0.00     0.030 A 
ATOM      4  C   UNL     1     -22.356  46.293  19.427  1.00  0.00    -0.097 A 
ATOM      5  O   UNL     1     -21.712  46.132  18.204  1.00  0.00    -0.872 OA
ATOM      6  C   UNL     1     -22.218  47.444  20.172  1.00  0.00    -0.004 A 
ATOM      7  C   UNL     1     -22.863  47.576  21.370  1.00  0.00     0.046 A 
ATOM      8  C   UNL     1     -23.667  46.577  21.874  1.00  0.00     0.127 A 
ATOM      9  C   UNL     1     -23.799  45.417  21.110  1.00  0.00     0.075 A 
ATOM     10  C   UNL     1     -24.644  44.324  21.605  1.00  0.00     0.200 C 
ATOM     11  O   UNL     1     -25.194  44.537  22.712  1.00  0.00    -0.288 OA
ATOM     12  C   UNL     1     -24.790  43.109  20.817  1.00  0.00     0.059 A 
ATOM     13  C   UNL     1     -25.588  42.123  21.328  1.00  0.00     0.046 A 
ATOM     14  C   UNL     1     -25.702  40.961  20.537  1.00  0.00     0.028 A 
ATOM     15  C   UNL     1     -25.060  40.833  19.346  1.00  0.00     0.028 A 
ATOM     16  C   UNL     1     -24.240  41.846  18.820  1.00  0.00     0.046 A 
ATOM     17  C   UNL     1     -24.117  42.983  19.576  1.00  0.00     0.059 A 
ENDROOT
BRANCH  16  18
ATOM     18  N   UNL     1     -23.644  41.619  17.545  1.00  0.00    -0.383 N 
ATOM     19  H   UNL     1     -22.847  42.150  17.226  1.00  0.00     0.160 HD
BRANCH  18  20
ATOM     20  C   UNL     1     -24.153  40.615  16.628  1.00  0.00     0.128 C 
BRANCH  20  21
ATOM     21  C   UNL     1     -24.883  41.158  15.452  1.00  0.00     0.102 C 
BRANCH  21  22
ATOM     22  N   UNL     1     -24.425  40.545  14.198  1.00  0.00    -0.313 NA
ATOM     23  H   UNL     1     -23.476  40.143  14.399  1.00  0.00     0.122 HD
BRANCH  22  24
ATOM     24  C   UNL     1     -24.214  41.632  13.254  1.00  0.00     0.109 C 
BRANCH  24  25
ATOM     25  C   UNL     1     -25.526  42.230  12.807  1.00  0.00     0.171 C 
BRANCH  25  26
ATOM     26  O   UNL     1     -25.352  43.500  12.262  1.00  0.00    -0.395 OA
ATOM     27  H   UNL     1     -24.372  43.684  12.241  1.00  0.00     0.210 HD
ENDBRANCH  25  26
ENDBRANCH  24  25
ENDBRANCH  22  24
ENDBRANCH  21  22
ENDBRANCH  20  21
ENDBRANCH  18  20
ENDBRANCH  16  18
BRANCH   8  28
ATOM     28  O   UNL     1     -24.326  46.715  23.102  1.00  0.00    -0.507 OA
ATOM     29  H   UNL     1     -25.238  47.170  23.170  1.00  0.00     0.293 HD
ENDBRANCH   8  28
BRANCH  13  30
ATOM     30  N   UNL     1     -26.290  42.168  22.549  1.00  0.00    -0.379 N 
ATOM     31  H   UNL     1     -25.877  42.269  23.464  1.00  0.00     0.160 HD
BRANCH  30  32
ATOM     32  C   UNL     1     -27.764  42.062  22.565  1.00  0.00     0.174 C 
BRANCH  32  33
ATOM     33  C   UNL     1     -28.427  43.244  21.960  1.00  0.00     0.281 C 
BRANCH  33  34
ATOM     34  N   UNL     1     -28.162  44.485  22.619  1.00  0.00    -0.343 N 
ATOM     35  H   UNL     1     -28.670  44.596  23.526  1.00  0.00     0.346 HD
ATOM     36  H   UNL     1     -27.140  44.505  22.862  1.00  0.00     0.346 HD
BRANCH  34  37
ATOM     37  C   UNL     1     -28.413  45.647  21.801  1.00  0.00     0.289 C 
BRANCH  37  38
ATOM     38  C   UNL     1     -27.878  45.484  20.396  1.00  0.00     0.217 C 
BRANCH  38  39
ATOM     39  O   UNL     1     -27.455  46.719  19.936  1.00  0.00    -0.391 OA
ATOM     40  H   UNL     1     -26.454  46.701  19.933  1.00  0.00     0.210 HD
ENDBRANCH  38  39
ENDBRANCH  37  38
ENDBRANCH  34  37
ENDBRANCH  33  34
ENDBRANCH  32  33
ENDBRANCH  30  32
ENDBRANCH  13  30
TORSDOF 15
ENDMDL
