MODEL 1
REMARK VINA RESULT:      -8.6      0.000      0.000
REMARK SMILES COc1ccc(-c2cc(=O)c3ccccc3o2)cc1
REMARK SMILES IDX 3 1 4 2 5 3 6 4 18 5 19 6 2 7 1 8 7 9 8 10 17 11 9 12 16 13
REMARK SMILES IDX 10 14 11 15 15 16 12 17 14 18 13 19
REMARK H PARENT
ROOT
ATOM      1  C   UNL     1      45.560  41.876   4.001  1.00  0.00     0.118 A 
ATOM      2  C   UNL     1      45.044  40.854   3.239  1.00  0.00     0.047 A 
ATOM      3  C   UNL     1      43.786  40.300   3.507  1.00  0.00     0.016 A 
ATOM      4  C   UNL     1      43.007  40.747   4.540  1.00  0.00     0.018 A 
ATOM      5  C   UNL     1      43.545  41.781   5.298  1.00  0.00     0.016 A 
ATOM      6  C   UNL     1      44.782  42.333   5.043  1.00  0.00     0.047 A 
ENDROOT
BRANCH   1   7
ATOM      7  O   UNL     1      46.819  42.428   3.731  1.00  0.00    -0.497 OA
ATOM      8  C   UNL     1      47.018  43.808   3.568  1.00  0.00     0.278 C 
ENDBRANCH   1   7
BRANCH   4   9
ATOM      9  C   UNL     1      41.688  40.217   4.874  1.00  0.00     0.138 A 
ATOM     10  C   UNL     1      40.534  40.721   4.331  1.00  0.00     0.100 A 
ATOM     11  O   UNL     1      41.537  39.220   5.720  1.00  0.00    -0.456 OA
ATOM     12  C   UNL     1      39.268  40.221   4.644  1.00  0.00     0.193 A 
ATOM     13  C   UNL     1      40.379  38.705   6.056  1.00  0.00     0.138 A 
ATOM     14  O   UNL     1      38.225  40.697   4.134  1.00  0.00    -0.289 OA
ATOM     15  C   UNL     1      39.188  39.177   5.537  1.00  0.00     0.065 A 
ATOM     16  C   UNL     1      40.310  37.641   6.969  1.00  0.00     0.048 A 
ATOM     17  C   UNL     1      37.981  38.616   5.908  1.00  0.00     0.016 A 
ATOM     18  C   UNL     1      39.126  37.086   7.336  1.00  0.00     0.004 A 
ATOM     19  C   UNL     1      37.965  37.577   6.804  1.00  0.00     0.001 A 
ENDBRANCH   4   9
TORSDOF 2
ENDMDL
MODEL 2
REMARK VINA RESULT:      -8.5      1.038      2.446
REMARK SMILES COc1ccc(-c2cc(=O)c3ccccc3o2)cc1
REMARK SMILES IDX 3 1 4 2 5 3 6 4 18 5 19 6 2 7 1 8 7 9 8 10 17 11 9 12 16 13
REMARK SMILES IDX 10 14 11 15 15 16 12 17 14 18 13 19
REMARK H PARENT
ROOT
ATOM      1  C   UNL     1      45.279  42.076   3.722  1.00  0.00     0.118 A 
ATOM      2  C   UNL     1      44.658  42.517   4.868  1.00  0.00     0.047 A 
ATOM      3  C   UNL     1      43.624  41.789   5.469  1.00  0.00     0.016 A 
ATOM      4  C   UNL     1      43.179  40.604   4.949  1.00  0.00     0.018 A 
ATOM      5  C   UNL     1      43.819  40.175   3.791  1.00  0.00     0.016 A 
ATOM      6  C   UNL     1      44.838  40.884   3.191  1.00  0.00     0.047 A 
ENDROOT
BRANCH   1   7
ATOM      7  O   UNL     1      46.313  42.807   3.122  1.00  0.00    -0.497 OA
ATOM      8  C   UNL     1      47.006  43.825   3.797  1.00  0.00     0.278 C 
ENDBRANCH   1   7
BRANCH   4   9
ATOM      9  C   UNL     1      42.108  39.794   5.524  1.00  0.00     0.138 A 
ATOM     10  C   UNL     1      42.322  38.920   6.557  1.00  0.00     0.100 A 
ATOM     11  O   UNL     1      40.872  39.863   5.077  1.00  0.00    -0.456 OA
ATOM     12  C   UNL     1      41.306  38.142   7.115  1.00  0.00     0.193 A 
ATOM     13  C   UNL     1      39.873  39.161   5.555  1.00  0.00     0.138 A 
ATOM     14  O   UNL     1      41.524  37.348   8.062  1.00  0.00    -0.289 OA
ATOM     15  C   UNL     1      40.038  38.267   6.596  1.00  0.00     0.065 A 
ATOM     16  C   UNL     1      38.585  39.297   5.016  1.00  0.00     0.048 A 
ATOM     17  C   UNL     1      38.967  37.539   7.081  1.00  0.00     0.016 A 
ATOM     18  C   UNL     1      37.529  38.585   5.490  1.00  0.00     0.004 A 
ATOM     19  C   UNL     1      37.726  37.707   6.521  1.00  0.00     0.001 A 
ENDBRANCH   4   9
TORSDOF 2
ENDMDL
MODEL 3
REMARK VINA RESULT:      -8.3      1.577      7.071
REMARK SMILES COc1ccc(-c2cc(=O)c3ccccc3o2)cc1
REMARK SMILES IDX 3 1 4 2 5 3 6 4 18 5 19 6 2 7 1 8 7 9 8 10 17 11 9 12 16 13
REMARK SMILES IDX 10 14 11 15 15 16 12 17 14 18 13 19
REMARK H PARENT
ROOT
ATOM      1  C   UNL     1      39.329  38.348   6.133  1.00  0.00     0.118 A 
ATOM      2  C   UNL     1      40.505  38.118   6.808  1.00  0.00     0.047 A 
ATOM      3  C   UNL     1      41.692  38.776   6.462  1.00  0.00     0.016 A 
ATOM      4  C   UNL     1      41.743  39.680   5.435  1.00  0.00     0.018 A 
ATOM      5  C   UNL     1      40.544  39.899   4.765  1.00  0.00     0.016 A 
ATOM      6  C   UNL     1      39.370  39.257   5.098  1.00  0.00     0.047 A 
ENDROOT
BRANCH   1   7
ATOM      7  O   UNL     1      38.143  37.688   6.482  1.00  0.00    -0.497 OA
ATOM      8  C   UNL     1      36.876  38.245   6.250  1.00  0.00     0.278 C 
ENDBRANCH   1   7
BRANCH   4   9
ATOM      9  C   UNL     1      42.944  40.400   5.021  1.00  0.00     0.138 A 
ATOM     10  C   UNL     1      43.653  40.060   3.899  1.00  0.00     0.100 A 
ATOM     11  O   UNL     1      43.410  41.421   5.709  1.00  0.00    -0.456 OA
ATOM     12  C   UNL     1      44.803  40.743   3.493  1.00  0.00     0.193 A 
ATOM     13  C   UNL     1      44.481  42.103   5.384  1.00  0.00     0.138 A 
ATOM     14  O   UNL     1      45.437  40.415   2.462  1.00  0.00    -0.289 OA
ATOM     15  C   UNL     1      45.231  41.800   4.262  1.00  0.00     0.065 A 
ATOM     16  C   UNL     1      44.908  43.179   6.176  1.00  0.00     0.048 A 
ATOM     17  C   UNL     1      46.356  42.536   3.943  1.00  0.00     0.016 A 
ATOM     18  C   UNL     1      46.013  43.906   5.866  1.00  0.00     0.004 A 
ATOM     19  C   UNL     1      46.734  43.579   4.749  1.00  0.00     0.001 A 
ENDBRANCH   4   9
TORSDOF 2
ENDMDL
MODEL 4
REMARK VINA RESULT:      -8.3      1.301      2.361
REMARK SMILES COc1ccc(-c2cc(=O)c3ccccc3o2)cc1
REMARK SMILES IDX 3 1 4 2 5 3 6 4 18 5 19 6 2 7 1 8 7 9 8 10 17 11 9 12 16 13
REMARK SMILES IDX 10 14 11 15 15 16 12 17 14 18 13 19
REMARK H PARENT
ROOT
ATOM      1  C   UNL     1      45.535  41.421   4.866  1.00  0.00     0.118 A 
ATOM      2  C   UNL     1      44.847  40.676   3.937  1.00  0.00     0.047 A 
ATOM      3  C   UNL     1      43.661  40.007   4.264  1.00  0.00     0.016 A 
ATOM      4  C   UNL     1      43.127  40.059   5.524  1.00  0.00     0.018 A 
ATOM      5  C   UNL     1      43.837  40.817   6.449  1.00  0.00     0.016 A 
ATOM      6  C   UNL     1      45.005  41.480   6.136  1.00  0.00     0.047 A 
ENDROOT
BRANCH   1   7
ATOM      7  O   UNL     1      46.722  42.090   4.535  1.00  0.00    -0.497 OA
ATOM      8  C   UNL     1      46.808  42.978   3.451  1.00  0.00     0.278 C 
ENDBRANCH   1   7
BRANCH   4   9
ATOM      9  C   UNL     1      41.897  39.388   5.933  1.00  0.00     0.138 A 
ATOM     10  C   UNL     1      41.859  38.496   6.974  1.00  0.00     0.100 A 
ATOM     11  O   UNL     1      40.753  39.605   5.321  1.00  0.00    -0.456 OA
ATOM     12  C   UNL     1      40.688  37.848   7.375  1.00  0.00     0.193 A 
ATOM     13  C   UNL     1      39.620  39.030   5.646  1.00  0.00     0.138 A 
ATOM     14  O   UNL     1      40.675  37.037   8.331  1.00  0.00    -0.289 OA
ATOM     15  C   UNL     1      39.529  38.125   6.687  1.00  0.00     0.065 A 
ATOM     16  C   UNL     1      38.445  39.321   4.936  1.00  0.00     0.048 A 
ATOM     17  C   UNL     1      38.322  37.534   7.008  1.00  0.00     0.016 A 
ATOM     18  C   UNL     1      37.256  38.743   5.249  1.00  0.00     0.004 A 
ATOM     19  C   UNL     1      37.200  37.851   6.285  1.00  0.00     0.001 A 
ENDBRANCH   4   9
TORSDOF 2
ENDMDL
MODEL 5
REMARK VINA RESULT:      -8.3      1.575      7.053
REMARK SMILES COc1ccc(-c2cc(=O)c3ccccc3o2)cc1
REMARK SMILES IDX 3 1 4 2 5 3 6 4 18 5 19 6 2 7 1 8 7 9 8 10 17 11 9 12 16 13
REMARK SMILES IDX 10 14 11 15 15 16 12 17 14 18 13 19
REMARK H PARENT
ROOT
ATOM      1  C   UNL     1      39.355  38.302   6.267  1.00  0.00     0.118 A 
ATOM      2  C   UNL     1      39.291  39.205   5.232  1.00  0.00     0.047 A 
ATOM      3  C   UNL     1      40.424  39.905   4.797  1.00  0.00     0.016 A 
ATOM      4  C   UNL     1      41.650  39.727   5.380  1.00  0.00     0.018 A 
ATOM      5  C   UNL     1      41.693  38.810   6.424  1.00  0.00     0.016 A 
ATOM      6  C   UNL     1      40.585  38.115   6.860  1.00  0.00     0.047 A 
ENDROOT
BRANCH   1   7
ATOM      7  O   UNL     1      38.220  37.603   6.700  1.00  0.00    -0.497 OA
ATOM      8  C   UNL     1      36.930  38.155   6.648  1.00  0.00     0.278 C 
ENDBRANCH   1   7
BRANCH   4   9
ATOM      9  C   UNL     1      42.869  40.422   4.978  1.00  0.00     0.138 A 
ATOM     10  C   UNL     1      43.581  40.069   3.860  1.00  0.00     0.100 A 
ATOM     11  O   UNL     1      43.352  41.431   5.671  1.00  0.00    -0.456 OA
ATOM     12  C   UNL     1      44.748  40.726   3.465  1.00  0.00     0.193 A 
ATOM     13  C   UNL     1      44.441  42.089   5.356  1.00  0.00     0.138 A 
ATOM     14  O   UNL     1      45.383  40.387   2.439  1.00  0.00    -0.289 OA
ATOM     15  C   UNL     1      45.193  41.773   4.240  1.00  0.00     0.065 A 
ATOM     16  C   UNL     1      44.885  43.155   6.155  1.00  0.00     0.048 A 
ATOM     17  C   UNL     1      46.337  42.484   3.932  1.00  0.00     0.016 A 
ATOM     18  C   UNL     1      46.008  43.857   5.855  1.00  0.00     0.004 A 
ATOM     19  C   UNL     1      46.731  43.517   4.743  1.00  0.00     0.001 A 
ENDBRANCH   4   9
TORSDOF 2
ENDMDL
MODEL 6
REMARK VINA RESULT:      -8.3      0.508      1.134
REMARK SMILES COc1ccc(-c2cc(=O)c3ccccc3o2)cc1
REMARK SMILES IDX 3 1 4 2 5 3 6 4 18 5 19 6 2 7 1 8 7 9 8 10 17 11 9 12 16 13
REMARK SMILES IDX 10 14 11 15 15 16 12 17 14 18 13 19
REMARK H PARENT
ROOT
ATOM      1  C   UNL     1      45.292  42.331   3.643  1.00  0.00     0.118 A 
ATOM      2  C   UNL     1      44.325  43.027   4.330  1.00  0.00     0.047 A 
ATOM      3  C   UNL     1      43.131  42.418   4.736  1.00  0.00     0.016 A 
ATOM      4  C   UNL     1      42.866  41.102   4.470  1.00  0.00     0.018 A 
ATOM      5  C   UNL     1      43.856  40.416   3.775  1.00  0.00     0.016 A 
ATOM      6  C   UNL     1      45.035  41.005   3.371  1.00  0.00     0.047 A 
ENDROOT
BRANCH   1   7
ATOM      7  O   UNL     1      46.486  42.944   3.239  1.00  0.00    -0.497 OA
ATOM      8  C   UNL     1      47.185  43.846   4.056  1.00  0.00     0.278 C 
ENDBRANCH   1   7
BRANCH   4   9
ATOM      9  C   UNL     1      41.644  40.404   4.863  1.00  0.00     0.138 A 
ATOM     10  C   UNL     1      40.416  40.730   4.350  1.00  0.00     0.100 A 
ATOM     11  O   UNL     1      41.660  39.419   5.736  1.00  0.00    -0.456 OA
ATOM     12  C   UNL     1      39.241  40.070   4.718  1.00  0.00     0.193 A 
ATOM     13  C   UNL     1      40.595  38.760   6.124  1.00  0.00     0.138 A 
ATOM     14  O   UNL     1      38.127  40.384   4.235  1.00  0.00    -0.289 OA
ATOM     15  C   UNL     1      39.334  39.050   5.637  1.00  0.00     0.065 A 
ATOM     16  C   UNL     1      40.703  37.722   7.062  1.00  0.00     0.048 A 
ATOM     17  C   UNL     1      38.229  38.338   6.064  1.00  0.00     0.016 A 
ATOM     18  C   UNL     1      39.620  37.020   7.484  1.00  0.00     0.004 A 
ATOM     19  C   UNL     1      38.386  37.332   6.982  1.00  0.00     0.001 A 
ENDBRANCH   4   9
TORSDOF 2
ENDMDL
MODEL 7
REMARK VINA RESULT:      -7.9      0.857      1.378
REMARK SMILES COc1ccc(-c2cc(=O)c3ccccc3o2)cc1
REMARK SMILES IDX 3 1 4 2 5 3 6 4 18 5 19 6 2 7 1 8 7 9 8 10 17 11 9 12 16 13
REMARK SMILES IDX 10 14 11 15 15 16 12 17 14 18 13 19
REMARK H PARENT
ROOT
ATOM      1  C   UNL     1      45.638  41.600   4.135  1.00  0.00     0.118 A 
ATOM      2  C   UNL     1      45.318  41.552   5.472  1.00  0.00     0.047 A 
ATOM      3  C   UNL     1      44.135  40.954   5.923  1.00  0.00     0.016 A 
ATOM      4  C   UNL     1      43.237  40.388   5.058  1.00  0.00     0.018 A 
ATOM      5  C   UNL     1      43.579  40.446   3.711  1.00  0.00     0.016 A 
ATOM      6  C   UNL     1      44.741  41.032   3.257  1.00  0.00     0.047 A 
ENDROOT
BRANCH   1   7
ATOM      7  O   UNL     1      46.823  42.199   3.687  1.00  0.00    -0.497 OA
ATOM      8  C   UNL     1      46.989  43.592   3.632  1.00  0.00     0.278 C 
ENDBRANCH   1   7
BRANCH   4   9
ATOM      9  C   UNL     1      41.987  39.748   5.459  1.00  0.00     0.138 A 
ATOM     10  C   UNL     1      40.831  39.880   4.735  1.00  0.00     0.100 A 
ATOM     11  O   UNL     1      41.905  39.007   6.544  1.00  0.00    -0.456 OA
ATOM     12  C   UNL     1      39.629  39.272   5.108  1.00  0.00     0.193 A 
ATOM     13  C   UNL     1      40.811  38.412   6.950  1.00  0.00     0.138 A 
ATOM     14  O   UNL     1      38.583  39.405   4.430  1.00  0.00    -0.289 OA
ATOM     15  C   UNL     1      39.620  38.512   6.255  1.00  0.00     0.065 A 
ATOM     16  C   UNL     1      40.813  37.639   8.122  1.00  0.00     0.048 A 
ATOM     17  C   UNL     1      38.480  37.873   6.706  1.00  0.00     0.016 A 
ATOM     18  C   UNL     1      39.696  37.008   8.568  1.00  0.00     0.004 A 
ATOM     19  C   UNL     1      38.532  37.129   7.857  1.00  0.00     0.001 A 
ENDBRANCH   4   9
TORSDOF 2
ENDMDL
MODEL 8
REMARK VINA RESULT:      -7.8      1.950      2.487
REMARK SMILES COc1ccc(-c2cc(=O)c3ccccc3o2)cc1
REMARK SMILES IDX 3 1 4 2 5 3 6 4 18 5 19 6 2 7 1 8 7 9 8 10 17 11 9 12 16 13
REMARK SMILES IDX 10 14 11 15 15 16 12 17 14 18 13 19
REMARK H PARENT
ROOT
ATOM      1  C   UNL     1      46.785  43.057   6.734  1.00  0.00     0.118 A 
ATOM      2  C   UNL     1      46.513  41.908   7.439  1.00  0.00     0.047 A 
ATOM      3  C   UNL     1      45.326  41.191   7.243  1.00  0.00     0.016 A 
ATOM      4  C   UNL     1      44.379  41.595   6.342  1.00  0.00     0.018 A 
ATOM      5  C   UNL     1      44.673  42.759   5.639  1.00  0.00     0.016 A 
ATOM      6  C   UNL     1      45.838  43.472   5.823  1.00  0.00     0.047 A 
ENDROOT
BRANCH   1   7
ATOM      7  O   UNL     1      47.974  43.773   6.932  1.00  0.00    -0.497 OA
ATOM      8  C   UNL     1      48.040  45.170   6.812  1.00  0.00     0.278 C 
ENDBRANCH   1   7
BRANCH   4   9
ATOM      9  C   UNL     1      43.122  40.896   6.087  1.00  0.00     0.138 A 
ATOM     10  C   UNL     1      42.159  41.399   5.251  1.00  0.00     0.100 A 
ATOM     11  O   UNL     1      42.847  39.739   6.651  1.00  0.00    -0.456 OA
ATOM     12  C   UNL     1      40.954  40.739   5.000  1.00  0.00     0.193 A 
ATOM     13  C   UNL     1      41.737  39.069   6.458  1.00  0.00     0.138 A 
ATOM     14  O   UNL     1      40.086  41.216   4.231  1.00  0.00    -0.289 OA
ATOM     15  C   UNL     1      40.736  39.532   5.625  1.00  0.00     0.065 A 
ATOM     16  C   UNL     1      41.526  37.840   7.102  1.00  0.00     0.048 A 
ATOM     17  C   UNL     1      39.575  38.805   5.440  1.00  0.00     0.016 A 
ATOM     18  C   UNL     1      40.388  37.121   6.923  1.00  0.00     0.004 A 
ATOM     19  C   UNL     1      39.415  37.609   6.091  1.00  0.00     0.001 A 
ENDBRANCH   4   9
TORSDOF 2
ENDMDL
MODEL 9
REMARK VINA RESULT:      -7.8      1.276      2.354
REMARK SMILES COc1ccc(-c2cc(=O)c3ccccc3o2)cc1
REMARK SMILES IDX 3 1 4 2 5 3 6 4 18 5 19 6 2 7 1 8 7 9 8 10 17 11 9 12 16 13
REMARK SMILES IDX 10 14 11 15 15 16 12 17 14 18 13 19
REMARK H PARENT
ROOT
ATOM      1  C   UNL     1      45.311  43.379   4.565  1.00  0.00     0.118 A 
ATOM      2  C   UNL     1      45.021  42.355   3.694  1.00  0.00     0.047 A 
ATOM      3  C   UNL     1      44.055  41.387   3.994  1.00  0.00     0.016 A 
ATOM      4  C   UNL     1      43.351  41.410   5.168  1.00  0.00     0.018 A 
ATOM      5  C   UNL     1      43.658  42.453   6.035  1.00  0.00     0.016 A 
ATOM      6  C   UNL     1      44.607  43.411   5.749  1.00  0.00     0.047 A 
ENDROOT
BRANCH   1   7
ATOM      7  O   UNL     1      46.278  44.347   4.261  1.00  0.00    -0.497 OA
ATOM      8  C   UNL     1      47.465  44.038   3.578  1.00  0.00     0.278 C 
ENDBRANCH   1   7
BRANCH   4   9
ATOM      9  C   UNL     1      42.332  40.434   5.544  1.00  0.00     0.138 A 
ATOM     10  C   UNL     1      42.584  39.411   6.421  1.00  0.00     0.100 A 
ATOM     11  O   UNL     1      41.110  40.487   5.059  1.00  0.00    -0.456 OA
ATOM     12  C   UNL     1      41.617  38.472   6.788  1.00  0.00     0.193 A 
ATOM     13  C   UNL     1      40.157  39.639   5.362  1.00  0.00     0.138 A 
ATOM     14  O   UNL     1      41.868  37.544   7.593  1.00  0.00    -0.289 OA
ATOM     15  C   UNL     1      40.360  38.591   6.240  1.00  0.00     0.065 A 
ATOM     16  C   UNL     1      38.880  39.771   4.795  1.00  0.00     0.048 A 
ATOM     17  C   UNL     1      39.338  37.712   6.541  1.00  0.00     0.016 A 
ATOM     18  C   UNL     1      37.872  38.910   5.089  1.00  0.00     0.004 A 
ATOM     19  C   UNL     1      38.106  37.882   5.962  1.00  0.00     0.001 A 
ENDBRANCH   4   9
TORSDOF 2
ENDMDL
