MODEL 1
REMARK VINA RESULT:      -7.3      0.000      0.000
REMARK SMILES CC/C(=C(\c1ccccc1)c1ccc(OCC[NH+](C)C)cc1)c1ccccc1
REMARK SMILES IDX 15 1 14 2 11 3 12 4 22 5 13 6 21 7 4 8 3 9 2 10 1 11 23 12
REMARK SMILES IDX 24 13 28 14 25 15 27 16 26 17 5 18 6 19 10 20 7 21 9 22 8 23
REMARK SMILES IDX 16 24 17 25 18 26 19 27 20 28
REMARK H PARENT 18 29
ROOT
ATOM      1  O   UNL     1      -6.218  22.653 -15.379  1.00  0.00    -0.488 OA
ENDROOT
BRANCH   1   2
ATOM      2  C   UNL     1      -5.655  22.672 -14.117  1.00  0.00     0.119 A 
ATOM      3  C   UNL     1      -4.388  22.681 -11.557  1.00  0.00    -0.017 A 
ATOM      4  C   UNL     1      -5.703  23.071 -11.719  1.00  0.00     0.012 A 
ATOM      5  C   UNL     1      -3.724  22.285 -12.713  1.00  0.00     0.012 A 
ATOM      6  C   UNL     1      -6.304  23.061 -12.968  1.00  0.00     0.047 A 
ATOM      7  C   UNL     1      -4.320  22.276 -13.947  1.00  0.00     0.047 A 
BRANCH   3   8
ATOM      8  C   UNL     1      -3.740  22.658 -10.257  1.00  0.00    -0.007 C 
ATOM      9  C   UNL     1      -2.807  23.509  -9.918  1.00  0.00    -0.033 C 
BRANCH   9  10
ATOM     10  C   UNL     1      -2.077  23.501  -8.620  1.00  0.00     0.033 C 
ATOM     11  C   UNL     1      -0.733  22.867  -8.822  1.00  0.00     0.009 C 
ENDBRANCH   9  10
BRANCH   9  12
ATOM     12  C   UNL     1      -2.438  24.625 -10.807  1.00  0.00    -0.022 A 
ATOM     13  C   UNL     1      -3.325  25.618 -11.134  1.00  0.00     0.008 A 
ATOM     14  C   UNL     1      -1.176  24.651 -11.318  1.00  0.00     0.008 A 
ATOM     15  C   UNL     1      -2.935  26.630 -11.974  1.00  0.00     0.001 A 
ATOM     16  C   UNL     1      -0.736  25.662 -12.178  1.00  0.00     0.001 A 
ATOM     17  C   UNL     1      -1.648  26.645 -12.488  1.00  0.00     0.000 A 
ENDBRANCH   9  12
BRANCH   8  18
ATOM     18  C   UNL     1      -4.130  21.621  -9.324  1.00  0.00    -0.018 A 
ATOM     19  C   UNL     1      -5.324  21.662  -8.631  1.00  0.00     0.009 A 
ATOM     20  C   UNL     1      -3.260  20.565  -9.071  1.00  0.00     0.009 A 
ATOM     21  C   UNL     1      -5.610  20.673  -7.726  1.00  0.00     0.001 A 
ATOM     22  C   UNL     1      -3.531  19.563  -8.168  1.00  0.00     0.001 A 
ATOM     23  C   UNL     1      -4.741  19.627  -7.483  1.00  0.00     0.000 A 
ENDBRANCH   8  18
ENDBRANCH   3   8
ENDBRANCH   1   2
BRANCH   1  24
ATOM     24  C   UNL     1      -5.980  23.501 -16.447  1.00  0.00     0.290 C 
BRANCH  24  25
ATOM     25  C   UNL     1      -6.638  24.854 -16.366  1.00  0.00     0.303 C 
BRANCH  25  26
ATOM     26  N   UNL     1      -5.726  25.897 -16.008  1.00  0.00    -0.337 N 
ATOM     27  C   UNL     1      -4.337  25.532 -16.179  1.00  0.00     0.332 C 
ATOM     28  C   UNL     1      -5.885  26.337 -14.636  1.00  0.00     0.332 C 
ATOM     29  H   UNL     1      -5.878  26.766 -16.602  1.00  0.00     0.347 HD
ENDBRANCH  25  26
ENDBRANCH  24  25
ENDBRANCH   1  24
TORSDOF 8
ENDMDL
MODEL 2
REMARK VINA RESULT:      -7.3      0.401      1.390
REMARK SMILES CC/C(=C(\c1ccccc1)c1ccc(OCC[NH+](C)C)cc1)c1ccccc1
REMARK SMILES IDX 15 1 14 2 11 3 12 4 22 5 13 6 21 7 4 8 3 9 2 10 1 11 23 12
REMARK SMILES IDX 24 13 28 14 25 15 27 16 26 17 5 18 6 19 10 20 7 21 9 22 8 23
REMARK SMILES IDX 16 24 17 25 18 26 19 27 20 28
REMARK H PARENT 18 29
ROOT
ATOM      1  O   UNL     1      -6.377  22.956 -15.351  1.00  0.00    -0.488 OA
ENDROOT
BRANCH   1   2
ATOM      2  C   UNL     1      -5.678  22.846 -14.162  1.00  0.00     0.119 A 
ATOM      3  C   UNL     1      -4.332  22.652 -11.650  1.00  0.00    -0.017 A 
ATOM      4  C   UNL     1      -3.722  22.284 -12.833  1.00  0.00     0.012 A 
ATOM      5  C   UNL     1      -5.637  23.123 -11.761  1.00  0.00     0.012 A 
ATOM      6  C   UNL     1      -4.389  22.384 -14.044  1.00  0.00     0.047 A 
ATOM      7  C   UNL     1      -6.294  23.220 -12.959  1.00  0.00     0.047 A 
BRANCH   3   8
ATOM      8  C   UNL     1      -3.651  22.581 -10.370  1.00  0.00    -0.007 C 
ATOM      9  C   UNL     1      -2.673  23.387 -10.045  1.00  0.00    -0.033 C 
BRANCH   9  10
ATOM     10  C   UNL     1      -1.909  23.328  -8.768  1.00  0.00     0.033 C 
ATOM     11  C   UNL     1      -2.597  24.190  -7.751  1.00  0.00     0.009 C 
ENDBRANCH   9  10
BRANCH   9  12
ATOM     12  C   UNL     1      -2.281  24.501 -10.927  1.00  0.00    -0.022 A 
ATOM     13  C   UNL     1      -1.040  24.569 -11.505  1.00  0.00     0.008 A 
ATOM     14  C   UNL     1      -3.189  25.490 -11.157  1.00  0.00     0.008 A 
ATOM     15  C   UNL     1      -0.722  25.633 -12.311  1.00  0.00     0.001 A 
ATOM     16  C   UNL     1      -2.907  26.592 -11.970  1.00  0.00     0.001 A 
ATOM     17  C   UNL     1      -1.654  26.632 -12.536  1.00  0.00     0.000 A 
ENDBRANCH   9  12
BRANCH   8  18
ATOM     18  C   UNL     1      -4.058  21.547  -9.442  1.00  0.00    -0.018 A 
ATOM     19  C   UNL     1      -5.306  21.534  -8.852  1.00  0.00     0.009 A 
ATOM     20  C   UNL     1      -3.153  20.551  -9.085  1.00  0.00     0.009 A 
ATOM     21  C   UNL     1      -5.611  20.552  -7.945  1.00  0.00     0.001 A 
ATOM     22  C   UNL     1      -3.442  19.559  -8.178  1.00  0.00     0.001 A 
ATOM     23  C   UNL     1      -4.708  19.567  -7.599  1.00  0.00     0.000 A 
ENDBRANCH   8  18
ENDBRANCH   3   8
ENDBRANCH   1   2
BRANCH   1  24
ATOM     24  C   UNL     1      -5.969  23.524 -16.545  1.00  0.00     0.290 C 
BRANCH  24  25
ATOM     25  C   UNL     1      -6.271  24.991 -16.709  1.00  0.00     0.303 C 
BRANCH  25  26
ATOM     26  N   UNL     1      -5.141  25.827 -16.442  1.00  0.00    -0.337 N 
ATOM     27  C   UNL     1      -3.872  25.158 -16.636  1.00  0.00     0.332 C 
ATOM     28  C   UNL     1      -5.140  26.360 -15.096  1.00  0.00     0.332 C 
ATOM     29  H   UNL     1      -5.127  26.676 -17.083  1.00  0.00     0.347 HD
ENDBRANCH  25  26
ENDBRANCH  24  25
ENDBRANCH   1  24
TORSDOF 8
ENDMDL
MODEL 3
REMARK VINA RESULT:      -7.2      0.534      1.702
REMARK SMILES CC/C(=C(\c1ccccc1)c1ccc(OCC[NH+](C)C)cc1)c1ccccc1
REMARK SMILES IDX 15 1 14 2 11 3 12 4 22 5 13 6 21 7 4 8 3 9 2 10 1 11 23 12
REMARK SMILES IDX 24 13 28 14 25 15 27 16 26 17 5 18 6 19 10 20 7 21 9 22 8 23
REMARK SMILES IDX 16 24 17 25 18 26 19 27 20 28
REMARK H PARENT 18 29
ROOT
ATOM      1  O   UNL     1      -5.702  22.612 -15.492  1.00  0.00    -0.488 OA
ENDROOT
BRANCH   1   2
ATOM      2  C   UNL     1      -5.128  22.581 -14.235  1.00  0.00     0.119 A 
ATOM      3  C   UNL     1      -4.046  22.551 -11.591  1.00  0.00    -0.017 A 
ATOM      4  C   UNL     1      -3.310  22.137 -12.684  1.00  0.00     0.012 A 
ATOM      5  C   UNL     1      -5.341  22.983 -11.860  1.00  0.00     0.012 A 
ATOM      6  C   UNL     1      -3.849  22.157 -13.961  1.00  0.00     0.047 A 
ATOM      7  C   UNL     1      -5.872  23.002 -13.122  1.00  0.00     0.047 A 
BRANCH   3   8
ATOM      8  C   UNL     1      -3.499  22.564 -10.246  1.00  0.00    -0.007 C 
ATOM      9  C   UNL     1      -2.604  23.434  -9.855  1.00  0.00    -0.033 C 
BRANCH   9  10
ATOM     10  C   UNL     1      -1.976  23.463  -8.506  1.00  0.00     0.033 C 
ATOM     11  C   UNL     1      -2.829  24.292  -7.591  1.00  0.00     0.009 C 
ENDBRANCH   9  10
BRANCH   9  12
ATOM     12  C   UNL     1      -2.182  24.537 -10.737  1.00  0.00    -0.022 A 
ATOM     13  C   UNL     1      -0.908  24.621 -11.237  1.00  0.00     0.008 A 
ATOM     14  C   UNL     1      -3.095  25.499 -11.047  1.00  0.00     0.008 A 
ATOM     15  C   UNL     1      -0.562  25.674 -12.046  1.00  0.00     0.001 A 
ATOM     16  C   UNL     1      -2.786  26.588 -11.867  1.00  0.00     0.001 A 
ATOM     17  C   UNL     1      -1.500  26.646 -12.354  1.00  0.00     0.000 A 
ENDBRANCH   9  12
BRANCH   8  18
ATOM     18  C   UNL     1      -3.946  21.540  -9.323  1.00  0.00    -0.018 A 
ATOM     19  C   UNL     1      -3.153  20.467  -8.970  1.00  0.00     0.009 A 
ATOM     20  C   UNL     1      -5.236  21.603  -8.803  1.00  0.00     0.009 A 
ATOM     21  C   UNL     1      -3.655  19.508  -8.129  1.00  0.00     0.001 A 
ATOM     22  C   UNL     1      -5.755  20.651  -7.957  1.00  0.00     0.001 A 
ATOM     23  C   UNL     1      -4.935  19.580  -7.616  1.00  0.00     0.000 A 
ENDBRANCH   8  18
ENDBRANCH   3   8
ENDBRANCH   1   2
BRANCH   1  24
ATOM     24  C   UNL     1      -6.336  23.665 -16.129  1.00  0.00     0.290 C 
BRANCH  24  25
ATOM     25  C   UNL     1      -5.435  24.624 -16.862  1.00  0.00     0.303 C 
BRANCH  25  26
ATOM     26  N   UNL     1      -5.171  25.819 -16.120  1.00  0.00    -0.337 N 
ATOM     27  C   UNL     1      -3.880  25.817 -15.467  1.00  0.00     0.332 C 
ATOM     28  C   UNL     1      -6.165  26.079 -15.099  1.00  0.00     0.332 C 
ATOM     29  H   UNL     1      -5.181  26.676 -16.750  1.00  0.00     0.347 HD
ENDBRANCH  25  26
ENDBRANCH  24  25
ENDBRANCH   1  24
TORSDOF 8
ENDMDL
MODEL 4
REMARK VINA RESULT:      -7.0      0.713      1.805
REMARK SMILES CC/C(=C(\c1ccccc1)c1ccc(OCC[NH+](C)C)cc1)c1ccccc1
REMARK SMILES IDX 15 1 14 2 11 3 12 4 22 5 13 6 21 7 4 8 3 9 2 10 1 11 23 12
REMARK SMILES IDX 24 13 28 14 25 15 27 16 26 17 5 18 6 19 10 20 7 21 9 22 8 23
REMARK SMILES IDX 16 24 17 25 18 26 19 27 20 28
REMARK H PARENT 18 29
ROOT
ATOM      1  O   UNL     1      -6.088  22.811 -15.326  1.00  0.00    -0.488 OA
ENDROOT
BRANCH   1   2
ATOM      2  C   UNL     1      -5.450  22.743 -14.101  1.00  0.00     0.119 A 
ATOM      3  C   UNL     1      -4.232  22.638 -11.519  1.00  0.00    -0.017 A 
ATOM      4  C   UNL     1      -3.566  22.224 -12.656  1.00  0.00     0.012 A 
ATOM      5  C   UNL     1      -5.527  23.108 -11.712  1.00  0.00     0.012 A 
ATOM      6  C   UNL     1      -4.170  22.281 -13.902  1.00  0.00     0.047 A 
ATOM      7  C   UNL     1      -6.123  23.163 -12.944  1.00  0.00     0.047 A 
BRANCH   3   8
ATOM      8  C   UNL     1      -3.616  22.612 -10.205  1.00  0.00    -0.007 C 
ATOM      9  C   UNL     1      -2.667  23.441  -9.853  1.00  0.00    -0.033 C 
BRANCH   9  10
ATOM     10  C   UNL     1      -1.969  23.429  -8.538  1.00  0.00     0.033 C 
ATOM     11  C   UNL     1      -0.611  22.816  -8.716  1.00  0.00     0.009 C 
ENDBRANCH   9  10
BRANCH   9  12
ATOM     12  C   UNL     1      -2.247  24.537 -10.745  1.00  0.00    -0.022 A 
ATOM     13  C   UNL     1      -1.031  24.534 -11.377  1.00  0.00     0.008 A 
ATOM     14  C   UNL     1      -3.102  25.582 -10.927  1.00  0.00     0.008 A 
ATOM     15  C   UNL     1      -0.684  25.584 -12.190  1.00  0.00     0.001 A 
ATOM     16  C   UNL     1      -2.789  26.671 -11.745  1.00  0.00     0.001 A 
ATOM     17  C   UNL     1      -1.562  26.640 -12.367  1.00  0.00     0.000 A 
ENDBRANCH   9  12
BRANCH   8  18
ATOM     18  C   UNL     1      -4.055  21.596  -9.270  1.00  0.00    -0.018 A 
ATOM     19  C   UNL     1      -3.294  20.481  -8.981  1.00  0.00     0.009 A 
ATOM     20  C   UNL     1      -5.306  21.712  -8.670  1.00  0.00     0.009 A 
ATOM     21  C   UNL     1      -3.790  19.533  -8.123  1.00  0.00     0.001 A 
ATOM     22  C   UNL     1      -5.818  20.772  -7.807  1.00  0.00     0.001 A 
ATOM     23  C   UNL     1      -5.032  19.657  -7.531  1.00  0.00     0.000 A 
ENDBRANCH   8  18
ENDBRANCH   3   8
ENDBRANCH   1   2
BRANCH   1  24
ATOM     24  C   UNL     1      -5.781  23.602 -16.419  1.00  0.00     0.290 C 
BRANCH  24  25
ATOM     25  C   UNL     1      -5.161  24.939 -16.105  1.00  0.00     0.303 C 
BRANCH  25  26
ATOM     26  N   UNL     1      -3.819  25.059 -16.589  1.00  0.00    -0.337 N 
ATOM     27  C   UNL     1      -3.360  23.890 -17.307  1.00  0.00     0.332 C 
ATOM     28  C   UNL     1      -2.861  25.314 -15.533  1.00  0.00     0.332 C 
ATOM     29  H   UNL     1      -3.722  25.876 -17.263  1.00  0.00     0.347 HD
ENDBRANCH  25  26
ENDBRANCH  24  25
ENDBRANCH   1  24
TORSDOF 8
ENDMDL
MODEL 5
REMARK VINA RESULT:      -6.9      2.819      7.631
REMARK SMILES CC/C(=C(\c1ccccc1)c1ccc(OCC[NH+](C)C)cc1)c1ccccc1
REMARK SMILES IDX 15 1 14 2 11 3 12 4 22 5 13 6 21 7 4 8 3 9 2 10 1 11 23 12
REMARK SMILES IDX 24 13 28 14 25 15 27 16 26 17 5 18 6 19 10 20 7 21 9 22 8 23
REMARK SMILES IDX 16 24 17 25 18 26 19 27 20 28
REMARK H PARENT 18 29
ROOT
ATOM      1  O   UNL     1      -1.948  23.242  -9.725  1.00  0.00    -0.488 OA
ENDROOT
BRANCH   1   2
ATOM      2  C   UNL     1      -2.508  23.760 -10.878  1.00  0.00     0.119 A 
ATOM      3  C   UNL     1      -3.687  24.930 -13.202  1.00  0.00    -0.017 A 
ATOM      4  C   UNL     1      -3.087  23.687 -13.238  1.00  0.00     0.012 A 
ATOM      5  C   UNL     1      -3.682  25.572 -11.967  1.00  0.00     0.012 A 
ATOM      6  C   UNL     1      -2.519  23.132 -12.102  1.00  0.00     0.047 A 
ATOM      7  C   UNL     1      -3.119  25.022 -10.846  1.00  0.00     0.047 A 
BRANCH   3   8
ATOM      8  C   UNL     1      -4.312  25.525 -14.370  1.00  0.00    -0.007 C 
ATOM      9  C   UNL     1      -5.607  25.534 -14.551  1.00  0.00    -0.033 C 
BRANCH   9  10
ATOM     10  C   UNL     1      -6.297  26.086 -15.749  1.00  0.00     0.033 C 
ATOM     11  C   UNL     1      -6.784  24.948 -16.597  1.00  0.00     0.009 C 
ENDBRANCH   9  10
BRANCH   9  12
ATOM     12  C   UNL     1      -6.523  25.036 -13.509  1.00  0.00    -0.022 A 
ATOM     13  C   UNL     1      -6.689  23.697 -13.266  1.00  0.00     0.008 A 
ATOM     14  C   UNL     1      -7.226  25.947 -12.780  1.00  0.00     0.008 A 
ATOM     15  C   UNL     1      -7.562  23.285 -12.291  1.00  0.00     0.001 A 
ATOM     16  C   UNL     1      -8.125  25.572 -11.778  1.00  0.00     0.001 A 
ATOM     17  C   UNL     1      -8.271  24.222 -11.557  1.00  0.00     0.000 A 
ENDBRANCH   9  12
BRANCH   8  18
ATOM     18  C   UNL     1      -3.449  26.095 -15.384  1.00  0.00    -0.018 A 
ATOM     19  C   UNL     1      -3.126  27.437 -15.409  1.00  0.00     0.009 A 
ATOM     20  C   UNL     1      -2.959  25.282 -16.402  1.00  0.00     0.009 A 
ATOM     21  C   UNL     1      -2.342  27.920 -16.425  1.00  0.00     0.001 A 
ATOM     22  C   UNL     1      -2.171  25.750 -17.428  1.00  0.00     0.001 A 
ATOM     23  C   UNL     1      -1.859  27.106 -17.430  1.00  0.00     0.000 A 
ENDBRANCH   8  18
ENDBRANCH   3   8
ENDBRANCH   1   2
BRANCH   1  24
ATOM     24  C   UNL     1      -1.844  21.919  -9.332  1.00  0.00     0.290 C 
BRANCH  24  25
ATOM     25  C   UNL     1      -3.070  21.072  -9.555  1.00  0.00     0.303 C 
BRANCH  25  26
ATOM     26  N   UNL     1      -3.895  20.967  -8.391  1.00  0.00    -0.337 N 
ATOM     27  C   UNL     1      -4.082  19.605  -7.938  1.00  0.00     0.332 C 
ATOM     28  C   UNL     1      -5.213  21.537  -8.582  1.00  0.00     0.332 C 
ATOM     29  H   UNL     1      -3.475  21.496  -7.569  1.00  0.00     0.347 HD
ENDBRANCH  25  26
ENDBRANCH  24  25
ENDBRANCH   1  24
TORSDOF 8
ENDMDL
MODEL 6
REMARK VINA RESULT:      -6.9      0.822      1.699
REMARK SMILES CC/C(=C(\c1ccccc1)c1ccc(OCC[NH+](C)C)cc1)c1ccccc1
REMARK SMILES IDX 15 1 14 2 11 3 12 4 22 5 13 6 21 7 4 8 3 9 2 10 1 11 23 12
REMARK SMILES IDX 24 13 28 14 25 15 27 16 26 17 5 18 6 19 10 20 7 21 9 22 8 23
REMARK SMILES IDX 16 24 17 25 18 26 19 27 20 28
REMARK H PARENT 18 29
ROOT
ATOM      1  O   UNL     1      -6.220  22.943 -15.115  1.00  0.00    -0.488 OA
ENDROOT
BRANCH   1   2
ATOM      2  C   UNL     1      -5.545  22.823 -13.914  1.00  0.00     0.119 A 
ATOM      3  C   UNL     1      -4.248  22.612 -11.377  1.00  0.00    -0.017 A 
ATOM      4  C   UNL     1      -3.631  22.211 -12.546  1.00  0.00     0.012 A 
ATOM      5  C   UNL     1      -5.534  23.125 -11.515  1.00  0.00     0.012 A 
ATOM      6  C   UNL     1      -4.274  22.320 -13.769  1.00  0.00     0.047 A 
ATOM      7  C   UNL     1      -6.168  23.231 -12.724  1.00  0.00     0.047 A 
BRANCH   3   8
ATOM      8  C   UNL     1      -3.591  22.533 -10.085  1.00  0.00    -0.007 C 
ATOM      9  C   UNL     1      -2.607  23.324  -9.743  1.00  0.00    -0.033 C 
BRANCH   9  10
ATOM     10  C   UNL     1      -1.867  23.256  -8.453  1.00  0.00     0.033 C 
ATOM     11  C   UNL     1      -0.578  22.519  -8.671  1.00  0.00     0.009 C 
ENDBRANCH   9  10
BRANCH   9  12
ATOM     12  C   UNL     1      -2.183  24.431 -10.620  1.00  0.00    -0.022 A 
ATOM     13  C   UNL     1      -2.893  25.601 -10.709  1.00  0.00     0.008 A 
ATOM     14  C   UNL     1      -1.055  24.267 -11.365  1.00  0.00     0.008 A 
ATOM     15  C   UNL     1      -2.461  26.597 -11.548  1.00  0.00     0.001 A 
ATOM     16  C   UNL     1      -0.580  25.254 -12.233  1.00  0.00     0.001 A 
ATOM     17  C   UNL     1      -1.312  26.417 -12.300  1.00  0.00     0.000 A 
ENDBRANCH   9  12
BRANCH   8  18
ATOM     18  C   UNL     1      -4.030  21.506  -9.163  1.00  0.00    -0.018 A 
ATOM     19  C   UNL     1      -3.249  20.411  -8.852  1.00  0.00     0.009 A 
ATOM     20  C   UNL     1      -5.300  21.589  -8.600  1.00  0.00     0.009 A 
ATOM     21  C   UNL     1      -3.745  19.450  -8.008  1.00  0.00     0.001 A 
ATOM     22  C   UNL     1      -5.812  20.635  -7.751  1.00  0.00     0.001 A 
ATOM     23  C   UNL     1      -5.006  19.541  -7.453  1.00  0.00     0.000 A 
ENDBRANCH   8  18
ENDBRANCH   3   8
ENDBRANCH   1   2
BRANCH   1  24
ATOM     24  C   UNL     1      -6.310  24.042 -15.951  1.00  0.00     0.290 C 
BRANCH  24  25
ATOM     25  C   UNL     1      -5.356  24.057 -17.117  1.00  0.00     0.303 C 
BRANCH  25  26
ATOM     26  N   UNL     1      -4.034  24.467 -16.752  1.00  0.00    -0.337 N 
ATOM     27  C   UNL     1      -3.643  25.732 -17.334  1.00  0.00     0.332 C 
ATOM     28  C   UNL     1      -3.023  23.497 -17.119  1.00  0.00     0.332 C 
ATOM     29  H   UNL     1      -3.943  24.586 -15.699  1.00  0.00     0.347 HD
ENDBRANCH  25  26
ENDBRANCH  24  25
ENDBRANCH   1  24
TORSDOF 8
ENDMDL
MODEL 7
REMARK VINA RESULT:      -6.7      3.571      5.485
REMARK SMILES CC/C(=C(\c1ccccc1)c1ccc(OCC[NH+](C)C)cc1)c1ccccc1
REMARK SMILES IDX 15 1 14 2 11 3 12 4 22 5 13 6 21 7 4 8 3 9 2 10 1 11 23 12
REMARK SMILES IDX 24 13 28 14 25 15 27 16 26 17 5 18 6 19 10 20 7 21 9 22 8 23
REMARK SMILES IDX 16 24 17 25 18 26 19 27 20 28
REMARK H PARENT 18 29
ROOT
ATOM      1  O   UNL     1      -1.487  28.956 -13.773  1.00  0.00    -0.488 OA
ENDROOT
BRANCH   1   2
ATOM      2  C   UNL     1      -1.673  27.698 -13.230  1.00  0.00     0.119 A 
ATOM      3  C   UNL     1      -2.143  25.081 -12.186  1.00  0.00    -0.017 A 
ATOM      4  C   UNL     1      -1.110  25.873 -11.726  1.00  0.00     0.012 A 
ATOM      5  C   UNL     1      -2.937  25.638 -13.183  1.00  0.00     0.012 A 
ATOM      6  C   UNL     1      -0.894  27.141 -12.243  1.00  0.00     0.047 A 
ATOM      7  C   UNL     1      -2.722  26.891 -13.693  1.00  0.00     0.047 A 
BRANCH   3   8
ATOM      8  C   UNL     1      -2.408  23.759 -11.646  1.00  0.00    -0.007 C 
ATOM      9  C   UNL     1      -2.178  22.662 -12.320  1.00  0.00    -0.033 C 
BRANCH   9  10
ATOM     10  C   UNL     1      -2.474  21.286 -11.835  1.00  0.00     0.033 C 
ATOM     11  C   UNL     1      -1.323  20.808 -10.999  1.00  0.00     0.009 C 
ENDBRANCH   9  10
BRANCH   9  12
ATOM     12  C   UNL     1      -1.520  22.705 -13.638  1.00  0.00    -0.022 A 
ATOM     13  C   UNL     1      -0.181  22.969 -13.774  1.00  0.00     0.008 A 
ATOM     14  C   UNL     1      -2.281  22.483 -14.745  1.00  0.00     0.008 A 
ATOM     15  C   UNL     1       0.381  23.007 -15.025  1.00  0.00     0.001 A 
ATOM     16  C   UNL     1      -1.751  22.513 -16.038  1.00  0.00     0.001 A 
ATOM     17  C   UNL     1      -0.405  22.780 -16.143  1.00  0.00     0.000 A 
ENDBRANCH   9  12
BRANCH   8  18
ATOM     18  C   UNL     1      -2.985  23.671 -10.320  1.00  0.00    -0.018 A 
ATOM     19  C   UNL     1      -2.253  23.933  -9.178  1.00  0.00     0.009 A 
ATOM     20  C   UNL     1      -4.307  23.263 -10.174  1.00  0.00     0.009 A 
ATOM     21  C   UNL     1      -2.847  23.785  -7.951  1.00  0.00     0.001 A 
ATOM     22  C   UNL     1      -4.919  23.111  -8.951  1.00  0.00     0.001 A 
ATOM     23  C   UNL     1      -4.161  23.381  -7.816  1.00  0.00     0.000 A 
ENDBRANCH   8  18
ENDBRANCH   3   8
ENDBRANCH   1   2
BRANCH   1  24
ATOM     24  C   UNL     1      -0.956  30.086 -13.177  1.00  0.00     0.290 C 
BRANCH  24  25
ATOM     25  C   UNL     1      -1.720  31.365 -13.402  1.00  0.00     0.303 C 
BRANCH  25  26
ATOM     26  N   UNL     1      -0.958  32.355 -14.101  1.00  0.00    -0.337 N 
ATOM     27  C   UNL     1      -1.771  33.268 -14.874  1.00  0.00     0.332 C 
ATOM     28  C   UNL     1       0.015  31.779 -15.008  1.00  0.00     0.332 C 
ATOM     29  H   UNL     1      -0.395  32.957 -13.429  1.00  0.00     0.347 HD
ENDBRANCH  25  26
ENDBRANCH  24  25
ENDBRANCH   1  24
TORSDOF 8
ENDMDL
MODEL 8
REMARK VINA RESULT:      -6.6      3.196      5.539
REMARK SMILES CC/C(=C(\c1ccccc1)c1ccc(OCC[NH+](C)C)cc1)c1ccccc1
REMARK SMILES IDX 15 1 14 2 11 3 12 4 22 5 13 6 21 7 4 8 3 9 2 10 1 11 23 12
REMARK SMILES IDX 24 13 28 14 25 15 27 16 26 17 5 18 6 19 10 20 7 21 9 22 8 23
REMARK SMILES IDX 16 24 17 25 18 26 19 27 20 28
REMARK H PARENT 18 29
ROOT
ATOM      1  O   UNL     1      -1.677  28.074 -15.940  1.00  0.00    -0.488 OA
ENDROOT
BRANCH   1   2
ATOM      2  C   UNL     1      -2.131  27.161 -15.007  1.00  0.00     0.119 A 
ATOM      3  C   UNL     1      -3.041  25.188 -13.153  1.00  0.00    -0.017 A 
ATOM      4  C   UNL     1      -3.020  26.532 -12.833  1.00  0.00     0.012 A 
ATOM      5  C   UNL     1      -2.594  24.860 -14.429  1.00  0.00     0.012 A 
ATOM      6  C   UNL     1      -2.575  27.477 -13.744  1.00  0.00     0.047 A 
ATOM      7  C   UNL     1      -2.155  25.795 -15.327  1.00  0.00     0.047 A 
BRANCH   3   8
ATOM      8  C   UNL     1      -3.524  24.178 -12.228  1.00  0.00    -0.007 C 
ATOM      9  C   UNL     1      -4.627  23.505 -12.429  1.00  0.00    -0.033 C 
BRANCH   9  10
ATOM     10  C   UNL     1      -5.192  22.495 -11.494  1.00  0.00     0.033 C 
ATOM     11  C   UNL     1      -6.488  23.014 -10.943  1.00  0.00     0.009 C 
ENDBRANCH   9  10
BRANCH   9  12
ATOM     12  C   UNL     1      -5.390  23.656 -13.682  1.00  0.00    -0.022 A 
ATOM     13  C   UNL     1      -6.050  24.816 -13.996  1.00  0.00     0.008 A 
ATOM     14  C   UNL     1      -5.439  22.597 -14.537  1.00  0.00     0.008 A 
ATOM     15  C   UNL     1      -6.755  24.901 -15.170  1.00  0.00     0.001 A 
ATOM     16  C   UNL     1      -6.145  22.640 -15.743  1.00  0.00     0.001 A 
ATOM     17  C   UNL     1      -6.797  23.817 -16.031  1.00  0.00     0.000 A 
ENDBRANCH   9  12
BRANCH   8  18
ATOM     18  C   UNL     1      -2.760  23.945 -11.019  1.00  0.00    -0.018 A 
ATOM     19  C   UNL     1      -1.651  23.123 -10.994  1.00  0.00     0.009 A 
ATOM     20  C   UNL     1      -3.175  24.525  -9.824  1.00  0.00     0.009 A 
ATOM     21  C   UNL     1      -1.002  22.907  -9.806  1.00  0.00     0.001 A 
ATOM     22  C   UNL     1      -2.535  24.320  -8.624  1.00  0.00     0.001 A 
ATOM     23  C   UNL     1      -1.420  23.488  -8.625  1.00  0.00     0.000 A 
ENDBRANCH   8  18
ENDBRANCH   3   8
ENDBRANCH   1   2
BRANCH   1  24
ATOM     24  C   UNL     1      -2.148  29.348 -16.206  1.00  0.00     0.290 C 
BRANCH  24  25
ATOM     25  C   UNL     1      -1.568  30.450 -15.359  1.00  0.00     0.303 C 
BRANCH  25  26
ATOM     26  N   UNL     1      -0.760  31.364 -16.109  1.00  0.00    -0.337 N 
ATOM     27  C   UNL     1       0.315  31.949 -15.336  1.00  0.00     0.332 C 
ATOM     28  C   UNL     1      -1.523  32.458 -16.674  1.00  0.00     0.332 C 
ATOM     29  H   UNL     1      -0.299  30.882 -16.938  1.00  0.00     0.347 HD
ENDBRANCH  25  26
ENDBRANCH  24  25
ENDBRANCH   1  24
TORSDOF 8
ENDMDL
MODEL 9
REMARK VINA RESULT:      -6.5      3.354      5.595
REMARK SMILES CC/C(=C(\c1ccccc1)c1ccc(OCC[NH+](C)C)cc1)c1ccccc1
REMARK SMILES IDX 15 1 14 2 11 3 12 4 22 5 13 6 21 7 4 8 3 9 2 10 1 11 23 12
REMARK SMILES IDX 24 13 28 14 25 15 27 16 26 17 5 18 6 19 10 20 7 21 9 22 8 23
REMARK SMILES IDX 16 24 17 25 18 26 19 27 20 28
REMARK H PARENT 18 29
ROOT
ATOM      1  O   UNL     1      -0.232  22.493 -15.421  1.00  0.00    -0.488 OA
ENDROOT
BRANCH   1   2
ATOM      2  C   UNL     1      -1.262  22.876 -14.581  1.00  0.00     0.119 A 
ATOM      3  C   UNL     1      -3.393  23.558 -12.806  1.00  0.00    -0.017 A 
ATOM      4  C   UNL     1      -2.773  24.506 -13.596  1.00  0.00     0.012 A 
ATOM      5  C   UNL     1      -2.917  22.257 -12.931  1.00  0.00     0.012 A 
ATOM      6  C   UNL     1      -1.740  24.159 -14.453  1.00  0.00     0.047 A 
ATOM      7  C   UNL     1      -1.896  21.917 -13.778  1.00  0.00     0.047 A 
BRANCH   3   8
ATOM      8  C   UNL     1      -4.494  23.887 -11.918  1.00  0.00    -0.007 C 
ATOM      9  C   UNL     1      -5.667  24.263 -12.356  1.00  0.00    -0.033 C 
BRANCH   9  10
ATOM     10  C   UNL     1      -6.814  24.657 -11.492  1.00  0.00     0.033 C 
ATOM     11  C   UNL     1      -7.913  23.648 -11.653  1.00  0.00     0.009 C 
ENDBRANCH   9  10
BRANCH   9  12
ATOM     12  C   UNL     1      -5.976  24.260 -13.797  1.00  0.00    -0.022 A 
ATOM     13  C   UNL     1      -6.065  23.098 -14.520  1.00  0.00     0.008 A 
ATOM     14  C   UNL     1      -6.165  25.458 -14.417  1.00  0.00     0.008 A 
ATOM     15  C   UNL     1      -6.345  23.151 -15.862  1.00  0.00     0.001 A 
ATOM     16  C   UNL     1      -6.451  25.558 -15.782  1.00  0.00     0.001 A 
ATOM     17  C   UNL     1      -6.535  24.376 -16.480  1.00  0.00     0.000 A 
ENDBRANCH   9  12
BRANCH   8  18
ATOM     18  C   UNL     1      -4.254  23.828 -10.490  1.00  0.00    -0.018 A 
ATOM     19  C   UNL     1      -3.542  24.803  -9.821  1.00  0.00     0.009 A 
ATOM     20  C   UNL     1      -4.710  22.731  -9.764  1.00  0.00     0.009 A 
ATOM     21  C   UNL     1      -3.309  24.662  -8.477  1.00  0.00     0.001 A 
ATOM     22  C   UNL     1      -4.487  22.574  -8.416  1.00  0.00     0.001 A 
ATOM     23  C   UNL     1      -3.767  23.571  -7.763  1.00  0.00     0.000 A 
ENDBRANCH   8  18
ENDBRANCH   3   8
ENDBRANCH   1   2
BRANCH   1  24
ATOM     24  C   UNL     1      -0.249  21.558 -16.440  1.00  0.00     0.290 C 
BRANCH  24  25
ATOM     25  C   UNL     1       0.761  20.445 -16.325  1.00  0.00     0.303 C 
BRANCH  25  26
ATOM     26  N   UNL     1       0.229  19.271 -15.702  1.00  0.00    -0.337 N 
ATOM     27  C   UNL     1       0.566  19.161 -14.300  1.00  0.00     0.332 C 
ATOM     28  C   UNL     1       0.665  18.047 -16.343  1.00  0.00     0.332 C 
ATOM     29  H   UNL     1      -0.834  19.254 -15.752  1.00  0.00     0.347 HD
ENDBRANCH  25  26
ENDBRANCH  24  25
ENDBRANCH   1  24
TORSDOF 8
ENDMDL
