MODEL 1
REMARK VINA RESULT:      -5.9      0.000      0.000
REMARK SMILES O=C1Nc2ccc(I)cc2/C1=C/c1cc(Br)c(O)c(Br)c1
REMARK SMILES IDX 13 1 14 2 15 3 16 4 17 5 19 6 20 7 21 8 12 9 1 10 2 11 3 12
REMARK SMILES IDX 11 13 4 14 10 15 5 16 9 17 6 18 7 19 8 21 18 22
REMARK H PARENT 3 20 18 23
ROOT
ATOM      1  C   UNL     1     -18.284  -2.961  18.602  1.00  0.00    -0.022 A 
ATOM      2  C   UNL     1     -18.384  -2.125  17.534  1.00  0.00     0.027 A 
ATOM      3  C   UNL     1     -17.812  -0.868  17.614  1.00  0.00     0.061 A 
ATOM      4  Br  UNL     1     -17.953   0.306  16.109  1.00  0.00    -0.047 Br
ATOM      5  C   UNL     1     -17.144  -0.443  18.750  1.00  0.00     0.143 A 
ATOM      6  C   UNL     1     -17.064  -1.311  19.805  1.00  0.00     0.061 A 
ATOM      7  Br  UNL     1     -16.159  -0.794  21.409  1.00  0.00    -0.047 Br
ATOM      8  C   UNL     1     -17.623  -2.560  19.746  1.00  0.00     0.027 A 
ENDROOT
BRANCH   1   9
ATOM      9  C   UNL     1     -18.817  -4.312  18.607  1.00  0.00     0.022 C 
ATOM     10  O   UNL     1     -20.775  -2.539  20.087  1.00  0.00    -0.269 OA
ATOM     11  C   UNL     1     -20.879  -3.775  19.906  1.00  0.00     0.256 C 
ATOM     12  N   UNL     1     -21.951  -4.613  20.372  1.00  0.00    -0.321 N 
ATOM     13  C   UNL     1     -19.955  -4.639  19.188  1.00  0.00     0.050 C 
ATOM     14  C   UNL     1     -21.709  -5.969  19.959  1.00  0.00     0.049 A 
ATOM     15  C   UNL     1     -20.516  -5.993  19.249  1.00  0.00     0.012 A 
ATOM     16  C   UNL     1     -22.458  -7.112  20.173  1.00  0.00     0.028 A 
ATOM     17  C   UNL     1     -20.114  -7.231  18.763  1.00  0.00     0.025 A 
ATOM     18  C   UNL     1     -22.005  -8.317  19.663  1.00  0.00     0.017 A 
ATOM     19  C   UNL     1     -20.827  -8.392  18.952  1.00  0.00     0.014 A 
ATOM     20  H   UNL     1     -22.746  -4.253  20.914  1.00  0.00     0.170 HD
ATOM     21  I   UNL     1     -20.149 -10.242  18.178  1.00  0.00    -0.044 I 
ENDBRANCH   1   9
BRANCH   5  22
ATOM     22  O   UNL     1     -16.571   0.823  18.819  1.00  0.00    -0.506 OA
ATOM     23  H   UNL     1     -15.811   1.067  18.195  1.00  0.00     0.293 HD
ENDBRANCH   5  22
TORSDOF 2
ENDMDL
MODEL 2
REMARK VINA RESULT:      -5.7      5.479      7.935
REMARK SMILES O=C1Nc2ccc(I)cc2/C1=C/c1cc(Br)c(O)c(Br)c1
REMARK SMILES IDX 13 1 14 2 15 3 16 4 17 5 19 6 20 7 21 8 12 9 1 10 2 11 3 12
REMARK SMILES IDX 11 13 4 14 10 15 5 16 9 17 6 18 7 19 8 21 18 22
REMARK H PARENT 3 20 18 23
ROOT
ATOM      1  C   UNL     1     -25.138  -5.259  23.322  1.00  0.00    -0.022 A 
ATOM      2  C   UNL     1     -24.931  -5.027  24.646  1.00  0.00     0.027 A 
ATOM      3  C   UNL     1     -25.841  -4.246  25.337  1.00  0.00     0.061 A 
ATOM      4  Br  UNL     1     -25.547  -3.921  27.200  1.00  0.00    -0.047 Br
ATOM      5  C   UNL     1     -26.950  -3.698  24.715  1.00  0.00     0.143 A 
ATOM      6  C   UNL     1     -27.125  -3.953  23.382  1.00  0.00     0.061 A 
ATOM      7  Br  UNL     1     -28.633  -3.229  22.454  1.00  0.00    -0.047 Br
ATOM      8  C   UNL     1     -26.237  -4.724  22.680  1.00  0.00     0.027 A 
ENDROOT
BRANCH   1   9
ATOM      9  C   UNL     1     -24.264  -6.094  22.515  1.00  0.00     0.022 C 
ATOM     10  O   UNL     1     -23.443  -3.210  22.088  1.00  0.00    -0.269 OA
ATOM     11  C   UNL     1     -22.938  -4.218  21.541  1.00  0.00     0.256 C 
ATOM     12  N   UNL     1     -21.862  -4.213  20.586  1.00  0.00    -0.321 N 
ATOM     13  C   UNL     1     -23.311  -5.609  21.743  1.00  0.00     0.050 C 
ATOM     14  C   UNL     1     -21.565  -5.565  20.197  1.00  0.00     0.049 A 
ATOM     15  C   UNL     1     -22.429  -6.407  20.886  1.00  0.00     0.012 A 
ATOM     16  C   UNL     1     -20.619  -6.051  19.313  1.00  0.00     0.028 A 
ATOM     17  C   UNL     1     -22.290  -7.768  20.638  1.00  0.00     0.025 A 
ATOM     18  C   UNL     1     -20.529  -7.417  19.108  1.00  0.00     0.017 A 
ATOM     19  C   UNL     1     -21.364  -8.293  19.768  1.00  0.00     0.014 A 
ATOM     20  H   UNL     1     -21.407  -3.352  20.262  1.00  0.00     0.170 HD
ATOM     21  I   UNL     1     -21.211 -10.380  19.444  1.00  0.00    -0.044 I 
ENDBRANCH   1   9
BRANCH   5  22
ATOM     22  O   UNL     1     -27.859  -2.916  25.420  1.00  0.00    -0.506 OA
ATOM     23  H   UNL     1     -27.776  -2.831  26.426  1.00  0.00     0.293 HD
ENDBRANCH   5  22
TORSDOF 2
ENDMDL
MODEL 3
REMARK VINA RESULT:      -5.7      5.481      7.689
REMARK SMILES O=C1Nc2ccc(I)cc2/C1=C/c1cc(Br)c(O)c(Br)c1
REMARK SMILES IDX 13 1 14 2 15 3 16 4 17 5 19 6 20 7 21 8 12 9 1 10 2 11 3 12
REMARK SMILES IDX 11 13 4 14 10 15 5 16 9 17 6 18 7 19 8 21 18 22
REMARK H PARENT 3 20 18 23
ROOT
ATOM      1  C   UNL     1     -25.262  -5.273  23.267  1.00  0.00    -0.022 A 
ATOM      2  C   UNL     1     -26.360  -4.663  22.745  1.00  0.00     0.027 A 
ATOM      3  C   UNL     1     -27.134  -3.865  23.569  1.00  0.00     0.061 A 
ATOM      4  Br  UNL     1     -28.678  -3.007  22.831  1.00  0.00    -0.047 Br
ATOM      5  C   UNL     1     -26.820  -3.675  24.904  1.00  0.00     0.143 A 
ATOM      6  C   UNL     1     -25.709  -4.306  25.393  1.00  0.00     0.061 A 
ATOM      7  Br  UNL     1     -25.211  -4.092  27.228  1.00  0.00    -0.047 Br
ATOM      8  C   UNL     1     -24.928  -5.099  24.595  1.00  0.00     0.027 A 
ENDROOT
BRANCH   1   9
ATOM      9  C   UNL     1     -24.363  -6.101  22.480  1.00  0.00     0.022 C 
ATOM     10  O   UNL     1     -23.523  -3.214  22.115  1.00  0.00    -0.269 OA
ATOM     11  C   UNL     1     -23.001  -4.217  21.573  1.00  0.00     0.256 C 
ATOM     12  N   UNL     1     -21.893  -4.204  20.656  1.00  0.00    -0.321 N 
ATOM     13  C   UNL     1     -23.384  -5.609  21.746  1.00  0.00     0.050 C 
ATOM     14  C   UNL     1     -21.586  -5.552  20.261  1.00  0.00     0.049 A 
ATOM     15  C   UNL     1     -22.475  -6.400  20.910  1.00  0.00     0.012 A 
ATOM     16  C   UNL     1     -20.611  -6.029  19.403  1.00  0.00     0.028 A 
ATOM     17  C   UNL     1     -22.330  -7.758  20.651  1.00  0.00     0.025 A 
ATOM     18  C   UNL     1     -20.517  -7.393  19.185  1.00  0.00     0.017 A 
ATOM     19  C   UNL     1     -21.376  -8.275  19.807  1.00  0.00     0.014 A 
ATOM     20  H   UNL     1     -21.425  -3.339  20.357  1.00  0.00     0.170 HD
ATOM     21  I   UNL     1     -21.216 -10.358  19.464  1.00  0.00    -0.044 I 
ENDBRANCH   1   9
BRANCH   5  22
ATOM     22  O   UNL     1     -27.605  -2.870  25.721  1.00  0.00    -0.506 OA
ATOM     23  H   UNL     1     -27.543  -1.861  25.645  1.00  0.00     0.293 HD
ENDBRANCH   5  22
TORSDOF 2
ENDMDL
MODEL 4
REMARK VINA RESULT:      -5.7      6.150      7.755
REMARK SMILES O=C1Nc2ccc(I)cc2/C1=C/c1cc(Br)c(O)c(Br)c1
REMARK SMILES IDX 13 1 14 2 15 3 16 4 17 5 19 6 20 7 21 8 12 9 1 10 2 11 3 12
REMARK SMILES IDX 11 13 4 14 10 15 5 16 9 17 6 18 7 19 8 21 18 22
REMARK H PARENT 3 20 18 23
ROOT
ATOM      1  C   UNL     1     -25.049  -5.264  23.689  1.00  0.00    -0.022 A 
ATOM      2  C   UNL     1     -24.475  -4.610  24.735  1.00  0.00     0.027 A 
ATOM      3  C   UNL     1     -24.929  -3.344  25.060  1.00  0.00     0.061 A 
ATOM      4  Br  UNL     1     -24.121  -2.427  26.533  1.00  0.00    -0.047 Br
ATOM      5  C   UNL     1     -25.948  -2.731  24.350  1.00  0.00     0.143 A 
ATOM      6  C   UNL     1     -26.500  -3.419  23.305  1.00  0.00     0.061 A 
ATOM      7  Br  UNL     1     -27.910  -2.637  22.276  1.00  0.00    -0.047 Br
ATOM      8  C   UNL     1     -26.066  -4.673  22.966  1.00  0.00     0.027 A 
ENDROOT
BRANCH   1   9
ATOM      9  C   UNL     1     -24.672  -6.609  23.289  1.00  0.00     0.022 C 
ATOM     10  O   UNL     1     -23.067  -4.660  21.616  1.00  0.00    -0.269 OA
ATOM     11  C   UNL     1     -23.035  -5.911  21.540  1.00  0.00     0.256 C 
ATOM     12  N   UNL     1     -22.229  -6.684  20.633  1.00  0.00    -0.321 N 
ATOM     13  C   UNL     1     -23.788  -6.861  22.343  1.00  0.00     0.050 C 
ATOM     14  C   UNL     1     -22.468  -8.084  20.859  1.00  0.00     0.049 A 
ATOM     15  C   UNL     1     -23.401  -8.198  21.882  1.00  0.00     0.012 A 
ATOM     16  C   UNL     1     -21.926  -9.193  20.234  1.00  0.00     0.028 A 
ATOM     17  C   UNL     1     -23.761  -9.491  22.244  1.00  0.00     0.025 A 
ATOM     18  C   UNL     1     -22.324 -10.455  20.640  1.00  0.00     0.017 A 
ATOM     19  C   UNL     1     -23.247 -10.619  21.651  1.00  0.00     0.014 A 
ATOM     20  H   UNL     1     -21.594  -6.257  19.947  1.00  0.00     0.170 HD
ATOM     21  I   UNL     1     -23.844 -12.557  22.261  1.00  0.00    -0.044 I 
ENDBRANCH   1   9
BRANCH   5  22
ATOM     22  O   UNL     1     -26.397  -1.459  24.688  1.00  0.00    -0.506 OA
ATOM     23  H   UNL     1     -27.310  -1.147  24.377  1.00  0.00     0.293 HD
ENDBRANCH   5  22
TORSDOF 2
ENDMDL
MODEL 5
REMARK VINA RESULT:      -5.7      6.056      7.353
REMARK SMILES O=C1Nc2ccc(I)cc2/C1=C/c1cc(Br)c(O)c(Br)c1
REMARK SMILES IDX 13 1 14 2 15 3 16 4 17 5 19 6 20 7 21 8 12 9 1 10 2 11 3 12
REMARK SMILES IDX 11 13 4 14 10 15 5 16 9 17 6 18 7 19 8 21 18 22
REMARK H PARENT 3 20 18 23
ROOT
ATOM      1  C   UNL     1     -25.062  -5.233  23.536  1.00  0.00    -0.022 A 
ATOM      2  C   UNL     1     -25.975  -4.509  22.835  1.00  0.00     0.027 A 
ATOM      3  C   UNL     1     -26.253  -3.215  23.239  1.00  0.00     0.061 A 
ATOM      4  Br  UNL     1     -27.537  -2.198  22.249  1.00  0.00    -0.047 Br
ATOM      5  C   UNL     1     -25.627  -2.644  24.334  1.00  0.00     0.143 A 
ATOM      6  C   UNL     1     -24.715  -3.403  25.015  1.00  0.00     0.061 A 
ATOM      7  Br  UNL     1     -23.812  -2.684  26.540  1.00  0.00    -0.047 Br
ATOM      8  C   UNL     1     -24.425  -4.686  24.632  1.00  0.00     0.027 A 
ENDROOT
BRANCH   1   9
ATOM      9  C   UNL     1     -24.672  -6.585  23.174  1.00  0.00     0.022 C 
ATOM     10  O   UNL     1     -23.010  -4.668  21.521  1.00  0.00    -0.269 OA
ATOM     11  C   UNL     1     -22.975  -5.920  21.470  1.00  0.00     0.256 C 
ATOM     12  N   UNL     1     -22.139  -6.709  20.605  1.00  0.00    -0.321 N 
ATOM     13  C   UNL     1     -23.757  -6.855  22.263  1.00  0.00     0.050 C 
ATOM     14  C   UNL     1     -22.387  -8.105  20.848  1.00  0.00     0.049 A 
ATOM     15  C   UNL     1     -23.355  -8.200  21.840  1.00  0.00     0.012 A 
ATOM     16  C   UNL     1     -21.825  -9.225  20.262  1.00  0.00     0.028 A 
ATOM     17  C   UNL     1     -23.728  -9.486  22.214  1.00  0.00     0.025 A 
ATOM     18  C   UNL     1     -22.238 -10.479  20.678  1.00  0.00     0.017 A 
ATOM     19  C   UNL     1     -23.195 -10.625  21.659  1.00  0.00     0.014 A 
ATOM     20  H   UNL     1     -21.481  -6.295  19.933  1.00  0.00     0.170 HD
ATOM     21  I   UNL     1     -23.814 -12.551  22.284  1.00  0.00    -0.044 I 
ENDBRANCH   1   9
BRANCH   5  22
ATOM     22  O   UNL     1     -25.914  -1.342  24.730  1.00  0.00    -0.506 OA
ATOM     23  H   UNL     1     -25.513  -0.561  24.223  1.00  0.00     0.293 HD
ENDBRANCH   5  22
TORSDOF 2
ENDMDL
MODEL 6
REMARK VINA RESULT:      -5.6      7.268      9.015
REMARK SMILES O=C1Nc2ccc(I)cc2/C1=C/c1cc(Br)c(O)c(Br)c1
REMARK SMILES IDX 13 1 14 2 15 3 16 4 17 5 19 6 20 7 21 8 12 9 1 10 2 11 3 12
REMARK SMILES IDX 11 13 4 14 10 15 5 16 9 17 6 18 7 19 8 21 18 22
REMARK H PARENT 3 20 18 23
ROOT
ATOM      1  C   UNL     1     -26.610  -3.190  23.221  1.00  0.00    -0.022 A 
ATOM      2  C   UNL     1     -26.162  -2.007  23.720  1.00  0.00     0.027 A 
ATOM      3  C   UNL     1     -27.082  -1.102  24.219  1.00  0.00     0.061 A 
ATOM      4  Br  UNL     1     -26.448   0.562  24.923  1.00  0.00    -0.047 Br
ATOM      5  C   UNL     1     -28.440  -1.371  24.222  1.00  0.00     0.143 A 
ATOM      6  C   UNL     1     -28.854  -2.570  23.711  1.00  0.00     0.061 A 
ATOM      7  Br  UNL     1     -30.715  -3.012  23.679  1.00  0.00    -0.047 Br
ATOM      8  C   UNL     1     -27.960  -3.480  23.213  1.00  0.00     0.027 A 
ENDROOT
BRANCH   1   9
ATOM      9  C   UNL     1     -25.726  -4.222  22.707  1.00  0.00     0.022 C 
ATOM     10  O   UNL     1     -26.209  -4.792  25.642  1.00  0.00    -0.269 OA
ATOM     11  C   UNL     1     -25.478  -5.451  24.865  1.00  0.00     0.256 C 
ATOM     12  N   UNL     1     -24.708  -6.615  25.210  1.00  0.00    -0.321 N 
ATOM     13  C   UNL     1     -25.245  -5.198  23.452  1.00  0.00     0.050 C 
ATOM     14  C   UNL     1     -24.007  -7.084  24.046  1.00  0.00     0.049 A 
ATOM     15  C   UNL     1     -24.324  -6.241  22.988  1.00  0.00     0.012 A 
ATOM     16  C   UNL     1     -23.153  -8.162  23.893  1.00  0.00     0.028 A 
ATOM     17  C   UNL     1     -23.735  -6.540  21.765  1.00  0.00     0.025 A 
ATOM     18  C   UNL     1     -22.598  -8.409  22.649  1.00  0.00     0.017 A 
ATOM     19  C   UNL     1     -22.882  -7.600  21.569  1.00  0.00     0.014 A 
ATOM     20  H   UNL     1     -24.691  -7.014  26.157  1.00  0.00     0.170 HD
ATOM     21  I   UNL     1     -22.025  -7.993  19.674  1.00  0.00    -0.044 I 
ENDBRANCH   1   9
BRANCH   5  22
ATOM     22  O   UNL     1     -29.355  -0.453  24.728  1.00  0.00    -0.506 OA
ATOM     23  H   UNL     1     -29.038   0.459  25.034  1.00  0.00     0.293 HD
ENDBRANCH   5  22
TORSDOF 2
ENDMDL
MODEL 7
REMARK VINA RESULT:      -5.6      7.230      9.040
REMARK SMILES O=C1Nc2ccc(I)cc2/C1=C/c1cc(Br)c(O)c(Br)c1
REMARK SMILES IDX 13 1 14 2 15 3 16 4 17 5 19 6 20 7 21 8 12 9 1 10 2 11 3 12
REMARK SMILES IDX 11 13 4 14 10 15 5 16 9 17 6 18 7 19 8 21 18 22
REMARK H PARENT 3 20 18 23
ROOT
ATOM      1  C   UNL     1     -26.878  -3.355  23.244  1.00  0.00    -0.022 A 
ATOM      2  C   UNL     1     -28.219  -3.581  23.276  1.00  0.00     0.027 A 
ATOM      3  C   UNL     1     -29.051  -2.594  23.775  1.00  0.00     0.061 A 
ATOM      4  Br  UNL     1     -30.937  -2.916  23.817  1.00  0.00    -0.047 Br
ATOM      5  C   UNL     1     -28.553  -1.389  24.240  1.00  0.00     0.143 A 
ATOM      6  C   UNL     1     -27.199  -1.198  24.193  1.00  0.00     0.061 A 
ATOM      7  Br  UNL     1     -26.437   0.442  24.819  1.00  0.00    -0.047 Br
ATOM      8  C   UNL     1     -26.358  -2.161  23.702  1.00  0.00     0.027 A 
ENDROOT
BRANCH   1   9
ATOM      9  C   UNL     1     -25.923  -4.309  22.707  1.00  0.00     0.022 C 
ATOM     10  O   UNL     1     -26.372  -4.989  25.624  1.00  0.00    -0.269 OA
ATOM     11  C   UNL     1     -25.595  -5.574  24.833  1.00  0.00     0.256 C 
ATOM     12  N   UNL     1     -24.746  -6.691  25.151  1.00  0.00    -0.321 N 
ATOM     13  C   UNL     1     -25.376  -5.269  23.428  1.00  0.00     0.050 C 
ATOM     14  C   UNL     1     -24.012  -7.079  23.977  1.00  0.00     0.049 A 
ATOM     15  C   UNL     1     -24.384  -6.232  22.941  1.00  0.00     0.012 A 
ATOM     16  C   UNL     1     -23.085  -8.091  23.800  1.00  0.00     0.028 A 
ATOM     17  C   UNL     1     -23.773  -6.457  21.713  1.00  0.00     0.025 A 
ATOM     18  C   UNL     1     -22.510  -8.265  22.552  1.00  0.00     0.017 A 
ATOM     19  C   UNL     1     -22.847  -7.450  21.493  1.00  0.00     0.014 A 
ATOM     20  H   UNL     1     -24.704  -7.113  26.087  1.00  0.00     0.170 HD
ATOM     21  I   UNL     1     -21.961  -7.731  19.591  1.00  0.00    -0.044 I 
ENDBRANCH   1   9
BRANCH   5  22
ATOM     22  O   UNL     1     -29.399  -0.404  24.737  1.00  0.00    -0.506 OA
ATOM     23  H   UNL     1     -29.672  -0.419  25.713  1.00  0.00     0.293 HD
ENDBRANCH   5  22
TORSDOF 2
ENDMDL
MODEL 8
REMARK VINA RESULT:      -5.6      5.881      8.137
REMARK SMILES O=C1Nc2ccc(I)cc2/C1=C/c1cc(Br)c(O)c(Br)c1
REMARK SMILES IDX 13 1 14 2 15 3 16 4 17 5 19 6 20 7 21 8 12 9 1 10 2 11 3 12
REMARK SMILES IDX 11 13 4 14 10 15 5 16 9 17 6 18 7 19 8 21 18 22
REMARK H PARENT 3 20 18 23
ROOT
ATOM      1  C   UNL     1     -24.582  -3.980  23.224  1.00  0.00    -0.022 A 
ATOM      2  C   UNL     1     -24.437  -4.276  24.544  1.00  0.00     0.027 A 
ATOM      3  C   UNL     1     -25.547  -4.209  25.368  1.00  0.00     0.061 A 
ATOM      4  Br  UNL     1     -25.340  -4.628  27.224  1.00  0.00    -0.047 Br
ATOM      5  C   UNL     1     -26.793  -3.848  24.884  1.00  0.00     0.143 A 
ATOM      6  C   UNL     1     -26.899  -3.556  23.552  1.00  0.00     0.061 A 
ATOM      7  Br  UNL     1     -28.587  -3.047  22.811  1.00  0.00    -0.047 Br
ATOM      8  C   UNL     1     -25.814  -3.617  22.718  1.00  0.00     0.027 A 
ENDROOT
BRANCH   1   9
ATOM      9  C   UNL     1     -23.490  -4.056  22.268  1.00  0.00     0.022 C 
ATOM     10  O   UNL     1     -24.785  -6.789  22.414  1.00  0.00    -0.269 OA
ATOM     11  C   UNL     1     -23.793  -6.470  21.716  1.00  0.00     0.256 C 
ATOM     12  N   UNL     1     -23.058  -7.343  20.841  1.00  0.00    -0.321 N 
ATOM     13  C   UNL     1     -23.167  -5.161  21.625  1.00  0.00     0.050 C 
ATOM     14  C   UNL     1     -21.996  -6.603  20.215  1.00  0.00     0.049 A 
ATOM     15  C   UNL     1     -22.055  -5.295  20.679  1.00  0.00     0.012 A 
ATOM     16  C   UNL     1     -21.038  -7.015  19.305  1.00  0.00     0.028 A 
ATOM     17  C   UNL     1     -21.097  -4.420  20.179  1.00  0.00     0.025 A 
ATOM     18  C   UNL     1     -20.111  -6.097  18.843  1.00  0.00     0.017 A 
ATOM     19  C   UNL     1     -20.129  -4.787  19.274  1.00  0.00     0.014 A 
ATOM     20  H   UNL     1     -23.292  -8.335  20.715  1.00  0.00     0.170 HD
ATOM     21  I   UNL     1     -18.704  -3.396  18.556  1.00  0.00    -0.044 I 
ENDBRANCH   1   9
BRANCH   5  22
ATOM     22  O   UNL     1     -27.900  -3.784  25.722  1.00  0.00    -0.506 OA
ATOM     23  H   UNL     1     -28.798  -3.497  25.351  1.00  0.00     0.293 HD
ENDBRANCH   5  22
TORSDOF 2
ENDMDL
MODEL 9
REMARK VINA RESULT:      -5.5      6.538      8.247
REMARK SMILES O=C1Nc2ccc(I)cc2/C1=C/c1cc(Br)c(O)c(Br)c1
REMARK SMILES IDX 13 1 14 2 15 3 16 4 17 5 19 6 20 7 21 8 12 9 1 10 2 11 3 12
REMARK SMILES IDX 11 13 4 14 10 15 5 16 9 17 6 18 7 19 8 21 18 22
REMARK H PARENT 3 20 18 23
ROOT
ATOM      1  C   UNL     1     -25.814  -2.717  22.699  1.00  0.00    -0.022 A 
ATOM      2  C   UNL     1     -27.054  -3.241  22.506  1.00  0.00     0.027 A 
ATOM      3  C   UNL     1     -28.145  -2.595  23.061  1.00  0.00     0.061 A 
ATOM      4  Br  UNL     1     -29.889  -3.335  22.786  1.00  0.00    -0.047 Br
ATOM      5  C   UNL     1     -28.005  -1.435  23.803  1.00  0.00     0.143 A 
ATOM      6  C   UNL     1     -26.742  -0.938  23.976  1.00  0.00     0.061 A 
ATOM      7  Br  UNL     1     -26.468   0.660  24.991  1.00  0.00    -0.047 Br
ATOM      8  C   UNL     1     -25.649  -1.561  23.435  1.00  0.00     0.027 A 
ENDROOT
BRANCH   1   9
ATOM      9  C   UNL     1     -24.609  -3.296  22.130  1.00  0.00     0.022 C 
ATOM     10  O   UNL     1     -25.336  -4.903  24.592  1.00  0.00    -0.269 OA
ATOM     11  C   UNL     1     -24.342  -5.085  23.849  1.00  0.00     0.256 C 
ATOM     12  N   UNL     1     -23.333  -6.096  24.017  1.00  0.00    -0.321 N 
ATOM     13  C   UNL     1     -23.985  -4.331  22.658  1.00  0.00     0.050 C 
ATOM     14  C   UNL     1     -22.366  -5.983  22.959  1.00  0.00     0.049 A 
ATOM     15  C   UNL     1     -22.750  -4.928  22.140  1.00  0.00     0.012 A 
ATOM     16  C   UNL     1     -21.229  -6.730  22.706  1.00  0.00     0.028 A 
ATOM     17  C   UNL     1     -21.928  -4.664  21.051  1.00  0.00     0.025 A 
ATOM     18  C   UNL     1     -20.451  -6.419  21.605  1.00  0.00     0.017 A 
ATOM     19  C   UNL     1     -20.791  -5.381  20.763  1.00  0.00     0.014 A 
ATOM     20  H   UNL     1     -23.343  -6.773  24.789  1.00  0.00     0.170 HD
ATOM     21  I   UNL     1     -19.590  -4.920  19.082  1.00  0.00    -0.044 I 
ENDBRANCH   1   9
BRANCH   5  22
ATOM     22  O   UNL     1     -29.109  -0.794  24.354  1.00  0.00    -0.506 OA
ATOM     23  H   UNL     1     -28.994  -0.201  25.167  1.00  0.00     0.293 HD
ENDBRANCH   5  22
TORSDOF 2
ENDMDL
