MODEL 1
REMARK VINA RESULT:      -6.1      0.000      0.000
REMARK SMILES O=S(=O)([N-]CC[NH2+]C/C=C/c1ccc(Br)cc1)c1cccc2cnccc12
REMARK SMILES IDX 6 1 5 2 4 3 2 4 1 5 3 6 18 7 19 8 27 9 20 10 26 11 22 12
REMARK SMILES IDX 21 13 25 14 23 15 24 16 7 17 8 20 9 21 10 22 11 23 12 24
REMARK SMILES IDX 17 25 13 26 16 27 14 28 15 29
REMARK H PARENT 7 18 7 19
ROOT
ATOM      1  C   UNL     1     -33.677 -42.724  58.107  1.00  0.00     0.238 C 
ENDROOT
BRANCH   1   2
ATOM      2  C   UNL     1     -34.583 -43.381  57.091  1.00  0.00    -0.070 C 
BRANCH   2   3
ATOM      3  N   UNL     1     -34.792 -44.774  57.419  1.00  0.00    -0.540 NA
BRANCH   3   4
ATOM      4  S   UNL     1     -33.692 -45.785  56.494  1.00  0.00     0.102 S 
ATOM      5  O   UNL     1     -33.413 -45.022  55.294  1.00  0.00    -0.244 OA
ATOM      6  O   UNL     1     -34.507 -46.997  56.124  1.00  0.00    -0.244 OA
BRANCH   4   7
ATOM      7  C   UNL     1     -32.444 -46.243  57.547  1.00  0.00     0.056 A 
ATOM      8  C   UNL     1     -32.514 -45.925  58.886  1.00  0.00     0.019 A 
ATOM      9  C   UNL     1     -31.333 -46.933  57.112  1.00  0.00     0.002 A 
ATOM     10  C   UNL     1     -31.491 -46.298  59.743  1.00  0.00     0.002 A 
ATOM     11  C   UNL     1     -31.267 -47.250  55.774  1.00  0.00     0.030 A 
ATOM     12  C   UNL     1     -30.290 -47.321  57.953  1.00  0.00     0.001 A 
ATOM     13  C   UNL     1     -30.384 -46.990  59.294  1.00  0.00     0.010 A 
ATOM     14  C   UNL     1     -30.181 -47.935  55.310  1.00  0.00     0.111 A 
ATOM     15  C   UNL     1     -29.204 -48.013  57.454  1.00  0.00     0.119 A 
ATOM     16  N   UNL     1     -29.193 -48.293  56.144  1.00  0.00    -0.264 NA
ENDBRANCH   4   7
ENDBRANCH   3   4
ENDBRANCH   2   3
ENDBRANCH   1   2
BRANCH   1  17
ATOM     17  N   UNL     1     -33.375 -41.360  57.786  1.00  0.00    -0.344 N 
ATOM     18  H   UNL     1     -33.567 -40.753  58.589  1.00  0.00     0.346 HD
ATOM     19  H   UNL     1     -32.371 -41.303  57.493  1.00  0.00     0.346 HD
BRANCH  17  20
ATOM     20  C   UNL     1     -34.160 -40.988  56.629  1.00  0.00     0.289 C 
BRANCH  20  21
ATOM     21  C   UNL     1     -33.940 -39.605  56.198  1.00  0.00     0.034 C 
ATOM     22  C   UNL     1     -34.026 -39.297  54.917  1.00  0.00     0.009 C 
BRANCH  22  23
ATOM     23  C   UNL     1     -33.828 -37.961  54.368  1.00  0.00    -0.026 A 
ATOM     24  C   UNL     1     -34.011 -37.735  53.022  1.00  0.00     0.009 A 
ATOM     25  C   UNL     1     -33.460 -36.880  55.132  1.00  0.00     0.009 A 
ATOM     26  C   UNL     1     -33.839 -36.490  52.445  1.00  0.00     0.016 A 
ATOM     27  C   UNL     1     -33.283 -35.615  54.557  1.00  0.00     0.016 A 
ATOM     28  C   UNL     1     -33.469 -35.408  53.214  1.00  0.00     0.018 A 
ATOM     29  Br  UNL     1     -33.221 -33.668  52.450  1.00  0.00    -0.051 Br
ENDBRANCH  22  23
ENDBRANCH  20  21
ENDBRANCH  17  20
ENDBRANCH   1  17
TORSDOF 8
ENDMDL
MODEL 2
REMARK VINA RESULT:      -6.1      7.810     10.517
REMARK SMILES O=S(=O)([N-]CC[NH2+]C/C=C/c1ccc(Br)cc1)c1cccc2cnccc12
REMARK SMILES IDX 6 1 5 2 4 3 2 4 1 5 3 6 18 7 19 8 27 9 20 10 26 11 22 12
REMARK SMILES IDX 21 13 25 14 23 15 24 16 7 17 8 20 9 21 10 22 11 23 12 24
REMARK SMILES IDX 17 25 13 26 16 27 14 28 15 29
REMARK H PARENT 7 18 7 19
ROOT
ATOM      1  C   UNL     1     -36.397 -47.874  51.442  1.00  0.00     0.238 C 
ENDROOT
BRANCH   1   2
ATOM      2  C   UNL     1     -37.542 -48.836  51.220  1.00  0.00    -0.070 C 
BRANCH   2   3
ATOM      3  N   UNL     1     -38.119 -48.648  49.906  1.00  0.00    -0.540 NA
BRANCH   3   4
ATOM      4  S   UNL     1     -37.331 -49.704  48.743  1.00  0.00     0.102 S 
ATOM      5  O   UNL     1     -38.357 -50.000  47.764  1.00  0.00    -0.244 OA
ATOM      6  O   UNL     1     -37.018 -50.957  49.517  1.00  0.00    -0.244 OA
BRANCH   4   7
ATOM      7  C   UNL     1     -35.886 -48.943  48.289  1.00  0.00     0.056 A 
ATOM      8  C   UNL     1     -34.673 -49.458  48.694  1.00  0.00     0.019 A 
ATOM      9  C   UNL     1     -35.868 -47.802  47.517  1.00  0.00     0.002 A 
ATOM     10  C   UNL     1     -33.493 -48.832  48.323  1.00  0.00     0.002 A 
ATOM     11  C   UNL     1     -37.082 -47.290  47.114  1.00  0.00     0.030 A 
ATOM     12  C   UNL     1     -34.697 -47.152  47.129  1.00  0.00     0.001 A 
ATOM     13  C   UNL     1     -33.492 -47.689  47.548  1.00  0.00     0.010 A 
ATOM     14  C   UNL     1     -37.100 -46.162  46.346  1.00  0.00     0.111 A 
ATOM     15  C   UNL     1     -34.748 -46.011  46.352  1.00  0.00     0.119 A 
ATOM     16  N   UNL     1     -35.956 -45.559  45.990  1.00  0.00    -0.264 NA
ENDBRANCH   4   7
ENDBRANCH   3   4
ENDBRANCH   2   3
ENDBRANCH   1   2
BRANCH   1  17
ATOM     17  N   UNL     1     -36.100 -47.670  52.829  1.00  0.00    -0.344 N 
ATOM     18  H   UNL     1     -36.569 -46.827  53.175  1.00  0.00     0.346 HD
ATOM     19  H   UNL     1     -36.399 -48.521  53.362  1.00  0.00     0.346 HD
BRANCH  17  20
ATOM     20  C   UNL     1     -34.663 -47.583  52.970  1.00  0.00     0.289 C 
BRANCH  20  21
ATOM     21  C   UNL     1     -34.234 -47.190  54.315  1.00  0.00     0.034 C 
ATOM     22  C   UNL     1     -32.961 -47.290  54.652  1.00  0.00     0.009 C 
BRANCH  22  23
ATOM     23  C   UNL     1     -32.415 -46.932  55.955  1.00  0.00    -0.026 A 
ATOM     24  C   UNL     1     -31.168 -47.383  56.327  1.00  0.00     0.009 A 
ATOM     25  C   UNL     1     -33.085 -46.148  56.863  1.00  0.00     0.009 A 
ATOM     26  C   UNL     1     -30.599 -47.075  57.550  1.00  0.00     0.016 A 
ATOM     27  C   UNL     1     -32.518 -45.831  58.104  1.00  0.00     0.016 A 
ATOM     28  C   UNL     1     -31.274 -46.290  58.458  1.00  0.00     0.018 A 
ATOM     29  Br  UNL     1     -30.518 -45.841  60.161  1.00  0.00    -0.051 Br
ENDBRANCH  22  23
ENDBRANCH  20  21
ENDBRANCH  17  20
ENDBRANCH   1  17
TORSDOF 8
ENDMDL
MODEL 3
REMARK VINA RESULT:      -6.1      5.871      8.108
REMARK SMILES O=S(=O)([N-]CC[NH2+]C/C=C/c1ccc(Br)cc1)c1cccc2cnccc12
REMARK SMILES IDX 6 1 5 2 4 3 2 4 1 5 3 6 18 7 19 8 27 9 20 10 26 11 22 12
REMARK SMILES IDX 21 13 25 14 23 15 24 16 7 17 8 20 9 21 10 22 11 23 12 24
REMARK SMILES IDX 17 25 13 26 16 27 14 28 15 29
REMARK H PARENT 7 18 7 19
ROOT
ATOM      1  C   UNL     1     -36.772 -45.855  52.788  1.00  0.00     0.238 C 
ENDROOT
BRANCH   1   2
ATOM      2  C   UNL     1     -36.393 -44.905  53.900  1.00  0.00    -0.070 C 
BRANCH   2   3
ATOM      3  N   UNL     1     -35.209 -45.371  54.588  1.00  0.00    -0.540 NA
BRANCH   3   4
ATOM      4  S   UNL     1     -35.656 -46.172  56.087  1.00  0.00     0.102 S 
ATOM      5  O   UNL     1     -35.289 -47.559  55.886  1.00  0.00    -0.244 OA
ATOM      6  O   UNL     1     -37.157 -46.067  56.142  1.00  0.00    -0.244 OA
BRANCH   4   7
ATOM      7  C   UNL     1     -34.978 -45.265  57.349  1.00  0.00     0.056 A 
ATOM      8  C   UNL     1     -35.732 -44.313  58.003  1.00  0.00     0.019 A 
ATOM      9  C   UNL     1     -33.674 -45.438  57.760  1.00  0.00     0.002 A 
ATOM     10  C   UNL     1     -35.174 -43.572  59.033  1.00  0.00     0.002 A 
ATOM     11  C   UNL     1     -32.924 -46.390  57.105  1.00  0.00     0.030 A 
ATOM     12  C   UNL     1     -33.088 -44.707  58.793  1.00  0.00     0.001 A 
ATOM     13  C   UNL     1     -33.866 -43.757  59.433  1.00  0.00     0.010 A 
ATOM     14  C   UNL     1     -31.630 -46.589  57.489  1.00  0.00     0.111 A 
ATOM     15  C   UNL     1     -31.775 -44.930  59.157  1.00  0.00     0.119 A 
ATOM     16  N   UNL     1     -31.094 -45.869  58.485  1.00  0.00    -0.264 NA
ENDBRANCH   4   7
ENDBRANCH   3   4
ENDBRANCH   2   3
ENDBRANCH   1   2
BRANCH   1  17
ATOM     17  N   UNL     1     -36.897 -47.213  53.230  1.00  0.00    -0.344 N 
ATOM     18  H   UNL     1     -36.109 -47.466  53.834  1.00  0.00     0.346 HD
ATOM     19  H   UNL     1     -37.812 -47.316  53.731  1.00  0.00     0.346 HD
BRANCH  17  20
ATOM     20  C   UNL     1     -36.974 -48.059  52.059  1.00  0.00     0.289 C 
BRANCH  20  21
ATOM     21  C   UNL     1     -35.823 -47.914  51.162  1.00  0.00     0.034 C 
ATOM     22  C   UNL     1     -36.006 -47.934  49.855  1.00  0.00     0.009 C 
BRANCH  22  23
ATOM     23  C   UNL     1     -34.945 -47.800  48.865  1.00  0.00    -0.026 A 
ATOM     24  C   UNL     1     -33.745 -48.452  49.048  1.00  0.00     0.009 A 
ATOM     25  C   UNL     1     -35.068 -47.043  47.726  1.00  0.00     0.009 A 
ATOM     26  C   UNL     1     -32.703 -48.362  48.144  1.00  0.00     0.016 A 
ATOM     27  C   UNL     1     -34.019 -46.945  46.803  1.00  0.00     0.016 A 
ATOM     28  C   UNL     1     -32.830 -47.601  47.003  1.00  0.00     0.018 A 
ATOM     29  Br  UNL     1     -31.408 -47.454  45.726  1.00  0.00    -0.051 Br
ENDBRANCH  22  23
ENDBRANCH  20  21
ENDBRANCH  17  20
ENDBRANCH   1  17
TORSDOF 8
ENDMDL
MODEL 4
REMARK VINA RESULT:      -6.1      7.273     10.073
REMARK SMILES O=S(=O)([N-]CC[NH2+]C/C=C/c1ccc(Br)cc1)c1cccc2cnccc12
REMARK SMILES IDX 6 1 5 2 4 3 2 4 1 5 3 6 18 7 19 8 27 9 20 10 26 11 22 12
REMARK SMILES IDX 21 13 25 14 23 15 24 16 7 17 8 20 9 21 10 22 11 23 12 24
REMARK SMILES IDX 17 25 13 26 16 27 14 28 15 29
REMARK H PARENT 7 18 7 19
ROOT
ATOM      1  C   UNL     1     -36.463 -45.658  53.018  1.00  0.00     0.238 C 
ENDROOT
BRANCH   1   2
ATOM      2  C   UNL     1     -36.633 -47.158  52.959  1.00  0.00    -0.070 C 
BRANCH   2   3
ATOM      3  N   UNL     1     -35.692 -47.743  52.029  1.00  0.00    -0.540 NA
BRANCH   3   4
ATOM      4  S   UNL     1     -36.449 -47.960  50.458  1.00  0.00     0.102 S 
ATOM      5  O   UNL     1     -37.585 -47.061  50.471  1.00  0.00    -0.244 OA
ATOM      6  O   UNL     1     -36.949 -49.381  50.469  1.00  0.00    -0.244 OA
BRANCH   4   7
ATOM      7  C   UNL     1     -35.224 -47.801  49.297  1.00  0.00     0.056 A 
ATOM      8  C   UNL     1     -33.910 -48.047  49.635  1.00  0.00     0.019 A 
ATOM      9  C   UNL     1     -35.488 -47.424  47.998  1.00  0.00     0.002 A 
ATOM     10  C   UNL     1     -32.911 -47.913  48.683  1.00  0.00     0.002 A 
ATOM     11  C   UNL     1     -36.802 -47.181  47.663  1.00  0.00     0.030 A 
ATOM     12  C   UNL     1     -34.503 -47.283  47.021  1.00  0.00     0.001 A 
ATOM     13  C   UNL     1     -33.191 -47.535  47.386  1.00  0.00     0.010 A 
ATOM     14  C   UNL     1     -37.099 -46.808  46.384  1.00  0.00     0.111 A 
ATOM     15  C   UNL     1     -34.834 -46.903  45.736  1.00  0.00     0.119 A 
ATOM     16  N   UNL     1     -36.128 -46.680  45.467  1.00  0.00    -0.264 NA
ENDBRANCH   4   7
ENDBRANCH   3   4
ENDBRANCH   2   3
ENDBRANCH   1   2
BRANCH   1  17
ATOM     17  N   UNL     1     -35.363 -45.253  53.845  1.00  0.00    -0.344 N 
ATOM     18  H   UNL     1     -34.473 -45.505  53.404  1.00  0.00     0.346 HD
ATOM     19  H   UNL     1     -35.433 -44.220  54.007  1.00  0.00     0.346 HD
BRANCH  17  20
ATOM     20  C   UNL     1     -35.522 -45.881  55.138  1.00  0.00     0.289 C 
BRANCH  20  21
ATOM     21  C   UNL     1     -34.336 -46.626  55.571  1.00  0.00     0.034 C 
ATOM     22  C   UNL     1     -33.352 -45.992  56.182  1.00  0.00     0.009 C 
BRANCH  22  23
ATOM     23  C   UNL     1     -32.127 -46.622  56.658  1.00  0.00    -0.026 A 
ATOM     24  C   UNL     1     -31.382 -47.410  55.809  1.00  0.00     0.009 A 
ATOM     25  C   UNL     1     -31.652 -46.474  57.938  1.00  0.00     0.009 A 
ATOM     26  C   UNL     1     -30.212 -48.031  56.203  1.00  0.00     0.016 A 
ATOM     27  C   UNL     1     -30.468 -47.100  58.349  1.00  0.00     0.016 A 
ATOM     28  C   UNL     1     -29.739 -47.882  57.488  1.00  0.00     0.018 A 
ATOM     29  Br  UNL     1     -28.121 -48.727  58.072  1.00  0.00    -0.051 Br
ENDBRANCH  22  23
ENDBRANCH  20  21
ENDBRANCH  17  20
ENDBRANCH   1  17
TORSDOF 8
ENDMDL
MODEL 5
REMARK VINA RESULT:      -6.0      7.298      9.796
REMARK SMILES O=S(=O)([N-]CC[NH2+]C/C=C/c1ccc(Br)cc1)c1cccc2cnccc12
REMARK SMILES IDX 6 1 5 2 4 3 2 4 1 5 3 6 18 7 19 8 27 9 20 10 26 11 22 12
REMARK SMILES IDX 21 13 25 14 23 15 24 16 7 17 8 20 9 21 10 22 11 23 12 24
REMARK SMILES IDX 17 25 13 26 16 27 14 28 15 29
REMARK H PARENT 7 18 7 19
ROOT
ATOM      1  C   UNL     1     -37.841 -45.903  52.005  1.00  0.00     0.238 C 
ENDROOT
BRANCH   1   2
ATOM      2  C   UNL     1     -38.041 -47.137  51.157  1.00  0.00    -0.070 C 
BRANCH   2   3
ATOM      3  N   UNL     1     -37.504 -46.936  49.828  1.00  0.00    -0.540 NA
BRANCH   3   4
ATOM      4  S   UNL     1     -36.081 -47.941  49.593  1.00  0.00     0.102 S 
ATOM      5  O   UNL     1     -36.552 -49.296  49.795  1.00  0.00    -0.244 OA
ATOM      6  O   UNL     1     -35.161 -47.569  50.725  1.00  0.00    -0.244 OA
BRANCH   4   7
ATOM      7  C   UNL     1     -35.386 -47.469  48.120  1.00  0.00     0.056 A 
ATOM      8  C   UNL     1     -36.114 -46.726  47.215  1.00  0.00     0.019 A 
ATOM      9  C   UNL     1     -34.095 -47.805  47.777  1.00  0.00     0.002 A 
ATOM     10  C   UNL     1     -35.543 -46.344  46.011  1.00  0.00     0.002 A 
ATOM     11  C   UNL     1     -33.370 -48.546  48.684  1.00  0.00     0.030 A 
ATOM     12  C   UNL     1     -33.496 -47.434  46.573  1.00  0.00     0.001 A 
ATOM     13  C   UNL     1     -34.248 -46.688  45.681  1.00  0.00     0.010 A 
ATOM     14  C   UNL     1     -32.087 -48.894  48.376  1.00  0.00     0.111 A 
ATOM     15  C   UNL     1     -32.196 -47.802  46.290  1.00  0.00     0.119 A 
ATOM     16  N   UNL     1     -31.539 -48.523  47.210  1.00  0.00    -0.264 NA
ENDBRANCH   4   7
ENDBRANCH   3   4
ENDBRANCH   2   3
ENDBRANCH   1   2
BRANCH   1  17
ATOM     17  N   UNL     1     -36.852 -46.082  53.027  1.00  0.00    -0.344 N 
ATOM     18  H   UNL     1     -36.620 -47.075  53.131  1.00  0.00     0.346 HD
ATOM     19  H   UNL     1     -36.008 -45.515  52.774  1.00  0.00     0.346 HD
BRANCH  17  20
ATOM     20  C   UNL     1     -37.371 -45.518  54.254  1.00  0.00     0.289 C 
BRANCH  20  21
ATOM     21  C   UNL     1     -36.362 -45.401  55.311  1.00  0.00     0.034 C 
ATOM     22  C   UNL     1     -35.294 -46.177  55.285  1.00  0.00     0.009 C 
BRANCH  22  23
ATOM     23  C   UNL     1     -34.225 -46.154  56.276  1.00  0.00    -0.026 A 
ATOM     24  C   UNL     1     -34.491 -45.753  57.567  1.00  0.00     0.009 A 
ATOM     25  C   UNL     1     -32.931 -46.518  55.997  1.00  0.00     0.009 A 
ATOM     26  C   UNL     1     -33.518 -45.711  58.549  1.00  0.00     0.016 A 
ATOM     27  C   UNL     1     -31.938 -46.479  56.984  1.00  0.00     0.016 A 
ATOM     28  C   UNL     1     -32.221 -46.076  58.265  1.00  0.00     0.018 A 
ATOM     29  Br  UNL     1     -30.846 -46.032  59.600  1.00  0.00    -0.051 Br
ENDBRANCH  22  23
ENDBRANCH  20  21
ENDBRANCH  17  20
ENDBRANCH   1  17
TORSDOF 8
ENDMDL
MODEL 6
REMARK VINA RESULT:      -6.0      3.738      4.597
REMARK SMILES O=S(=O)([N-]CC[NH2+]C/C=C/c1ccc(Br)cc1)c1cccc2cnccc12
REMARK SMILES IDX 6 1 5 2 4 3 2 4 1 5 3 6 18 7 19 8 27 9 20 10 26 11 22 12
REMARK SMILES IDX 21 13 25 14 23 15 24 16 7 17 8 20 9 21 10 22 11 23 12 24
REMARK SMILES IDX 17 25 13 26 16 27 14 28 15 29
REMARK H PARENT 7 18 7 19
ROOT
ATOM      1  C   UNL     1     -34.635 -41.572  56.271  1.00  0.00     0.238 C 
ENDROOT
BRANCH   1   2
ATOM      2  C   UNL     1     -34.161 -42.986  56.027  1.00  0.00    -0.070 C 
BRANCH   2   3
ATOM      3  N   UNL     1     -34.874 -43.916  56.875  1.00  0.00    -0.540 NA
BRANCH   3   4
ATOM      4  S   UNL     1     -33.766 -44.667  58.014  1.00  0.00     0.102 S 
ATOM      5  O   UNL     1     -34.608 -45.102  59.111  1.00  0.00    -0.244 OA
ATOM      6  O   UNL     1     -32.887 -43.541  58.489  1.00  0.00    -0.244 OA
BRANCH   4   7
ATOM      7  C   UNL     1     -32.837 -45.779  57.134  1.00  0.00     0.056 A 
ATOM      8  C   UNL     1     -33.159 -46.071  55.826  1.00  0.00     0.019 A 
ATOM      9  C   UNL     1     -31.748 -46.422  57.682  1.00  0.00     0.002 A 
ATOM     10  C   UNL     1     -32.398 -46.983  55.110  1.00  0.00     0.002 A 
ATOM     11  C   UNL     1     -31.429 -46.126  58.989  1.00  0.00     0.030 A 
ATOM     12  C   UNL     1     -30.965 -47.342  56.985  1.00  0.00     0.001 A 
ATOM     13  C   UNL     1     -31.310 -47.619  55.673  1.00  0.00     0.010 A 
ATOM     14  C   UNL     1     -30.355 -46.744  59.561  1.00  0.00     0.111 A 
ATOM     15  C   UNL     1     -29.885 -47.951  57.592  1.00  0.00     0.119 A 
ATOM     16  N   UNL     1     -29.622 -47.625  58.865  1.00  0.00    -0.264 NA
ENDBRANCH   4   7
ENDBRANCH   3   4
ENDBRANCH   2   3
ENDBRANCH   1   2
BRANCH   1  17
ATOM     17  N   UNL     1     -33.656 -40.760  56.932  1.00  0.00    -0.344 N 
ATOM     18  H   UNL     1     -33.630 -40.975  57.933  1.00  0.00     0.346 HD
ATOM     19  H   UNL     1     -32.726 -40.927  56.479  1.00  0.00     0.346 HD
BRANCH  17  20
ATOM     20  C   UNL     1     -33.987 -39.373  56.686  1.00  0.00     0.289 C 
BRANCH  20  21
ATOM     21  C   UNL     1     -33.956 -38.546  57.896  1.00  0.00     0.034 C 
ATOM     22  C   UNL     1     -34.919 -37.670  58.115  1.00  0.00     0.009 C 
BRANCH  22  23
ATOM     23  C   UNL     1     -34.998 -36.794  59.277  1.00  0.00    -0.026 A 
ATOM     24  C   UNL     1     -36.214 -36.281  59.672  1.00  0.00     0.009 A 
ATOM     25  C   UNL     1     -33.904 -36.438  60.028  1.00  0.00     0.009 A 
ATOM     26  C   UNL     1     -36.350 -35.446  60.766  1.00  0.00     0.016 A 
ATOM     27  C   UNL     1     -34.031 -35.593  61.137  1.00  0.00     0.016 A 
ATOM     28  C   UNL     1     -35.251 -35.090  61.516  1.00  0.00     0.018 A 
ATOM     29  Br  UNL     1     -35.401 -33.936  63.038  1.00  0.00    -0.051 Br
ENDBRANCH  22  23
ENDBRANCH  20  21
ENDBRANCH  17  20
ENDBRANCH   1  17
TORSDOF 8
ENDMDL
MODEL 7
REMARK VINA RESULT:      -6.0      7.697      9.451
REMARK SMILES O=S(=O)([N-]CC[NH2+]C/C=C/c1ccc(Br)cc1)c1cccc2cnccc12
REMARK SMILES IDX 6 1 5 2 4 3 2 4 1 5 3 6 18 7 19 8 27 9 20 10 26 11 22 12
REMARK SMILES IDX 21 13 25 14 23 15 24 16 7 17 8 20 9 21 10 22 11 23 12 24
REMARK SMILES IDX 17 25 13 26 16 27 14 28 15 29
REMARK H PARENT 7 18 7 19
ROOT
ATOM      1  C   UNL     1     -36.789 -43.709  49.789  1.00  0.00     0.238 C 
ENDROOT
BRANCH   1   2
ATOM      2  C   UNL     1     -37.160 -43.973  48.348  1.00  0.00    -0.070 C 
BRANCH   2   3
ATOM      3  N   UNL     1     -37.112 -45.390  48.060  1.00  0.00    -0.540 NA
BRANCH   3   4
ATOM      4  S   UNL     1     -35.840 -45.727  46.895  1.00  0.00     0.102 S 
ATOM      5  O   UNL     1     -35.360 -44.421  46.488  1.00  0.00    -0.244 OA
ATOM      6  O   UNL     1     -36.548 -46.371  45.732  1.00  0.00    -0.244 OA
BRANCH   4   7
ATOM      7  C   UNL     1     -34.798 -46.853  47.617  1.00  0.00     0.056 A 
ATOM      8  C   UNL     1     -35.042 -47.302  48.898  1.00  0.00     0.019 A 
ATOM      9  C   UNL     1     -33.690 -47.350  46.967  1.00  0.00     0.002 A 
ATOM     10  C   UNL     1     -34.187 -48.221  49.486  1.00  0.00     0.002 A 
ATOM     11  C   UNL     1     -33.450 -46.901  45.687  1.00  0.00     0.030 A 
ATOM     12  C   UNL     1     -32.814 -48.276  47.535  1.00  0.00     0.001 A 
ATOM     13  C   UNL     1     -33.080 -48.711  48.822  1.00  0.00     0.010 A 
ATOM     14  C   UNL     1     -32.362 -47.375  45.014  1.00  0.00     0.111 A 
ATOM     15  C   UNL     1     -31.721 -48.736  46.828  1.00  0.00     0.119 A 
ATOM     16  N   UNL     1     -31.537 -48.263  45.587  1.00  0.00    -0.264 NA
ENDBRANCH   4   7
ENDBRANCH   3   4
ENDBRANCH   2   3
ENDBRANCH   1   2
BRANCH   1  17
ATOM     17  N   UNL     1     -37.929 -43.476  50.626  1.00  0.00    -0.344 N 
ATOM     18  H   UNL     1     -37.901 -42.527  51.012  1.00  0.00     0.346 HD
ATOM     19  H   UNL     1     -38.795 -43.635  50.059  1.00  0.00     0.346 HD
BRANCH  17  20
ATOM     20  C   UNL     1     -37.932 -44.481  51.667  1.00  0.00     0.289 C 
BRANCH  20  21
ATOM     21  C   UNL     1     -37.296 -44.032  52.909  1.00  0.00     0.034 C 
ATOM     22  C   UNL     1     -36.377 -44.786  53.483  1.00  0.00     0.009 C 
BRANCH  22  23
ATOM     23  C   UNL     1     -35.676 -44.449  54.716  1.00  0.00    -0.026 A 
ATOM     24  C   UNL     1     -34.729 -45.308  55.228  1.00  0.00     0.009 A 
ATOM     25  C   UNL     1     -35.905 -43.292  55.420  1.00  0.00     0.009 A 
ATOM     26  C   UNL     1     -34.032 -45.040  56.392  1.00  0.00     0.016 A 
ATOM     27  C   UNL     1     -35.205 -43.012  56.601  1.00  0.00     0.016 A 
ATOM     28  C   UNL     1     -34.266 -43.880  57.096  1.00  0.00     0.018 A 
ATOM     29  Br  UNL     1     -33.319 -43.475  58.713  1.00  0.00    -0.051 Br
ENDBRANCH  22  23
ENDBRANCH  20  21
ENDBRANCH  17  20
ENDBRANCH   1  17
TORSDOF 8
ENDMDL
MODEL 8
REMARK VINA RESULT:      -6.0      7.698      9.537
REMARK SMILES O=S(=O)([N-]CC[NH2+]C/C=C/c1ccc(Br)cc1)c1cccc2cnccc12
REMARK SMILES IDX 6 1 5 2 4 3 2 4 1 5 3 6 18 7 19 8 27 9 20 10 26 11 22 12
REMARK SMILES IDX 21 13 25 14 23 15 24 16 7 17 8 20 9 21 10 22 11 23 12 24
REMARK SMILES IDX 17 25 13 26 16 27 14 28 15 29
REMARK H PARENT 7 18 7 19
ROOT
ATOM      1  C   UNL     1     -37.443 -44.297  49.972  1.00  0.00     0.238 C 
ENDROOT
BRANCH   1   2
ATOM      2  C   UNL     1     -37.326 -43.953  48.506  1.00  0.00    -0.070 C 
BRANCH   2   3
ATOM      3  N   UNL     1     -36.128 -44.533  47.939  1.00  0.00    -0.540 NA
BRANCH   3   4
ATOM      4  S   UNL     1     -36.543 -45.904  46.921  1.00  0.00     0.102 S 
ATOM      5  O   UNL     1     -36.188 -45.485  45.580  1.00  0.00    -0.244 OA
ATOM      6  O   UNL     1     -38.042 -46.011  47.018  1.00  0.00    -0.244 OA
BRANCH   4   7
ATOM      7  C   UNL     1     -35.831 -47.272  47.625  1.00  0.00     0.056 A 
ATOM      8  C   UNL     1     -36.614 -48.221  48.247  1.00  0.00     0.019 A 
ATOM      9  C   UNL     1     -34.469 -47.483  47.604  1.00  0.00     0.002 A 
ATOM     10  C   UNL     1     -36.028 -49.337  48.823  1.00  0.00     0.002 A 
ATOM     11  C   UNL     1     -33.689 -46.534  46.981  1.00  0.00     0.030 A 
ATOM     12  C   UNL     1     -33.853 -48.597  48.176  1.00  0.00     0.001 A 
ATOM     13  C   UNL     1     -34.662 -49.535  48.795  1.00  0.00     0.010 A 
ATOM     14  C   UNL     1     -32.337 -46.713  46.941  1.00  0.00     0.111 A 
ATOM     15  C   UNL     1     -32.482 -48.749  48.120  1.00  0.00     0.119 A 
ATOM     16  N   UNL     1     -31.774 -47.795  47.501  1.00  0.00    -0.264 NA
ENDBRANCH   4   7
ENDBRANCH   3   4
ENDBRANCH   2   3
ENDBRANCH   1   2
BRANCH   1  17
ATOM     17  N   UNL     1     -38.278 -45.438  50.214  1.00  0.00    -0.344 N 
ATOM     18  H   UNL     1     -39.220 -45.140  50.486  1.00  0.00     0.346 HD
ATOM     19  H   UNL     1     -38.296 -46.025  49.346  1.00  0.00     0.346 HD
BRANCH  17  20
ATOM     20  C   UNL     1     -37.648 -46.242  51.239  1.00  0.00     0.289 C 
BRANCH  20  21
ATOM     21  C   UNL     1     -37.132 -45.452  52.361  1.00  0.00     0.034 C 
ATOM     22  C   UNL     1     -36.230 -45.975  53.170  1.00  0.00     0.009 C 
BRANCH  22  23
ATOM     23  C   UNL     1     -35.644 -45.291  54.315  1.00  0.00    -0.026 A 
ATOM     24  C   UNL     1     -36.140 -44.071  54.718  1.00  0.00     0.009 A 
ATOM     25  C   UNL     1     -34.596 -45.801  55.042  1.00  0.00     0.009 A 
ATOM     26  C   UNL     1     -35.625 -43.376  55.797  1.00  0.00     0.016 A 
ATOM     27  C   UNL     1     -34.066 -45.105  56.136  1.00  0.00     0.016 A 
ATOM     28  C   UNL     1     -34.574 -43.890  56.523  1.00  0.00     0.018 A 
ATOM     29  Br  UNL     1     -33.834 -42.956  58.024  1.00  0.00    -0.051 Br
ENDBRANCH  22  23
ENDBRANCH  20  21
ENDBRANCH  17  20
ENDBRANCH   1  17
TORSDOF 8
ENDMDL
MODEL 9
REMARK VINA RESULT:      -6.0      5.291      9.955
REMARK SMILES O=S(=O)([N-]CC[NH2+]C/C=C/c1ccc(Br)cc1)c1cccc2cnccc12
REMARK SMILES IDX 6 1 5 2 4 3 2 4 1 5 3 6 18 7 19 8 27 9 20 10 26 11 22 12
REMARK SMILES IDX 21 13 25 14 23 15 24 16 7 17 8 20 9 21 10 22 11 23 12 24
REMARK SMILES IDX 17 25 13 26 16 27 14 28 15 29
REMARK H PARENT 7 18 7 19
ROOT
ATOM      1  C   UNL     1     -37.465 -39.389  57.607  1.00  0.00     0.238 C 
ENDROOT
BRANCH   1   2
ATOM      2  C   UNL     1     -36.274 -38.722  56.959  1.00  0.00    -0.070 C 
BRANCH   2   3
ATOM      3  N   UNL     1     -35.200 -38.553  57.914  1.00  0.00    -0.540 NA
BRANCH   3   4
ATOM      4  S   UNL     1     -33.926 -37.561  57.221  1.00  0.00     0.102 S 
ATOM      5  O   UNL     1     -34.455 -37.122  55.946  1.00  0.00    -0.244 OA
ATOM      6  O   UNL     1     -32.789 -38.518  56.975  1.00  0.00    -0.244 OA
BRANCH   4   7
ATOM      7  C   UNL     1     -33.475 -36.440  58.411  1.00  0.00     0.056 A 
ATOM      8  C   UNL     1     -34.005 -36.525  59.681  1.00  0.00     0.019 A 
ATOM      9  C   UNL     1     -32.582 -35.421  58.159  1.00  0.00     0.002 A 
ATOM     10  C   UNL     1     -33.635 -35.605  60.650  1.00  0.00     0.002 A 
ATOM     11  C   UNL     1     -32.054 -35.340  56.889  1.00  0.00     0.030 A 
ATOM     12  C   UNL     1     -32.192 -34.483  59.115  1.00  0.00     0.001 A 
ATOM     13  C   UNL     1     -32.739 -34.590  60.383  1.00  0.00     0.010 A 
ATOM     14  C   UNL     1     -31.165 -34.344  56.607  1.00  0.00     0.111 A 
ATOM     15  C   UNL     1     -31.292 -33.486  58.798  1.00  0.00     0.119 A 
ATOM     16  N   UNL     1     -30.811 -33.457  57.548  1.00  0.00    -0.264 NA
ENDBRANCH   4   7
ENDBRANCH   3   4
ENDBRANCH   2   3
ENDBRANCH   1   2
BRANCH   1  17
ATOM     17  N   UNL     1     -37.136 -40.638  58.229  1.00  0.00    -0.344 N 
ATOM     18  H   UNL     1     -36.282 -40.545  58.788  1.00  0.00     0.346 HD
ATOM     19  H   UNL     1     -37.949 -40.940  58.817  1.00  0.00     0.346 HD
BRANCH  17  20
ATOM     20  C   UNL     1     -36.994 -41.631  57.187  1.00  0.00     0.289 C 
BRANCH  20  21
ATOM     21  C   UNL     1     -36.114 -42.743  57.561  1.00  0.00     0.034 C 
ATOM     22  C   UNL     1     -34.832 -42.517  57.781  1.00  0.00     0.009 C 
BRANCH  22  23
ATOM     23  C   UNL     1     -33.862 -43.537  58.158  1.00  0.00    -0.026 A 
ATOM     24  C   UNL     1     -32.799 -43.211  58.971  1.00  0.00     0.009 A 
ATOM     25  C   UNL     1     -33.941 -44.843  57.740  1.00  0.00     0.009 A 
ATOM     26  C   UNL     1     -31.848 -44.135  59.361  1.00  0.00     0.016 A 
ATOM     27  C   UNL     1     -32.983 -45.788  58.129  1.00  0.00     0.016 A 
ATOM     28  C   UNL     1     -31.931 -45.444  58.940  1.00  0.00     0.018 A 
ATOM     29  Br  UNL     1     -30.631 -46.754  59.461  1.00  0.00    -0.051 Br
ENDBRANCH  22  23
ENDBRANCH  20  21
ENDBRANCH  17  20
ENDBRANCH   1  17
TORSDOF 8
ENDMDL
