MODEL 1
REMARK VINA RESULT:      -6.7      0.000      0.000
REMARK SMILES COc1c(C)c2c(c([O-])c1C/C=C(\C)CCC(=O)[O-])C(=O)OC2
REMARK SMILES IDX 12 1 13 2 14 3 11 4 10 5 3 6 4 7 6 8 8 9 7 10 23 11 20 12
REMARK SMILES IDX 22 13 21 14 5 15 9 16 2 17 1 18 15 19 16 20 17 21 18 22
REMARK SMILES IDX 19 23
REMARK H PARENT
ROOT
ATOM      1  C   UNL     1     149.643 145.300 129.496  1.00  0.00    -0.023 C 
ATOM      2  C   UNL     1     150.890 144.841 129.773  1.00  0.00    -0.077 C 
ATOM      3  C   UNL     1     151.486 145.181 131.082  1.00  0.00     0.039 C 
ENDROOT
BRANCH   1   4
ATOM      4  C   UNL     1     148.845 146.111 130.415  1.00  0.00     0.066 C 
BRANCH   4   5
ATOM      5  C   UNL     1     147.569 145.524 130.866  1.00  0.00    -0.009 A 
ATOM      6  C   UNL     1     147.426 144.756 131.992  1.00  0.00     0.125 A 
ATOM      7  C   UNL     1     146.154 144.258 132.310  1.00  0.00    -0.001 A 
ATOM      8  C   UNL     1     145.044 144.510 131.537  1.00  0.00     0.010 A 
ATOM      9  C   UNL     1     146.425 145.769 130.090  1.00  0.00    -0.086 A 
ATOM     10  C   UNL     1     145.181 145.280 130.405  1.00  0.00     0.059 A 
ATOM     11  C   UNL     1     143.605 144.105 131.652  1.00  0.00     0.270 C 
ATOM     12  C   UNL     1     143.861 145.395 129.768  1.00  0.00     0.338 C 
ATOM     13  O   UNL     1     142.969 144.683 130.548  1.00  0.00    -0.457 OA
ATOM     14  O   UNL     1     143.620 146.041 128.695  1.00  0.00    -0.246 OA
ATOM     15  C   UNL     1     146.058 143.441 133.528  1.00  0.00     0.049 C 
ATOM     16  O   UNL     1     146.483 146.542 128.925  1.00  0.00    -0.872 OA
BRANCH   6  17
ATOM     17  O   UNL     1     148.512 144.472 132.799  1.00  0.00    -0.496 OA
ATOM     18  C   UNL     1     148.934 145.353 133.809  1.00  0.00     0.278 C 
ENDBRANCH   6  17
ENDBRANCH   4   5
ENDBRANCH   1   4
BRANCH   2  19
ATOM     19  C   UNL     1     151.648 144.052 128.798  1.00  0.00     0.036 C 
BRANCH  19  20
ATOM     20  C   UNL     1     151.949 144.727 127.494  1.00  0.00     0.057 C 
BRANCH  20  21
ATOM     21  C   UNL     1     151.370 144.103 126.300  1.00  0.00     0.042 C 
ATOM     22  O   UNL     1     151.688 144.479 125.145  1.00  0.00    -0.550 OA
ATOM     23  O   UNL     1     150.439 143.060 126.454  1.00  0.00    -0.550 OA
ENDBRANCH  20  21
ENDBRANCH  19  20
ENDBRANCH   2  19
TORSDOF 6
ENDMDL
MODEL 2
REMARK VINA RESULT:      -6.4      6.974      8.006
REMARK SMILES COc1c(C)c2c(c([O-])c1C/C=C(\C)CCC(=O)[O-])C(=O)OC2
REMARK SMILES IDX 12 1 13 2 14 3 11 4 10 5 3 6 4 7 6 8 8 9 7 10 23 11 20 12
REMARK SMILES IDX 22 13 21 14 5 15 9 16 2 17 1 18 15 19 16 20 17 21 18 22
REMARK SMILES IDX 19 23
REMARK H PARENT
ROOT
ATOM      1  C   UNL     1     152.480 150.392 131.182  1.00  0.00    -0.023 C 
ATOM      2  C   UNL     1     152.837 151.178 130.133  1.00  0.00    -0.077 C 
ATOM      3  C   UNL     1     153.960 152.121 130.318  1.00  0.00     0.039 C 
ENDROOT
BRANCH   1   4
ATOM      4  C   UNL     1     153.137 150.417 132.487  1.00  0.00     0.066 C 
BRANCH   4   5
ATOM      5  C   UNL     1     152.347 149.918 133.628  1.00  0.00    -0.009 A 
ATOM      6  C   UNL     1     151.688 150.719 134.522  1.00  0.00     0.125 A 
ATOM      7  C   UNL     1     150.970 150.116 135.565  1.00  0.00    -0.001 A 
ATOM      8  C   UNL     1     150.900 148.751 135.726  1.00  0.00     0.010 A 
ATOM      9  C   UNL     1     152.266 148.528 133.808  1.00  0.00    -0.086 A 
ATOM     10  C   UNL     1     151.561 147.941 134.831  1.00  0.00     0.059 A 
ATOM     11  C   UNL     1     150.219 147.873 136.731  1.00  0.00     0.270 C 
ATOM     12  C   UNL     1     151.330 146.543 135.222  1.00  0.00     0.338 C 
ATOM     13  O   UNL     1     150.530 146.563 136.350  1.00  0.00    -0.457 OA
ATOM     14  O   UNL     1     151.795 145.524 134.612  1.00  0.00    -0.246 OA
ATOM     15  C   UNL     1     150.282 151.022 136.495  1.00  0.00     0.049 C 
ATOM     16  O   UNL     1     152.909 147.638 132.942  1.00  0.00    -0.872 OA
BRANCH   6  17
ATOM     17  O   UNL     1     151.730 152.096 134.406  1.00  0.00    -0.496 OA
ATOM     18  C   UNL     1     150.830 152.797 133.585  1.00  0.00     0.278 C 
ENDBRANCH   6  17
ENDBRANCH   4   5
ENDBRANCH   1   4
BRANCH   2  19
ATOM     19  C   UNL     1     152.120 151.121 128.856  1.00  0.00     0.036 C 
BRANCH  19  20
ATOM     20  C   UNL     1     152.878 150.546 127.699  1.00  0.00     0.057 C 
BRANCH  20  21
ATOM     21  C   UNL     1     153.061 151.434 126.547  1.00  0.00     0.042 C 
ATOM     22  O   UNL     1     153.825 151.129 125.598  1.00  0.00    -0.550 OA
ATOM     23  O   UNL     1     152.364 152.655 126.504  1.00  0.00    -0.550 OA
ENDBRANCH  20  21
ENDBRANCH  19  20
ENDBRANCH   2  19
TORSDOF 6
ENDMDL
MODEL 3
REMARK VINA RESULT:      -6.4      2.060      5.905
REMARK SMILES COc1c(C)c2c(c([O-])c1C/C=C(\C)CCC(=O)[O-])C(=O)OC2
REMARK SMILES IDX 12 1 13 2 14 3 11 4 10 5 3 6 4 7 6 8 8 9 7 10 23 11 20 12
REMARK SMILES IDX 22 13 21 14 5 15 9 16 2 17 1 18 15 19 16 20 17 21 18 22
REMARK SMILES IDX 19 23
REMARK H PARENT
ROOT
ATOM      1  C   UNL     1     145.911 144.784 129.834  1.00  0.00    -0.023 C 
ATOM      2  C   UNL     1     144.886 145.622 130.136  1.00  0.00    -0.077 C 
ATOM      3  C   UNL     1     144.830 146.192 131.499  1.00  0.00     0.039 C 
ENDROOT
BRANCH   1   4
ATOM      4  C   UNL     1     146.967 144.408 130.771  1.00  0.00     0.066 C 
BRANCH   4   5
ATOM      5  C   UNL     1     148.286 145.034 130.556  1.00  0.00    -0.009 A 
ATOM      6  C   UNL     1     149.109 145.470 131.561  1.00  0.00     0.125 A 
ATOM      7  C   UNL     1     150.340 146.048 131.220  1.00  0.00    -0.001 A 
ATOM      8  C   UNL     1     150.756 146.195 129.916  1.00  0.00     0.010 A 
ATOM      9  C   UNL     1     148.726 145.192 129.232  1.00  0.00    -0.086 A 
ATOM     10  C   UNL     1     149.934 145.759 128.902  1.00  0.00     0.059 A 
ATOM     11  C   UNL     1     151.995 146.766 129.296  1.00  0.00     0.270 C 
ATOM     12  C   UNL     1     150.604 146.028 127.622  1.00  0.00     0.338 C 
ATOM     13  O   UNL     1     151.817 146.623 127.915  1.00  0.00    -0.457 OA
ATOM     14  O   UNL     1     150.126 145.752 126.473  1.00  0.00    -0.246 OA
ATOM     15  C   UNL     1     151.183 146.499 132.336  1.00  0.00     0.049 C 
ATOM     16  O   UNL     1     147.949 144.775 128.147  1.00  0.00    -0.872 OA
BRANCH   6  17
ATOM     17  O   UNL     1     148.735 145.349 132.886  1.00  0.00    -0.496 OA
ATOM     18  C   UNL     1     147.929 146.312 133.518  1.00  0.00     0.278 C 
ENDBRANCH   6  17
ENDBRANCH   4   5
ENDBRANCH   1   4
BRANCH   2  19
ATOM     19  C   UNL     1     143.843 145.940 129.157  1.00  0.00     0.036 C 
BRANCH  19  20
ATOM     20  C   UNL     1     144.309 146.556 127.874  1.00  0.00     0.057 C 
BRANCH  20  21
ATOM     21  C   UNL     1     144.136 145.739 126.669  1.00  0.00     0.042 C 
ATOM     22  O   UNL     1     143.351 146.082 125.751  1.00  0.00    -0.550 OA
ATOM     23  O   UNL     1     144.865 144.543 126.541  1.00  0.00    -0.550 OA
ENDBRANCH  20  21
ENDBRANCH  19  20
ENDBRANCH   2  19
TORSDOF 6
ENDMDL
MODEL 4
REMARK VINA RESULT:      -6.3      7.697      9.177
REMARK SMILES COc1c(C)c2c(c([O-])c1C/C=C(\C)CCC(=O)[O-])C(=O)OC2
REMARK SMILES IDX 12 1 13 2 14 3 11 4 10 5 3 6 4 7 6 8 8 9 7 10 23 11 20 12
REMARK SMILES IDX 22 13 21 14 5 15 9 16 2 17 1 18 15 19 16 20 17 21 18 22
REMARK SMILES IDX 19 23
REMARK H PARENT
ROOT
ATOM      1  C   UNL     1     146.764 152.270 131.204  1.00  0.00    -0.023 C 
ATOM      2  C   UNL     1     146.096 152.665 130.090  1.00  0.00    -0.077 C 
ATOM      3  C   UNL     1     145.094 153.743 130.223  1.00  0.00     0.039 C 
ENDROOT
BRANCH   1   4
ATOM      4  C   UNL     1     146.557 152.844 132.532  1.00  0.00     0.066 C 
BRANCH   4   5
ATOM      5  C   UNL     1     147.257 152.181 133.648  1.00  0.00    -0.009 A 
ATOM      6  C   UNL     1     146.633 151.475 134.643  1.00  0.00     0.125 A 
ATOM      7  C   UNL     1     147.417 150.892 135.649  1.00  0.00    -0.001 A 
ATOM      8  C   UNL     1     148.789 150.999 135.677  1.00  0.00     0.010 A 
ATOM      9  C   UNL     1     148.657 152.280 133.694  1.00  0.00    -0.086 A 
ATOM     10  C   UNL     1     149.421 151.707 134.681  1.00  0.00     0.059 A 
ATOM     11  C   UNL     1     149.836 150.483 136.617  1.00  0.00     0.270 C 
ATOM     12  C   UNL     1     150.868 151.669 134.941  1.00  0.00     0.338 C 
ATOM     13  O   UNL     1     151.054 150.933 136.096  1.00  0.00    -0.457 OA
ATOM     14  O   UNL     1     151.757 152.224 134.215  1.00  0.00    -0.246 OA
ATOM     15  C   UNL     1     146.696 150.147 136.691  1.00  0.00     0.049 C 
ATOM     16  O   UNL     1     149.373 152.983 132.719  1.00  0.00    -0.872 OA
BRANCH   6  17
ATOM     17  O   UNL     1     145.257 151.342 134.662  1.00  0.00    -0.496 OA
ATOM     18  C   UNL     1     144.602 150.324 133.948  1.00  0.00     0.278 C 
ENDBRANCH   6  17
ENDBRANCH   4   5
ENDBRANCH   1   4
BRANCH   2  19
ATOM     19  C   UNL     1     146.333 152.031 128.791  1.00  0.00     0.036 C 
BRANCH  19  20
ATOM     20  C   UNL     1     146.727 152.946 127.672  1.00  0.00     0.057 C 
BRANCH  20  21
ATOM     21  C   UNL     1     145.781 153.042 126.556  1.00  0.00     0.042 C 
ATOM     22  O   UNL     1     146.005 153.784 125.568  1.00  0.00    -0.550 OA
ATOM     23  O   UNL     1     144.596 152.284 126.595  1.00  0.00    -0.550 OA
ENDBRANCH  20  21
ENDBRANCH  19  20
ENDBRANCH   2  19
TORSDOF 6
ENDMDL
MODEL 5
REMARK VINA RESULT:      -6.3      3.984      6.982
REMARK SMILES COc1c(C)c2c(c([O-])c1C/C=C(\C)CCC(=O)[O-])C(=O)OC2
REMARK SMILES IDX 12 1 13 2 14 3 11 4 10 5 3 6 4 7 6 8 8 9 7 10 23 11 20 12
REMARK SMILES IDX 22 13 21 14 5 15 9 16 2 17 1 18 15 19 16 20 17 21 18 22
REMARK SMILES IDX 19 23
REMARK H PARENT
ROOT
ATOM      1  C   UNL     1     147.859 149.063 127.592  1.00  0.00    -0.023 C 
ATOM      2  C   UNL     1     147.045 150.060 128.025  1.00  0.00    -0.077 C 
ATOM      3  C   UNL     1     145.693 149.700 128.502  1.00  0.00     0.039 C 
ENDROOT
BRANCH   1   4
ATOM      4  C   UNL     1     147.483 147.650 127.567  1.00  0.00     0.066 C 
BRANCH   4   5
ATOM      5  C   UNL     1     148.374 146.724 128.290  1.00  0.00    -0.009 A 
ATOM      6  C   UNL     1     148.208 146.353 129.598  1.00  0.00     0.125 A 
ATOM      7  C   UNL     1     149.129 145.462 130.168  1.00  0.00    -0.001 A 
ATOM      8  C   UNL     1     150.193 144.944 129.466  1.00  0.00     0.010 A 
ATOM      9  C   UNL     1     149.466 146.186 127.590  1.00  0.00    -0.086 A 
ATOM     10  C   UNL     1     150.365 145.312 128.152  1.00  0.00     0.059 A 
ATOM     11  C   UNL     1     151.296 143.996 129.832  1.00  0.00     0.270 C 
ATOM     12  C   UNL     1     151.560 144.627 127.638  1.00  0.00     0.338 C 
ATOM     13  O   UNL     1     152.068 143.863 128.673  1.00  0.00    -0.457 OA
ATOM     14  O   UNL     1     152.016 144.739 126.452  1.00  0.00    -0.246 OA
ATOM     15  C   UNL     1     148.903 145.098 131.575  1.00  0.00     0.049 C 
ATOM     16  O   UNL     1     149.710 146.511 126.251  1.00  0.00    -0.872 OA
BRANCH   6  17
ATOM     17  O   UNL     1     147.157 146.849 130.348  1.00  0.00    -0.496 OA
ATOM     18  C   UNL     1     145.870 146.289 130.278  1.00  0.00     0.278 C 
ENDBRANCH   6  17
ENDBRANCH   4   5
ENDBRANCH   1   4
BRANCH   2  19
ATOM     19  C   UNL     1     147.473 151.461 128.002  1.00  0.00     0.036 C 
BRANCH  19  20
ATOM     20  C   UNL     1     146.383 152.485 128.088  1.00  0.00     0.057 C 
BRANCH  20  21
ATOM     21  C   UNL     1     145.863 152.978 126.809  1.00  0.00     0.042 C 
ATOM     22  O   UNL     1     146.439 153.899 126.178  1.00  0.00    -0.550 OA
ATOM     23  O   UNL     1     144.693 152.406 126.277  1.00  0.00    -0.550 OA
ENDBRANCH  20  21
ENDBRANCH  19  20
ENDBRANCH   2  19
TORSDOF 6
ENDMDL
MODEL 6
REMARK VINA RESULT:      -6.3      7.077      9.604
REMARK SMILES COc1c(C)c2c(c([O-])c1C/C=C(\C)CCC(=O)[O-])C(=O)OC2
REMARK SMILES IDX 12 1 13 2 14 3 11 4 10 5 3 6 4 7 6 8 8 9 7 10 23 11 20 12
REMARK SMILES IDX 22 13 21 14 5 15 9 16 2 17 1 18 15 19 16 20 17 21 18 22
REMARK SMILES IDX 19 23
REMARK H PARENT
ROOT
ATOM      1  C   UNL     1     147.351 151.764 129.501  1.00  0.00    -0.023 C 
ATOM      2  C   UNL     1     146.002 151.878 129.605  1.00  0.00    -0.077 C 
ATOM      3  C   UNL     1     145.311 151.071 130.633  1.00  0.00     0.039 C 
ENDROOT
BRANCH   1   4
ATOM      4  C   UNL     1     148.168 150.893 130.343  1.00  0.00     0.066 C 
BRANCH   4   5
ATOM      5  C   UNL     1     149.410 151.480 130.880  1.00  0.00    -0.009 A 
ATOM      6  C   UNL     1     149.503 152.123 132.087  1.00  0.00     0.125 A 
ATOM      7  C   UNL     1     150.746 152.637 132.482  1.00  0.00    -0.001 A 
ATOM      8  C   UNL     1     151.878 152.521 131.708  1.00  0.00     0.010 A 
ATOM      9  C   UNL     1     150.575 151.372 130.104  1.00  0.00    -0.086 A 
ATOM     10  C   UNL     1     151.791 151.877 130.495  1.00  0.00     0.059 A 
ATOM     11  C   UNL     1     153.295 152.972 131.894  1.00  0.00     0.270 C 
ATOM     12  C   UNL     1     153.123 151.890 129.873  1.00  0.00     0.338 C 
ATOM     13  O   UNL     1     153.972 152.549 130.744  1.00  0.00    -0.457 OA
ATOM     14  O   UNL     1     153.409 151.380 128.741  1.00  0.00    -0.246 OA
ATOM     15  C   UNL     1     150.789 153.317 133.785  1.00  0.00     0.049 C 
ATOM     16  O   UNL     1     150.568 150.733 128.859  1.00  0.00    -0.872 OA
BRANCH   6  17
ATOM     17  O   UNL     1     148.394 152.268 132.900  1.00  0.00    -0.496 OA
ATOM     18  C   UNL     1     147.476 153.317 132.718  1.00  0.00     0.278 C 
ENDBRANCH   6  17
ENDBRANCH   4   5
ENDBRANCH   1   4
BRANCH   2  19
ATOM     19  C   UNL     1     145.236 152.752 128.713  1.00  0.00     0.036 C 
BRANCH  19  20
ATOM     20  C   UNL     1     145.225 152.370 127.265  1.00  0.00     0.057 C 
BRANCH  20  21
ATOM     21  C   UNL     1     145.964 153.256 126.361  1.00  0.00     0.042 C 
ATOM     22  O   UNL     1     146.910 153.971 126.772  1.00  0.00    -0.550 OA
ATOM     23  O   UNL     1     145.603 153.305 125.002  1.00  0.00    -0.550 OA
ENDBRANCH  20  21
ENDBRANCH  19  20
ENDBRANCH   2  19
TORSDOF 6
ENDMDL
MODEL 7
REMARK VINA RESULT:      -6.3      2.826      6.424
REMARK SMILES COc1c(C)c2c(c([O-])c1C/C=C(\C)CCC(=O)[O-])C(=O)OC2
REMARK SMILES IDX 12 1 13 2 14 3 11 4 10 5 3 6 4 7 6 8 8 9 7 10 23 11 20 12
REMARK SMILES IDX 22 13 21 14 5 15 9 16 2 17 1 18 15 19 16 20 17 21 18 22
REMARK SMILES IDX 19 23
REMARK H PARENT
ROOT
ATOM      1  C   UNL     1     145.872 146.880 130.198  1.00  0.00    -0.023 C 
ATOM      2  C   UNL     1     145.265 147.605 129.223  1.00  0.00    -0.077 C 
ATOM      3  C   UNL     1     144.959 146.936 127.942  1.00  0.00     0.039 C 
ENDROOT
BRANCH   1   4
ATOM      4  C   UNL     1     146.242 145.472 130.062  1.00  0.00     0.066 C 
BRANCH   4   5
ATOM      5  C   UNL     1     147.679 145.159 130.183  1.00  0.00    -0.009 A 
ATOM      6  C   UNL     1     148.317 144.905 131.368  1.00  0.00     0.125 A 
ATOM      7  C   UNL     1     149.690 144.619 131.346  1.00  0.00    -0.001 A 
ATOM      8  C   UNL     1     150.422 144.583 130.181  1.00  0.00     0.010 A 
ATOM      9  C   UNL     1     148.441 145.118 129.005  1.00  0.00    -0.086 A 
ATOM     10  C   UNL     1     149.786 144.838 128.988  1.00  0.00     0.059 A 
ATOM     11  C   UNL     1     151.867 144.310 129.888  1.00  0.00     0.270 C 
ATOM     12  C   UNL     1     150.780 144.738 127.909  1.00  0.00     0.338 C 
ATOM     13  O   UNL     1     151.991 144.423 128.499  1.00  0.00    -0.457 OA
ATOM     14  O   UNL     1     150.537 144.915 126.670  1.00  0.00    -0.246 OA
ATOM     15  C   UNL     1     150.325 144.354 132.645  1.00  0.00     0.049 C 
ATOM     16  O   UNL     1     147.869 145.366 127.753  1.00  0.00    -0.872 OA
BRANCH   6  17
ATOM     17  O   UNL     1     147.627 144.933 132.566  1.00  0.00    -0.496 OA
ATOM     18  C   UNL     1     146.970 143.796 133.068  1.00  0.00     0.278 C 
ENDBRANCH   6  17
ENDBRANCH   4   5
ENDBRANCH   1   4
BRANCH   2  19
ATOM     19  C   UNL     1     144.941 149.021 129.414  1.00  0.00     0.036 C 
BRANCH  19  20
ATOM     20  C   UNL     1     145.741 149.996 128.604  1.00  0.00     0.057 C 
BRANCH  20  21
ATOM     21  C   UNL     1     145.141 151.320 128.417  1.00  0.00     0.042 C 
ATOM     22  O   UNL     1     144.763 151.714 127.286  1.00  0.00    -0.550 OA
ATOM     23  O   UNL     1     144.985 152.166 129.529  1.00  0.00    -0.550 OA
ENDBRANCH  20  21
ENDBRANCH  19  20
ENDBRANCH   2  19
TORSDOF 6
ENDMDL
MODEL 8
REMARK VINA RESULT:      -6.2      4.522      6.336
REMARK SMILES COc1c(C)c2c(c([O-])c1C/C=C(\C)CCC(=O)[O-])C(=O)OC2
REMARK SMILES IDX 12 1 13 2 14 3 11 4 10 5 3 6 4 7 6 8 8 9 7 10 23 11 20 12
REMARK SMILES IDX 22 13 21 14 5 15 9 16 2 17 1 18 15 19 16 20 17 21 18 22
REMARK SMILES IDX 19 23
REMARK H PARENT
ROOT
ATOM      1  C   UNL     1     152.469 150.042 130.419  1.00  0.00    -0.023 C 
ATOM      2  C   UNL     1     152.038 151.167 129.793  1.00  0.00    -0.077 C 
ATOM      3  C   UNL     1     150.602 151.507 129.879  1.00  0.00     0.039 C 
ENDROOT
BRANCH   1   4
ATOM      4  C   UNL     1     151.603 149.141 131.177  1.00  0.00     0.066 C 
BRANCH   4   5
ATOM      5  C   UNL     1     151.679 147.711 130.827  1.00  0.00    -0.009 A 
ATOM      6  C   UNL     1     152.467 146.796 131.475  1.00  0.00     0.125 A 
ATOM      7  C   UNL     1     152.448 145.463 131.042  1.00  0.00    -0.001 A 
ATOM      8  C   UNL     1     151.669 145.034 129.991  1.00  0.00     0.010 A 
ATOM      9  C   UNL     1     150.892 147.256 129.757  1.00  0.00    -0.086 A 
ATOM     10  C   UNL     1     150.876 145.948 129.336  1.00  0.00     0.059 A 
ATOM     11  C   UNL     1     151.470 143.698 129.344  1.00  0.00     0.270 C 
ATOM     12  C   UNL     1     150.154 145.243 128.267  1.00  0.00     0.338 C 
ATOM     13  O   UNL     1     150.543 143.917 128.319  1.00  0.00    -0.457 OA
ATOM     14  O   UNL     1     149.329 145.784 127.459  1.00  0.00    -0.246 OA
ATOM     15  C   UNL     1     153.312 144.525 131.773  1.00  0.00     0.049 C 
ATOM     16  O   UNL     1     150.060 148.122 129.040  1.00  0.00    -0.872 OA
BRANCH   6  17
ATOM     17  O   UNL     1     153.271 147.177 132.534  1.00  0.00    -0.496 OA
ATOM     18  C   UNL     1     152.778 147.248 133.848  1.00  0.00     0.278 C 
ENDBRANCH   6  17
ENDBRANCH   4   5
ENDBRANCH   1   4
BRANCH   2  19
ATOM     19  C   UNL     1     152.955 152.016 129.028  1.00  0.00     0.036 C 
BRANCH  19  20
ATOM     20  C   UNL     1     152.659 152.156 127.566  1.00  0.00     0.057 C 
BRANCH  20  21
ATOM     21  C   UNL     1     152.866 150.955 126.751  1.00  0.00     0.042 C 
ATOM     22  O   UNL     1     154.008 150.626 126.346  1.00  0.00    -0.550 OA
ATOM     23  O   UNL     1     151.759 150.154 126.416  1.00  0.00    -0.550 OA
ENDBRANCH  20  21
ENDBRANCH  19  20
ENDBRANCH   2  19
TORSDOF 6
ENDMDL
MODEL 9
REMARK VINA RESULT:      -6.2      4.470      5.680
REMARK SMILES COc1c(C)c2c(c([O-])c1C/C=C(\C)CCC(=O)[O-])C(=O)OC2
REMARK SMILES IDX 12 1 13 2 14 3 11 4 10 5 3 6 4 7 6 8 8 9 7 10 23 11 20 12
REMARK SMILES IDX 22 13 21 14 5 15 9 16 2 17 1 18 15 19 16 20 17 21 18 22
REMARK SMILES IDX 19 23
REMARK H PARENT
ROOT
ATOM      1  C   UNL     1     146.334 146.843 130.078  1.00  0.00    -0.023 C 
ATOM      2  C   UNL     1     146.487 145.639 129.470  1.00  0.00    -0.077 C 
ATOM      3  C   UNL     1     145.284 144.970 128.933  1.00  0.00     0.039 C 
ENDROOT
BRANCH   1   4
ATOM      4  C   UNL     1     145.051 147.525 130.237  1.00  0.00     0.066 C 
BRANCH   4   5
ATOM      5  C   UNL     1     145.100 148.994 130.357  1.00  0.00    -0.009 A 
ATOM      6  C   UNL     1     145.193 149.671 131.544  1.00  0.00     0.125 A 
ATOM      7  C   UNL     1     145.232 151.073 131.520  1.00  0.00    -0.001 A 
ATOM      8  C   UNL     1     145.181 151.796 130.350  1.00  0.00     0.010 A 
ATOM      9  C   UNL     1     145.049 149.749 129.174  1.00  0.00    -0.086 A 
ATOM     10  C   UNL     1     145.088 151.122 129.154  1.00  0.00     0.059 A 
ATOM     11  C   UNL     1     145.205 153.266 130.055  1.00  0.00     0.270 C 
ATOM     12  C   UNL     1     145.051 152.116 128.071  1.00  0.00     0.338 C 
ATOM     13  O   UNL     1     145.124 153.364 128.662  1.00  0.00    -0.457 OA
ATOM     14  O   UNL     1     144.967 151.842 126.829  1.00  0.00    -0.246 OA
ATOM     15  C   UNL     1     145.331 151.747 132.822  1.00  0.00     0.049 C 
ATOM     16  O   UNL     1     144.954 149.139 127.919  1.00  0.00    -0.872 OA
BRANCH   6  17
ATOM     17  O   UNL     1     145.242 148.990 132.747  1.00  0.00    -0.496 OA
ATOM     18  C   UNL     1     146.459 148.561 133.304  1.00  0.00     0.278 C 
ENDBRANCH   6  17
ENDBRANCH   4   5
ENDBRANCH   1   4
BRANCH   2  19
ATOM     19  C   UNL     1     147.800 144.997 129.365  1.00  0.00     0.036 C 
BRANCH  19  20
ATOM     20  C   UNL     1     148.915 145.855 128.849  1.00  0.00     0.057 C 
BRANCH  20  21
ATOM     21  C   UNL     1     149.503 145.443 127.571  1.00  0.00     0.042 C 
ATOM     22  O   UNL     1     149.874 144.260 127.371  1.00  0.00    -0.550 OA
ATOM     23  O   UNL     1     149.655 146.396 126.547  1.00  0.00    -0.550 OA
ENDBRANCH  20  21
ENDBRANCH  19  20
ENDBRANCH   2  19
TORSDOF 6
ENDMDL
