MODEL 1
REMARK VINA RESULT:      -6.5      0.000      0.000
REMARK SMILES O=C1NCN(c2ccccc2)C12CC[NH+](CCCC(c1ccc(F)cc1)c1ccc(F)cc1)CC2
REMARK SMILES IDX 17 1 16 2 15 3 1 4 2 5 3 6 12 7 4 8 5 9 13 10 35 11 14 12
REMARK SMILES IDX 34 13 6 16 7 17 11 18 8 19 10 20 9 21 18 22 19 23 20 24
REMARK SMILES IDX 21 25 26 26 22 27 25 28 23 29 24 30 27 31 28 32 33 33 29 34
REMARK SMILES IDX 32 35 30 36 31 37
REMARK H PARENT 3 14 15 15
ROOT
ATOM      1  C   UNL     1     114.084  78.383  62.987  1.00  0.00     0.062 C 
ENDROOT
BRANCH   1   2
ATOM      2  C   UNL     1     115.243  78.033  62.102  1.00  0.00     0.262 C 
BRANCH   2   3
ATOM      3  N   UNL     1     115.448  76.589  62.089  1.00  0.00    -0.335 N 
ATOM      4  O   UNL     1     117.551  74.155  62.366  1.00  0.00    -0.272 OA
ATOM      5  C   UNL     1     116.671  73.403  61.898  1.00  0.00     0.247 C 
ATOM      6  N   UNL     1     116.842  72.025  61.674  1.00  0.00    -0.336 N 
ATOM      7  C   UNL     1     115.279  73.830  61.491  1.00  0.00     0.131 C 
ATOM      8  C   UNL     1     115.529  71.468  61.592  1.00  0.00     0.238 C 
ATOM      9  N   UNL     1     114.713  72.561  61.040  1.00  0.00    -0.339 N 
ATOM     10  C   UNL     1     115.391  74.840  60.366  1.00  0.00     0.100 C 
ATOM     11  C   UNL     1     114.612  74.400  62.691  1.00  0.00     0.100 C 
ATOM     12  C   UNL     1     116.023  76.127  60.843  1.00  0.00     0.265 C 
ATOM     13  C   UNL     1     114.278  75.838  62.461  1.00  0.00     0.265 C 
ATOM     14  H   UNL     1     117.769  71.527  61.589  1.00  0.00     0.165 HD
ATOM     15  H   UNL     1     116.165  76.428  62.830  1.00  0.00     0.348 HD
BRANCH   9  16
ATOM     16  C   UNL     1     113.597  72.293  60.207  1.00  0.00     0.039 A 
ATOM     17  C   UNL     1     113.750  71.653  59.000  1.00  0.00     0.026 A 
ATOM     18  C   UNL     1     112.349  72.655  60.613  1.00  0.00     0.026 A 
ATOM     19  C   UNL     1     112.654  71.366  58.180  1.00  0.00     0.002 A 
ATOM     20  C   UNL     1     111.264  72.384  59.826  1.00  0.00     0.002 A 
ATOM     21  C   UNL     1     111.405  71.746  58.621  1.00  0.00     0.000 A 
ENDBRANCH   9  16
ENDBRANCH   2   3
ENDBRANCH   1   2
BRANCH   1  22
ATOM     22  C   UNL     1     113.499  79.719  62.825  1.00  0.00     0.019 C 
BRANCH  22  23
ATOM     23  C   UNL     1     113.166  80.578  63.953  1.00  0.00     0.049 C 
BRANCH  23  24
ATOM     24  C   UNL     1     114.251  81.528  64.390  1.00  0.00    -0.040 A 
ATOM     25  C   UNL     1     115.032  81.127  65.450  1.00  0.00     0.007 A 
ATOM     26  C   UNL     1     114.451  82.745  63.794  1.00  0.00     0.007 A 
ATOM     27  C   UNL     1     116.026  81.946  65.923  1.00  0.00     0.039 A 
ATOM     28  C   UNL     1     115.443  83.559  64.269  1.00  0.00     0.039 A 
ATOM     29  C   UNL     1     116.252  83.175  65.345  1.00  0.00     0.123 A 
ATOM     30  F   UNL     1     117.237  83.977  65.821  1.00  0.00    -0.207 F 
ENDBRANCH  23  24
BRANCH  23  31
ATOM     31  C   UNL     1     111.861  81.211  64.048  1.00  0.00    -0.040 A 
ATOM     32  C   UNL     1     111.062  81.598  63.008  1.00  0.00     0.007 A 
ATOM     33  C   UNL     1     111.405  81.453  65.350  1.00  0.00     0.007 A 
ATOM     34  C   UNL     1     109.837  82.215  63.290  1.00  0.00     0.039 A 
ATOM     35  C   UNL     1     110.219  82.048  65.635  1.00  0.00     0.039 A 
ATOM     36  C   UNL     1     109.425  82.434  64.580  1.00  0.00     0.123 A 
ATOM     37  F   UNL     1     108.240  83.029  64.880  1.00  0.00    -0.207 F 
ENDBRANCH  23  31
ENDBRANCH  22  23
ENDBRANCH   1  22
TORSDOF 7
ENDMDL
MODEL 2
REMARK VINA RESULT:      -6.4     16.653     20.207
REMARK SMILES O=C1NCN(c2ccccc2)C12CC[NH+](CCCC(c1ccc(F)cc1)c1ccc(F)cc1)CC2
REMARK SMILES IDX 17 1 16 2 15 3 1 4 2 5 3 6 12 7 4 8 5 9 13 10 35 11 14 12
REMARK SMILES IDX 34 13 6 16 7 17 11 18 8 19 10 20 9 21 18 22 19 23 20 24
REMARK SMILES IDX 21 25 26 26 22 27 25 28 23 29 24 30 27 31 28 32 33 33 29 34
REMARK SMILES IDX 32 35 30 36 31 37
REMARK H PARENT 3 14 15 15
ROOT
ATOM      1  C   UNL     1      98.837  84.962  71.591  1.00  0.00     0.062 C 
ENDROOT
BRANCH   1   2
ATOM      2  C   UNL     1      99.186  85.539  72.931  1.00  0.00     0.262 C 
BRANCH   2   3
ATOM      3  N   UNL     1      99.383  86.980  72.822  1.00  0.00    -0.335 N 
ATOM      4  O   UNL     1      98.260  89.923  73.534  1.00  0.00    -0.272 OA
ATOM      5  C   UNL     1      99.070  90.382  72.702  1.00  0.00     0.247 C 
ATOM      6  N   UNL     1      99.201  91.748  72.394  1.00  0.00    -0.336 N 
ATOM      7  C   UNL     1     100.045  89.566  71.885  1.00  0.00     0.131 C 
ATOM      8  C   UNL     1     100.488  91.899  71.791  1.00  0.00     0.238 C 
ATOM      9  N   UNL     1     100.719  90.611  71.119  1.00  0.00    -0.339 N 
ATOM     10  C   UNL     1      99.261  88.620  70.997  1.00  0.00     0.100 C 
ATOM     11  C   UNL     1     100.931  88.839  72.832  1.00  0.00     0.100 C 
ATOM     12  C   UNL     1      98.533  87.577  71.813  1.00  0.00     0.265 C 
ATOM     13  C   UNL     1     100.762  87.364  72.669  1.00  0.00     0.265 C 
ATOM     14  H   UNL     1      98.477  92.493  72.583  1.00  0.00     0.165 HD
ATOM     15  H   UNL     1      99.062  87.350  73.743  1.00  0.00     0.348 HD
BRANCH   9  16
ATOM     16  C   UNL     1     101.475  90.535  69.922  1.00  0.00     0.039 A 
ATOM     17  C   UNL     1     102.640  89.806  69.863  1.00  0.00     0.026 A 
ATOM     18  C   UNL     1     101.035  91.174  68.804  1.00  0.00     0.026 A 
ATOM     19  C   UNL     1     103.382  89.707  68.683  1.00  0.00     0.002 A 
ATOM     20  C   UNL     1     101.747  91.090  67.639  1.00  0.00     0.002 A 
ATOM     21  C   UNL     1     102.908  90.366  67.568  1.00  0.00     0.000 A 
ENDBRANCH   9  16
ENDBRANCH   2   3
ENDBRANCH   1   2
BRANCH   1  22
ATOM     22  C   UNL     1      99.896  84.238  70.878  1.00  0.00     0.019 C 
BRANCH  22  23
ATOM     23  C   UNL     1     100.083  84.330  69.437  1.00  0.00     0.049 C 
BRANCH  23  24
ATOM     24  C   UNL     1      99.674  83.113  68.648  1.00  0.00    -0.040 A 
ATOM     25  C   UNL     1     100.570  82.660  67.705  1.00  0.00     0.007 A 
ATOM     26  C   UNL     1      98.468  82.489  68.826  1.00  0.00     0.007 A 
ATOM     27  C   UNL     1     100.261  81.571  66.929  1.00  0.00     0.039 A 
ATOM     28  C   UNL     1      98.164  81.403  68.050  1.00  0.00     0.039 A 
ATOM     29  C   UNL     1      99.057  80.922  67.085  1.00  0.00     0.123 A 
ATOM     30  F   UNL     1      98.762  79.847  66.311  1.00  0.00    -0.207 F 
ENDBRANCH  23  24
BRANCH  23  31
ATOM     31  C   UNL     1      99.741  85.546  68.718  1.00  0.00    -0.040 A 
ATOM     32  C   UNL     1      98.489  85.959  68.357  1.00  0.00     0.007 A 
ATOM     33  C   UNL     1     100.827  86.353  68.354  1.00  0.00     0.007 A 
ATOM     34  C   UNL     1      98.350  87.157  67.646  1.00  0.00     0.039 A 
ATOM     35  C   UNL     1     100.705  87.517  67.666  1.00  0.00     0.039 A 
ATOM     36  C   UNL     1      99.439  87.919  67.308  1.00  0.00     0.123 A 
ATOM     37  F   UNL     1      99.331  89.087  66.619  1.00  0.00    -0.207 F 
ENDBRANCH  23  31
ENDBRANCH  22  23
ENDBRANCH   1  22
TORSDOF 7
ENDMDL
MODEL 3
REMARK VINA RESULT:      -6.3      5.778      8.362
REMARK SMILES O=C1NCN(c2ccccc2)C12CC[NH+](CCCC(c1ccc(F)cc1)c1ccc(F)cc1)CC2
REMARK SMILES IDX 17 1 16 2 15 3 1 4 2 5 3 6 12 7 4 8 5 9 13 10 35 11 14 12
REMARK SMILES IDX 34 13 6 16 7 17 11 18 8 19 10 20 9 21 18 22 19 23 20 24
REMARK SMILES IDX 21 25 26 26 22 27 25 28 23 29 24 30 27 31 28 32 33 33 29 34
REMARK SMILES IDX 32 35 30 36 31 37
REMARK H PARENT 3 14 15 15
ROOT
ATOM      1  C   UNL     1     110.989  80.749  61.236  1.00  0.00     0.062 C 
ENDROOT
BRANCH   1   2
ATOM      2  C   UNL     1     112.350  81.153  60.749  1.00  0.00     0.262 C 
BRANCH   2   3
ATOM      3  N   UNL     1     113.293  81.184  61.862  1.00  0.00    -0.335 N 
ATOM      4  O   UNL     1     115.707  79.689  63.400  1.00  0.00    -0.272 OA
ATOM      5  C   UNL     1     115.526  80.477  64.351  1.00  0.00     0.247 C 
ATOM      6  N   UNL     1     116.267  80.460  65.546  1.00  0.00    -0.336 N 
ATOM      7  C   UNL     1     114.492  81.578  64.393  1.00  0.00     0.131 C 
ATOM      8  C   UNL     1     116.092  81.747  66.143  1.00  0.00     0.238 C 
ATOM      9  N   UNL     1     114.749  82.160  65.708  1.00  0.00    -0.339 N 
ATOM     10  C   UNL     1     113.114  80.954  64.301  1.00  0.00     0.100 C 
ATOM     11  C   UNL     1     114.766  82.499  63.258  1.00  0.00     0.100 C 
ATOM     12  C   UNL     1     112.888  80.317  62.949  1.00  0.00     0.265 C 
ATOM     13  C   UNL     1     113.609  82.513  62.314  1.00  0.00     0.265 C 
ATOM     14  H   UNL     1     116.833  79.645  65.907  1.00  0.00     0.165 HD
ATOM     15  H   UNL     1     114.167  80.778  61.463  1.00  0.00     0.348 HD
BRANCH   9  16
ATOM     16  C   UNL     1     113.931  82.975  66.531  1.00  0.00     0.039 A 
ATOM     17  C   UNL     1     114.353  83.377  67.776  1.00  0.00     0.026 A 
ATOM     18  C   UNL     1     112.715  83.386  66.078  1.00  0.00     0.026 A 
ATOM     19  C   UNL     1     113.564  84.197  68.588  1.00  0.00     0.002 A 
ATOM     20  C   UNL     1     111.927  84.189  66.857  1.00  0.00     0.002 A 
ATOM     21  C   UNL     1     112.338  84.596  68.099  1.00  0.00     0.000 A 
ENDBRANCH   9  16
ENDBRANCH   2   3
ENDBRANCH   1   2
BRANCH   1  22
ATOM     22  C   UNL     1     110.026  81.824  61.497  1.00  0.00     0.019 C 
BRANCH  22  23
ATOM     23  C   UNL     1     110.002  82.578  62.743  1.00  0.00     0.049 C 
BRANCH  23  24
ATOM     24  C   UNL     1     110.017  84.077  62.598  1.00  0.00    -0.040 A 
ATOM     25  C   UNL     1     110.625  84.582  61.469  1.00  0.00     0.007 A 
ATOM     26  C   UNL     1     109.483  84.916  63.539  1.00  0.00     0.007 A 
ATOM     27  C   UNL     1     110.701  85.938  61.276  1.00  0.00     0.039 A 
ATOM     28  C   UNL     1     109.561  86.268  63.342  1.00  0.00     0.039 A 
ATOM     29  C   UNL     1     110.172  86.806  62.204  1.00  0.00     0.123 A 
ATOM     30  F   UNL     1     110.254  88.146  62.001  1.00  0.00    -0.207 F 
ENDBRANCH  23  24
BRANCH  23  31
ATOM     31  C   UNL     1     109.135  82.177  63.838  1.00  0.00    -0.040 A 
ATOM     32  C   UNL     1     109.475  82.086  65.159  1.00  0.00     0.007 A 
ATOM     33  C   UNL     1     107.825  81.840  63.474  1.00  0.00     0.007 A 
ATOM     34  C   UNL     1     108.508  81.661  66.079  1.00  0.00     0.039 A 
ATOM     35  C   UNL     1     106.879  81.428  64.356  1.00  0.00     0.039 A 
ATOM     36  C   UNL     1     107.235  81.339  65.682  1.00  0.00     0.123 A 
ATOM     37  F   UNL     1     106.277  80.925  66.555  1.00  0.00    -0.207 F 
ENDBRANCH  23  31
ENDBRANCH  22  23
ENDBRANCH   1  22
TORSDOF 7
ENDMDL
MODEL 4
REMARK VINA RESULT:      -6.3      4.296      7.094
REMARK SMILES O=C1NCN(c2ccccc2)C12CC[NH+](CCCC(c1ccc(F)cc1)c1ccc(F)cc1)CC2
REMARK SMILES IDX 17 1 16 2 15 3 1 4 2 5 3 6 12 7 4 8 5 9 13 10 35 11 14 12
REMARK SMILES IDX 34 13 6 16 7 17 11 18 8 19 10 20 9 21 18 22 19 23 20 24
REMARK SMILES IDX 21 25 26 26 22 27 25 28 23 29 24 30 27 31 28 32 33 33 29 34
REMARK SMILES IDX 32 35 30 36 31 37
REMARK H PARENT 3 14 15 15
ROOT
ATOM      1  C   UNL     1     110.521  80.864  61.419  1.00  0.00     0.062 C 
ENDROOT
BRANCH   1   2
ATOM      2  C   UNL     1     111.418  80.148  60.452  1.00  0.00     0.262 C 
BRANCH   2   3
ATOM      3  N   UNL     1     112.637  79.714  61.124  1.00  0.00    -0.335 N 
ATOM      4  O   UNL     1     114.394  77.223  62.192  1.00  0.00    -0.272 OA
ATOM      5  C   UNL     1     115.077  78.044  62.840  1.00  0.00     0.247 C 
ATOM      6  N   UNL     1     116.160  77.696  63.666  1.00  0.00    -0.336 N 
ATOM      7  C   UNL     1     114.868  79.540  62.855  1.00  0.00     0.131 C 
ATOM      8  C   UNL     1     116.932  78.887  63.835  1.00  0.00     0.238 C 
ATOM      9  N   UNL     1     115.939  79.969  63.751  1.00  0.00    -0.339 N 
ATOM     10  C   UNL     1     113.494  79.832  63.423  1.00  0.00     0.100 C 
ATOM     11  C   UNL     1     115.012  80.032  61.459  1.00  0.00     0.100 C 
ATOM     12  C   UNL     1     112.402  79.339  62.503  1.00  0.00     0.265 C 
ATOM     13  C   UNL     1     113.731  80.640  60.991  1.00  0.00     0.265 C 
ATOM     14  H   UNL     1     116.344  76.736  64.067  1.00  0.00     0.165 HD
ATOM     15  H   UNL     1     112.909  78.843  60.617  1.00  0.00     0.348 HD
BRANCH   9  16
ATOM     16  C   UNL     1     116.103  81.172  64.484  1.00  0.00     0.039 A 
ATOM     17  C   UNL     1     116.016  81.185  65.855  1.00  0.00     0.026 A 
ATOM     18  C   UNL     1     116.372  82.332  63.824  1.00  0.00     0.026 A 
ATOM     19  C   UNL     1     116.196  82.362  66.589  1.00  0.00     0.002 A 
ATOM     20  C   UNL     1     116.551  83.494  64.522  1.00  0.00     0.002 A 
ATOM     21  C   UNL     1     116.467  83.519  65.890  1.00  0.00     0.000 A 
ENDBRANCH   9  16
ENDBRANCH   2   3
ENDBRANCH   1   2
BRANCH   1  22
ATOM     22  C   UNL     1     110.482  82.328  61.336  1.00  0.00     0.019 C 
BRANCH  22  23
ATOM     23  C   UNL     1     110.166  83.176  62.477  1.00  0.00     0.049 C 
BRANCH  23  24
ATOM     24  C   UNL     1     110.850  82.811  63.769  1.00  0.00    -0.040 A 
ATOM     25  C   UNL     1     112.153  83.233  63.918  1.00  0.00     0.007 A 
ATOM     26  C   UNL     1     110.236  82.076  64.748  1.00  0.00     0.007 A 
ATOM     27  C   UNL     1     112.852  82.920  65.056  1.00  0.00     0.039 A 
ATOM     28  C   UNL     1     110.938  81.767  65.882  1.00  0.00     0.039 A 
ATOM     29  C   UNL     1     112.262  82.184  66.058  1.00  0.00     0.123 A 
ATOM     30  F   UNL     1     112.965  81.881  67.179  1.00  0.00    -0.207 F 
ENDBRANCH  23  24
BRANCH  23  31
ATOM     31  C   UNL     1     110.081  84.619  62.332  1.00  0.00    -0.040 A 
ATOM     32  C   UNL     1     109.408  85.485  63.148  1.00  0.00     0.007 A 
ATOM     33  C   UNL     1     110.752  85.151  61.223  1.00  0.00     0.007 A 
ATOM     34  C   UNL     1     109.420  86.852  62.841  1.00  0.00     0.039 A 
ATOM     35  C   UNL     1     110.771  86.473  60.916  1.00  0.00     0.039 A 
ATOM     36  C   UNL     1     110.089  87.334  61.745  1.00  0.00     0.123 A 
ATOM     37  F   UNL     1     110.117  88.656  61.425  1.00  0.00    -0.207 F 
ENDBRANCH  23  31
ENDBRANCH  22  23
ENDBRANCH   1  22
TORSDOF 7
ENDMDL
MODEL 5
REMARK VINA RESULT:      -6.3     11.076     15.915
REMARK SMILES O=C1NCN(c2ccccc2)C12CC[NH+](CCCC(c1ccc(F)cc1)c1ccc(F)cc1)CC2
REMARK SMILES IDX 17 1 16 2 15 3 1 4 2 5 3 6 12 7 4 8 5 9 13 10 35 11 14 12
REMARK SMILES IDX 34 13 6 16 7 17 11 18 8 19 10 20 9 21 18 22 19 23 20 24
REMARK SMILES IDX 21 25 26 26 22 27 25 28 23 29 24 30 27 31 28 32 33 33 29 34
REMARK SMILES IDX 32 35 30 36 31 37
REMARK H PARENT 3 14 15 15
ROOT
ATOM      1  C   UNL     1     101.592  75.528  61.689  1.00  0.00     0.062 C 
ENDROOT
BRANCH   1   2
ATOM      2  C   UNL     1     100.221  76.109  61.873  1.00  0.00     0.262 C 
BRANCH   2   3
ATOM      3  N   UNL     1     100.166  76.889  63.104  1.00  0.00    -0.335 N 
ATOM      4  O   UNL     1      98.333  78.001  65.519  1.00  0.00    -0.272 OA
ATOM      5  C   UNL     1      99.271  78.770  65.815  1.00  0.00     0.247 C 
ATOM      6  N   UNL     1      99.236  79.692  66.876  1.00  0.00    -0.336 N 
ATOM      7  C   UNL     1     100.599  78.850  65.096  1.00  0.00     0.131 C 
ATOM      8  C   UNL     1     100.597  80.018  67.166  1.00  0.00     0.238 C 
ATOM      9  N   UNL     1     101.279  79.886  65.869  1.00  0.00    -0.339 N 
ATOM     10  C   UNL     1     100.349  79.273  63.663  1.00  0.00     0.100 C 
ATOM     11  C   UNL     1     101.240  77.511  65.181  1.00  0.00     0.100 C 
ATOM     12  C   UNL     1      99.604  78.207  62.895  1.00  0.00     0.265 C 
ATOM     13  C   UNL     1     101.417  76.937  63.813  1.00  0.00     0.265 C 
ATOM     14  H   UNL     1      98.363  80.054  67.346  1.00  0.00     0.165 HD
ATOM     15  H   UNL     1      99.492  76.366  63.705  1.00  0.00     0.348 HD
BRANCH   9  16
ATOM     16  C   UNL     1     102.390  80.702  65.539  1.00  0.00     0.039 A 
ATOM     17  C   UNL     1     103.651  80.168  65.416  1.00  0.00     0.026 A 
ATOM     18  C   UNL     1     102.208  82.033  65.319  1.00  0.00     0.026 A 
ATOM     19  C   UNL     1     104.751  80.960  65.070  1.00  0.00     0.002 A 
ATOM     20  C   UNL     1     103.271  82.825  64.980  1.00  0.00     0.002 A 
ATOM     21  C   UNL     1     104.532  82.304  64.854  1.00  0.00     0.000 A 
ENDBRANCH   9  16
ENDBRANCH   2   3
ENDBRANCH   1   2
BRANCH   1  22
ATOM     22  C   UNL     1     101.714  74.068  61.758  1.00  0.00     0.019 C 
BRANCH  22  23
ATOM     23  C   UNL     1     101.947  73.353  63.006  1.00  0.00     0.049 C 
BRANCH  23  24
ATOM     24  C   UNL     1     100.711  72.893  63.733  1.00  0.00    -0.040 A 
ATOM     25  C   UNL     1      99.667  72.447  62.954  1.00  0.00     0.007 A 
ATOM     26  C   UNL     1     100.600  72.932  65.098  1.00  0.00     0.007 A 
ATOM     27  C   UNL     1      98.497  72.033  63.541  1.00  0.00     0.039 A 
ATOM     28  C   UNL     1      99.432  72.518  65.679  1.00  0.00     0.039 A 
ATOM     29  C   UNL     1      98.356  72.059  64.910  1.00  0.00     0.123 A 
ATOM     30  F   UNL     1      97.194  71.648  65.479  1.00  0.00    -0.207 F 
ENDBRANCH  23  24
BRANCH  23  31
ATOM     31  C   UNL     1     103.002  72.358  63.108  1.00  0.00    -0.040 A 
ATOM     32  C   UNL     1     102.950  71.063  62.676  1.00  0.00     0.007 A 
ATOM     33  C   UNL     1     104.178  72.794  63.732  1.00  0.00     0.007 A 
ATOM     34  C   UNL     1     104.063  70.237  62.877  1.00  0.00     0.039 A 
ATOM     35  C   UNL     1     105.264  72.004  63.931  1.00  0.00     0.039 A 
ATOM     36  C   UNL     1     105.197  70.701  63.493  1.00  0.00     0.123 A 
ATOM     37  F   UNL     1     106.292  69.921  63.699  1.00  0.00    -0.207 F 
ENDBRANCH  23  31
ENDBRANCH  22  23
ENDBRANCH   1  22
TORSDOF 7
ENDMDL
MODEL 6
REMARK VINA RESULT:      -6.3      3.720      8.887
REMARK SMILES O=C1NCN(c2ccccc2)C12CC[NH+](CCCC(c1ccc(F)cc1)c1ccc(F)cc1)CC2
REMARK SMILES IDX 17 1 16 2 15 3 1 4 2 5 3 6 12 7 4 8 5 9 13 10 35 11 14 12
REMARK SMILES IDX 34 13 6 16 7 17 11 18 8 19 10 20 9 21 18 22 19 23 20 24
REMARK SMILES IDX 21 25 26 26 22 27 25 28 23 29 24 30 27 31 28 32 33 33 29 34
REMARK SMILES IDX 32 35 30 36 31 37
REMARK H PARENT 3 14 15 15
ROOT
ATOM      1  C   UNL     1     117.404  77.907  63.046  1.00  0.00     0.062 C 
ENDROOT
BRANCH   1   2
ATOM      2  C   UNL     1     117.753  79.288  62.573  1.00  0.00     0.262 C 
BRANCH   2   3
ATOM      3  N   UNL     1     117.279  80.282  63.529  1.00  0.00    -0.335 N 
ATOM      4  O   UNL     1     117.778  81.772  66.350  1.00  0.00    -0.272 OA
ATOM      5  C   UNL     1     116.608  82.201  66.277  1.00  0.00     0.247 C 
ATOM      6  N   UNL     1     116.000  83.017  67.248  1.00  0.00    -0.336 N 
ATOM      7  C   UNL     1     115.642  81.927  65.147  1.00  0.00     0.131 C 
ATOM      8  C   UNL     1     114.895  83.651  66.602  1.00  0.00     0.238 C 
ATOM      9  N   UNL     1     114.467  82.675  65.588  1.00  0.00    -0.339 N 
ATOM     10  C   UNL     1     115.382  80.435  65.082  1.00  0.00     0.100 C 
ATOM     11  C   UNL     1     116.255  82.443  63.894  1.00  0.00     0.100 C 
ATOM     12  C   UNL     1     116.623  79.678  64.670  1.00  0.00     0.265 C 
ATOM     13  C   UNL     1     116.484  81.323  62.932  1.00  0.00     0.265 C 
ATOM     14  H   UNL     1     116.319  83.122  68.249  1.00  0.00     0.165 HD
ATOM     15  H   UNL     1     118.152  80.727  63.885  1.00  0.00     0.348 HD
BRANCH   9  16
ATOM     16  C   UNL     1     113.107  82.565  65.203  1.00  0.00     0.039 A 
ATOM     17  C   UNL     1     112.166  82.050  66.063  1.00  0.00     0.026 A 
ATOM     18  C   UNL     1     112.717  82.995  63.972  1.00  0.00     0.026 A 
ATOM     19  C   UNL     1     110.818  81.957  65.702  1.00  0.00     0.002 A 
ATOM     20  C   UNL     1     111.404  82.912  63.599  1.00  0.00     0.002 A 
ATOM     21  C   UNL     1     110.457  82.401  64.448  1.00  0.00     0.000 A 
ENDBRANCH   9  16
ENDBRANCH   2   3
ENDBRANCH   1   2
BRANCH   1  22
ATOM     22  C   UNL     1     116.797  76.999  62.067  1.00  0.00     0.019 C 
BRANCH  22  23
ATOM     23  C   UNL     1     115.415  76.550  62.157  1.00  0.00     0.049 C 
BRANCH  23  24
ATOM     24  C   UNL     1     114.371  77.631  62.058  1.00  0.00    -0.040 A 
ATOM     25  C   UNL     1     114.340  78.353  60.886  1.00  0.00     0.007 A 
ATOM     26  C   UNL     1     113.504  77.917  63.079  1.00  0.00     0.007 A 
ATOM     27  C   UNL     1     113.434  79.371  60.728  1.00  0.00     0.039 A 
ATOM     28  C   UNL     1     112.601  78.933  62.917  1.00  0.00     0.039 A 
ATOM     29  C   UNL     1     112.548  79.681  61.735  1.00  0.00     0.123 A 
ATOM     30  F   UNL     1     111.657  80.690  61.567  1.00  0.00    -0.207 F 
ENDBRANCH  23  24
BRANCH  23  31
ATOM     31  C   UNL     1     114.975  75.348  61.467  1.00  0.00    -0.040 A 
ATOM     32  C   UNL     1     115.389  74.913  60.239  1.00  0.00     0.007 A 
ATOM     33  C   UNL     1     114.017  74.583  62.146  1.00  0.00     0.007 A 
ATOM     34  C   UNL     1     114.839  73.735  59.719  1.00  0.00     0.039 A 
ATOM     35  C   UNL     1     113.479  73.439  61.652  1.00  0.00     0.039 A 
ATOM     36  C   UNL     1     113.902  73.013  60.415  1.00  0.00     0.123 A 
ATOM     37  F   UNL     1     113.355  71.865  59.933  1.00  0.00    -0.207 F 
ENDBRANCH  23  31
ENDBRANCH  22  23
ENDBRANCH   1  22
TORSDOF 7
ENDMDL
MODEL 7
REMARK VINA RESULT:      -6.3      7.420      8.929
REMARK SMILES O=C1NCN(c2ccccc2)C12CC[NH+](CCCC(c1ccc(F)cc1)c1ccc(F)cc1)CC2
REMARK SMILES IDX 17 1 16 2 15 3 1 4 2 5 3 6 12 7 4 8 5 9 13 10 35 11 14 12
REMARK SMILES IDX 34 13 6 16 7 17 11 18 8 19 10 20 9 21 18 22 19 23 20 24
REMARK SMILES IDX 21 25 26 26 22 27 25 28 23 29 24 30 27 31 28 32 33 33 29 34
REMARK SMILES IDX 32 35 30 36 31 37
REMARK H PARENT 3 14 15 15
ROOT
ATOM      1  C   UNL     1     108.215  82.141  65.412  1.00  0.00     0.062 C 
ENDROOT
BRANCH   1   2
ATOM      2  C   UNL     1     107.520  82.065  64.084  1.00  0.00     0.262 C 
BRANCH   2   3
ATOM      3  N   UNL     1     106.285  81.300  64.206  1.00  0.00    -0.335 N 
ATOM      4  O   UNL     1     103.672  80.652  65.989  1.00  0.00    -0.272 OA
ATOM      5  C   UNL     1     103.477  79.659  65.258  1.00  0.00     0.247 C 
ATOM      6  N   UNL     1     102.412  78.754  65.417  1.00  0.00    -0.336 N 
ATOM      7  C   UNL     1     104.338  79.251  64.085  1.00  0.00     0.131 C 
ATOM      8  C   UNL     1     102.273  78.078  64.166  1.00  0.00     0.238 C 
ATOM      9  N   UNL     1     103.638  78.056  63.619  1.00  0.00    -0.339 N 
ATOM     10  C   UNL     1     105.732  78.938  64.592  1.00  0.00     0.100 C 
ATOM     11  C   UNL     1     104.337  80.374  63.111  1.00  0.00     0.100 C 
ATOM     12  C   UNL     1     106.420  80.179  65.113  1.00  0.00     0.265 C 
ATOM     13  C   UNL     1     105.720  80.912  62.940  1.00  0.00     0.265 C 
ATOM     14  H   UNL     1     101.844  78.622  66.297  1.00  0.00     0.165 HD
ATOM     15  H   UNL     1     105.617  81.967  64.649  1.00  0.00     0.348 HD
BRANCH   9  16
ATOM     16  C   UNL     1     104.084  76.986  62.803  1.00  0.00     0.039 A 
ATOM     17  C   UNL     1     104.792  77.221  61.648  1.00  0.00     0.026 A 
ATOM     18  C   UNL     1     103.829  75.702  63.175  1.00  0.00     0.026 A 
ATOM     19  C   UNL     1     105.254  76.173  60.846  1.00  0.00     0.002 A 
ATOM     20  C   UNL     1     104.272  74.662  62.405  1.00  0.00     0.002 A 
ATOM     21  C   UNL     1     104.978  74.885  61.252  1.00  0.00     0.000 A 
ENDBRANCH   9  16
ENDBRANCH   2   3
ENDBRANCH   1   2
BRANCH   1  22
ATOM     22  C   UNL     1     109.680  82.069  65.405  1.00  0.00     0.019 C 
BRANCH  22  23
ATOM     23  C   UNL     1     110.528  83.248  65.302  1.00  0.00     0.049 C 
BRANCH  23  24
ATOM     24  C   UNL     1     111.855  83.161  66.010  1.00  0.00    -0.040 A 
ATOM     25  C   UNL     1     112.120  84.135  66.947  1.00  0.00     0.007 A 
ATOM     26  C   UNL     1     112.776  82.186  65.735  1.00  0.00     0.007 A 
ATOM     27  C   UNL     1     113.316  84.139  67.618  1.00  0.00     0.039 A 
ATOM     28  C   UNL     1     113.968  82.192  66.408  1.00  0.00     0.039 A 
ATOM     29  C   UNL     1     114.262  83.171  67.364  1.00  0.00     0.123 A 
ATOM     30  F   UNL     1     115.442  83.185  68.034  1.00  0.00    -0.207 F 
ENDBRANCH  23  24
BRANCH  23  31
ATOM     31  C   UNL     1     110.666  83.958  64.041  1.00  0.00    -0.040 A 
ATOM     32  C   UNL     1     111.505  83.639  63.010  1.00  0.00     0.007 A 
ATOM     33  C   UNL     1     109.856  85.093  63.900  1.00  0.00     0.007 A 
ATOM     34  C   UNL     1     111.518  84.454  61.871  1.00  0.00     0.039 A 
ATOM     35  C   UNL     1     109.859  85.889  62.800  1.00  0.00     0.039 A 
ATOM     36  C   UNL     1     110.709  85.557  61.771  1.00  0.00     0.123 A 
ATOM     37  F   UNL     1     110.701  86.364  60.675  1.00  0.00    -0.207 F 
ENDBRANCH  23  31
ENDBRANCH  22  23
ENDBRANCH   1  22
TORSDOF 7
ENDMDL
MODEL 8
REMARK VINA RESULT:      -6.3     10.364     15.103
REMARK SMILES O=C1NCN(c2ccccc2)C12CC[NH+](CCCC(c1ccc(F)cc1)c1ccc(F)cc1)CC2
REMARK SMILES IDX 17 1 16 2 15 3 1 4 2 5 3 6 12 7 4 8 5 9 13 10 35 11 14 12
REMARK SMILES IDX 34 13 6 16 7 17 11 18 8 19 10 20 9 21 18 22 19 23 20 24
REMARK SMILES IDX 21 25 26 26 22 27 25 28 23 29 24 30 27 31 28 32 33 33 29 34
REMARK SMILES IDX 32 35 30 36 31 37
REMARK H PARENT 3 14 15 15
ROOT
ATOM      1  C   UNL     1     101.713  75.448  61.356  1.00  0.00     0.062 C 
ENDROOT
BRANCH   1   2
ATOM      2  C   UNL     1     102.998  76.109  60.954  1.00  0.00     0.262 C 
BRANCH   2   3
ATOM      3  N   UNL     1     103.366  77.127  61.932  1.00  0.00    -0.335 N 
ATOM      4  O   UNL     1     105.667  78.313  63.863  1.00  0.00    -0.272 OA
ATOM      5  C   UNL     1     104.781  78.989  64.426  1.00  0.00     0.247 C 
ATOM      6  N   UNL     1     105.014  79.861  65.504  1.00  0.00    -0.336 N 
ATOM      7  C   UNL     1     103.315  78.994  64.057  1.00  0.00     0.131 C 
ATOM      8  C   UNL     1     103.899  80.755  65.542  1.00  0.00     0.238 C 
ATOM      9  N   UNL     1     102.782  79.953  65.021  1.00  0.00    -0.339 N 
ATOM     10  C   UNL     1     102.758  77.600  64.264  1.00  0.00     0.100 C 
ATOM     11  C   UNL     1     103.207  79.435  62.640  1.00  0.00     0.100 C 
ATOM     12  C   UNL     1     103.358  76.617  63.287  1.00  0.00     0.265 C 
ATOM     13  C   UNL     1     102.614  78.348  61.806  1.00  0.00     0.265 C 
ATOM     14  H   UNL     1     105.854  79.838  66.142  1.00  0.00     0.165 HD
ATOM     15  H   UNL     1     104.359  77.353  61.701  1.00  0.00     0.348 HD
BRANCH   9  16
ATOM     16  C   UNL     1     101.455  80.162  65.476  1.00  0.00     0.039 A 
ATOM     17  C   UNL     1     100.510  80.743  64.664  1.00  0.00     0.026 A 
ATOM     18  C   UNL     1     101.100  79.764  66.728  1.00  0.00     0.026 A 
ATOM     19  C   UNL     1      99.194  80.936  65.094  1.00  0.00     0.002 A 
ATOM     20  C   UNL     1      99.817  79.943  67.168  1.00  0.00     0.002 A 
ATOM     21  C   UNL     1      98.867  80.521  66.368  1.00  0.00     0.000 A 
ENDBRANCH   9  16
ENDBRANCH   2   3
ENDBRANCH   1   2
BRANCH   1  22
ATOM     22  C   UNL     1     101.735  73.990  61.519  1.00  0.00     0.019 C 
BRANCH  22  23
ATOM     23  C   UNL     1     101.904  73.342  62.812  1.00  0.00     0.049 C 
BRANCH  23  24
ATOM     24  C   UNL     1     100.635  72.889  63.485  1.00  0.00    -0.040 A 
ATOM     25  C   UNL     1     100.600  72.974  64.859  1.00  0.00     0.007 A 
ATOM     26  C   UNL     1      99.568  72.389  62.787  1.00  0.00     0.007 A 
ATOM     27  C   UNL     1      99.488  72.558  65.547  1.00  0.00     0.039 A 
ATOM     28  C   UNL     1      98.460  71.976  63.478  1.00  0.00     0.039 A 
ATOM     29  C   UNL     1      98.399  72.053  64.874  1.00  0.00     0.123 A 
ATOM     30  F   UNL     1      97.305  71.644  65.566  1.00  0.00    -0.207 F 
ENDBRANCH  23  24
BRANCH  23  31
ATOM     31  C   UNL     1     102.972  72.379  63.029  1.00  0.00    -0.040 A 
ATOM     32  C   UNL     1     102.944  71.046  62.730  1.00  0.00     0.007 A 
ATOM     33  C   UNL     1     104.132  72.894  63.622  1.00  0.00     0.007 A 
ATOM     34  C   UNL     1     104.065  70.262  63.029  1.00  0.00     0.039 A 
ATOM     35  C   UNL     1     105.225  72.144  63.915  1.00  0.00     0.039 A 
ATOM     36  C   UNL     1     105.183  70.804  63.610  1.00  0.00     0.123 A 
ATOM     37  F   UNL     1     106.286  70.065  63.909  1.00  0.00    -0.207 F 
ENDBRANCH  23  31
ENDBRANCH  22  23
ENDBRANCH   1  22
TORSDOF 7
ENDMDL
MODEL 9
REMARK VINA RESULT:      -6.2     10.455     14.071
REMARK SMILES O=C1NCN(c2ccccc2)C12CC[NH+](CCCC(c1ccc(F)cc1)c1ccc(F)cc1)CC2
REMARK SMILES IDX 17 1 16 2 15 3 1 4 2 5 3 6 12 7 4 8 5 9 13 10 35 11 14 12
REMARK SMILES IDX 34 13 6 16 7 17 11 18 8 19 10 20 9 21 18 22 19 23 20 24
REMARK SMILES IDX 21 25 26 26 22 27 25 28 23 29 24 30 27 31 28 32 33 33 29 34
REMARK SMILES IDX 32 35 30 36 31 37
REMARK H PARENT 3 14 15 15
ROOT
ATOM      1  C   UNL     1     103.246  74.808  60.343  1.00  0.00     0.062 C 
ENDROOT
BRANCH   1   2
ATOM      2  C   UNL     1     103.462  76.205  59.841  1.00  0.00     0.262 C 
BRANCH   2   3
ATOM      3  N   UNL     1     103.770  77.096  60.954  1.00  0.00    -0.335 N 
ATOM      4  O   UNL     1     106.045  78.298  62.905  1.00  0.00    -0.272 OA
ATOM      5  C   UNL     1     105.127  78.729  63.633  1.00  0.00     0.247 C 
ATOM      6  N   UNL     1     105.331  79.441  64.829  1.00  0.00    -0.336 N 
ATOM      7  C   UNL     1     103.648  78.566  63.368  1.00  0.00     0.131 C 
ATOM      8  C   UNL     1     104.109  80.133  65.094  1.00  0.00     0.238 C 
ATOM      9  N   UNL     1     103.074  79.261  64.517  1.00  0.00    -0.339 N 
ATOM     10  C   UNL     1     103.315  77.087  63.367  1.00  0.00     0.100 C 
ATOM     11  C   UNL     1     103.349  79.206  62.060  1.00  0.00     0.100 C 
ATOM     12  C   UNL     1     103.957  76.379  62.197  1.00  0.00     0.265 C 
ATOM     13  C   UNL     1     102.843  78.189  61.090  1.00  0.00     0.265 C 
ATOM     14  H   UNL     1     106.221  79.446  65.396  1.00  0.00     0.165 HD
ATOM     15  H   UNL     1     104.695  77.507  60.701  1.00  0.00     0.348 HD
BRANCH   9  16
ATOM     16  C   UNL     1     101.778  79.186  65.087  1.00  0.00     0.039 A 
ATOM     17  C   UNL     1     101.539  78.429  66.210  1.00  0.00     0.026 A 
ATOM     18  C   UNL     1     100.754  79.890  64.531  1.00  0.00     0.026 A 
ATOM     19  C   UNL     1     100.270  78.364  66.792  1.00  0.00     0.002 A 
ATOM     20  C   UNL     1      99.505  79.840  65.085  1.00  0.00     0.002 A 
ATOM     21  C   UNL     1      99.255  79.088  66.204  1.00  0.00     0.000 A 
ENDBRANCH   9  16
ENDBRANCH   2   3
ENDBRANCH   1   2
BRANCH   1  22
ATOM     22  C   UNL     1     101.857  74.370  60.524  1.00  0.00     0.019 C 
BRANCH  22  23
ATOM     23  C   UNL     1     101.394  73.690  61.725  1.00  0.00     0.049 C 
BRANCH  23  24
ATOM     24  C   UNL     1     102.407  72.805  62.404  1.00  0.00    -0.040 A 
ATOM     25  C   UNL     1     102.486  71.504  61.961  1.00  0.00     0.007 A 
ATOM     26  C   UNL     1     103.201  73.245  63.429  1.00  0.00     0.007 A 
ATOM     27  C   UNL     1     103.367  70.629  62.545  1.00  0.00     0.039 A 
ATOM     28  C   UNL     1     104.079  72.369  64.009  1.00  0.00     0.039 A 
ATOM     29  C   UNL     1     104.179  71.042  63.577  1.00  0.00     0.123 A 
ATOM     30  F   UNL     1     105.047  70.167  64.147  1.00  0.00    -0.207 F 
ENDBRANCH  23  24
BRANCH  23  31
ATOM     31  C   UNL     1     100.579  74.385  62.708  1.00  0.00    -0.040 A 
ATOM     32  C   UNL     1     100.328  75.728  62.760  1.00  0.00     0.007 A 
ATOM     33  C   UNL     1     100.018  73.575  63.704  1.00  0.00     0.007 A 
ATOM     34  C   UNL     1      99.531  76.228  63.796  1.00  0.00     0.039 A 
ATOM     35  C   UNL     1      99.243  74.048  64.713  1.00  0.00     0.039 A 
ATOM     36  C   UNL     1      98.999  75.401  64.754  1.00  0.00     0.123 A 
ATOM     37  F   UNL     1      98.221  75.861  65.770  1.00  0.00    -0.207 F 
ENDBRANCH  23  31
ENDBRANCH  22  23
ENDBRANCH   1  22
TORSDOF 7
ENDMDL
