MODEL 1
REMARK VINA RESULT:      -5.2      0.000      0.000
REMARK SMILES COc1ccc(-c2cc(=O)c3ccccc3o2)cc1
REMARK SMILES IDX 3 1 4 2 5 3 6 4 18 5 19 6 2 7 1 8 7 9 8 10 17 11 9 12 16 13
REMARK SMILES IDX 10 14 11 15 15 16 12 17 14 18 13 19
REMARK H PARENT
ROOT
ATOM      1  C   UNL     1    -101.642  74.589  -0.267  1.00  0.00     0.118 A 
ATOM      2  C   UNL     1    -101.875  75.919  -0.530  1.00  0.00     0.047 A 
ATOM      3  C   UNL     1    -102.853  76.644   0.162  1.00  0.00     0.016 A 
ATOM      4  C   UNL     1    -103.626  76.069   1.133  1.00  0.00     0.018 A 
ATOM      5  C   UNL     1    -103.376  74.724   1.385  1.00  0.00     0.016 A 
ATOM      6  C   UNL     1    -102.416  74.001   0.710  1.00  0.00     0.047 A 
ENDROOT
BRANCH   1   7
ATOM      7  O   UNL     1    -100.663  73.866  -0.961  1.00  0.00    -0.497 OA
ATOM      8  C   UNL     1     -99.482  73.419  -0.349  1.00  0.00     0.278 C 
ENDBRANCH   1   7
BRANCH   4   9
ATOM      9  C   UNL     1    -104.661  76.765   1.892  1.00  0.00     0.138 A 
ATOM     10  C   UNL     1    -105.984  76.728   1.535  1.00  0.00     0.100 A 
ATOM     11  O   UNL     1    -104.376  77.469   2.967  1.00  0.00    -0.456 OA
ATOM     12  C   UNL     1    -106.983  77.389   2.253  1.00  0.00     0.193 A 
ATOM     13  C   UNL     1    -105.264  78.113   3.685  1.00  0.00     0.138 A 
ATOM     14  O   UNL     1    -108.188  77.341   1.909  1.00  0.00    -0.289 OA
ATOM     15  C   UNL     1    -106.609  78.106   3.367  1.00  0.00     0.065 A 
ATOM     16  C   UNL     1    -104.871  78.841   4.819  1.00  0.00     0.048 A 
ATOM     17  C   UNL     1    -107.524  78.794   4.142  1.00  0.00     0.016 A 
ATOM     18  C   UNL     1    -105.766  79.518   5.584  1.00  0.00     0.004 A 
ATOM     19  C   UNL     1    -107.091  79.491   5.241  1.00  0.00     0.001 A 
ENDBRANCH   4   9
TORSDOF 2
ENDMDL
MODEL 2
REMARK VINA RESULT:      -5.2      0.603      1.232
REMARK SMILES COc1ccc(-c2cc(=O)c3ccccc3o2)cc1
REMARK SMILES IDX 3 1 4 2 5 3 6 4 18 5 19 6 2 7 1 8 7 9 8 10 17 11 9 12 16 13
REMARK SMILES IDX 10 14 11 15 15 16 12 17 14 18 13 19
REMARK H PARENT
ROOT
ATOM      1  C   UNL     1    -102.088  74.652  -0.022  1.00  0.00     0.118 A 
ATOM      2  C   UNL     1    -102.763  74.063   1.022  1.00  0.00     0.047 A 
ATOM      3  C   UNL     1    -103.671  74.783   1.808  1.00  0.00     0.016 A 
ATOM      4  C   UNL     1    -103.931  76.107   1.581  1.00  0.00     0.018 A 
ATOM      5  C   UNL     1    -103.239  76.685   0.522  1.00  0.00     0.016 A 
ATOM      6  C   UNL     1    -102.345  75.985  -0.260  1.00  0.00     0.047 A 
ENDROOT
BRANCH   1   7
ATOM      7  O   UNL     1    -101.181  73.929  -0.808  1.00  0.00    -0.497 OA
ATOM      8  C   UNL     1     -99.797  74.162  -0.769  1.00  0.00     0.278 C 
ENDBRANCH   1   7
BRANCH   4   9
ATOM      9  C   UNL     1    -104.864  76.917   2.361  1.00  0.00     0.138 A 
ATOM     10  C   UNL     1    -106.198  76.995   2.058  1.00  0.00     0.100 A 
ATOM     11  O   UNL     1    -104.469  77.617   3.403  1.00  0.00    -0.456 OA
ATOM     12  C   UNL     1    -107.099  77.765   2.797  1.00  0.00     0.193 A 
ATOM     13  C   UNL     1    -105.261  78.359   4.137  1.00  0.00     0.138 A 
ATOM     14  O   UNL     1    -108.317  77.823   2.503  1.00  0.00    -0.289 OA
ATOM     15  C   UNL     1    -106.614  78.471   3.874  1.00  0.00     0.065 A 
ATOM     16  C   UNL     1    -104.754  79.075   5.233  1.00  0.00     0.048 A 
ATOM     17  C   UNL     1    -107.426  79.261   4.665  1.00  0.00     0.016 A 
ATOM     18  C   UNL     1    -105.548  79.851   6.013  1.00  0.00     0.004 A 
ATOM     19  C   UNL     1    -106.884  79.941   5.725  1.00  0.00     0.001 A 
ENDBRANCH   4   9
TORSDOF 2
ENDMDL
MODEL 3
REMARK VINA RESULT:      -5.1      8.780     11.467
REMARK SMILES COc1ccc(-c2cc(=O)c3ccccc3o2)cc1
REMARK SMILES IDX 3 1 4 2 5 3 6 4 18 5 19 6 2 7 1 8 7 9 8 10 17 11 9 12 16 13
REMARK SMILES IDX 10 14 11 15 15 16 12 17 14 18 13 19
REMARK H PARENT
ROOT
ATOM      1  C   UNL     1     -97.487  73.121  11.874  1.00  0.00     0.118 A 
ATOM      2  C   UNL     1     -97.013  71.996  11.239  1.00  0.00     0.047 A 
ATOM      3  C   UNL     1     -96.991  71.895   9.843  1.00  0.00     0.016 A 
ATOM      4  C   UNL     1     -97.440  72.908   9.039  1.00  0.00     0.018 A 
ATOM      5  C   UNL     1     -97.916  74.036   9.699  1.00  0.00     0.016 A 
ATOM      6  C   UNL     1     -97.941  74.146  11.073  1.00  0.00     0.047 A 
ENDROOT
BRANCH   1   7
ATOM      7  O   UNL     1     -97.507  73.219  13.271  1.00  0.00    -0.497 OA
ATOM      8  C   UNL     1     -98.594  72.776  14.042  1.00  0.00     0.278 C 
ENDBRANCH   1   7
BRANCH   4   9
ATOM      9  C   UNL     1     -97.446  72.869   7.579  1.00  0.00     0.138 A 
ATOM     10  C   UNL     1     -96.295  72.946   6.838  1.00  0.00     0.100 A 
ATOM     11  O   UNL     1     -98.564  72.757   6.894  1.00  0.00    -0.456 OA
ATOM     12  C   UNL     1     -96.288  72.910   5.442  1.00  0.00     0.193 A 
ATOM     13  C   UNL     1     -98.627  72.718   5.585  1.00  0.00     0.138 A 
ATOM     14  O   UNL     1     -95.223  72.981   4.783  1.00  0.00    -0.289 OA
ATOM     15  C   UNL     1     -97.496  72.791   4.793  1.00  0.00     0.065 A 
ATOM     16  C   UNL     1     -99.865  72.597   4.935  1.00  0.00     0.048 A 
ATOM     17  C   UNL     1     -97.592  72.748   3.415  1.00  0.00     0.016 A 
ATOM     18  C   UNL     1     -99.964  72.553   3.581  1.00  0.00     0.004 A 
ATOM     19  C   UNL     1     -98.825  72.629   2.826  1.00  0.00     0.001 A 
ENDBRANCH   4   9
TORSDOF 2
ENDMDL
MODEL 4
REMARK VINA RESULT:      -5.0      1.182      1.634
REMARK SMILES COc1ccc(-c2cc(=O)c3ccccc3o2)cc1
REMARK SMILES IDX 3 1 4 2 5 3 6 4 18 5 19 6 2 7 1 8 7 9 8 10 17 11 9 12 16 13
REMARK SMILES IDX 10 14 11 15 15 16 12 17 14 18 13 19
REMARK H PARENT
ROOT
ATOM      1  C   UNL     1    -102.861  74.765   0.602  1.00  0.00     0.118 A 
ATOM      2  C   UNL     1    -103.128  76.050   0.191  1.00  0.00     0.047 A 
ATOM      3  C   UNL     1    -103.862  76.938   0.987  1.00  0.00     0.016 A 
ATOM      4  C   UNL     1    -104.352  76.572   2.212  1.00  0.00     0.018 A 
ATOM      5  C   UNL     1    -104.072  75.270   2.609  1.00  0.00     0.016 A 
ATOM      6  C   UNL     1    -103.349  74.388   1.834  1.00  0.00     0.047 A 
ENDROOT
BRANCH   1   7
ATOM      7  O   UNL     1    -102.125  73.879  -0.197  1.00  0.00    -0.497 OA
ATOM      8  C   UNL     1    -101.132  73.037   0.330  1.00  0.00     0.278 C 
ENDBRANCH   1   7
BRANCH   4   9
ATOM      9  C   UNL     1    -105.124  77.446   3.092  1.00  0.00     0.138 A 
ATOM     10  C   UNL     1    -106.466  77.662   2.918  1.00  0.00     0.100 A 
ATOM     11  O   UNL     1    -104.567  78.074   4.106  1.00  0.00    -0.456 OA
ATOM     12  C   UNL     1    -107.215  78.494   3.753  1.00  0.00     0.193 A 
ATOM     13  C   UNL     1    -105.212  78.868   4.926  1.00  0.00     0.138 A 
ATOM     14  O   UNL     1    -108.443  78.677   3.577  1.00  0.00    -0.289 OA
ATOM     15  C   UNL     1    -106.565  79.118   4.793  1.00  0.00     0.065 A 
ATOM     16  C   UNL     1    -104.537  79.500   5.982  1.00  0.00     0.048 A 
ATOM     17  C   UNL     1    -107.219  79.960   5.672  1.00  0.00     0.016 A 
ATOM     18  C   UNL     1    -105.176  80.328   6.849  1.00  0.00     0.004 A 
ATOM     19  C   UNL     1    -106.517  80.555   6.689  1.00  0.00     0.001 A 
ENDBRANCH   4   9
TORSDOF 2
ENDMDL
MODEL 5
REMARK VINA RESULT:      -5.0      6.285      9.330
REMARK SMILES COc1ccc(-c2cc(=O)c3ccccc3o2)cc1
REMARK SMILES IDX 3 1 4 2 5 3 6 4 18 5 19 6 2 7 1 8 7 9 8 10 17 11 9 12 16 13
REMARK SMILES IDX 10 14 11 15 15 16 12 17 14 18 13 19
REMARK H PARENT
ROOT
ATOM      1  C   UNL     1     -97.155  73.098   7.181  1.00  0.00     0.118 A 
ATOM      2  C   UNL     1     -96.327  73.377   6.118  1.00  0.00     0.047 A 
ATOM      3  C   UNL     1     -96.723  73.136   4.797  1.00  0.00     0.016 A 
ATOM      4  C   UNL     1     -97.950  72.610   4.495  1.00  0.00     0.018 A 
ATOM      5  C   UNL     1     -98.772  72.335   5.582  1.00  0.00     0.016 A 
ATOM      6  C   UNL     1     -98.393  72.570   6.887  1.00  0.00     0.047 A 
ENDROOT
BRANCH   1   7
ATOM      7  O   UNL     1     -96.757  73.341   8.502  1.00  0.00    -0.497 OA
ATOM      8  C   UNL     1     -97.387  72.738   9.602  1.00  0.00     0.278 C 
ENDBRANCH   1   7
BRANCH   4   9
ATOM      9  C   UNL     1     -98.426  72.334   3.142  1.00  0.00     0.138 A 
ATOM     10  C   UNL     1     -97.665  71.666   2.218  1.00  0.00     0.100 A 
ATOM     11  O   UNL     1     -99.619  72.714   2.737  1.00  0.00    -0.456 OA
ATOM     12  C   UNL     1     -98.109  71.396   0.922  1.00  0.00     0.193 A 
ATOM     13  C   UNL     1    -100.096  72.493   1.536  1.00  0.00     0.138 A 
ATOM     14  O   UNL     1     -97.396  70.782   0.093  1.00  0.00    -0.289 OA
ATOM     15  C   UNL     1     -99.368  71.824   0.569  1.00  0.00     0.065 A 
ATOM     16  C   UNL     1    -101.381  72.936   1.187  1.00  0.00     0.048 A 
ATOM     17  C   UNL     1     -99.896  71.605  -0.689  1.00  0.00     0.016 A 
ATOM     18  C   UNL     1    -101.904  72.722  -0.048  1.00  0.00     0.004 A 
ATOM     19  C   UNL     1    -101.157  72.056  -0.982  1.00  0.00     0.001 A 
ENDBRANCH   4   9
TORSDOF 2
ENDMDL
MODEL 6
REMARK VINA RESULT:      -5.0      6.686      8.035
REMARK SMILES COc1ccc(-c2cc(=O)c3ccccc3o2)cc1
REMARK SMILES IDX 3 1 4 2 5 3 6 4 18 5 19 6 2 7 1 8 7 9 8 10 17 11 9 12 16 13
REMARK SMILES IDX 10 14 11 15 15 16 12 17 14 18 13 19
REMARK H PARENT
ROOT
ATOM      1  C   UNL     1    -100.711  72.060  -0.588  1.00  0.00     0.118 A 
ATOM      2  C   UNL     1    -101.577  71.804   0.450  1.00  0.00     0.047 A 
ATOM      3  C   UNL     1    -101.180  71.938   1.786  1.00  0.00     0.016 A 
ATOM      4  C   UNL     1     -99.913  72.327   2.128  1.00  0.00     0.018 A 
ATOM      5  C   UNL     1     -99.053  72.580   1.064  1.00  0.00     0.016 A 
ATOM      6  C   UNL     1     -99.434  72.453  -0.255  1.00  0.00     0.047 A 
ENDROOT
BRANCH   1   7
ATOM      7  O   UNL     1    -101.112  71.926  -1.924  1.00  0.00    -0.497 OA
ATOM      8  C   UNL     1    -100.706  70.848  -2.728  1.00  0.00     0.278 C 
ENDBRANCH   1   7
BRANCH   4   9
ATOM      9  C   UNL     1     -99.433  72.486   3.498  1.00  0.00     0.138 A 
ATOM     10  C   UNL     1    -100.271  72.425   4.581  1.00  0.00     0.100 A 
ATOM     11  O   UNL     1     -98.162  72.697   3.766  1.00  0.00    -0.456 OA
ATOM     12  C   UNL     1     -99.824  72.575   5.895  1.00  0.00     0.193 A 
ATOM     13  C   UNL     1     -97.678  72.847   4.975  1.00  0.00     0.138 A 
ATOM     14  O   UNL     1    -100.608  72.514   6.872  1.00  0.00    -0.289 OA
ATOM     15  C   UNL     1     -98.481  72.793   6.099  1.00  0.00     0.065 A 
ATOM     16  C   UNL     1     -96.306  73.070   5.170  1.00  0.00     0.048 A 
ATOM     17  C   UNL     1     -97.943  72.954   7.362  1.00  0.00     0.016 A 
ATOM     18  C   UNL     1     -95.773  73.228   6.409  1.00  0.00     0.004 A 
ATOM     19  C   UNL     1     -96.596  73.170   7.502  1.00  0.00     0.001 A 
ENDBRANCH   4   9
TORSDOF 2
ENDMDL
MODEL 7
REMARK VINA RESULT:      -5.0      6.768      8.498
REMARK SMILES COc1ccc(-c2cc(=O)c3ccccc3o2)cc1
REMARK SMILES IDX 3 1 4 2 5 3 6 4 18 5 19 6 2 7 1 8 7 9 8 10 17 11 9 12 16 13
REMARK SMILES IDX 10 14 11 15 15 16 12 17 14 18 13 19
REMARK H PARENT
ROOT
ATOM      1  C   UNL     1    -100.641  72.161   0.201  1.00  0.00     0.118 A 
ATOM      2  C   UNL     1    -101.287  71.865   1.378  1.00  0.00     0.047 A 
ATOM      3  C   UNL     1    -100.658  72.019   2.620  1.00  0.00     0.016 A 
ATOM      4  C   UNL     1     -99.370  72.470   2.725  1.00  0.00     0.018 A 
ATOM      5  C   UNL     1     -98.733  72.763   1.524  1.00  0.00     0.016 A 
ATOM      6  C   UNL     1     -99.344  72.616   0.296  1.00  0.00     0.047 A 
ENDROOT
BRANCH   1   7
ATOM      7  O   UNL     1    -101.273  72.006  -1.041  1.00  0.00    -0.497 OA
ATOM      8  C   UNL     1    -100.817  71.100  -2.010  1.00  0.00     0.278 C 
ENDBRANCH   1   7
BRANCH   4   9
ATOM      9  C   UNL     1     -98.654  72.653   3.985  1.00  0.00     0.138 A 
ATOM     10  C   UNL     1     -97.336  73.025   4.033  1.00  0.00     0.100 A 
ATOM     11  O   UNL     1     -99.242  72.471   5.148  1.00  0.00    -0.456 OA
ATOM     12  C   UNL     1     -96.642  73.205   5.231  1.00  0.00     0.193 A 
ATOM     13  C   UNL     1     -98.649  72.621   6.307  1.00  0.00     0.138 A 
ATOM     14  O   UNL     1     -95.435  73.546   5.252  1.00  0.00    -0.289 OA
ATOM     15  C   UNL     1     -97.322  72.995   6.409  1.00  0.00     0.065 A 
ATOM     16  C   UNL     1     -99.353  72.404   7.501  1.00  0.00     0.048 A 
ATOM     17  C   UNL     1     -96.721  73.147   7.644  1.00  0.00     0.016 A 
ATOM     18  C   UNL     1     -98.768  72.553   8.718  1.00  0.00     0.004 A 
ATOM     19  C   UNL     1     -97.452  72.924   8.784  1.00  0.00     0.001 A 
ENDBRANCH   4   9
TORSDOF 2
ENDMDL
MODEL 8
REMARK VINA RESULT:      -4.9      2.959      7.334
REMARK SMILES COc1ccc(-c2cc(=O)c3ccccc3o2)cc1
REMARK SMILES IDX 3 1 4 2 5 3 6 4 18 5 19 6 2 7 1 8 7 9 8 10 17 11 9 12 16 13
REMARK SMILES IDX 10 14 11 15 15 16 12 17 14 18 13 19
REMARK H PARENT
ROOT
ATOM      1  C   UNL     1    -106.144  80.859   7.384  1.00  0.00     0.118 A 
ATOM      2  C   UNL     1    -104.960  80.371   6.884  1.00  0.00     0.047 A 
ATOM      3  C   UNL     1    -104.926  79.539   5.758  1.00  0.00     0.016 A 
ATOM      4  C   UNL     1    -106.067  79.168   5.100  1.00  0.00     0.018 A 
ATOM      5  C   UNL     1    -107.254  79.671   5.621  1.00  0.00     0.016 A 
ATOM      6  C   UNL     1    -107.299  80.491   6.728  1.00  0.00     0.047 A 
ENDROOT
BRANCH   1   7
ATOM      7  O   UNL     1    -106.175  81.692   8.511  1.00  0.00    -0.497 OA
ATOM      8  C   UNL     1    -106.170  81.188   9.821  1.00  0.00     0.278 C 
ENDBRANCH   1   7
BRANCH   4   9
ATOM      9  C   UNL     1    -106.104  78.304   3.923  1.00  0.00     0.138 A 
ATOM     10  C   UNL     1    -104.970  77.766   3.372  1.00  0.00     0.100 A 
ATOM     11  O   UNL     1    -107.235  77.996   3.325  1.00  0.00    -0.456 OA
ATOM     12  C   UNL     1    -104.993  76.939   2.246  1.00  0.00     0.193 A 
ATOM     13  C   UNL     1    -107.326  77.227   2.268  1.00  0.00     0.138 A 
ATOM     14  O   UNL     1    -103.943  76.455   1.759  1.00  0.00    -0.289 OA
ATOM     15  C   UNL     1    -106.213  76.660   1.675  1.00  0.00     0.065 A 
ATOM     16  C   UNL     1    -108.577  76.950   1.694  1.00  0.00     0.048 A 
ATOM     17  C   UNL     1    -106.338  75.853   0.560  1.00  0.00     0.016 A 
ATOM     18  C   UNL     1    -108.705  76.157   0.598  1.00  0.00     0.004 A 
ATOM     19  C   UNL     1    -107.582  75.611   0.036  1.00  0.00     0.001 A 
ENDBRANCH   4   9
TORSDOF 2
ENDMDL
MODEL 9
REMARK VINA RESULT:      -4.9      8.686     11.474
REMARK SMILES COc1ccc(-c2cc(=O)c3ccccc3o2)cc1
REMARK SMILES IDX 3 1 4 2 5 3 6 4 18 5 19 6 2 7 1 8 7 9 8 10 17 11 9 12 16 13
REMARK SMILES IDX 10 14 11 15 15 16 12 17 14 18 13 19
REMARK H PARENT
ROOT
ATOM      1  C   UNL     1     -98.581  73.576  12.099  1.00  0.00     0.118 A 
ATOM      2  C   UNL     1     -97.289  73.644  11.631  1.00  0.00     0.047 A 
ATOM      3  C   UNL     1     -96.994  73.510  10.269  1.00  0.00     0.016 A 
ATOM      4  C   UNL     1     -97.973  73.303   9.335  1.00  0.00     0.018 A 
ATOM      5  C   UNL     1     -99.272  73.237   9.827  1.00  0.00     0.016 A 
ATOM      6  C   UNL     1     -99.574  73.369  11.166  1.00  0.00     0.047 A 
ENDROOT
BRANCH   1   7
ATOM      7  O   UNL     1     -98.874  73.711  13.463  1.00  0.00    -0.497 OA
ATOM      8  C   UNL     1    -100.025  73.158  14.044  1.00  0.00     0.278 C 
ENDBRANCH   1   7
BRANCH   4   9
ATOM      9  C   UNL     1     -97.735  73.154   7.902  1.00  0.00     0.138 A 
ATOM     10  C   UNL     1     -96.485  73.263   7.350  1.00  0.00     0.100 A 
ATOM     11  O   UNL     1     -98.716  72.905   7.060  1.00  0.00    -0.456 OA
ATOM     12  C   UNL     1     -96.246  73.122   5.981  1.00  0.00     0.193 A 
ATOM     13  C   UNL     1     -98.560  72.763   5.766  1.00  0.00     0.138 A 
ATOM     14  O   UNL     1     -95.094  73.225   5.496  1.00  0.00    -0.289 OA
ATOM     15  C   UNL     1     -97.321  72.863   5.161  1.00  0.00     0.065 A 
ATOM     16  C   UNL     1     -99.664  72.499   4.941  1.00  0.00     0.048 A 
ATOM     17  C   UNL     1     -97.185  72.708   3.795  1.00  0.00     0.016 A 
ATOM     18  C   UNL     1     -99.535  72.345   3.597  1.00  0.00     0.004 A 
ATOM     19  C   UNL     1     -98.294  72.451   3.029  1.00  0.00     0.001 A 
ENDBRANCH   4   9
TORSDOF 2
ENDMDL
