MODEL 1
REMARK VINA RESULT:      -9.6      0.000      0.000
REMARK SMILES O=C(CCC[NH+]1CCC(O)(c2ccc(Cl)cc2)CC1)c1ccc(F)cc1
REMARK SMILES IDX 4 1 3 2 2 3 1 4 20 5 21 6 26 7 22 8 25 9 23 10 24 11 5 12
REMARK SMILES IDX 6 13 7 14 19 15 8 16 18 17 9 18 10 20 11 22 12 23 17 24
REMARK SMILES IDX 13 25 16 26 14 27 15 28
REMARK H PARENT 6 19 10 21
ROOT
ATOM      1  C   UNL     1     127.494 135.730 160.509  1.00  0.00     0.070 C 
ENDROOT
BRANCH   1   2
ATOM      2  C   UNL     1     128.346 135.572 159.269  1.00  0.00     0.087 C 
BRANCH   2   3
ATOM      3  C   UNL     1     128.999 136.806 158.826  1.00  0.00     0.163 C 
ATOM      4  O   UNL     1     129.363 137.688 159.646  1.00  0.00    -0.294 OA
BRANCH   3   5
ATOM      5  C   UNL     1     129.270 137.090 157.401  1.00  0.00     0.018 A 
ATOM      6  C   UNL     1     128.355 136.734 156.427  1.00  0.00     0.015 A 
ATOM      7  C   UNL     1     130.429 137.712 157.013  1.00  0.00     0.015 A 
ATOM      8  C   UNL     1     128.613 137.001 155.104  1.00  0.00     0.040 A 
ATOM      9  C   UNL     1     130.694 137.981 155.696  1.00  0.00     0.040 A 
ATOM     10  C   UNL     1     129.781 137.624 154.742  1.00  0.00     0.123 A 
ATOM     11  F   UNL     1     130.082 137.908 153.435  1.00  0.00    -0.207 F 
ENDBRANCH   3   5
ENDBRANCH   2   3
ENDBRANCH   1   2
BRANCH   1  12
ATOM     12  C   UNL     1     127.032 134.379 160.938  1.00  0.00     0.262 C 
BRANCH  12  13
ATOM     13  N   UNL     1     125.596 134.195 160.769  1.00  0.00    -0.335 N 
ATOM     14  C   UNL     1     125.278 132.986 160.072  1.00  0.00     0.265 C 
ATOM     15  C   UNL     1     124.944 134.235 162.038  1.00  0.00     0.265 C 
ATOM     16  C   UNL     1     125.793 131.775 160.801  1.00  0.00     0.102 C 
ATOM     17  C   UNL     1     124.474 132.956 162.589  1.00  0.00     0.102 C 
ATOM     18  C   UNL     1     125.165 131.714 162.161  1.00  0.00     0.100 C 
ATOM     19  H   UNL     1     125.297 134.994 160.135  1.00  0.00     0.348 HD
BRANCH  18  20
ATOM     20  O   UNL     1     124.180 130.698 162.089  1.00  0.00    -0.385 OA
ATOM     21  H   UNL     1     124.246 130.181 162.930  1.00  0.00     0.211 HD
ENDBRANCH  18  20
BRANCH  18  22
ATOM     22  C   UNL     1     126.138 131.207 163.192  1.00  0.00    -0.016 A 
ATOM     23  C   UNL     1     127.338 131.841 163.440  1.00  0.00     0.008 A 
ATOM     24  C   UNL     1     125.895 130.083 163.950  1.00  0.00     0.008 A 
ATOM     25  C   UNL     1     128.254 131.410 164.372  1.00  0.00     0.021 A 
ATOM     26  C   UNL     1     126.800 129.631 164.891  1.00  0.00     0.021 A 
ATOM     27  C   UNL     1     127.978 130.295 165.101  1.00  0.00     0.041 A 
ATOM     28  Cl  UNL     1     129.127 129.732 166.291  1.00  0.00    -0.084 Cl
ENDBRANCH  18  22
ENDBRANCH  12  13
ENDBRANCH   1  12
TORSDOF 7
ENDMDL
MODEL 2
REMARK VINA RESULT:      -9.5      0.494      1.059
REMARK SMILES O=C(CCC[NH+]1CCC(O)(c2ccc(Cl)cc2)CC1)c1ccc(F)cc1
REMARK SMILES IDX 4 1 3 2 2 3 1 4 20 5 21 6 26 7 22 8 25 9 23 10 24 11 5 12
REMARK SMILES IDX 6 13 7 14 19 15 8 16 18 17 9 18 10 20 11 22 12 23 17 24
REMARK SMILES IDX 13 25 16 26 14 27 15 28
REMARK H PARENT 6 19 10 21
ROOT
ATOM      1  C   UNL     1     128.430 134.933 159.861  1.00  0.00     0.070 C 
ENDROOT
BRANCH   1   2
ATOM      2  C   UNL     1     128.071 136.378 159.593  1.00  0.00     0.087 C 
BRANCH   2   3
ATOM      3  C   UNL     1     129.165 137.179 159.040  1.00  0.00     0.163 C 
ATOM      4  O   UNL     1     129.976 137.787 159.785  1.00  0.00    -0.294 OA
BRANCH   3   5
ATOM      5  C   UNL     1     129.385 137.322 157.586  1.00  0.00     0.018 A 
ATOM      6  C   UNL     1     130.524 137.943 157.105  1.00  0.00     0.015 A 
ATOM      7  C   UNL     1     128.470 136.844 156.682  1.00  0.00     0.015 A 
ATOM      8  C   UNL     1     130.722 138.072 155.751  1.00  0.00     0.040 A 
ATOM      9  C   UNL     1     128.660 136.969 155.332  1.00  0.00     0.040 A 
ATOM     10  C   UNL     1     129.791 137.585 154.869  1.00  0.00     0.123 A 
ATOM     11  F   UNL     1     129.945 137.694 153.511  1.00  0.00    -0.207 F 
ENDBRANCH   3   5
ENDBRANCH   2   3
ENDBRANCH   1   2
BRANCH   1  12
ATOM     12  C   UNL     1     127.653 134.466 161.043  1.00  0.00     0.262 C 
BRANCH  12  13
ATOM     13  N   UNL     1     126.214 134.484 160.815  1.00  0.00    -0.335 N 
ATOM     14  C   UNL     1     125.763 133.345 160.074  1.00  0.00     0.265 C 
ATOM     15  C   UNL     1     125.521 134.586 162.058  1.00  0.00     0.265 C 
ATOM     16  C   UNL     1     126.078 132.060 160.790  1.00  0.00     0.102 C 
ATOM     17  C   UNL     1     124.858 133.373 162.557  1.00  0.00     0.102 C 
ATOM     18  C   UNL     1     125.391 132.057 162.123  1.00  0.00     0.100 C 
ATOM     19  H   UNL     1     126.053 135.330 160.192  1.00  0.00     0.348 HD
BRANCH  18  20
ATOM     20  O   UNL     1     124.281 131.188 161.986  1.00  0.00    -0.385 OA
ATOM     21  H   UNL     1     124.176 131.013 161.018  1.00  0.00     0.211 HD
ENDBRANCH  18  20
BRANCH  18  22
ATOM     22  C   UNL     1     126.242 131.399 163.177  1.00  0.00    -0.016 A 
ATOM     23  C   UNL     1     127.463 131.915 163.559  1.00  0.00     0.008 A 
ATOM     24  C   UNL     1     125.859 130.245 163.824  1.00  0.00     0.008 A 
ATOM     25  C   UNL     1     128.271 131.345 164.516  1.00  0.00     0.021 A 
ATOM     26  C   UNL     1     126.653 129.655 164.787  1.00  0.00     0.021 A 
ATOM     27  C   UNL     1     127.858 130.205 165.132  1.00  0.00     0.041 A 
ATOM     28  Cl  UNL     1     128.868 129.466 166.351  1.00  0.00    -0.084 Cl
ENDBRANCH  18  22
ENDBRANCH  12  13
ENDBRANCH   1  12
TORSDOF 7
ENDMDL
MODEL 3
REMARK VINA RESULT:      -9.5      0.565      1.091
REMARK SMILES O=C(CCC[NH+]1CCC(O)(c2ccc(Cl)cc2)CC1)c1ccc(F)cc1
REMARK SMILES IDX 4 1 3 2 2 3 1 4 20 5 21 6 26 7 22 8 25 9 23 10 24 11 5 12
REMARK SMILES IDX 6 13 7 14 19 15 8 16 18 17 9 18 10 20 11 22 12 23 17 24
REMARK SMILES IDX 13 25 16 26 14 27 15 28
REMARK H PARENT 6 19 10 21
ROOT
ATOM      1  C   UNL     1     128.207 134.900 159.559  1.00  0.00     0.070 C 
ENDROOT
BRANCH   1   2
ATOM      2  C   UNL     1     128.433 136.396 159.590  1.00  0.00     0.087 C 
BRANCH   2   3
ATOM      3  C   UNL     1     129.618 136.842 158.856  1.00  0.00     0.163 C 
ATOM      4  O   UNL     1     130.725 137.005 159.431  1.00  0.00    -0.294 OA
BRANCH   3   5
ATOM      5  C   UNL     1     129.591 137.125 157.405  1.00  0.00     0.018 A 
ATOM      6  C   UNL     1     128.492 136.775 156.642  1.00  0.00     0.015 A 
ATOM      7  C   UNL     1     130.650 137.738 156.785  1.00  0.00     0.015 A 
ATOM      8  C   UNL     1     128.474 137.041 155.293  1.00  0.00     0.040 A 
ATOM      9  C   UNL     1     130.639 138.006 155.442  1.00  0.00     0.040 A 
ATOM     10  C   UNL     1     129.546 137.655 154.698  1.00  0.00     0.123 A 
ATOM     11  F   UNL     1     129.572 137.938 153.356  1.00  0.00    -0.207 F 
ENDBRANCH   3   5
ENDBRANCH   2   3
ENDBRANCH   1   2
BRANCH   1  12
ATOM     12  C   UNL     1     127.531 134.500 160.826  1.00  0.00     0.262 C 
BRANCH  12  13
ATOM     13  N   UNL     1     126.079 134.485 160.708  1.00  0.00    -0.335 N 
ATOM     14  C   UNL     1     125.596 133.311 160.048  1.00  0.00     0.265 C 
ATOM     15  C   UNL     1     125.481 134.624 161.996  1.00  0.00     0.265 C 
ATOM     16  C   UNL     1     125.989 132.060 160.785  1.00  0.00     0.102 C 
ATOM     17  C   UNL     1     124.882 133.420 162.590  1.00  0.00     0.102 C 
ATOM     18  C   UNL     1     125.405 132.097 162.166  1.00  0.00     0.100 C 
ATOM     19  H   UNL     1     125.854 135.304 160.068  1.00  0.00     0.348 HD
BRANCH  18  20
ATOM     20  O   UNL     1     124.306 131.205 162.147  1.00  0.00    -0.385 OA
ATOM     21  H   UNL     1     124.214 130.851 163.067  1.00  0.00     0.211 HD
ENDBRANCH  18  20
BRANCH  18  22
ATOM     22  C   UNL     1     126.348 131.495 163.175  1.00  0.00    -0.016 A 
ATOM     23  C   UNL     1     126.025 130.363 163.893  1.00  0.00     0.008 A 
ATOM     24  C   UNL     1     127.586 132.034 163.444  1.00  0.00     0.008 A 
ATOM     25  C   UNL     1     126.856 129.782 164.823  1.00  0.00     0.021 A 
ATOM     26  C   UNL     1     128.437 131.469 164.374  1.00  0.00     0.021 A 
ATOM     27  C   UNL     1     128.072 130.344 165.061  1.00  0.00     0.041 A 
ATOM     28  Cl  UNL     1     129.143 129.621 166.237  1.00  0.00    -0.084 Cl
ENDBRANCH  18  22
ENDBRANCH  12  13
ENDBRANCH   1  12
TORSDOF 7
ENDMDL
MODEL 4
REMARK VINA RESULT:      -9.4      0.480      1.391
REMARK SMILES O=C(CCC[NH+]1CCC(O)(c2ccc(Cl)cc2)CC1)c1ccc(F)cc1
REMARK SMILES IDX 4 1 3 2 2 3 1 4 20 5 21 6 26 7 22 8 25 9 23 10 24 11 5 12
REMARK SMILES IDX 6 13 7 14 19 15 8 16 18 17 9 18 10 20 11 22 12 23 17 24
REMARK SMILES IDX 13 25 16 26 14 27 15 28
REMARK H PARENT 6 19 10 21
ROOT
ATOM      1  C   UNL     1     127.421 135.180 160.275  1.00  0.00     0.070 C 
ENDROOT
BRANCH   1   2
ATOM      2  C   UNL     1     128.624 135.252 159.361  1.00  0.00     0.087 C 
BRANCH   2   3
ATOM      3  C   UNL     1     128.975 136.607 158.932  1.00  0.00     0.163 C 
ATOM      4  O   UNL     1     129.041 137.559 159.752  1.00  0.00    -0.294 OA
BRANCH   3   5
ATOM      5  C   UNL     1     129.273 136.940 157.523  1.00  0.00     0.018 A 
ATOM      6  C   UNL     1     130.401 137.671 157.197  1.00  0.00     0.015 A 
ATOM      7  C   UNL     1     128.443 136.533 156.510  1.00  0.00     0.015 A 
ATOM      8  C   UNL     1     130.672 137.977 155.885  1.00  0.00     0.040 A 
ATOM      9  C   UNL     1     128.706 136.834 155.200  1.00  0.00     0.040 A 
ATOM     10  C   UNL     1     129.825 137.558 154.891  1.00  0.00     0.123 A 
ATOM     11  F   UNL     1     130.054 137.842 153.570  1.00  0.00    -0.207 F 
ENDBRANCH   3   5
ENDBRANCH   2   3
ENDBRANCH   1   2
BRANCH   1  12
ATOM     12  C   UNL     1     126.731 133.880 160.044  1.00  0.00     0.262 C 
BRANCH  12  13
ATOM     13  N   UNL     1     125.288 133.968 160.227  1.00  0.00    -0.335 N 
ATOM     14  C   UNL     1     124.623 132.735 159.932  1.00  0.00     0.265 C 
ATOM     15  C   UNL     1     124.987 134.401 161.553  1.00  0.00     0.265 C 
ATOM     16  C   UNL     1     125.109 131.619 160.815  1.00  0.00     0.102 C 
ATOM     17  C   UNL     1     124.477 133.389 162.489  1.00  0.00     0.102 C 
ATOM     18  C   UNL     1     124.838 131.969 162.248  1.00  0.00     0.100 C 
ATOM     19  H   UNL     1     124.967 134.665 159.492  1.00  0.00     0.348 HD
BRANCH  18  20
ATOM     20  O   UNL     1     123.722 131.188 162.635  1.00  0.00    -0.385 OA
ATOM     21  H   UNL     1     123.163 131.762 163.215  1.00  0.00     0.211 HD
ENDBRANCH  18  20
BRANCH  18  22
ATOM     22  C   UNL     1     125.948 131.492 163.148  1.00  0.00    -0.016 A 
ATOM     23  C   UNL     1     125.837 130.340 163.898  1.00  0.00     0.008 A 
ATOM     24  C   UNL     1     127.138 132.172 163.280  1.00  0.00     0.008 A 
ATOM     25  C   UNL     1     126.826 129.870 164.732  1.00  0.00     0.021 A 
ATOM     26  C   UNL     1     128.145 131.720 164.111  1.00  0.00     0.021 A 
ATOM     27  C   UNL     1     127.988 130.570 164.835  1.00  0.00     0.041 A 
ATOM     28  Cl  UNL     1     129.256 129.990 165.887  1.00  0.00    -0.084 Cl
ENDBRANCH  18  22
ENDBRANCH  12  13
ENDBRANCH   1  12
TORSDOF 7
ENDMDL
MODEL 5
REMARK VINA RESULT:      -9.3      0.954      1.132
REMARK SMILES O=C(CCC[NH+]1CCC(O)(c2ccc(Cl)cc2)CC1)c1ccc(F)cc1
REMARK SMILES IDX 4 1 3 2 2 3 1 4 20 5 21 6 26 7 22 8 25 9 23 10 24 11 5 12
REMARK SMILES IDX 6 13 7 14 19 15 8 16 18 17 9 18 10 20 11 22 12 23 17 24
REMARK SMILES IDX 13 25 16 26 14 27 15 28
REMARK H PARENT 6 19 10 21
ROOT
ATOM      1  C   UNL     1     127.751 133.778 160.945  1.00  0.00     0.070 C 
ENDROOT
BRANCH   1   2
ATOM      2  C   UNL     1     128.777 134.375 160.008  1.00  0.00     0.087 C 
BRANCH   2   3
ATOM      3  C   UNL     1     128.402 135.678 159.454  1.00  0.00     0.163 C 
ATOM      4  O   UNL     1     127.709 136.496 160.112  1.00  0.00    -0.294 OA
BRANCH   3   5
ATOM      5  C   UNL     1     128.810 136.111 158.101  1.00  0.00     0.018 A 
ATOM      6  C   UNL     1     128.210 135.569 156.979  1.00  0.00     0.015 A 
ATOM      7  C   UNL     1     129.789 137.055 157.927  1.00  0.00     0.015 A 
ATOM      8  C   UNL     1     128.595 135.975 155.724  1.00  0.00     0.040 A 
ATOM      9  C   UNL     1     130.178 137.465 156.680  1.00  0.00     0.040 A 
ATOM     10  C   UNL     1     129.577 136.922 155.578  1.00  0.00     0.123 A 
ATOM     11  F   UNL     1     129.994 137.356 154.346  1.00  0.00    -0.207 F 
ENDBRANCH   3   5
ENDBRANCH   2   3
ENDBRANCH   1   2
BRANCH   1  12
ATOM     12  C   UNL     1     126.687 133.130 160.127  1.00  0.00     0.262 C 
BRANCH  12  13
ATOM     13  N   UNL     1     125.345 133.545 160.516  1.00  0.00    -0.335 N 
ATOM     14  C   UNL     1     124.409 132.463 160.492  1.00  0.00     0.265 C 
ATOM     15  C   UNL     1     125.375 134.161 161.803  1.00  0.00     0.265 C 
ATOM     16  C   UNL     1     124.815 131.360 161.430  1.00  0.00     0.102 C 
ATOM     17  C   UNL     1     124.850 133.379 162.931  1.00  0.00     0.102 C 
ATOM     18  C   UNL     1     124.876 131.899 162.828  1.00  0.00     0.100 C 
ATOM     19  H   UNL     1     125.043 134.221 159.752  1.00  0.00     0.348 HD
BRANCH  18  20
ATOM     20  O   UNL     1     123.714 131.419 163.481  1.00  0.00    -0.385 OA
ATOM     21  H   UNL     1     122.992 132.066 163.284  1.00  0.00     0.211 HD
ENDBRANCH  18  20
BRANCH  18  22
ATOM     22  C   UNL     1     126.011 131.283 163.603  1.00  0.00    -0.016 A 
ATOM     23  C   UNL     1     127.232 131.911 163.737  1.00  0.00     0.008 A 
ATOM     24  C   UNL     1     125.905 130.058 164.225  1.00  0.00     0.008 A 
ATOM     25  C   UNL     1     128.294 131.383 164.435  1.00  0.00     0.021 A 
ATOM     26  C   UNL     1     126.956 129.508 164.931  1.00  0.00     0.021 A 
ATOM     27  C   UNL     1     128.149 130.171 165.035  1.00  0.00     0.041 A 
ATOM     28  Cl  UNL     1     129.484 129.483 165.928  1.00  0.00    -0.084 Cl
ENDBRANCH  18  22
ENDBRANCH  12  13
ENDBRANCH   1  12
TORSDOF 7
ENDMDL
MODEL 6
REMARK VINA RESULT:      -9.2      1.048      1.424
REMARK SMILES O=C(CCC[NH+]1CCC(O)(c2ccc(Cl)cc2)CC1)c1ccc(F)cc1
REMARK SMILES IDX 4 1 3 2 2 3 1 4 20 5 21 6 26 7 22 8 25 9 23 10 24 11 5 12
REMARK SMILES IDX 6 13 7 14 19 15 8 16 18 17 9 18 10 20 11 22 12 23 17 24
REMARK SMILES IDX 13 25 16 26 14 27 15 28
REMARK H PARENT 6 19 10 21
ROOT
ATOM      1  C   UNL     1     128.612 134.445 159.962  1.00  0.00     0.070 C 
ENDROOT
BRANCH   1   2
ATOM      2  C   UNL     1     128.374 135.768 159.269  1.00  0.00     0.087 C 
BRANCH   2   3
ATOM      3  C   UNL     1     127.917 135.648 157.882  1.00  0.00     0.163 C 
ATOM      4  O   UNL     1     126.935 134.925 157.574  1.00  0.00    -0.294 OA
BRANCH   3   5
ATOM      5  C   UNL     1     128.575 136.363 156.768  1.00  0.00     0.018 A 
ATOM      6  C   UNL     1     129.882 136.800 156.887  1.00  0.00     0.015 A 
ATOM      7  C   UNL     1     127.908 136.610 155.595  1.00  0.00     0.015 A 
ATOM      8  C   UNL     1     130.487 137.464 155.847  1.00  0.00     0.040 A 
ATOM      9  C   UNL     1     128.504 137.271 154.555  1.00  0.00     0.040 A 
ATOM     10  C   UNL     1     129.797 137.698 154.685  1.00  0.00     0.123 A 
ATOM     11  F   UNL     1     130.359 138.358 153.623  1.00  0.00    -0.207 F 
ENDBRANCH   3   5
ENDBRANCH   2   3
ENDBRANCH   1   2
BRANCH   1  12
ATOM     12  C   UNL     1     127.747 134.385 161.173  1.00  0.00     0.262 C 
BRANCH  12  13
ATOM     13  N   UNL     1     126.327 134.341 160.850  1.00  0.00    -0.335 N 
ATOM     14  C   UNL     1     125.976 133.184 160.084  1.00  0.00     0.265 C 
ATOM     15  C   UNL     1     125.548 134.413 162.044  1.00  0.00     0.265 C 
ATOM     16  C   UNL     1     126.296 131.913 160.822  1.00  0.00     0.102 C 
ATOM     17  C   UNL     1     124.906 133.172 162.500  1.00  0.00     0.102 C 
ATOM     18  C   UNL     1     125.522 131.881 162.106  1.00  0.00     0.100 C 
ATOM     19  H   UNL     1     126.171 135.179 160.215  1.00  0.00     0.348 HD
BRANCH  18  20
ATOM     20  O   UNL     1     124.463 130.964 161.898  1.00  0.00    -0.385 OA
ATOM     21  H   UNL     1     124.377 130.849 160.919  1.00  0.00     0.211 HD
ENDBRANCH  18  20
BRANCH  18  22
ATOM     22  C   UNL     1     126.329 131.260 163.216  1.00  0.00    -0.016 A 
ATOM     23  C   UNL     1     127.510 131.817 163.663  1.00  0.00     0.008 A 
ATOM     24  C   UNL     1     125.943 130.101 163.854  1.00  0.00     0.008 A 
ATOM     25  C   UNL     1     128.276 131.281 164.673  1.00  0.00     0.021 A 
ATOM     26  C   UNL     1     126.696 129.545 164.869  1.00  0.00     0.021 A 
ATOM     27  C   UNL     1     127.861 130.136 165.278  1.00  0.00     0.041 A 
ATOM     28  Cl  UNL     1     128.818 129.440 166.563  1.00  0.00    -0.084 Cl
ENDBRANCH  18  22
ENDBRANCH  12  13
ENDBRANCH   1  12
TORSDOF 7
ENDMDL
MODEL 7
REMARK VINA RESULT:      -9.2      0.907      1.362
REMARK SMILES O=C(CCC[NH+]1CCC(O)(c2ccc(Cl)cc2)CC1)c1ccc(F)cc1
REMARK SMILES IDX 4 1 3 2 2 3 1 4 20 5 21 6 26 7 22 8 25 9 23 10 24 11 5 12
REMARK SMILES IDX 6 13 7 14 19 15 8 16 18 17 9 18 10 20 11 22 12 23 17 24
REMARK SMILES IDX 13 25 16 26 14 27 15 28
REMARK H PARENT 6 19 10 21
ROOT
ATOM      1  C   UNL     1     128.302 134.495 160.584  1.00  0.00     0.070 C 
ENDROOT
BRANCH   1   2
ATOM      2  C   UNL     1     129.303 135.181 159.682  1.00  0.00     0.087 C 
BRANCH   2   3
ATOM      3  C   UNL     1     128.803 136.399 159.042  1.00  0.00     0.163 C 
ATOM      4  O   UNL     1     128.033 137.190 159.646  1.00  0.00    -0.294 OA
BRANCH   3   5
ATOM      5  C   UNL     1     129.167 136.774 157.659  1.00  0.00     0.018 A 
ATOM      6  C   UNL     1     128.317 136.487 156.606  1.00  0.00     0.015 A 
ATOM      7  C   UNL     1     130.350 137.413 157.389  1.00  0.00     0.015 A 
ATOM      8  C   UNL     1     128.662 136.838 155.323  1.00  0.00     0.040 A 
ATOM      9  C   UNL     1     130.700 137.767 156.113  1.00  0.00     0.040 A 
ATOM     10  C   UNL     1     129.851 137.477 155.080  1.00  0.00     0.123 A 
ATOM     11  F   UNL     1     130.238 137.844 153.817  1.00  0.00    -0.207 F 
ENDBRANCH   3   5
ENDBRANCH   2   3
ENDBRANCH   1   2
BRANCH   1  12
ATOM     12  C   UNL     1     127.231 133.902 159.734  1.00  0.00     0.262 C 
BRANCH  12  13
ATOM     13  N   UNL     1     125.929 134.518 159.956  1.00  0.00    -0.335 N 
ATOM     14  C   UNL     1     124.847 133.613 159.716  1.00  0.00     0.265 C 
ATOM     15  C   UNL     1     125.859 135.054 161.277  1.00  0.00     0.265 C 
ATOM     16  C   UNL     1     124.922 132.411 160.617  1.00  0.00     0.102 C 
ATOM     17  C   UNL     1     125.048 134.316 162.256  1.00  0.00     0.102 C 
ATOM     18  C   UNL     1     124.853 132.860 162.046  1.00  0.00     0.100 C 
ATOM     19  H   UNL     1     125.860 135.273 159.210  1.00  0.00     0.348 HD
BRANCH  18  20
ATOM     20  O   UNL     1     123.543 132.551 162.488  1.00  0.00    -0.385 OA
ATOM     21  H   UNL     1     123.215 133.346 162.979  1.00  0.00     0.211 HD
ENDBRANCH  18  20
BRANCH  18  22
ATOM     22  C   UNL     1     125.742 132.023 162.928  1.00  0.00    -0.016 A 
ATOM     23  C   UNL     1     125.357 130.780 163.386  1.00  0.00     0.008 A 
ATOM     24  C   UNL     1     126.990 132.442 163.331  1.00  0.00     0.008 A 
ATOM     25  C   UNL     1     126.139 129.984 164.192  1.00  0.00     0.021 A 
ATOM     26  C   UNL     1     127.792 131.661 164.140  1.00  0.00     0.021 A 
ATOM     27  C   UNL     1     127.366 130.433 164.569  1.00  0.00     0.041 A 
ATOM     28  Cl  UNL     1     128.374 129.438 165.591  1.00  0.00    -0.084 Cl
ENDBRANCH  18  22
ENDBRANCH  12  13
ENDBRANCH   1  12
TORSDOF 7
ENDMDL
MODEL 8
REMARK VINA RESULT:      -9.2      1.088      1.681
REMARK SMILES O=C(CCC[NH+]1CCC(O)(c2ccc(Cl)cc2)CC1)c1ccc(F)cc1
REMARK SMILES IDX 4 1 3 2 2 3 1 4 20 5 21 6 26 7 22 8 25 9 23 10 24 11 5 12
REMARK SMILES IDX 6 13 7 14 19 15 8 16 18 17 9 18 10 20 11 22 12 23 17 24
REMARK SMILES IDX 13 25 16 26 14 27 15 28
REMARK H PARENT 6 19 10 21
ROOT
ATOM      1  C   UNL     1     127.539 133.330 160.828  1.00  0.00     0.070 C 
ENDROOT
BRANCH   1   2
ATOM      2  C   UNL     1     128.521 133.977 159.876  1.00  0.00     0.087 C 
BRANCH   2   3
ATOM      3  C   UNL     1     128.206 135.366 159.537  1.00  0.00     0.163 C 
ATOM      4  O   UNL     1     127.707 136.152 160.383  1.00  0.00    -0.294 OA
BRANCH   3   5
ATOM      5  C   UNL     1     128.452 135.929 158.193  1.00  0.00     0.018 A 
ATOM      6  C   UNL     1     128.125 135.208 157.058  1.00  0.00     0.015 A 
ATOM      7  C   UNL     1     129.009 137.173 158.038  1.00  0.00     0.015 A 
ATOM      8  C   UNL     1     128.357 135.737 155.811  1.00  0.00     0.040 A 
ATOM      9  C   UNL     1     129.243 137.707 156.799  1.00  0.00     0.040 A 
ATOM     10  C   UNL     1     128.914 136.984 155.685  1.00  0.00     0.123 A 
ATOM     11  F   UNL     1     129.166 137.550 154.462  1.00  0.00    -0.207 F 
ENDBRANCH   3   5
ENDBRANCH   2   3
ENDBRANCH   1   2
BRANCH   1  12
ATOM     12  C   UNL     1     126.417 132.760 160.031  1.00  0.00     0.262 C 
BRANCH  12  13
ATOM     13  N   UNL     1     125.112 133.234 160.476  1.00  0.00    -0.335 N 
ATOM     14  C   UNL     1     124.162 132.172 160.611  1.00  0.00     0.265 C 
ATOM     15  C   UNL     1     125.243 133.955 161.700  1.00  0.00     0.265 C 
ATOM     16  C   UNL     1     124.619 131.144 161.610  1.00  0.00     0.102 C 
ATOM     17  C   UNL     1     124.790 133.283 162.926  1.00  0.00     0.102 C 
ATOM     18  C   UNL     1     124.788 131.799 162.949  1.00  0.00     0.100 C 
ATOM     19  H   UNL     1     124.765 133.848 159.680  1.00  0.00     0.348 HD
BRANCH  18  20
ATOM     20  O   UNL     1     123.670 131.399 163.721  1.00  0.00    -0.385 OA
ATOM     21  H   UNL     1     123.823 131.741 164.637  1.00  0.00     0.211 HD
ENDBRANCH  18  20
BRANCH  18  22
ATOM     22  C   UNL     1     125.968 131.228 163.692  1.00  0.00    -0.016 A 
ATOM     23  C   UNL     1     125.919 129.993 164.304  1.00  0.00     0.008 A 
ATOM     24  C   UNL     1     127.165 131.900 163.808  1.00  0.00     0.008 A 
ATOM     25  C   UNL     1     126.973 129.436 164.992  1.00  0.00     0.021 A 
ATOM     26  C   UNL     1     128.236 131.362 164.494  1.00  0.00     0.021 A 
ATOM     27  C   UNL     1     128.139 130.131 165.085  1.00  0.00     0.041 A 
ATOM     28  Cl  UNL     1     129.490 129.442 165.952  1.00  0.00    -0.084 Cl
ENDBRANCH  18  22
ENDBRANCH  12  13
ENDBRANCH   1  12
TORSDOF 7
ENDMDL
MODEL 9
REMARK VINA RESULT:      -9.1      0.914      1.317
REMARK SMILES O=C(CCC[NH+]1CCC(O)(c2ccc(Cl)cc2)CC1)c1ccc(F)cc1
REMARK SMILES IDX 4 1 3 2 2 3 1 4 20 5 21 6 26 7 22 8 25 9 23 10 24 11 5 12
REMARK SMILES IDX 6 13 7 14 19 15 8 16 18 17 9 18 10 20 11 22 12 23 17 24
REMARK SMILES IDX 13 25 16 26 14 27 15 28
REMARK H PARENT 6 19 10 21
ROOT
ATOM      1  C   UNL     1     127.402 135.898 160.580  1.00  0.00     0.070 C 
ENDROOT
BRANCH   1   2
ATOM      2  C   UNL     1     128.527 135.871 159.569  1.00  0.00     0.087 C 
BRANCH   2   3
ATOM      3  C   UNL     1     128.098 135.588 158.197  1.00  0.00     0.163 C 
ATOM      4  O   UNL     1     127.221 134.721 157.949  1.00  0.00    -0.294 OA
BRANCH   3   5
ATOM      5  C   UNL     1     128.663 136.296 157.029  1.00  0.00     0.018 A 
ATOM      6  C   UNL     1     127.890 136.522 155.904  1.00  0.00     0.015 A 
ATOM      7  C   UNL     1     129.959 136.743 157.032  1.00  0.00     0.015 A 
ATOM      8  C   UNL     1     128.421 137.180 154.821  1.00  0.00     0.040 A 
ATOM      9  C   UNL     1     130.495 137.400 155.957  1.00  0.00     0.040 A 
ATOM     10  C   UNL     1     129.721 137.618 154.850  1.00  0.00     0.123 A 
ATOM     11  F   UNL     1     130.293 138.277 153.793  1.00  0.00    -0.207 F 
ENDBRANCH   3   5
ENDBRANCH   2   3
ENDBRANCH   1   2
BRANCH   1  12
ATOM     12  C   UNL     1     126.988 134.495 160.861  1.00  0.00     0.262 C 
BRANCH  12  13
ATOM     13  N   UNL     1     125.554 134.289 160.706  1.00  0.00    -0.335 N 
ATOM     14  C   UNL     1     125.247 133.075 160.012  1.00  0.00     0.265 C 
ATOM     15  C   UNL     1     124.913 134.319 161.981  1.00  0.00     0.265 C 
ATOM     16  C   UNL     1     125.787 131.872 160.736  1.00  0.00     0.102 C 
ATOM     17  C   UNL     1     124.467 133.034 162.537  1.00  0.00     0.102 C 
ATOM     18  C   UNL     1     125.172 131.802 162.102  1.00  0.00     0.100 C 
ATOM     19  H   UNL     1     125.236 135.083 160.075  1.00  0.00     0.348 HD
BRANCH  18  20
ATOM     20  O   UNL     1     124.203 130.772 162.040  1.00  0.00    -0.385 OA
ATOM     21  H   UNL     1     124.371 130.178 162.814  1.00  0.00     0.211 HD
ENDBRANCH  18  20
BRANCH  18  22
ATOM     22  C   UNL     1     126.164 131.309 163.124  1.00  0.00    -0.016 A 
ATOM     23  C   UNL     1     125.945 130.166 163.864  1.00  0.00     0.008 A 
ATOM     24  C   UNL     1     127.347 131.966 163.384  1.00  0.00     0.008 A 
ATOM     25  C   UNL     1     126.824 129.683 164.806  1.00  0.00     0.021 A 
ATOM     26  C   UNL     1     128.243 131.500 164.325  1.00  0.00     0.021 A 
ATOM     27  C   UNL     1     127.981 130.359 165.035  1.00  0.00     0.041 A 
ATOM     28  Cl  UNL     1     129.112 129.762 166.226  1.00  0.00    -0.084 Cl
ENDBRANCH  18  22
ENDBRANCH  12  13
ENDBRANCH   1  12
TORSDOF 7
ENDMDL
