MODEL 1
REMARK VINA RESULT:      -5.5      0.000      0.000
REMARK SMILES O=C1NCN(c2ccccc2)C12CC[NH+](CCCC(c1ccc(F)cc1)c1ccc(F)cc1)CC2
REMARK SMILES IDX 17 1 16 2 15 3 1 4 2 5 3 6 12 7 4 8 5 9 13 10 35 11 14 12
REMARK SMILES IDX 34 13 6 16 7 17 11 18 8 19 10 20 9 21 18 22 19 23 20 24
REMARK SMILES IDX 21 25 26 26 22 27 25 28 23 29 24 30 27 31 28 32 33 33 29 34
REMARK SMILES IDX 32 35 30 36 31 37
REMARK H PARENT 3 14 15 15
ROOT
ATOM      1  C   UNL     1     159.625 140.062 145.646  1.00  0.00     0.062 C 
ENDROOT
BRANCH   1   2
ATOM      2  C   UNL     1     159.861 141.184 144.678  1.00  0.00     0.262 C 
BRANCH   2   3
ATOM      3  N   UNL     1     160.168 140.650 143.356  1.00  0.00    -0.335 N 
ATOM      4  O   UNL     1     159.065 139.109 140.740  1.00  0.00    -0.272 OA
ATOM      5  C   UNL     1     160.253 138.952 140.390  1.00  0.00     0.247 C 
ATOM      6  N   UNL     1     160.652 138.283 139.219  1.00  0.00    -0.336 N 
ATOM      7  C   UNL     1     161.464 139.444 141.149  1.00  0.00     0.131 C 
ATOM      8  C   UNL     1     161.988 138.714 138.949  1.00  0.00     0.238 C 
ATOM      9  N   UNL     1     162.548 138.993 140.280  1.00  0.00    -0.339 N 
ATOM     10  C   UNL     1     161.495 138.767 142.504  1.00  0.00     0.100 C 
ATOM     11  C   UNL     1     161.355 140.923 141.265  1.00  0.00     0.100 C 
ATOM     12  C   UNL     1     160.339 139.212 143.369  1.00  0.00     0.265 C 
ATOM     13  C   UNL     1     161.260 141.322 142.701  1.00  0.00     0.265 C 
ATOM     14  H   UNL     1     160.062 137.603 138.668  1.00  0.00     0.165 HD
ATOM     15  H   UNL     1     159.308 140.846 142.798  1.00  0.00     0.348 HD
BRANCH   9  16
ATOM     16  C   UNL     1     163.926 138.798 140.551  1.00  0.00     0.039 A 
ATOM     17  C   UNL     1     164.723 139.839 140.965  1.00  0.00     0.026 A 
ATOM     18  C   UNL     1     164.470 137.557 140.421  1.00  0.00     0.026 A 
ATOM     19  C   UNL     1     166.078 139.654 141.254  1.00  0.00     0.002 A 
ATOM     20  C   UNL     1     165.794 137.354 140.699  1.00  0.00     0.002 A 
ATOM     21  C   UNL     1     166.597 138.384 141.112  1.00  0.00     0.000 A 
ENDBRANCH   9  16
ENDBRANCH   2   3
ENDBRANCH   1   2
BRANCH   1  22
ATOM     22  C   UNL     1     160.493 140.005 146.827  1.00  0.00     0.019 C 
BRANCH  22  23
ATOM     23  C   UNL     1     161.944 140.106 146.746  1.00  0.00     0.049 C 
BRANCH  23  24
ATOM     24  C   UNL     1     162.644 140.478 148.027  1.00  0.00    -0.040 A 
ATOM     25  C   UNL     1     163.023 139.439 148.847  1.00  0.00     0.007 A 
ATOM     26  C   UNL     1     162.878 141.777 148.391  1.00  0.00     0.007 A 
ATOM     27  C   UNL     1     163.643 139.696 150.044  1.00  0.00     0.039 A 
ATOM     28  C   UNL     1     163.498 142.030 149.585  1.00  0.00     0.039 A 
ATOM     29  C   UNL     1     163.894 140.991 150.436  1.00  0.00     0.123 A 
ATOM     30  F   UNL     1     164.508 141.233 151.621  1.00  0.00    -0.207 F 
ENDBRANCH  23  24
BRANCH  23  31
ATOM     31  C   UNL     1     162.719 139.125 146.005  1.00  0.00    -0.040 A 
ATOM     32  C   UNL     1     162.494 137.778 145.949  1.00  0.00     0.007 A 
ATOM     33  C   UNL     1     163.814 139.636 145.296  1.00  0.00     0.007 A 
ATOM     34  C   UNL     1     163.360 136.978 145.195  1.00  0.00     0.039 A 
ATOM     35  C   UNL     1     164.660 138.871 144.560  1.00  0.00     0.039 A 
ATOM     36  C   UNL     1     164.423 137.517 144.514  1.00  0.00     0.123 A 
ATOM     37  F   UNL     1     165.278 136.762 143.773  1.00  0.00    -0.207 F 
ENDBRANCH  23  31
ENDBRANCH  22  23
ENDBRANCH   1  22
TORSDOF 7
ENDMDL
MODEL 2
REMARK VINA RESULT:      -5.4      0.540      3.736
REMARK SMILES O=C1NCN(c2ccccc2)C12CC[NH+](CCCC(c1ccc(F)cc1)c1ccc(F)cc1)CC2
REMARK SMILES IDX 17 1 16 2 15 3 1 4 2 5 3 6 12 7 4 8 5 9 13 10 35 11 14 12
REMARK SMILES IDX 34 13 6 16 7 17 11 18 8 19 10 20 9 21 18 22 19 23 20 24
REMARK SMILES IDX 21 25 26 26 22 27 25 28 23 29 24 30 27 31 28 32 33 33 29 34
REMARK SMILES IDX 32 35 30 36 31 37
REMARK H PARENT 3 14 15 15
ROOT
ATOM      1  C   UNL     1     160.894 140.664 145.703  1.00  0.00     0.062 C 
ENDROOT
BRANCH   1   2
ATOM      2  C   UNL     1     159.667 140.588 144.844  1.00  0.00     0.262 C 
BRANCH   2   3
ATOM      3  N   UNL     1     160.027 140.193 143.487  1.00  0.00    -0.335 N 
ATOM      4  O   UNL     1     159.056 138.848 140.716  1.00  0.00    -0.272 OA
ATOM      5  C   UNL     1     160.258 138.779 140.382  1.00  0.00     0.247 C 
ATOM      6  N   UNL     1     160.713 138.240 139.166  1.00  0.00    -0.336 N 
ATOM      7  C   UNL     1     161.426 139.256 141.213  1.00  0.00     0.131 C 
ATOM      8  C   UNL     1     162.031 138.756 138.970  1.00  0.00     0.238 C 
ATOM      9  N   UNL     1     162.549 138.938 140.335  1.00  0.00    -0.339 N 
ATOM     10  C   UNL     1     161.462 138.460 142.502  1.00  0.00     0.100 C 
ATOM     11  C   UNL     1     161.243 140.711 141.460  1.00  0.00     0.100 C 
ATOM     12  C   UNL     1     160.268 138.769 143.374  1.00  0.00     0.265 C 
ATOM     13  C   UNL     1     161.098 140.972 142.924  1.00  0.00     0.265 C 
ATOM     14  H   UNL     1     160.168 137.586 138.542  1.00  0.00     0.165 HD
ATOM     15  H   UNL     1     159.171 140.398 142.927  1.00  0.00     0.348 HD
BRANCH   9  16
ATOM     16  C   UNL     1     163.929 138.784 140.622  1.00  0.00     0.039 A 
ATOM     17  C   UNL     1     164.615 139.733 141.341  1.00  0.00     0.026 A 
ATOM     18  C   UNL     1     164.586 137.669 140.198  1.00  0.00     0.026 A 
ATOM     19  C   UNL     1     165.971 139.582 141.647  1.00  0.00     0.002 A 
ATOM     20  C   UNL     1     165.912 137.501 140.487  1.00  0.00     0.002 A 
ATOM     21  C   UNL     1     166.606 138.441 141.203  1.00  0.00     0.000 A 
ENDBRANCH   9  16
ENDBRANCH   2   3
ENDBRANCH   1   2
BRANCH   1  22
ATOM     22  C   UNL     1     160.886 139.892 146.951  1.00  0.00     0.019 C 
BRANCH  22  23
ATOM     23  C   UNL     1     162.060 139.193 147.455  1.00  0.00     0.049 C 
BRANCH  23  24
ATOM     24  C   UNL     1     162.961 138.594 146.407  1.00  0.00    -0.040 A 
ATOM     25  C   UNL     1     162.591 137.366 145.904  1.00  0.00     0.007 A 
ATOM     26  C   UNL     1     164.108 139.208 145.981  1.00  0.00     0.007 A 
ATOM     27  C   UNL     1     163.372 136.743 144.964  1.00  0.00     0.039 A 
ATOM     28  C   UNL     1     164.884 138.583 145.042  1.00  0.00     0.039 A 
ATOM     29  C   UNL     1     164.530 137.336 144.514  1.00  0.00     0.123 A 
ATOM     30  F   UNL     1     165.294 136.709 143.584  1.00  0.00    -0.207 F 
ENDBRANCH  23  24
BRANCH  23  31
ATOM     31  C   UNL     1     162.842 139.745 148.549  1.00  0.00    -0.040 A 
ATOM     32  C   UNL     1     163.684 139.060 149.380  1.00  0.00     0.007 A 
ATOM     33  C   UNL     1     162.686 141.121 148.764  1.00  0.00     0.007 A 
ATOM     34  C   UNL     1     164.344 139.756 150.399  1.00  0.00     0.039 A 
ATOM     35  C   UNL     1     163.321 141.807 149.747  1.00  0.00     0.039 A 
ATOM     36  C   UNL     1     164.165 141.105 150.577  1.00  0.00     0.123 A 
ATOM     37  F   UNL     1     164.795 141.806 151.558  1.00  0.00    -0.207 F 
ENDBRANCH  23  31
ENDBRANCH  22  23
ENDBRANCH   1  22
TORSDOF 7
ENDMDL
MODEL 3
REMARK VINA RESULT:      -5.0      3.381      7.385
REMARK SMILES O=C1NCN(c2ccccc2)C12CC[NH+](CCCC(c1ccc(F)cc1)c1ccc(F)cc1)CC2
REMARK SMILES IDX 17 1 16 2 15 3 1 4 2 5 3 6 12 7 4 8 5 9 13 10 35 11 14 12
REMARK SMILES IDX 34 13 6 16 7 17 11 18 8 19 10 20 9 21 18 22 19 23 20 24
REMARK SMILES IDX 21 25 26 26 22 27 25 28 23 29 24 30 27 31 28 32 33 33 29 34
REMARK SMILES IDX 32 35 30 36 31 37
REMARK H PARENT 3 14 15 15
ROOT
ATOM      1  C   UNL     1     160.830 141.120 144.239  1.00  0.00     0.062 C 
ENDROOT
BRANCH   1   2
ATOM      2  C   UNL     1     160.072 140.799 145.493  1.00  0.00     0.262 C 
BRANCH   2   3
ATOM      3  N   UNL     1     160.997 140.437 146.561  1.00  0.00    -0.335 N 
ATOM      4  O   UNL     1     161.948 140.955 149.603  1.00  0.00    -0.272 OA
ATOM      5  C   UNL     1     162.980 140.302 149.342  1.00  0.00     0.247 C 
ATOM      6  N   UNL     1     164.017 140.059 150.259  1.00  0.00    -0.336 N 
ATOM      7  C   UNL     1     163.298 139.661 148.011  1.00  0.00     0.131 C 
ATOM      8  C   UNL     1     164.742 138.937 149.754  1.00  0.00     0.238 C 
ATOM      9  N   UNL     1     164.591 139.043 148.294  1.00  0.00    -0.339 N 
ATOM     10  C   UNL     1     163.400 140.749 146.961  1.00  0.00     0.100 C 
ATOM     11  C   UNL     1     162.215 138.689 147.706  1.00  0.00     0.100 C 
ATOM     12  C   UNL     1     162.061 141.406 146.717  1.00  0.00     0.265 C 
ATOM     13  C   UNL     1     161.496 139.091 146.460  1.00  0.00     0.265 C 
ATOM     14  H   UNL     1     164.201 140.613 151.139  1.00  0.00     0.165 HD
ATOM     15  H   UNL     1     160.416 140.486 147.426  1.00  0.00     0.348 HD
BRANCH   9  16
ATOM     16  C   UNL     1     165.613 138.599 147.417  1.00  0.00     0.039 A 
ATOM     17  C   UNL     1     165.351 137.675 146.433  1.00  0.00     0.026 A 
ATOM     18  C   UNL     1     166.870 139.108 147.532  1.00  0.00     0.026 A 
ATOM     19  C   UNL     1     166.346 137.245 145.550  1.00  0.00     0.002 A 
ATOM     20  C   UNL     1     167.857 138.701 146.678  1.00  0.00     0.002 A 
ATOM     21  C   UNL     1     167.608 137.780 145.694  1.00  0.00     0.000 A 
ENDBRANCH   9  16
ENDBRANCH   2   3
ENDBRANCH   1   2
BRANCH   1  22
ATOM     22  C   UNL     1     160.178 140.802 142.963  1.00  0.00     0.019 C 
BRANCH  22  23
ATOM     23  C   UNL     1     160.571 139.668 142.137  1.00  0.00     0.049 C 
BRANCH  23  24
ATOM     24  C   UNL     1     160.834 139.980 140.687  1.00  0.00    -0.040 A 
ATOM     25  C   UNL     1     161.242 141.262 140.396  1.00  0.00     0.007 A 
ATOM     26  C   UNL     1     160.658 139.058 139.690  1.00  0.00     0.007 A 
ATOM     27  C   UNL     1     161.479 141.631 139.096  1.00  0.00     0.039 A 
ATOM     28  C   UNL     1     160.896 139.429 138.395  1.00  0.00     0.039 A 
ATOM     29  C   UNL     1     161.313 140.727 138.072  1.00  0.00     0.123 A 
ATOM     30  F   UNL     1     161.550 141.103 136.790  1.00  0.00    -0.207 F 
ENDBRANCH  23  24
BRANCH  23  31
ATOM     31  C   UNL     1     161.517 138.681 142.630  1.00  0.00    -0.040 A 
ATOM     32  C   UNL     1     162.880 138.757 142.577  1.00  0.00     0.007 A 
ATOM     33  C   UNL     1     160.946 137.534 143.198  1.00  0.00     0.007 A 
ATOM     34  C   UNL     1     163.638 137.695 143.087  1.00  0.00     0.039 A 
ATOM     35  C   UNL     1     161.669 136.499 143.697  1.00  0.00     0.039 A 
ATOM     36  C   UNL     1     163.040 136.588 143.636  1.00  0.00     0.123 A 
ATOM     37  F   UNL     1     163.752 135.544 144.139  1.00  0.00    -0.207 F 
ENDBRANCH  23  31
ENDBRANCH  22  23
ENDBRANCH   1  22
TORSDOF 7
ENDMDL
MODEL 4
REMARK VINA RESULT:      -4.9      3.943      8.083
REMARK SMILES O=C1NCN(c2ccccc2)C12CC[NH+](CCCC(c1ccc(F)cc1)c1ccc(F)cc1)CC2
REMARK SMILES IDX 17 1 16 2 15 3 1 4 2 5 3 6 12 7 4 8 5 9 13 10 35 11 14 12
REMARK SMILES IDX 34 13 6 16 7 17 11 18 8 19 10 20 9 21 18 22 19 23 20 24
REMARK SMILES IDX 21 25 26 26 22 27 25 28 23 29 24 30 27 31 28 32 33 33 29 34
REMARK SMILES IDX 32 35 30 36 31 37
REMARK H PARENT 3 14 15 15
ROOT
ATOM      1  C   UNL     1     168.225 139.034 144.430  1.00  0.00     0.062 C 
ENDROOT
BRANCH   1   2
ATOM      2  C   UNL     1     168.257 138.090 145.595  1.00  0.00     0.262 C 
BRANCH   2   3
ATOM      3  N   UNL     1     167.251 138.474 146.580  1.00  0.00    -0.335 N 
ATOM      4  O   UNL     1     166.126 138.092 149.583  1.00  0.00    -0.272 OA
ATOM      5  C   UNL     1     165.089 138.685 149.219  1.00  0.00     0.247 C 
ATOM      6  N   UNL     1     163.986 138.936 150.054  1.00  0.00    -0.336 N 
ATOM      7  C   UNL     1     164.833 139.234 147.835  1.00  0.00     0.131 C 
ATOM      8  C   UNL     1     163.252 139.996 149.438  1.00  0.00     0.238 C 
ATOM      9  N   UNL     1     163.502 139.812 148.000  1.00  0.00    -0.339 N 
ATOM     10  C   UNL     1     164.841 138.085 146.848  1.00  0.00     0.100 C 
ATOM     11  C   UNL     1     165.896 140.232 147.540  1.00  0.00     0.100 C 
ATOM     12  C   UNL     1     166.217 137.471 146.728  1.00  0.00     0.265 C 
ATOM     13  C   UNL     1     166.708 139.789 146.368  1.00  0.00     0.265 C 
ATOM     14  H   UNL     1     163.767 138.427 150.953  1.00  0.00     0.165 HD
ATOM     15  H   UNL     1     167.777 138.499 147.481  1.00  0.00     0.348 HD
BRANCH   9  16
ATOM     16  C   UNL     1     162.522 140.162 147.036  1.00  0.00     0.039 A 
ATOM     17  C   UNL     1     162.742 141.181 146.139  1.00  0.00     0.026 A 
ATOM     18  C   UNL     1     161.353 139.467 146.978  1.00  0.00     0.026 A 
ATOM     19  C   UNL     1     161.792 141.520 145.171  1.00  0.00     0.002 A 
ATOM     20  C   UNL     1     160.411 139.783 146.039  1.00  0.00     0.002 A 
ATOM     21  C   UNL     1     160.618 140.797 145.140  1.00  0.00     0.000 A 
ENDBRANCH   9  16
ENDBRANCH   2   3
ENDBRANCH   1   2
BRANCH   1  22
ATOM     22  C   UNL     1     167.647 138.531 143.178  1.00  0.00     0.019 C 
BRANCH  22  23
ATOM     23  C   UNL     1     166.342 138.952 142.686  1.00  0.00     0.049 C 
BRANCH  23  24
ATOM     24  C   UNL     1     166.283 139.312 141.225  1.00  0.00    -0.040 A 
ATOM     25  C   UNL     1     165.632 140.483 140.904  1.00  0.00     0.007 A 
ATOM     26  C   UNL     1     166.818 138.518 140.246  1.00  0.00     0.007 A 
ATOM     27  C   UNL     1     165.514 140.869 139.592  1.00  0.00     0.039 A 
ATOM     28  C   UNL     1     166.698 138.907 138.939  1.00  0.00     0.039 A 
ATOM     29  C   UNL     1     166.043 140.092 138.586  1.00  0.00     0.123 A 
ATOM     30  F   UNL     1     165.920 140.484 137.293  1.00  0.00    -0.207 F 
ENDBRANCH  23  24
BRANCH  23  31
ATOM     31  C   UNL     1     165.133 138.255 143.092  1.00  0.00    -0.040 A 
ATOM     32  C   UNL     1     163.924 138.819 143.390  1.00  0.00     0.007 A 
ATOM     33  C   UNL     1     165.251 136.863 143.198  1.00  0.00     0.007 A 
ATOM     34  C   UNL     1     162.869 137.988 143.785  1.00  0.00     0.039 A 
ATOM     35  C   UNL     1     164.234 136.047 143.579  1.00  0.00     0.039 A 
ATOM     36  C   UNL     1     163.023 136.628 143.877  1.00  0.00     0.123 A 
ATOM     37  F   UNL     1     162.014 135.799 144.256  1.00  0.00    -0.207 F 
ENDBRANCH  23  31
ENDBRANCH  22  23
ENDBRANCH   1  22
TORSDOF 7
ENDMDL
MODEL 5
REMARK VINA RESULT:      -4.8      6.192      9.726
REMARK SMILES O=C1NCN(c2ccccc2)C12CC[NH+](CCCC(c1ccc(F)cc1)c1ccc(F)cc1)CC2
REMARK SMILES IDX 17 1 16 2 15 3 1 4 2 5 3 6 12 7 4 8 5 9 13 10 35 11 14 12
REMARK SMILES IDX 34 13 6 16 7 17 11 18 8 19 10 20 9 21 18 22 19 23 20 24
REMARK SMILES IDX 21 25 26 26 22 27 25 28 23 29 24 30 27 31 28 32 33 33 29 34
REMARK SMILES IDX 32 35 30 36 31 37
REMARK H PARENT 3 14 15 15
ROOT
ATOM      1  C   UNL     1     156.115 141.038 139.465  1.00  0.00     0.062 C 
ENDROOT
BRANCH   1   2
ATOM      2  C   UNL     1     157.259 141.969 139.737  1.00  0.00     0.262 C 
BRANCH   2   3
ATOM      3  N   UNL     1     158.523 141.244 139.674  1.00  0.00    -0.335 N 
ATOM      4  O   UNL     1     160.499 139.404 137.902  1.00  0.00    -0.272 OA
ATOM      5  C   UNL     1     161.126 139.148 138.951  1.00  0.00     0.247 C 
ATOM      6  N   UNL     1     162.250 138.306 139.018  1.00  0.00    -0.336 N 
ATOM      7  C   UNL     1     160.795 139.688 140.324  1.00  0.00     0.131 C 
ATOM      8  C   UNL     1     162.924 138.637 140.234  1.00  0.00     0.238 C 
ATOM      9  N   UNL     1     161.845 139.074 141.132  1.00  0.00    -0.339 N 
ATOM     10  C   UNL     1     159.413 139.205 140.715  1.00  0.00     0.100 C 
ATOM     11  C   UNL     1     160.870 141.172 140.257  1.00  0.00     0.100 C 
ATOM     12  C   UNL     1     158.347 139.816 139.836  1.00  0.00     0.265 C 
ATOM     13  C   UNL     1     159.534 141.771 140.553  1.00  0.00     0.265 C 
ATOM     14  H   UNL     1     162.519 137.583 138.298  1.00  0.00     0.165 HD
ATOM     15  H   UNL     1     158.855 141.398 138.697  1.00  0.00     0.348 HD
BRANCH   9  16
ATOM     16  C   UNL     1     161.924 138.858 142.532  1.00  0.00     0.039 A 
ATOM     17  C   UNL     1     161.865 139.910 143.416  1.00  0.00     0.026 A 
ATOM     18  C   UNL     1     162.039 137.591 143.014  1.00  0.00     0.026 A 
ATOM     19  C   UNL     1     161.922 139.707 144.798  1.00  0.00     0.002 A 
ATOM     20  C   UNL     1     162.096 137.371 144.363  1.00  0.00     0.002 A 
ATOM     21  C   UNL     1     162.038 138.411 145.253  1.00  0.00     0.000 A 
ENDBRANCH   9  16
ENDBRANCH   2   3
ENDBRANCH   1   2
BRANCH   1  22
ATOM     22  C   UNL     1     154.934 141.161 140.327  1.00  0.00     0.019 C 
BRANCH  22  23
ATOM     23  C   UNL     1     153.709 140.407 140.100  1.00  0.00     0.049 C 
BRANCH  23  24
ATOM     24  C   UNL     1     153.893 139.002 139.589  1.00  0.00    -0.040 A 
ATOM     25  C   UNL     1     153.444 138.746 138.313  1.00  0.00     0.007 A 
ATOM     26  C   UNL     1     154.453 138.009 140.347  1.00  0.00     0.007 A 
ATOM     27  C   UNL     1     153.554 137.485 137.784  1.00  0.00     0.039 A 
ATOM     28  C   UNL     1     154.562 136.752 139.815  1.00  0.00     0.039 A 
ATOM     29  C   UNL     1     154.114 136.466 138.520  1.00  0.00     0.123 A 
ATOM     30  F   UNL     1     154.217 135.222 137.986  1.00  0.00    -0.207 F 
ENDBRANCH  23  24
BRANCH  23  31
ATOM     31  C   UNL     1     152.611 140.467 141.051  1.00  0.00    -0.040 A 
ATOM     32  C   UNL     1     152.708 140.457 142.414  1.00  0.00     0.007 A 
ATOM     33  C   UNL     1     151.330 140.525 140.486  1.00  0.00     0.007 A 
ATOM     34  C   UNL     1     151.535 140.501 143.177  1.00  0.00     0.039 A 
ATOM     35  C   UNL     1     150.186 140.570 141.215  1.00  0.00     0.039 A 
ATOM     36  C   UNL     1     150.298 140.557 142.586  1.00  0.00     0.123 A 
ATOM     37  F   UNL     1     149.144 140.603 143.303  1.00  0.00    -0.207 F 
ENDBRANCH  23  31
ENDBRANCH  22  23
ENDBRANCH   1  22
TORSDOF 7
ENDMDL
MODEL 6
REMARK VINA RESULT:      -4.8     14.057     16.827
REMARK SMILES O=C1NCN(c2ccccc2)C12CC[NH+](CCCC(c1ccc(F)cc1)c1ccc(F)cc1)CC2
REMARK SMILES IDX 17 1 16 2 15 3 1 4 2 5 3 6 12 7 4 8 5 9 13 10 35 11 14 12
REMARK SMILES IDX 34 13 6 16 7 17 11 18 8 19 10 20 9 21 18 22 19 23 20 24
REMARK SMILES IDX 21 25 26 26 22 27 25 28 23 29 24 30 27 31 28 32 33 33 29 34
REMARK SMILES IDX 32 35 30 36 31 37
REMARK H PARENT 3 14 15 15
ROOT
ATOM      1  C   UNL     1     166.166 124.803 141.311  1.00  0.00     0.062 C 
ENDROOT
BRANCH   1   2
ATOM      2  C   UNL     1     167.119 124.793 142.469  1.00  0.00     0.262 C 
BRANCH   2   3
ATOM      3  N   UNL     1     168.147 125.811 142.283  1.00  0.00    -0.335 N 
ATOM      4  O   UNL     1     169.760 128.292 143.577  1.00  0.00    -0.272 OA
ATOM      5  C   UNL     1     170.173 128.561 142.430  1.00  0.00     0.247 C 
ATOM      6  N   UNL     1     171.021 129.640 142.126  1.00  0.00    -0.336 N 
ATOM      7  C   UNL     1     169.840 127.787 141.175  1.00  0.00     0.131 C 
ATOM      8  C   UNL     1     171.615 129.337 140.862  1.00  0.00     0.238 C 
ATOM      9  N   UNL     1     170.593 128.536 140.171  1.00  0.00    -0.339 N 
ATOM     10  C   UNL     1     168.344 127.859 140.942  1.00  0.00     0.100 C 
ATOM     11  C   UNL     1     170.310 126.390 141.367  1.00  0.00     0.100 C 
ATOM     12  C   UNL     1     167.584 127.118 142.017  1.00  0.00     0.265 C 
ATOM     13  C   UNL     1     169.153 125.446 141.321  1.00  0.00     0.265 C 
ATOM     14  H   UNL     1     171.172 130.493 142.731  1.00  0.00     0.165 HD
ATOM     15  H   UNL     1     168.617 125.869 143.213  1.00  0.00     0.348 HD
BRANCH   9  16
ATOM     16  C   UNL     1     170.452 128.587 138.761  1.00  0.00     0.039 A 
ATOM     17  C   UNL     1     169.672 129.546 138.160  1.00  0.00     0.026 A 
ATOM     18  C   UNL     1     171.114 127.687 137.984  1.00  0.00     0.026 A 
ATOM     19  C   UNL     1     169.542 129.618 136.769  1.00  0.00     0.002 A 
ATOM     20  C   UNL     1     171.001 127.739 136.622  1.00  0.00     0.002 A 
ATOM     21  C   UNL     1     170.226 128.691 136.012  1.00  0.00     0.000 A 
ENDBRANCH   9  16
ENDBRANCH   2   3
ENDBRANCH   1   2
BRANCH   1  22
ATOM     22  C   UNL     1     165.182 123.716 141.246  1.00  0.00     0.019 C 
BRANCH  22  23
ATOM     23  C   UNL     1     164.164 123.634 140.207  1.00  0.00     0.049 C 
BRANCH  23  24
ATOM     24  C   UNL     1     164.664 123.271 138.833  1.00  0.00    -0.040 A 
ATOM     25  C   UNL     1     165.504 122.183 138.750  1.00  0.00     0.007 A 
ATOM     26  C   UNL     1     164.333 123.987 137.714  1.00  0.00     0.007 A 
ATOM     27  C   UNL     1     166.021 121.803 137.537  1.00  0.00     0.039 A 
ATOM     28  C   UNL     1     164.850 123.604 136.506  1.00  0.00     0.039 A 
ATOM     29  C   UNL     1     165.706 122.502 136.394  1.00  0.00     0.123 A 
ATOM     30  F   UNL     1     166.224 122.117 135.200  1.00  0.00    -0.207 F 
ENDBRANCH  23  24
BRANCH  23  31
ATOM     31  C   UNL     1     162.882 123.003 140.470  1.00  0.00    -0.040 A 
ATOM     32  C   UNL     1     162.064 122.400 139.556  1.00  0.00     0.007 A 
ATOM     33  C   UNL     1     162.455 123.044 141.804  1.00  0.00     0.007 A 
ATOM     34  C   UNL     1     160.847 121.858 139.989  1.00  0.00     0.039 A 
ATOM     35  C   UNL     1     161.279 122.521 142.236  1.00  0.00     0.039 A 
ATOM     36  C   UNL     1     160.465 121.919 141.305  1.00  0.00     0.123 A 
ATOM     37  F   UNL     1     159.290 121.400 141.752  1.00  0.00    -0.207 F 
ENDBRANCH  23  31
ENDBRANCH  22  23
ENDBRANCH   1  22
TORSDOF 7
ENDMDL
MODEL 7
REMARK VINA RESULT:      -4.7     13.807     16.779
REMARK SMILES O=C1NCN(c2ccccc2)C12CC[NH+](CCCC(c1ccc(F)cc1)c1ccc(F)cc1)CC2
REMARK SMILES IDX 17 1 16 2 15 3 1 4 2 5 3 6 12 7 4 8 5 9 13 10 35 11 14 12
REMARK SMILES IDX 34 13 6 16 7 17 11 18 8 19 10 20 9 21 18 22 19 23 20 24
REMARK SMILES IDX 21 25 26 26 22 27 25 28 23 29 24 30 27 31 28 32 33 33 29 34
REMARK SMILES IDX 32 35 30 36 31 37
REMARK H PARENT 3 14 15 15
ROOT
ATOM      1  C   UNL     1     166.232 121.727 141.525  1.00  0.00     0.062 C 
ENDROOT
BRANCH   1   2
ATOM      2  C   UNL     1     166.425 122.859 142.491  1.00  0.00     0.262 C 
BRANCH   2   3
ATOM      3  N   UNL     1     167.346 123.844 141.934  1.00  0.00    -0.335 N 
ATOM      4  O   UNL     1     169.653 124.461 139.760  1.00  0.00    -0.272 OA
ATOM      5  C   UNL     1     169.896 125.513 140.386  1.00  0.00     0.247 C 
ATOM      6  N   UNL     1     170.895 126.435 140.028  1.00  0.00    -0.336 N 
ATOM      7  C   UNL     1     169.170 125.983 141.625  1.00  0.00     0.131 C 
ATOM      8  C   UNL     1     170.553 127.665 140.671  1.00  0.00     0.238 C 
ATOM      9  N   UNL     1     169.858 127.243 141.897  1.00  0.00    -0.339 N 
ATOM     10  C   UNL     1     169.382 124.965 142.727  1.00  0.00     0.100 C 
ATOM     11  C   UNL     1     167.733 126.140 141.277  1.00  0.00     0.100 C 
ATOM     12  C   UNL     1     168.702 123.655 142.404  1.00  0.00     0.265 C 
ATOM     13  C   UNL     1     166.900 125.203 142.090  1.00  0.00     0.265 C 
ATOM     14  H   UNL     1     171.724 126.233 139.406  1.00  0.00     0.165 HD
ATOM     15  H   UNL     1     167.350 123.637 140.911  1.00  0.00     0.348 HD
BRANCH   9  16
ATOM     16  C   UNL     1     169.937 128.013 143.086  1.00  0.00     0.039 A 
ATOM     17  C   UNL     1     170.919 127.779 144.019  1.00  0.00     0.026 A 
ATOM     18  C   UNL     1     169.041 129.015 143.301  1.00  0.00     0.026 A 
ATOM     19  C   UNL     1     171.019 128.545 145.184  1.00  0.00     0.002 A 
ATOM     20  C   UNL     1     169.121 129.776 144.435  1.00  0.00     0.002 A 
ATOM     21  C   UNL     1     170.096 129.552 145.372  1.00  0.00     0.000 A 
ENDBRANCH   9  16
ENDBRANCH   2   3
ENDBRANCH   1   2
BRANCH   1  22
ATOM     22  C   UNL     1     164.926 121.059 141.531  1.00  0.00     0.019 C 
BRANCH  22  23
ATOM     23  C   UNL     1     163.746 121.626 140.893  1.00  0.00     0.049 C 
BRANCH  23  24
ATOM     24  C   UNL     1     162.613 121.984 141.819  1.00  0.00    -0.040 A 
ATOM     25  C   UNL     1     162.941 122.206 143.138  1.00  0.00     0.007 A 
ATOM     26  C   UNL     1     161.313 122.064 141.398  1.00  0.00     0.007 A 
ATOM     27  C   UNL     1     161.963 122.513 144.049  1.00  0.00     0.039 A 
ATOM     28  C   UNL     1     160.339 122.371 142.310  1.00  0.00     0.039 A 
ATOM     29  C   UNL     1     160.646 122.603 143.656  1.00  0.00     0.123 A 
ATOM     30  F   UNL     1     159.687 122.907 144.566  1.00  0.00    -0.207 F 
ENDBRANCH  23  24
BRANCH  23  31
ATOM     31  C   UNL     1     163.874 122.613 139.833  1.00  0.00    -0.040 A 
ATOM     32  C   UNL     1     163.951 123.969 139.985  1.00  0.00     0.007 A 
ATOM     33  C   UNL     1     163.904 122.096 138.532  1.00  0.00     0.007 A 
ATOM     34  C   UNL     1     164.053 124.773 138.842  1.00  0.00     0.039 A 
ATOM     35  C   UNL     1     164.003 122.864 137.417  1.00  0.00     0.039 A 
ATOM     36  C   UNL     1     164.078 124.228 137.583  1.00  0.00     0.123 A 
ATOM     37  F   UNL     1     164.178 124.986 136.458  1.00  0.00    -0.207 F 
ENDBRANCH  23  31
ENDBRANCH  22  23
ENDBRANCH   1  22
TORSDOF 7
ENDMDL
MODEL 8
REMARK VINA RESULT:      -4.7     13.506     16.999
REMARK SMILES O=C1NCN(c2ccccc2)C12CC[NH+](CCCC(c1ccc(F)cc1)c1ccc(F)cc1)CC2
REMARK SMILES IDX 17 1 16 2 15 3 1 4 2 5 3 6 12 7 4 8 5 9 13 10 35 11 14 12
REMARK SMILES IDX 34 13 6 16 7 17 11 18 8 19 10 20 9 21 18 22 19 23 20 24
REMARK SMILES IDX 21 25 26 26 22 27 25 28 23 29 24 30 27 31 28 32 33 33 29 34
REMARK SMILES IDX 32 35 30 36 31 37
REMARK H PARENT 3 14 15 15
ROOT
ATOM      1  C   UNL     1     167.039 122.685 141.364  1.00  0.00     0.062 C 
ENDROOT
BRANCH   1   2
ATOM      2  C   UNL     1     168.490 122.740 140.985  1.00  0.00     0.262 C 
BRANCH   2   3
ATOM      3  N   UNL     1     169.078 124.000 141.425  1.00  0.00    -0.335 N 
ATOM      4  O   UNL     1     169.849 125.897 143.922  1.00  0.00    -0.272 OA
ATOM      5  C   UNL     1     170.028 126.822 143.104  1.00  0.00     0.247 C 
ATOM      6  N   UNL     1     170.416 128.127 143.456  1.00  0.00    -0.336 N 
ATOM      7  C   UNL     1     169.863 126.712 141.606  1.00  0.00     0.131 C 
ATOM      8  C   UNL     1     170.951 128.718 142.270  1.00  0.00     0.238 C 
ATOM      9  N   UNL     1     170.206 128.067 141.181  1.00  0.00    -0.339 N 
ATOM     10  C   UNL     1     168.420 126.364 141.301  1.00  0.00     0.100 C 
ATOM     11  C   UNL     1     170.804 125.668 141.122  1.00  0.00     0.100 C 
ATOM     12  C   UNL     1     168.073 124.977 141.791  1.00  0.00     0.265 C 
ATOM     13  C   UNL     1     170.048 124.536 140.507  1.00  0.00     0.265 C 
ATOM     14  H   UNL     1     170.320 128.560 144.414  1.00  0.00     0.165 HD
ATOM     15  H   UNL     1     169.587 123.750 142.300  1.00  0.00     0.348 HD
BRANCH   9  16
ATOM     16  C   UNL     1     169.919 128.756 139.975  1.00  0.00     0.039 A 
ATOM     17  C   UNL     1     169.185 129.918 139.980  1.00  0.00     0.026 A 
ATOM     18  C   UNL     1     170.393 128.275 138.793  1.00  0.00     0.026 A 
ATOM     19  C   UNL     1     168.913 130.617 138.799  1.00  0.00     0.002 A 
ATOM     20  C   UNL     1     170.139 128.942 137.627  1.00  0.00     0.002 A 
ATOM     21  C   UNL     1     169.408 130.102 137.620  1.00  0.00     0.000 A 
ENDBRANCH   9  16
ENDBRANCH   2   3
ENDBRANCH   1   2
BRANCH   1  22
ATOM     22  C   UNL     1     166.068 122.556 140.272  1.00  0.00     0.019 C 
BRANCH  22  23
ATOM     23  C   UNL     1     164.754 123.185 140.306  1.00  0.00     0.049 C 
BRANCH  23  24
ATOM     24  C   UNL     1     164.159 123.521 138.964  1.00  0.00    -0.040 A 
ATOM     25  C   UNL     1     164.987 123.391 137.871  1.00  0.00     0.007 A 
ATOM     26  C   UNL     1     162.870 123.959 138.817  1.00  0.00     0.007 A 
ATOM     27  C   UNL     1     164.527 123.702 136.617  1.00  0.00     0.039 A 
ATOM     28  C   UNL     1     162.414 124.267 137.563  1.00  0.00     0.039 A 
ATOM     29  C   UNL     1     163.235 124.143 136.437  1.00  0.00     0.123 A 
ATOM     30  F   UNL     1     162.791 124.447 135.191  1.00  0.00    -0.207 F 
ENDBRANCH  23  24
BRANCH  23  31
ATOM     31  C   UNL     1     163.727 122.713 141.220  1.00  0.00    -0.040 A 
ATOM     32  C   UNL     1     163.222 123.384 142.299  1.00  0.00     0.007 A 
ATOM     33  C   UNL     1     163.231 121.430 140.955  1.00  0.00     0.007 A 
ATOM     34  C   UNL     1     162.242 122.763 143.084  1.00  0.00     0.039 A 
ATOM     35  C   UNL     1     162.281 120.818 141.707  1.00  0.00     0.039 A 
ATOM     36  C   UNL     1     161.783 121.504 142.791  1.00  0.00     0.123 A 
ATOM     37  F   UNL     1     160.831 120.879 143.536  1.00  0.00    -0.207 F 
ENDBRANCH  23  31
ENDBRANCH  22  23
ENDBRANCH   1  22
TORSDOF 7
ENDMDL
MODEL 9
REMARK VINA RESULT:      -4.7      3.882      7.953
REMARK SMILES O=C1NCN(c2ccccc2)C12CC[NH+](CCCC(c1ccc(F)cc1)c1ccc(F)cc1)CC2
REMARK SMILES IDX 17 1 16 2 15 3 1 4 2 5 3 6 12 7 4 8 5 9 13 10 35 11 14 12
REMARK SMILES IDX 34 13 6 16 7 17 11 18 8 19 10 20 9 21 18 22 19 23 20 24
REMARK SMILES IDX 21 25 26 26 22 27 25 28 23 29 24 30 27 31 28 32 33 33 29 34
REMARK SMILES IDX 32 35 30 36 31 37
REMARK H PARENT 3 14 15 15
ROOT
ATOM      1  C   UNL     1     164.381 136.218 143.559  1.00  0.00     0.062 C 
ENDROOT
BRANCH   1   2
ATOM      2  C   UNL     1     165.271 137.277 142.979  1.00  0.00     0.262 C 
BRANCH   2   3
ATOM      3  N   UNL     1     166.166 137.800 144.006  1.00  0.00    -0.335 N 
ATOM      4  O   UNL     1     169.133 137.760 145.281  1.00  0.00    -0.272 OA
ATOM      5  C   UNL     1     168.665 138.364 146.268  1.00  0.00     0.247 C 
ATOM      6  N   UNL     1     169.418 138.746 147.393  1.00  0.00    -0.336 N 
ATOM      7  C   UNL     1     167.225 138.791 146.434  1.00  0.00     0.131 C 
ATOM      8  C   UNL     1     168.671 139.776 148.043  1.00  0.00     0.238 C 
ATOM      9  N   UNL     1     167.270 139.445 147.740  1.00  0.00    -0.339 N 
ATOM     10  C   UNL     1     166.350 137.553 146.442  1.00  0.00     0.100 C 
ATOM     11  C   UNL     1     166.891 139.704 145.310  1.00  0.00     0.100 C 
ATOM     12  C   UNL     1     166.356 136.867 145.096  1.00  0.00     0.265 C 
ATOM     13  C   UNL     1     165.806 139.114 144.470  1.00  0.00     0.265 C 
ATOM     14  H   UNL     1     170.348 138.336 147.678  1.00  0.00     0.165 HD
ATOM     15  H   UNL     1     167.085 137.887 143.520  1.00  0.00     0.348 HD
BRANCH   9  16
ATOM     16  C   UNL     1     166.231 139.747 148.656  1.00  0.00     0.039 A 
ATOM     17  C   UNL     1     165.717 138.782 149.491  1.00  0.00     0.026 A 
ATOM     18  C   UNL     1     165.744 141.016 148.730  1.00  0.00     0.026 A 
ATOM     19  C   UNL     1     164.707 139.073 150.412  1.00  0.00     0.002 A 
ATOM     20  C   UNL     1     164.755 141.322 149.624  1.00  0.00     0.002 A 
ATOM     21  C   UNL     1     164.236 140.368 150.461  1.00  0.00     0.000 A 
ENDBRANCH   9  16
ENDBRANCH   2   3
ENDBRANCH   1   2
BRANCH   1  22
ATOM     22  C   UNL     1     163.122 136.662 144.166  1.00  0.00     0.019 C 
BRANCH  22  23
ATOM     23  C   UNL     1     162.603 138.014 144.008  1.00  0.00     0.049 C 
BRANCH  23  24
ATOM     24  C   UNL     1     161.541 138.185 142.953  1.00  0.00    -0.040 A 
ATOM     25  C   UNL     1     161.891 138.911 141.836  1.00  0.00     0.007 A 
ATOM     26  C   UNL     1     160.277 137.674 143.088  1.00  0.00     0.007 A 
ATOM     27  C   UNL     1     160.972 139.131 140.841  1.00  0.00     0.039 A 
ATOM     28  C   UNL     1     159.364 137.896 142.093  1.00  0.00     0.039 A 
ATOM     29  C   UNL     1     159.695 138.630 140.948  1.00  0.00     0.123 A 
ATOM     30  F   UNL     1     158.795 138.855 139.957  1.00  0.00    -0.207 F 
ENDBRANCH  23  24
BRANCH  23  31
ATOM     31  C   UNL     1     162.311 138.840 145.168  1.00  0.00    -0.040 A 
ATOM     32  C   UNL     1     162.061 140.184 145.173  1.00  0.00     0.007 A 
ATOM     33  C   UNL     1     162.308 138.168 146.397  1.00  0.00     0.007 A 
ATOM     34  C   UNL     1     161.817 140.822 146.395  1.00  0.00     0.039 A 
ATOM     35  C   UNL     1     162.071 138.776 147.588  1.00  0.00     0.039 A 
ATOM     36  C   UNL     1     161.823 140.129 147.579  1.00  0.00     0.123 A 
ATOM     37  F   UNL     1     161.588 140.724 148.779  1.00  0.00    -0.207 F 
ENDBRANCH  23  31
ENDBRANCH  22  23
ENDBRANCH   1  22
TORSDOF 7
ENDMDL
