MODEL 1
REMARK VINA RESULT:      -7.7      0.000      0.000
REMARK SMILES COc1cc2ccc(=O)oc2cc1[O-]
REMARK SMILES IDX 3 1 4 2 5 3 6 4 7 5 8 6 9 7 10 8 11 9 12 10 13 11 14 12 2 13
REMARK SMILES IDX 1 14
REMARK H PARENT
ROOT
ATOM      1  C   UNL     1      56.136  15.150  98.845  1.00  0.00     0.111 A 
ATOM      2  C   UNL     1      57.071  14.706  99.743  1.00  0.00     0.057 A 
ATOM      3  C   UNL     1      57.793  15.617 100.491  1.00  0.00     0.021 A 
ATOM      4  C   UNL     1      58.726  15.137 101.385  1.00  0.00     0.019 A 
ATOM      5  C   UNL     1      59.430  16.079 102.116  1.00  0.00     0.094 A 
ATOM      6  C   UNL     1      59.165  17.410 101.915  1.00  0.00     0.336 A 
ATOM      7  O   UNL     1      59.815  18.247 102.590  1.00  0.00    -0.246 OA
ATOM      8  O   UNL     1      58.259  17.803 101.045  1.00  0.00    -0.423 OA
ATOM      9  C   UNL     1      57.559  16.959 100.322  1.00  0.00     0.138 A 
ATOM     10  C   UNL     1      56.626  17.433  99.427  1.00  0.00     0.043 A 
ATOM     11  C   UNL     1      55.913  16.522  98.688  1.00  0.00    -0.062 A 
ATOM     12  O   UNL     1      54.963  16.968  97.776  1.00  0.00    -0.870 OA
ENDROOT
BRANCH   1  13
ATOM     13  O   UNL     1      55.390  14.290  98.076  1.00  0.00    -0.497 OA
ATOM     14  C   UNL     1      54.641  13.225  98.582  1.00  0.00     0.278 C 
ENDBRANCH   1  13
TORSDOF 1
ENDMDL
MODEL 2
REMARK VINA RESULT:      -7.1      1.439      2.520
REMARK SMILES COc1cc2ccc(=O)oc2cc1[O-]
REMARK SMILES IDX 3 1 4 2 5 3 6 4 7 5 8 6 9 7 10 8 11 9 12 10 13 11 14 12 2 13
REMARK SMILES IDX 1 14
REMARK H PARENT
ROOT
ATOM      1  C   UNL     1      55.993  16.543  98.606  1.00  0.00     0.111 A 
ATOM      2  C   UNL     1      56.877  17.298  99.331  1.00  0.00     0.057 A 
ATOM      3  C   UNL     1      57.663  16.696 100.295  1.00  0.00     0.021 A 
ATOM      4  C   UNL     1      58.543  17.484 101.008  1.00  0.00     0.019 A 
ATOM      5  C   UNL     1      59.314  16.846 101.964  1.00  0.00     0.094 A 
ATOM      6  C   UNL     1      59.165  15.495 102.146  1.00  0.00     0.336 A 
ATOM      7  O   UNL     1      59.877  14.938 103.020  1.00  0.00    -0.246 OA
ATOM      8  O   UNL     1      58.307  14.799 101.431  1.00  0.00    -0.423 OA
ATOM      9  C   UNL     1      57.547  15.345 100.509  1.00  0.00     0.138 A 
ATOM     10  C   UNL     1      56.668  14.564  99.795  1.00  0.00     0.043 A 
ATOM     11  C   UNL     1      55.889  15.168  98.840  1.00  0.00    -0.062 A 
ATOM     12  O   UNL     1      54.991  14.407  98.100  1.00  0.00    -0.870 OA
ENDROOT
BRANCH   1  13
ATOM     13  O   UNL     1      55.185  17.088  97.635  1.00  0.00    -0.497 OA
ATOM     14  C   UNL     1      53.943  17.676  97.881  1.00  0.00     0.278 C 
ENDBRANCH   1  13
TORSDOF 1
ENDMDL
MODEL 3
REMARK VINA RESULT:      -6.6      1.822      4.704
REMARK SMILES COc1cc2ccc(=O)oc2cc1[O-]
REMARK SMILES IDX 3 1 4 2 5 3 6 4 7 5 8 6 9 7 10 8 11 9 12 10 13 11 14 12 2 13
REMARK SMILES IDX 1 14
REMARK H PARENT
ROOT
ATOM      1  C   UNL     1      59.118  15.485 101.997  1.00  0.00     0.111 A 
ATOM      2  C   UNL     1      58.128  14.935 101.224  1.00  0.00     0.057 A 
ATOM      3  C   UNL     1      57.807  15.511 100.010  1.00  0.00     0.021 A 
ATOM      4  C   UNL     1      56.806  14.934  99.256  1.00  0.00     0.019 A 
ATOM      5  C   UNL     1      56.512  15.537  98.046  1.00  0.00     0.094 A 
ATOM      6  C   UNL     1      57.217  16.653  97.670  1.00  0.00     0.336 A 
ATOM      7  O   UNL     1      56.932  17.184  96.567  1.00  0.00    -0.246 OA
ATOM      8  O   UNL     1      58.162  17.154  98.436  1.00  0.00    -0.423 OA
ATOM      9  C   UNL     1      58.488  16.628  99.595  1.00  0.00     0.138 A 
ATOM     10  C   UNL     1      59.486  17.200 100.351  1.00  0.00     0.043 A 
ATOM     11  C   UNL     1      59.800  16.623 101.556  1.00  0.00    -0.062 A 
ATOM     12  O   UNL     1      60.803  17.176 102.344  1.00  0.00    -0.870 OA
ENDROOT
BRANCH   1  13
ATOM     13  O   UNL     1      59.480  14.955 103.213  1.00  0.00    -0.497 OA
ATOM     14  C   UNL     1      59.050  13.715 103.693  1.00  0.00     0.278 C 
ENDBRANCH   1  13
TORSDOF 1
ENDMDL
MODEL 4
REMARK VINA RESULT:      -6.5      1.395      1.451
REMARK SMILES COc1cc2ccc(=O)oc2cc1[O-]
REMARK SMILES IDX 3 1 4 2 5 3 6 4 7 5 8 6 9 7 10 8 11 9 12 10 13 11 14 12 2 13
REMARK SMILES IDX 1 14
REMARK H PARENT
ROOT
ATOM      1  C   UNL     1      55.004  15.814  98.843  1.00  0.00     0.111 A 
ATOM      2  C   UNL     1      55.952  15.245  99.652  1.00  0.00     0.057 A 
ATOM      3  C   UNL     1      57.172  15.872  99.826  1.00  0.00     0.021 A 
ATOM      4  C   UNL     1      58.105  15.273 100.647  1.00  0.00     0.019 A 
ATOM      5  C   UNL     1      59.313  15.929 100.797  1.00  0.00     0.094 A 
ATOM      6  C   UNL     1      59.514  17.115 100.136  1.00  0.00     0.336 A 
ATOM      7  O   UNL     1      60.619  17.693 100.288  1.00  0.00    -0.246 OA
ATOM      8  O   UNL     1      58.581  17.634  99.367  1.00  0.00    -0.423 OA
ATOM      9  C   UNL     1      57.414  17.060  99.184  1.00  0.00     0.138 A 
ATOM     10  C   UNL     1      56.479  17.654  98.366  1.00  0.00     0.043 A 
ATOM     11  C   UNL     1      55.270  17.026  98.197  1.00  0.00    -0.062 A 
ATOM     12  O   UNL     1      54.304  17.599  97.378  1.00  0.00    -0.870 OA
ENDROOT
BRANCH   1  13
ATOM     13  O   UNL     1      53.775  15.236  98.633  1.00  0.00    -0.497 OA
ATOM     14  C   UNL     1      53.501  13.878  98.811  1.00  0.00     0.278 C 
ENDBRANCH   1  13
TORSDOF 1
ENDMDL
MODEL 5
REMARK VINA RESULT:      -6.5      1.849      2.954
REMARK SMILES COc1cc2ccc(=O)oc2cc1[O-]
REMARK SMILES IDX 3 1 4 2 5 3 6 4 7 5 8 6 9 7 10 8 11 9 12 10 13 11 14 12 2 13
REMARK SMILES IDX 1 14
REMARK H PARENT
ROOT
ATOM      1  C   UNL     1      57.241  17.054  98.481  1.00  0.00     0.111 A 
ATOM      2  C   UNL     1      58.261  17.430  99.317  1.00  0.00     0.057 A 
ATOM      3  C   UNL     1      58.584  16.638 100.402  1.00  0.00     0.021 A 
ATOM      4  C   UNL     1      59.615  17.043 101.224  1.00  0.00     0.019 A 
ATOM      5  C   UNL     1      59.910  16.226 102.301  1.00  0.00     0.094 A 
ATOM      6  C   UNL     1      59.178  15.081 102.488  1.00  0.00     0.336 A 
ATOM      7  O   UNL     1      59.464  14.354 103.472  1.00  0.00    -0.246 OA
ATOM      8  O   UNL     1      58.206  14.750 101.665  1.00  0.00    -0.423 OA
ATOM      9  C   UNL     1      57.877  15.483 100.626  1.00  0.00     0.138 A 
ATOM     10  C   UNL     1      56.849  15.083  99.802  1.00  0.00     0.043 A 
ATOM     11  C   UNL     1      56.533  15.874  98.726  1.00  0.00    -0.062 A 
ATOM     12  O   UNL     1      55.500  15.498  97.874  1.00  0.00    -0.870 OA
ENDROOT
BRANCH   1  13
ATOM     13  O   UNL     1      56.876  17.802  97.386  1.00  0.00    -0.497 OA
ATOM     14  C   UNL     1      57.331  19.098  97.129  1.00  0.00     0.278 C 
ENDBRANCH   1  13
TORSDOF 1
ENDMDL
MODEL 6
REMARK VINA RESULT:      -6.2      2.967      3.462
REMARK SMILES COc1cc2ccc(=O)oc2cc1[O-]
REMARK SMILES IDX 3 1 4 2 5 3 6 4 7 5 8 6 9 7 10 8 11 9 12 10 13 11 14 12 2 13
REMARK SMILES IDX 1 14
REMARK H PARENT
ROOT
ATOM      1  C   UNL     1      54.696  14.116  99.466  1.00  0.00     0.111 A 
ATOM      2  C   UNL     1      56.019  14.361  99.206  1.00  0.00     0.057 A 
ATOM      3  C   UNL     1      56.395  15.563  98.636  1.00  0.00     0.021 A 
ATOM      4  C   UNL     1      57.735  15.779  98.388  1.00  0.00     0.019 A 
ATOM      5  C   UNL     1      58.074  16.993  97.817  1.00  0.00     0.094 A 
ATOM      6  C   UNL     1      57.080  17.896  97.535  1.00  0.00     0.336 A 
ATOM      7  O   UNL     1      57.412  18.992  97.017  1.00  0.00    -0.246 OA
ATOM      8  O   UNL     1      55.819  17.628  97.797  1.00  0.00    -0.423 OA
ATOM      9  C   UNL     1      55.433  16.495  98.339  1.00  0.00     0.138 A 
ATOM     10  C   UNL     1      54.097  16.274  98.588  1.00  0.00     0.043 A 
ATOM     11  C   UNL     1      53.731  15.079  99.154  1.00  0.00    -0.062 A 
ATOM     12  O   UNL     1      52.390  14.825  99.420  1.00  0.00    -0.870 OA
ENDROOT
BRANCH   1  13
ATOM     13  O   UNL     1      54.265  12.939 100.031  1.00  0.00    -0.497 OA
ATOM     14  C   UNL     1      54.284  11.700  99.387  1.00  0.00     0.278 C 
ENDBRANCH   1  13
TORSDOF 1
ENDMDL
MODEL 7
REMARK VINA RESULT:      -6.2      1.554      1.681
REMARK SMILES COc1cc2ccc(=O)oc2cc1[O-]
REMARK SMILES IDX 3 1 4 2 5 3 6 4 7 5 8 6 9 7 10 8 11 9 12 10 13 11 14 12 2 13
REMARK SMILES IDX 1 14
REMARK H PARENT
ROOT
ATOM      1  C   UNL     1      54.727  14.708  98.991  1.00  0.00     0.111 A 
ATOM      2  C   UNL     1      55.951  14.274  99.428  1.00  0.00     0.057 A 
ATOM      3  C   UNL     1      56.979  15.182  99.601  1.00  0.00     0.021 A 
ATOM      4  C   UNL     1      58.199  14.714 100.042  1.00  0.00     0.019 A 
ATOM      5  C   UNL     1      59.204  15.652 100.204  1.00  0.00     0.094 A 
ATOM      6  C   UNL     1      58.937  16.968  99.923  1.00  0.00     0.336 A 
ATOM      7  O   UNL     1      59.865  17.801 100.077  1.00  0.00    -0.246 OA
ATOM      8  O   UNL     1      57.749  17.350  99.505  1.00  0.00    -0.423 OA
ATOM      9  C   UNL     1      56.755  16.510  99.332  1.00  0.00     0.138 A 
ATOM     10  C   UNL     1      55.535  16.972  98.891  1.00  0.00     0.043 A 
ATOM     11  C   UNL     1      54.520  16.064  98.722  1.00  0.00    -0.062 A 
ATOM     12  O   UNL     1      53.275  16.499  98.279  1.00  0.00    -0.870 OA
ENDROOT
BRANCH   1  13
ATOM     13  O   UNL     1      53.669  13.850  98.801  1.00  0.00    -0.497 OA
ATOM     14  C   UNL     1      53.614  12.875  97.803  1.00  0.00     0.278 C 
ENDBRANCH   1  13
TORSDOF 1
ENDMDL
MODEL 8
REMARK VINA RESULT:      -6.1      2.008      4.824
REMARK SMILES COc1cc2ccc(=O)oc2cc1[O-]
REMARK SMILES IDX 3 1 4 2 5 3 6 4 7 5 8 6 9 7 10 8 11 9 12 10 13 11 14 12 2 13
REMARK SMILES IDX 1 14
REMARK H PARENT
ROOT
ATOM      1  C   UNL     1      57.930  16.407  98.813  1.00  0.00     0.111 A 
ATOM      2  C   UNL     1      57.324  15.237  99.190  1.00  0.00     0.057 A 
ATOM      3  C   UNL     1      55.953  15.108  99.078  1.00  0.00     0.021 A 
ATOM      4  C   UNL     1      55.373  13.918  99.466  1.00  0.00     0.019 A 
ATOM      5  C   UNL     1      53.998  13.825  99.339  1.00  0.00     0.094 A 
ATOM      6  C   UNL     1      53.302  14.899  98.845  1.00  0.00     0.336 A 
ATOM      7  O   UNL     1      52.054  14.792  98.738  1.00  0.00    -0.246 OA
ATOM      8  O   UNL     1      53.916  16.008  98.491  1.00  0.00    -0.423 OA
ATOM      9  C   UNL     1      55.217  16.158  98.587  1.00  0.00     0.138 A 
ATOM     10  C   UNL     1      55.801  17.343  98.201  1.00  0.00     0.043 A 
ATOM     11  C   UNL     1      57.163  17.465  98.315  1.00  0.00    -0.062 A 
ATOM     12  O   UNL     1      57.784  18.649  97.934  1.00  0.00    -0.870 OA
ENDROOT
BRANCH   1  13
ATOM     13  O   UNL     1      59.290  16.591  98.902  1.00  0.00    -0.497 OA
ATOM     14  C   UNL     1      59.965  16.926 100.078  1.00  0.00     0.278 C 
ENDBRANCH   1  13
TORSDOF 1
ENDMDL
MODEL 9
REMARK VINA RESULT:      -6.0      2.812      4.900
REMARK SMILES COc1cc2ccc(=O)oc2cc1[O-]
REMARK SMILES IDX 3 1 4 2 5 3 6 4 7 5 8 6 9 7 10 8 11 9 12 10 13 11 14 12 2 13
REMARK SMILES IDX 1 14
REMARK H PARENT
ROOT
ATOM      1  C   UNL     1      56.762  15.962  98.174  1.00  0.00     0.111 A 
ATOM      2  C   UNL     1      56.304  14.819  98.776  1.00  0.00     0.057 A 
ATOM      3  C   UNL     1      54.979  14.730  99.161  1.00  0.00     0.021 A 
ATOM      4  C   UNL     1      54.549  13.567  99.764  1.00  0.00     0.019 A 
ATOM      5  C   UNL     1      53.218  13.514 100.136  1.00  0.00     0.094 A 
ATOM      6  C   UNL     1      52.414  14.598  99.888  1.00  0.00     0.336 A 
ATOM      7  O   UNL     1      51.208  14.527 100.234  1.00  0.00    -0.246 OA
ATOM      8  O   UNL     1      52.886  15.680  99.307  1.00  0.00    -0.423 OA
ATOM      9  C   UNL     1      54.140  15.792  98.931  1.00  0.00     0.138 A 
ATOM     10  C   UNL     1      54.574  16.951  98.328  1.00  0.00     0.043 A 
ATOM     11  C   UNL     1      55.891  17.032  97.949  1.00  0.00    -0.062 A 
ATOM     12  O   UNL     1      56.361  18.189  97.337  1.00  0.00    -0.870 OA
ENDROOT
BRANCH   1  13
ATOM     13  O   UNL     1      58.068  16.106  97.771  1.00  0.00    -0.497 OA
ATOM     14  C   UNL     1      59.175  15.924  98.603  1.00  0.00     0.278 C 
ENDBRANCH   1  13
TORSDOF 1
ENDMDL
