MODEL 1
REMARK VINA RESULT:      -7.2      0.000      0.000
REMARK SMILES COc1ccc(-c2cc(=O)c3c(O)c(OC)c(O)cc3o2)cc1
REMARK SMILES IDX 7 1 8 2 9 3 10 4 11 5 12 6 14 7 17 8 19 9 20 10 21 11 6 12
REMARK SMILES IDX 3 13 4 14 23 15 5 16 22 17 2 18 1 19 13 20 18 22 15 24 16 25
REMARK H PARENT 13 21 18 23
ROOT
ATOM      1  C   UNL     1      93.045  49.423  19.818  1.00  0.00     0.138 A 
ATOM      2  C   UNL     1      93.897  50.431  19.420  1.00  0.00     0.100 A 
ATOM      3  C   UNL     1      93.658  51.737  19.861  1.00  0.00     0.197 A 
ATOM      4  O   UNL     1      94.414  52.688  19.519  1.00  0.00    -0.289 OA
ATOM      5  C   UNL     1      92.585  52.009  20.684  1.00  0.00     0.111 A 
ATOM      6  C   UNL     1      92.312  53.288  21.145  1.00  0.00     0.176 A 
ATOM      7  C   UNL     1      91.239  53.563  21.968  1.00  0.00     0.203 A 
ATOM      8  C   UNL     1      90.435  52.501  22.322  1.00  0.00     0.165 A 
ATOM      9  C   UNL     1      90.697  51.225  21.870  1.00  0.00     0.098 A 
ATOM     10  C   UNL     1      91.782  50.946  21.036  1.00  0.00     0.146 A 
ATOM     11  O   UNL     1      92.045  49.759  20.602  1.00  0.00    -0.456 OA
ENDROOT
BRANCH   1  12
ATOM     12  C   UNL     1      93.229  48.025  19.396  1.00  0.00     0.018 A 
ATOM     13  C   UNL     1      93.512  45.369  18.491  1.00  0.00     0.118 A 
ATOM     14  C   UNL     1      94.119  45.801  19.647  1.00  0.00     0.047 A 
ATOM     15  C   UNL     1      92.756  46.279  17.784  1.00  0.00     0.047 A 
ATOM     16  C   UNL     1      93.980  47.120  20.099  1.00  0.00     0.016 A 
ATOM     17  C   UNL     1      92.623  47.592  18.242  1.00  0.00     0.016 A 
BRANCH  13  18
ATOM     18  O   UNL     1      93.661  44.044  18.052  1.00  0.00    -0.497 OA
ATOM     19  C   UNL     1      93.527  42.957  18.927  1.00  0.00     0.278 C 
ENDBRANCH  13  18
ENDBRANCH   1  12
BRANCH   6  20
ATOM     20  O   UNL     1      93.134  54.333  20.775  1.00  0.00    -0.504 OA
ATOM     21  H   UNL     1      93.557  54.983  21.420  1.00  0.00     0.293 HD
ENDBRANCH   6  20
BRANCH   8  22
ATOM     22  O   UNL     1      89.352  52.785  23.155  1.00  0.00    -0.504 OA
ATOM     23  H   UNL     1      89.240  52.360  24.073  1.00  0.00     0.293 HD
ENDBRANCH   8  22
BRANCH   7  24
ATOM     24  O   UNL     1      90.998  54.859  22.410  1.00  0.00    -0.490 OA
ATOM     25  C   UNL     1      91.681  55.329  23.562  1.00  0.00     0.278 C 
ENDBRANCH   7  24
TORSDOF 5
ENDMDL
MODEL 2
REMARK VINA RESULT:      -7.1      0.999      1.429
REMARK SMILES COc1ccc(-c2cc(=O)c3c(O)c(OC)c(O)cc3o2)cc1
REMARK SMILES IDX 7 1 8 2 9 3 10 4 11 5 12 6 14 7 17 8 19 9 20 10 21 11 6 12
REMARK SMILES IDX 3 13 4 14 23 15 5 16 22 17 2 18 1 19 13 20 18 22 15 24 16 25
REMARK H PARENT 13 21 18 23
ROOT
ATOM      1  C   UNL     1      92.458  49.877  19.702  1.00  0.00     0.138 A 
ATOM      2  C   UNL     1      93.463  50.724  19.284  1.00  0.00     0.100 A 
ATOM      3  C   UNL     1      93.545  52.006  19.840  1.00  0.00     0.197 A 
ATOM      4  O   UNL     1      94.449  52.813  19.484  1.00  0.00    -0.289 OA
ATOM      5  C   UNL     1      92.634  52.413  20.793  1.00  0.00     0.111 A 
ATOM      6  C   UNL     1      92.681  53.673  21.369  1.00  0.00     0.176 A 
ATOM      7  C   UNL     1      91.771  54.083  22.323  1.00  0.00     0.203 A 
ATOM      8  C   UNL     1      90.797  53.177  22.688  1.00  0.00     0.165 A 
ATOM      9  C   UNL     1      90.742  51.922  22.121  1.00  0.00     0.098 A 
ATOM     10  C   UNL     1      91.663  51.506  21.156  1.00  0.00     0.146 A 
ATOM     11  O   UNL     1      91.629  50.335  20.613  1.00  0.00    -0.456 OA
ENDROOT
BRANCH   1  12
ATOM     12  C   UNL     1      92.305  48.515  19.166  1.00  0.00     0.018 A 
ATOM     13  C   UNL     1      92.099  45.868  18.215  1.00  0.00     0.118 A 
ATOM     14  C   UNL     1      91.290  46.869  17.730  1.00  0.00     0.047 A 
ATOM     15  C   UNL     1      93.019  46.200  19.185  1.00  0.00     0.047 A 
ATOM     16  C   UNL     1      91.390  48.185  18.201  1.00  0.00     0.016 A 
ATOM     17  C   UNL     1      93.112  47.515  19.649  1.00  0.00     0.016 A 
BRANCH  13  18
ATOM     18  O   UNL     1      91.986  44.555  17.732  1.00  0.00    -0.497 OA
ATOM     19  C   UNL     1      91.905  43.455  18.598  1.00  0.00     0.278 C 
ENDBRANCH  13  18
ENDBRANCH   1  12
BRANCH   6  20
ATOM     20  O   UNL     1      93.666  54.560  20.985  1.00  0.00    -0.504 OA
ATOM     21  H   UNL     1      93.927  54.743  20.028  1.00  0.00     0.293 HD
ENDBRANCH   6  20
BRANCH   8  22
ATOM     22  O   UNL     1      89.881  53.597  23.652  1.00  0.00    -0.504 OA
ATOM     23  H   UNL     1      89.545  54.557  23.707  1.00  0.00     0.293 HD
ENDBRANCH   8  22
BRANCH   7  24
ATOM     24  O   UNL     1      91.849  55.354  22.878  1.00  0.00    -0.490 OA
ATOM     25  C   UNL     1      92.969  55.682  23.687  1.00  0.00     0.278 C 
ENDBRANCH   7  24
TORSDOF 5
ENDMDL
MODEL 3
REMARK VINA RESULT:      -7.1      0.355      1.021
REMARK SMILES COc1ccc(-c2cc(=O)c3c(O)c(OC)c(O)cc3o2)cc1
REMARK SMILES IDX 7 1 8 2 9 3 10 4 11 5 12 6 14 7 17 8 19 9 20 10 21 11 6 12
REMARK SMILES IDX 3 13 4 14 23 15 5 16 22 17 2 18 1 19 13 20 18 22 15 24 16 25
REMARK H PARENT 13 21 18 23
ROOT
ATOM      1  C   UNL     1      93.014  49.574  19.602  1.00  0.00     0.138 A 
ATOM      2  C   UNL     1      93.877  50.599  19.279  1.00  0.00     0.100 A 
ATOM      3  C   UNL     1      93.643  51.875  19.805  1.00  0.00     0.197 A 
ATOM      4  O   UNL     1      94.408  52.841  19.532  1.00  0.00    -0.289 OA
ATOM      5  C   UNL     1      92.565  52.100  20.636  1.00  0.00     0.111 A 
ATOM      6  C   UNL     1      92.298  53.347  21.179  1.00  0.00     0.176 A 
ATOM      7  C   UNL     1      91.220  53.574  22.011  1.00  0.00     0.203 A 
ATOM      8  C   UNL     1      90.405  52.497  22.287  1.00  0.00     0.165 A 
ATOM      9  C   UNL     1      90.662  51.253  21.753  1.00  0.00     0.098 A 
ATOM     10  C   UNL     1      91.752  51.021  20.910  1.00  0.00     0.146 A 
ATOM     11  O   UNL     1      92.011  49.865  20.399  1.00  0.00    -0.456 OA
ENDROOT
BRANCH   1  12
ATOM     12  C   UNL     1      93.192  48.205  19.089  1.00  0.00     0.018 A 
ATOM     13  C   UNL     1      93.568  45.550  18.219  1.00  0.00     0.118 A 
ATOM     14  C   UNL     1      93.122  46.529  17.362  1.00  0.00     0.047 A 
ATOM     15  C   UNL     1      93.827  45.908  19.523  1.00  0.00     0.047 A 
ATOM     16  C   UNL     1      92.935  47.849  17.792  1.00  0.00     0.016 A 
ATOM     17  C   UNL     1      93.637  47.227  19.944  1.00  0.00     0.016 A 
BRANCH  13  18
ATOM     18  O   UNL     1      93.751  44.231  17.772  1.00  0.00    -0.497 OA
ATOM     19  C   UNL     1      92.862  43.205  18.119  1.00  0.00     0.278 C 
ENDBRANCH  13  18
ENDBRANCH   1  12
BRANCH   6  20
ATOM     20  O   UNL     1      93.130  54.408  20.886  1.00  0.00    -0.504 OA
ATOM     21  H   UNL     1      94.006  54.327  20.391  1.00  0.00     0.293 HD
ENDBRANCH   6  20
BRANCH   8  22
ATOM     22  O   UNL     1      89.318  52.733  23.128  1.00  0.00    -0.504 OA
ATOM     23  H   UNL     1      88.733  53.563  23.047  1.00  0.00     0.293 HD
ENDBRANCH   8  22
BRANCH   7  24
ATOM     24  O   UNL     1      90.985  54.839  22.536  1.00  0.00    -0.490 OA
ATOM     25  C   UNL     1      91.598  55.197  23.766  1.00  0.00     0.278 C 
ENDBRANCH   7  24
TORSDOF 5
ENDMDL
MODEL 4
REMARK VINA RESULT:      -7.1      1.972      2.300
REMARK SMILES COc1ccc(-c2cc(=O)c3c(O)c(OC)c(O)cc3o2)cc1
REMARK SMILES IDX 7 1 8 2 9 3 10 4 11 5 12 6 14 7 17 8 19 9 20 10 21 11 6 12
REMARK SMILES IDX 3 13 4 14 23 15 5 16 22 17 2 18 1 19 13 20 18 22 15 24 16 25
REMARK H PARENT 13 21 18 23
ROOT
ATOM      1  C   UNL     1      92.129  50.487  19.158  1.00  0.00     0.138 A 
ATOM      2  C   UNL     1      93.117  51.297  18.639  1.00  0.00     0.100 A 
ATOM      3  C   UNL     1      93.526  52.421  19.365  1.00  0.00     0.197 A 
ATOM      4  O   UNL     1      94.426  53.188  18.925  1.00  0.00    -0.289 OA
ATOM      5  C   UNL     1      92.947  52.712  20.583  1.00  0.00     0.111 A 
ATOM      6  C   UNL     1      93.323  53.815  21.335  1.00  0.00     0.176 A 
ATOM      7  C   UNL     1      92.745  54.109  22.554  1.00  0.00     0.203 A 
ATOM      8  C   UNL     1      91.765  53.250  23.004  1.00  0.00     0.165 A 
ATOM      9  C   UNL     1      91.385  52.151  22.265  1.00  0.00     0.098 A 
ATOM     10  C   UNL     1      91.968  51.853  21.031  1.00  0.00     0.146 A 
ATOM     11  O   UNL     1      91.627  50.829  20.323  1.00  0.00    -0.456 OA
ENDROOT
BRANCH   1  12
ATOM     12  C   UNL     1      91.646  49.288  18.455  1.00  0.00     0.018 A 
ATOM     13  C   UNL     1      90.639  47.060  17.049  1.00  0.00     0.118 A 
ATOM     14  C   UNL     1      91.654  46.929  17.968  1.00  0.00     0.047 A 
ATOM     15  C   UNL     1      90.125  48.320  16.835  1.00  0.00     0.047 A 
ATOM     16  C   UNL     1      92.156  48.034  18.668  1.00  0.00     0.016 A 
ATOM     17  C   UNL     1      90.632  49.417  17.538  1.00  0.00     0.016 A 
BRANCH  13  18
ATOM     18  O   UNL     1      90.148  45.943  16.356  1.00  0.00    -0.497 OA
ATOM     19  C   UNL     1      90.247  44.647  16.881  1.00  0.00     0.278 C 
ENDBRANCH  13  18
ENDBRANCH   1  12
BRANCH   6  20
ATOM     20  O   UNL     1      94.307  54.658  20.860  1.00  0.00    -0.504 OA
ATOM     21  H   UNL     1      94.146  55.604  20.546  1.00  0.00     0.293 HD
ENDBRANCH   6  20
BRANCH   8  22
ATOM     22  O   UNL     1      91.186  53.552  24.236  1.00  0.00    -0.504 OA
ATOM     23  H   UNL     1      90.259  53.223  24.502  1.00  0.00     0.293 HD
ENDBRANCH   8  22
BRANCH   7  24
ATOM     24  O   UNL     1      93.148  55.224  23.279  1.00  0.00    -0.490 OA
ATOM     25  C   UNL     1      92.291  56.354  23.333  1.00  0.00     0.278 C 
ENDBRANCH   7  24
TORSDOF 5
ENDMDL
MODEL 5
REMARK VINA RESULT:      -7.1      1.826      2.338
REMARK SMILES COc1ccc(-c2cc(=O)c3c(O)c(OC)c(O)cc3o2)cc1
REMARK SMILES IDX 7 1 8 2 9 3 10 4 11 5 12 6 14 7 17 8 19 9 20 10 21 11 6 12
REMARK SMILES IDX 3 13 4 14 23 15 5 16 22 17 2 18 1 19 13 20 18 22 15 24 16 25
REMARK H PARENT 13 21 18 23
ROOT
ATOM      1  C   UNL     1      92.113  50.528  19.230  1.00  0.00     0.138 A 
ATOM      2  C   UNL     1      93.153  51.327  18.803  1.00  0.00     0.100 A 
ATOM      3  C   UNL     1      93.518  52.436  19.574  1.00  0.00     0.197 A 
ATOM      4  O   UNL     1      94.463  53.194  19.218  1.00  0.00    -0.289 OA
ATOM      5  C   UNL     1      92.846  52.724  20.744  1.00  0.00     0.111 A 
ATOM      6  C   UNL     1      93.175  53.812  21.538  1.00  0.00     0.176 A 
ATOM      7  C   UNL     1      92.505  54.101  22.709  1.00  0.00     0.203 A 
ATOM      8  C   UNL     1      91.478  53.254  23.067  1.00  0.00     0.165 A 
ATOM      9  C   UNL     1      91.142  52.169  22.286  1.00  0.00     0.098 A 
ATOM     10  C   UNL     1      91.820  51.876  21.100  1.00  0.00     0.146 A 
ATOM     11  O   UNL     1      91.522  50.865  20.354  1.00  0.00    -0.456 OA
ENDROOT
BRANCH   1  12
ATOM     12  C   UNL     1      91.670  49.344  18.475  1.00  0.00     0.018 A 
ATOM     13  C   UNL     1      90.905  47.010  17.091  1.00  0.00     0.118 A 
ATOM     14  C   UNL     1      90.291  48.218  16.854  1.00  0.00     0.047 A 
ATOM     15  C   UNL     1      91.910  46.975  18.031  1.00  0.00     0.047 A 
ATOM     16  C   UNL     1      90.670  49.379  17.540  1.00  0.00     0.016 A 
ATOM     17  C   UNL     1      92.282  48.138  18.712  1.00  0.00     0.016 A 
BRANCH  13  18
ATOM     18  O   UNL     1      90.513  45.856  16.395  1.00  0.00    -0.497 OA
ATOM     19  C   UNL     1      91.107  44.609  16.638  1.00  0.00     0.278 C 
ENDBRANCH  13  18
ENDBRANCH   1  12
BRANCH   6  20
ATOM     20  O   UNL     1      94.208  54.644  21.155  1.00  0.00    -0.504 OA
ATOM     21  H   UNL     1      94.501  54.788  20.200  1.00  0.00     0.293 HD
ENDBRANCH   6  20
BRANCH   8  22
ATOM     22  O   UNL     1      90.804  53.552  24.252  1.00  0.00    -0.504 OA
ATOM     23  H   UNL     1      89.826  53.836  24.269  1.00  0.00     0.293 HD
ENDBRANCH   8  22
BRANCH   7  24
ATOM     24  O   UNL     1      92.864  55.202  23.478  1.00  0.00    -0.490 OA
ATOM     25  C   UNL     1      92.130  56.409  23.334  1.00  0.00     0.278 C 
ENDBRANCH   7  24
TORSDOF 5
ENDMDL
MODEL 6
REMARK VINA RESULT:      -6.8      1.923      2.520
REMARK SMILES COc1ccc(-c2cc(=O)c3c(O)c(OC)c(O)cc3o2)cc1
REMARK SMILES IDX 7 1 8 2 9 3 10 4 11 5 12 6 14 7 17 8 19 9 20 10 21 11 6 12
REMARK SMILES IDX 3 13 4 14 23 15 5 16 22 17 2 18 1 19 13 20 18 22 15 24 16 25
REMARK H PARENT 13 21 18 23
ROOT
ATOM      1  C   UNL     1      92.291  50.490  20.106  1.00  0.00     0.138 A 
ATOM      2  C   UNL     1      93.576  50.699  20.560  1.00  0.00     0.100 A 
ATOM      3  C   UNL     1      93.826  51.776  21.418  1.00  0.00     0.197 A 
ATOM      4  O   UNL     1      94.989  52.003  21.855  1.00  0.00    -0.289 OA
ATOM      5  C   UNL     1      92.801  52.613  21.805  1.00  0.00     0.111 A 
ATOM      6  C   UNL     1      93.005  53.690  22.654  1.00  0.00     0.176 A 
ATOM      7  C   UNL     1      91.980  54.529  23.042  1.00  0.00     0.203 A 
ATOM      8  C   UNL     1      90.724  54.252  22.546  1.00  0.00     0.165 A 
ATOM      9  C   UNL     1      90.509  53.184  21.702  1.00  0.00     0.098 A 
ATOM     10  C   UNL     1      91.546  52.334  21.308  1.00  0.00     0.146 A 
ATOM     11  O   UNL     1      91.367  51.329  20.518  1.00  0.00    -0.456 OA
ENDROOT
BRANCH   1  12
ATOM     12  C   UNL     1      91.947  49.381  19.202  1.00  0.00     0.018 A 
ATOM     13  C   UNL     1      91.376  47.190  17.521  1.00  0.00     0.118 A 
ATOM     14  C   UNL     1      90.656  48.359  17.444  1.00  0.00     0.047 A 
ATOM     15  C   UNL     1      92.390  47.120  18.450  1.00  0.00     0.047 A 
ATOM     16  C   UNL     1      90.938  49.449  18.277  1.00  0.00     0.016 A 
ATOM     17  C   UNL     1      92.664  48.212  19.279  1.00  0.00     0.016 A 
BRANCH  13  18
ATOM     18  O   UNL     1      91.081  46.107  16.678  1.00  0.00    -0.497 OA
ATOM     19  C   UNL     1      89.821  45.493  16.678  1.00  0.00     0.278 C 
ENDBRANCH  13  18
ENDBRANCH   1  12
BRANCH   6  20
ATOM     20  O   UNL     1      94.273  53.943  23.135  1.00  0.00    -0.504 OA
ATOM     21  H   UNL     1      94.964  54.504  22.658  1.00  0.00     0.293 HD
ENDBRANCH   6  20
BRANCH   8  22
ATOM     22  O   UNL     1      89.693  55.103  22.943  1.00  0.00    -0.504 OA
ATOM     23  H   UNL     1      89.213  55.005  23.835  1.00  0.00     0.293 HD
ENDBRANCH   8  22
BRANCH   7  24
ATOM     24  O   UNL     1      92.225  55.598  23.895  1.00  0.00    -0.490 OA
ATOM     25  C   UNL     1      92.882  56.748  23.383  1.00  0.00     0.278 C 
ENDBRANCH   7  24
TORSDOF 5
ENDMDL
MODEL 7
REMARK VINA RESULT:      -6.8      1.808      7.888
REMARK SMILES COc1ccc(-c2cc(=O)c3c(O)c(OC)c(O)cc3o2)cc1
REMARK SMILES IDX 7 1 8 2 9 3 10 4 11 5 12 6 14 7 17 8 19 9 20 10 21 11 6 12
REMARK SMILES IDX 3 13 4 14 23 15 5 16 22 17 2 18 1 19 13 20 18 22 15 24 16 25
REMARK H PARENT 13 21 18 23
ROOT
ATOM      1  C   UNL     1      92.545  50.603  20.526  1.00  0.00     0.138 A 
ATOM      2  C   UNL     1      91.583  50.530  19.541  1.00  0.00     0.100 A 
ATOM      3  C   UNL     1      91.496  49.371  18.761  1.00  0.00     0.197 A 
ATOM      4  O   UNL     1      90.630  49.264  17.848  1.00  0.00    -0.289 OA
ATOM      5  C   UNL     1      92.361  48.318  18.977  1.00  0.00     0.111 A 
ATOM      6  C   UNL     1      92.308  47.152  18.228  1.00  0.00     0.176 A 
ATOM      7  C   UNL     1      93.172  46.098  18.443  1.00  0.00     0.203 A 
ATOM      8  C   UNL     1      94.105  46.248  19.447  1.00  0.00     0.165 A 
ATOM      9  C   UNL     1      94.165  47.402  20.198  1.00  0.00     0.098 A 
ATOM     10  C   UNL     1      93.292  48.471  19.981  1.00  0.00     0.146 A 
ATOM     11  O   UNL     1      93.331  49.560  20.673  1.00  0.00    -0.456 OA
ENDROOT
BRANCH   1  12
ATOM     12  C   UNL     1      92.700  51.786  21.388  1.00  0.00     0.018 A 
ATOM     13  C   UNL     1      92.878  54.044  23.068  1.00  0.00     0.118 A 
ATOM     14  C   UNL     1      93.974  53.571  22.382  1.00  0.00     0.047 A 
ATOM     15  C   UNL     1      91.684  53.377  22.907  1.00  0.00     0.047 A 
ATOM     16  C   UNL     1      93.887  52.450  21.547  1.00  0.00     0.016 A 
ATOM     17  C   UNL     1      91.607  52.258  22.072  1.00  0.00     0.016 A 
BRANCH  13  18
ATOM     18  O   UNL     1      92.982  55.169  23.901  1.00  0.00    -0.497 OA
ATOM     19  C   UNL     1      92.884  56.473  23.396  1.00  0.00     0.278 C 
ENDBRANCH  13  18
ENDBRANCH   1  12
BRANCH   6  20
ATOM     20  O   UNL     1      91.364  47.029  17.229  1.00  0.00    -0.504 OA
ATOM     21  H   UNL     1      90.541  47.607  17.147  1.00  0.00     0.293 HD
ENDBRANCH   6  20
BRANCH   8  22
ATOM     22  O   UNL     1      94.975  45.178  19.659  1.00  0.00    -0.504 OA
ATOM     23  H   UNL     1      95.982  45.258  19.532  1.00  0.00     0.293 HD
ENDBRANCH   8  22
BRANCH   7  24
ATOM     24  O   UNL     1      93.089  44.945  17.671  1.00  0.00    -0.490 OA
ATOM     25  C   UNL     1      92.289  43.867  18.132  1.00  0.00     0.278 C 
ENDBRANCH   7  24
TORSDOF 5
ENDMDL
MODEL 8
REMARK VINA RESULT:      -6.8      3.374      4.823
REMARK SMILES COc1ccc(-c2cc(=O)c3c(O)c(OC)c(O)cc3o2)cc1
REMARK SMILES IDX 7 1 8 2 9 3 10 4 11 5 12 6 14 7 17 8 19 9 20 10 21 11 6 12
REMARK SMILES IDX 3 13 4 14 23 15 5 16 22 17 2 18 1 19 13 20 18 22 15 24 16 25
REMARK H PARENT 13 21 18 23
ROOT
ATOM      1  C   UNL     1      93.479  51.875  19.130  1.00  0.00     0.138 A 
ATOM      2  C   UNL     1      92.464  51.052  19.570  1.00  0.00     0.100 A 
ATOM      3  C   UNL     1      91.814  51.358  20.771  1.00  0.00     0.197 A 
ATOM      4  O   UNL     1      90.881  50.629  21.209  1.00  0.00    -0.289 OA
ATOM      5  C   UNL     1      92.184  52.468  21.502  1.00  0.00     0.111 A 
ATOM      6  C   UNL     1      91.565  52.807  22.695  1.00  0.00     0.176 A 
ATOM      7  C   UNL     1      91.934  53.917  23.428  1.00  0.00     0.203 A 
ATOM      8  C   UNL     1      92.956  54.690  22.920  1.00  0.00     0.165 A 
ATOM      9  C   UNL     1      93.577  54.362  21.734  1.00  0.00     0.098 A 
ATOM     10  C   UNL     1      93.206  53.238  20.992  1.00  0.00     0.146 A 
ATOM     11  O   UNL     1      93.774  52.913  19.880  1.00  0.00    -0.456 OA
ENDROOT
BRANCH   1  12
ATOM     12  C   UNL     1      94.211  51.621  17.879  1.00  0.00     0.018 A 
ATOM     13  C   UNL     1      95.650  51.253  15.482  1.00  0.00     0.118 A 
ATOM     14  C   UNL     1      94.952  50.220  16.066  1.00  0.00     0.047 A 
ATOM     15  C   UNL     1      95.624  52.479  16.107  1.00  0.00     0.047 A 
ATOM     16  C   UNL     1      94.236  50.401  17.256  1.00  0.00     0.016 A 
ATOM     17  C   UNL     1      94.907  52.651  17.295  1.00  0.00     0.016 A 
BRANCH  13  18
ATOM     18  O   UNL     1      96.362  51.054  14.288  1.00  0.00    -0.497 OA
ATOM     19  C   UNL     1      96.864  52.129  13.541  1.00  0.00     0.278 C 
ENDBRANCH  13  18
ENDBRANCH   1  12
BRANCH   6  20
ATOM     20  O   UNL     1      90.544  52.015  23.180  1.00  0.00    -0.504 OA
ATOM     21  H   UNL     1      90.612  51.437  24.004  1.00  0.00     0.293 HD
ENDBRANCH   6  20
BRANCH   8  22
ATOM     22  O   UNL     1      93.324  55.811  23.665  1.00  0.00    -0.504 OA
ATOM     23  H   UNL     1      93.533  56.710  23.235  1.00  0.00     0.293 HD
ENDBRANCH   8  22
BRANCH   7  24
ATOM     24  O   UNL     1      91.290  54.225  24.620  1.00  0.00    -0.490 OA
ATOM     25  C   UNL     1      90.120  55.028  24.581  1.00  0.00     0.278 C 
ENDBRANCH   7  24
TORSDOF 5
ENDMDL
MODEL 9
REMARK VINA RESULT:      -6.7      3.085      4.427
REMARK SMILES COc1ccc(-c2cc(=O)c3c(O)c(OC)c(O)cc3o2)cc1
REMARK SMILES IDX 7 1 8 2 9 3 10 4 11 5 12 6 14 7 17 8 19 9 20 10 21 11 6 12
REMARK SMILES IDX 3 13 4 14 23 15 5 16 22 17 2 18 1 19 13 20 18 22 15 24 16 25
REMARK H PARENT 13 21 18 23
ROOT
ATOM      1  C   UNL     1      93.441  51.544  19.274  1.00  0.00     0.138 A 
ATOM      2  C   UNL     1      92.365  50.813  19.733  1.00  0.00     0.100 A 
ATOM      3  C   UNL     1      91.710  51.228  20.898  1.00  0.00     0.197 A 
ATOM      4  O   UNL     1      90.722  50.586  21.351  1.00  0.00    -0.289 OA
ATOM      5  C   UNL     1      92.135  52.352  21.575  1.00  0.00     0.111 A 
ATOM      6  C   UNL     1      91.514  52.797  22.732  1.00  0.00     0.176 A 
ATOM      7  C   UNL     1      91.938  53.921  23.411  1.00  0.00     0.203 A 
ATOM      8  C   UNL     1      93.020  54.597  22.888  1.00  0.00     0.165 A 
ATOM      9  C   UNL     1      93.644  54.163  21.739  1.00  0.00     0.098 A 
ATOM     10  C   UNL     1      93.217  53.025  21.050  1.00  0.00     0.146 A 
ATOM     11  O   UNL     1      93.787  52.602  19.972  1.00  0.00    -0.456 OA
ENDROOT
BRANCH   1  12
ATOM     12  C   UNL     1      94.182  51.173  18.057  1.00  0.00     0.018 A 
ATOM     13  C   UNL     1      95.609  50.349  15.769  1.00  0.00     0.118 A 
ATOM     14  C   UNL     1      95.187  51.649  15.921  1.00  0.00     0.047 A 
ATOM     15  C   UNL     1      95.311  49.456  16.775  1.00  0.00     0.047 A 
ATOM     16  C   UNL     1      94.478  52.061  17.057  1.00  0.00     0.016 A 
ATOM     17  C   UNL     1      94.603  49.875  17.904  1.00  0.00     0.016 A 
BRANCH  13  18
ATOM     18  O   UNL     1      96.318  49.952  14.624  1.00  0.00    -0.497 OA
ATOM     19  C   UNL     1      97.421  50.677  14.152  1.00  0.00     0.278 C 
ENDBRANCH  13  18
ENDBRANCH   1  12
BRANCH   6  20
ATOM     20  O   UNL     1      90.433  52.101  23.233  1.00  0.00    -0.504 OA
ATOM     21  H   UNL     1      89.475  52.412  23.173  1.00  0.00     0.293 HD
ENDBRANCH   6  20
BRANCH   8  22
ATOM     22  O   UNL     1      93.443  55.732  23.580  1.00  0.00    -0.504 OA
ATOM     23  H   UNL     1      93.738  56.584  23.106  1.00  0.00     0.293 HD
ENDBRANCH   8  22
BRANCH   7  24
ATOM     24  O   UNL     1      91.290  54.336  24.568  1.00  0.00    -0.490 OA
ATOM     25  C   UNL     1      90.090  55.086  24.451  1.00  0.00     0.278 C 
ENDBRANCH   7  24
TORSDOF 5
ENDMDL
