MODEL 1
REMARK VINA RESULT:      -9.1      0.000      0.000
REMARK SMILES O=c1cc(-c2ccccc2)oc2cc([O-])c(O)c([O-])c12
REMARK SMILES IDX 1 1 2 2 3 3 4 4 11 5 12 6 13 7 14 8 15 9 16 10 18 11 19 12
REMARK SMILES IDX 20 13 5 14 6 15 10 16 7 17 9 18 8 19 17 20
REMARK H PARENT 17 21
ROOT
ATOM      1  O   UNL     1      34.021  14.416  49.580  1.00  0.00    -0.289 OA
ATOM      2  C   UNL     1      33.273  13.423  49.406  1.00  0.00     0.192 A 
ATOM      3  C   UNL     1      31.930  13.556  49.039  1.00  0.00     0.100 A 
ATOM      4  C   UNL     1      31.100  12.486  48.845  1.00  0.00     0.138 A 
ATOM      5  O   UNL     1      31.640  11.295  49.024  1.00  0.00    -0.456 OA
ATOM      6  C   UNL     1      32.887  11.101  49.366  1.00  0.00     0.137 A 
ATOM      7  C   UNL     1      33.397   9.809  49.539  1.00  0.00     0.043 A 
ATOM      8  C   UNL     1      34.702   9.620  49.896  1.00  0.00    -0.063 A 
ATOM      9  O   UNL     1      35.151   8.312  50.054  1.00  0.00    -0.870 OA
ATOM     10  C   UNL     1      35.572  10.670  50.102  1.00  0.00     0.100 A 
ATOM     11  C   UNL     1      35.091  11.937  49.937  1.00  0.00    -0.051 A 
ATOM     12  O   UNL     1      35.950  12.998  50.140  1.00  0.00    -0.869 OA
ATOM     13  C   UNL     1      33.761  12.147  49.573  1.00  0.00     0.060 A 
ENDROOT
BRANCH   4  14
ATOM     14  C   UNL     1      29.709  12.650  48.465  1.00  0.00     0.017 A 
ATOM     15  C   UNL     1      28.666  12.745  49.344  1.00  0.00     0.012 A 
ATOM     16  C   UNL     1      29.393  12.719  47.105  1.00  0.00     0.012 A 
ATOM     17  C   UNL     1      27.346  12.903  48.900  1.00  0.00     0.001 A 
ATOM     18  C   UNL     1      28.096  12.875  46.663  1.00  0.00     0.001 A 
ATOM     19  C   UNL     1      27.053  12.969  47.556  1.00  0.00     0.000 A 
ENDBRANCH   4  14
BRANCH  10  20
ATOM     20  O   UNL     1      36.900  10.420  50.468  1.00  0.00    -0.509 OA
ATOM     21  H   UNL     1      37.191   9.452  50.611  1.00  0.00     0.293 HD
ENDBRANCH  10  20
TORSDOF 2
ENDMDL
MODEL 2
REMARK VINA RESULT:      -9.1      0.198      1.071
REMARK SMILES O=c1cc(-c2ccccc2)oc2cc([O-])c(O)c([O-])c12
REMARK SMILES IDX 1 1 2 2 3 3 4 4 11 5 12 6 13 7 14 8 15 9 16 10 18 11 19 12
REMARK SMILES IDX 20 13 5 14 6 15 10 16 7 17 9 18 8 19 17 20
REMARK H PARENT 17 21
ROOT
ATOM      1  O   UNL     1      34.023  14.237  49.808  1.00  0.00    -0.289 OA
ATOM      2  C   UNL     1      33.279  13.261  49.541  1.00  0.00     0.192 A 
ATOM      3  C   UNL     1      31.959  13.426  49.111  1.00  0.00     0.100 A 
ATOM      4  C   UNL     1      31.133  12.375  48.816  1.00  0.00     0.138 A 
ATOM      5  O   UNL     1      31.655  11.172  48.961  1.00  0.00    -0.456 OA
ATOM      6  C   UNL     1      32.880  10.949  49.359  1.00  0.00     0.137 A 
ATOM      7  C   UNL     1      33.372   9.644  49.491  1.00  0.00     0.043 A 
ATOM      8  C   UNL     1      34.653   9.425  49.909  1.00  0.00    -0.063 A 
ATOM      9  O   UNL     1      35.085   8.106  50.021  1.00  0.00    -0.870 OA
ATOM     10  C   UNL     1      35.518  10.454  50.216  1.00  0.00     0.100 A 
ATOM     11  C   UNL     1      35.056  11.733  50.092  1.00  0.00    -0.051 A 
ATOM     12  O   UNL     1      35.910  12.773  50.396  1.00  0.00    -0.869 OA
ATOM     13  C   UNL     1      33.748  11.974  49.667  1.00  0.00     0.060 A 
ENDROOT
BRANCH   4  14
ATOM     14  C   UNL     1      29.766  12.572  48.371  1.00  0.00     0.017 A 
ATOM     15  C   UNL     1      29.376  12.656  47.064  1.00  0.00     0.012 A 
ATOM     16  C   UNL     1      28.761  12.686  49.335  1.00  0.00     0.012 A 
ATOM     17  C   UNL     1      28.032  12.847  46.711  1.00  0.00     0.001 A 
ATOM     18  C   UNL     1      27.438  12.874  48.995  1.00  0.00     0.001 A 
ATOM     19  C   UNL     1      27.056  12.958  47.675  1.00  0.00     0.000 A 
ENDBRANCH   4  14
BRANCH  10  20
ATOM     20  O   UNL     1      36.822  10.174  50.638  1.00  0.00    -0.509 OA
ATOM     21  H   UNL     1      36.960   9.448  51.344  1.00  0.00     0.293 HD
ENDBRANCH  10  20
TORSDOF 2
ENDMDL
MODEL 3
REMARK VINA RESULT:      -8.9      1.294      1.443
REMARK SMILES O=c1cc(-c2ccccc2)oc2cc([O-])c(O)c([O-])c12
REMARK SMILES IDX 1 1 2 2 3 3 4 4 11 5 12 6 13 7 14 8 15 9 16 10 18 11 19 12
REMARK SMILES IDX 20 13 5 14 6 15 10 16 7 17 9 18 8 19 17 20
REMARK H PARENT 17 21
ROOT
ATOM      1  O   UNL     1      34.957  14.015  50.157  1.00  0.00    -0.289 OA
ATOM      2  C   UNL     1      34.254  13.073  49.715  1.00  0.00     0.192 A 
ATOM      3  C   UNL     1      32.862  13.164  49.618  1.00  0.00     0.100 A 
ATOM      4  C   UNL     1      32.079  12.148  49.140  1.00  0.00     0.138 A 
ATOM      5  O   UNL     1      32.716  11.055  48.766  1.00  0.00    -0.456 OA
ATOM      6  C   UNL     1      34.014  10.905  48.830  1.00  0.00     0.137 A 
ATOM      7  C   UNL     1      34.626   9.717  48.415  1.00  0.00     0.043 A 
ATOM      8  C   UNL     1      35.983   9.574  48.487  1.00  0.00    -0.063 A 
ATOM      9  O   UNL     1      36.534   8.369  48.061  1.00  0.00    -0.870 OA
ATOM     10  C   UNL     1      36.808  10.571  48.963  1.00  0.00     0.100 A 
ATOM     11  C   UNL     1      36.227  11.737  49.371  1.00  0.00    -0.051 A 
ATOM     12  O   UNL     1      37.040  12.744  49.850  1.00  0.00    -0.869 OA
ATOM     13  C   UNL     1      34.843  11.899  49.304  1.00  0.00     0.060 A 
ENDROOT
BRANCH   4  14
ATOM     14  C   UNL     1      30.636  12.266  49.050  1.00  0.00     0.017 A 
ATOM     15  C   UNL     1      29.778  12.174  50.109  1.00  0.00     0.012 A 
ATOM     16  C   UNL     1      30.062  12.492  47.795  1.00  0.00     0.012 A 
ATOM     17  C   UNL     1      28.391  12.300  49.943  1.00  0.00     0.001 A 
ATOM     18  C   UNL     1      28.700  12.617  47.625  1.00  0.00     0.001 A 
ATOM     19  C   UNL     1      27.844  12.522  48.699  1.00  0.00     0.000 A 
ENDBRANCH   4  14
BRANCH  10  20
ATOM     20  O   UNL     1      38.192  10.372  49.016  1.00  0.00    -0.509 OA
ATOM     21  H   UNL     1      38.789  10.944  48.415  1.00  0.00     0.293 HD
ENDBRANCH  10  20
TORSDOF 2
ENDMDL
MODEL 4
REMARK VINA RESULT:      -8.9      1.383      1.856
REMARK SMILES O=c1cc(-c2ccccc2)oc2cc([O-])c(O)c([O-])c12
REMARK SMILES IDX 1 1 2 2 3 3 4 4 11 5 12 6 13 7 14 8 15 9 16 10 18 11 19 12
REMARK SMILES IDX 20 13 5 14 6 15 10 16 7 17 9 18 8 19 17 20
REMARK H PARENT 17 21
ROOT
ATOM      1  O   UNL     1      35.001  13.965  50.159  1.00  0.00    -0.289 OA
ATOM      2  C   UNL     1      34.306  13.039  49.672  1.00  0.00     0.192 A 
ATOM      3  C   UNL     1      32.916  13.133  49.558  1.00  0.00     0.100 A 
ATOM      4  C   UNL     1      32.142  12.135  49.030  1.00  0.00     0.138 A 
ATOM      5  O   UNL     1      32.785  11.057  48.626  1.00  0.00    -0.456 OA
ATOM      6  C   UNL     1      34.082  10.905  48.705  1.00  0.00     0.137 A 
ATOM      7  C   UNL     1      34.703   9.733  48.256  1.00  0.00     0.043 A 
ATOM      8  C   UNL     1      36.058   9.588  48.344  1.00  0.00    -0.063 A 
ATOM      9  O   UNL     1      36.617   8.400  47.882  1.00  0.00    -0.870 OA
ATOM     10  C   UNL     1      36.874  10.568  48.869  1.00  0.00     0.100 A 
ATOM     11  C   UNL     1      36.286  11.718  49.311  1.00  0.00    -0.051 A 
ATOM     12  O   UNL     1      37.090  12.708  49.838  1.00  0.00    -0.869 OA
ATOM     13  C   UNL     1      34.903  11.882  49.228  1.00  0.00     0.060 A 
ENDROOT
BRANCH   4  14
ATOM     14  C   UNL     1      30.700  12.255  48.922  1.00  0.00     0.017 A 
ATOM     15  C   UNL     1      30.017  12.427  47.750  1.00  0.00     0.012 A 
ATOM     16  C   UNL     1      29.935  12.193  50.090  1.00  0.00     0.012 A 
ATOM     17  C   UNL     1      28.619  12.536  47.725  1.00  0.00     0.001 A 
ATOM     18  C   UNL     1      28.561  12.298  50.072  1.00  0.00     0.001 A 
ATOM     19  C   UNL     1      27.884  12.472  48.887  1.00  0.00     0.000 A 
ENDBRANCH   4  14
BRANCH  10  20
ATOM     20  O   UNL     1      38.258  10.368  48.935  1.00  0.00    -0.509 OA
ATOM     21  H   UNL     1      38.874  11.139  48.673  1.00  0.00     0.293 HD
ENDBRANCH  10  20
TORSDOF 2
ENDMDL
MODEL 5
REMARK VINA RESULT:      -8.7      1.144      1.787
REMARK SMILES O=c1cc(-c2ccccc2)oc2cc([O-])c(O)c([O-])c12
REMARK SMILES IDX 1 1 2 2 3 3 4 4 11 5 12 6 13 7 14 8 15 9 16 10 18 11 19 12
REMARK SMILES IDX 20 13 5 14 6 15 10 16 7 17 9 18 8 19 17 20
REMARK H PARENT 17 21
ROOT
ATOM      1  O   UNL     1      35.210  13.334  49.353  1.00  0.00    -0.289 OA
ATOM      2  C   UNL     1      34.350  12.421  49.309  1.00  0.00     0.192 A 
ATOM      3  C   UNL     1      32.984  12.691  49.178  1.00  0.00     0.100 A 
ATOM      4  C   UNL     1      32.031  11.710  49.129  1.00  0.00     0.138 A 
ATOM      5  O   UNL     1      32.473  10.470  49.212  1.00  0.00    -0.456 OA
ATOM      6  C   UNL     1      33.735  10.149  49.336  1.00  0.00     0.137 A 
ATOM      7  C   UNL     1      34.137   8.811  49.418  1.00  0.00     0.043 A 
ATOM      8  C   UNL     1      35.458   8.490  49.547  1.00  0.00    -0.063 A 
ATOM      9  O   UNL     1      35.797   7.142  49.625  1.00  0.00    -0.870 OA
ATOM     10  C   UNL     1      36.450   9.447  49.601  1.00  0.00     0.100 A 
ATOM     11  C   UNL     1      36.076  10.757  49.521  1.00  0.00    -0.051 A 
ATOM     12  O   UNL     1      37.058  11.726  49.574  1.00  0.00    -0.869 OA
ATOM     13  C   UNL     1      34.730  11.102  49.390  1.00  0.00     0.060 A 
ENDROOT
BRANCH   4  14
ATOM     14  C   UNL     1      30.619  12.015  48.993  1.00  0.00     0.017 A 
ATOM     15  C   UNL     1      29.986  12.269  47.808  1.00  0.00     0.012 A 
ATOM     16  C   UNL     1      29.831  12.056  50.147  1.00  0.00     0.012 A 
ATOM     17  C   UNL     1      28.614  12.556  47.757  1.00  0.00     0.001 A 
ATOM     18  C   UNL     1      28.482  12.338  50.103  1.00  0.00     0.001 A 
ATOM     19  C   UNL     1      27.855  12.593  48.904  1.00  0.00     0.000 A 
ENDBRANCH   4  14
BRANCH  10  20
ATOM     20  O   UNL     1      37.790   9.063  49.734  1.00  0.00    -0.509 OA
ATOM     21  H   UNL     1      38.499   9.793  49.818  1.00  0.00     0.293 HD
ENDBRANCH  10  20
TORSDOF 2
ENDMDL
MODEL 6
REMARK VINA RESULT:      -8.5      2.260      6.510
REMARK SMILES O=c1cc(-c2ccccc2)oc2cc([O-])c(O)c([O-])c12
REMARK SMILES IDX 1 1 2 2 3 3 4 4 11 5 12 6 13 7 14 8 15 9 16 10 18 11 19 12
REMARK SMILES IDX 20 13 5 14 6 15 10 16 7 17 9 18 8 19 17 20
REMARK H PARENT 17 21
ROOT
ATOM      1  O   UNL     1      31.018  13.860  50.951  1.00  0.00    -0.289 OA
ATOM      2  C   UNL     1      31.340  13.014  50.082  1.00  0.00     0.192 A 
ATOM      3  C   UNL     1      32.584  12.374  50.090  1.00  0.00     0.100 A 
ATOM      4  C   UNL     1      32.953  11.450  49.151  1.00  0.00     0.138 A 
ATOM      5  O   UNL     1      32.060  11.185  48.217  1.00  0.00    -0.456 OA
ATOM      6  C   UNL     1      30.880  11.747  48.153  1.00  0.00     0.137 A 
ATOM      7  C   UNL     1      29.977  11.419  47.134  1.00  0.00     0.043 A 
ATOM      8  C   UNL     1      28.749  12.013  47.078  1.00  0.00    -0.063 A 
ATOM      9  O   UNL     1      27.895  11.647  46.041  1.00  0.00    -0.870 OA
ATOM     10  C   UNL     1      28.337  12.949  48.003  1.00  0.00     0.100 A 
ATOM     11  C   UNL     1      29.204  13.280  49.004  1.00  0.00    -0.051 A 
ATOM     12  O   UNL     1      28.806  14.216  49.937  1.00  0.00    -0.869 OA
ATOM     13  C   UNL     1      30.463  12.683  49.075  1.00  0.00     0.060 A 
ENDROOT
BRANCH   4  14
ATOM     14  C   UNL     1      34.250  10.800  49.180  1.00  0.00     0.017 A 
ATOM     15  C   UNL     1      35.447  11.438  49.006  1.00  0.00     0.012 A 
ATOM     16  C   UNL     1      34.301   9.421  49.401  1.00  0.00     0.012 A 
ATOM     17  C   UNL     1      36.662  10.740  49.048  1.00  0.00     0.001 A 
ATOM     18  C   UNL     1      35.492   8.729  49.444  1.00  0.00     0.001 A 
ATOM     19  C   UNL     1      36.692   9.381  49.267  1.00  0.00     0.000 A 
ENDBRANCH   4  14
BRANCH  10  20
ATOM     20  O   UNL     1      27.067  13.527  47.900  1.00  0.00    -0.509 OA
ATOM     21  H   UNL     1      26.823  14.286  48.539  1.00  0.00     0.293 HD
ENDBRANCH  10  20
TORSDOF 2
ENDMDL
MODEL 7
REMARK VINA RESULT:      -8.5      2.321      6.496
REMARK SMILES O=c1cc(-c2ccccc2)oc2cc([O-])c(O)c([O-])c12
REMARK SMILES IDX 1 1 2 2 3 3 4 4 11 5 12 6 13 7 14 8 15 9 16 10 18 11 19 12
REMARK SMILES IDX 20 13 5 14 6 15 10 16 7 17 9 18 8 19 17 20
REMARK H PARENT 17 21
ROOT
ATOM      1  O   UNL     1      30.998  13.671  51.065  1.00  0.00    -0.289 OA
ATOM      2  C   UNL     1      31.305  12.888  50.134  1.00  0.00     0.192 A 
ATOM      3  C   UNL     1      32.550  12.253  50.074  1.00  0.00     0.100 A 
ATOM      4  C   UNL     1      32.903  11.396  49.067  1.00  0.00     0.138 A 
ATOM      5  O   UNL     1      31.993  11.194  48.134  1.00  0.00    -0.456 OA
ATOM      6  C   UNL     1      30.812  11.756  48.130  1.00  0.00     0.137 A 
ATOM      7  C   UNL     1      29.891  11.497  47.108  1.00  0.00     0.043 A 
ATOM      8  C   UNL     1      28.661  12.090  47.115  1.00  0.00    -0.063 A 
ATOM      9  O   UNL     1      27.788  11.794  46.071  1.00  0.00    -0.870 OA
ATOM     10  C   UNL     1      28.265  12.959  48.110  1.00  0.00     0.100 A 
ATOM     11  C   UNL     1      29.150  13.222  49.115  1.00  0.00    -0.051 A 
ATOM     12  O   UNL     1      28.767  14.090  50.118  1.00  0.00    -0.869 OA
ATOM     13  C   UNL     1      30.411  12.625  49.122  1.00  0.00     0.060 A 
ENDROOT
BRANCH   4  14
ATOM     14  C   UNL     1      34.201  10.749  49.028  1.00  0.00     0.017 A 
ATOM     15  C   UNL     1      34.430   9.439  49.342  1.00  0.00     0.012 A 
ATOM     16  C   UNL     1      35.312  11.505  48.642  1.00  0.00     0.012 A 
ATOM     17  C   UNL     1      35.716   8.883  49.280  1.00  0.00     0.001 A 
ATOM     18  C   UNL     1      36.579  10.965  48.579  1.00  0.00     0.001 A 
ATOM     19  C   UNL     1      36.798   9.644  48.897  1.00  0.00     0.000 A 
ENDBRANCH   4  14
BRANCH  10  20
ATOM     20  O   UNL     1      26.992  13.539  48.070  1.00  0.00    -0.509 OA
ATOM     21  H   UNL     1      26.921  14.546  47.911  1.00  0.00     0.293 HD
ENDBRANCH  10  20
TORSDOF 2
ENDMDL
MODEL 8
REMARK VINA RESULT:      -8.3      2.052      2.258
REMARK SMILES O=c1cc(-c2ccccc2)oc2cc([O-])c(O)c([O-])c12
REMARK SMILES IDX 1 1 2 2 3 3 4 4 11 5 12 6 13 7 14 8 15 9 16 10 18 11 19 12
REMARK SMILES IDX 20 13 5 14 6 15 10 16 7 17 9 18 8 19 17 20
REMARK H PARENT 17 21
ROOT
ATOM      1  O   UNL     1      35.324  13.515  50.266  1.00  0.00    -0.289 OA
ATOM      2  C   UNL     1      34.581  12.792  49.558  1.00  0.00     0.192 A 
ATOM      3  C   UNL     1      33.186  12.853  49.640  1.00  0.00     0.100 A 
ATOM      4  C   UNL     1      32.359  12.073  48.878  1.00  0.00     0.138 A 
ATOM      5  O   UNL     1      32.955  11.244  48.043  1.00  0.00    -0.456 OA
ATOM      6  C   UNL     1      34.253  11.137  47.917  1.00  0.00     0.137 A 
ATOM      7  C   UNL     1      34.820  10.235  47.010  1.00  0.00     0.043 A 
ATOM      8  C   UNL     1      36.177  10.134  46.889  1.00  0.00    -0.063 A 
ATOM      9  O   UNL     1      36.683   9.218  45.970  1.00  0.00    -0.870 OA
ATOM     10  C   UNL     1      37.045  10.900  47.638  1.00  0.00     0.100 A 
ATOM     11  C   UNL     1      36.509  11.785  48.527  1.00  0.00    -0.051 A 
ATOM     12  O   UNL     1      37.366  12.559  49.283  1.00  0.00    -0.869 OA
ATOM     13  C   UNL     1      35.125  11.901  48.663  1.00  0.00     0.060 A 
ENDROOT
BRANCH   4  14
ATOM     14  C   UNL     1      30.914  12.155  48.981  1.00  0.00     0.017 A 
ATOM     15  C   UNL     1      30.217  12.207  50.155  1.00  0.00     0.012 A 
ATOM     16  C   UNL     1      30.162  12.183  47.803  1.00  0.00     0.012 A 
ATOM     17  C   UNL     1      28.818  12.285  50.175  1.00  0.00     0.001 A 
ATOM     18  C   UNL     1      28.785  12.260  47.815  1.00  0.00     0.001 A 
ATOM     19  C   UNL     1      28.094  12.312  49.005  1.00  0.00     0.000 A 
ENDBRANCH   4  14
BRANCH  10  20
ATOM     20  O   UNL     1      38.428  10.756  47.474  1.00  0.00    -0.509 OA
ATOM     21  H   UNL     1      38.906  11.369  46.810  1.00  0.00     0.293 HD
ENDBRANCH  10  20
TORSDOF 2
ENDMDL
MODEL 9
REMARK VINA RESULT:      -8.3      2.216      6.376
REMARK SMILES O=c1cc(-c2ccccc2)oc2cc([O-])c(O)c([O-])c12
REMARK SMILES IDX 1 1 2 2 3 3 4 4 11 5 12 6 13 7 14 8 15 9 16 10 18 11 19 12
REMARK SMILES IDX 20 13 5 14 6 15 10 16 7 17 9 18 8 19 17 20
REMARK H PARENT 17 21
ROOT
ATOM      1  O   UNL     1      31.436  14.337  50.249  1.00  0.00    -0.289 OA
ATOM      2  C   UNL     1      31.611  13.197  49.755  1.00  0.00     0.192 A 
ATOM      3  C   UNL     1      32.640  12.350  50.180  1.00  0.00     0.100 A 
ATOM      4  C   UNL     1      32.846  11.104  49.653  1.00  0.00     0.138 A 
ATOM      5  O   UNL     1      32.009  10.731  48.705  1.00  0.00    -0.456 OA
ATOM      6  C   UNL     1      31.027  11.474  48.262  1.00  0.00     0.137 A 
ATOM      7  C   UNL     1      30.173  11.016  47.251  1.00  0.00     0.043 A 
ATOM      8  C   UNL     1      29.152  11.802  46.797  1.00  0.00    -0.063 A 
ATOM      9  O   UNL     1      28.337  11.293  45.790  1.00  0.00    -0.870 OA
ATOM     10  C   UNL     1      28.909  13.063  47.300  1.00  0.00     0.100 A 
ATOM     11  C   UNL     1      29.732  13.524  48.287  1.00  0.00    -0.051 A 
ATOM     12  O   UNL     1      29.501  14.785  48.799  1.00  0.00    -0.869 OA
ATOM     13  C   UNL     1      30.780  12.735  48.761  1.00  0.00     0.060 A 
ENDROOT
BRANCH   4  14
ATOM     14  C   UNL     1      33.921  10.244  50.111  1.00  0.00     0.017 A 
ATOM     15  C   UNL     1      34.998  10.662  50.842  1.00  0.00     0.012 A 
ATOM     16  C   UNL     1      33.869   8.884  49.792  1.00  0.00     0.012 A 
ATOM     17  C   UNL     1      35.999   9.769  51.249  1.00  0.00     0.001 A 
ATOM     18  C   UNL     1      34.850   8.000  50.190  1.00  0.00     0.001 A 
ATOM     19  C   UNL     1      35.931   8.433  50.925  1.00  0.00     0.000 A 
ENDBRANCH   4  14
BRANCH  10  20
ATOM     20  O   UNL     1      27.848  13.826  46.799  1.00  0.00    -0.509 OA
ATOM     21  H   UNL     1      28.012  14.404  45.972  1.00  0.00     0.293 HD
ENDBRANCH  10  20
TORSDOF 2
ENDMDL
