MODEL 1
REMARK VINA RESULT:      -6.4      0.000      0.000
REMARK SMILES COc1cccc2c1C(=O)c1c(O)c3c(c(O)c1C2=O)C[C@@](O)(C(=O)CO)C[C@@H]3O[C@H]1C[C@H](N)[C@H](O)[C@H](C)O1
REMARK SMILES IDX 3 1 4 2 5 3 6 4 7 5 8 6 9 7 10 8 11 9 12 10 14 11 15 12
REMARK SMILES IDX 16 13 18 14 19 15 20 16 21 17 22 18 28 19 29 20 2 21 1 22
REMARK SMILES IDX 13 23 17 25 30 27 31 28 32 29 39 30 33 31 37 32 35 33 38 34
REMARK SMILES IDX 34 35 36 38 23 40 24 42 25 43 26 44 27 45
REMARK H PARENT 13 24 17 26 34 36 34 37 36 39 23 41 27 46
ROOT
ATOM      1  C   UNL     1      38.897  23.467   8.856  1.00  0.00     0.130 A 
ATOM      2  C   UNL     1      40.086  23.295   8.217  1.00  0.00     0.047 A 
ATOM      3  C   UNL     1      40.774  22.094   8.200  1.00  0.00     0.005 A 
ATOM      4  C   UNL     1      40.221  21.026   8.867  1.00  0.00     0.013 A 
ATOM      5  C   UNL     1      38.999  21.188   9.529  1.00  0.00     0.038 A 
ATOM      6  C   UNL     1      38.341  22.394   9.526  1.00  0.00     0.076 A 
ATOM      7  C   UNL     1      37.057  22.531  10.233  1.00  0.00     0.202 C 
ATOM      8  O   UNL     1      36.486  23.637  10.212  1.00  0.00    -0.288 OA
ATOM      9  C   UNL     1      36.468  21.401  10.940  1.00  0.00     0.080 A 
ATOM     10  C   UNL     1      35.253  21.510  11.616  1.00  0.00     0.133 A 
ATOM     11  C   UNL     1      34.695  20.461  12.279  1.00  0.00     0.031 A 
ATOM     12  C   UNL     1      35.356  19.217  12.293  1.00  0.00     0.008 A 
ATOM     13  C   UNL     1      36.551  19.128  11.623  1.00  0.00     0.131 A 
ATOM     14  C   UNL     1      37.127  20.184  10.946  1.00  0.00     0.080 A 
ATOM     15  C   UNL     1      38.399  20.063  10.241  1.00  0.00     0.198 C 
ATOM     16  O   UNL     1      39.025  18.974  10.225  1.00  0.00    -0.288 OA
ATOM     17  C   UNL     1      34.750  18.078  13.011  1.00  0.00     0.083 C 
ATOM     18  C   UNL     1      33.252  18.006  12.913  1.00  0.00     0.132 C 
ATOM     19  C   UNL     1      32.643  19.300  12.468  1.00  0.00     0.081 C 
ATOM     20  C   UNL     1      33.418  20.455  13.026  1.00  0.00     0.159 C 
ENDROOT
BRANCH   1  21
ATOM     21  O   UNL     1      38.184  24.657   8.891  1.00  0.00    -0.496 OA
ATOM     22  C   UNL     1      38.277  25.669   7.933  1.00  0.00     0.278 C 
ENDBRANCH   1  21
BRANCH  10  23
ATOM     23  O   UNL     1      34.600  22.726  11.605  1.00  0.00    -0.507 OA
ATOM     24  H   UNL     1      34.912  23.501  12.170  1.00  0.00     0.293 HD
ENDBRANCH  10  23
BRANCH  13  25
ATOM     25  O   UNL     1      37.239  17.923  11.607  1.00  0.00    -0.507 OA
ATOM     26  H   UNL     1      36.842  17.054  11.938  1.00  0.00     0.293 HD
ENDBRANCH  13  25
BRANCH  20  27
ATOM     27  O   UNL     1      32.802  21.663  12.930  1.00  0.00    -0.344 OA
BRANCH  27  28
ATOM     28  C   UNL     1      32.128  22.074  14.060  1.00  0.00     0.252 C 
ATOM     29  C   UNL     1      32.750  21.721  15.362  1.00  0.00     0.083 C 
ATOM     30  O   UNL     1      32.008  23.462  13.982  1.00  0.00    -0.347 OA
ATOM     31  C   UNL     1      32.208  22.700  16.399  1.00  0.00     0.087 C 
ATOM     32  C   UNL     1      33.049  24.129  14.613  1.00  0.00     0.148 C 
ATOM     33  C   UNL     1      32.917  24.019  16.136  1.00  0.00     0.160 C 
ATOM     34  C   UNL     1      32.941  25.595  14.246  1.00  0.00     0.041 C 
BRANCH  31  35
ATOM     35  N   UNL     1      30.804  22.907  16.053  1.00  0.00    -0.325 NA
ATOM     36  H   UNL     1      30.258  23.284  16.834  1.00  0.00     0.119 HD
ATOM     37  H   UNL     1      30.688  23.398  15.148  1.00  0.00     0.119 HD
ENDBRANCH  31  35
BRANCH  33  38
ATOM     38  O   UNL     1      32.152  25.063  16.637  1.00  0.00    -0.389 OA
ATOM     39  H   UNL     1      31.227  24.734  16.720  1.00  0.00     0.211 HD
ENDBRANCH  33  38
ENDBRANCH  27  28
ENDBRANCH  20  27
BRANCH  18  40
ATOM     40  O   UNL     1      32.974  17.085  11.859  1.00  0.00    -0.382 OA
ATOM     41  H   UNL     1      33.661  17.158  11.156  1.00  0.00     0.212 HD
ENDBRANCH  18  40
BRANCH  18  42
ATOM     42  C   UNL     1      32.632  17.431  14.132  1.00  0.00     0.190 C 
ATOM     43  O   UNL     1      33.068  17.739  15.229  1.00  0.00    -0.294 OA
BRANCH  42  44
ATOM     44  C   UNL     1      31.494  16.484  14.124  1.00  0.00     0.234 C 
BRANCH  44  45
ATOM     45  O   UNL     1      31.768  15.340  14.887  1.00  0.00    -0.388 OA
ATOM     46  H   UNL     1      31.271  15.344  15.735  1.00  0.00     0.211 HD
ENDBRANCH  44  45
ENDBRANCH  42  44
ENDBRANCH  18  42
TORSDOF 11
ENDMDL
MODEL 2
REMARK VINA RESULT:      -6.4      2.205      2.932
REMARK SMILES COc1cccc2c1C(=O)c1c(O)c3c(c(O)c1C2=O)C[C@@](O)(C(=O)CO)C[C@@H]3O[C@H]1C[C@H](N)[C@H](O)[C@H](C)O1
REMARK SMILES IDX 3 1 4 2 5 3 6 4 7 5 8 6 9 7 10 8 11 9 12 10 14 11 15 12
REMARK SMILES IDX 16 13 18 14 19 15 20 16 21 17 22 18 28 19 29 20 2 21 1 22
REMARK SMILES IDX 13 23 17 25 30 27 31 28 32 29 39 30 33 31 37 32 35 33 38 34
REMARK SMILES IDX 34 35 36 38 23 40 24 42 25 43 26 44 27 45
REMARK H PARENT 13 24 17 26 34 36 34 37 36 39 23 41 27 46
ROOT
ATOM      1  C   UNL     1      40.811  23.190   7.699  1.00  0.00     0.130 A 
ATOM      2  C   UNL     1      41.882  22.837   6.938  1.00  0.00     0.047 A 
ATOM      3  C   UNL     1      42.284  21.526   6.751  1.00  0.00     0.005 A 
ATOM      4  C   UNL     1      41.557  20.536   7.371  1.00  0.00     0.013 A 
ATOM      5  C   UNL     1      40.452  20.884   8.157  1.00  0.00     0.038 A 
ATOM      6  C   UNL     1      40.080  22.196   8.322  1.00  0.00     0.076 A 
ATOM      7  C   UNL     1      38.914  22.529   9.156  1.00  0.00     0.202 C 
ATOM      8  O   UNL     1      38.603  23.727   9.286  1.00  0.00    -0.288 OA
ATOM      9  C   UNL     1      38.142  21.483   9.813  1.00  0.00     0.080 A 
ATOM     10  C   UNL     1      37.033  21.776  10.608  1.00  0.00     0.133 A 
ATOM     11  C   UNL     1      36.306  20.807  11.225  1.00  0.00     0.031 A 
ATOM     12  C   UNL     1      36.673  19.455  11.067  1.00  0.00     0.008 A 
ATOM     13  C   UNL     1      37.767  19.184  10.282  1.00  0.00     0.131 A 
ATOM     14  C   UNL     1      38.512  20.159   9.650  1.00  0.00     0.080 A 
ATOM     15  C   UNL     1      39.672  19.844   8.820  1.00  0.00     0.198 C 
ATOM     16  O   UNL     1      40.037  18.655   8.650  1.00  0.00    -0.288 OA
ATOM     17  C   UNL     1      35.883  18.402  11.736  1.00  0.00     0.083 C 
ATOM     18  C   UNL     1      34.404  18.663  11.774  1.00  0.00     0.132 C 
ATOM     19  C   UNL     1      34.067  20.098  11.504  1.00  0.00     0.081 C 
ATOM     20  C   UNL     1      35.118  20.994  12.085  1.00  0.00     0.159 C 
ENDROOT
BRANCH   1  21
ATOM     21  O   UNL     1      40.384  24.495   7.905  1.00  0.00    -0.496 OA
ATOM     22  C   UNL     1      40.862  25.608   7.210  1.00  0.00     0.278 C 
ENDBRANCH   1  21
BRANCH  10  23
ATOM     23  O   UNL     1      36.668  23.098  10.765  1.00  0.00    -0.507 OA
ATOM     24  H   UNL     1      36.348  23.458  11.651  1.00  0.00     0.293 HD
ENDBRANCH  10  23
BRANCH  13  25
ATOM     25  O   UNL     1      38.167  17.869  10.096  1.00  0.00    -0.507 OA
ATOM     26  H   UNL     1      37.874  17.306   9.309  1.00  0.00     0.293 HD
ENDBRANCH  13  25
BRANCH  20  27
ATOM     27  O   UNL     1      34.780  22.309  12.154  1.00  0.00    -0.344 OA
BRANCH  27  28
ATOM     28  C   UNL     1      33.506  22.615  11.726  1.00  0.00     0.252 C 
ATOM     29  C   UNL     1      32.621  23.283  12.715  1.00  0.00     0.083 C 
ATOM     30  O   UNL     1      33.638  23.444  10.611  1.00  0.00    -0.347 OA
ATOM     31  C   UNL     1      31.540  24.017  11.928  1.00  0.00     0.087 C 
ATOM     32  C   UNL     1      33.628  24.793  10.938  1.00  0.00     0.148 C 
ATOM     33  C   UNL     1      32.217  25.243  11.334  1.00  0.00     0.160 C 
ATOM     34  C   UNL     1      34.027  25.567   9.698  1.00  0.00     0.041 C 
BRANCH  31  35
ATOM     35  N   UNL     1      31.206  23.144  10.805  1.00  0.00    -0.325 NA
ATOM     36  H   UNL     1      31.379  23.587   9.896  1.00  0.00     0.119 HD
ATOM     37  H   UNL     1      31.593  22.189  10.917  1.00  0.00     0.119 HD
ENDBRANCH  31  35
BRANCH  33  38
ATOM     38  O   UNL     1      31.509  25.668  10.219  1.00  0.00    -0.389 OA
ATOM     39  H   UNL     1      30.891  26.376  10.518  1.00  0.00     0.211 HD
ENDBRANCH  33  38
ENDBRANCH  27  28
ENDBRANCH  20  27
BRANCH  18  40
ATOM     40  O   UNL     1      33.852  17.941  10.673  1.00  0.00    -0.382 OA
ATOM     41  H   UNL     1      34.532  17.828   9.968  1.00  0.00     0.212 HD
ENDBRANCH  18  40
BRANCH  18  42
ATOM     42  C   UNL     1      33.761  18.108  12.990  1.00  0.00     0.190 C 
ATOM     43  O   UNL     1      32.630  17.656  12.918  1.00  0.00    -0.294 OA
BRANCH  42  44
ATOM     44  C   UNL     1      34.401  18.057  14.324  1.00  0.00     0.234 C 
BRANCH  44  45
ATOM     45  O   UNL     1      34.209  19.250  15.036  1.00  0.00    -0.388 OA
ATOM     46  H   UNL     1      34.974  19.451  15.618  1.00  0.00     0.211 HD
ENDBRANCH  44  45
ENDBRANCH  42  44
ENDBRANCH  18  42
TORSDOF 11
ENDMDL
MODEL 3
REMARK VINA RESULT:      -6.3      5.175     11.903
REMARK SMILES COc1cccc2c1C(=O)c1c(O)c3c(c(O)c1C2=O)C[C@@](O)(C(=O)CO)C[C@@H]3O[C@H]1C[C@H](N)[C@H](O)[C@H](C)O1
REMARK SMILES IDX 3 1 4 2 5 3 6 4 7 5 8 6 9 7 10 8 11 9 12 10 14 11 15 12
REMARK SMILES IDX 16 13 18 14 19 15 20 16 21 17 22 18 28 19 29 20 2 21 1 22
REMARK SMILES IDX 13 23 17 25 30 27 31 28 32 29 39 30 33 31 37 32 35 33 38 34
REMARK SMILES IDX 34 35 36 38 23 40 24 42 25 43 26 44 27 45
REMARK H PARENT 13 24 17 26 34 36 34 37 36 39 23 41 27 46
ROOT
ATOM      1  C   UNL     1      36.741  19.927  10.448  1.00  0.00     0.130 A 
ATOM      2  C   UNL     1      35.604  20.258  11.118  1.00  0.00     0.047 A 
ATOM      3  C   UNL     1      35.143  21.558  11.238  1.00  0.00     0.005 A 
ATOM      4  C   UNL     1      35.879  22.558  10.649  1.00  0.00     0.013 A 
ATOM      5  C   UNL     1      37.052  22.233   9.957  1.00  0.00     0.038 A 
ATOM      6  C   UNL     1      37.481  20.932   9.855  1.00  0.00     0.076 A 
ATOM      7  C   UNL     1      38.719  20.623   9.120  1.00  0.00     0.202 C 
ATOM      8  O   UNL     1      39.082  19.435   9.047  1.00  0.00    -0.288 OA
ATOM      9  C   UNL     1      39.501  21.681   8.494  1.00  0.00     0.080 A 
ATOM     10  C   UNL     1      40.676  21.411   7.794  1.00  0.00     0.133 A 
ATOM     11  C   UNL     1      41.413  22.391   7.206  1.00  0.00     0.031 A 
ATOM     12  C   UNL     1      40.988  23.731   7.300  1.00  0.00     0.008 A 
ATOM     13  C   UNL     1      39.829  23.980   7.993  1.00  0.00     0.131 A 
ATOM     14  C   UNL     1      39.073  22.994   8.594  1.00  0.00     0.080 A 
ATOM     15  C   UNL     1      37.843  23.285   9.325  1.00  0.00     0.198 C 
ATOM     16  O   UNL     1      37.424  24.464   9.436  1.00  0.00    -0.288 OA
ATOM     17  C   UNL     1      41.786  24.796   6.660  1.00  0.00     0.083 C 
ATOM     18  C   UNL     1      42.398  24.409   5.343  1.00  0.00     0.132 C 
ATOM     19  C   UNL     1      42.426  22.926   5.137  1.00  0.00     0.081 C 
ATOM     20  C   UNL     1      42.668  22.227   6.440  1.00  0.00     0.159 C 
ENDROOT
BRANCH   1  21
ATOM     21  O   UNL     1      37.228  18.634  10.310  1.00  0.00    -0.496 OA
ATOM     22  C   UNL     1      37.560  17.791  11.372  1.00  0.00     0.278 C 
ENDBRANCH   1  21
BRANCH  10  23
ATOM     23  O   UNL     1      41.098  20.100   7.697  1.00  0.00    -0.507 OA
ATOM     24  H   UNL     1      40.923  19.430   8.432  1.00  0.00     0.293 HD
ENDBRANCH  10  23
BRANCH  13  25
ATOM     25  O   UNL     1      39.369  25.284   8.112  1.00  0.00    -0.507 OA
ATOM     26  H   UNL     1      39.236  25.899   7.322  1.00  0.00     0.293 HD
ENDBRANCH  13  25
BRANCH  20  27
ATOM     27  O   UNL     1      42.996  20.911   6.336  1.00  0.00    -0.344 OA
BRANCH  27  28
ATOM     28  C   UNL     1      44.304  20.604   6.645  1.00  0.00     0.252 C 
ATOM     29  C   UNL     1      44.727  19.202   6.393  1.00  0.00     0.083 C 
ATOM     30  O   UNL     1      45.112  21.457   5.893  1.00  0.00    -0.347 OA
ATOM     31  C   UNL     1      46.246  19.209   6.248  1.00  0.00     0.087 C 
ATOM     32  C   UNL     1      45.488  20.909   4.675  1.00  0.00     0.148 C 
ATOM     33  C   UNL     1      46.530  19.803   4.877  1.00  0.00     0.160 C 
ATOM     34  C   UNL     1      46.138  22.010   3.860  1.00  0.00     0.041 C 
BRANCH  31  35
ATOM     35  N   UNL     1      46.732  20.178   7.229  1.00  0.00    -0.325 NA
ATOM     36  H   UNL     1      45.970  20.674   7.703  1.00  0.00     0.119 HD
ATOM     37  H   UNL     1      47.461  19.781   7.849  1.00  0.00     0.119 HD
ENDBRANCH  31  35
BRANCH  33  38
ATOM     38  O   UNL     1      47.813  20.331   4.858  1.00  0.00    -0.389 OA
ATOM     39  H   UNL     1      47.885  20.897   4.055  1.00  0.00     0.211 HD
ENDBRANCH  33  38
ENDBRANCH  27  28
ENDBRANCH  20  27
BRANCH  18  40
ATOM     40  O   UNL     1      41.511  24.905   4.340  1.00  0.00    -0.382 OA
ATOM     41  H   UNL     1      41.184  25.801   4.590  1.00  0.00     0.212 HD
ENDBRANCH  18  40
BRANCH  18  42
ATOM     42  C   UNL     1      43.699  25.080   5.104  1.00  0.00     0.190 C 
ATOM     43  O   UNL     1      44.005  25.408   3.970  1.00  0.00    -0.294 OA
BRANCH  42  44
ATOM     44  C   UNL     1      44.686  25.391   6.162  1.00  0.00     0.234 C 
BRANCH  44  45
ATOM     45  O   UNL     1      45.395  24.249   6.562  1.00  0.00    -0.388 OA
ATOM     46  H   UNL     1      45.629  24.284   7.515  1.00  0.00     0.211 HD
ENDBRANCH  44  45
ENDBRANCH  42  44
ENDBRANCH  18  42
TORSDOF 11
ENDMDL
MODEL 4
REMARK VINA RESULT:      -6.3      4.180      9.169
REMARK SMILES COc1cccc2c1C(=O)c1c(O)c3c(c(O)c1C2=O)C[C@@](O)(C(=O)CO)C[C@@H]3O[C@H]1C[C@H](N)[C@H](O)[C@H](C)O1
REMARK SMILES IDX 3 1 4 2 5 3 6 4 7 5 8 6 9 7 10 8 11 9 12 10 14 11 15 12
REMARK SMILES IDX 16 13 18 14 19 15 20 16 21 17 22 18 28 19 29 20 2 21 1 22
REMARK SMILES IDX 13 23 17 25 30 27 31 28 32 29 39 30 33 31 37 32 35 33 38 34
REMARK SMILES IDX 34 35 36 38 23 40 24 42 25 43 26 44 27 45
REMARK H PARENT 13 24 17 26 34 36 34 37 36 39 23 41 27 46
ROOT
ATOM      1  C   UNL     1      32.111  18.121  12.065  1.00  0.00     0.130 A 
ATOM      2  C   UNL     1      31.760  17.541  13.245  1.00  0.00     0.047 A 
ATOM      3  C   UNL     1      32.651  17.327  14.282  1.00  0.00     0.005 A 
ATOM      4  C   UNL     1      33.956  17.723  14.101  1.00  0.00     0.013 A 
ATOM      5  C   UNL     1      34.332  18.321  12.892  1.00  0.00     0.038 A 
ATOM      6  C   UNL     1      33.422  18.520  11.883  1.00  0.00     0.076 A 
ATOM      7  C   UNL     1      33.849  19.151  10.623  1.00  0.00     0.202 C 
ATOM      8  O   UNL     1      33.001  19.316   9.727  1.00  0.00    -0.288 OA
ATOM      9  C   UNL     1      35.230  19.572  10.429  1.00  0.00     0.080 A 
ATOM     10  C   UNL     1      35.656  20.172   9.244  1.00  0.00     0.133 A 
ATOM     11  C   UNL     1      36.943  20.568   9.053  1.00  0.00     0.031 A 
ATOM     12  C   UNL     1      37.890  20.373  10.078  1.00  0.00     0.008 A 
ATOM     13  C   UNL     1      37.454  19.781  11.237  1.00  0.00     0.131 A 
ATOM     14  C   UNL     1      36.151  19.374  11.443  1.00  0.00     0.080 A 
ATOM     15  C   UNL     1      35.712  18.747  12.686  1.00  0.00     0.198 C 
ATOM     16  O   UNL     1      36.520  18.552  13.629  1.00  0.00    -0.288 OA
ATOM     17  C   UNL     1      39.287  20.805   9.871  1.00  0.00     0.083 C 
ATOM     18  C   UNL     1      39.435  22.086   9.099  1.00  0.00     0.132 C 
ATOM     19  C   UNL     1      38.191  22.449   8.348  1.00  0.00     0.081 C 
ATOM     20  C   UNL     1      37.509  21.213   7.848  1.00  0.00     0.159 C 
ENDROOT
BRANCH   1  21
ATOM     21  O   UNL     1      31.241  18.348  11.007  1.00  0.00    -0.496 OA
ATOM     22  C   UNL     1      29.882  18.638  11.143  1.00  0.00     0.278 C 
ENDBRANCH   1  21
BRANCH  10  23
ATOM     23  O   UNL     1      34.733  20.367   8.236  1.00  0.00    -0.507 OA
ATOM     24  H   UNL     1      34.644  21.253   7.762  1.00  0.00     0.293 HD
ENDBRANCH  10  23
BRANCH  13  25
ATOM     25  O   UNL     1      38.349  19.568  12.276  1.00  0.00    -0.507 OA
ATOM     26  H   UNL     1      38.212  18.866  12.990  1.00  0.00     0.293 HD
ENDBRANCH  13  25
BRANCH  20  27
ATOM     27  O   UNL     1      36.538  21.425   6.919  1.00  0.00    -0.344 OA
BRANCH  27  28
ATOM     28  C   UNL     1      36.921  21.228   5.610  1.00  0.00     0.252 C 
ATOM     29  C   UNL     1      36.723  19.860   5.064  1.00  0.00     0.083 C 
ATOM     30  O   UNL     1      36.195  22.130   4.831  1.00  0.00    -0.347 OA
ATOM     31  C   UNL     1      36.658  19.986   3.545  1.00  0.00     0.087 C 
ATOM     32  C   UNL     1      35.010  21.593   4.348  1.00  0.00     0.148 C 
ATOM     33  C   UNL     1      35.291  20.577   3.235  1.00  0.00     0.160 C 
ATOM     34  C   UNL     1      34.207  22.727   3.744  1.00  0.00     0.041 C 
BRANCH  31  35
ATOM     35  N   UNL     1      37.641  21.008   3.190  1.00  0.00    -0.325 NA
ATOM     36  H   UNL     1      37.595  21.828   3.804  1.00  0.00     0.119 HD
ATOM     37  H   UNL     1      38.588  20.612   3.044  1.00  0.00     0.119 HD
ENDBRANCH  31  35
BRANCH  33  38
ATOM     38  O   UNL     1      35.328  21.205   1.998  1.00  0.00    -0.389 OA
ATOM     39  H   UNL     1      35.101  22.153   2.144  1.00  0.00     0.211 HD
ENDBRANCH  33  38
ENDBRANCH  27  28
ENDBRANCH  20  27
BRANCH  18  40
ATOM     40  O   UNL     1      39.590  23.115  10.076  1.00  0.00    -0.382 OA
ATOM     41  H   UNL     1      40.503  23.484  10.036  1.00  0.00     0.212 HD
ENDBRANCH  18  40
BRANCH  18  42
ATOM     42  C   UNL     1      40.670  22.112   8.278  1.00  0.00     0.190 C 
ATOM     43  O   UNL     1      41.023  21.101   7.694  1.00  0.00    -0.294 OA
BRANCH  42  44
ATOM     44  C   UNL     1      41.535  23.301   8.107  1.00  0.00     0.234 C 
BRANCH  44  45
ATOM     45  O   UNL     1      42.726  22.982   7.439  1.00  0.00    -0.388 OA
ATOM     46  H   UNL     1      42.959  22.034   7.548  1.00  0.00     0.211 HD
ENDBRANCH  44  45
ENDBRANCH  42  44
ENDBRANCH  18  42
TORSDOF 11
ENDMDL
MODEL 5
REMARK VINA RESULT:      -6.2      1.415      1.965
REMARK SMILES COc1cccc2c1C(=O)c1c(O)c3c(c(O)c1C2=O)C[C@@](O)(C(=O)CO)C[C@@H]3O[C@H]1C[C@H](N)[C@H](O)[C@H](C)O1
REMARK SMILES IDX 3 1 4 2 5 3 6 4 7 5 8 6 9 7 10 8 11 9 12 10 14 11 15 12
REMARK SMILES IDX 16 13 18 14 19 15 20 16 21 17 22 18 28 19 29 20 2 21 1 22
REMARK SMILES IDX 13 23 17 25 30 27 31 28 32 29 39 30 33 31 37 32 35 33 38 34
REMARK SMILES IDX 34 35 36 38 23 40 24 42 25 43 26 44 27 45
REMARK H PARENT 13 24 17 26 34 36 34 37 36 39 23 41 27 46
ROOT
ATOM      1  C   UNL     1      39.969  23.458   8.194  1.00  0.00     0.130 A 
ATOM      2  C   UNL     1      41.114  23.220   7.498  1.00  0.00     0.047 A 
ATOM      3  C   UNL     1      41.662  21.959   7.343  1.00  0.00     0.005 A 
ATOM      4  C   UNL     1      41.010  20.898   7.926  1.00  0.00     0.013 A 
ATOM      5  C   UNL     1      39.831  21.127   8.645  1.00  0.00     0.038 A 
ATOM      6  C   UNL     1      39.313  22.392   8.779  1.00  0.00     0.076 A 
ATOM      7  C   UNL     1      38.071  22.599   9.542  1.00  0.00     0.202 C 
ATOM      8  O   UNL     1      37.628  23.758   9.646  1.00  0.00    -0.288 OA
ATOM      9  C   UNL     1      37.377  21.477  10.161  1.00  0.00     0.080 A 
ATOM     10  C   UNL     1      36.199  21.651  10.888  1.00  0.00     0.133 A 
ATOM     11  C   UNL     1      35.544  20.611  11.469  1.00  0.00     0.031 A 
ATOM     12  C   UNL     1      36.061  19.306  11.341  1.00  0.00     0.008 A 
ATOM     13  C   UNL     1      37.221  19.152  10.622  1.00  0.00     0.131 A 
ATOM     14  C   UNL     1      37.895  20.201  10.028  1.00  0.00     0.080 A 
ATOM     15  C   UNL     1      39.127  20.010   9.269  1.00  0.00     0.198 C 
ATOM     16  O   UNL     1      39.626  18.866   9.128  1.00  0.00    -0.288 OA
ATOM     17  C   UNL     1      35.349  18.175  11.970  1.00  0.00     0.083 C 
ATOM     18  C   UNL     1      33.851  18.278  11.921  1.00  0.00     0.132 C 
ATOM     19  C   UNL     1      33.381  19.669  11.622  1.00  0.00     0.081 C 
ATOM     20  C   UNL     1      34.295  20.671  12.257  1.00  0.00     0.159 C 
ENDROOT
BRANCH   1  21
ATOM     21  O   UNL     1      39.395  24.710   8.366  1.00  0.00    -0.496 OA
ATOM     22  C   UNL     1      39.781  25.863   7.681  1.00  0.00     0.278 C 
ENDBRANCH   1  21
BRANCH  10  23
ATOM     23  O   UNL     1      35.688  22.927  11.015  1.00  0.00    -0.507 OA
ATOM     24  H   UNL     1      36.236  23.744  10.792  1.00  0.00     0.293 HD
ENDBRANCH  10  23
BRANCH  13  25
ATOM     25  O   UNL     1      37.769  17.886  10.468  1.00  0.00    -0.507 OA
ATOM     26  H   UNL     1      37.820  17.410   9.579  1.00  0.00     0.293 HD
ENDBRANCH  13  25
BRANCH  20  27
ATOM     27  O   UNL     1      33.816  21.944  12.298  1.00  0.00    -0.344 OA
BRANCH  27  28
ATOM     28  C   UNL     1      33.423  22.387  13.542  1.00  0.00     0.252 C 
ATOM     29  C   UNL     1      32.838  23.751  13.601  1.00  0.00     0.083 C 
ATOM     30  O   UNL     1      32.483  21.475  14.023  1.00  0.00    -0.347 OA
ATOM     31  C   UNL     1      31.987  23.822  14.865  1.00  0.00     0.087 C 
ATOM     32  C   UNL     1      31.178  21.833  13.713  1.00  0.00     0.148 C 
ATOM     33  C   UNL     1      30.727  23.025  14.564  1.00  0.00     0.160 C 
ATOM     34  C   UNL     1      30.288  20.657  14.059  1.00  0.00     0.041 C 
BRANCH  31  35
ATOM     35  N   UNL     1      32.721  23.069  15.880  1.00  0.00    -0.325 NA
ATOM     36  H   UNL     1      33.283  23.674  16.488  1.00  0.00     0.119 HD
ATOM     37  H   UNL     1      32.125  22.375  16.366  1.00  0.00     0.119 HD
ENDBRANCH  31  35
BRANCH  33  38
ATOM     38  O   UNL     1      30.159  22.590  15.753  1.00  0.00    -0.389 OA
ATOM     39  H   UNL     1      29.191  22.764  15.695  1.00  0.00     0.211 HD
ENDBRANCH  33  38
ENDBRANCH  27  28
ENDBRANCH  20  27
BRANCH  18  40
ATOM     40  O   UNL     1      33.444  17.501  10.795  1.00  0.00    -0.382 OA
ATOM     41  H   UNL     1      32.470  17.352  10.821  1.00  0.00     0.212 HD
ENDBRANCH  18  40
BRANCH  18  42
ATOM     42  C   UNL     1      33.202  17.658  13.101  1.00  0.00     0.190 C 
ATOM     43  O   UNL     1      32.167  17.027  12.954  1.00  0.00    -0.294 OA
BRANCH  42  44
ATOM     44  C   UNL     1      33.722  17.746  14.484  1.00  0.00     0.234 C 
BRANCH  44  45
ATOM     45  O   UNL     1      33.262  18.899  15.137  1.00  0.00    -0.388 OA
ATOM     46  H   UNL     1      33.956  19.288  15.713  1.00  0.00     0.211 HD
ENDBRANCH  44  45
ENDBRANCH  42  44
ENDBRANCH  18  42
TORSDOF 11
ENDMDL
MODEL 6
REMARK VINA RESULT:      -6.1      4.198      9.286
REMARK SMILES COc1cccc2c1C(=O)c1c(O)c3c(c(O)c1C2=O)C[C@@](O)(C(=O)CO)C[C@@H]3O[C@H]1C[C@H](N)[C@H](O)[C@H](C)O1
REMARK SMILES IDX 3 1 4 2 5 3 6 4 7 5 8 6 9 7 10 8 11 9 12 10 14 11 15 12
REMARK SMILES IDX 16 13 18 14 19 15 20 16 21 17 22 18 28 19 29 20 2 21 1 22
REMARK SMILES IDX 13 23 17 25 30 27 31 28 32 29 39 30 33 31 37 32 35 33 38 34
REMARK SMILES IDX 34 35 36 38 23 40 24 42 25 43 26 44 27 45
REMARK H PARENT 13 24 17 26 34 36 34 37 36 39 23 41 27 46
ROOT
ATOM      1  C   UNL     1      32.232  18.144  11.871  1.00  0.00     0.130 A 
ATOM      2  C   UNL     1      31.854  17.539  13.030  1.00  0.00     0.047 A 
ATOM      3  C   UNL     1      32.719  17.309  14.085  1.00  0.00     0.005 A 
ATOM      4  C   UNL     1      34.026  17.714  13.946  1.00  0.00     0.013 A 
ATOM      5  C   UNL     1      34.430  18.337  12.759  1.00  0.00     0.038 A 
ATOM      6  C   UNL     1      33.545  18.551  11.731  1.00  0.00     0.076 A 
ATOM      7  C   UNL     1      34.003  19.209  10.495  1.00  0.00     0.202 C 
ATOM      8  O   UNL     1      33.177  19.388   9.581  1.00  0.00    -0.288 OA
ATOM      9  C   UNL     1      35.386  19.639  10.345  1.00  0.00     0.080 A 
ATOM     10  C   UNL     1      35.840  20.264   9.183  1.00  0.00     0.133 A 
ATOM     11  C   UNL     1      37.129  20.669   9.033  1.00  0.00     0.031 A 
ATOM     12  C   UNL     1      38.050  20.457  10.079  1.00  0.00     0.008 A 
ATOM     13  C   UNL     1      37.587  19.841  11.215  1.00  0.00     0.131 A 
ATOM     14  C   UNL     1      36.281  19.425  11.379  1.00  0.00     0.080 A 
ATOM     15  C   UNL     1      35.814  18.772  12.598  1.00  0.00     0.198 C 
ATOM     16  O   UNL     1      36.598  18.562  13.557  1.00  0.00    -0.288 OA
ATOM     17  C   UNL     1      39.450  20.899   9.917  1.00  0.00     0.083 C 
ATOM     18  C   UNL     1      39.613  22.195   9.174  1.00  0.00     0.132 C 
ATOM     19  C   UNL     1      38.387  22.569   8.398  1.00  0.00     0.081 C 
ATOM     20  C   UNL     1      37.723  21.340   7.856  1.00  0.00     0.159 C 
ENDROOT
BRANCH   1  21
ATOM     21  O   UNL     1      31.389  18.389  10.796  1.00  0.00    -0.496 OA
ATOM     22  C   UNL     1      29.997  18.293  10.838  1.00  0.00     0.278 C 
ENDBRANCH   1  21
BRANCH  10  23
ATOM     23  O   UNL     1      34.942  20.475   8.156  1.00  0.00    -0.507 OA
ATOM     24  H   UNL     1      35.218  20.412   7.188  1.00  0.00     0.293 HD
ENDBRANCH  10  23
BRANCH  13  25
ATOM     25  O   UNL     1      38.457  19.611  12.272  1.00  0.00    -0.507 OA
ATOM     26  H   UNL     1      39.240  20.213  12.486  1.00  0.00     0.293 HD
ENDBRANCH  13  25
BRANCH  20  27
ATOM     27  O   UNL     1      36.776  21.566   6.907  1.00  0.00    -0.344 OA
BRANCH  27  28
ATOM     28  C   UNL     1      36.968  20.906   5.713  1.00  0.00     0.252 C 
ATOM     29  C   UNL     1      36.034  21.255   4.610  1.00  0.00     0.083 C 
ATOM     30  O   UNL     1      38.272  21.179   5.299  1.00  0.00    -0.347 OA
ATOM     31  C   UNL     1      36.727  20.887   3.301  1.00  0.00     0.087 C 
ATOM     32  C   UNL     1      38.351  22.284   4.463  1.00  0.00     0.148 C 
ATOM     33  C   UNL     1      37.786  21.955   3.076  1.00  0.00     0.160 C 
ATOM     34  C   UNL     1      39.818  22.624   4.293  1.00  0.00     0.041 C 
BRANCH  31  35
ATOM     35  N   UNL     1      37.443  19.641   3.569  1.00  0.00    -0.325 NA
ATOM     36  H   UNL     1      37.143  19.195   4.442  1.00  0.00     0.119 HD
ATOM     37  H   UNL     1      37.482  19.021   2.740  1.00  0.00     0.119 HD
ENDBRANCH  31  35
BRANCH  33  38
ATOM     38  O   UNL     1      38.781  21.452   2.249  1.00  0.00    -0.389 OA
ATOM     39  H   UNL     1      38.350  20.829   1.619  1.00  0.00     0.211 HD
ENDBRANCH  33  38
ENDBRANCH  27  28
ENDBRANCH  20  27
BRANCH  18  40
ATOM     40  O   UNL     1      39.738  23.206  10.175  1.00  0.00    -0.382 OA
ATOM     41  H   UNL     1      40.690  23.409  10.332  1.00  0.00     0.212 HD
ENDBRANCH  18  40
BRANCH  18  42
ATOM     42  C   UNL     1      40.868  22.243   8.386  1.00  0.00     0.190 C 
ATOM     43  O   UNL     1      41.630  23.185   8.529  1.00  0.00    -0.294 OA
BRANCH  42  44
ATOM     44  C   UNL     1      41.282  21.210   7.411  1.00  0.00     0.234 C 
BRANCH  44  45
ATOM     45  O   UNL     1      42.553  21.479   6.880  1.00  0.00    -0.388 OA
ATOM     46  H   UNL     1      43.013  22.185   7.385  1.00  0.00     0.211 HD
ENDBRANCH  44  45
ENDBRANCH  42  44
ENDBRANCH  18  42
TORSDOF 11
ENDMDL
MODEL 7
REMARK VINA RESULT:      -6.1      3.913      8.503
REMARK SMILES COc1cccc2c1C(=O)c1c(O)c3c(c(O)c1C2=O)C[C@@](O)(C(=O)CO)C[C@@H]3O[C@H]1C[C@H](N)[C@H](O)[C@H](C)O1
REMARK SMILES IDX 3 1 4 2 5 3 6 4 7 5 8 6 9 7 10 8 11 9 12 10 14 11 15 12
REMARK SMILES IDX 16 13 18 14 19 15 20 16 21 17 22 18 28 19 29 20 2 21 1 22
REMARK SMILES IDX 13 23 17 25 30 27 31 28 32 29 39 30 33 31 37 32 35 33 38 34
REMARK SMILES IDX 34 35 36 38 23 40 24 42 25 43 26 44 27 45
REMARK H PARENT 13 24 17 26 34 36 34 37 36 39 23 41 27 46
ROOT
ATOM      1  C   UNL     1      32.049  18.142  12.069  1.00  0.00     0.130 A 
ATOM      2  C   UNL     1      31.702  17.546  13.242  1.00  0.00     0.047 A 
ATOM      3  C   UNL     1      32.600  17.302  14.266  1.00  0.00     0.005 A 
ATOM      4  C   UNL     1      33.908  17.684  14.080  1.00  0.00     0.013 A 
ATOM      5  C   UNL     1      34.280  18.299  12.878  1.00  0.00     0.038 A 
ATOM      6  C   UNL     1      33.363  18.527  11.881  1.00  0.00     0.076 A 
ATOM      7  C   UNL     1      33.787  19.175  10.629  1.00  0.00     0.202 C 
ATOM      8  O   UNL     1      32.932  19.368   9.745  1.00  0.00    -0.288 OA
ATOM      9  C   UNL     1      35.172  19.581  10.429  1.00  0.00     0.080 A 
ATOM     10  C   UNL     1      35.594  20.197   9.250  1.00  0.00     0.133 A 
ATOM     11  C   UNL     1      36.884  20.580   9.054  1.00  0.00     0.031 A 
ATOM     12  C   UNL     1      37.838  20.353  10.066  1.00  0.00     0.008 A 
ATOM     13  C   UNL     1      37.406  19.747  11.219  1.00  0.00     0.131 A 
ATOM     14  C   UNL     1      36.099  19.354  11.430  1.00  0.00     0.080 A 
ATOM     15  C   UNL     1      35.664  18.710  12.666  1.00  0.00     0.198 C 
ATOM     16  O   UNL     1      36.479  18.487  13.597  1.00  0.00    -0.288 OA
ATOM     17  C   UNL     1      39.239  20.771   9.853  1.00  0.00     0.083 C 
ATOM     18  C   UNL     1      39.397  22.063   9.103  1.00  0.00     0.132 C 
ATOM     19  C   UNL     1      38.150  22.457   8.370  1.00  0.00     0.081 C 
ATOM     20  C   UNL     1      37.447  21.238   7.855  1.00  0.00     0.159 C 
ENDROOT
BRANCH   1  21
ATOM     21  O   UNL     1      31.172  18.401  11.024  1.00  0.00    -0.496 OA
ATOM     22  C   UNL     1      29.786  18.247  11.092  1.00  0.00     0.278 C 
ENDBRANCH   1  21
BRANCH  10  23
ATOM     23  O   UNL     1      34.664  20.423   8.256  1.00  0.00    -0.507 OA
ATOM     24  H   UNL     1      34.740  21.207   7.626  1.00  0.00     0.293 HD
ENDBRANCH  10  23
BRANCH  13  25
ATOM     25  O   UNL     1      38.308  19.503  12.245  1.00  0.00    -0.507 OA
ATOM     26  H   UNL     1      38.262  19.962  13.144  1.00  0.00     0.293 HD
ENDBRANCH  13  25
BRANCH  20  27
ATOM     27  O   UNL     1      36.471  21.480   6.940  1.00  0.00    -0.344 OA
BRANCH  27  28
ATOM     28  C   UNL     1      36.316  22.801   6.577  1.00  0.00     0.252 C 
ATOM     29  C   UNL     1      36.532  23.119   5.141  1.00  0.00     0.083 C 
ATOM     30  O   UNL     1      35.017  23.171   6.927  1.00  0.00    -0.347 OA
ATOM     31  C   UNL     1      35.791  24.421   4.853  1.00  0.00     0.087 C 
ATOM     32  C   UNL     1      34.109  22.996   5.892  1.00  0.00     0.148 C 
ATOM     33  C   UNL     1      34.315  24.058   4.806  1.00  0.00     0.160 C 
ATOM     34  C   UNL     1      32.720  23.188   6.466  1.00  0.00     0.041 C 
BRANCH  31  35
ATOM     35  N   UNL     1      35.977  25.254   6.039  1.00  0.00    -0.325 NA
ATOM     36  H   UNL     1      36.895  25.710   6.059  1.00  0.00     0.119 HD
ATOM     37  H   UNL     1      35.165  25.873   6.219  1.00  0.00     0.119 HD
ENDBRANCH  31  35
BRANCH  33  38
ATOM     38  O   UNL     1      33.552  25.186   5.075  1.00  0.00    -0.389 OA
ATOM     39  H   UNL     1      34.166  25.880   5.412  1.00  0.00     0.211 HD
ENDBRANCH  33  38
ENDBRANCH  27  28
ENDBRANCH  20  27
BRANCH  18  40
ATOM     40  O   UNL     1      39.575  23.072  10.097  1.00  0.00    -0.382 OA
ATOM     41  H   UNL     1      38.979  23.836   9.914  1.00  0.00     0.212 HD
ENDBRANCH  18  40
BRANCH  18  42
ATOM     42  C   UNL     1      40.624  22.088   8.270  1.00  0.00     0.190 C 
ATOM     43  O   UNL     1      40.932  21.098   7.626  1.00  0.00    -0.294 OA
BRANCH  42  44
ATOM     44  C   UNL     1      41.533  23.250   8.156  1.00  0.00     0.234 C 
BRANCH  44  45
ATOM     45  O   UNL     1      40.843  24.411   7.774  1.00  0.00    -0.388 OA
ATOM     46  H   UNL     1      39.942  24.440   8.164  1.00  0.00     0.211 HD
ENDBRANCH  44  45
ENDBRANCH  42  44
ENDBRANCH  18  42
TORSDOF 11
ENDMDL
MODEL 8
REMARK VINA RESULT:      -6.1      3.088      8.325
REMARK SMILES COc1cccc2c1C(=O)c1c(O)c3c(c(O)c1C2=O)C[C@@](O)(C(=O)CO)C[C@@H]3O[C@H]1C[C@H](N)[C@H](O)[C@H](C)O1
REMARK SMILES IDX 3 1 4 2 5 3 6 4 7 5 8 6 9 7 10 8 11 9 12 10 14 11 15 12
REMARK SMILES IDX 16 13 18 14 19 15 20 16 21 17 22 18 28 19 29 20 2 21 1 22
REMARK SMILES IDX 13 23 17 25 30 27 31 28 32 29 39 30 33 31 37 32 35 33 38 34
REMARK SMILES IDX 34 35 36 38 23 40 24 42 25 43 26 44 27 45
REMARK H PARENT 13 24 17 26 34 36 34 37 36 39 23 41 27 46
ROOT
ATOM      1  C   UNL     1      32.911  20.135  13.712  1.00  0.00     0.130 A 
ATOM      2  C   UNL     1      32.631  19.120  14.574  1.00  0.00     0.047 A 
ATOM      3  C   UNL     1      33.456  18.024  14.752  1.00  0.00     0.005 A 
ATOM      4  C   UNL     1      34.617  17.966  14.017  1.00  0.00     0.013 A 
ATOM      5  C   UNL     1      34.920  19.003  13.127  1.00  0.00     0.038 A 
ATOM      6  C   UNL     1      34.078  20.078  12.974  1.00  0.00     0.076 A 
ATOM      7  C   UNL     1      34.425  21.152  12.028  1.00  0.00     0.202 C 
ATOM      8  O   UNL     1      33.642  22.112  11.912  1.00  0.00    -0.288 OA
ATOM      9  C   UNL     1      35.654  21.094  11.248  1.00  0.00     0.080 A 
ATOM     10  C   UNL     1      36.002  22.101  10.348  1.00  0.00     0.133 A 
ATOM     11  C   UNL     1      37.147  22.056   9.615  1.00  0.00     0.031 A 
ATOM     12  C   UNL     1      38.021  20.960   9.760  1.00  0.00     0.008 A 
ATOM     13  C   UNL     1      37.664  19.978  10.650  1.00  0.00     0.131 A 
ATOM     14  C   UNL     1      36.505  20.013  11.400  1.00  0.00     0.080 A 
ATOM     15  C   UNL     1      36.148  18.955  12.340  1.00  0.00     0.198 C 
ATOM     16  O   UNL     1      36.896  17.959  12.503  1.00  0.00    -0.288 OA
ATOM     17  C   UNL     1      39.266  20.912   8.966  1.00  0.00     0.083 C 
ATOM     18  C   UNL     1      39.934  22.244   8.774  1.00  0.00     0.132 C 
ATOM     19  C   UNL     1      39.017  23.393   9.061  1.00  0.00     0.081 C 
ATOM     20  C   UNL     1      37.620  23.058   8.636  1.00  0.00     0.159 C 
ENDROOT
BRANCH   1  21
ATOM     21  O   UNL     1      32.105  21.247  13.512  1.00  0.00    -0.496 OA
ATOM     22  C   UNL     1      31.259  21.801  14.475  1.00  0.00     0.278 C 
ENDBRANCH   1  21
BRANCH  10  23
ATOM     23  O   UNL     1      35.149  23.177  10.203  1.00  0.00    -0.507 OA
ATOM     24  H   UNL     1      34.904  23.541   9.295  1.00  0.00     0.293 HD
ENDBRANCH  10  23
BRANCH  13  25
ATOM     25  O   UNL     1      38.494  18.880  10.828  1.00  0.00    -0.507 OA
ATOM     26  H   UNL     1      38.275  18.116  11.451  1.00  0.00     0.293 HD
ENDBRANCH  13  25
BRANCH  20  27
ATOM     27  O   UNL     1      36.765  24.114   8.582  1.00  0.00    -0.344 OA
BRANCH  27  28
ATOM     28  C   UNL     1      36.279  24.416   7.328  1.00  0.00     0.252 C 
ATOM     29  C   UNL     1      36.977  23.781   6.181  1.00  0.00     0.083 C 
ATOM     30  O   UNL     1      34.938  24.031   7.305  1.00  0.00    -0.347 OA
ATOM     31  C   UNL     1      35.999  23.768   5.010  1.00  0.00     0.087 C 
ATOM     32  C   UNL     1      34.757  22.737   6.836  1.00  0.00     0.148 C 
ATOM     33  C   UNL     1      34.991  22.673   5.323  1.00  0.00     0.160 C 
ATOM     34  C   UNL     1      33.314  22.355   7.096  1.00  0.00     0.041 C 
BRANCH  31  35
ATOM     35  N   UNL     1      35.273  25.034   5.086  1.00  0.00    -0.325 NA
ATOM     36  H   UNL     1      35.584  25.708   4.378  1.00  0.00     0.119 HD
ATOM     37  H   UNL     1      34.248  24.899   5.155  1.00  0.00     0.119 HD
ENDBRANCH  31  35
BRANCH  33  38
ATOM     38  O   UNL     1      33.811  22.920   4.635  1.00  0.00    -0.389 OA
ATOM     39  H   UNL     1      33.784  22.301   3.868  1.00  0.00     0.211 HD
ENDBRANCH  33  38
ENDBRANCH  27  28
ENDBRANCH  20  27
BRANCH  18  40
ATOM     40  O   UNL     1      40.947  22.321   9.777  1.00  0.00    -0.382 OA
ATOM     41  H   UNL     1      40.838  23.146  10.305  1.00  0.00     0.212 HD
ENDBRANCH  18  40
BRANCH  18  42
ATOM     42  C   UNL     1      40.640  22.341   7.473  1.00  0.00     0.190 C 
ATOM     43  O   UNL     1      40.023  22.137   6.440  1.00  0.00    -0.294 OA
BRANCH  42  44
ATOM     44  C   UNL     1      42.074  22.674   7.322  1.00  0.00     0.234 C 
BRANCH  44  45
ATOM     45  O   UNL     1      42.396  23.877   7.967  1.00  0.00    -0.388 OA
ATOM     46  H   UNL     1      41.630  24.491   7.990  1.00  0.00     0.211 HD
ENDBRANCH  44  45
ENDBRANCH  42  44
ENDBRANCH  18  42
TORSDOF 11
ENDMDL
MODEL 9
REMARK VINA RESULT:      -6.1      2.010      2.620
REMARK SMILES COc1cccc2c1C(=O)c1c(O)c3c(c(O)c1C2=O)C[C@@](O)(C(=O)CO)C[C@@H]3O[C@H]1C[C@H](N)[C@H](O)[C@H](C)O1
REMARK SMILES IDX 3 1 4 2 5 3 6 4 7 5 8 6 9 7 10 8 11 9 12 10 14 11 15 12
REMARK SMILES IDX 16 13 18 14 19 15 20 16 21 17 22 18 28 19 29 20 2 21 1 22
REMARK SMILES IDX 13 23 17 25 30 27 31 28 32 29 39 30 33 31 37 32 35 33 38 34
REMARK SMILES IDX 34 35 36 38 23 40 24 42 25 43 26 44 27 45
REMARK H PARENT 13 24 17 26 34 36 34 37 36 39 23 41 27 46
ROOT
ATOM      1  C   UNL     1      38.499  20.897   8.784  1.00  0.00     0.130 A 
ATOM      2  C   UNL     1      39.541  20.110   8.402  1.00  0.00     0.047 A 
ATOM      3  C   UNL     1      39.839  18.899   9.002  1.00  0.00     0.005 A 
ATOM      4  C   UNL     1      39.036  18.478  10.036  1.00  0.00     0.013 A 
ATOM      5  C   UNL     1      37.960  19.277  10.440  1.00  0.00     0.038 A 
ATOM      6  C   UNL     1      37.691  20.475   9.822  1.00  0.00     0.076 A 
ATOM      7  C   UNL     1      36.552  21.292  10.271  1.00  0.00     0.202 C 
ATOM      8  O   UNL     1      36.335  22.372   9.691  1.00  0.00    -0.288 OA
ATOM      9  C   UNL     1      35.699  20.849  11.366  1.00  0.00     0.080 A 
ATOM     10  C   UNL     1      34.614  21.608  11.806  1.00  0.00     0.133 A 
ATOM     11  C   UNL     1      33.812  21.203  12.827  1.00  0.00     0.031 A 
ATOM     12  C   UNL     1      34.073  19.978  13.472  1.00  0.00     0.008 A 
ATOM     13  C   UNL     1      35.144  19.243  13.026  1.00  0.00     0.131 A 
ATOM     14  C   UNL     1      35.965  19.644  11.991  1.00  0.00     0.080 A 
ATOM     15  C   UNL     1      37.098  18.844  11.535  1.00  0.00     0.198 C 
ATOM     16  O   UNL     1      37.370  17.744  12.079  1.00  0.00    -0.288 OA
ATOM     17  C   UNL     1      33.201  19.537  14.579  1.00  0.00     0.083 C 
ATOM     18  C   UNL     1      31.746  19.866  14.395  1.00  0.00     0.132 C 
ATOM     19  C   UNL     1      31.524  20.917  13.351  1.00  0.00     0.081 C 
ATOM     20  C   UNL     1      32.640  21.917  13.378  1.00  0.00     0.159 C 
ENDROOT
BRANCH   1  21
ATOM     21  O   UNL     1      38.175  22.115   8.202  1.00  0.00    -0.496 OA
ATOM     22  C   UNL     1      38.480  22.476   6.888  1.00  0.00     0.278 C 
ENDBRANCH   1  21
BRANCH  10  23
ATOM     23  O   UNL     1      34.353  22.809  11.177  1.00  0.00    -0.507 OA
ATOM     24  H   UNL     1      35.002  23.217  10.522  1.00  0.00     0.293 HD
ENDBRANCH  10  23
BRANCH  13  25
ATOM     25  O   UNL     1      35.441  18.029  13.629  1.00  0.00    -0.507 OA
ATOM     26  H   UNL     1      34.866  17.204  13.525  1.00  0.00     0.293 HD
ENDBRANCH  13  25
BRANCH  20  27
ATOM     27  O   UNL     1      32.406  23.061  12.680  1.00  0.00    -0.344 OA
BRANCH  27  28
ATOM     28  C   UNL     1      32.254  24.197  13.445  1.00  0.00     0.252 C 
ATOM     29  C   UNL     1      32.679  24.097  14.866  1.00  0.00     0.083 C 
ATOM     30  O   UNL     1      32.993  25.207  12.827  1.00  0.00    -0.347 OA
ATOM     31  C   UNL     1      32.967  25.515  15.350  1.00  0.00     0.087 C 
ATOM     32  C   UNL     1      34.288  25.302  13.314  1.00  0.00     0.148 C 
ATOM     33  C   UNL     1      34.294  25.909  14.722  1.00  0.00     0.160 C 
ATOM     34  C   UNL     1      35.051  26.245  12.405  1.00  0.00     0.041 C 
BRANCH  31  35
ATOM     35  N   UNL     1      31.947  26.359  14.731  1.00  0.00    -0.325 NA
ATOM     36  H   UNL     1      31.754  27.206  15.276  1.00  0.00     0.119 HD
ATOM     37  H   UNL     1      32.117  26.507  13.719  1.00  0.00     0.119 HD
ENDBRANCH  31  35
BRANCH  33  38
ATOM     38  O   UNL     1      34.383  27.292  14.658  1.00  0.00    -0.389 OA
ATOM     39  H   UNL     1      34.574  27.615  15.570  1.00  0.00     0.211 HD
ENDBRANCH  33  38
ENDBRANCH  27  28
ENDBRANCH  20  27
BRANCH  18  40
ATOM     40  O   UNL     1      31.143  18.686  13.866  1.00  0.00    -0.382 OA
ATOM     41  H   UNL     1      31.402  18.568  12.922  1.00  0.00     0.212 HD
ENDBRANCH  18  40
BRANCH  18  42
ATOM     42  C   UNL     1      31.059  20.134  15.683  1.00  0.00     0.190 C 
ATOM     43  O   UNL     1      31.127  21.247  16.178  1.00  0.00    -0.294 OA
BRANCH  42  44
ATOM     44  C   UNL     1      30.277  19.130  16.437  1.00  0.00     0.234 C 
BRANCH  44  45
ATOM     45  O   UNL     1      31.078  18.057  16.855  1.00  0.00    -0.388 OA
ATOM     46  H   UNL     1      31.803  18.356  17.446  1.00  0.00     0.211 HD
ENDBRANCH  44  45
ENDBRANCH  42  44
ENDBRANCH  18  42
TORSDOF 11
ENDMDL
