MODEL 1
REMARK VINA RESULT:      -7.3      0.000      0.000
REMARK SMILES COc1c(C)c2c(c([O-])c1C/C=C(\C)CCC(=O)[O-])C(=O)OC2
REMARK SMILES IDX 12 1 13 2 14 3 11 4 10 5 3 6 4 7 6 8 8 9 7 10 23 11 20 12
REMARK SMILES IDX 22 13 21 14 5 15 9 16 2 17 1 18 15 19 16 20 17 21 18 22
REMARK SMILES IDX 19 23
REMARK H PARENT
ROOT
ATOM      1  C   UNL     1     144.902 145.993 167.255  1.00  0.00    -0.023 C 
ATOM      2  C   UNL     1     145.236 144.719 166.924  1.00  0.00    -0.077 C 
ATOM      3  C   UNL     1     145.160 144.325 165.502  1.00  0.00     0.039 C 
ENDROOT
BRANCH   1   4
ATOM      4  C   UNL     1     144.472 147.005 166.292  1.00  0.00     0.066 C 
BRANCH   4   5
ATOM      5  C   UNL     1     144.887 148.393 166.572  1.00  0.00    -0.009 A 
ATOM      6  C   UNL     1     145.061 149.357 165.614  1.00  0.00     0.125 A 
ATOM      7  C   UNL     1     145.458 150.641 166.015  1.00  0.00    -0.001 A 
ATOM      8  C   UNL     1     145.680 150.972 167.332  1.00  0.00     0.010 A 
ATOM      9  C   UNL     1     145.118 148.749 167.910  1.00  0.00    -0.086 A 
ATOM     10  C   UNL     1     145.507 150.008 168.299  1.00  0.00     0.059 A 
ATOM     11  C   UNL     1     146.101 152.240 168.011  1.00  0.00     0.270 C 
ATOM     12  C   UNL     1     145.804 150.612 169.606  1.00  0.00     0.338 C 
ATOM     13  O   UNL     1     146.148 151.932 169.375  1.00  0.00    -0.457 OA
ATOM     14  O   UNL     1     145.745 150.004 170.725  1.00  0.00    -0.246 OA
ATOM     15  C   UNL     1     145.630 151.635 164.947  1.00  0.00     0.049 C 
ATOM     16  O   UNL     1     144.965 147.826 168.951  1.00  0.00    -0.872 OA
BRANCH   6  17
ATOM     17  O   UNL     1     144.855 149.073 164.277  1.00  0.00    -0.496 OA
ATOM     18  C   UNL     1     145.860 148.500 163.479  1.00  0.00     0.278 C 
ENDBRANCH   6  17
ENDBRANCH   4   5
ENDBRANCH   1   4
BRANCH   2  19
ATOM     19  C   UNL     1     145.635 143.744 167.942  1.00  0.00     0.036 C 
BRANCH  19  20
ATOM     20  C   UNL     1     146.340 144.296 169.144  1.00  0.00     0.057 C 
BRANCH  20  21
ATOM     21  C   UNL     1     145.608 144.214 170.411  1.00  0.00     0.042 C 
ATOM     22  O   UNL     1     144.561 144.880 170.608  1.00  0.00    -0.550 OA
ATOM     23  O   UNL     1     146.090 143.371 171.429  1.00  0.00    -0.550 OA
ENDBRANCH  20  21
ENDBRANCH  19  20
ENDBRANCH   2  19
TORSDOF 6
ENDMDL
MODEL 2
REMARK VINA RESULT:      -7.2      5.185      6.555
REMARK SMILES COc1c(C)c2c(c([O-])c1C/C=C(\C)CCC(=O)[O-])C(=O)OC2
REMARK SMILES IDX 12 1 13 2 14 3 11 4 10 5 3 6 4 7 6 8 8 9 7 10 23 11 20 12
REMARK SMILES IDX 22 13 21 14 5 15 9 16 2 17 1 18 15 19 16 20 17 21 18 22
REMARK SMILES IDX 19 23
REMARK H PARENT
ROOT
ATOM      1  C   UNL     1     147.478 145.132 167.537  1.00  0.00    -0.023 C 
ATOM      2  C   UNL     1     146.157 144.876 167.353  1.00  0.00    -0.077 C 
ATOM      3  C   UNL     1     145.478 145.508 166.203  1.00  0.00     0.039 C 
ENDROOT
BRANCH   1   4
ATOM      4  C   UNL     1     148.276 145.995 166.667  1.00  0.00     0.066 C 
BRANCH   4   5
ATOM      5  C   UNL     1     149.569 145.450 166.214  1.00  0.00    -0.009 A 
ATOM      6  C   UNL     1     149.740 144.707 165.076  1.00  0.00     0.125 A 
ATOM      7  C   UNL     1     151.026 144.248 164.757  1.00  0.00    -0.001 A 
ATOM      8  C   UNL     1     152.125 144.515 165.542  1.00  0.00     0.010 A 
ATOM      9  C   UNL     1     150.701 145.711 167.002  1.00  0.00    -0.086 A 
ATOM     10  C   UNL     1     151.960 145.260 166.686  1.00  0.00     0.059 A 
ATOM     11  C   UNL     1     153.575 144.151 165.430  1.00  0.00     0.270 C 
ATOM     12  C   UNL     1     153.272 145.399 167.335  1.00  0.00     0.338 C 
ATOM     13  O   UNL     1     154.188 144.725 166.548  1.00  0.00    -0.457 OA
ATOM     14  O   UNL     1     153.490 146.031 168.421  1.00  0.00    -0.246 OA
ATOM     15  C   UNL     1     151.152 143.456 163.526  1.00  0.00     0.049 C 
ATOM     16  O   UNL     1     150.616 146.461 168.180  1.00  0.00    -0.872 OA
BRANCH   6  17
ATOM     17  O   UNL     1     148.667 144.409 164.256  1.00  0.00    -0.496 OA
ATOM     18  C   UNL     1     148.172 145.333 163.320  1.00  0.00     0.278 C 
ENDBRANCH   6  17
ENDBRANCH   4   5
ENDBRANCH   1   4
BRANCH   2  19
ATOM     19  C   UNL     1     145.408 144.021 168.277  1.00  0.00     0.036 C 
BRANCH  19  20
ATOM     20  C   UNL     1     145.044 144.634 169.595  1.00  0.00     0.057 C 
BRANCH  20  21
ATOM     21  C   UNL     1     145.998 144.423 170.687  1.00  0.00     0.042 C 
ATOM     22  O   UNL     1     146.000 143.362 171.360  1.00  0.00    -0.550 OA
ATOM     23  O   UNL     1     146.932 145.431 170.987  1.00  0.00    -0.550 OA
ENDBRANCH  20  21
ENDBRANCH  19  20
ENDBRANCH   2  19
TORSDOF 6
ENDMDL
MODEL 3
REMARK VINA RESULT:      -7.1      7.220      8.237
REMARK SMILES COc1c(C)c2c(c([O-])c1C/C=C(\C)CCC(=O)[O-])C(=O)OC2
REMARK SMILES IDX 12 1 13 2 14 3 11 4 10 5 3 6 4 7 6 8 8 9 7 10 23 11 20 12
REMARK SMILES IDX 22 13 21 14 5 15 9 16 2 17 1 18 15 19 16 20 17 21 18 22
REMARK SMILES IDX 19 23
REMARK H PARENT
ROOT
ATOM      1  C   UNL     1     152.275 146.694 165.918  1.00  0.00    -0.023 C 
ATOM      2  C   UNL     1     152.700 145.969 166.985  1.00  0.00    -0.077 C 
ATOM      3  C   UNL     1     153.950 145.192 166.848  1.00  0.00     0.039 C 
ENDROOT
BRANCH   1   4
ATOM      4  C   UNL     1     152.977 146.757 164.637  1.00  0.00     0.066 C 
BRANCH   4   5
ATOM      5  C   UNL     1     152.213 147.302 163.499  1.00  0.00    -0.009 A 
ATOM      6  C   UNL     1     151.545 146.537 162.578  1.00  0.00     0.125 A 
ATOM      7  C   UNL     1     150.855 147.181 161.541  1.00  0.00    -0.001 A 
ATOM      8  C   UNL     1     150.821 148.551 161.411  1.00  0.00     0.010 A 
ATOM      9  C   UNL     1     152.167 148.697 163.349  1.00  0.00    -0.086 A 
ATOM     10  C   UNL     1     151.489 149.324 162.332  1.00  0.00     0.059 A 
ATOM     11  C   UNL     1     150.173 149.468 160.418  1.00  0.00     0.270 C 
ATOM     12  C   UNL     1     151.296 150.736 161.970  1.00  0.00     0.338 C 
ATOM     13  O   UNL     1     150.511 150.760 160.832  1.00  0.00    -0.457 OA
ATOM     14  O   UNL     1     151.778 151.728 162.609  1.00  0.00    -0.246 OA
ATOM     15  C   UNL     1     150.157 146.313 160.582  1.00  0.00     0.049 C 
ATOM     16  O   UNL     1     152.821 149.551 164.244  1.00  0.00    -0.872 OA
BRANCH   6  17
ATOM     17  O   UNL     1     151.553 145.157 162.664  1.00  0.00    -0.496 OA
ATOM     18  C   UNL     1     150.587 144.456 163.406  1.00  0.00     0.278 C 
ENDBRANCH   6  17
ENDBRANCH   4   5
ENDBRANCH   1   4
BRANCH   2  19
ATOM     19  C   UNL     1     151.937 145.928 168.235  1.00  0.00     0.036 C 
BRANCH  19  20
ATOM     20  C   UNL     1     152.587 146.564 169.426  1.00  0.00     0.057 C 
BRANCH  20  21
ATOM     21  C   UNL     1     152.898 145.667 170.543  1.00  0.00     0.042 C 
ATOM     22  O   UNL     1     152.315 144.563 170.679  1.00  0.00    -0.550 OA
ATOM     23  O   UNL     1     153.870 146.054 171.482  1.00  0.00    -0.550 OA
ENDBRANCH  20  21
ENDBRANCH  19  20
ENDBRANCH   2  19
TORSDOF 6
ENDMDL
MODEL 4
REMARK VINA RESULT:      -7.1      4.338      5.926
REMARK SMILES COc1c(C)c2c(c([O-])c1C/C=C(\C)CCC(=O)[O-])C(=O)OC2
REMARK SMILES IDX 12 1 13 2 14 3 11 4 10 5 3 6 4 7 6 8 8 9 7 10 23 11 20 12
REMARK SMILES IDX 22 13 21 14 5 15 9 16 2 17 1 18 15 19 16 20 17 21 18 22
REMARK SMILES IDX 19 23
REMARK H PARENT
ROOT
ATOM      1  C   UNL     1     145.990 152.223 167.370  1.00  0.00    -0.023 C 
ATOM      2  C   UNL     1     145.010 151.318 167.118  1.00  0.00    -0.077 C 
ATOM      3  C   UNL     1     145.036 150.604 165.824  1.00  0.00     0.039 C 
ENDROOT
BRANCH   1   4
ATOM      4  C   UNL     1     147.075 152.539 166.442  1.00  0.00     0.066 C 
BRANCH   4   5
ATOM      5  C   UNL     1     148.332 151.791 166.626  1.00  0.00    -0.009 A 
ATOM      6  C   UNL     1     148.945 151.054 165.647  1.00  0.00     0.125 A 
ATOM      7  C   UNL     1     150.141 150.389 165.953  1.00  0.00    -0.001 A 
ATOM      8  C   UNL     1     150.724 150.446 167.199  1.00  0.00     0.010 A 
ATOM      9  C   UNL     1     148.941 151.836 167.890  1.00  0.00    -0.086 A 
ATOM     10  C   UNL     1     150.113 151.183 168.186  1.00  0.00     0.059 A 
ATOM     11  C   UNL     1     151.969 149.841 167.774  1.00  0.00     0.270 C 
ATOM     12  C   UNL     1     150.929 151.081 169.405  1.00  0.00     0.338 C 
ATOM     13  O   UNL     1     152.013 150.276 169.102  1.00  0.00    -0.457 OA
ATOM     14  O   UNL     1     150.659 151.642 170.517  1.00  0.00    -0.246 OA
ATOM     15  C   UNL     1     150.756 149.614 164.866  1.00  0.00     0.049 C 
ATOM     16  O   UNL     1     148.382 152.563 168.947  1.00  0.00    -0.872 OA
BRANCH   6  17
ATOM     17  O   UNL     1     148.397 150.963 164.381  1.00  0.00    -0.496 OA
ATOM     18  C   UNL     1     148.630 151.943 163.401  1.00  0.00     0.278 C 
ENDBRANCH   6  17
ENDBRANCH   4   5
ENDBRANCH   1   4
BRANCH   2  19
ATOM     19  C   UNL     1     143.936 151.065 168.081  1.00  0.00     0.036 C 
BRANCH  19  20
ATOM     20  C   UNL     1     144.356 150.504 169.405  1.00  0.00     0.057 C 
BRANCH  20  21
ATOM     21  C   UNL     1     144.173 151.384 170.563  1.00  0.00     0.042 C 
ATOM     22  O   UNL     1     143.373 151.094 171.487  1.00  0.00    -0.550 OA
ATOM     23  O   UNL     1     144.911 152.579 170.639  1.00  0.00    -0.550 OA
ENDBRANCH  20  21
ENDBRANCH  19  20
ENDBRANCH   2  19
TORSDOF 6
ENDMDL
MODEL 5
REMARK VINA RESULT:      -7.0      1.443      1.657
REMARK SMILES COc1c(C)c2c(c([O-])c1C/C=C(\C)CCC(=O)[O-])C(=O)OC2
REMARK SMILES IDX 12 1 13 2 14 3 11 4 10 5 3 6 4 7 6 8 8 9 7 10 23 11 20 12
REMARK SMILES IDX 22 13 21 14 5 15 9 16 2 17 1 18 15 19 16 20 17 21 18 22
REMARK SMILES IDX 19 23
REMARK H PARENT
ROOT
ATOM      1  C   UNL     1     146.546 146.086 167.272  1.00  0.00    -0.023 C 
ATOM      2  C   UNL     1     146.294 144.774 167.027  1.00  0.00    -0.077 C 
ATOM      3  C   UNL     1     146.500 144.269 165.653  1.00  0.00     0.039 C 
ENDROOT
BRANCH   1   4
ATOM      4  C   UNL     1     147.010 147.035 166.262  1.00  0.00     0.066 C 
BRANCH   4   5
ATOM      5  C   UNL     1     146.355 148.357 166.256  1.00  0.00    -0.009 A 
ATOM      6  C   UNL     1     145.391 148.739 165.361  1.00  0.00     0.125 A 
ATOM      7  C   UNL     1     144.848 150.027 165.465  1.00  0.00    -0.001 A 
ATOM      8  C   UNL     1     145.243 150.924 166.431  1.00  0.00     0.010 A 
ATOM      9  C   UNL     1     146.746 149.285 167.234  1.00  0.00    -0.086 A 
ATOM     10  C   UNL     1     146.211 150.546 167.333  1.00  0.00     0.059 A 
ATOM     11  C   UNL     1     144.832 152.329 166.752  1.00  0.00     0.270 C 
ATOM     12  C   UNL     1     146.448 151.673 168.248  1.00  0.00     0.338 C 
ATOM     13  O   UNL     1     145.606 152.698 167.858  1.00  0.00    -0.457 OA
ATOM     14  O   UNL     1     147.284 151.671 169.211  1.00  0.00    -0.246 OA
ATOM     15  C   UNL     1     143.818 150.384 164.478  1.00  0.00     0.049 C 
ATOM     16  O   UNL     1     147.724 148.977 168.187  1.00  0.00    -0.872 OA
BRANCH   6  17
ATOM     17  O   UNL     1     144.963 147.876 164.369  1.00  0.00    -0.496 OA
ATOM     18  C   UNL     1     143.939 146.940 164.594  1.00  0.00     0.278 C 
ENDBRANCH   6  17
ENDBRANCH   4   5
ENDBRANCH   1   4
BRANCH   2  19
ATOM     19  C   UNL     1     145.806 143.879 168.079  1.00  0.00     0.036 C 
BRANCH  19  20
ATOM     20  C   UNL     1     146.515 143.962 169.397  1.00  0.00     0.057 C 
BRANCH  20  21
ATOM     21  C   UNL     1     145.663 144.159 170.573  1.00  0.00     0.042 C 
ATOM     22  O   UNL     1     144.673 144.932 170.544  1.00  0.00    -0.550 OA
ATOM     23  O   UNL     1     145.961 143.466 171.760  1.00  0.00    -0.550 OA
ENDBRANCH  20  21
ENDBRANCH  19  20
ENDBRANCH   2  19
TORSDOF 6
ENDMDL
MODEL 6
REMARK VINA RESULT:      -7.0      2.565      5.800
REMARK SMILES COc1c(C)c2c(c([O-])c1C/C=C(\C)CCC(=O)[O-])C(=O)OC2
REMARK SMILES IDX 12 1 13 2 14 3 11 4 10 5 3 6 4 7 6 8 8 9 7 10 23 11 20 12
REMARK SMILES IDX 22 13 21 14 5 15 9 16 2 17 1 18 15 19 16 20 17 21 18 22
REMARK SMILES IDX 19 23
REMARK H PARENT
ROOT
ATOM      1  C   UNL     1     146.591 151.329 168.634  1.00  0.00    -0.023 C 
ATOM      2  C   UNL     1     147.655 151.931 168.044  1.00  0.00    -0.077 C 
ATOM      3  C   UNL     1     147.519 152.369 166.639  1.00  0.00     0.039 C 
ENDROOT
BRANCH   1   4
ATOM      4  C   UNL     1     145.313 151.085 167.967  1.00  0.00     0.066 C 
BRANCH   4   5
ATOM      5  C   UNL     1     145.148 149.765 167.331  1.00  0.00    -0.009 A 
ATOM      6  C   UNL     1     144.996 149.569 165.983  1.00  0.00     0.125 A 
ATOM      7  C   UNL     1     144.848 148.259 165.506  1.00  0.00    -0.001 A 
ATOM      8  C   UNL     1     144.849 147.161 166.336  1.00  0.00     0.010 A 
ATOM      9  C   UNL     1     145.146 148.634 168.162  1.00  0.00    -0.086 A 
ATOM     10  C   UNL     1     145.001 147.352 167.690  1.00  0.00     0.059 A 
ATOM     11  C   UNL     1     144.712 145.690 166.086  1.00  0.00     0.270 C 
ATOM     12  C   UNL     1     144.968 146.035 168.344  1.00  0.00     0.338 C 
ATOM     13  O   UNL     1     144.796 145.091 167.348  1.00  0.00    -0.457 OA
ATOM     14  O   UNL     1     145.080 145.837 169.598  1.00  0.00    -0.246 OA
ATOM     15  C   UNL     1     144.689 148.107 164.052  1.00  0.00     0.049 C 
ATOM     16  O   UNL     1     145.294 148.744 169.549  1.00  0.00    -0.872 OA
BRANCH   6  17
ATOM     17  O   UNL     1     144.984 150.640 165.108  1.00  0.00    -0.496 OA
ATOM     18  C   UNL     1     143.795 151.314 164.781  1.00  0.00     0.278 C 
ENDBRANCH   6  17
ENDBRANCH   4   5
ENDBRANCH   1   4
BRANCH   2  19
ATOM     19  C   UNL     1     148.919 152.124 168.760  1.00  0.00     0.036 C 
BRANCH  19  20
ATOM     20  C   UNL     1     150.122 151.460 168.164  1.00  0.00     0.057 C 
BRANCH  20  21
ATOM     21  C   UNL     1     150.990 150.742 169.103  1.00  0.00     0.042 C 
ATOM     22  O   UNL     1     152.041 151.261 169.553  1.00  0.00    -0.550 OA
ATOM     23  O   UNL     1     150.635 149.442 169.509  1.00  0.00    -0.550 OA
ENDBRANCH  20  21
ENDBRANCH  19  20
ENDBRANCH   2  19
TORSDOF 6
ENDMDL
MODEL 7
REMARK VINA RESULT:      -7.0      3.231      4.683
REMARK SMILES COc1c(C)c2c(c([O-])c1C/C=C(\C)CCC(=O)[O-])C(=O)OC2
REMARK SMILES IDX 12 1 13 2 14 3 11 4 10 5 3 6 4 7 6 8 8 9 7 10 23 11 20 12
REMARK SMILES IDX 22 13 21 14 5 15 9 16 2 17 1 18 15 19 16 20 17 21 18 22
REMARK SMILES IDX 19 23
REMARK H PARENT
ROOT
ATOM      1  C   UNL     1     145.917 150.253 166.378  1.00  0.00    -0.023 C 
ATOM      2  C   UNL     1     145.210 149.422 167.187  1.00  0.00    -0.077 C 
ATOM      3  C   UNL     1     144.735 149.948 168.484  1.00  0.00     0.039 C 
ENDROOT
BRANCH   1   4
ATOM      4  C   UNL     1     146.239 151.640 166.707  1.00  0.00     0.066 C 
BRANCH   4   5
ATOM      5  C   UNL     1     147.672 151.989 166.743  1.00  0.00    -0.009 A 
ATOM      6  C   UNL     1     148.447 152.188 165.631  1.00  0.00     0.125 A 
ATOM      7  C   UNL     1     149.800 152.516 165.803  1.00  0.00    -0.001 A 
ATOM      8  C   UNL     1     150.380 152.647 167.044  1.00  0.00     0.010 A 
ATOM      9  C   UNL     1     148.281 152.126 168.000  1.00  0.00    -0.086 A 
ATOM     10  C   UNL     1     149.606 152.448 168.165  1.00  0.00     0.059 A 
ATOM     11  C   UNL     1     151.770 152.981 167.494  1.00  0.00     0.270 C 
ATOM     12  C   UNL     1     150.455 152.646 169.348  1.00  0.00     0.338 C 
ATOM     13  O   UNL     1     151.723 152.959 168.892  1.00  0.00    -0.457 OA
ATOM     14  O   UNL     1     150.064 152.540 170.557  1.00  0.00    -0.246 OA
ATOM     15  C   UNL     1     150.585 152.717 164.577  1.00  0.00     0.049 C 
ATOM     16  O   UNL     1     147.562 151.940 169.186  1.00  0.00    -0.872 OA
BRANCH   6  17
ATOM     17  O   UNL     1     147.913 152.063 164.362  1.00  0.00    -0.496 OA
ATOM     18  C   UNL     1     147.225 153.121 163.742  1.00  0.00     0.278 C 
ENDBRANCH   6  17
ENDBRANCH   4   5
ENDBRANCH   1   4
BRANCH   2  19
ATOM     19  C   UNL     1     144.941 148.033 166.808  1.00  0.00     0.036 C 
BRANCH  19  20
ATOM     20  C   UNL     1     145.906 147.010 167.325  1.00  0.00     0.057 C 
BRANCH  20  21
ATOM     21  C   UNL     1     145.379 146.080 168.329  1.00  0.00     0.042 C 
ATOM     22  O   UNL     1     145.110 146.457 169.496  1.00  0.00    -0.550 OA
ATOM     23  O   UNL     1     145.171 144.734 167.975  1.00  0.00    -0.550 OA
ENDBRANCH  20  21
ENDBRANCH  19  20
ENDBRANCH   2  19
TORSDOF 6
ENDMDL
MODEL 8
REMARK VINA RESULT:      -6.9      4.387      6.468
REMARK SMILES COc1c(C)c2c(c([O-])c1C/C=C(\C)CCC(=O)[O-])C(=O)OC2
REMARK SMILES IDX 12 1 13 2 14 3 11 4 10 5 3 6 4 7 6 8 8 9 7 10 23 11 20 12
REMARK SMILES IDX 22 13 21 14 5 15 9 16 2 17 1 18 15 19 16 20 17 21 18 22
REMARK SMILES IDX 19 23
REMARK H PARENT
ROOT
ATOM      1  C   UNL     1     146.820 146.852 167.135  1.00  0.00    -0.023 C 
ATOM      2  C   UNL     1     145.862 147.173 168.042  1.00  0.00    -0.077 C 
ATOM      3  C   UNL     1     145.409 146.124 168.980  1.00  0.00     0.039 C 
ENDROOT
BRANCH   1   4
ATOM      4  C   UNL     1     147.437 145.531 167.025  1.00  0.00     0.066 C 
BRANCH   4   5
ATOM      5  C   UNL     1     148.904 145.504 166.875  1.00  0.00    -0.009 A 
ATOM      6  C   UNL     1     149.563 145.674 165.686  1.00  0.00     0.125 A 
ATOM      7  C   UNL     1     150.965 145.626 165.681  1.00  0.00    -0.001 A 
ATOM      8  C   UNL     1     151.705 145.415 166.821  1.00  0.00     0.010 A 
ATOM      9  C   UNL     1     149.675 145.289 168.028  1.00  0.00    -0.086 A 
ATOM     10  C   UNL     1     151.049 145.243 168.018  1.00  0.00     0.059 A 
ATOM     11  C   UNL     1     153.178 145.320 167.082  1.00  0.00     0.270 C 
ATOM     12  C   UNL     1     152.057 145.038 169.068  1.00  0.00     0.338 C 
ATOM     13  O   UNL     1     153.297 145.094 168.458  1.00  0.00    -0.457 OA
ATOM     14  O   UNL     1     151.802 144.846 170.302  1.00  0.00    -0.246 OA
ATOM     15  C   UNL     1     151.620 145.815 164.379  1.00  0.00     0.049 C 
ATOM     16  O   UNL     1     149.083 145.105 169.282  1.00  0.00    -0.872 OA
BRANCH   6  17
ATOM     17  O   UNL     1     148.865 145.885 164.512  1.00  0.00    -0.496 OA
ATOM     18  C   UNL     1     148.277 144.825 163.800  1.00  0.00     0.278 C 
ENDBRANCH   6  17
ENDBRANCH   4   5
ENDBRANCH   1   4
BRANCH   2  19
ATOM     19  C   UNL     1     145.266 148.511 168.084  1.00  0.00     0.036 C 
BRANCH  19  20
ATOM     20  C   UNL     1     146.227 149.661 168.091  1.00  0.00     0.057 C 
BRANCH  20  21
ATOM     21  C   UNL     1     146.357 150.382 169.360  1.00  0.00     0.042 C 
ATOM     22  O   UNL     1     146.552 151.622 169.393  1.00  0.00    -0.550 OA
ATOM     23  O   UNL     1     146.260 149.667 170.568  1.00  0.00    -0.550 OA
ENDBRANCH  20  21
ENDBRANCH  19  20
ENDBRANCH   2  19
TORSDOF 6
ENDMDL
MODEL 9
REMARK VINA RESULT:      -6.9      4.259      6.300
REMARK SMILES COc1c(C)c2c(c([O-])c1C/C=C(\C)CCC(=O)[O-])C(=O)OC2
REMARK SMILES IDX 12 1 13 2 14 3 11 4 10 5 3 6 4 7 6 8 8 9 7 10 23 11 20 12
REMARK SMILES IDX 22 13 21 14 5 15 9 16 2 17 1 18 15 19 16 20 17 21 18 22
REMARK SMILES IDX 19 23
REMARK H PARENT
ROOT
ATOM      1  C   UNL     1     146.612 146.564 167.381  1.00  0.00    -0.023 C 
ATOM      2  C   UNL     1     145.402 146.895 166.861  1.00  0.00    -0.077 C 
ATOM      3  C   UNL     1     144.675 145.875 166.077  1.00  0.00     0.039 C 
ENDROOT
BRANCH   1   4
ATOM      4  C   UNL     1     147.244 145.256 167.216  1.00  0.00     0.066 C 
BRANCH   4   5
ATOM      5  C   UNL     1     148.699 145.260 166.974  1.00  0.00    -0.009 A 
ATOM      6  C   UNL     1     149.278 145.365 165.736  1.00  0.00     0.125 A 
ATOM      7  C   UNL     1     150.677 145.356 165.644  1.00  0.00    -0.001 A 
ATOM      8  C   UNL     1     151.494 145.245 166.746  1.00  0.00     0.010 A 
ATOM      9  C   UNL     1     149.548 145.146 168.087  1.00  0.00    -0.086 A 
ATOM     10  C   UNL     1     150.919 145.138 167.992  1.00  0.00     0.059 A 
ATOM     11  C   UNL     1     152.982 145.209 166.917  1.00  0.00     0.270 C 
ATOM     12  C   UNL     1     151.997 145.034 168.986  1.00  0.00     0.338 C 
ATOM     13  O   UNL     1     153.194 145.082 168.294  1.00  0.00    -0.457 OA
ATOM     14  O   UNL     1     151.825 144.921 170.244  1.00  0.00    -0.246 OA
ATOM     15  C   UNL     1     151.244 145.472 164.292  1.00  0.00     0.049 C 
ATOM     16  O   UNL     1     149.041 145.033 169.386  1.00  0.00    -0.872 OA
BRANCH   6  17
ATOM     17  O   UNL     1     148.501 145.475 164.598  1.00  0.00    -0.496 OA
ATOM     18  C   UNL     1     147.752 144.392 164.106  1.00  0.00     0.278 C 
ENDBRANCH   6  17
ENDBRANCH   4   5
ENDBRANCH   1   4
BRANCH   2  19
ATOM     19  C   UNL     1     144.833 148.233 167.042  1.00  0.00     0.036 C 
BRANCH  19  20
ATOM     20  C   UNL     1     145.754 149.271 167.606  1.00  0.00     0.057 C 
BRANCH  20  21
ATOM     21  C   UNL     1     145.539 149.624 169.013  1.00  0.00     0.042 C 
ATOM     22  O   UNL     1     144.588 149.137 169.673  1.00  0.00    -0.550 OA
ATOM     23  O   UNL     1     146.419 150.527 169.636  1.00  0.00    -0.550 OA
ENDBRANCH  20  21
ENDBRANCH  19  20
ENDBRANCH   2  19
TORSDOF 6
ENDMDL
