MODEL 1
REMARK VINA RESULT:      -7.1      0.000      0.000
REMARK SMILES Clc1ccc(COC(Cn2ccnc2)c2ccc(Cl)cc2Cl)c(Cl)c1
REMARK SMILES IDX 7 1 6 2 5 3 2 4 3 5 25 6 4 7 23 8 1 9 24 10 8 11 9 12 10 13
REMARK SMILES IDX 11 14 14 15 12 16 13 17 15 18 16 19 21 20 17 21 20 22 18 23
REMARK SMILES IDX 22 24 19 25
REMARK H PARENT
ROOT
ATOM      1  O   UNL     1      27.753   7.091-120.026  1.00  0.00    -0.367 OA
ENDROOT
BRANCH   1   2
ATOM      2  C   UNL     1      29.030   6.917-119.653  1.00  0.00     0.198 C 
BRANCH   2   3
ATOM      3  C   UNL     1      29.789   5.966-120.495  1.00  0.00    -0.004 A 
ATOM      4  C   UNL     1      31.481   4.187-121.919  1.00  0.00     0.042 A 
ATOM      5  C   UNL     1      31.572   4.344-120.547  1.00  0.00     0.021 A 
ATOM      6  C   UNL     1      30.525   4.940-122.556  1.00  0.00     0.041 A 
ATOM      7  C   UNL     1      30.764   5.199-119.837  1.00  0.00     0.009 A 
ATOM      8  C   UNL     1      29.692   5.816-121.844  1.00  0.00     0.048 A 
ATOM      9  Cl  UNL     1      32.534   3.092-122.804  1.00  0.00    -0.084 Cl
ATOM     10  Cl  UNL     1      28.419   6.680-122.702  1.00  0.00    -0.084 Cl
ENDBRANCH   2   3
ENDBRANCH   1   2
BRANCH   1  11
ATOM     11  C   UNL     1      26.690   7.269-119.266  1.00  0.00     0.170 C 
BRANCH  11  12
ATOM     12  C   UNL     1      26.909   6.451-117.969  1.00  0.00     0.160 C 
BRANCH  12  13
ATOM     13  N   UNL     1      25.895   5.446-117.891  1.00  0.00    -0.335 N 
ATOM     14  C   UNL     1      25.209   5.051-116.807  1.00  0.00     0.107 A 
ATOM     15  C   UNL     1      25.480   4.727-118.954  1.00  0.00     0.199 A 
ATOM     16  C   UNL     1      24.355   4.061-117.246  1.00  0.00     0.130 A 
ATOM     17  N   UNL     1      24.541   3.880-118.563  1.00  0.00    -0.245 NA
ENDBRANCH  12  13
ENDBRANCH  11  12
BRANCH  11  18
ATOM     18  C   UNL     1      26.500   8.717-118.854  1.00  0.00     0.001 A 
ATOM     19  C   UNL     1      27.569   9.521-118.538  1.00  0.00     0.009 A 
ATOM     20  C   UNL     1      25.237   9.248-118.788  1.00  0.00     0.048 A 
ATOM     21  C   UNL     1      27.356  10.853-118.157  1.00  0.00     0.021 A 
ATOM     22  C   UNL     1      25.014  10.571-118.411  1.00  0.00     0.041 A 
ATOM     23  C   UNL     1      26.088  11.381-118.093  1.00  0.00     0.042 A 
ATOM     24  Cl  UNL     1      23.886   8.207-119.194  1.00  0.00    -0.084 Cl
ATOM     25  Cl  UNL     1      25.817  13.049-117.612  1.00  0.00    -0.084 Cl
ENDBRANCH  11  18
ENDBRANCH   1  11
TORSDOF 6
ENDMDL
MODEL 2
REMARK VINA RESULT:      -6.9      2.558      6.747
REMARK SMILES Clc1ccc(COC(Cn2ccnc2)c2ccc(Cl)cc2Cl)c(Cl)c1
REMARK SMILES IDX 7 1 6 2 5 3 2 4 3 5 25 6 4 7 23 8 1 9 24 10 8 11 9 12 10 13
REMARK SMILES IDX 11 14 14 15 12 16 13 17 15 18 16 19 21 20 17 21 20 22 18 23
REMARK SMILES IDX 22 24 19 25
REMARK H PARENT
ROOT
ATOM      1  O   UNL     1      28.630   8.616-120.503  1.00  0.00    -0.367 OA
ENDROOT
BRANCH   1   2
ATOM      2  C   UNL     1      28.915   9.446-119.488  1.00  0.00     0.198 C 
BRANCH   2   3
ATOM      3  C   UNL     1      27.765  10.243-119.008  1.00  0.00    -0.004 A 
ATOM      4  C   UNL     1      25.536  11.882-118.373  1.00  0.00     0.042 A 
ATOM      5  C   UNL     1      25.689  11.305-119.622  1.00  0.00     0.021 A 
ATOM      6  C   UNL     1      26.524  11.618-117.455  1.00  0.00     0.041 A 
ATOM      7  C   UNL     1      26.759  10.508-119.951  1.00  0.00     0.009 A 
ATOM      8  C   UNL     1      27.621  10.806-117.777  1.00  0.00     0.048 A 
ATOM      9  Cl  UNL     1      24.160  12.904-117.981  1.00  0.00    -0.084 Cl
ATOM     10  Cl  UNL     1      28.803  10.423-116.528  1.00  0.00    -0.084 Cl
ENDBRANCH   2   3
ENDBRANCH   1   2
BRANCH   1  11
ATOM     11  C   UNL     1      28.777   7.307-120.564  1.00  0.00     0.170 C 
BRANCH  11  12
ATOM     12  C   UNL     1      30.138   6.966-119.907  1.00  0.00     0.160 C 
BRANCH  12  13
ATOM     13  N   UNL     1      30.648   5.777-120.516  1.00  0.00    -0.335 N 
ATOM     14  C   UNL     1      31.007   4.633-119.913  1.00  0.00     0.107 A 
ATOM     15  C   UNL     1      30.846   5.650-121.844  1.00  0.00     0.199 A 
ATOM     16  C   UNL     1      31.434   3.796-120.923  1.00  0.00     0.130 A 
ATOM     17  N   UNL     1      31.326   4.442-122.095  1.00  0.00    -0.245 NA
ENDBRANCH  12  13
ENDBRANCH  11  12
BRANCH  11  18
ATOM     18  C   UNL     1      27.707   6.561-119.787  1.00  0.00     0.001 A 
ATOM     19  C   UNL     1      27.420   6.870-118.479  1.00  0.00     0.009 A 
ATOM     20  C   UNL     1      27.006   5.548-120.391  1.00  0.00     0.048 A 
ATOM     21  C   UNL     1      26.430   6.156-117.791  1.00  0.00     0.021 A 
ATOM     22  C   UNL     1      26.018   4.833-119.717  1.00  0.00     0.041 A 
ATOM     23  C   UNL     1      25.728   5.143-118.401  1.00  0.00     0.042 A 
ATOM     24  Cl  UNL     1      27.387   5.167-122.060  1.00  0.00    -0.084 Cl
ATOM     25  Cl  UNL     1      24.489   4.244-117.541  1.00  0.00    -0.084 Cl
ENDBRANCH  11  18
ENDBRANCH   1  11
TORSDOF 6
ENDMDL
MODEL 3
REMARK VINA RESULT:      -6.7      1.763      2.131
REMARK SMILES Clc1ccc(COC(Cn2ccnc2)c2ccc(Cl)cc2Cl)c(Cl)c1
REMARK SMILES IDX 7 1 6 2 5 3 2 4 3 5 25 6 4 7 23 8 1 9 24 10 8 11 9 12 10 13
REMARK SMILES IDX 11 14 14 15 12 16 13 17 15 18 16 19 21 20 17 21 20 22 18 23
REMARK SMILES IDX 22 24 19 25
REMARK H PARENT
ROOT
ATOM      1  O   UNL     1      27.181   8.098-118.005  1.00  0.00    -0.367 OA
ENDROOT
BRANCH   1   2
ATOM      2  C   UNL     1      28.442   8.102-118.465  1.00  0.00     0.198 C 
BRANCH   2   3
ATOM      3  C   UNL     1      28.640   7.326-119.709  1.00  0.00    -0.004 A 
ATOM      4  C   UNL     1      29.155   5.622-121.921  1.00  0.00     0.042 A 
ATOM      5  C   UNL     1      28.877   5.123-120.660  1.00  0.00     0.021 A 
ATOM      6  C   UNL     1      29.168   6.990-122.044  1.00  0.00     0.041 A 
ATOM      7  C   UNL     1      28.625   5.928-119.576  1.00  0.00     0.009 A 
ATOM      8  C   UNL     1      28.911   7.825-120.946  1.00  0.00     0.048 A 
ATOM      9  Cl  UNL     1      29.481   4.568-123.289  1.00  0.00    -0.084 Cl
ATOM     10  Cl  UNL     1      28.843   9.568-121.189  1.00  0.00    -0.084 Cl
ENDBRANCH   2   3
ENDBRANCH   1   2
BRANCH   1  11
ATOM     11  C   UNL     1      26.135   8.755-118.464  1.00  0.00     0.170 C 
BRANCH  11  12
ATOM     12  C   UNL     1      24.896   8.253-117.682  1.00  0.00     0.160 C 
BRANCH  12  13
ATOM     13  N   UNL     1      24.870   6.825-117.743  1.00  0.00    -0.335 N 
ATOM     14  C   UNL     1      24.849   5.957-116.718  1.00  0.00     0.107 A 
ATOM     15  C   UNL     1      24.868   6.132-118.900  1.00  0.00     0.199 A 
ATOM     16  C   UNL     1      24.833   4.703-117.292  1.00  0.00     0.130 A 
ATOM     17  N   UNL     1      24.846   4.836-118.628  1.00  0.00    -0.245 NA
ENDBRANCH  12  13
ENDBRANCH  11  12
BRANCH  11  18
ATOM     18  C   UNL     1      26.234  10.252-118.230  1.00  0.00     0.001 A 
ATOM     19  C   UNL     1      27.158  10.785-117.364  1.00  0.00     0.009 A 
ATOM     20  C   UNL     1      25.384  11.103-118.889  1.00  0.00     0.048 A 
ATOM     21  C   UNL     1      27.217  12.172-117.168  1.00  0.00     0.021 A 
ATOM     22  C   UNL     1      25.435  12.483-118.704  1.00  0.00     0.041 A 
ATOM     23  C   UNL     1      26.364  13.021-117.833  1.00  0.00     0.042 A 
ATOM     24  Cl  UNL     1      24.210  10.404-119.990  1.00  0.00    -0.084 Cl
ATOM     25  Cl  UNL     1      26.434  14.759-117.588  1.00  0.00    -0.084 Cl
ENDBRANCH  11  18
ENDBRANCH   1  11
TORSDOF 6
ENDMDL
MODEL 4
REMARK VINA RESULT:      -6.5      2.344      7.028
REMARK SMILES Clc1ccc(COC(Cn2ccnc2)c2ccc(Cl)cc2Cl)c(Cl)c1
REMARK SMILES IDX 7 1 6 2 5 3 2 4 3 5 25 6 4 7 23 8 1 9 24 10 8 11 9 12 10 13
REMARK SMILES IDX 11 14 14 15 12 16 13 17 15 18 16 19 21 20 17 21 20 22 18 23
REMARK SMILES IDX 22 24 19 25
REMARK H PARENT
ROOT
ATOM      1  O   UNL     1      27.187   8.382-118.733  1.00  0.00    -0.367 OA
ENDROOT
BRANCH   1   2
ATOM      2  C   UNL     1      26.053   9.092-118.845  1.00  0.00     0.198 C 
BRANCH   2   3
ATOM      3  C   UNL     1      26.220  10.548-118.643  1.00  0.00    -0.004 A 
ATOM      4  C   UNL     1      26.645  13.273-117.974  1.00  0.00     0.042 A 
ATOM      5  C   UNL     1      27.451  12.264-117.479  1.00  0.00     0.021 A 
ATOM      6  C   UNL     1      25.625  12.885-118.808  1.00  0.00     0.041 A 
ATOM      7  C   UNL     1      27.265  10.938-117.789  1.00  0.00     0.009 A 
ATOM      8  C   UNL     1      25.423  11.535-119.135  1.00  0.00     0.048 A 
ATOM      9  Cl  UNL     1      26.902  14.961-117.554  1.00  0.00    -0.084 Cl
ATOM     10  Cl  UNL     1      24.162  11.109-120.288  1.00  0.00    -0.084 Cl
ENDBRANCH   2   3
ENDBRANCH   1   2
BRANCH   1  11
ATOM     11  C   UNL     1      27.470   7.198-119.239  1.00  0.00     0.170 C 
BRANCH  11  12
ATOM     12  C   UNL     1      28.884   6.810-118.737  1.00  0.00     0.160 C 
BRANCH  12  13
ATOM     13  N   UNL     1      29.667   6.404-119.862  1.00  0.00    -0.335 N 
ATOM     14  C   UNL     1      30.399   5.286-119.995  1.00  0.00     0.107 A 
ATOM     15  C   UNL     1      29.777   7.133-120.991  1.00  0.00     0.199 A 
ATOM     16  C   UNL     1      30.964   5.357-121.251  1.00  0.00     0.130 A 
ATOM     17  N   UNL     1      30.569   6.497-121.841  1.00  0.00    -0.245 NA
ENDBRANCH  12  13
ENDBRANCH  11  12
BRANCH  11  18
ATOM     18  C   UNL     1      26.516   6.116-118.767  1.00  0.00     0.001 A 
ATOM     19  C   UNL     1      25.930   6.166-117.525  1.00  0.00     0.009 A 
ATOM     20  C   UNL     1      26.227   5.056-119.588  1.00  0.00     0.048 A 
ATOM     21  C   UNL     1      25.058   5.145-117.120  1.00  0.00     0.021 A 
ATOM     22  C   UNL     1      25.361   4.037-119.196  1.00  0.00     0.041 A 
ATOM     23  C   UNL     1      24.770   4.085-117.948  1.00  0.00     0.042 A 
ATOM     24  Cl  UNL     1      26.986   5.009-121.168  1.00  0.00    -0.084 Cl
ATOM     25  Cl  UNL     1      23.680   2.804-117.442  1.00  0.00    -0.084 Cl
ENDBRANCH  11  18
ENDBRANCH   1  11
TORSDOF 6
ENDMDL
MODEL 5
REMARK VINA RESULT:      -6.3      2.656      6.365
REMARK SMILES Clc1ccc(COC(Cn2ccnc2)c2ccc(Cl)cc2Cl)c(Cl)c1
REMARK SMILES IDX 7 1 6 2 5 3 2 4 3 5 25 6 4 7 23 8 1 9 24 10 8 11 9 12 10 13
REMARK SMILES IDX 11 14 14 15 12 16 13 17 15 18 16 19 21 20 17 21 20 22 18 23
REMARK SMILES IDX 22 24 19 25
REMARK H PARENT
ROOT
ATOM      1  O   UNL     1      29.624   7.945-120.454  1.00  0.00    -0.367 OA
ENDROOT
BRANCH   1   2
ATOM      2  C   UNL     1      29.772   8.782-119.415  1.00  0.00     0.198 C 
BRANCH   2   3
ATOM      3  C   UNL     1      28.604   9.654-119.161  1.00  0.00    -0.004 A 
ATOM      4  C   UNL     1      26.422  11.456-118.947  1.00  0.00     0.042 A 
ATOM      5  C   UNL     1      26.832  10.944-120.165  1.00  0.00     0.021 A 
ATOM      6  C   UNL     1      27.130  11.045-117.844  1.00  0.00     0.041 A 
ATOM      7  C   UNL     1      27.885  10.070-120.293  1.00  0.00     0.009 A 
ATOM      8  C   UNL     1      28.206  10.153-117.958  1.00  0.00     0.048 A 
ATOM      9  Cl  UNL     1      25.075  12.579-118.815  1.00  0.00    -0.084 Cl
ATOM     10  Cl  UNL     1      29.011   9.585-116.499  1.00  0.00    -0.084 Cl
ENDBRANCH   2   3
ENDBRANCH   1   2
BRANCH   1  11
ATOM     11  C   UNL     1      29.269   6.676-120.445  1.00  0.00     0.170 C 
BRANCH  11  12
ATOM     12  C   UNL     1      30.449   5.873-119.842  1.00  0.00     0.160 C 
BRANCH  12  13
ATOM     13  N   UNL     1      30.875   4.904-120.804  1.00  0.00    -0.335 N 
ATOM     14  C   UNL     1      30.702   4.933-122.134  1.00  0.00     0.107 A 
ATOM     15  C   UNL     1      31.539   3.776-120.476  1.00  0.00     0.199 A 
ATOM     16  C   UNL     1      31.285   3.778-122.612  1.00  0.00     0.130 A 
ATOM     17  N   UNL     1      31.790   3.087-121.578  1.00  0.00    -0.245 NA
ENDBRANCH  12  13
ENDBRANCH  11  12
BRANCH  11  18
ATOM     18  C   UNL     1      28.056   6.412-119.572  1.00  0.00     0.001 A 
ATOM     19  C   UNL     1      28.085   6.635-118.216  1.00  0.00     0.009 A 
ATOM     20  C   UNL     1      26.900   5.935-120.135  1.00  0.00     0.048 A 
ATOM     21  C   UNL     1      26.947   6.375-117.439  1.00  0.00     0.021 A 
ATOM     22  C   UNL     1      25.763   5.675-119.373  1.00  0.00     0.041 A 
ATOM     23  C   UNL     1      25.789   5.898-118.009  1.00  0.00     0.042 A 
ATOM     24  Cl  UNL     1      26.884   5.656-121.867  1.00  0.00    -0.084 Cl
ATOM     25  Cl  UNL     1      24.363   5.569-117.038  1.00  0.00    -0.084 Cl
ENDBRANCH  11  18
ENDBRANCH   1  11
TORSDOF 6
ENDMDL
MODEL 6
REMARK VINA RESULT:      -6.2      2.749      5.134
REMARK SMILES Clc1ccc(COC(Cn2ccnc2)c2ccc(Cl)cc2Cl)c(Cl)c1
REMARK SMILES IDX 7 1 6 2 5 3 2 4 3 5 25 6 4 7 23 8 1 9 24 10 8 11 9 12 10 13
REMARK SMILES IDX 11 14 14 15 12 16 13 17 15 18 16 19 21 20 17 21 20 22 18 23
REMARK SMILES IDX 22 24 19 25
REMARK H PARENT
ROOT
ATOM      1  O   UNL     1      26.610   8.996-119.190  1.00  0.00    -0.367 OA
ENDROOT
BRANCH   1   2
ATOM      2  C   UNL     1      27.924   9.019-119.459  1.00  0.00     0.198 C 
BRANCH   2   3
ATOM      3  C   UNL     1      28.407   7.866-120.251  1.00  0.00    -0.004 A 
ATOM      4  C   UNL     1      29.153   5.756-121.996  1.00  0.00     0.042 A 
ATOM      5  C   UNL     1      28.850   7.022-122.465  1.00  0.00     0.021 A 
ATOM      6  C   UNL     1      29.074   5.574-120.637  1.00  0.00     0.041 A 
ATOM      7  C   UNL     1      28.486   8.058-121.639  1.00  0.00     0.009 A 
ATOM      8  C   UNL     1      28.705   6.624-119.781  1.00  0.00     0.048 A 
ATOM      9  Cl  UNL     1      29.608   4.446-123.077  1.00  0.00    -0.084 Cl
ATOM     10  Cl  UNL     1      28.718   6.357-118.040  1.00  0.00    -0.084 Cl
ENDBRANCH   2   3
ENDBRANCH   1   2
BRANCH   1  11
ATOM     11  C   UNL     1      26.010   8.786-118.035  1.00  0.00     0.170 C 
BRANCH  11  12
ATOM     12  C   UNL     1      24.864   9.822-117.918  1.00  0.00     0.160 C 
BRANCH  12  13
ATOM     13  N   UNL     1      25.429  11.133-117.998  1.00  0.00    -0.335 N 
ATOM     14  C   UNL     1      26.167  11.769-117.075  1.00  0.00     0.107 A 
ATOM     15  C   UNL     1      25.280  11.940-119.069  1.00  0.00     0.199 A 
ATOM     16  C   UNL     1      26.467  13.000-117.621  1.00  0.00     0.130 A 
ATOM     17  N   UNL     1      25.913  13.081-118.841  1.00  0.00    -0.245 NA
ENDBRANCH  12  13
ENDBRANCH  11  12
BRANCH  11  18
ATOM     18  C   UNL     1      25.377   7.409-117.945  1.00  0.00     0.001 A 
ATOM     19  C   UNL     1      25.845   6.459-117.069  1.00  0.00     0.009 A 
ATOM     20  C   UNL     1      24.317   7.090-118.755  1.00  0.00     0.048 A 
ATOM     21  C   UNL     1      25.240   5.196-117.016  1.00  0.00     0.021 A 
ATOM     22  C   UNL     1      23.707   5.838-118.710  1.00  0.00     0.041 A 
ATOM     23  C   UNL     1      24.176   4.882-117.829  1.00  0.00     0.042 A 
ATOM     24  Cl  UNL     1      23.736   8.315-119.868  1.00  0.00    -0.084 Cl
ATOM     25  Cl  UNL     1      23.418   3.298-117.768  1.00  0.00    -0.084 Cl
ENDBRANCH  11  18
ENDBRANCH   1  11
TORSDOF 6
ENDMDL
MODEL 7
REMARK VINA RESULT:      -6.1      1.946      2.562
REMARK SMILES Clc1ccc(COC(Cn2ccnc2)c2ccc(Cl)cc2Cl)c(Cl)c1
REMARK SMILES IDX 7 1 6 2 5 3 2 4 3 5 25 6 4 7 23 8 1 9 24 10 8 11 9 12 10 13
REMARK SMILES IDX 11 14 14 15 12 16 13 17 15 18 16 19 21 20 17 21 20 22 18 23
REMARK SMILES IDX 22 24 19 25
REMARK H PARENT
ROOT
ATOM      1  O   UNL     1      28.984   8.288-119.414  1.00  0.00    -0.367 OA
ENDROOT
BRANCH   1   2
ATOM      2  C   UNL     1      29.911   7.458-119.915  1.00  0.00     0.198 C 
BRANCH   2   3
ATOM      3  C   UNL     1      29.360   6.294-120.644  1.00  0.00    -0.004 A 
ATOM      4  C   UNL     1      28.030   4.204-122.028  1.00  0.00     0.042 A 
ATOM      5  C   UNL     1      27.638   5.526-122.147  1.00  0.00     0.021 A 
ATOM      6  C   UNL     1      29.100   3.957-121.203  1.00  0.00     0.041 A 
ATOM      7  C   UNL     1      28.267   6.554-121.486  1.00  0.00     0.009 A 
ATOM      8  C   UNL     1      29.752   4.997-120.524  1.00  0.00     0.048 A 
ATOM      9  Cl  UNL     1      27.202   2.907-122.879  1.00  0.00    -0.084 Cl
ATOM     10  Cl  UNL     1      31.179   4.631-119.559  1.00  0.00    -0.084 Cl
ENDBRANCH   2   3
ENDBRANCH   1   2
BRANCH   1  11
ATOM     11  C   UNL     1      27.739   8.022-119.069  1.00  0.00     0.170 C 
BRANCH  11  12
ATOM     12  C   UNL     1      27.783   7.334-117.682  1.00  0.00     0.160 C 
BRANCH  12  13
ATOM     13  N   UNL     1      26.731   6.366-117.624  1.00  0.00    -0.335 N 
ATOM     14  C   UNL     1      26.072   5.932-116.539  1.00  0.00     0.107 A 
ATOM     15  C   UNL     1      26.246   5.733-118.712  1.00  0.00     0.199 A 
ATOM     16  C   UNL     1      25.161   5.005-117.002  1.00  0.00     0.130 A 
ATOM     17  N   UNL     1      25.287   4.901-118.334  1.00  0.00    -0.245 NA
ENDBRANCH  12  13
ENDBRANCH  11  12
BRANCH  11  18
ATOM     18  C   UNL     1      26.892   9.273-118.920  1.00  0.00     0.001 A 
ATOM     19  C   UNL     1      25.953   9.391-117.923  1.00  0.00     0.009 A 
ATOM     20  C   UNL     1      27.054  10.315-119.797  1.00  0.00     0.048 A 
ATOM     21  C   UNL     1      25.185  10.559-117.819  1.00  0.00     0.021 A 
ATOM     22  C   UNL     1      26.297  11.481-119.701  1.00  0.00     0.041 A 
ATOM     23  C   UNL     1      25.352  11.602-118.700  1.00  0.00     0.042 A 
ATOM     24  Cl  UNL     1      28.256  10.145-121.063  1.00  0.00    -0.084 Cl
ATOM     25  Cl  UNL     1      24.389  13.066-118.573  1.00  0.00    -0.084 Cl
ENDBRANCH  11  18
ENDBRANCH   1  11
TORSDOF 6
ENDMDL
MODEL 8
REMARK VINA RESULT:      -6.0      1.578      1.814
REMARK SMILES Clc1ccc(COC(Cn2ccnc2)c2ccc(Cl)cc2Cl)c(Cl)c1
REMARK SMILES IDX 7 1 6 2 5 3 2 4 3 5 25 6 4 7 23 8 1 9 24 10 8 11 9 12 10 13
REMARK SMILES IDX 11 14 14 15 12 16 13 17 15 18 16 19 21 20 17 21 20 22 18 23
REMARK SMILES IDX 22 24 19 25
REMARK H PARENT
ROOT
ATOM      1  O   UNL     1      27.902   8.067-119.765  1.00  0.00    -0.367 OA
ENDROOT
BRANCH   1   2
ATOM      2  C   UNL     1      28.964   7.266-119.587  1.00  0.00     0.198 C 
BRANCH   2   3
ATOM      3  C   UNL     1      29.135   6.235-120.634  1.00  0.00    -0.004 A 
ATOM      4  C   UNL     1      29.643   4.108-122.443  1.00  0.00     0.042 A 
ATOM      5  C   UNL     1      29.583   3.907-121.075  1.00  0.00     0.021 A 
ATOM      6  C   UNL     1      29.442   5.395-122.879  1.00  0.00     0.041 A 
ATOM      7  C   UNL     1      29.339   4.922-120.181  1.00  0.00     0.009 A 
ATOM      8  C   UNL     1      29.190   6.440-121.978  1.00  0.00     0.048 A 
ATOM      9  Cl  UNL     1      29.965   2.793-123.564  1.00  0.00    -0.084 Cl
ATOM     10  Cl  UNL     1      28.841   8.049-122.603  1.00  0.00    -0.084 Cl
ENDBRANCH   2   3
ENDBRANCH   1   2
BRANCH   1  11
ATOM     11  C   UNL     1      27.047   8.513-118.865  1.00  0.00     0.170 C 
BRANCH  11  12
ATOM     12  C   UNL     1      27.248   7.670-117.581  1.00  0.00     0.160 C 
BRANCH  12  13
ATOM     13  N   UNL     1      26.182   6.722-117.491  1.00  0.00    -0.335 N 
ATOM     14  C   UNL     1      25.143   6.569-118.326  1.00  0.00     0.107 A 
ATOM     15  C   UNL     1      26.081   5.813-116.499  1.00  0.00     0.199 A 
ATOM     16  C   UNL     1      24.397   5.531-117.809  1.00  0.00     0.130 A 
ATOM     17  N   UNL     1      24.991   5.085-116.691  1.00  0.00    -0.245 NA
ENDBRANCH  12  13
ENDBRANCH  11  12
BRANCH  11  18
ATOM     18  C   UNL     1      27.294   9.963-118.491  1.00  0.00     0.001 A 
ATOM     19  C   UNL     1      28.404  10.342-117.773  1.00  0.00     0.009 A 
ATOM     20  C   UNL     1      26.395  10.928-118.867  1.00  0.00     0.048 A 
ATOM     21  C   UNL     1      28.597  11.690-117.441  1.00  0.00     0.021 A 
ATOM     22  C   UNL     1      26.578  12.271-118.543  1.00  0.00     0.041 A 
ATOM     23  C   UNL     1      27.693  12.654-117.822  1.00  0.00     0.042 A 
ATOM     24  Cl  UNL     1      24.985  10.425-119.781  1.00  0.00    -0.084 Cl
ATOM     25  Cl  UNL     1      27.930  14.343-117.404  1.00  0.00    -0.084 Cl
ENDBRANCH  11  18
ENDBRANCH   1  11
TORSDOF 6
ENDMDL
MODEL 9
REMARK VINA RESULT:      -5.7      2.850      6.627
REMARK SMILES Clc1ccc(COC(Cn2ccnc2)c2ccc(Cl)cc2Cl)c(Cl)c1
REMARK SMILES IDX 7 1 6 2 5 3 2 4 3 5 25 6 4 7 23 8 1 9 24 10 8 11 9 12 10 13
REMARK SMILES IDX 11 14 14 15 12 16 13 17 15 18 16 19 21 20 17 21 20 22 18 23
REMARK SMILES IDX 22 24 19 25
REMARK H PARENT
ROOT
ATOM      1  O   UNL     1      29.181   6.883-120.683  1.00  0.00    -0.367 OA
ENDROOT
BRANCH   1   2
ATOM      2  C   UNL     1      28.438   7.953-121.004  1.00  0.00     0.198 C 
BRANCH   2   3
ATOM      3  C   UNL     1      28.125   8.845-119.866  1.00  0.00    -0.004 A 
ATOM      4  C   UNL     1      27.237  10.560-117.786  1.00  0.00     0.042 A 
ATOM      5  C   UNL     1      26.415   9.595-118.341  1.00  0.00     0.021 A 
ATOM      6  C   UNL     1      28.510  10.643-118.297  1.00  0.00     0.041 A 
ATOM      7  C   UNL     1      26.824   8.754-119.348  1.00  0.00     0.009 A 
ATOM      8  C   UNL     1      28.941   9.790-119.324  1.00  0.00     0.048 A 
ATOM      9  Cl  UNL     1      26.686  11.628-116.503  1.00  0.00    -0.084 Cl
ATOM     10  Cl  UNL     1      30.613   9.878-119.869  1.00  0.00    -0.084 Cl
ENDBRANCH   2   3
ENDBRANCH   1   2
BRANCH   1  11
ATOM     11  C   UNL     1      28.892   5.605-120.832  1.00  0.00     0.170 C 
BRANCH  11  12
ATOM     12  C   UNL     1      30.092   4.794-120.281  1.00  0.00     0.160 C 
BRANCH  12  13
ATOM     13  N   UNL     1      30.849   4.299-121.389  1.00  0.00    -0.335 N 
ATOM     14  C   UNL     1      30.395   3.925-122.595  1.00  0.00     0.107 A 
ATOM     15  C   UNL     1      32.188   4.136-121.357  1.00  0.00     0.199 A 
ATOM     16  C   UNL     1      31.507   3.523-123.305  1.00  0.00     0.130 A 
ATOM     17  N   UNL     1      32.592   3.661-122.526  1.00  0.00    -0.245 NA
ENDBRANCH  12  13
ENDBRANCH  11  12
BRANCH  11  18
ATOM     18  C   UNL     1      27.668   5.185-120.038  1.00  0.00     0.001 A 
ATOM     19  C   UNL     1      27.333   5.797-118.854  1.00  0.00     0.009 A 
ATOM     20  C   UNL     1      26.871   4.168-120.500  1.00  0.00     0.048 A 
ATOM     21  C   UNL     1      26.198   5.379-118.146  1.00  0.00     0.021 A 
ATOM     22  C   UNL     1      25.740   3.745-119.805  1.00  0.00     0.041 A 
ATOM     23  C   UNL     1      25.401   4.360-118.614  1.00  0.00     0.042 A 
ATOM     24  Cl  UNL     1      27.316   3.398-122.012  1.00  0.00    -0.084 Cl
ATOM     25  Cl  UNL     1      23.980   3.832-117.726  1.00  0.00    -0.084 Cl
ENDBRANCH  11  18
ENDBRANCH   1  11
TORSDOF 6
ENDMDL
