MODEL 1
REMARK VINA RESULT:      -4.0      0.000      0.000
REMARK SMILES Clc1ccccc1C(c1ccccc1)(c1ccccc1)n1ccnc1
REMARK SMILES IDX 1 1 2 2 3 3 4 4 5 5 6 6 7 7 8 8 9 9 10 10 14 11 11 12 13 13
REMARK SMILES IDX 12 14 15 15 16 16 20 17 17 18 19 19 18 20 21 21 22 22 25 23
REMARK SMILES IDX 23 24 24 25
REMARK H PARENT
ROOT
ATOM      1  Cl  UNL     1      26.143   7.348-119.682  1.00  0.00    -0.084 Cl
ATOM      2  C   UNL     1      26.480   5.658-119.980  1.00  0.00     0.047 A 
ATOM      3  C   UNL     1      25.505   4.695-119.853  1.00  0.00     0.021 A 
ATOM      4  C   UNL     1      25.759   3.367-120.118  1.00  0.00     0.002 A 
ATOM      5  C   UNL     1      27.026   3.020-120.519  1.00  0.00     0.001 A 
ATOM      6  C   UNL     1      28.017   4.002-120.649  1.00  0.00     0.008 A 
ATOM      7  C   UNL     1      27.759   5.311-120.384  1.00  0.00     0.006 A 
ENDROOT
BRANCH   7   8
ATOM      8  C   UNL     1      28.835   6.332-120.504  1.00  0.00     0.123 C 
BRANCH   8   9
ATOM      9  C   UNL     1      30.145   5.624-120.437  1.00  0.00    -0.013 A 
ATOM     10  C   UNL     1      30.811   5.293-119.303  1.00  0.00     0.007 A 
ATOM     11  C   UNL     1      30.692   5.277-121.687  1.00  0.00     0.007 A 
ATOM     12  C   UNL     1      32.016   4.619-119.395  1.00  0.00     0.000 A 
ATOM     13  C   UNL     1      31.886   4.609-121.769  1.00  0.00     0.000 A 
ATOM     14  C   UNL     1      32.570   4.268-120.627  1.00  0.00     0.000 A 
ENDBRANCH   8   9
BRANCH   8  15
ATOM     15  C   UNL     1      28.857   7.235-119.322  1.00  0.00    -0.013 A 
ATOM     16  C   UNL     1      29.320   8.524-119.368  1.00  0.00     0.007 A 
ATOM     17  C   UNL     1      28.367   6.766-118.130  1.00  0.00     0.007 A 
ATOM     18  C   UNL     1      29.306   9.354-118.253  1.00  0.00     0.000 A 
ATOM     19  C   UNL     1      28.344   7.586-116.989  1.00  0.00     0.000 A 
ATOM     20  C   UNL     1      28.814   8.868-117.066  1.00  0.00     0.000 A 
ENDBRANCH   8  15
BRANCH   8  21
ATOM     21  N   UNL     1      28.652   7.104-121.697  1.00  0.00    -0.319 N 
ATOM     22  C   UNL     1      29.035   8.398-121.878  1.00  0.00     0.109 A 
ATOM     23  C   UNL     1      28.102   6.700-122.842  1.00  0.00     0.200 A 
ATOM     24  C   UNL     1      28.709   8.789-123.157  1.00  0.00     0.131 A 
ATOM     25  N   UNL     1      28.141   7.732-123.726  1.00  0.00    -0.245 NA
ENDBRANCH   8  21
ENDBRANCH   7   8
TORSDOF 4
ENDMDL
MODEL 2
REMARK VINA RESULT:      -3.7      1.032      4.399
REMARK SMILES Clc1ccccc1C(c1ccccc1)(c1ccccc1)n1ccnc1
REMARK SMILES IDX 1 1 2 2 3 3 4 4 5 5 6 6 7 7 8 8 9 9 10 10 14 11 11 12 13 13
REMARK SMILES IDX 12 14 15 15 16 16 20 17 17 18 19 19 18 20 21 21 22 22 25 23
REMARK SMILES IDX 23 24 24 25
REMARK H PARENT
ROOT
ATOM      1  Cl  UNL     1      30.785   8.658-120.304  1.00  0.00    -0.084 Cl
ATOM      2  C   UNL     1      29.549   8.381-119.097  1.00  0.00     0.047 A 
ATOM      3  C   UNL     1      29.437   9.180-117.983  1.00  0.00     0.021 A 
ATOM      4  C   UNL     1      28.445   8.986-117.047  1.00  0.00     0.002 A 
ATOM      5  C   UNL     1      27.556   7.960-117.254  1.00  0.00     0.001 A 
ATOM      6  C   UNL     1      27.670   7.147-118.389  1.00  0.00     0.008 A 
ATOM      7  C   UNL     1      28.653   7.345-119.309  1.00  0.00     0.006 A 
ENDROOT
BRANCH   7   8
ATOM      8  C   UNL     1      28.770   6.452-120.494  1.00  0.00     0.123 C 
BRANCH   8   9
ATOM      9  C   UNL     1      27.761   5.365-120.347  1.00  0.00    -0.013 A 
ATOM     10  C   UNL     1      26.545   5.486-119.759  1.00  0.00     0.007 A 
ATOM     11  C   UNL     1      28.144   4.126-120.896  1.00  0.00     0.007 A 
ATOM     12  C   UNL     1      25.702   4.389-119.710  1.00  0.00     0.000 A 
ATOM     13  C   UNL     1      27.303   3.045-120.844  1.00  0.00     0.000 A 
ATOM     14  C   UNL     1      26.069   3.156-120.250  1.00  0.00     0.000 A 
ENDBRANCH   8   9
BRANCH   8  15
ATOM     15  C   UNL     1      30.072   5.732-120.502  1.00  0.00    -0.013 A 
ATOM     16  C   UNL     1      30.685   5.273-119.366  1.00  0.00     0.007 A 
ATOM     17  C   UNL     1      30.680   5.492-121.708  1.00  0.00     0.007 A 
ATOM     18  C   UNL     1      31.891   4.582-119.406  1.00  0.00     0.000 A 
ATOM     19  C   UNL     1      31.899   4.796-121.772  1.00  0.00     0.000 A 
ATOM     20  C   UNL     1      32.488   4.351-120.622  1.00  0.00     0.000 A 
ENDBRANCH   8  15
BRANCH   8  21
ATOM     21  N   UNL     1      28.633   7.213-121.700  1.00  0.00    -0.319 N 
ATOM     22  C   UNL     1      28.904   8.540-121.842  1.00  0.00     0.109 A 
ATOM     23  C   UNL     1      28.243   6.768-122.894  1.00  0.00     0.200 A 
ATOM     24  C   UNL     1      28.672   8.909-123.148  1.00  0.00     0.131 A 
ATOM     25  N   UNL     1      28.269   7.807-123.770  1.00  0.00    -0.245 NA
ENDBRANCH   8  21
ENDBRANCH   7   8
TORSDOF 4
ENDMDL
MODEL 3
REMARK VINA RESULT:      -3.7      1.204      4.401
REMARK SMILES Clc1ccccc1C(c1ccccc1)(c1ccccc1)n1ccnc1
REMARK SMILES IDX 1 1 2 2 3 3 4 4 5 5 6 6 7 7 8 8 9 9 10 10 14 11 11 12 13 13
REMARK SMILES IDX 12 14 15 15 16 16 20 17 17 18 19 19 18 20 21 21 22 22 25 23
REMARK SMILES IDX 23 24 24 25
REMARK H PARENT
ROOT
ATOM      1  Cl  UNL     1      28.783   4.183-122.543  1.00  0.00    -0.084 Cl
ATOM      2  C   UNL     1      29.957   4.380-121.261  1.00  0.00     0.047 A 
ATOM      3  C   UNL     1      31.090   3.601-121.195  1.00  0.00     0.021 A 
ATOM      4  C   UNL     1      32.033   3.775-120.206  1.00  0.00     0.002 A 
ATOM      5  C   UNL     1      31.813   4.758-119.272  1.00  0.00     0.001 A 
ATOM      6  C   UNL     1      30.660   5.550-119.340  1.00  0.00     0.008 A 
ATOM      7  C   UNL     1      29.732   5.371-120.320  1.00  0.00     0.006 A 
ENDROOT
BRANCH   7   8
ATOM      8  C   UNL     1      28.502   6.208-120.357  1.00  0.00     0.123 C 
BRANCH   8   9
ATOM      9  C   UNL     1      28.569   7.167-119.218  1.00  0.00    -0.013 A 
ATOM     10  C   UNL     1      28.989   8.455-119.289  1.00  0.00     0.007 A 
ATOM     11  C   UNL     1      28.133   6.649-117.984  1.00  0.00     0.007 A 
ATOM     12  C   UNL     1      28.981   9.236-118.147  1.00  0.00     0.000 A 
ATOM     13  C   UNL     1      28.127   7.430-116.857  1.00  0.00     0.000 A 
ATOM     14  C   UNL     1      28.551   8.735-116.918  1.00  0.00     0.000 A 
ENDBRANCH   8   9
BRANCH   8  15
ATOM     15  C   UNL     1      27.289   5.397-120.070  1.00  0.00    -0.013 A 
ATOM     16  C   UNL     1      27.256   4.030-120.163  1.00  0.00     0.007 A 
ATOM     17  C   UNL     1      26.148   6.045-119.668  1.00  0.00     0.007 A 
ATOM     18  C   UNL     1      26.114   3.297-119.867  1.00  0.00     0.000 A 
ATOM     19  C   UNL     1      24.981   5.324-119.363  1.00  0.00     0.000 A 
ATOM     20  C   UNL     1      24.980   3.961-119.466  1.00  0.00     0.000 A 
ENDBRANCH   8  15
BRANCH   8  21
ATOM     21  N   UNL     1      28.371   6.836-121.638  1.00  0.00    -0.319 N 
ATOM     22  C   UNL     1      29.175   7.818-122.132  1.00  0.00     0.109 A 
ATOM     23  C   UNL     1      27.467   6.565-122.580  1.00  0.00     0.200 A 
ATOM     24  C   UNL     1      28.749   8.151-123.399  1.00  0.00     0.131 A 
ATOM     25  N   UNL     1      27.704   7.371-123.648  1.00  0.00    -0.245 NA
ENDBRANCH   8  21
ENDBRANCH   7   8
TORSDOF 4
ENDMDL
MODEL 4
REMARK VINA RESULT:      -3.6      1.192      4.157
REMARK SMILES Clc1ccccc1C(c1ccccc1)(c1ccccc1)n1ccnc1
REMARK SMILES IDX 1 1 2 2 3 3 4 4 5 5 6 6 7 7 8 8 9 9 10 10 14 11 11 12 13 13
REMARK SMILES IDX 12 14 15 15 16 16 20 17 17 18 19 19 18 20 21 21 22 22 25 23
REMARK SMILES IDX 23 24 24 25
REMARK H PARENT
ROOT
ATOM      1  Cl  UNL     1      26.073   7.447-119.504  1.00  0.00    -0.084 Cl
ATOM      2  C   UNL     1      26.342   5.746-119.814  1.00  0.00     0.047 A 
ATOM      3  C   UNL     1      25.316   4.831-119.753  1.00  0.00     0.021 A 
ATOM      4  C   UNL     1      25.518   3.496-120.029  1.00  0.00     0.002 A 
ATOM      5  C   UNL     1      26.785   3.093-120.370  1.00  0.00     0.001 A 
ATOM      6  C   UNL     1      27.829   4.026-120.432  1.00  0.00     0.008 A 
ATOM      7  C   UNL     1      27.622   5.342-120.158  1.00  0.00     0.006 A 
ENDROOT
BRANCH   7   8
ATOM      8  C   UNL     1      28.751   6.310-120.205  1.00  0.00     0.123 C 
BRANCH   8   9
ATOM      9  C   UNL     1      28.642   7.077-121.478  1.00  0.00    -0.013 A 
ATOM     10  C   UNL     1      28.143   6.606-122.648  1.00  0.00     0.007 A 
ATOM     11  C   UNL     1      29.095   8.408-121.406  1.00  0.00     0.007 A 
ATOM     12  C   UNL     1      28.088   7.442-123.749  1.00  0.00     0.000 A 
ATOM     13  C   UNL     1      29.036   9.230-122.502  1.00  0.00     0.000 A 
ATOM     14  C   UNL     1      28.533   8.762-123.692  1.00  0.00     0.000 A 
ENDBRANCH   8   9
BRANCH   8  15
ATOM     15  C   UNL     1      30.059   5.610-120.322  1.00  0.00    -0.013 A 
ATOM     16  C   UNL     1      30.820   5.251-119.241  1.00  0.00     0.007 A 
ATOM     17  C   UNL     1      30.517   5.284-121.573  1.00  0.00     0.007 A 
ATOM     18  C   UNL     1      32.027   4.576-119.379  1.00  0.00     0.000 A 
ATOM     19  C   UNL     1      31.734   4.602-121.737  1.00  0.00     0.000 A 
ATOM     20  C   UNL     1      32.473   4.257-120.639  1.00  0.00     0.000 A 
ENDBRANCH   8  15
BRANCH   8  21
ATOM     21  N   UNL     1      28.748   7.131-119.030  1.00  0.00    -0.319 N 
ATOM     22  C   UNL     1      29.171   8.423-118.958  1.00  0.00     0.109 A 
ATOM     23  C   UNL     1      28.315   6.797-117.815  1.00  0.00     0.200 A 
ATOM     24  C   UNL     1      28.994   8.882-117.671  1.00  0.00     0.131 A 
ATOM     25  N   UNL     1      28.469   7.868-116.993  1.00  0.00    -0.245 NA
ENDBRANCH   8  21
ENDBRANCH   7   8
TORSDOF 4
ENDMDL
MODEL 5
REMARK VINA RESULT:      -3.6      0.387      1.191
REMARK SMILES Clc1ccccc1C(c1ccccc1)(c1ccccc1)n1ccnc1
REMARK SMILES IDX 1 1 2 2 3 3 4 4 5 5 6 6 7 7 8 8 9 9 10 10 14 11 11 12 13 13
REMARK SMILES IDX 12 14 15 15 16 16 20 17 17 18 19 19 18 20 21 21 22 22 25 23
REMARK SMILES IDX 23 24 24 25
REMARK H PARENT
ROOT
ATOM      1  Cl  UNL     1      26.134   7.246-119.696  1.00  0.00    -0.084 Cl
ATOM      2  C   UNL     1      26.505   5.570-120.038  1.00  0.00     0.047 A 
ATOM      3  C   UNL     1      25.543   4.589-119.961  1.00  0.00     0.021 A 
ATOM      4  C   UNL     1      25.824   3.274-120.261  1.00  0.00     0.002 A 
ATOM      5  C   UNL     1      27.104   2.959-120.645  1.00  0.00     0.001 A 
ATOM      6  C   UNL     1      28.082   3.959-120.723  1.00  0.00     0.008 A 
ATOM      7  C   UNL     1      27.798   5.256-120.423  1.00  0.00     0.006 A 
ENDROOT
BRANCH   7   8
ATOM      8  C   UNL     1      28.860   6.297-120.489  1.00  0.00     0.123 C 
BRANCH   8   9
ATOM      9  C   UNL     1      30.179   5.609-120.390  1.00  0.00    -0.013 A 
ATOM     10  C   UNL     1      30.829   5.303-119.240  1.00  0.00     0.007 A 
ATOM     11  C   UNL     1      30.753   5.254-121.626  1.00  0.00     0.007 A 
ATOM     12  C   UNL     1      32.045   4.646-119.303  1.00  0.00     0.000 A 
ATOM     13  C   UNL     1      31.958   4.603-121.678  1.00  0.00     0.000 A 
ATOM     14  C   UNL     1      32.626   4.288-120.519  1.00  0.00     0.000 A 
ENDBRANCH   8   9
BRANCH   8  15
ATOM     15  C   UNL     1      28.826   7.179-119.292  1.00  0.00    -0.013 A 
ATOM     16  C   UNL     1      28.358   6.772-118.070  1.00  0.00     0.007 A 
ATOM     17  C   UNL     1      29.310   8.457-119.406  1.00  0.00     0.007 A 
ATOM     18  C   UNL     1      28.361   7.611-116.962  1.00  0.00     0.000 A 
ATOM     19  C   UNL     1      29.322   9.323-118.300  1.00  0.00     0.000 A 
ATOM     20  C   UNL     1      28.848   8.889-117.094  1.00  0.00     0.000 A 
ENDBRANCH   8  15
BRANCH   8  21
ATOM     21  N   UNL     1      28.704   7.087-121.674  1.00  0.00    -0.319 N 
ATOM     22  C   UNL     1      28.126   6.676-122.837  1.00  0.00     0.109 A 
ATOM     23  C   UNL     1      29.067   8.357-121.850  1.00  0.00     0.200 A 
ATOM     24  C   UNL     1      28.142   7.717-123.738  1.00  0.00     0.131 A 
ATOM     25  N   UNL     1      28.722   8.733-123.110  1.00  0.00    -0.245 NA
ENDBRANCH   8  21
ENDBRANCH   7   8
TORSDOF 4
ENDMDL
MODEL 6
REMARK VINA RESULT:      -3.6     20.540     23.210
REMARK SMILES Clc1ccccc1C(c1ccccc1)(c1ccccc1)n1ccnc1
REMARK SMILES IDX 1 1 2 2 3 3 4 4 5 5 6 6 7 7 8 8 9 9 10 10 14 11 11 12 13 13
REMARK SMILES IDX 12 14 15 15 16 16 20 17 17 18 19 19 18 20 21 21 22 22 25 23
REMARK SMILES IDX 23 24 24 25
REMARK H PARENT
ROOT
ATOM      1  Cl  UNL     1      41.733  20.885-133.081  1.00  0.00    -0.084 Cl
ATOM      2  C   UNL     1      41.189  19.696-131.920  1.00  0.00     0.047 A 
ATOM      3  C   UNL     1      39.855  19.534-131.624  1.00  0.00     0.021 A 
ATOM      4  C   UNL     1      39.420  18.576-130.734  1.00  0.00     0.002 A 
ATOM      5  C   UNL     1      40.363  17.775-130.139  1.00  0.00     0.001 A 
ATOM      6  C   UNL     1      41.721  17.940-130.440  1.00  0.00     0.008 A 
ATOM      7  C   UNL     1      42.143  18.889-131.319  1.00  0.00     0.006 A 
ENDROOT
BRANCH   7   8
ATOM      8  C   UNL     1      43.593  19.064-131.604  1.00  0.00     0.123 C 
BRANCH   8   9
ATOM      9  C   UNL     1      43.972  20.450-131.211  1.00  0.00    -0.013 A 
ATOM     10  C   UNL     1      43.469  21.142-130.158  1.00  0.00     0.007 A 
ATOM     11  C   UNL     1      44.952  21.048-132.026  1.00  0.00     0.007 A 
ATOM     12  C   UNL     1      43.929  22.422-129.904  1.00  0.00     0.000 A 
ATOM     13  C   UNL     1      45.402  22.316-131.767  1.00  0.00     0.000 A 
ATOM     14  C   UNL     1      44.899  23.026-130.703  1.00  0.00     0.000 A 
ENDBRANCH   8   9
BRANCH   8  15
ATOM     15  C   UNL     1      43.865  19.020-133.066  1.00  0.00    -0.013 A 
ATOM     16  C   UNL     1      44.734  19.872-133.696  1.00  0.00     0.007 A 
ATOM     17  C   UNL     1      43.235  18.064-133.821  1.00  0.00     0.007 A 
ATOM     18  C   UNL     1      44.986  19.794-135.061  1.00  0.00     0.000 A 
ATOM     19  C   UNL     1      43.475  17.965-135.202  1.00  0.00     0.000 A 
ATOM     20  C   UNL     1      44.346  18.831-135.803  1.00  0.00     0.000 A 
ENDBRANCH   8  15
BRANCH   8  21
ATOM     21  N   UNL     1      44.352  18.044-130.943  1.00  0.00    -0.319 N 
ATOM     22  C   UNL     1      44.852  16.918-131.522  1.00  0.00     0.109 A 
ATOM     23  C   UNL     1      44.724  18.018-129.663  1.00  0.00     0.200 A 
ATOM     24  C   UNL     1      45.540  16.193-130.575  1.00  0.00     0.131 A 
ATOM     25  N   UNL     1      45.446  16.888-129.447  1.00  0.00    -0.245 NA
ENDBRANCH   8  21
ENDBRANCH   7   8
TORSDOF 4
ENDMDL
MODEL 7
REMARK VINA RESULT:      -3.6      3.717      6.028
REMARK SMILES Clc1ccccc1C(c1ccccc1)(c1ccccc1)n1ccnc1
REMARK SMILES IDX 1 1 2 2 3 3 4 4 5 5 6 6 7 7 8 8 9 9 10 10 14 11 11 12 13 13
REMARK SMILES IDX 12 14 15 15 16 16 20 17 17 18 19 19 18 20 21 21 22 22 25 23
REMARK SMILES IDX 23 24 24 25
REMARK H PARENT
ROOT
ATOM      1  Cl  UNL     1      28.154  11.246-120.693  1.00  0.00    -0.084 Cl
ATOM      2  C   UNL     1      28.256   9.500-120.755  1.00  0.00     0.047 A 
ATOM      3  C   UNL     1      28.998   8.855-121.717  1.00  0.00     0.021 A 
ATOM      4  C   UNL     1      29.107   7.482-121.750  1.00  0.00     0.002 A 
ATOM      5  C   UNL     1      28.448   6.760-120.785  1.00  0.00     0.001 A 
ATOM      6  C   UNL     1      27.692   7.418-119.806  1.00  0.00     0.008 A 
ATOM      7  C   UNL     1      27.589   8.775-119.781  1.00  0.00     0.006 A 
ENDROOT
BRANCH   7   8
ATOM      8  C   UNL     1      26.760   9.450-118.746  1.00  0.00     0.123 C 
BRANCH   8   9
ATOM      9  C   UNL     1      26.044   8.394-117.974  1.00  0.00    -0.013 A 
ATOM     10  C   UNL     1      24.702   8.311-117.800  1.00  0.00     0.007 A 
ATOM     11  C   UNL     1      26.878   7.411-117.408  1.00  0.00     0.007 A 
ATOM     12  C   UNL     1      24.176   7.261-117.068  1.00  0.00     0.000 A 
ATOM     13  C   UNL     1      26.348   6.374-116.685  1.00  0.00     0.000 A 
ATOM     14  C   UNL     1      24.989   6.280-116.502  1.00  0.00     0.000 A 
ENDBRANCH   8   9
BRANCH   8  15
ATOM     15  C   UNL     1      25.664  10.244-119.365  1.00  0.00    -0.013 A 
ATOM     16  C   UNL     1      24.524   9.683-119.877  1.00  0.00     0.007 A 
ATOM     17  C   UNL     1      25.787  11.609-119.404  1.00  0.00     0.007 A 
ATOM     18  C   UNL     1      23.506  10.451-120.429  1.00  0.00     0.000 A 
ATOM     19  C   UNL     1      24.771  12.407-119.957  1.00  0.00     0.000 A 
ATOM     20  C   UNL     1      23.645  11.818-120.462  1.00  0.00     0.000 A 
ENDBRANCH   8  15
BRANCH   8  21
ATOM     21  N   UNL     1      27.578  10.306-117.939  1.00  0.00    -0.319 N 
ATOM     22  C   UNL     1      28.936  10.393-117.992  1.00  0.00     0.109 A 
ATOM     23  C   UNL     1      27.170  11.177-117.017  1.00  0.00     0.200 A 
ATOM     24  C   UNL     1      29.361  11.336-117.083  1.00  0.00     0.131 A 
ATOM     25  N   UNL     1      28.262  11.800-116.500  1.00  0.00    -0.245 NA
ENDBRANCH   8  21
ENDBRANCH   7   8
TORSDOF 4
ENDMDL
MODEL 8
REMARK VINA RESULT:      -3.5      1.416      4.146
REMARK SMILES Clc1ccccc1C(c1ccccc1)(c1ccccc1)n1ccnc1
REMARK SMILES IDX 1 1 2 2 3 3 4 4 5 5 6 6 7 7 8 8 9 9 10 10 14 11 11 12 13 13
REMARK SMILES IDX 12 14 15 15 16 16 20 17 17 18 19 19 18 20 21 21 22 22 25 23
REMARK SMILES IDX 23 24 24 25
REMARK H PARENT
ROOT
ATOM      1  Cl  UNL     1      25.959   7.691-119.325  1.00  0.00    -0.084 Cl
ATOM      2  C   UNL     1      25.981   5.955-119.536  1.00  0.00     0.047 A 
ATOM      3  C   UNL     1      24.840   5.198-119.403  1.00  0.00     0.021 A 
ATOM      4  C   UNL     1      24.847   3.834-119.601  1.00  0.00     0.002 A 
ATOM      5  C   UNL     1      26.038   3.238-119.937  1.00  0.00     0.001 A 
ATOM      6  C   UNL     1      27.199   4.010-120.072  1.00  0.00     0.008 A 
ATOM      7  C   UNL     1      27.184   5.356-119.874  1.00  0.00     0.006 A 
ENDROOT
BRANCH   7   8
ATOM      8  C   UNL     1      28.436   6.151-119.998  1.00  0.00     0.123 C 
BRANCH   8   9
ATOM      9  C   UNL     1      28.401   6.855-121.311  1.00  0.00    -0.013 A 
ATOM     10  C   UNL     1      27.816   6.391-122.444  1.00  0.00     0.007 A 
ATOM     11  C   UNL     1      29.032   8.113-121.323  1.00  0.00     0.007 A 
ATOM     12  C   UNL     1      27.850   7.165-123.591  1.00  0.00     0.000 A 
ATOM     13  C   UNL     1      29.060   8.873-122.464  1.00  0.00     0.000 A 
ATOM     14  C   UNL     1      28.471   8.414-123.617  1.00  0.00     0.000 A 
ENDBRANCH   8   9
BRANCH   8  15
ATOM     15  C   UNL     1      29.629   5.269-120.096  1.00  0.00    -0.013 A 
ATOM     16  C   UNL     1      29.681   4.158-120.897  1.00  0.00     0.007 A 
ATOM     17  C   UNL     1      30.746   5.594-119.369  1.00  0.00     0.007 A 
ATOM     18  C   UNL     1      30.818   3.365-120.988  1.00  0.00     0.000 A 
ATOM     19  C   UNL     1      31.907   4.806-119.444  1.00  0.00     0.000 A 
ATOM     20  C   UNL     1      31.928   3.703-120.251  1.00  0.00     0.000 A 
ENDBRANCH   8  15
BRANCH   8  21
ATOM     21  N   UNL     1      28.577   7.028-118.873  1.00  0.00    -0.319 N 
ATOM     22  C   UNL     1      29.034   8.310-118.912  1.00  0.00     0.109 A 
ATOM     23  C   UNL     1      28.271   6.765-117.603  1.00  0.00     0.200 A 
ATOM     24  C   UNL     1      29.006   8.836-117.640  1.00  0.00     0.131 A 
ATOM     25  N   UNL     1      28.536   7.871-116.858  1.00  0.00    -0.245 NA
ENDBRANCH   8  21
ENDBRANCH   7   8
TORSDOF 4
ENDMDL
MODEL 9
REMARK VINA RESULT:      -3.4      1.141      4.440
REMARK SMILES Clc1ccccc1C(c1ccccc1)(c1ccccc1)n1ccnc1
REMARK SMILES IDX 1 1 2 2 3 3 4 4 5 5 6 6 7 7 8 8 9 9 10 10 14 11 11 12 13 13
REMARK SMILES IDX 12 14 15 15 16 16 20 17 17 18 19 19 18 20 21 21 22 22 25 23
REMARK SMILES IDX 23 24 24 25
REMARK H PARENT
ROOT
ATOM      1  Cl  UNL     1      29.319   4.584-122.848  1.00  0.00    -0.084 Cl
ATOM      2  C   UNL     1      30.344   4.639-121.431  1.00  0.00     0.047 A 
ATOM      3  C   UNL     1      31.536   3.954-121.377  1.00  0.00     0.021 A 
ATOM      4  C   UNL     1      32.362   4.021-120.276  1.00  0.00     0.002 A 
ATOM      5  C   UNL     1      31.961   4.797-119.217  1.00  0.00     0.001 A 
ATOM      6  C   UNL     1      30.747   5.494-119.273  1.00  0.00     0.008 A 
ATOM      7  C   UNL     1      29.937   5.422-120.364  1.00  0.00     0.006 A 
ENDROOT
BRANCH   7   8
ATOM      8  C   UNL     1      28.639   6.151-120.391  1.00  0.00     0.123 C 
BRANCH   8   9
ATOM      9  C   UNL     1      28.598   7.053-119.205  1.00  0.00    -0.013 A 
ATOM     10  C   UNL     1      28.173   6.712-117.963  1.00  0.00     0.007 A 
ATOM     11  C   UNL     1      29.066   8.360-119.441  1.00  0.00     0.007 A 
ATOM     12  C   UNL     1      28.207   7.655-116.950  1.00  0.00     0.000 A 
ATOM     13  C   UNL     1      29.097   9.287-118.432  1.00  0.00     0.000 A 
ATOM     14  C   UNL     1      28.668   8.953-117.170  1.00  0.00     0.000 A 
ENDBRANCH   8   9
BRANCH   8  15
ATOM     15  C   UNL     1      27.495   5.225-120.174  1.00  0.00    -0.013 A 
ATOM     16  C   UNL     1      26.312   5.611-119.602  1.00  0.00     0.007 A 
ATOM     17  C   UNL     1      27.619   3.924-120.590  1.00  0.00     0.007 A 
ATOM     18  C   UNL     1      25.251   4.729-119.434  1.00  0.00     0.000 A 
ATOM     19  C   UNL     1      26.560   3.014-120.430  1.00  0.00     0.000 A 
ATOM     20  C   UNL     1      25.391   3.429-119.855  1.00  0.00     0.000 A 
ENDBRANCH   8  15
BRANCH   8  21
ATOM     21  N   UNL     1      28.480   6.830-121.643  1.00  0.00    -0.319 N 
ATOM     22  C   UNL     1      29.247   7.860-122.095  1.00  0.00     0.109 A 
ATOM     23  C   UNL     1      27.582   6.570-122.592  1.00  0.00     0.200 A 
ATOM     24  C   UNL     1      28.804   8.234-123.344  1.00  0.00     0.131 A 
ATOM     25  N   UNL     1      27.786   7.430-123.625  1.00  0.00    -0.245 NA
ENDBRANCH   8  21
ENDBRANCH   7   8
TORSDOF 4
ENDMDL
