MODEL 1
REMARK VINA RESULT:      -7.2      0.000      0.000
REMARK SMILES CNCC[C@H](Oc1cccc2ccccc12)c1cccs1
REMARK SMILES IDX 4 1 3 2 2 3 1 4 5 6 6 7 7 8 8 9 16 10 9 11 15 12 11 13 10 14
REMARK SMILES IDX 14 15 12 16 13 17 17 18 18 19 21 20 19 21 20 22
REMARK H PARENT 2 5
ROOT
ATOM      1  C   UNL     1     111.136 109.198 110.567  1.00  0.00     0.066 C 
ENDROOT
BRANCH   1   2
ATOM      2  C   UNL     1     111.099 108.078 109.625  1.00  0.00     0.085 C 
BRANCH   2   3
ATOM      3  N   UNL     1     111.948 107.990 108.524  1.00  0.00    -0.320 NA
ATOM      4  C   UNL     1     111.683 108.690 107.333  1.00  0.00     0.101 C 
ATOM      5  H   UNL     1     112.928 107.735 108.652  1.00  0.00     0.122 HD
ENDBRANCH   2   3
ENDBRANCH   1   2
BRANCH   1   6
ATOM      6  C   UNL     1     112.411 109.779 111.045  1.00  0.00     0.215 C 
BRANCH   6   7
ATOM      7  O   UNL     1     113.583 109.414 110.393  1.00  0.00    -0.484 OA
BRANCH   7   8
ATOM      8  C   UNL     1     114.387 110.312 109.734  1.00  0.00     0.128 A 
ATOM      9  C   UNL     1     114.285 111.663 109.842  1.00  0.00     0.047 A 
ATOM     10  C   UNL     1     115.381 109.771 108.894  1.00  0.00     0.024 A 
ATOM     11  C   UNL     1     115.160 112.477 109.123  1.00  0.00     0.004 A 
ATOM     12  C   UNL     1     115.499 108.395 108.781  1.00  0.00     0.012 A 
ATOM     13  C   UNL     1     116.256 110.562 108.174  1.00  0.00    -0.015 A 
ATOM     14  C   UNL     1     116.126 111.948 108.305  1.00  0.00     0.009 A 
ATOM     15  C   UNL     1     116.475 107.870 107.964  1.00  0.00     0.001 A 
ATOM     16  C   UNL     1     117.230 110.027 107.358  1.00  0.00     0.009 A 
ATOM     17  C   UNL     1     117.344 108.666 107.248  1.00  0.00     0.001 A 
ENDBRANCH   7   8
ENDBRANCH   6   7
BRANCH   6  18
ATOM     18  C   UNL     1     112.517 109.355 112.502  1.00  0.00     0.045 A 
ATOM     19  C   UNL     1     113.578 109.329 113.334  1.00  0.00     0.019 A 
ATOM     20  S   UNL     1     111.192 108.755 113.525  1.00  0.00    -0.145 S 
ATOM     21  C   UNL     1     113.444 108.917 114.589  1.00  0.00     0.012 A 
ATOM     22  C   UNL     1     112.190 108.524 114.990  1.00  0.00     0.065 A 
ENDBRANCH   6  18
ENDBRANCH   1   6
TORSDOF 6
ENDMDL
MODEL 2
REMARK VINA RESULT:      -7.2      1.533      1.771
REMARK SMILES CNCC[C@H](Oc1cccc2ccccc12)c1cccs1
REMARK SMILES IDX 4 1 3 2 2 3 1 4 5 6 6 7 7 8 8 9 16 10 9 11 15 12 11 13 10 14
REMARK SMILES IDX 14 15 12 16 13 17 17 18 18 19 21 20 19 21 20 22
REMARK H PARENT 2 5
ROOT
ATOM      1  C   UNL     1     111.588 108.396 108.902  1.00  0.00     0.066 C 
ENDROOT
BRANCH   1   2
ATOM      2  C   UNL     1     110.582 108.825 107.928  1.00  0.00     0.085 C 
BRANCH   2   3
ATOM      3  N   UNL     1     109.849 110.001 108.070  1.00  0.00    -0.320 NA
ATOM      4  C   UNL     1     108.459 109.981 108.287  1.00  0.00     0.101 C 
ATOM      5  H   UNL     1     110.310 110.857 108.381  1.00  0.00     0.122 HD
ENDBRANCH   2   3
ENDBRANCH   1   2
BRANCH   1   6
ATOM      6  C   UNL     1     112.031 109.272 110.010  1.00  0.00     0.215 C 
BRANCH   6   7
ATOM      7  O   UNL     1     113.392 109.348 110.282  1.00  0.00    -0.484 OA
BRANCH   7   8
ATOM      8  C   UNL     1     114.233 110.244 109.668  1.00  0.00     0.128 A 
ATOM      9  C   UNL     1     114.138 111.595 109.784  1.00  0.00     0.047 A 
ATOM     10  C   UNL     1     115.259 109.702 108.870  1.00  0.00     0.024 A 
ATOM     11  C   UNL     1     115.052 112.408 109.114  1.00  0.00     0.004 A 
ATOM     12  C   UNL     1     115.370 108.326 108.749  1.00  0.00     0.012 A 
ATOM     13  C   UNL     1     116.174 110.491 108.198  1.00  0.00    -0.015 A 
ATOM     14  C   UNL     1     116.050 111.877 108.337  1.00  0.00     0.009 A 
ATOM     15  C   UNL     1     116.378 107.799 107.972  1.00  0.00     0.001 A 
ATOM     16  C   UNL     1     117.179 109.954 107.422  1.00  0.00     0.009 A 
ATOM     17  C   UNL     1     117.285 108.594 107.304  1.00  0.00     0.001 A 
ENDBRANCH   7   8
ENDBRANCH   6   7
BRANCH   6  18
ATOM     18  C   UNL     1     111.320 108.740 111.245  1.00  0.00     0.045 A 
ATOM     19  C   UNL     1     111.552 108.961 112.554  1.00  0.00     0.019 A 
ATOM     20  S   UNL     1     109.929 107.633 111.265  1.00  0.00    -0.145 S 
ATOM     21  C   UNL     1     110.796 108.385 113.482  1.00  0.00     0.012 A 
ATOM     22  C   UNL     1     109.782 107.567 113.046  1.00  0.00     0.065 A 
ENDBRANCH   6  18
ENDBRANCH   1   6
TORSDOF 6
ENDMDL
MODEL 3
REMARK VINA RESULT:      -7.1      2.649      6.221
REMARK SMILES CNCC[C@H](Oc1cccc2ccccc12)c1cccs1
REMARK SMILES IDX 4 1 3 2 2 3 1 4 5 6 6 7 7 8 8 9 16 10 9 11 15 12 11 13 10 14
REMARK SMILES IDX 14 15 12 16 13 17 17 18 18 19 21 20 19 21 20 22
REMARK H PARENT 2 5
ROOT
ATOM      1  C   UNL     1     116.121 111.619 108.039  1.00  0.00     0.066 C 
ENDROOT
BRANCH   1   2
ATOM      2  C   UNL     1     117.098 112.295 108.895  1.00  0.00     0.085 C 
BRANCH   2   3
ATOM      3  N   UNL     1     116.809 112.697 110.197  1.00  0.00    -0.320 NA
ATOM      4  C   UNL     1     116.613 114.050 110.523  1.00  0.00     0.101 C 
ATOM      5  H   UNL     1     116.381 112.040 110.852  1.00  0.00     0.122 HD
ENDBRANCH   2   3
ENDBRANCH   1   2
BRANCH   1   6
ATOM      6  C   UNL     1     115.243 110.542 108.549  1.00  0.00     0.215 C 
BRANCH   6   7
ATOM      7  O   UNL     1     115.212 110.316 109.920  1.00  0.00    -0.484 OA
BRANCH   7   8
ATOM      8  C   UNL     1     114.089 109.889 110.586  1.00  0.00     0.128 A 
ATOM      9  C   UNL     1     112.885 109.656 109.999  1.00  0.00     0.047 A 
ATOM     10  C   UNL     1     114.218 109.681 111.974  1.00  0.00     0.024 A 
ATOM     11  C   UNL     1     111.813 109.222 110.779  1.00  0.00     0.004 A 
ATOM     12  C   UNL     1     115.442 109.909 112.583  1.00  0.00     0.012 A 
ATOM     13  C   UNL     1     113.168 109.251 112.762  1.00  0.00    -0.015 A 
ATOM     14  C   UNL     1     111.942 109.021 112.130  1.00  0.00     0.009 A 
ATOM     15  C   UNL     1     115.567 109.699 113.938  1.00  0.00     0.001 A 
ATOM     16  C   UNL     1     113.302 109.045 114.119  1.00  0.00     0.009 A 
ATOM     17  C   UNL     1     114.513 109.271 114.718  1.00  0.00     0.001 A 
ENDBRANCH   7   8
ENDBRANCH   6   7
BRANCH   6  18
ATOM     18  C   UNL     1     115.729 109.276 107.862  1.00  0.00     0.045 A 
ATOM     19  C   UNL     1     116.853 108.554 108.044  1.00  0.00     0.019 A 
ATOM     20  S   UNL     1     114.884 108.384 106.576  1.00  0.00    -0.145 S 
ATOM     21  C   UNL     1     117.079 107.461 107.324  1.00  0.00     0.012 A 
ATOM     22  C   UNL     1     116.126 107.110 106.399  1.00  0.00     0.065 A 
ENDBRANCH   6  18
ENDBRANCH   1   6
TORSDOF 6
ENDMDL
MODEL 4
REMARK VINA RESULT:      -7.1      0.949      1.141
REMARK SMILES CNCC[C@H](Oc1cccc2ccccc12)c1cccs1
REMARK SMILES IDX 4 1 3 2 2 3 1 4 5 6 6 7 7 8 8 9 16 10 9 11 15 12 11 13 10 14
REMARK SMILES IDX 14 15 12 16 13 17 17 18 18 19 21 20 19 21 20 22
REMARK H PARENT 2 5
ROOT
ATOM      1  C   UNL     1     112.061 108.905 110.069  1.00  0.00     0.066 C 
ENDROOT
BRANCH   1   2
ATOM      2  C   UNL     1     111.967 109.221 108.642  1.00  0.00     0.085 C 
BRANCH   2   3
ATOM      3  N   UNL     1     112.014 108.245 107.649  1.00  0.00    -0.320 NA
ATOM      4  C   UNL     1     110.906 107.424 107.372  1.00  0.00     0.101 C 
ATOM      5  H   UNL     1     112.677 108.331 106.878  1.00  0.00     0.122 HD
ENDBRANCH   2   3
ENDBRANCH   1   2
BRANCH   1   6
ATOM      6  C   UNL     1     112.862 109.726 111.003  1.00  0.00     0.215 C 
BRANCH   6   7
ATOM      7  O   UNL     1     114.246 109.699 110.880  1.00  0.00    -0.484 OA
BRANCH   7   8
ATOM      8  C   UNL     1     114.934 110.446 109.955  1.00  0.00     0.128 A 
ATOM      9  C   UNL     1     114.924 111.804 109.899  1.00  0.00     0.047 A 
ATOM     10  C   UNL     1     115.697 109.734 109.009  1.00  0.00     0.024 A 
ATOM     11  C   UNL     1     115.664 112.457 108.913  1.00  0.00     0.004 A 
ATOM     12  C   UNL     1     115.721 108.349 109.060  1.00  0.00     0.012 A 
ATOM     13  C   UNL     1     116.437 110.362 108.026  1.00  0.00    -0.015 A 
ATOM     14  C   UNL     1     116.406 111.760 107.993  1.00  0.00     0.009 A 
ATOM     15  C   UNL     1     116.473 107.656 108.138  1.00  0.00     0.001 A 
ATOM     16  C   UNL     1     117.187 109.660 107.106  1.00  0.00     0.009 A 
ATOM     17  C   UNL     1     117.207 108.291 107.159  1.00  0.00     0.001 A 
ENDBRANCH   7   8
ENDBRANCH   6   7
BRANCH   6  18
ATOM     18  C   UNL     1     112.491 109.224 112.390  1.00  0.00     0.045 A 
ATOM     19  C   UNL     1     111.314 108.787 112.880  1.00  0.00     0.019 A 
ATOM     20  S   UNL     1     113.583 109.083 113.787  1.00  0.00    -0.145 S 
ATOM     21  C   UNL     1     111.212 108.387 114.142  1.00  0.00     0.012 A 
ATOM     22  C   UNL     1     112.349 108.442 114.911  1.00  0.00     0.065 A 
ENDBRANCH   6  18
ENDBRANCH   1   6
TORSDOF 6
ENDMDL
MODEL 5
REMARK VINA RESULT:      -7.0      1.877      2.140
REMARK SMILES CNCC[C@H](Oc1cccc2ccccc12)c1cccs1
REMARK SMILES IDX 4 1 3 2 2 3 1 4 5 6 6 7 7 8 8 9 16 10 9 11 15 12 11 13 10 14
REMARK SMILES IDX 14 15 12 16 13 17 17 18 18 19 21 20 19 21 20 22
REMARK H PARENT 2 5
ROOT
ATOM      1  C   UNL     1     112.784 110.066 112.192  1.00  0.00     0.066 C 
ENDROOT
BRANCH   1   2
ATOM      2  C   UNL     1     112.320 109.354 110.999  1.00  0.00     0.085 C 
BRANCH   2   3
ATOM      3  N   UNL     1     112.427 109.886 109.716  1.00  0.00    -0.320 NA
ATOM      4  C   UNL     1     112.210 109.098 108.572  1.00  0.00     0.101 C 
ATOM      5  H   UNL     1     112.301 110.888 109.565  1.00  0.00     0.122 HD
ENDBRANCH   2   3
ENDBRANCH   1   2
BRANCH   1   6
ATOM      6  C   UNL     1     114.024 110.873 112.192  1.00  0.00     0.215 C 
BRANCH   6   7
ATOM      7  O   UNL     1     115.139 110.362 111.538  1.00  0.00    -0.484 OA
BRANCH   7   8
ATOM      8  C   UNL     1     115.710 110.964 110.444  1.00  0.00     0.128 A 
ATOM      9  C   UNL     1     115.832 112.308 110.278  1.00  0.00     0.047 A 
ATOM     10  C   UNL     1     116.199 110.110 109.436  1.00  0.00     0.024 A 
ATOM     11  C   UNL     1     116.433 112.806 109.122  1.00  0.00     0.004 A 
ATOM     12  C   UNL     1     116.087 108.738 109.596  1.00  0.00     0.012 A 
ATOM     13  C   UNL     1     116.798 110.584 108.284  1.00  0.00    -0.015 A 
ATOM     14  C   UNL     1     116.908 111.971 108.142  1.00  0.00     0.009 A 
ATOM     15  C   UNL     1     116.571 107.905 108.612  1.00  0.00     0.001 A 
ATOM     16  C   UNL     1     117.279 109.742 107.304  1.00  0.00     0.009 A 
ATOM     17  C   UNL     1     117.165 108.387 107.466  1.00  0.00     0.001 A 
ENDBRANCH   7   8
ENDBRANCH   6   7
BRANCH   6  18
ATOM     18  C   UNL     1     114.371 111.066 113.660  1.00  0.00     0.045 A 
ATOM     19  C   UNL     1     115.471 110.714 114.355  1.00  0.00     0.019 A 
ATOM     20  S   UNL     1     113.353 111.849 114.890  1.00  0.00    -0.145 S 
ATOM     21  C   UNL     1     115.568 110.986 115.652  1.00  0.00     0.012 A 
ATOM     22  C   UNL     1     114.507 111.633 116.239  1.00  0.00     0.065 A 
ENDBRANCH   6  18
ENDBRANCH   1   6
TORSDOF 6
ENDMDL
MODEL 6
REMARK VINA RESULT:      -7.0      1.111      1.419
REMARK SMILES CNCC[C@H](Oc1cccc2ccccc12)c1cccs1
REMARK SMILES IDX 4 1 3 2 2 3 1 4 5 6 6 7 7 8 8 9 16 10 9 11 15 12 11 13 10 14
REMARK SMILES IDX 14 15 12 16 13 17 17 18 18 19 21 20 19 21 20 22
REMARK H PARENT 2 5
ROOT
ATOM      1  C   UNL     1     111.424 108.347 109.568  1.00  0.00     0.066 C 
ENDROOT
BRANCH   1   2
ATOM      2  C   UNL     1     110.827 108.676 108.272  1.00  0.00     0.085 C 
BRANCH   2   3
ATOM      3  N   UNL     1     111.373 109.624 107.410  1.00  0.00    -0.320 NA
ATOM      4  C   UNL     1     112.546 109.365 106.679  1.00  0.00     0.101 C 
ATOM      5  H   UNL     1     110.781 110.354 107.010  1.00  0.00     0.122 HD
ENDBRANCH   2   3
ENDBRANCH   1   2
BRANCH   1   6
ATOM      6  C   UNL     1     112.062 109.374 110.422  1.00  0.00     0.215 C 
BRANCH   6   7
ATOM      7  O   UNL     1     113.449 109.382 110.514  1.00  0.00    -0.484 OA
BRANCH   7   8
ATOM      8  C   UNL     1     114.241 110.293 109.859  1.00  0.00     0.128 A 
ATOM      9  C   UNL     1     114.110 111.642 109.959  1.00  0.00     0.047 A 
ATOM     10  C   UNL     1     115.255 109.769 109.033  1.00  0.00     0.024 A 
ATOM     11  C   UNL     1     114.976 112.471 109.246  1.00  0.00     0.004 A 
ATOM     12  C   UNL     1     115.403 108.395 108.928  1.00  0.00     0.012 A 
ATOM     13  C   UNL     1     116.123 110.574 108.319  1.00  0.00    -0.015 A 
ATOM     14  C   UNL     1     115.963 111.958 108.442  1.00  0.00     0.009 A 
ATOM     15  C   UNL     1     116.399 107.886 108.124  1.00  0.00     0.001 A 
ATOM     16  C   UNL     1     117.116 110.055 107.517  1.00  0.00     0.009 A 
ATOM     17  C   UNL     1     117.259 108.696 107.414  1.00  0.00     0.001 A 
ENDBRANCH   7   8
ENDBRANCH   6   7
BRANCH   6  18
ATOM     18  C   UNL     1     111.487 109.148 111.811  1.00  0.00     0.045 A 
ATOM     19  C   UNL     1     110.209 109.038 112.225  1.00  0.00     0.019 A 
ATOM     20  S   UNL     1     112.413 108.960 113.318  1.00  0.00    -0.145 S 
ATOM     21  C   UNL     1     109.927 108.837 113.508  1.00  0.00     0.012 A 
ATOM     22  C   UNL     1     110.988 108.748 114.377  1.00  0.00     0.065 A 
ENDBRANCH   6  18
ENDBRANCH   1   6
TORSDOF 6
ENDMDL
MODEL 7
REMARK VINA RESULT:      -7.0      2.343      4.196
REMARK SMILES CNCC[C@H](Oc1cccc2ccccc12)c1cccs1
REMARK SMILES IDX 4 1 3 2 2 3 1 4 5 6 6 7 7 8 8 9 16 10 9 11 15 12 11 13 10 14
REMARK SMILES IDX 14 15 12 16 13 17 17 18 18 19 21 20 19 21 20 22
REMARK H PARENT 2 5
ROOT
ATOM      1  C   UNL     1     113.793 110.897 112.895  1.00  0.00     0.066 C 
ENDROOT
BRANCH   1   2
ATOM      2  C   UNL     1     113.905 109.662 113.672  1.00  0.00     0.085 C 
BRANCH   2   3
ATOM      3  N   UNL     1     113.120 108.539 113.421  1.00  0.00    -0.320 NA
ATOM      4  C   UNL     1     111.756 108.504 113.763  1.00  0.00     0.101 C 
ATOM      5  H   UNL     1     113.386 107.883 112.686  1.00  0.00     0.122 HD
ENDBRANCH   2   3
ENDBRANCH   1   2
BRANCH   1   6
ATOM      6  C   UNL     1     113.659 110.888 111.421  1.00  0.00     0.215 C 
BRANCH   6   7
ATOM      7  O   UNL     1     113.998 109.725 110.739  1.00  0.00    -0.484 OA
BRANCH   7   8
ATOM      8  C   UNL     1     113.661 109.496 109.428  1.00  0.00     0.128 A 
ATOM      9  C   UNL     1     112.443 109.766 108.886  1.00  0.00     0.047 A 
ATOM     10  C   UNL     1     114.663 108.946 108.604  1.00  0.00     0.024 A 
ATOM     11  C   UNL     1     112.216 109.492 107.538  1.00  0.00     0.004 A 
ATOM     12  C   UNL     1     115.910 108.673 109.143  1.00  0.00     0.012 A 
ATOM     13  C   UNL     1     114.456 108.669 107.266  1.00  0.00    -0.015 A 
ATOM     14  C   UNL     1     113.193 108.956 106.738  1.00  0.00     0.009 A 
ATOM     15  C   UNL     1     116.889 108.141 108.334  1.00  0.00     0.001 A 
ATOM     16  C   UNL     1     115.442 108.135 106.464  1.00  0.00     0.009 A 
ATOM     17  C   UNL     1     116.674 107.866 107.000  1.00  0.00     0.001 A 
ENDBRANCH   7   8
ENDBRANCH   6   7
BRANCH   6  18
ATOM     18  C   UNL     1     114.558 112.013 110.933  1.00  0.00     0.045 A 
ATOM     19  C   UNL     1     115.840 112.304 111.231  1.00  0.00     0.019 A 
ATOM     20  S   UNL     1     114.113 113.295 109.784  1.00  0.00    -0.145 S 
ATOM     21  C   UNL     1     116.442 113.352 110.680  1.00  0.00     0.012 A 
ATOM     22  C   UNL     1     115.703 114.112 109.806  1.00  0.00     0.065 A 
ENDBRANCH   6  18
ENDBRANCH   1   6
TORSDOF 6
ENDMDL
MODEL 8
REMARK VINA RESULT:      -6.9      1.796      2.134
REMARK SMILES CNCC[C@H](Oc1cccc2ccccc12)c1cccs1
REMARK SMILES IDX 4 1 3 2 2 3 1 4 5 6 6 7 7 8 8 9 16 10 9 11 15 12 11 13 10 14
REMARK SMILES IDX 14 15 12 16 13 17 17 18 18 19 21 20 19 21 20 22
REMARK H PARENT 2 5
ROOT
ATOM      1  C   UNL     1     113.068 109.246 111.555  1.00  0.00     0.066 C 
ENDROOT
BRANCH   1   2
ATOM      2  C   UNL     1     111.878 109.675 110.817  1.00  0.00     0.085 C 
BRANCH   2   3
ATOM      3  N   UNL     1     110.666 109.960 111.442  1.00  0.00    -0.320 NA
ATOM      4  C   UNL     1     110.059 109.046 112.321  1.00  0.00     0.101 C 
ATOM      5  H   UNL     1     110.375 110.929 111.576  1.00  0.00     0.122 HD
ENDBRANCH   2   3
ENDBRANCH   1   2
BRANCH   1   6
ATOM      6  C   UNL     1     114.099 110.206 112.009  1.00  0.00     0.215 C 
BRANCH   6   7
ATOM      7  O   UNL     1     115.393 110.057 111.523  1.00  0.00    -0.484 OA
BRANCH   7   8
ATOM      8  C   UNL     1     115.866 110.733 110.424  1.00  0.00     0.128 A 
ATOM      9  C   UNL     1     115.964 112.086 110.335  1.00  0.00     0.047 A 
ATOM     10  C   UNL     1     116.274 109.949 109.328  1.00  0.00     0.024 A 
ATOM     11  C   UNL     1     116.462 112.662 109.166  1.00  0.00     0.004 A 
ATOM     12  C   UNL     1     116.184 108.568 109.410  1.00  0.00     0.012 A 
ATOM     13  C   UNL     1     116.770 110.501 108.162  1.00  0.00    -0.015 A 
ATOM     14  C   UNL     1     116.859 111.895 108.099  1.00  0.00     0.009 A 
ATOM     15  C   UNL     1     116.589 107.804 108.338  1.00  0.00     0.001 A 
ATOM     16  C   UNL     1     117.172 109.728 107.094  1.00  0.00     0.009 A 
ATOM     17  C   UNL     1     117.082 108.363 107.178  1.00  0.00     0.001 A 
ENDBRANCH   7   8
ENDBRANCH   6   7
BRANCH   6  18
ATOM     18  C   UNL     1     114.133 110.066 113.523  1.00  0.00     0.045 A 
ATOM     19  C   UNL     1     115.059 109.516 114.333  1.00  0.00     0.019 A 
ATOM     20  S   UNL     1     112.887 110.625 114.661  1.00  0.00    -0.145 S 
ATOM     21  C   UNL     1     114.885 109.502 115.649  1.00  0.00     0.012 A 
ATOM     22  C   UNL     1     113.731 110.067 116.136  1.00  0.00     0.065 A 
ENDBRANCH   6  18
ENDBRANCH   1   6
TORSDOF 6
ENDMDL
MODEL 9
REMARK VINA RESULT:      -6.9      1.175      1.336
REMARK SMILES CNCC[C@H](Oc1cccc2ccccc12)c1cccs1
REMARK SMILES IDX 4 1 3 2 2 3 1 4 5 6 6 7 7 8 8 9 16 10 9 11 15 12 11 13 10 14
REMARK SMILES IDX 14 15 12 16 13 17 17 18 18 19 21 20 19 21 20 22
REMARK H PARENT 2 5
ROOT
ATOM      1  C   UNL     1     111.629 109.692 111.551  1.00  0.00     0.066 C 
ENDROOT
BRANCH   1   2
ATOM      2  C   UNL     1     111.176 108.480 110.864  1.00  0.00     0.085 C 
BRANCH   2   3
ATOM      3  N   UNL     1     111.452 108.227 109.522  1.00  0.00    -0.320 NA
ATOM      4  C   UNL     1     110.727 108.851 108.491  1.00  0.00     0.101 C 
ATOM      5  H   UNL     1     112.376 107.894 109.244  1.00  0.00     0.122 HD
ENDBRANCH   2   3
ENDBRANCH   1   2
BRANCH   1   6
ATOM      6  C   UNL     1     112.948 110.304 111.274  1.00  0.00     0.215 C 
BRANCH   6   7
ATOM      7  O   UNL     1     113.760 109.707 110.316  1.00  0.00    -0.484 OA
BRANCH   7   8
ATOM      8  C   UNL     1     114.672 110.405 109.563  1.00  0.00     0.128 A 
ATOM      9  C   UNL     1     114.794 111.759 109.559  1.00  0.00     0.047 A 
ATOM     10  C   UNL     1     115.532 109.643 108.747  1.00  0.00     0.024 A 
ATOM     11  C   UNL     1     115.761 112.359 108.752  1.00  0.00     0.004 A 
ATOM     12  C   UNL     1     115.421 108.262 108.747  1.00  0.00     0.012 A 
ATOM     13  C   UNL     1     116.495 110.220 107.941  1.00  0.00    -0.015 A 
ATOM     14  C   UNL     1     116.597 111.615 107.958  1.00  0.00     0.009 A 
ATOM     15  C   UNL     1     116.267 107.520 107.953  1.00  0.00     0.001 A 
ATOM     16  C   UNL     1     117.337 109.469 107.148  1.00  0.00     0.009 A 
ATOM     17  C   UNL     1     117.224 108.104 107.151  1.00  0.00     0.001 A 
ENDBRANCH   7   8
ENDBRANCH   6   7
BRANCH   6  18
ATOM     18  C   UNL     1     113.681 110.287 112.606  1.00  0.00     0.045 A 
ATOM     19  C   UNL     1     114.532 111.179 113.151  1.00  0.00     0.019 A 
ATOM     20  S   UNL     1     113.590 109.013 113.844  1.00  0.00    -0.145 S 
ATOM     21  C   UNL     1     115.065 110.963 114.348  1.00  0.00     0.012 A 
ATOM     22  C   UNL     1     114.711 109.802 114.992  1.00  0.00     0.065 A 
ENDBRANCH   6  18
ENDBRANCH   1   6
TORSDOF 6
ENDMDL
