MODEL 1
REMARK VINA RESULT:      -5.7      0.000      0.000
REMARK SMILES CNCC[C@H](Oc1cccc2ccccc12)c1cccs1
REMARK SMILES IDX 4 1 3 2 2 3 1 4 5 6 6 7 7 8 8 9 16 10 9 11 15 12 11 13 10 14
REMARK SMILES IDX 14 15 12 16 13 17 17 18 18 19 21 20 19 21 20 22
REMARK H PARENT 2 5
ROOT
ATOM      1  C   UNL     1      84.170 111.709 103.058  1.00  0.00     0.066 C 
ENDROOT
BRANCH   1   2
ATOM      2  C   UNL     1      82.813 111.732 103.608  1.00  0.00     0.085 C 
BRANCH   2   3
ATOM      3  N   UNL     1      82.363 110.802 104.542  1.00  0.00    -0.320 NA
ATOM      4  C   UNL     1      81.347 111.115 105.462  1.00  0.00     0.101 C 
ATOM      5  H   UNL     1      82.475 109.803 104.364  1.00  0.00     0.122 HD
ENDBRANCH   2   3
ENDBRANCH   1   2
BRANCH   1   6
ATOM      6  C   UNL     1      85.084 112.867 103.176  1.00  0.00     0.215 C 
BRANCH   6   7
ATOM      7  O   UNL     1      84.847 113.789 104.188  1.00  0.00    -0.484 OA
BRANCH   7   8
ATOM      8  C   UNL     1      85.752 114.063 105.184  1.00  0.00     0.128 A 
ATOM      9  C   UNL     1      87.022 114.502 104.974  1.00  0.00     0.047 A 
ATOM     10  C   UNL     1      85.312 113.869 106.508  1.00  0.00     0.024 A 
ATOM     11  C   UNL     1      87.853 114.748 106.066  1.00  0.00     0.004 A 
ATOM     12  C   UNL     1      84.018 113.428 106.736  1.00  0.00     0.012 A 
ATOM     13  C   UNL     1      86.121 114.108 107.603  1.00  0.00    -0.015 A 
ATOM     14  C   UNL     1      87.422 114.558 107.355  1.00  0.00     0.009 A 
ATOM     15  C   UNL     1      83.589 113.246 108.031  1.00  0.00     0.001 A 
ATOM     16  C   UNL     1      85.682 113.921 108.897  1.00  0.00     0.009 A 
ATOM     17  C   UNL     1      84.403 113.485 109.118  1.00  0.00     0.001 A 
ENDBRANCH   7   8
ENDBRANCH   6   7
BRANCH   6  18
ATOM     18  C   UNL     1      84.991 113.584 101.838  1.00  0.00     0.045 A 
ATOM     19  C   UNL     1      85.020 113.101 100.580  1.00  0.00     0.019 A 
ATOM     20  S   UNL     1      84.812 115.335 101.591  1.00  0.00    -0.145 S 
ATOM     21  C   UNL     1      84.920 113.919  99.538  1.00  0.00     0.012 A 
ATOM     22  C   UNL     1      84.789 115.261  99.804  1.00  0.00     0.065 A 
ENDBRANCH   6  18
ENDBRANCH   1   6
TORSDOF 6
ENDMDL
MODEL 2
REMARK VINA RESULT:      -5.6      2.766      6.600
REMARK SMILES CNCC[C@H](Oc1cccc2ccccc12)c1cccs1
REMARK SMILES IDX 4 1 3 2 2 3 1 4 5 6 6 7 7 8 8 9 16 10 9 11 15 12 11 13 10 14
REMARK SMILES IDX 14 15 12 16 13 17 17 18 18 19 21 20 19 21 20 22
REMARK H PARENT 2 5
ROOT
ATOM      1  C   UNL     1      86.311 114.319 106.610  1.00  0.00     0.066 C 
ENDROOT
BRANCH   1   2
ATOM      2  C   UNL     1      86.475 114.421 105.158  1.00  0.00     0.085 C 
BRANCH   2   3
ATOM      3  N   UNL     1      85.680 115.246 104.366  1.00  0.00    -0.320 NA
ATOM      4  C   UNL     1      86.169 115.819 103.179  1.00  0.00     0.101 C 
ATOM      5  H   UNL     1      84.663 115.171 104.409  1.00  0.00     0.122 HD
ENDBRANCH   2   3
ENDBRANCH   1   2
BRANCH   1   6
ATOM      6  C   UNL     1      85.084 113.764 107.224  1.00  0.00     0.215 C 
BRANCH   6   7
ATOM      7  O   UNL     1      83.898 113.839 106.503  1.00  0.00    -0.484 OA
BRANCH   7   8
ATOM      8  C   UNL     1      82.951 112.844 106.507  1.00  0.00     0.128 A 
ATOM      9  C   UNL     1      82.122 112.572 107.550  1.00  0.00     0.047 A 
ATOM     10  C   UNL     1      82.848 112.066 105.338  1.00  0.00     0.024 A 
ATOM     11  C   UNL     1      81.196 111.535 107.439  1.00  0.00     0.004 A 
ATOM     12  C   UNL     1      83.683 112.337 104.266  1.00  0.00     0.012 A 
ATOM     13  C   UNL     1      81.937 111.034 105.209  1.00  0.00    -0.015 A 
ATOM     14  C   UNL     1      81.099 110.778 106.299  1.00  0.00     0.009 A 
ATOM     15  C   UNL     1      83.576 111.578 103.122  1.00  0.00     0.001 A 
ATOM     16  C   UNL     1      81.838 110.279 104.060  1.00  0.00     0.009 A 
ATOM     17  C   UNL     1      82.665 110.550 103.002  1.00  0.00     0.001 A 
ENDBRANCH   7   8
ENDBRANCH   6   7
BRANCH   6  18
ATOM     18  C   UNL     1      84.909 114.533 108.524  1.00  0.00     0.045 A 
ATOM     19  C   UNL     1      85.551 114.421 109.704  1.00  0.00     0.019 A 
ATOM     20  S   UNL     1      83.745 115.844 108.824  1.00  0.00    -0.145 S 
ATOM     21  C   UNL     1      85.234 115.209 110.725  1.00  0.00     0.012 A 
ATOM     22  C   UNL     1      84.233 116.128 110.521  1.00  0.00     0.065 A 
ENDBRANCH   6  18
ENDBRANCH   1   6
TORSDOF 6
ENDMDL
MODEL 3
REMARK VINA RESULT:      -5.6      2.945      6.425
REMARK SMILES CNCC[C@H](Oc1cccc2ccccc12)c1cccs1
REMARK SMILES IDX 4 1 3 2 2 3 1 4 5 6 6 7 7 8 8 9 16 10 9 11 15 12 11 13 10 14
REMARK SMILES IDX 14 15 12 16 13 17 17 18 18 19 21 20 19 21 20 22
REMARK H PARENT 2 5
ROOT
ATOM      1  C   UNL     1      86.145 114.802 105.391  1.00  0.00     0.066 C 
ENDROOT
BRANCH   1   2
ATOM      2  C   UNL     1      87.472 114.280 105.057  1.00  0.00     0.085 C 
BRANCH   2   3
ATOM      3  N   UNL     1      87.953 114.226 103.750  1.00  0.00    -0.320 NA
ATOM      4  C   UNL     1      87.311 114.907 102.701  1.00  0.00     0.101 C 
ATOM      5  H   UNL     1      88.937 114.016 103.576  1.00  0.00     0.122 HD
ENDBRANCH   2   3
ENDBRANCH   1   2
BRANCH   1   6
ATOM      6  C   UNL     1      85.159 114.006 106.155  1.00  0.00     0.215 C 
BRANCH   6   7
ATOM      7  O   UNL     1      83.824 114.074 105.773  1.00  0.00    -0.484 OA
BRANCH   7   8
ATOM      8  C   UNL     1      82.925 113.060 105.998  1.00  0.00     0.128 A 
ATOM      9  C   UNL     1      82.120 112.971 107.090  1.00  0.00     0.047 A 
ATOM     10  C   UNL     1      82.848 112.054 105.015  1.00  0.00     0.024 A 
ATOM     11  C   UNL     1      81.243 111.893 107.210  1.00  0.00     0.004 A 
ATOM     12  C   UNL     1      83.659 112.137 103.894  1.00  0.00     0.012 A 
ATOM     13  C   UNL     1      81.986 110.979 105.116  1.00  0.00    -0.015 A 
ATOM     14  C   UNL     1      81.170 110.915 106.251  1.00  0.00     0.009 A 
ATOM     15  C   UNL     1      83.578 111.155 102.932  1.00  0.00     0.001 A 
ATOM     16  C   UNL     1      81.911 110.001 104.148  1.00  0.00     0.009 A 
ATOM     17  C   UNL     1      82.715 110.085 103.042  1.00  0.00     0.001 A 
ENDBRANCH   7   8
ENDBRANCH   6   7
BRANCH   6  18
ATOM     18  C   UNL     1      85.276 114.501 107.588  1.00  0.00     0.045 A 
ATOM     19  C   UNL     1      85.334 115.754 108.083  1.00  0.00     0.019 A 
ATOM     20  S   UNL     1      85.370 113.489 109.048  1.00  0.00    -0.145 S 
ATOM     21  C   UNL     1      85.435 115.961 109.391  1.00  0.00     0.012 A 
ATOM     22  C   UNL     1      85.478 114.852 110.201  1.00  0.00     0.065 A 
ENDBRANCH   6  18
ENDBRANCH   1   6
TORSDOF 6
ENDMDL
MODEL 4
REMARK VINA RESULT:      -5.6      2.872      6.862
REMARK SMILES CNCC[C@H](Oc1cccc2ccccc12)c1cccs1
REMARK SMILES IDX 4 1 3 2 2 3 1 4 5 6 6 7 7 8 8 9 16 10 9 11 15 12 11 13 10 14
REMARK SMILES IDX 14 15 12 16 13 17 17 18 18 19 21 20 19 21 20 22
REMARK H PARENT 2 5
ROOT
ATOM      1  C   UNL     1      85.233 113.788 109.087  1.00  0.00     0.066 C 
ENDROOT
BRANCH   1   2
ATOM      2  C   UNL     1      86.354 114.403 108.373  1.00  0.00     0.085 C 
BRANCH   2   3
ATOM      3  N   UNL     1      86.942 113.822 107.251  1.00  0.00    -0.320 NA
ATOM      4  C   UNL     1      87.633 114.594 106.300  1.00  0.00     0.101 C 
ATOM      5  H   UNL     1      87.206 112.836 107.264  1.00  0.00     0.122 HD
ENDBRANCH   2   3
ENDBRANCH   1   2
BRANCH   1   6
ATOM      6  C   UNL     1      83.829 113.985 108.662  1.00  0.00     0.215 C 
BRANCH   6   7
ATOM      7  O   UNL     1      83.552 113.995 107.300  1.00  0.00    -0.484 OA
BRANCH   7   8
ATOM      8  C   UNL     1      82.890 112.976 106.660  1.00  0.00     0.128 A 
ATOM      9  C   UNL     1      81.840 112.289 107.184  1.00  0.00     0.047 A 
ATOM     10  C   UNL     1      83.347 112.638 105.371  1.00  0.00     0.024 A 
ATOM     11  C   UNL     1      81.245 111.272 106.438  1.00  0.00     0.004 A 
ATOM     12  C   UNL     1      84.412 113.335 104.824  1.00  0.00     0.012 A 
ATOM     13  C   UNL     1      82.770 111.633 104.617  1.00  0.00    -0.015 A 
ATOM     14  C   UNL     1      81.692 110.944 105.183  1.00  0.00     0.009 A 
ATOM     15  C   UNL     1      84.852 113.006 103.561  1.00  0.00     0.001 A 
ATOM     16  C   UNL     1      83.218 111.310 103.354  1.00  0.00     0.009 A 
ATOM     17  C   UNL     1      84.272 112.001 102.817  1.00  0.00     0.001 A 
ENDBRANCH   7   8
ENDBRANCH   6   7
BRANCH   6  18
ATOM     18  C   UNL     1      83.423 115.329 109.247  1.00  0.00     0.045 A 
ATOM     19  C   UNL     1      83.824 115.954 110.372  1.00  0.00     0.019 A 
ATOM     20  S   UNL     1      82.252 116.471 108.551  1.00  0.00    -0.145 S 
ATOM     21  C   UNL     1      83.333 117.144 110.698  1.00  0.00     0.012 A 
ATOM     22  C   UNL     1      82.410 117.697 109.844  1.00  0.00     0.065 A 
ENDBRANCH   6  18
ENDBRANCH   1   6
TORSDOF 6
ENDMDL
MODEL 5
REMARK VINA RESULT:      -5.6      1.433      1.923
REMARK SMILES CNCC[C@H](Oc1cccc2ccccc12)c1cccs1
REMARK SMILES IDX 4 1 3 2 2 3 1 4 5 6 6 7 7 8 8 9 16 10 9 11 15 12 11 13 10 14
REMARK SMILES IDX 14 15 12 16 13 17 17 18 18 19 21 20 19 21 20 22
REMARK H PARENT 2 5
ROOT
ATOM      1  C   UNL     1      86.228 112.982 102.149  1.00  0.00     0.066 C 
ENDROOT
BRANCH   1   2
ATOM      2  C   UNL     1      84.914 112.532 101.684  1.00  0.00     0.085 C 
BRANCH   2   3
ATOM      3  N   UNL     1      83.804 112.453 102.523  1.00  0.00    -0.320 NA
ATOM      4  C   UNL     1      83.534 111.298 103.279  1.00  0.00     0.101 C 
ATOM      5  H   UNL     1      83.379 113.305 102.891  1.00  0.00     0.122 HD
ENDBRANCH   2   3
ENDBRANCH   1   2
BRANCH   1   6
ATOM      6  C   UNL     1      86.390 114.175 103.009  1.00  0.00     0.215 C 
BRANCH   6   7
ATOM      7  O   UNL     1      85.608 114.269 104.154  1.00  0.00    -0.484 OA
BRANCH   7   8
ATOM      8  C   UNL     1      86.134 114.338 105.421  1.00  0.00     0.128 A 
ATOM      9  C   UNL     1      87.397 114.749 105.710  1.00  0.00     0.047 A 
ATOM     10  C   UNL     1      85.288 113.953 106.479  1.00  0.00     0.024 A 
ATOM     11  C   UNL     1      87.823 114.779 107.038  1.00  0.00     0.004 A 
ATOM     12  C   UNL     1      83.996 113.537 106.198  1.00  0.00     0.012 A 
ATOM     13  C   UNL     1      85.691 113.976 107.801  1.00  0.00    -0.015 A 
ATOM     14  C   UNL     1      86.996 114.404 108.066  1.00  0.00     0.009 A 
ATOM     15  C   UNL     1      83.169 113.167 107.235  1.00  0.00     0.001 A 
ATOM     16  C   UNL     1      84.856 113.603 108.832  1.00  0.00     0.009 A 
ATOM     17  C   UNL     1      83.580 113.192 108.551  1.00  0.00     0.001 A 
ENDBRANCH   7   8
ENDBRANCH   6   7
BRANCH   6  18
ATOM     18  C   UNL     1      86.071 115.359 102.109  1.00  0.00     0.045 A 
ATOM     19  C   UNL     1      86.640 115.762 100.955  1.00  0.00     0.019 A 
ATOM     20  S   UNL     1      84.798 116.571 102.373  1.00  0.00    -0.145 S 
ATOM     21  C   UNL     1      86.196 116.842 100.323  1.00  0.00     0.012 A 
ATOM     22  C   UNL     1      85.145 117.517 100.896  1.00  0.00     0.065 A 
ENDBRANCH   6  18
ENDBRANCH   1   6
TORSDOF 6
ENDMDL
MODEL 6
REMARK VINA RESULT:      -5.6      3.161      6.448
REMARK SMILES CNCC[C@H](Oc1cccc2ccccc12)c1cccs1
REMARK SMILES IDX 4 1 3 2 2 3 1 4 5 6 6 7 7 8 8 9 16 10 9 11 15 12 11 13 10 14
REMARK SMILES IDX 14 15 12 16 13 17 17 18 18 19 21 20 19 21 20 22
REMARK H PARENT 2 5
ROOT
ATOM      1  C   UNL     1      85.874 114.046 106.784  1.00  0.00     0.066 C 
ENDROOT
BRANCH   1   2
ATOM      2  C   UNL     1      85.824 115.204 105.890  1.00  0.00     0.085 C 
BRANCH   2   3
ATOM      3  N   UNL     1      84.628 115.802 105.499  1.00  0.00    -0.320 NA
ATOM      4  C   UNL     1      84.255 115.884 104.145  1.00  0.00     0.101 C 
ATOM      5  H   UNL     1      83.848 115.864 106.154  1.00  0.00     0.122 HD
ENDBRANCH   2   3
ENDBRANCH   1   2
BRANCH   1   6
ATOM      6  C   UNL     1      84.686 113.580 107.532  1.00  0.00     0.215 C 
BRANCH   6   7
ATOM      7  O   UNL     1      83.443 113.681 106.918  1.00  0.00    -0.484 OA
BRANCH   7   8
ATOM      8  C   UNL     1      82.858 112.647 106.228  1.00  0.00     0.128 A 
ATOM      9  C   UNL     1      83.109 112.350 104.926  1.00  0.00     0.047 A 
ATOM     10  C   UNL     1      81.940 111.852 106.941  1.00  0.00     0.024 A 
ATOM     11  C   UNL     1      82.455 111.272 104.329  1.00  0.00     0.004 A 
ATOM     12  C   UNL     1      81.681 112.141 108.271  1.00  0.00     0.012 A 
ATOM     13  C   UNL     1      81.283 110.780 106.368  1.00  0.00    -0.015 A 
ATOM     14  C   UNL     1      81.561 110.499 105.026  1.00  0.00     0.009 A 
ATOM     15  C   UNL     1      80.787 111.358 108.967  1.00  0.00     0.001 A 
ATOM     16  C   UNL     1      80.389 110.002 107.072  1.00  0.00     0.009 A 
ATOM     17  C   UNL     1      80.134 110.291 108.387  1.00  0.00     0.001 A 
ENDBRANCH   7   8
ENDBRANCH   6   7
BRANCH   6  18
ATOM     18  C   UNL     1      84.665 114.414 108.804  1.00  0.00     0.045 A 
ATOM     19  C   UNL     1      85.517 114.444 109.848  1.00  0.00     0.019 A 
ATOM     20  S   UNL     1      83.442 115.625 109.250  1.00  0.00    -0.145 S 
ATOM     21  C   UNL     1      85.305 115.265 110.871  1.00  0.00     0.012 A 
ATOM     22  C   UNL     1      84.193 116.068 110.812  1.00  0.00     0.065 A 
ENDBRANCH   6  18
ENDBRANCH   1   6
TORSDOF 6
ENDMDL
MODEL 7
REMARK VINA RESULT:      -5.6      2.898      6.821
REMARK SMILES CNCC[C@H](Oc1cccc2ccccc12)c1cccs1
REMARK SMILES IDX 4 1 3 2 2 3 1 4 5 6 6 7 7 8 8 9 16 10 9 11 15 12 11 13 10 14
REMARK SMILES IDX 14 15 12 16 13 17 17 18 18 19 21 20 19 21 20 22
REMARK H PARENT 2 5
ROOT
ATOM      1  C   UNL     1      86.046 113.795 108.062  1.00  0.00     0.066 C 
ENDROOT
BRANCH   1   2
ATOM      2  C   UNL     1      86.713 114.804 107.237  1.00  0.00     0.085 C 
BRANCH   2   3
ATOM      3  N   UNL     1      86.125 115.360 106.103  1.00  0.00    -0.320 NA
ATOM      4  C   UNL     1      85.596 116.663 106.112  1.00  0.00     0.101 C 
ATOM      5  H   UNL     1      86.374 115.014 105.176  1.00  0.00     0.122 HD
ENDBRANCH   2   3
ENDBRANCH   1   2
BRANCH   1   6
ATOM      6  C   UNL     1      84.573 113.730 108.184  1.00  0.00     0.215 C 
BRANCH   6   7
ATOM      7  O   UNL     1      83.814 113.825 107.024  1.00  0.00    -0.484 OA
BRANCH   7   8
ATOM      8  C   UNL     1      82.945 112.844 106.612  1.00  0.00     0.128 A 
ATOM      9  C   UNL     1      81.923 112.353 107.364  1.00  0.00     0.047 A 
ATOM     10  C   UNL     1      83.144 112.327 105.317  1.00  0.00     0.024 A 
ATOM     11  C   UNL     1      81.103 111.355 106.838  1.00  0.00     0.004 A 
ATOM     12  C   UNL     1      84.177 112.823 104.539  1.00  0.00     0.012 A 
ATOM     13  C   UNL     1      82.341 111.338 104.779  1.00  0.00    -0.015 A 
ATOM     14  C   UNL     1      81.299 110.853 105.576  1.00  0.00     0.009 A 
ATOM     15  C   UNL     1      84.366 112.320 103.271  1.00  0.00     0.001 A 
ATOM     16  C   UNL     1      82.538 110.840 103.509  1.00  0.00     0.009 A 
ATOM     17  C   UNL     1      83.561 111.333 102.743  1.00  0.00     0.001 A 
ENDBRANCH   7   8
ENDBRANCH   6   7
BRANCH   6  18
ATOM     18  C   UNL     1      84.201 114.886 109.100  1.00  0.00     0.045 A 
ATOM     19  C   UNL     1      84.747 115.297 110.261  1.00  0.00     0.019 A 
ATOM     20  S   UNL     1      82.877 116.046 108.848  1.00  0.00    -0.145 S 
ATOM     21  C   UNL     1      84.257 116.350 110.905  1.00  0.00     0.012 A 
ATOM     22  C   UNL     1      83.181 116.988 110.337  1.00  0.00     0.065 A 
ENDBRANCH   6  18
ENDBRANCH   1   6
TORSDOF 6
ENDMDL
MODEL 8
REMARK VINA RESULT:      -5.6      1.171      2.736
REMARK SMILES CNCC[C@H](Oc1cccc2ccccc12)c1cccs1
REMARK SMILES IDX 4 1 3 2 2 3 1 4 5 6 6 7 7 8 8 9 16 10 9 11 15 12 11 13 10 14
REMARK SMILES IDX 14 15 12 16 13 17 17 18 18 19 21 20 19 21 20 22
REMARK H PARENT 2 5
ROOT
ATOM      1  C   UNL     1      82.247 111.703 103.961  1.00  0.00     0.066 C 
ENDROOT
BRANCH   1   2
ATOM      2  C   UNL     1      81.831 110.455 104.604  1.00  0.00     0.085 C 
BRANCH   2   3
ATOM      3  N   UNL     1      81.279 110.413 105.882  1.00  0.00    -0.320 NA
ATOM      4  C   UNL     1      80.429 109.367 106.283  1.00  0.00     0.101 C 
ATOM      5  H   UNL     1      81.736 110.902 106.653  1.00  0.00     0.122 HD
ENDBRANCH   2   3
ENDBRANCH   1   2
BRANCH   1   6
ATOM      6  C   UNL     1      83.584 112.296 104.191  1.00  0.00     0.215 C 
BRANCH   6   7
ATOM      7  O   UNL     1      83.661 113.471 104.930  1.00  0.00    -0.484 OA
BRANCH   7   8
ATOM      8  C   UNL     1      84.009 113.501 106.259  1.00  0.00     0.128 A 
ATOM      9  C   UNL     1      83.189 113.132 107.279  1.00  0.00     0.047 A 
ATOM     10  C   UNL     1      85.311 113.946 106.562  1.00  0.00     0.024 A 
ATOM     11  C   UNL     1      83.653 113.204 108.593  1.00  0.00     0.004 A 
ATOM     12  C   UNL     1      86.158 114.318 105.530  1.00  0.00     0.012 A 
ATOM     13  C   UNL     1      85.788 114.024 107.856  1.00  0.00    -0.015 A 
ATOM     14  C   UNL     1      84.921 113.639 108.885  1.00  0.00     0.009 A 
ATOM     15  C   UNL     1      87.432 114.747 105.829  1.00  0.00     0.001 A 
ATOM     16  C   UNL     1      87.065 114.455 108.146  1.00  0.00     0.009 A 
ATOM     17  C   UNL     1      87.899 114.823 107.123  1.00  0.00     0.001 A 
ENDBRANCH   7   8
ENDBRANCH   6   7
BRANCH   6  18
ATOM     18  C   UNL     1      84.143 112.563 102.802  1.00  0.00     0.045 A 
ATOM     19  C   UNL     1      85.416 112.590 102.359  1.00  0.00     0.019 A 
ATOM     20  S   UNL     1      83.201 112.925 101.338  1.00  0.00    -0.145 S 
ATOM     21  C   UNL     1      85.683 112.846 101.083  1.00  0.00     0.012 A 
ATOM     22  C   UNL     1      84.614 113.079 100.252  1.00  0.00     0.065 A 
ENDBRANCH   6  18
ENDBRANCH   1   6
TORSDOF 6
ENDMDL
MODEL 9
REMARK VINA RESULT:      -5.5      2.814      4.486
REMARK SMILES CNCC[C@H](Oc1cccc2ccccc12)c1cccs1
REMARK SMILES IDX 4 1 3 2 2 3 1 4 5 6 6 7 7 8 8 9 16 10 9 11 15 12 11 13 10 14
REMARK SMILES IDX 14 15 12 16 13 17 17 18 18 19 21 20 19 21 20 22
REMARK H PARENT 2 5
ROOT
ATOM      1  C   UNL     1      84.252 112.961 103.482  1.00  0.00     0.066 C 
ENDROOT
BRANCH   1   2
ATOM      2  C   UNL     1      85.527 113.582 103.846  1.00  0.00     0.085 C 
BRANCH   2   3
ATOM      3  N   UNL     1      85.609 114.733 104.626  1.00  0.00    -0.320 NA
ATOM      4  C   UNL     1      84.895 115.899 104.295  1.00  0.00     0.101 C 
ATOM      5  H   UNL     1      85.872 114.667 105.610  1.00  0.00     0.122 HD
ENDBRANCH   2   3
ENDBRANCH   1   2
BRANCH   1   6
ATOM      6  C   UNL     1      83.202 112.679 104.486  1.00  0.00     0.215 C 
BRANCH   6   7
ATOM      7  O   UNL     1      83.556 112.703 105.830  1.00  0.00    -0.484 OA
BRANCH   7   8
ATOM      8  C   UNL     1      83.013 113.583 106.734  1.00  0.00     0.128 A 
ATOM      9  C   UNL     1      81.768 114.121 106.636  1.00  0.00     0.047 A 
ATOM     10  C   UNL     1      83.819 113.935 107.835  1.00  0.00     0.024 A 
ATOM     11  C   UNL     1      81.322 115.005 107.618  1.00  0.00     0.004 A 
ATOM     12  C   UNL     1      85.087 113.389 107.950  1.00  0.00     0.012 A 
ATOM     13  C   UNL     1      83.395 114.809 108.818  1.00  0.00    -0.015 A 
ATOM     14  C   UNL     1      82.110 115.346 108.688  1.00  0.00     0.009 A 
ATOM     15  C   UNL     1      85.871 113.731 109.030  1.00  0.00     0.001 A 
ATOM     16  C   UNL     1      84.186 115.146 109.895  1.00  0.00     0.009 A 
ATOM     17  C   UNL     1      85.440 114.604 110.005  1.00  0.00     0.001 A 
ENDBRANCH   7   8
ENDBRANCH   6   7
BRANCH   6  18
ATOM     18  C   UNL     1      82.693 111.286 104.146  1.00  0.00     0.045 A 
ATOM     19  C   UNL     1      83.026 110.450 103.143  1.00  0.00     0.019 A 
ATOM     20  S   UNL     1      81.463 110.366 105.042  1.00  0.00    -0.145 S 
ATOM     21  C   UNL     1      82.448 109.260 103.034  1.00  0.00     0.012 A 
ATOM     22  C   UNL     1      81.508 108.929 103.980  1.00  0.00     0.065 A 
ENDBRANCH   6  18
ENDBRANCH   1   6
TORSDOF 6
ENDMDL
