MODEL 1
REMARK VINA RESULT:      -4.4      0.000      0.000
REMARK SMILES CC1=[NH+]c2ccc(Cl)cc2S(=O)(=O)N1
REMARK SMILES IDX 1 1 2 2 3 3 4 4 5 5 6 6 7 7 8 8 9 9 10 10 11 11 12 12 13 13
REMARK SMILES IDX 14 14
REMARK H PARENT 3 15 14 16
ROOT
ATOM      1  C   UNL     1      26.715  -0.662  26.961  1.00  0.00     0.146 C 
ATOM      2  C   UNL     1      27.861  -0.044  27.725  1.00  0.00     0.259 C 
ATOM      3  N   UNL     1      28.946  -0.690  27.771  1.00  0.00    -0.243 N 
ATOM      4  C   UNL     1      30.121  -0.266  28.439  1.00  0.00     0.147 A 
ATOM      5  C   UNL     1      31.250  -1.089  28.403  1.00  0.00     0.055 A 
ATOM      6  C   UNL     1      32.425  -0.742  29.031  1.00  0.00     0.025 A 
ATOM      7  C   UNL     1      32.534   0.437  29.721  1.00  0.00     0.042 A 
ATOM      8  Cl  UNL     1      34.011   0.873  30.510  1.00  0.00    -0.084 Cl
ATOM      9  C   UNL     1      31.423   1.246  29.758  1.00  0.00     0.049 A 
ATOM     10  C   UNL     1      30.256   0.911  29.141  1.00  0.00     0.156 A 
ATOM     11  S   UNL     1      28.863   1.978  29.213  1.00  0.00     0.332 S 
ATOM     12  O   UNL     1      29.181   3.346  28.697  1.00  0.00    -0.179 OA
ATOM     13  O   UNL     1      28.401   2.035  30.658  1.00  0.00    -0.179 OA
ATOM     14  N   UNL     1      27.614   1.205  28.323  1.00  0.00    -0.166 N 
ATOM     15  H   UNL     1      28.987  -1.613  27.277  1.00  0.00     0.312 HD
ATOM     16  H   UNL     1      26.672   1.611  28.200  1.00  0.00     0.327 HD
ENDROOT
TORSDOF 0
ENDMDL
MODEL 2
REMARK VINA RESULT:      -4.3      9.387     10.003
REMARK SMILES CC1=[NH+]c2ccc(Cl)cc2S(=O)(=O)N1
REMARK SMILES IDX 1 1 2 2 3 3 4 4 5 5 6 6 7 7 8 8 9 9 10 10 11 11 12 12 13 13
REMARK SMILES IDX 14 14
REMARK H PARENT 3 15 14 16
ROOT
ATOM      1  C   UNL     1      33.087   7.955  22.406  1.00  0.00     0.146 C 
ATOM      2  C   UNL     1      34.124   7.624  23.454  1.00  0.00     0.259 C 
ATOM      3  N   UNL     1      35.338   7.675  23.108  1.00  0.00    -0.243 N 
ATOM      4  C   UNL     1      36.440   7.398  23.953  1.00  0.00     0.147 A 
ATOM      5  C   UNL     1      37.732   7.495  23.429  1.00  0.00     0.055 A 
ATOM      6  C   UNL     1      38.848   7.240  24.192  1.00  0.00     0.025 A 
ATOM      7  C   UNL     1      38.736   6.877  25.509  1.00  0.00     0.042 A 
ATOM      8  Cl  UNL     1      40.140   6.555  26.468  1.00  0.00    -0.084 Cl
ATOM      9  C   UNL     1      37.465   6.780  26.024  1.00  0.00     0.049 A 
ATOM     10  C   UNL     1      36.354   7.030  25.278  1.00  0.00     0.156 A 
ATOM     11  S   UNL     1      34.749   6.895  25.980  1.00  0.00     0.332 S 
ATOM     12  O   UNL     1      34.594   7.766  27.187  1.00  0.00    -0.179 OA
ATOM     13  O   UNL     1      34.521   5.435  26.329  1.00  0.00    -0.179 OA
ATOM     14  N   UNL     1      33.639   7.286  24.730  1.00  0.00    -0.166 N 
ATOM     15  H   UNL     1      35.554   7.943  22.118  1.00  0.00     0.312 HD
ATOM     16  H   UNL     1      32.614   7.287  24.863  1.00  0.00     0.327 HD
ENDROOT
TORSDOF 0
ENDMDL
MODEL 3
REMARK VINA RESULT:      -4.3      9.479     10.424
REMARK SMILES CC1=[NH+]c2ccc(Cl)cc2S(=O)(=O)N1
REMARK SMILES IDX 1 1 2 2 3 3 4 4 5 5 6 6 7 7 8 8 9 9 10 10 11 11 12 12 13 13
REMARK SMILES IDX 14 14
REMARK H PARENT 3 15 14 16
ROOT
ATOM      1  C   UNL     1      34.249   7.455  28.427  1.00  0.00     0.146 C 
ATOM      2  C   UNL     1      34.205   7.627  26.927  1.00  0.00     0.259 C 
ATOM      3  N   UNL     1      33.073   7.804  26.394  1.00  0.00    -0.243 N 
ATOM      4  C   UNL     1      32.842   7.983  25.009  1.00  0.00     0.147 A 
ATOM      5  C   UNL     1      31.530   8.170  24.563  1.00  0.00     0.055 A 
ATOM      6  C   UNL     1      31.232   8.349  23.232  1.00  0.00     0.025 A 
ATOM      7  C   UNL     1      32.219   8.351  22.281  1.00  0.00     0.042 A 
ATOM      8  Cl  UNL     1      31.844   8.576  20.607  1.00  0.00    -0.084 Cl
ATOM      9  C   UNL     1      33.510   8.167  22.719  1.00  0.00     0.049 A 
ATOM     10  C   UNL     1      33.815   7.988  24.034  1.00  0.00     0.156 A 
ATOM     11  S   UNL     1      35.479   7.757  24.548  1.00  0.00     0.332 S 
ATOM     12  O   UNL     1      36.359   8.884  24.107  1.00  0.00    -0.179 OA
ATOM     13  O   UNL     1      35.958   6.436  23.974  1.00  0.00    -0.179 OA
ATOM     14  N   UNL     1      35.439   7.572  26.254  1.00  0.00    -0.166 N 
ATOM     15  H   UNL     1      32.234   7.823  27.022  1.00  0.00     0.312 HD
ATOM     16  H   UNL     1      36.284   7.419  26.827  1.00  0.00     0.327 HD
ENDROOT
TORSDOF 0
ENDMDL
MODEL 4
REMARK VINA RESULT:      -4.2      8.896      9.967
REMARK SMILES CC1=[NH+]c2ccc(Cl)cc2S(=O)(=O)N1
REMARK SMILES IDX 1 1 2 2 3 3 4 4 5 5 6 6 7 7 8 8 9 9 10 10 11 11 12 12 13 13
REMARK SMILES IDX 14 14
REMARK H PARENT 3 15 14 16
ROOT
ATOM      1  C   UNL     1      39.136   6.054  26.150  1.00  0.00     0.146 C 
ATOM      2  C   UNL     1      37.649   6.309  26.098  1.00  0.00     0.259 C 
ATOM      3  N   UNL     1      37.170   6.752  25.016  1.00  0.00    -0.243 N 
ATOM      4  C   UNL     1      35.804   7.047  24.787  1.00  0.00     0.147 A 
ATOM      5  C   UNL     1      35.420   7.531  23.534  1.00  0.00     0.055 A 
ATOM      6  C   UNL     1      34.111   7.840  23.242  1.00  0.00     0.025 A 
ATOM      7  C   UNL     1      33.123   7.682  24.178  1.00  0.00     0.042 A 
ATOM      8  Cl  UNL     1      31.478   8.070  23.810  1.00  0.00    -0.084 Cl
ATOM      9  C   UNL     1      33.501   7.206  25.412  1.00  0.00     0.049 A 
ATOM     10  C   UNL     1      34.793   6.898  25.711  1.00  0.00     0.156 A 
ATOM     11  S   UNL     1      35.228   6.292  27.300  1.00  0.00     0.332 S 
ATOM     12  O   UNL     1      34.457   5.060  27.657  1.00  0.00    -0.179 OA
ATOM     13  O   UNL     1      34.973   7.403  28.303  1.00  0.00    -0.179 OA
ATOM     14  N   UNL     1      36.925   6.030  27.272  1.00  0.00    -0.166 N 
ATOM     15  H   UNL     1      37.831   6.914  24.219  1.00  0.00     0.312 HD
ATOM     16  H   UNL     1      37.456   5.672  28.082  1.00  0.00     0.327 HD
ENDROOT
TORSDOF 0
ENDMDL
MODEL 5
REMARK VINA RESULT:      -4.0      8.481      9.407
REMARK SMILES CC1=[NH+]c2ccc(Cl)cc2S(=O)(=O)N1
REMARK SMILES IDX 1 1 2 2 3 3 4 4 5 5 6 6 7 7 8 8 9 9 10 10 11 11 12 12 13 13
REMARK SMILES IDX 14 14
REMARK H PARENT 3 15 14 16
ROOT
ATOM      1  C   UNL     1      34.369   4.412  29.053  1.00  0.00     0.146 C 
ATOM      2  C   UNL     1      34.901   5.333  27.980  1.00  0.00     0.259 C 
ATOM      3  N   UNL     1      36.116   5.211  27.657  1.00  0.00    -0.243 N 
ATOM      4  C   UNL     1      36.782   5.986  26.677  1.00  0.00     0.147 A 
ATOM      5  C   UNL     1      38.134   5.736  26.425  1.00  0.00     0.055 A 
ATOM      6  C   UNL     1      38.844   6.450  25.487  1.00  0.00     0.025 A 
ATOM      7  C   UNL     1      38.247   7.444  24.755  1.00  0.00     0.042 A 
ATOM      8  Cl  UNL     1      39.141   8.341  23.576  1.00  0.00    -0.084 Cl
ATOM      9  C   UNL     1      36.917   7.690  25.003  1.00  0.00     0.049 A 
ATOM     10  C   UNL     1      36.206   6.989  25.929  1.00  0.00     0.156 A 
ATOM     11  S   UNL     1      34.508   7.338  26.211  1.00  0.00     0.332 S 
ATOM     12  O   UNL     1      33.701   7.229  24.956  1.00  0.00    -0.179 OA
ATOM     13  O   UNL     1      34.417   8.736  26.797  1.00  0.00    -0.179 OA
ATOM     14  N   UNL     1      33.987   6.253  27.435  1.00  0.00    -0.166 N 
ATOM     15  H   UNL     1      36.683   4.479  28.150  1.00  0.00     0.312 HD
ATOM     16  H   UNL     1      33.021   6.235  27.803  1.00  0.00     0.327 HD
ENDROOT
TORSDOF 0
ENDMDL
MODEL 6
REMARK VINA RESULT:      -4.0      8.957      9.567
REMARK SMILES CC1=[NH+]c2ccc(Cl)cc2S(=O)(=O)N1
REMARK SMILES IDX 1 1 2 2 3 3 4 4 5 5 6 6 7 7 8 8 9 9 10 10 11 11 12 12 13 13
REMARK SMILES IDX 14 14
REMARK H PARENT 3 15 14 16
ROOT
ATOM      1  C   UNL     1      31.794   7.938  24.014  1.00  0.00     0.146 C 
ATOM      2  C   UNL     1      33.137   7.616  24.626  1.00  0.00     0.259 C 
ATOM      3  N   UNL     1      34.157   7.747  23.893  1.00  0.00    -0.243 N 
ATOM      4  C   UNL     1      35.490   7.492  24.296  1.00  0.00     0.147 A 
ATOM      5  C   UNL     1      36.522   7.682  23.373  1.00  0.00     0.055 A 
ATOM      6  C   UNL     1      37.840   7.453  23.696  1.00  0.00     0.025 A 
ATOM      7  C   UNL     1      38.196   7.025  24.948  1.00  0.00     0.042 A 
ATOM      8  Cl  UNL     1      39.853   6.736  25.353  1.00  0.00    -0.084 Cl
ATOM      9  C   UNL     1      37.181   6.837  25.857  1.00  0.00     0.049 A 
ATOM     10  C   UNL     1      35.874   7.061  25.547  1.00  0.00     0.156 A 
ATOM     11  S   UNL     1      34.611   6.808  26.741  1.00  0.00     0.332 S 
ATOM     12  O   UNL     1      34.847   7.613  27.980  1.00  0.00    -0.179 OA
ATOM     13  O   UNL     1      34.567   5.324  27.057  1.00  0.00    -0.179 OA
ATOM     14  N   UNL     1      33.128   7.195  25.968  1.00  0.00    -0.166 N 
ATOM     15  H   UNL     1      34.013   8.072  22.907  1.00  0.00     0.312 HD
ATOM     16  H   UNL     1      32.211   7.135  26.440  1.00  0.00     0.327 HD
ENDROOT
TORSDOF 0
ENDMDL
MODEL 7
REMARK VINA RESULT:      -3.9     19.215     19.721
REMARK SMILES CC1=[NH+]c2ccc(Cl)cc2S(=O)(=O)N1
REMARK SMILES IDX 1 1 2 2 3 3 4 4 5 5 6 6 7 7 8 8 9 9 10 10 11 11 12 12 13 13
REMARK SMILES IDX 14 14
REMARK H PARENT 3 15 14 16
ROOT
ATOM      1  C   UNL     1      37.249   6.033  14.906  1.00  0.00     0.146 C 
ATOM      2  C   UNL     1      38.004   5.332  13.801  1.00  0.00     0.259 C 
ATOM      3  N   UNL     1      37.556   4.219  13.405  1.00  0.00    -0.243 N 
ATOM      4  C   UNL     1      38.131   3.424  12.384  1.00  0.00     0.147 A 
ATOM      5  C   UNL     1      37.522   2.211  12.050  1.00  0.00     0.055 A 
ATOM      6  C   UNL     1      38.027   1.388  11.069  1.00  0.00     0.025 A 
ATOM      7  C   UNL     1      39.157   1.729  10.373  1.00  0.00     0.042 A 
ATOM      8  Cl  UNL     1      39.790   0.694   9.141  1.00  0.00    -0.084 Cl
ATOM      9  C   UNL     1      39.757   2.922  10.702  1.00  0.00     0.049 A 
ATOM     10  C   UNL     1      39.266   3.743  11.671  1.00  0.00     0.156 A 
ATOM     11  S   UNL     1      40.066   5.259  12.055  1.00  0.00     0.332 S 
ATOM     12  O   UNL     1      40.202   6.138  10.852  1.00  0.00    -0.179 OA
ATOM     13  O   UNL     1      41.426   4.926  12.642  1.00  0.00    -0.179 OA
ATOM     14  N   UNL     1      39.148   5.987  13.311  1.00  0.00    -0.166 N 
ATOM     15  H   UNL     1      36.689   3.849  13.863  1.00  0.00     0.312 HD
ATOM     16  H   UNL     1      39.392   6.896  13.736  1.00  0.00     0.327 HD
ENDROOT
TORSDOF 0
ENDMDL
MODEL 8
REMARK VINA RESULT:      -3.8     20.140     20.476
REMARK SMILES CC1=[NH+]c2ccc(Cl)cc2S(=O)(=O)N1
REMARK SMILES IDX 1 1 2 2 3 3 4 4 5 5 6 6 7 7 8 8 9 9 10 10 11 11 12 12 13 13
REMARK SMILES IDX 14 14
REMARK H PARENT 3 15 14 16
ROOT
ATOM      1  C   UNL     1      35.971  -0.007   9.020  1.00  0.00     0.146 C 
ATOM      2  C   UNL     1      37.087   0.798   9.642  1.00  0.00     0.259 C 
ATOM      3  N   UNL     1      38.207   0.231   9.782  1.00  0.00    -0.243 N 
ATOM      4  C   UNL     1      39.361   0.829  10.343  1.00  0.00     0.147 A 
ATOM      5  C   UNL     1      40.535   0.076  10.432  1.00  0.00     0.055 A 
ATOM      6  C   UNL     1      41.693   0.593  10.967  1.00  0.00     0.025 A 
ATOM      7  C   UNL     1      41.742   1.880  11.436  1.00  0.00     0.042 A 
ATOM      8  Cl  UNL     1      43.198   2.529  12.108  1.00  0.00    -0.084 Cl
ATOM      9  C   UNL     1      40.586   2.621  11.348  1.00  0.00     0.049 A 
ATOM     10  C   UNL     1      39.435   2.119  10.822  1.00  0.00     0.156 A 
ATOM     11  S   UNL     1      37.984   3.104  10.729  1.00  0.00     0.332 S 
ATOM     12  O   UNL     1      38.220   4.373   9.974  1.00  0.00    -0.179 OA
ATOM     13  O   UNL     1      37.532   3.392  12.150  1.00  0.00    -0.179 OA
ATOM     14  N   UNL     1      36.774   2.118  10.014  1.00  0.00    -0.166 N 
ATOM     15  H   UNL     1      38.297  -0.762   9.457  1.00  0.00     0.312 HD
ATOM     16  H   UNL     1      35.810   2.444   9.838  1.00  0.00     0.327 HD
ENDROOT
TORSDOF 0
ENDMDL
MODEL 9
REMARK VINA RESULT:      -3.8      9.135      9.973
REMARK SMILES CC1=[NH+]c2ccc(Cl)cc2S(=O)(=O)N1
REMARK SMILES IDX 1 1 2 2 3 3 4 4 5 5 6 6 7 7 8 8 9 9 10 10 11 11 12 12 13 13
REMARK SMILES IDX 14 14
REMARK H PARENT 3 15 14 16
ROOT
ATOM      1  C   UNL     1      34.803   5.038  28.272  1.00  0.00     0.146 C 
ATOM      2  C   UNL     1      34.896   5.955  27.076  1.00  0.00     0.259 C 
ATOM      3  N   UNL     1      35.994   5.990  26.452  1.00  0.00    -0.243 N 
ATOM      4  C   UNL     1      36.261   6.788  25.313  1.00  0.00     0.147 A 
ATOM      5  C   UNL     1      37.527   6.721  24.726  1.00  0.00     0.055 A 
ATOM      6  C   UNL     1      37.857   7.469  23.618  1.00  0.00     0.025 A 
ATOM      7  C   UNL     1      36.947   8.316  23.042  1.00  0.00     0.042 A 
ATOM      8  Cl  UNL     1      37.363   9.256  21.650  1.00  0.00    -0.084 Cl
ATOM      9  C   UNL     1      35.701   8.383  23.620  1.00  0.00     0.049 A 
ATOM     10  C   UNL     1      35.366   7.647  24.716  1.00  0.00     0.156 A 
ATOM     11  S   UNL     1      33.760   7.764  25.420  1.00  0.00     0.332 S 
ATOM     12  O   UNL     1      32.690   7.458  24.420  1.00  0.00    -0.179 OA
ATOM     13  O   UNL     1      33.602   9.169  25.974  1.00  0.00    -0.179 OA
ATOM     14  N   UNL     1      33.741   6.696  26.763  1.00  0.00    -0.166 N 
ATOM     15  H   UNL     1      36.773   5.381  26.799  1.00  0.00     0.312 HD
ATOM     16  H   UNL     1      32.915   6.562  27.369  1.00  0.00     0.327 HD
ENDROOT
TORSDOF 0
ENDMDL
