MODEL 1
REMARK VINA RESULT:      -8.1      0.000      0.000
REMARK SMILES CC/C(=C(\c1ccccc1)c1ccc(OCC[NH+](C)C)cc1)c1ccccc1
REMARK SMILES IDX 15 1 14 2 11 3 12 4 22 5 13 6 21 7 4 8 3 9 2 10 1 11 23 12
REMARK SMILES IDX 24 13 28 14 25 15 27 16 26 17 5 18 6 19 10 20 7 21 9 22 8 23
REMARK SMILES IDX 16 24 17 25 18 26 19 27 20 28
REMARK H PARENT 18 29
ROOT
ATOM      1  O   UNL     1       4.402  -2.626  -0.254  1.00  0.00    -0.488 OA
ENDROOT
BRANCH   1   2
ATOM      2  C   UNL     1       3.157  -2.534   0.341  1.00  0.00     0.119 A 
ATOM      3  C   UNL     1       0.626  -2.255   1.634  1.00  0.00    -0.017 A 
ATOM      4  C   UNL     1       0.824  -3.161   0.611  1.00  0.00     0.012 A 
ATOM      5  C   UNL     1       1.733  -1.492   1.993  1.00  0.00     0.012 A 
ATOM      6  C   UNL     1       2.059  -3.285  -0.007  1.00  0.00     0.047 A 
ATOM      7  C   UNL     1       2.951  -1.616   1.381  1.00  0.00     0.047 A 
BRANCH   3   8
ATOM      8  C   UNL     1      -0.650  -2.120   2.316  1.00  0.00    -0.007 C 
ATOM      9  C   UNL     1      -0.902  -2.697   3.462  1.00  0.00    -0.033 C 
BRANCH   9  10
ATOM     10  C   UNL     1      -2.205  -2.632   4.180  1.00  0.00     0.033 C 
ATOM     11  C   UNL     1      -3.134  -3.654   3.594  1.00  0.00     0.009 C 
ENDBRANCH   9  10
BRANCH   9  12
ATOM     12  C   UNL     1       0.148  -3.431   4.190  1.00  0.00    -0.022 A 
ATOM     13  C   UNL     1       0.582  -4.668   3.790  1.00  0.00     0.008 A 
ATOM     14  C   UNL     1       0.687  -2.852   5.299  1.00  0.00     0.008 A 
ATOM     15  C   UNL     1       1.556  -5.314   4.509  1.00  0.00     0.001 A 
ATOM     16  C   UNL     1       1.680  -3.474   6.062  1.00  0.00     0.001 A 
ATOM     17  C   UNL     1       2.096  -4.714   5.635  1.00  0.00     0.000 A 
ENDBRANCH   9  12
BRANCH   8  18
ATOM     18  C   UNL     1      -1.686  -1.342   1.668  1.00  0.00    -0.018 A 
ATOM     19  C   UNL     1      -2.043  -0.082   2.104  1.00  0.00     0.009 A 
ATOM     20  C   UNL     1      -2.386  -1.891   0.597  1.00  0.00     0.009 A 
ATOM     21  C   UNL     1      -3.066   0.581   1.475  1.00  0.00     0.001 A 
ATOM     22  C   UNL     1      -3.413  -1.239  -0.045  1.00  0.00     0.001 A 
ATOM     23  C   UNL     1      -3.754   0.030   0.413  1.00  0.00     0.000 A 
ENDBRANCH   8  18
ENDBRANCH   3   8
ENDBRANCH   1   2
BRANCH   1  24
ATOM     24  C   UNL     1       4.713  -2.922  -1.569  1.00  0.00     0.290 C 
BRANCH  24  25
ATOM     25  C   UNL     1       5.470  -4.206  -1.790  1.00  0.00     0.303 C 
BRANCH  25  26
ATOM     26  N   UNL     1       4.796  -5.105  -2.676  1.00  0.00    -0.337 N 
ATOM     27  C   UNL     1       4.150  -4.442  -3.788  1.00  0.00     0.332 C 
ATOM     28  C   UNL     1       3.786  -5.902  -2.010  1.00  0.00     0.332 C 
ATOM     29  H   UNL     1       5.472  -5.806  -3.104  1.00  0.00     0.347 HD
ENDBRANCH  25  26
ENDBRANCH  24  25
ENDBRANCH   1  24
TORSDOF 8
ENDMDL
MODEL 2
REMARK VINA RESULT:      -7.9      0.547      1.506
REMARK SMILES CC/C(=C(\c1ccccc1)c1ccc(OCC[NH+](C)C)cc1)c1ccccc1
REMARK SMILES IDX 15 1 14 2 11 3 12 4 22 5 13 6 21 7 4 8 3 9 2 10 1 11 23 12
REMARK SMILES IDX 24 13 28 14 25 15 27 16 26 17 5 18 6 19 10 20 7 21 9 22 8 23
REMARK SMILES IDX 16 24 17 25 18 26 19 27 20 28
REMARK H PARENT 18 29
ROOT
ATOM      1  O   UNL     1       4.072  -3.029  -0.581  1.00  0.00    -0.488 OA
ENDROOT
BRANCH   1   2
ATOM      2  C   UNL     1       2.927  -2.789   0.156  1.00  0.00     0.119 A 
ATOM      3  C   UNL     1       0.511  -2.385   1.626  1.00  0.00    -0.017 A 
ATOM      4  C   UNL     1       1.641  -1.626   1.860  1.00  0.00     0.012 A 
ATOM      5  C   UNL     1       0.624  -3.352   0.632  1.00  0.00     0.012 A 
ATOM      6  C   UNL     1       2.806  -1.835   1.139  1.00  0.00     0.047 A 
ATOM      7  C   UNL     1       1.777  -3.556  -0.079  1.00  0.00     0.047 A 
BRANCH   3   8
ATOM      8  C   UNL     1      -0.730  -2.173   2.349  1.00  0.00    -0.007 C 
ATOM      9  C   UNL     1      -0.937  -2.646   3.551  1.00  0.00    -0.033 C 
BRANCH   9  10
ATOM     10  C   UNL     1      -2.205  -2.500   4.318  1.00  0.00     0.033 C 
ATOM     11  C   UNL     1      -3.167  -3.561   3.872  1.00  0.00     0.009 C 
ENDBRANCH   9  10
BRANCH   9  12
ATOM     12  C   UNL     1       0.137  -3.330   4.293  1.00  0.00    -0.022 A 
ATOM     13  C   UNL     1       0.574  -4.583   3.949  1.00  0.00     0.008 A 
ATOM     14  C   UNL     1       0.695  -2.687   5.356  1.00  0.00     0.008 A 
ATOM     15  C   UNL     1       1.571  -5.180   4.679  1.00  0.00     0.001 A 
ATOM     16  C   UNL     1       1.712  -3.258   6.127  1.00  0.00     0.001 A 
ATOM     17  C   UNL     1       2.130  -4.516   5.758  1.00  0.00     0.000 A 
ENDBRANCH   9  12
BRANCH   8  18
ATOM     18  C   UNL     1      -1.786  -1.438   1.683  1.00  0.00    -0.018 A 
ATOM     19  C   UNL     1      -2.488  -1.961   0.615  1.00  0.00     0.009 A 
ATOM     20  C   UNL     1      -2.081  -0.141   2.092  1.00  0.00     0.009 A 
ATOM     21  C   UNL     1      -3.442  -1.193  -0.002  1.00  0.00     0.001 A 
ATOM     22  C   UNL     1      -3.036   0.642   1.486  1.00  0.00     0.001 A 
ATOM     23  C   UNL     1      -3.730   0.092   0.412  1.00  0.00     0.000 A 
ENDBRANCH   8  18
ENDBRANCH   3   8
ENDBRANCH   1   2
BRANCH   1  24
ATOM     24  C   UNL     1       4.188  -3.323  -1.928  1.00  0.00     0.290 C 
BRANCH  24  25
ATOM     25  C   UNL     1       4.532  -4.752  -2.259  1.00  0.00     0.303 C 
BRANCH  25  26
ATOM     26  N   UNL     1       3.786  -5.262  -3.369  1.00  0.00    -0.337 N 
ATOM     27  C   UNL     1       3.685  -6.706  -3.379  1.00  0.00     0.332 C 
ATOM     28  C   UNL     1       4.337  -4.865  -4.648  1.00  0.00     0.332 C 
ATOM     29  H   UNL     1       2.787  -4.897  -3.365  1.00  0.00     0.347 HD
ENDBRANCH  25  26
ENDBRANCH  24  25
ENDBRANCH   1  24
TORSDOF 8
ENDMDL
MODEL 3
REMARK VINA RESULT:      -7.9      0.522      1.047
REMARK SMILES CC/C(=C(\c1ccccc1)c1ccc(OCC[NH+](C)C)cc1)c1ccccc1
REMARK SMILES IDX 15 1 14 2 11 3 12 4 22 5 13 6 21 7 4 8 3 9 2 10 1 11 23 12
REMARK SMILES IDX 24 13 28 14 25 15 27 16 26 17 5 18 6 19 10 20 7 21 9 22 8 23
REMARK SMILES IDX 16 24 17 25 18 26 19 27 20 28
REMARK H PARENT 18 29
ROOT
ATOM      1  O   UNL     1       4.191  -3.005  -0.555  1.00  0.00    -0.488 OA
ENDROOT
BRANCH   1   2
ATOM      2  C   UNL     1       2.992  -2.817   0.107  1.00  0.00     0.119 A 
ATOM      3  C   UNL     1       0.563  -2.338   1.532  1.00  0.00    -0.017 A 
ATOM      4  C   UNL     1       0.645  -3.286   0.531  1.00  0.00     0.012 A 
ATOM      5  C   UNL     1       1.734  -1.637   1.801  1.00  0.00     0.012 A 
ATOM      6  C   UNL     1       1.831  -3.506  -0.152  1.00  0.00     0.047 A 
ATOM      7  C   UNL     1       2.905  -1.856   1.125  1.00  0.00     0.047 A 
BRANCH   3   8
ATOM      8  C   UNL     1      -0.658  -2.102   2.281  1.00  0.00    -0.007 C 
ATOM      9  C   UNL     1      -0.860  -2.592   3.477  1.00  0.00    -0.033 C 
BRANCH   9  10
ATOM     10  C   UNL     1      -2.110  -2.422   4.268  1.00  0.00     0.033 C 
ATOM     11  C   UNL     1      -3.095  -3.475   3.852  1.00  0.00     0.009 C 
ENDBRANCH   9  10
BRANCH   9  12
ATOM     12  C   UNL     1       0.204  -3.324   4.186  1.00  0.00    -0.022 A 
ATOM     13  C   UNL     1       0.911  -2.761   5.217  1.00  0.00     0.008 A 
ATOM     14  C   UNL     1       0.489  -4.595   3.787  1.00  0.00     0.008 A 
ATOM     15  C   UNL     1       1.900  -3.482   5.838  1.00  0.00     0.001 A 
ATOM     16  C   UNL     1       1.487  -5.365   4.391  1.00  0.00     0.001 A 
ATOM     17  C   UNL     1       2.179  -4.773   5.423  1.00  0.00     0.000 A 
ENDBRANCH   9  12
BRANCH   8  18
ATOM     18  C   UNL     1      -1.701  -1.321   1.647  1.00  0.00    -0.018 A 
ATOM     19  C   UNL     1      -2.028  -0.048   2.068  1.00  0.00     0.009 A 
ATOM     20  C   UNL     1      -2.440  -1.880   0.608  1.00  0.00     0.009 A 
ATOM     21  C   UNL     1      -3.058   0.619   1.456  1.00  0.00     0.001 A 
ATOM     22  C   UNL     1      -3.476  -1.225  -0.017  1.00  0.00     0.001 A 
ATOM     23  C   UNL     1      -3.785   0.057   0.425  1.00  0.00     0.000 A 
ENDBRANCH   8  18
ENDBRANCH   3   8
ENDBRANCH   1   2
BRANCH   1  24
ATOM     24  C   UNL     1       4.407  -3.466  -1.842  1.00  0.00     0.290 C 
BRANCH  24  25
ATOM     25  C   UNL     1       4.422  -4.963  -2.007  1.00  0.00     0.303 C 
BRANCH  25  26
ATOM     26  N   UNL     1       4.829  -5.376  -3.316  1.00  0.00    -0.337 N 
ATOM     27  C   UNL     1       4.273  -4.562  -4.375  1.00  0.00     0.332 C 
ATOM     28  C   UNL     1       4.479  -6.751  -3.607  1.00  0.00     0.332 C 
ATOM     29  H   UNL     1       5.886  -5.323  -3.428  1.00  0.00     0.347 HD
ENDBRANCH  25  26
ENDBRANCH  24  25
ENDBRANCH   1  24
TORSDOF 8
ENDMDL
MODEL 4
REMARK VINA RESULT:      -7.9      0.435      1.413
REMARK SMILES CC/C(=C(\c1ccccc1)c1ccc(OCC[NH+](C)C)cc1)c1ccccc1
REMARK SMILES IDX 15 1 14 2 11 3 12 4 22 5 13 6 21 7 4 8 3 9 2 10 1 11 23 12
REMARK SMILES IDX 24 13 28 14 25 15 27 16 26 17 5 18 6 19 10 20 7 21 9 22 8 23
REMARK SMILES IDX 16 24 17 25 18 26 19 27 20 28
REMARK H PARENT 18 29
ROOT
ATOM      1  O   UNL     1       4.447  -2.517  -0.304  1.00  0.00    -0.488 OA
ENDROOT
BRANCH   1   2
ATOM      2  C   UNL     1       3.197  -2.482   0.286  1.00  0.00     0.119 A 
ATOM      3  C   UNL     1       0.650  -2.317   1.568  1.00  0.00    -0.017 A 
ATOM      4  C   UNL     1       0.894  -3.214   0.547  1.00  0.00     0.012 A 
ATOM      5  C   UNL     1       1.719  -1.504   1.931  1.00  0.00     0.012 A 
ATOM      6  C   UNL     1       2.135  -3.282  -0.066  1.00  0.00     0.047 A 
ATOM      7  C   UNL     1       2.945  -1.573   1.324  1.00  0.00     0.047 A 
BRANCH   3   8
ATOM      8  C   UNL     1      -0.633  -2.240   2.244  1.00  0.00    -0.007 C 
ATOM      9  C   UNL     1      -0.862  -2.821   3.393  1.00  0.00    -0.033 C 
BRANCH   9  10
ATOM     10  C   UNL     1      -2.169  -2.814   4.106  1.00  0.00     0.033 C 
ATOM     11  C   UNL     1      -2.159  -1.715   5.128  1.00  0.00     0.009 C 
ENDBRANCH   9  10
BRANCH   9  12
ATOM     12  C   UNL     1       0.220  -3.497   4.131  1.00  0.00    -0.022 A 
ATOM     13  C   UNL     1       0.893  -2.886   5.157  1.00  0.00     0.008 A 
ATOM     14  C   UNL     1       0.556  -4.764   3.761  1.00  0.00     0.008 A 
ATOM     15  C   UNL     1       1.900  -3.557   5.805  1.00  0.00     0.001 A 
ATOM     16  C   UNL     1       1.575  -5.483   4.393  1.00  0.00     0.001 A 
ATOM     17  C   UNL     1       2.232  -4.845   5.420  1.00  0.00     0.000 A 
ENDBRANCH   9  12
BRANCH   8  18
ATOM     18  C   UNL     1      -1.703  -1.517   1.587  1.00  0.00    -0.018 A 
ATOM     19  C   UNL     1      -2.432  -2.062   0.548  1.00  0.00     0.009 A 
ATOM     20  C   UNL     1      -1.986  -0.211   1.974  1.00  0.00     0.009 A 
ATOM     21  C   UNL     1      -3.400  -1.306  -0.062  1.00  0.00     0.001 A 
ATOM     22  C   UNL     1      -2.954   0.561   1.374  1.00  0.00     0.001 A 
ATOM     23  C   UNL     1      -3.675  -0.011   0.330  1.00  0.00     0.000 A 
ENDBRANCH   8  18
ENDBRANCH   3   8
ENDBRANCH   1   2
BRANCH   1  24
ATOM     24  C   UNL     1       5.086  -3.582  -0.914  1.00  0.00     0.290 C 
BRANCH  24  25
ATOM     25  C   UNL     1       5.019  -3.611  -2.419  1.00  0.00     0.303 C 
BRANCH  25  26
ATOM     26  N   UNL     1       4.870  -4.933  -2.945  1.00  0.00    -0.337 N 
ATOM     27  C   UNL     1       4.436  -4.957  -4.326  1.00  0.00     0.332 C 
ATOM     28  C   UNL     1       3.931  -5.737  -2.190  1.00  0.00     0.332 C 
ATOM     29  H   UNL     1       5.788  -5.468  -2.916  1.00  0.00     0.347 HD
ENDBRANCH  25  26
ENDBRANCH  24  25
ENDBRANCH   1  24
TORSDOF 8
ENDMDL
MODEL 5
REMARK VINA RESULT:      -7.8      1.143      1.990
REMARK SMILES CC/C(=C(\c1ccccc1)c1ccc(OCC[NH+](C)C)cc1)c1ccccc1
REMARK SMILES IDX 15 1 14 2 11 3 12 4 22 5 13 6 21 7 4 8 3 9 2 10 1 11 23 12
REMARK SMILES IDX 24 13 28 14 25 15 27 16 26 17 5 18 6 19 10 20 7 21 9 22 8 23
REMARK SMILES IDX 16 24 17 25 18 26 19 27 20 28
REMARK H PARENT 18 29
ROOT
ATOM      1  O   UNL     1       4.524  -2.280  -0.088  1.00  0.00    -0.488 OA
ENDROOT
BRANCH   1   2
ATOM      2  C   UNL     1       3.212  -2.388   0.335  1.00  0.00     0.119 A 
ATOM      3  C   UNL     1       0.483  -2.690   1.125  1.00  0.00    -0.017 A 
ATOM      4  C   UNL     1       1.363  -1.898   1.836  1.00  0.00     0.012 A 
ATOM      5  C   UNL     1       1.008  -3.326   0.004  1.00  0.00     0.012 A 
ATOM      6  C   UNL     1       2.685  -1.762   1.440  1.00  0.00     0.047 A 
ATOM      7  C   UNL     1       2.314  -3.191  -0.384  1.00  0.00     0.047 A 
BRANCH   3   8
ATOM      8  C   UNL     1      -0.912  -2.832   1.501  1.00  0.00    -0.007 C 
ATOM      9  C   UNL     1      -1.380  -3.903   2.089  1.00  0.00    -0.033 C 
BRANCH   9  10
ATOM     10  C   UNL     1      -2.806  -4.120   2.453  1.00  0.00     0.033 C 
ATOM     11  C   UNL     1      -3.053  -3.543   3.816  1.00  0.00     0.009 C 
ENDBRANCH   9  10
BRANCH   9  12
ATOM     12  C   UNL     1      -0.480  -4.991   2.511  1.00  0.00    -0.022 A 
ATOM     13  C   UNL     1       0.436  -4.828   3.518  1.00  0.00     0.008 A 
ATOM     14  C   UNL     1      -0.567  -6.186   1.863  1.00  0.00     0.008 A 
ATOM     15  C   UNL     1       1.258  -5.871   3.866  1.00  0.00     0.001 A 
ATOM     16  C   UNL     1       0.250  -7.274   2.185  1.00  0.00     0.001 A 
ATOM     17  C   UNL     1       1.159  -7.081   3.199  1.00  0.00     0.000 A 
ENDBRANCH   9  12
BRANCH   8  18
ATOM     18  C   UNL     1      -1.817  -1.749   1.172  1.00  0.00    -0.018 A 
ATOM     19  C   UNL     1      -2.018  -0.674   2.015  1.00  0.00     0.009 A 
ATOM     20  C   UNL     1      -2.551  -1.805  -0.009  1.00  0.00     0.009 A 
ATOM     21  C   UNL     1      -2.924   0.293   1.665  1.00  0.00     0.001 A 
ATOM     22  C   UNL     1      -3.463  -0.843  -0.376  1.00  0.00     0.001 A 
ATOM     23  C   UNL     1      -3.647   0.231   0.490  1.00  0.00     0.000 A 
ENDBRANCH   8  18
ENDBRANCH   3   8
ENDBRANCH   1   2
BRANCH   1  24
ATOM     24  C   UNL     1       5.080  -2.676  -1.292  1.00  0.00     0.290 C 
BRANCH  24  25
ATOM     25  C   UNL     1       5.553  -4.105  -1.357  1.00  0.00     0.303 C 
BRANCH  25  26
ATOM     26  N   UNL     1       4.996  -4.827  -2.460  1.00  0.00    -0.337 N 
ATOM     27  C   UNL     1       4.350  -3.977  -3.437  1.00  0.00     0.332 C 
ATOM     28  C   UNL     1       4.024  -5.819  -2.050  1.00  0.00     0.332 C 
ATOM     29  H   UNL     1       5.745  -5.366  -2.988  1.00  0.00     0.347 HD
ENDBRANCH  25  26
ENDBRANCH  24  25
ENDBRANCH   1  24
TORSDOF 8
ENDMDL
MODEL 6
REMARK VINA RESULT:      -7.8      0.374      1.395
REMARK SMILES CC/C(=C(\c1ccccc1)c1ccc(OCC[NH+](C)C)cc1)c1ccccc1
REMARK SMILES IDX 15 1 14 2 11 3 12 4 22 5 13 6 21 7 4 8 3 9 2 10 1 11 23 12
REMARK SMILES IDX 24 13 28 14 25 15 27 16 26 17 5 18 6 19 10 20 7 21 9 22 8 23
REMARK SMILES IDX 16 24 17 25 18 26 19 27 20 28
REMARK H PARENT 18 29
ROOT
ATOM      1  O   UNL     1       4.202  -2.751  -0.488  1.00  0.00    -0.488 OA
ENDROOT
BRANCH   1   2
ATOM      2  C   UNL     1       3.035  -2.590   0.236  1.00  0.00     0.119 A 
ATOM      3  C   UNL     1       0.576  -2.344   1.668  1.00  0.00    -0.017 A 
ATOM      4  C   UNL     1       1.685  -1.586   1.991  1.00  0.00     0.012 A 
ATOM      5  C   UNL     1       0.733  -3.228   0.606  1.00  0.00     0.012 A 
ATOM      6  C   UNL     1       2.871  -1.717   1.286  1.00  0.00     0.047 A 
ATOM      7  C   UNL     1       1.906  -3.356  -0.089  1.00  0.00     0.047 A 
BRANCH   3   8
ATOM      8  C   UNL     1      -0.687  -2.211   2.373  1.00  0.00    -0.007 C 
ATOM      9  C   UNL     1      -0.911  -2.772   3.533  1.00  0.00    -0.033 C 
BRANCH   9  10
ATOM     10  C   UNL     1      -2.200  -2.708   4.276  1.00  0.00     0.033 C 
ATOM     11  C   UNL     1      -2.172  -1.522   5.195  1.00  0.00     0.009 C 
ENDBRANCH   9  10
BRANCH   9  12
ATOM     12  C   UNL     1       0.161  -3.484   4.252  1.00  0.00    -0.022 A 
ATOM     13  C   UNL     1       0.816  -2.925   5.319  1.00  0.00     0.008 A 
ATOM     14  C   UNL     1       0.506  -4.730   3.824  1.00  0.00     0.008 A 
ATOM     15  C   UNL     1       1.814  -3.626   5.948  1.00  0.00     0.001 A 
ATOM     16  C   UNL     1       1.516  -5.479   4.434  1.00  0.00     0.001 A 
ATOM     17  C   UNL     1       2.155  -4.892   5.502  1.00  0.00     0.000 A 
ENDBRANCH   9  12
BRANCH   8  18
ATOM     18  C   UNL     1      -1.743  -1.453   1.734  1.00  0.00    -0.018 A 
ATOM     19  C   UNL     1      -1.956  -0.115   2.000  1.00  0.00     0.009 A 
ATOM     20  C   UNL     1      -2.611  -2.095   0.855  1.00  0.00     0.009 A 
ATOM     21  C   UNL     1      -3.004   0.531   1.397  1.00  0.00     0.001 A 
ATOM     22  C   UNL     1      -3.666  -1.462   0.240  1.00  0.00     0.001 A 
ATOM     23  C   UNL     1      -3.860  -0.113   0.525  1.00  0.00     0.000 A 
ENDBRANCH   8  18
ENDBRANCH   3   8
ENDBRANCH   1   2
BRANCH   1  24
ATOM     24  C   UNL     1       4.355  -2.993  -1.842  1.00  0.00     0.290 C 
BRANCH  24  25
ATOM     25  C   UNL     1       5.383  -4.031  -2.209  1.00  0.00     0.303 C 
BRANCH  25  26
ATOM     26  N   UNL     1       4.821  -5.156  -2.892  1.00  0.00    -0.337 N 
ATOM     27  C   UNL     1       4.196  -4.812  -4.151  1.00  0.00     0.332 C 
ATOM     28  C   UNL     1       3.829  -5.856  -2.102  1.00  0.00     0.332 C 
ATOM     29  H   UNL     1       5.564  -5.881  -3.121  1.00  0.00     0.347 HD
ENDBRANCH  25  26
ENDBRANCH  24  25
ENDBRANCH   1  24
TORSDOF 8
ENDMDL
MODEL 7
REMARK VINA RESULT:      -7.7      1.800      2.811
REMARK SMILES CC/C(=C(\c1ccccc1)c1ccc(OCC[NH+](C)C)cc1)c1ccccc1
REMARK SMILES IDX 15 1 14 2 11 3 12 4 22 5 13 6 21 7 4 8 3 9 2 10 1 11 23 12
REMARK SMILES IDX 24 13 28 14 25 15 27 16 26 17 5 18 6 19 10 20 7 21 9 22 8 23
REMARK SMILES IDX 16 24 17 25 18 26 19 27 20 28
REMARK H PARENT 18 29
ROOT
ATOM      1  O   UNL     1       4.227  -2.708   0.227  1.00  0.00    -0.488 OA
ENDROOT
BRANCH   1   2
ATOM      2  C   UNL     1       2.950  -2.692   0.757  1.00  0.00     0.119 A 
ATOM      3  C   UNL     1       0.271  -2.694   1.748  1.00  0.00    -0.017 A 
ATOM      4  C   UNL     1       1.350  -2.424   2.568  1.00  0.00     0.012 A 
ATOM      5  C   UNL     1       0.572  -2.961   0.417  1.00  0.00     0.012 A 
ATOM      6  C   UNL     1       2.644  -2.427   2.072  1.00  0.00     0.047 A 
ATOM      7  C   UNL     1       1.851  -2.964  -0.071  1.00  0.00     0.047 A 
BRANCH   3   8
ATOM      8  C   UNL     1      -1.097  -2.673   2.234  1.00  0.00    -0.007 C 
ATOM      9  C   UNL     1      -1.837  -3.749   2.306  1.00  0.00    -0.033 C 
BRANCH   9  10
ATOM     10  C   UNL     1      -3.258  -3.778   2.751  1.00  0.00     0.033 C 
ATOM     11  C   UNL     1      -4.137  -3.399   1.595  1.00  0.00     0.009 C 
ENDBRANCH   9  10
BRANCH   9  12
ATOM     12  C   UNL     1      -1.277  -5.078   2.002  1.00  0.00    -0.022 A 
ATOM     13  C   UNL     1      -0.356  -5.683   2.819  1.00  0.00     0.008 A 
ATOM     14  C   UNL     1      -1.688  -5.706   0.865  1.00  0.00     0.008 A 
ATOM     15  C   UNL     1       0.142  -6.917   2.485  1.00  0.00     0.001 A 
ATOM     16  C   UNL     1      -1.206  -6.962   0.487  1.00  0.00     0.001 A 
ATOM     17  C   UNL     1      -0.284  -7.545   1.326  1.00  0.00     0.000 A 
ENDBRANCH   9  12
BRANCH   8  18
ATOM     18  C   UNL     1      -1.662  -1.395   2.617  1.00  0.00    -0.018 A 
ATOM     19  C   UNL     1      -1.932  -1.072   3.931  1.00  0.00     0.009 A 
ATOM     20  C   UNL     1      -1.993  -0.470   1.631  1.00  0.00     0.009 A 
ATOM     21  C   UNL     1      -2.512   0.137   4.221  1.00  0.00     0.001 A 
ATOM     22  C   UNL     1      -2.573   0.747   1.903  1.00  0.00     0.001 A 
ATOM     23  C   UNL     1      -2.836   1.049   3.236  1.00  0.00     0.000 A 
ENDBRANCH   8  18
ENDBRANCH   3   8
ENDBRANCH   1   2
BRANCH   1  24
ATOM     24  C   UNL     1       4.625  -2.485  -1.079  1.00  0.00     0.290 C 
BRANCH  24  25
ATOM     25  C   UNL     1       5.124  -3.694  -1.827  1.00  0.00     0.303 C 
BRANCH  25  26
ATOM     26  N   UNL     1       4.083  -4.393  -2.516  1.00  0.00    -0.337 N 
ATOM     27  C   UNL     1       3.838  -5.720  -1.994  1.00  0.00     0.332 C 
ATOM     28  C   UNL     1       4.341  -4.533  -3.934  1.00  0.00     0.332 C 
ATOM     29  H   UNL     1       3.157  -3.874  -2.447  1.00  0.00     0.347 HD
ENDBRANCH  25  26
ENDBRANCH  24  25
ENDBRANCH   1  24
TORSDOF 8
ENDMDL
MODEL 8
REMARK VINA RESULT:      -7.6      1.851      2.689
REMARK SMILES CC/C(=C(\c1ccccc1)c1ccc(OCC[NH+](C)C)cc1)c1ccccc1
REMARK SMILES IDX 15 1 14 2 11 3 12 4 22 5 13 6 21 7 4 8 3 9 2 10 1 11 23 12
REMARK SMILES IDX 24 13 28 14 25 15 27 16 26 17 5 18 6 19 10 20 7 21 9 22 8 23
REMARK SMILES IDX 16 24 17 25 18 26 19 27 20 28
REMARK H PARENT 18 29
ROOT
ATOM      1  O   UNL     1       4.079  -2.825   0.244  1.00  0.00    -0.488 OA
ENDROOT
BRANCH   1   2
ATOM      2  C   UNL     1       2.765  -2.778   0.671  1.00  0.00     0.119 A 
ATOM      3  C   UNL     1       0.089  -2.650   1.661  1.00  0.00    -0.017 A 
ATOM      4  C   UNL     1       0.362  -2.911   0.332  1.00  0.00     0.012 A 
ATOM      5  C   UNL     1       1.195  -2.457   2.482  1.00  0.00     0.012 A 
ATOM      6  C   UNL     1       1.666  -2.970  -0.133  1.00  0.00     0.047 A 
ATOM      7  C   UNL     1       2.483  -2.515   2.020  1.00  0.00     0.047 A 
BRANCH   3   8
ATOM      8  C   UNL     1      -1.267  -2.607   2.181  1.00  0.00    -0.007 C 
ATOM      9  C   UNL     1      -2.039  -3.661   2.230  1.00  0.00    -0.033 C 
BRANCH   9  10
ATOM     10  C   UNL     1      -3.449  -3.663   2.708  1.00  0.00     0.033 C 
ATOM     11  C   UNL     1      -4.355  -3.365   1.549  1.00  0.00     0.009 C 
ENDBRANCH   9  10
BRANCH   9  12
ATOM     12  C   UNL     1      -1.528  -4.994   1.862  1.00  0.00    -0.022 A 
ATOM     13  C   UNL     1      -1.914  -5.628   0.709  1.00  0.00     0.008 A 
ATOM     14  C   UNL     1      -0.654  -5.605   2.710  1.00  0.00     0.008 A 
ATOM     15  C   UNL     1      -1.416  -6.873   0.418  1.00  0.00     0.001 A 
ATOM     16  C   UNL     1      -0.123  -6.872   2.453  1.00  0.00     0.001 A 
ATOM     17  C   UNL     1      -0.528  -7.484   1.289  1.00  0.00     0.000 A 
ENDBRANCH   9  12
BRANCH   8  18
ATOM     18  C   UNL     1      -1.781  -1.327   2.624  1.00  0.00    -0.018 A 
ATOM     19  C   UNL     1      -1.992  -1.039   3.958  1.00  0.00     0.009 A 
ATOM     20  C   UNL     1      -2.126  -0.363   1.682  1.00  0.00     0.009 A 
ATOM     21  C   UNL     1      -2.527   0.174   4.307  1.00  0.00     0.001 A 
ATOM     22  C   UNL     1      -2.662   0.859   2.014  1.00  0.00     0.001 A 
ATOM     23  C   UNL     1      -2.864   1.126   3.365  1.00  0.00     0.000 A 
ENDBRANCH   8  18
ENDBRANCH   3   8
ENDBRANCH   1   2
BRANCH   1  24
ATOM     24  C   UNL     1       4.598  -2.501  -0.997  1.00  0.00     0.290 C 
BRANCH  24  25
ATOM     25  C   UNL     1       5.095  -3.660  -1.822  1.00  0.00     0.303 C 
BRANCH  25  26
ATOM     26  N   UNL     1       4.041  -4.369  -2.481  1.00  0.00    -0.337 N 
ATOM     27  C   UNL     1       3.840  -5.707  -1.970  1.00  0.00     0.332 C 
ATOM     28  C   UNL     1       4.249  -4.485  -3.910  1.00  0.00     0.332 C 
ATOM     29  H   UNL     1       3.109  -3.868  -2.371  1.00  0.00     0.347 HD
ENDBRANCH  25  26
ENDBRANCH  24  25
ENDBRANCH   1  24
TORSDOF 8
ENDMDL
MODEL 9
REMARK VINA RESULT:      -7.6      1.476      2.192
REMARK SMILES CC/C(=C(\c1ccccc1)c1ccc(OCC[NH+](C)C)cc1)c1ccccc1
REMARK SMILES IDX 15 1 14 2 11 3 12 4 22 5 13 6 21 7 4 8 3 9 2 10 1 11 23 12
REMARK SMILES IDX 24 13 28 14 25 15 27 16 26 17 5 18 6 19 10 20 7 21 9 22 8 23
REMARK SMILES IDX 16 24 17 25 18 26 19 27 20 28
REMARK H PARENT 18 29
ROOT
ATOM      1  O   UNL     1       4.109  -2.944  -0.640  1.00  0.00    -0.488 OA
ENDROOT
BRANCH   1   2
ATOM      2  C   UNL     1       2.915  -2.788   0.040  1.00  0.00     0.119 A 
ATOM      3  C   UNL     1       0.494  -2.375   1.499  1.00  0.00    -0.017 A 
ATOM      4  C   UNL     1       0.598  -3.347   0.523  1.00  0.00     0.012 A 
ATOM      5  C   UNL     1       1.638  -1.616   1.725  1.00  0.00     0.012 A 
ATOM      6  C   UNL     1       1.780  -3.535  -0.177  1.00  0.00     0.047 A 
ATOM      7  C   UNL     1       2.804  -1.804   1.032  1.00  0.00     0.047 A 
BRANCH   3   8
ATOM      8  C   UNL     1      -0.723  -2.171   2.264  1.00  0.00    -0.007 C 
ATOM      9  C   UNL     1      -0.901  -2.678   3.457  1.00  0.00    -0.033 C 
BRANCH   9  10
ATOM     10  C   UNL     1      -2.144  -2.540   4.265  1.00  0.00     0.033 C 
ATOM     11  C   UNL     1      -3.139  -3.564   3.802  1.00  0.00     0.009 C 
ENDBRANCH   9  10
BRANCH   9  12
ATOM     12  C   UNL     1       0.186  -3.396   4.146  1.00  0.00    -0.022 A 
ATOM     13  C   UNL     1       0.567  -4.662   3.781  1.00  0.00     0.008 A 
ATOM     14  C   UNL     1       0.814  -2.774   5.182  1.00  0.00     0.008 A 
ATOM     15  C   UNL     1       1.578  -5.291   4.462  1.00  0.00     0.001 A 
ATOM     16  C   UNL     1       1.849  -3.378   5.903  1.00  0.00     0.001 A 
ATOM     17  C   UNL     1       2.209  -4.647   5.513  1.00  0.00     0.000 A 
ENDBRANCH   9  12
BRANCH   8  18
ATOM     18  C   UNL     1      -1.789  -1.404   1.652  1.00  0.00    -0.018 A 
ATOM     19  C   UNL     1      -2.565  -1.908   0.627  1.00  0.00     0.009 A 
ATOM     20  C   UNL     1      -2.017  -0.096   2.068  1.00  0.00     0.009 A 
ATOM     21  C   UNL     1      -3.526  -1.111   0.059  1.00  0.00     0.001 A 
ATOM     22  C   UNL     1      -2.977   0.716   1.510  1.00  0.00     0.001 A 
ATOM     23  C   UNL     1      -3.747   0.185   0.479  1.00  0.00     0.000 A 
ENDBRANCH   8  18
ENDBRANCH   3   8
ENDBRANCH   1   2
BRANCH   1  24
ATOM     24  C   UNL     1       5.298  -2.256  -0.469  1.00  0.00     0.290 C 
BRANCH  24  25
ATOM     25  C   UNL     1       6.015  -1.865  -1.735  1.00  0.00     0.303 C 
BRANCH  25  26
ATOM     26  N   UNL     1       6.330  -0.470  -1.789  1.00  0.00    -0.337 N 
ATOM     27  C   UNL     1       7.688  -0.202  -2.209  1.00  0.00     0.332 C 
ATOM     28  C   UNL     1       6.136   0.201  -0.520  1.00  0.00     0.332 C 
ATOM     29  H   UNL     1       5.702   0.042  -2.478  1.00  0.00     0.347 HD
ENDBRANCH  25  26
ENDBRANCH  24  25
ENDBRANCH   1  24
TORSDOF 8
ENDMDL
