MODEL 1
REMARK VINA RESULT:      -2.1      0.000      0.000
REMARK SMILES Clc1ccccc1C(c1ccccc1)(c1ccccc1)n1ccnc1
REMARK SMILES IDX 1 1 2 2 3 3 4 4 5 5 6 6 7 7 8 8 9 9 10 10 14 11 11 12 13 13
REMARK SMILES IDX 12 14 15 15 16 16 20 17 17 18 19 19 18 20 21 21 22 22 25 23
REMARK SMILES IDX 23 24 24 25
REMARK H PARENT
ROOT
ATOM      1  Cl  UNL     1      50.678  35.332  81.544  1.00  0.00    -0.084 Cl
ATOM      2  C   UNL     1      49.577  34.013  81.872  1.00  0.00     0.047 A 
ATOM      3  C   UNL     1      49.898  33.008  82.756  1.00  0.00     0.021 A 
ATOM      4  C   UNL     1      49.021  31.985  83.041  1.00  0.00     0.002 A 
ATOM      5  C   UNL     1      47.799  31.990  82.414  1.00  0.00     0.001 A 
ATOM      6  C   UNL     1      47.473  33.014  81.515  1.00  0.00     0.008 A 
ATOM      7  C   UNL     1      48.345  34.020  81.237  1.00  0.00     0.006 A 
ENDROOT
BRANCH   7   8
ATOM      8  C   UNL     1      47.986  35.083  80.259  1.00  0.00     0.123 C 
BRANCH   8   9
ATOM      9  C   UNL     1      47.880  36.370  81.003  1.00  0.00    -0.013 A 
ATOM     10  C   UNL     1      48.904  37.218  81.272  1.00  0.00     0.007 A 
ATOM     11  C   UNL     1      46.580  36.699  81.431  1.00  0.00     0.007 A 
ATOM     12  C   UNL     1      48.652  38.391  81.961  1.00  0.00     0.000 A 
ATOM     13  C   UNL     1      46.338  37.863  82.112  1.00  0.00     0.000 A 
ATOM     14  C   UNL     1      47.369  38.729  82.390  1.00  0.00     0.000 A 
ENDBRANCH   8   9
BRANCH   8  15
ATOM     15  C   UNL     1      46.619  34.873  79.711  1.00  0.00    -0.013 A 
ATOM     16  C   UNL     1      46.320  34.967  78.378  1.00  0.00     0.007 A 
ATOM     17  C   UNL     1      45.609  34.545  80.580  1.00  0.00     0.007 A 
ATOM     18  C   UNL     1      45.037  34.743  77.891  1.00  0.00     0.000 A 
ATOM     19  C   UNL     1      44.305  34.314  80.111  1.00  0.00     0.000 A 
ATOM     20  C   UNL     1      44.036  34.416  78.774  1.00  0.00     0.000 A 
ENDBRANCH   8  15
BRANCH   8  21
ATOM     21  N   UNL     1      48.936  35.108  79.187  1.00  0.00    -0.319 N 
ATOM     22  C   UNL     1      50.046  35.895  79.122  1.00  0.00     0.109 A 
ATOM     23  C   UNL     1      48.925  34.363  78.082  1.00  0.00     0.200 A 
ATOM     24  C   UNL     1      50.721  35.623  77.953  1.00  0.00     0.131 A 
ATOM     25  N   UNL     1      50.015  34.683  77.335  1.00  0.00    -0.245 NA
ENDBRANCH   8  21
ENDBRANCH   7   8
TORSDOF 4
ENDMDL
MODEL 2
REMARK VINA RESULT:      -1.3      0.811      1.477
REMARK SMILES Clc1ccccc1C(c1ccccc1)(c1ccccc1)n1ccnc1
REMARK SMILES IDX 1 1 2 2 3 3 4 4 5 5 6 6 7 7 8 8 9 9 10 10 14 11 11 12 13 13
REMARK SMILES IDX 12 14 15 15 16 16 20 17 17 18 19 19 18 20 21 21 22 22 25 23
REMARK SMILES IDX 23 24 24 25
REMARK H PARENT
ROOT
ATOM      1  Cl  UNL     1      50.646  34.982  81.321  1.00  0.00    -0.084 Cl
ATOM      2  C   UNL     1      49.381  33.835  81.701  1.00  0.00     0.047 A 
ATOM      3  C   UNL     1      49.611  32.753  82.520  1.00  0.00     0.021 A 
ATOM      4  C   UNL     1      48.609  31.866  82.848  1.00  0.00     0.002 A 
ATOM      5  C   UNL     1      47.357  32.088  82.331  1.00  0.00     0.001 A 
ATOM      6  C   UNL     1      47.124  33.190  81.497  1.00  0.00     0.008 A 
ATOM      7  C   UNL     1      48.119  34.061  81.177  1.00  0.00     0.006 A 
ENDROOT
BRANCH   7   8
ATOM      8  C   UNL     1      47.854  35.210  80.269  1.00  0.00     0.123 C 
BRANCH   8   9
ATOM      9  C   UNL     1      47.535  36.395  81.114  1.00  0.00    -0.013 A 
ATOM     10  C   UNL     1      46.396  36.577  81.829  1.00  0.00     0.007 A 
ATOM     11  C   UNL     1      48.541  37.379  81.154  1.00  0.00     0.007 A 
ATOM     12  C   UNL     1      46.245  37.726  82.585  1.00  0.00     0.000 A 
ATOM     13  C   UNL     1      48.383  38.514  81.906  1.00  0.00     0.000 A 
ATOM     14  C   UNL     1      47.233  38.709  82.634  1.00  0.00     0.000 A 
ENDBRANCH   8   9
BRANCH   8  15
ATOM     15  C   UNL     1      46.615  34.995  79.474  1.00  0.00    -0.013 A 
ATOM     16  C   UNL     1      45.588  35.901  79.420  1.00  0.00     0.007 A 
ATOM     17  C   UNL     1      46.502  33.844  78.736  1.00  0.00     0.007 A 
ATOM     18  C   UNL     1      44.452  35.684  78.649  1.00  0.00     0.000 A 
ATOM     19  C   UNL     1      45.363  33.603  77.950  1.00  0.00     0.000 A 
ATOM     20  C   UNL     1      44.354  34.525  77.917  1.00  0.00     0.000 A 
ENDBRANCH   8  15
BRANCH   8  21
ATOM     21  N   UNL     1      48.965  35.408  79.386  1.00  0.00    -0.319 N 
ATOM     22  C   UNL     1      49.214  34.705  78.247  1.00  0.00     0.109 A 
ATOM     23  C   UNL     1      49.934  36.316  79.501  1.00  0.00     0.200 A 
ATOM     24  C   UNL     1      50.358  35.196  77.658  1.00  0.00     0.131 A 
ATOM     25  N   UNL     1      50.778  36.180  78.445  1.00  0.00    -0.245 NA
ENDBRANCH   8  21
ENDBRANCH   7   8
TORSDOF 4
ENDMDL
MODEL 3
REMARK VINA RESULT:      -0.1      1.584      4.222
REMARK SMILES Clc1ccccc1C(c1ccccc1)(c1ccccc1)n1ccnc1
REMARK SMILES IDX 1 1 2 2 3 3 4 4 5 5 6 6 7 7 8 8 9 9 10 10 14 11 11 12 13 13
REMARK SMILES IDX 12 14 15 15 16 16 20 17 17 18 19 19 18 20 21 21 22 22 25 23
REMARK SMILES IDX 23 24 24 25
REMARK H PARENT
ROOT
ATOM      1  Cl  UNL     1      49.731  36.395  81.555  1.00  0.00    -0.084 Cl
ATOM      2  C   UNL     1      49.677  35.846  79.895  1.00  0.00     0.047 A 
ATOM      3  C   UNL     1      50.778  35.925  79.074  1.00  0.00     0.021 A 
ATOM      4  C   UNL     1      50.749  35.464  77.775  1.00  0.00     0.002 A 
ATOM      5  C   UNL     1      49.578  34.915  77.313  1.00  0.00     0.001 A 
ATOM      6  C   UNL     1      48.458  34.835  78.150  1.00  0.00     0.008 A 
ATOM      7  C   UNL     1      48.494  35.294  79.431  1.00  0.00     0.006 A 
ENDROOT
BRANCH   7   8
ATOM      8  C   UNL     1      47.284  35.222  80.294  1.00  0.00     0.123 C 
BRANCH   8   9
ATOM      9  C   UNL     1      47.404  34.006  81.147  1.00  0.00    -0.013 A 
ATOM     10  C   UNL     1      46.383  33.194  81.519  1.00  0.00     0.007 A 
ATOM     11  C   UNL     1      48.714  33.706  81.566  1.00  0.00     0.007 A 
ATOM     12  C   UNL     1      46.648  32.086  82.304  1.00  0.00     0.000 A 
ATOM     13  C   UNL     1      48.968  32.606  82.343  1.00  0.00     0.000 A 
ATOM     14  C   UNL     1      47.941  31.777  82.726  1.00  0.00     0.000 A 
ENDBRANCH   8   9
BRANCH   8  15
ATOM     15  C   UNL     1      46.059  34.973  79.487  1.00  0.00    -0.013 A 
ATOM     16  C   UNL     1      45.943  33.941  78.593  1.00  0.00     0.007 A 
ATOM     17  C   UNL     1      44.980  35.802  79.662  1.00  0.00     0.007 A 
ATOM     18  C   UNL     1      44.777  33.718  77.870  1.00  0.00     0.000 A 
ATOM     19  C   UNL     1      43.792  35.596  78.941  1.00  0.00     0.000 A 
ATOM     20  C   UNL     1      43.706  34.558  78.055  1.00  0.00     0.000 A 
ENDBRANCH   8  15
BRANCH   8  21
ATOM     21  N   UNL     1      47.133  36.439  81.035  1.00  0.00    -0.319 N 
ATOM     22  C   UNL     1      47.187  36.560  82.390  1.00  0.00     0.109 A 
ATOM     23  C   UNL     1      46.937  37.663  80.545  1.00  0.00     0.200 A 
ATOM     24  C   UNL     1      47.019  37.884  82.730  1.00  0.00     0.131 A 
ATOM     25  N   UNL     1      46.868  38.537  81.584  1.00  0.00    -0.245 NA
ENDBRANCH   8  21
ENDBRANCH   7   8
TORSDOF 4
ENDMDL
MODEL 4
REMARK VINA RESULT:       0.1      1.408      4.625
REMARK SMILES Clc1ccccc1C(c1ccccc1)(c1ccccc1)n1ccnc1
REMARK SMILES IDX 1 1 2 2 3 3 4 4 5 5 6 6 7 7 8 8 9 9 10 10 14 11 11 12 13 13
REMARK SMILES IDX 12 14 15 15 16 16 20 17 17 18 19 19 18 20 21 21 22 22 25 23
REMARK SMILES IDX 23 24 24 25
REMARK H PARENT
ROOT
ATOM      1  Cl  UNL     1      45.971  37.510  79.385  1.00  0.00    -0.084 Cl
ATOM      2  C   UNL     1      45.543  35.890  78.884  1.00  0.00     0.047 A 
ATOM      3  C   UNL     1      44.433  35.646  78.108  1.00  0.00     0.021 A 
ATOM      4  C   UNL     1      44.111  34.375  77.683  1.00  0.00     0.002 A 
ATOM      5  C   UNL     1      44.934  33.342  78.058  1.00  0.00     0.001 A 
ATOM      6  C   UNL     1      46.064  33.592  78.849  1.00  0.00     0.008 A 
ATOM      7  C   UNL     1      46.375  34.850  79.265  1.00  0.00     0.006 A 
ENDROOT
BRANCH   7   8
ATOM      8  C   UNL     1      47.566  35.088  80.125  1.00  0.00     0.123 C 
BRANCH   8   9
ATOM      9  C   UNL     1      47.685  33.939  81.067  1.00  0.00    -0.013 A 
ATOM     10  C   UNL     1      46.676  33.113  81.442  1.00  0.00     0.007 A 
ATOM     11  C   UNL     1      48.980  33.725  81.575  1.00  0.00     0.007 A 
ATOM     12  C   UNL     1      46.940  32.074  82.317  1.00  0.00     0.000 A 
ATOM     13  C   UNL     1      49.232  32.692  82.441  1.00  0.00     0.000 A 
ATOM     14  C   UNL     1      48.218  31.849  82.828  1.00  0.00     0.000 A 
ENDBRANCH   8   9
BRANCH   8  15
ATOM     15  C   UNL     1      47.363  36.262  81.016  1.00  0.00    -0.013 A 
ATOM     16  C   UNL     1      46.220  36.467  81.743  1.00  0.00     0.007 A 
ATOM     17  C   UNL     1      48.380  37.175  81.137  1.00  0.00     0.007 A 
ATOM     18  C   UNL     1      46.067  37.561  82.586  1.00  0.00     0.000 A 
ATOM     19  C   UNL     1      48.248  38.289  81.983  1.00  0.00     0.000 A 
ATOM     20  C   UNL     1      47.094  38.467  82.695  1.00  0.00     0.000 A 
ENDBRANCH   8  15
BRANCH   8  21
ATOM     21  N   UNL     1      48.728  35.295  79.312  1.00  0.00    -0.319 N 
ATOM     22  C   UNL     1      49.885  35.892  79.711  1.00  0.00     0.109 A 
ATOM     23  C   UNL     1      48.900  34.928  78.042  1.00  0.00     0.200 A 
ATOM     24  C   UNL     1      50.776  35.890  78.661  1.00  0.00     0.131 A 
ATOM     25  N   UNL     1      50.149  35.294  77.653  1.00  0.00    -0.245 NA
ENDBRANCH   8  21
ENDBRANCH   7   8
TORSDOF 4
ENDMDL
MODEL 5
REMARK VINA RESULT:       0.1      1.406      1.835
REMARK SMILES Clc1ccccc1C(c1ccccc1)(c1ccccc1)n1ccnc1
REMARK SMILES IDX 1 1 2 2 3 3 4 4 5 5 6 6 7 7 8 8 9 9 10 10 14 11 11 12 13 13
REMARK SMILES IDX 12 14 15 15 16 16 20 17 17 18 19 19 18 20 21 21 22 22 25 23
REMARK SMILES IDX 23 24 24 25
REMARK H PARENT
ROOT
ATOM      1  Cl  UNL     1      45.669  33.905  81.324  1.00  0.00    -0.084 Cl
ATOM      2  C   UNL     1      47.279  33.225  81.401  1.00  0.00     0.047 A 
ATOM      3  C   UNL     1      47.559  32.123  82.176  1.00  0.00     0.021 A 
ATOM      4  C   UNL     1      48.819  31.564  82.213  1.00  0.00     0.002 A 
ATOM      5  C   UNL     1      49.802  32.141  81.449  1.00  0.00     0.001 A 
ATOM      6  C   UNL     1      49.515  33.263  80.660  1.00  0.00     0.008 A 
ATOM      7  C   UNL     1      48.270  33.809  80.629  1.00  0.00     0.006 A 
ENDROOT
BRANCH   7   8
ATOM      8  C   UNL     1      47.995  35.017  79.803  1.00  0.00     0.123 C 
BRANCH   8   9
ATOM      9  C   UNL     1      47.940  36.192  80.718  1.00  0.00    -0.013 A 
ATOM     10  C   UNL     1      48.941  36.611  81.533  1.00  0.00     0.007 A 
ATOM     11  C   UNL     1      46.728  36.908  80.688  1.00  0.00     0.007 A 
ATOM     12  C   UNL     1      48.751  37.733  82.319  1.00  0.00     0.000 A 
ATOM     13  C   UNL     1      46.549  38.019  81.469  1.00  0.00     0.000 A 
ATOM     14  C   UNL     1      47.556  38.452  82.299  1.00  0.00     0.000 A 
ENDBRANCH   8   9
BRANCH   8  15
ATOM     15  C   UNL     1      46.633  34.965  79.207  1.00  0.00    -0.013 A 
ATOM     16  C   UNL     1      45.717  35.976  79.333  1.00  0.00     0.007 A 
ATOM     17  C   UNL     1      46.281  33.861  78.473  1.00  0.00     0.007 A 
ATOM     18  C   UNL     1      44.459  35.910  78.745  1.00  0.00     0.000 A 
ATOM     19  C   UNL     1      45.016  33.772  77.870  1.00  0.00     0.000 A 
ATOM     20  C   UNL     1      44.122  34.796  78.014  1.00  0.00     0.000 A 
ENDBRANCH   8  15
BRANCH   8  21
ATOM     21  N   UNL     1      48.972  35.136  78.762  1.00  0.00    -0.319 N 
ATOM     22  C   UNL     1      48.825  34.710  77.477  1.00  0.00     0.109 A 
ATOM     23  C   UNL     1      50.179  35.695  78.849  1.00  0.00     0.200 A 
ATOM     24  C   UNL     1      49.967  35.016  76.770  1.00  0.00     0.131 A 
ATOM     25  N   UNL     1      50.778  35.618  77.632  1.00  0.00    -0.245 NA
ENDBRANCH   8  21
ENDBRANCH   7   8
TORSDOF 4
ENDMDL
MODEL 6
REMARK VINA RESULT:       0.2      1.248      4.540
REMARK SMILES Clc1ccccc1C(c1ccccc1)(c1ccccc1)n1ccnc1
REMARK SMILES IDX 1 1 2 2 3 3 4 4 5 5 6 6 7 7 8 8 9 9 10 10 14 11 11 12 13 13
REMARK SMILES IDX 12 14 15 15 16 16 20 17 17 18 19 19 18 20 21 21 22 22 25 23
REMARK SMILES IDX 23 24 24 25
REMARK H PARENT
ROOT
ATOM      1  Cl  UNL     1      45.977  37.185  79.383  1.00  0.00    -0.084 Cl
ATOM      2  C   UNL     1      47.253  37.572  80.516  1.00  0.00     0.047 A 
ATOM      3  C   UNL     1      47.340  38.811  81.109  1.00  0.00     0.021 A 
ATOM      4  C   UNL     1      48.324  39.109  82.026  1.00  0.00     0.002 A 
ATOM      5  C   UNL     1      49.231  38.127  82.340  1.00  0.00     0.001 A 
ATOM      6  C   UNL     1      49.141  36.865  81.736  1.00  0.00     0.008 A 
ATOM      7  C   UNL     1      48.167  36.579  80.830  1.00  0.00     0.006 A 
ENDROOT
BRANCH   7   8
ATOM      8  C   UNL     1      48.108  35.241  80.183  1.00  0.00     0.123 C 
BRANCH   8   9
ATOM      9  C   UNL     1      46.680  34.948  79.871  1.00  0.00    -0.013 A 
ATOM     10  C   UNL     1      45.671  34.868  80.773  1.00  0.00     0.007 A 
ATOM     11  C   UNL     1      46.401  34.761  78.503  1.00  0.00     0.007 A 
ATOM     12  C   UNL     1      44.386  34.604  80.334  1.00  0.00     0.000 A 
ATOM     13  C   UNL     1      45.125  34.500  78.076  1.00  0.00     0.000 A 
ATOM     14  C   UNL     1      44.095  34.416  78.982  1.00  0.00     0.000 A 
ENDBRANCH   8   9
BRANCH   8  15
ATOM     15  C   UNL     1      48.493  34.163  81.133  1.00  0.00    -0.013 A 
ATOM     16  C   UNL     1      47.651  33.148  81.503  1.00  0.00     0.007 A 
ATOM     17  C   UNL     1      49.765  34.169  81.648  1.00  0.00     0.007 A 
ATOM     18  C   UNL     1      48.046  32.141  82.376  1.00  0.00     0.000 A 
ATOM     19  C   UNL     1      50.187  33.162  82.532  1.00  0.00     0.000 A 
ATOM     20  C   UNL     1      49.323  32.162  82.884  1.00  0.00     0.000 A 
ENDBRANCH   8  15
BRANCH   8  21
ATOM     21  N   UNL     1      48.971  35.207  79.040  1.00  0.00    -0.319 N 
ATOM     22  C   UNL     1      50.166  35.850  78.922  1.00  0.00     0.109 A 
ATOM     23  C   UNL     1      48.781  34.534  77.905  1.00  0.00     0.200 A 
ATOM     24  C   UNL     1      50.711  35.562  77.691  1.00  0.00     0.131 A 
ATOM     25  N   UNL     1      49.845  34.756  77.089  1.00  0.00    -0.245 NA
ENDBRANCH   8  21
ENDBRANCH   7   8
TORSDOF 4
ENDMDL
MODEL 7
REMARK VINA RESULT:       0.5      1.394      2.015
REMARK SMILES Clc1ccccc1C(c1ccccc1)(c1ccccc1)n1ccnc1
REMARK SMILES IDX 1 1 2 2 3 3 4 4 5 5 6 6 7 7 8 8 9 9 10 10 14 11 11 12 13 13
REMARK SMILES IDX 12 14 15 15 16 16 20 17 17 18 19 19 18 20 21 21 22 22 25 23
REMARK SMILES IDX 23 24 24 25
REMARK H PARENT
ROOT
ATOM      1  Cl  UNL     1      45.388  33.577  81.220  1.00  0.00    -0.084 Cl
ATOM      2  C   UNL     1      47.034  33.083  81.551  1.00  0.00     0.047 A 
ATOM      3  C   UNL     1      47.315  32.016  82.373  1.00  0.00     0.021 A 
ATOM      4  C   UNL     1      48.608  31.604  82.610  1.00  0.00     0.002 A 
ATOM      5  C   UNL     1      49.626  32.293  81.998  1.00  0.00     0.001 A 
ATOM      6  C   UNL     1      49.339  33.379  81.161  1.00  0.00     0.008 A 
ATOM      7  C   UNL     1      48.059  33.781  80.933  1.00  0.00     0.006 A 
ENDROOT
BRANCH   7   8
ATOM      8  C   UNL     1      47.780  34.953  80.060  1.00  0.00     0.123 C 
BRANCH   8   9
ATOM      9  C   UNL     1      47.484  36.118  80.942  1.00  0.00    -0.013 A 
ATOM     10  C   UNL     1      46.296  36.375  81.545  1.00  0.00     0.007 A 
ATOM     11  C   UNL     1      48.568  36.991  81.149  1.00  0.00     0.007 A 
ATOM     12  C   UNL     1      46.173  37.492  82.353  1.00  0.00     0.000 A 
ATOM     13  C   UNL     1      48.438  38.095  81.951  1.00  0.00     0.000 A 
ATOM     14  C   UNL     1      47.239  38.365  82.567  1.00  0.00     0.000 A 
ENDBRANCH   8   9
BRANCH   8  15
ATOM     15  C   UNL     1      46.523  34.763  79.286  1.00  0.00    -0.013 A 
ATOM     16  C   UNL     1      46.291  33.680  78.481  1.00  0.00     0.007 A 
ATOM     17  C   UNL     1      45.535  35.707  79.402  1.00  0.00     0.007 A 
ATOM     18  C   UNL     1      45.098  33.517  77.787  1.00  0.00     0.000 A 
ATOM     19  C   UNL     1      44.320  35.564  78.710  1.00  0.00     0.000 A 
ATOM     20  C   UNL     1      44.118  34.472  77.913  1.00  0.00     0.000 A 
ENDBRANCH   8  15
BRANCH   8  21
ATOM     21  N   UNL     1      48.873  35.169  79.159  1.00  0.00    -0.319 N 
ATOM     22  C   UNL     1      48.911  34.803  77.848  1.00  0.00     0.109 A 
ATOM     23  C   UNL     1      50.028  35.778  79.424  1.00  0.00     0.200 A 
ATOM     24  C   UNL     1      50.114  35.196  77.307  1.00  0.00     0.131 A 
ATOM     25  N   UNL     1      50.778  35.790  78.291  1.00  0.00    -0.245 NA
ENDBRANCH   8  21
ENDBRANCH   7   8
TORSDOF 4
ENDMDL
MODEL 8
REMARK VINA RESULT:       0.5      1.043      4.220
REMARK SMILES Clc1ccccc1C(c1ccccc1)(c1ccccc1)n1ccnc1
REMARK SMILES IDX 1 1 2 2 3 3 4 4 5 5 6 6 7 7 8 8 9 9 10 10 14 11 11 12 13 13
REMARK SMILES IDX 12 14 15 15 16 16 20 17 17 18 19 19 18 20 21 21 22 22 25 23
REMARK SMILES IDX 23 24 24 25
REMARK H PARENT
ROOT
ATOM      1  Cl  UNL     1      49.257  35.004  82.392  1.00  0.00    -0.084 Cl
ATOM      2  C   UNL     1      48.255  36.345  81.885  1.00  0.00     0.047 A 
ATOM      3  C   UNL     1      48.145  37.489  82.641  1.00  0.00     0.021 A 
ATOM      4  C   UNL     1      47.382  38.560  82.229  1.00  0.00     0.002 A 
ATOM      5  C   UNL     1      46.725  38.459  81.028  1.00  0.00     0.001 A 
ATOM      6  C   UNL     1      46.839  37.294  80.258  1.00  0.00     0.008 A 
ATOM      7  C   UNL     1      47.593  36.240  80.672  1.00  0.00     0.006 A 
ENDROOT
BRANCH   7   8
ATOM      8  C   UNL     1      47.678  35.002  79.850  1.00  0.00     0.123 C 
BRANCH   8   9
ATOM      9  C   UNL     1      46.353  34.796  79.199  1.00  0.00    -0.013 A 
ATOM     10  C   UNL     1      46.033  33.782  78.356  1.00  0.00     0.007 A 
ATOM     11  C   UNL     1      45.377  35.755  79.529  1.00  0.00     0.007 A 
ATOM     12  C   UNL     1      44.752  33.709  77.838  1.00  0.00     0.000 A 
ATOM     13  C   UNL     1      44.110  35.674  79.012  1.00  0.00     0.000 A 
ATOM     14  C   UNL     1      43.775  34.652  78.157  1.00  0.00     0.000 A 
ENDBRANCH   8   9
BRANCH   8  15
ATOM     15  C   UNL     1      47.848  33.796  80.704  1.00  0.00    -0.013 A 
ATOM     16  C   UNL     1      46.848  33.280  81.486  1.00  0.00     0.007 A 
ATOM     17  C   UNL     1      49.058  33.151  80.692  1.00  0.00     0.007 A 
ATOM     18  C   UNL     1      47.028  32.138  82.257  1.00  0.00     0.000 A 
ATOM     19  C   UNL     1      49.264  31.995  81.463  1.00  0.00     0.000 A 
ATOM     20  C   UNL     1      48.247  31.504  82.235  1.00  0.00     0.000 A 
ENDBRANCH   8  15
BRANCH   8  21
ATOM     21  N   UNL     1      48.770  35.097  78.928  1.00  0.00    -0.319 N 
ATOM     22  C   UNL     1      49.984  35.659  79.183  1.00  0.00     0.109 A 
ATOM     23  C   UNL     1      48.810  34.642  77.676  1.00  0.00     0.200 A 
ATOM     24  C   UNL     1      50.777  35.543  78.063  1.00  0.00     0.131 A 
ATOM     25  N   UNL     1      50.036  34.918  77.156  1.00  0.00    -0.245 NA
ENDBRANCH   8  21
ENDBRANCH   7   8
TORSDOF 4
ENDMDL
MODEL 9
REMARK VINA RESULT:       0.6      1.777      5.010
REMARK SMILES Clc1ccccc1C(c1ccccc1)(c1ccccc1)n1ccnc1
REMARK SMILES IDX 1 1 2 2 3 3 4 4 5 5 6 6 7 7 8 8 9 9 10 10 14 11 11 12 13 13
REMARK SMILES IDX 12 14 15 15 16 16 20 17 17 18 19 19 18 20 21 21 22 22 25 23
REMARK SMILES IDX 23 24 24 25
REMARK H PARENT
ROOT
ATOM      1  Cl  UNL     1      45.788  37.191  78.904  1.00  0.00    -0.084 Cl
ATOM      2  C   UNL     1      46.583  37.429  80.444  1.00  0.00     0.047 A 
ATOM      3  C   UNL     1      46.470  38.612  81.138  1.00  0.00     0.021 A 
ATOM      4  C   UNL     1      47.068  38.792  82.366  1.00  0.00     0.002 A 
ATOM      5  C   UNL     1      47.790  37.749  82.891  1.00  0.00     0.001 A 
ATOM      6  C   UNL     1      47.904  36.545  82.183  1.00  0.00     0.008 A 
ATOM      7  C   UNL     1      47.312  36.375  80.970  1.00  0.00     0.006 A 
ENDROOT
BRANCH   7   8
ATOM      8  C   UNL     1      47.468  35.096  80.226  1.00  0.00     0.123 C 
BRANCH   8   9
ATOM      9  C   UNL     1      47.948  34.064  81.188  1.00  0.00    -0.013 A 
ATOM     10  C   UNL     1      47.280  32.938  81.544  1.00  0.00     0.007 A 
ATOM     11  C   UNL     1      49.219  34.317  81.739  1.00  0.00     0.007 A 
ATOM     12  C   UNL     1      47.860  32.059  82.441  1.00  0.00     0.000 A 
ATOM     13  C   UNL     1      49.787  33.440  82.626  1.00  0.00     0.000 A 
ATOM     14  C   UNL     1      49.118  32.297  82.994  1.00  0.00     0.000 A 
ENDBRANCH   8   9
BRANCH   8  15
ATOM     15  C   UNL     1      48.562  35.185  79.222  1.00  0.00    -0.013 A 
ATOM     16  C   UNL     1      48.500  34.597  77.986  1.00  0.00     0.007 A 
ATOM     17  C   UNL     1      49.682  35.912  79.537  1.00  0.00     0.007 A 
ATOM     18  C   UNL     1      49.529  34.716  77.059  1.00  0.00     0.000 A 
ATOM     19  C   UNL     1      50.734  36.047  78.617  1.00  0.00     0.000 A 
ATOM     20  C   UNL     1      50.644  35.448  77.391  1.00  0.00     0.000 A 
ENDBRANCH   8  15
BRANCH   8  21
ATOM     21  N   UNL     1      46.240  34.753  79.571  1.00  0.00    -0.319 N 
ATOM     22  C   UNL     1      46.116  34.311  78.289  1.00  0.00     0.109 A 
ATOM     23  C   UNL     1      45.014  34.780  80.092  1.00  0.00     0.200 A 
ATOM     24  C   UNL     1      44.786  34.067  78.025  1.00  0.00     0.131 A 
ATOM     25  N   UNL     1      44.134  34.361  79.144  1.00  0.00    -0.245 NA
ENDBRANCH   8  21
ENDBRANCH   7   8
TORSDOF 4
ENDMDL
