MODEL 1
REMARK VINA RESULT:      -6.4      0.000      0.000
REMARK SMILES COC(=O)c1cc(O)c(=O)c2c(O)c(O)ccc2c1
REMARK SMILES IDX 5 1 6 2 7 3 9 4 10 5 11 6 12 7 14 8 16 9 17 10 18 11 19 12
REMARK SMILES IDX 3 13 4 14 2 15 1 16 8 17 13 19 15 21
REMARK H PARENT 8 18 13 20 15 22
ROOT
ATOM      1  C   UNL     1       5.664  33.487  32.275  1.00  0.00     0.064 A 
ATOM      2  C   UNL     1       4.601  33.504  33.161  1.00  0.00     0.066 A 
ATOM      3  C   UNL     1       4.406  32.801  34.344  1.00  0.00     0.164 A 
ATOM      4  C   UNL     1       5.326  32.036  35.023  1.00  0.00     0.231 A 
ATOM      5  O   UNL     1       5.035  31.769  36.212  1.00  0.00    -0.285 OA
ATOM      6  C   UNL     1       6.540  31.520  34.559  1.00  0.00     0.079 A 
ATOM      7  C   UNL     1       7.141  30.688  35.468  1.00  0.00     0.169 A 
ATOM      8  C   UNL     1       8.365  30.081  35.172  1.00  0.00     0.158 A 
ATOM      9  C   UNL     1       8.981  30.311  33.965  1.00  0.00     0.051 A 
ATOM     10  C   UNL     1       8.354  31.152  33.070  1.00  0.00     0.013 A 
ATOM     11  C   UNL     1       7.149  31.760  33.340  1.00  0.00    -0.009 A 
ATOM     12  C   UNL     1       6.690  32.571  32.298  1.00  0.00     0.024 A 
ENDROOT
BRANCH   1  13
ATOM     13  C   UNL     1       5.702  34.514  31.244  1.00  0.00     0.338 C 
ATOM     14  O   UNL     1       4.718  34.604  30.472  1.00  0.00    -0.246 OA
BRANCH  13  15
ATOM     15  O   UNL     1       6.758  35.383  31.078  1.00  0.00    -0.465 OA
ATOM     16  C   UNL     1       7.035  36.042  29.846  1.00  0.00     0.282 C 
ENDBRANCH  13  15
ENDBRANCH   1  13
BRANCH   3  17
ATOM     17  O   UNL     1       3.143  32.883  34.898  1.00  0.00    -0.504 OA
ATOM     18  H   UNL     1       2.314  33.054  34.363  1.00  0.00     0.293 HD
ENDBRANCH   3  17
BRANCH   7  19
ATOM     19  O   UNL     1       6.541  30.435  36.702  1.00  0.00    -0.504 OA
ATOM     20  H   UNL     1       5.601  30.043  36.721  1.00  0.00     0.293 HD
ENDBRANCH   7  19
BRANCH   8  21
ATOM     21  O   UNL     1       8.938  29.249  36.117  1.00  0.00    -0.504 OA
ATOM     22  H   UNL     1       9.613  28.546  35.837  1.00  0.00     0.293 HD
ENDBRANCH   8  21
TORSDOF 5
ENDMDL
MODEL 2
REMARK VINA RESULT:      -6.3      4.575      9.676
REMARK SMILES COC(=O)c1cc(O)c(=O)c2c(O)c(O)ccc2c1
REMARK SMILES IDX 5 1 6 2 7 3 9 4 10 5 11 6 12 7 14 8 16 9 17 10 18 11 19 12
REMARK SMILES IDX 3 13 4 14 2 15 1 16 8 17 13 19 15 21
REMARK H PARENT 8 18 13 20 15 22
ROOT
ATOM      1  C   UNL     1       5.718  35.493  28.929  1.00  0.00     0.064 A 
ATOM      2  C   UNL     1       6.516  34.885  27.976  1.00  0.00     0.066 A 
ATOM      3  C   UNL     1       6.457  34.937  26.589  1.00  0.00     0.164 A 
ATOM      4  C   UNL     1       5.681  35.770  25.816  1.00  0.00     0.231 A 
ATOM      5  O   UNL     1       6.025  35.870  24.615  1.00  0.00    -0.285 OA
ATOM      6  C   UNL     1       4.562  36.518  26.196  1.00  0.00     0.079 A 
ATOM      7  C   UNL     1       3.953  37.134  25.133  1.00  0.00     0.169 A 
ATOM      8  C   UNL     1       2.817  37.925  25.327  1.00  0.00     0.158 A 
ATOM      9  C   UNL     1       2.296  38.094  26.589  1.00  0.00     0.051 A 
ATOM     10  C   UNL     1       2.929  37.463  27.639  1.00  0.00     0.013 A 
ATOM     11  C   UNL     1       4.048  36.680  27.470  1.00  0.00    -0.009 A 
ATOM     12  C   UNL     1       4.530  36.135  28.664  1.00  0.00     0.024 A 
ENDROOT
BRANCH   1  13
ATOM     13  C   UNL     1       6.167  35.455  30.313  1.00  0.00     0.338 C 
ATOM     14  O   UNL     1       7.206  36.093  30.608  1.00  0.00    -0.246 OA
BRANCH  13  15
ATOM     15  O   UNL     1       5.511  34.759  31.304  1.00  0.00    -0.465 OA
ATOM     16  C   UNL     1       5.826  34.894  32.687  1.00  0.00     0.282 C 
ENDBRANCH  13  15
ENDBRANCH   1  13
BRANCH   3  17
ATOM     17  O   UNL     1       7.273  34.051  25.912  1.00  0.00    -0.504 OA
ATOM     18  H   UNL     1       7.530  34.158  24.950  1.00  0.00     0.293 HD
ENDBRANCH   3  17
BRANCH   7  19
ATOM     19  O   UNL     1       4.458  36.981  23.841  1.00  0.00    -0.504 OA
ATOM     20  H   UNL     1       5.275  36.391  23.699  1.00  0.00     0.293 HD
ENDBRANCH   7  19
BRANCH   8  21
ATOM     21  O   UNL     1       2.234  38.529  24.228  1.00  0.00    -0.504 OA
ATOM     22  H   UNL     1       2.035  39.523  24.237  1.00  0.00     0.293 HD
ENDBRANCH   8  21
TORSDOF 5
ENDMDL
MODEL 3
REMARK VINA RESULT:      -6.3      1.128      1.600
REMARK SMILES COC(=O)c1cc(O)c(=O)c2c(O)c(O)ccc2c1
REMARK SMILES IDX 5 1 6 2 7 3 9 4 10 5 11 6 12 7 14 8 16 9 17 10 18 11 19 12
REMARK SMILES IDX 3 13 4 14 2 15 1 16 8 17 13 19 15 21
REMARK H PARENT 8 18 13 20 15 22
ROOT
ATOM      1  C   UNL     1       5.932  34.390  31.891  1.00  0.00     0.064 A 
ATOM      2  C   UNL     1       4.836  34.827  32.614  1.00  0.00     0.066 A 
ATOM      3  C   UNL     1       4.256  34.310  33.766  1.00  0.00     0.164 A 
ATOM      4  C   UNL     1       4.754  33.320  34.581  1.00  0.00     0.231 A 
ATOM      5  O   UNL     1       4.235  33.245  35.719  1.00  0.00    -0.285 OA
ATOM      6  C   UNL     1       5.760  32.389  34.304  1.00  0.00     0.079 A 
ATOM      7  C   UNL     1       5.909  31.460  35.301  1.00  0.00     0.169 A 
ATOM      8  C   UNL     1       6.870  30.452  35.194  1.00  0.00     0.158 A 
ATOM      9  C   UNL     1       7.679  30.379  34.084  1.00  0.00     0.051 A 
ATOM     10  C   UNL     1       7.508  31.326  33.097  1.00  0.00     0.013 A 
ATOM     11  C   UNL     1       6.567  32.327  33.182  1.00  0.00    -0.009 A 
ATOM     12  C   UNL     1       6.561  33.180  32.074  1.00  0.00     0.024 A 
ENDROOT
BRANCH   1  13
ATOM     13  C   UNL     1       6.461  35.273  30.863  1.00  0.00     0.338 C 
ATOM     14  O   UNL     1       7.528  35.885  31.110  1.00  0.00    -0.246 OA
BRANCH  13  15
ATOM     15  O   UNL     1       5.853  35.467  29.642  1.00  0.00    -0.465 OA
ATOM     16  C   UNL     1       6.580  35.701  28.440  1.00  0.00     0.282 C 
ENDBRANCH  13  15
ENDBRANCH   1  13
BRANCH   3  17
ATOM     17  O   UNL     1       3.041  34.857  34.132  1.00  0.00    -0.504 OA
ATOM     18  H   UNL     1       2.870  35.842  34.183  1.00  0.00     0.293 HD
ENDBRANCH   3  17
BRANCH   7  19
ATOM     19  O   UNL     1       5.102  31.508  36.440  1.00  0.00    -0.504 OA
ATOM     20  H   UNL     1       4.285  30.903  36.489  1.00  0.00     0.293 HD
ENDBRANCH   7  19
BRANCH   8  21
ATOM     21  O   UNL     1       6.987  29.535  36.223  1.00  0.00    -0.504 OA
ATOM     22  H   UNL     1       7.413  29.806  37.102  1.00  0.00     0.293 HD
ENDBRANCH   8  21
TORSDOF 5
ENDMDL
MODEL 4
REMARK VINA RESULT:      -6.2      5.086     10.126
REMARK SMILES COC(=O)c1cc(O)c(=O)c2c(O)c(O)ccc2c1
REMARK SMILES IDX 5 1 6 2 7 3 9 4 10 5 11 6 12 7 14 8 16 9 17 10 18 11 19 12
REMARK SMILES IDX 3 13 4 14 2 15 1 16 8 17 13 19 15 21
REMARK H PARENT 8 18 13 20 15 22
ROOT
ATOM      1  C   UNL     1       5.461  35.765  28.224  1.00  0.00     0.064 A 
ATOM      2  C   UNL     1       6.001  35.426  26.996  1.00  0.00     0.066 A 
ATOM      3  C   UNL     1       5.543  35.685  25.710  1.00  0.00     0.164 A 
ATOM      4  C   UNL     1       4.510  36.516  25.342  1.00  0.00     0.231 A 
ATOM      5  O   UNL     1       4.486  36.847  24.134  1.00  0.00    -0.285 OA
ATOM      6  C   UNL     1       3.487  37.038  26.140  1.00  0.00     0.079 A 
ATOM      7  C   UNL     1       2.549  37.724  25.413  1.00  0.00     0.169 A 
ATOM      8  C   UNL     1       1.453  38.314  26.048  1.00  0.00     0.158 A 
ATOM      9  C   UNL     1       1.302  38.213  27.411  1.00  0.00     0.051 A 
ATOM     10  C   UNL     1       2.260  37.517  28.117  1.00  0.00     0.013 A 
ATOM     11  C   UNL     1       3.347  36.928  27.513  1.00  0.00    -0.009 A 
ATOM     12  C   UNL     1       4.196  36.274  28.410  1.00  0.00     0.024 A 
ENDROOT
BRANCH   1  13
ATOM     13  C   UNL     1       6.288  35.572  29.405  1.00  0.00     0.338 C 
ATOM     14  O   UNL     1       7.319  36.278  29.518  1.00  0.00    -0.246 OA
BRANCH  13  15
ATOM     15  O   UNL     1       5.996  34.661  30.396  1.00  0.00    -0.465 OA
ATOM     16  C   UNL     1       6.423  34.817  31.746  1.00  0.00     0.282 C 
ENDBRANCH  13  15
ENDBRANCH   1  13
BRANCH   3  17
ATOM     17  O   UNL     1       6.204  35.033  24.687  1.00  0.00    -0.504 OA
ATOM     18  H   UNL     1       6.428  34.058  24.705  1.00  0.00     0.293 HD
ENDBRANCH   3  17
BRANCH   7  19
ATOM     19  O   UNL     1       2.674  37.844  24.029  1.00  0.00    -0.504 OA
ATOM     20  H   UNL     1       2.990  37.039  23.491  1.00  0.00     0.293 HD
ENDBRANCH   7  19
BRANCH   8  21
ATOM     21  O   UNL     1       0.530  38.998  25.278  1.00  0.00    -0.504 OA
ATOM     22  H   UNL     1       0.783  39.332  24.354  1.00  0.00     0.293 HD
ENDBRANCH   8  21
TORSDOF 5
ENDMDL
MODEL 5
REMARK VINA RESULT:      -5.7      2.317      6.172
REMARK SMILES COC(=O)c1cc(O)c(=O)c2c(O)c(O)ccc2c1
REMARK SMILES IDX 5 1 6 2 7 3 9 4 10 5 11 6 12 7 14 8 16 9 17 10 18 11 19 12
REMARK SMILES IDX 3 13 4 14 2 15 1 16 8 17 13 19 15 21
REMARK H PARENT 8 18 13 20 15 22
ROOT
ATOM      1  C   UNL     1       5.820  29.707  35.126  1.00  0.00     0.064 A 
ATOM      2  C   UNL     1       6.546  29.464  33.974  1.00  0.00     0.066 A 
ATOM      3  C   UNL     1       6.892  30.317  32.933  1.00  0.00     0.164 A 
ATOM      4  C   UNL     1       6.742  31.684  32.888  1.00  0.00     0.231 A 
ATOM      5  O   UNL     1       7.410  32.272  32.006  1.00  0.00    -0.285 OA
ATOM      6  C   UNL     1       5.942  32.499  33.696  1.00  0.00     0.079 A 
ATOM      7  C   UNL     1       5.934  33.806  33.283  1.00  0.00     0.169 A 
ATOM      8  C   UNL     1       5.187  34.764  33.974  1.00  0.00     0.158 A 
ATOM      9  C   UNL     1       4.451  34.405  35.078  1.00  0.00     0.051 A 
ATOM     10  C   UNL     1       4.477  33.084  35.472  1.00  0.00     0.013 A 
ATOM     11  C   UNL     1       5.205  32.125  34.806  1.00  0.00    -0.009 A 
ATOM     12  C   UNL     1       5.094  30.851  35.370  1.00  0.00     0.024 A 
ENDROOT
BRANCH   1  13
ATOM     13  C   UNL     1       5.823  28.681  36.159  1.00  0.00     0.338 C 
ATOM     14  O   UNL     1       6.801  27.896  36.198  1.00  0.00    -0.246 OA
BRANCH  13  15
ATOM     15  O   UNL     1       4.815  28.533  37.085  1.00  0.00    -0.465 OA
ATOM     16  C   UNL     1       5.025  28.659  38.488  1.00  0.00     0.282 C 
ENDBRANCH  13  15
ENDBRANCH   1  13
BRANCH   3  17
ATOM     17  O   UNL     1       7.451  29.721  31.819  1.00  0.00    -0.504 OA
ATOM     18  H   UNL     1       7.787  30.233  31.027  1.00  0.00     0.293 HD
ENDBRANCH   3  17
BRANCH   7  19
ATOM     19  O   UNL     1       6.671  34.201  32.165  1.00  0.00    -0.504 OA
ATOM     20  H   UNL     1       7.669  34.376  32.271  1.00  0.00     0.293 HD
ENDBRANCH   7  19
BRANCH   8  21
ATOM     21  O   UNL     1       5.207  36.071  33.524  1.00  0.00    -0.504 OA
ATOM     22  H   UNL     1       4.411  36.451  33.023  1.00  0.00     0.293 HD
ENDBRANCH   8  21
TORSDOF 5
ENDMDL
MODEL 6
REMARK VINA RESULT:      -5.7      2.923      6.688
REMARK SMILES COC(=O)c1cc(O)c(=O)c2c(O)c(O)ccc2c1
REMARK SMILES IDX 5 1 6 2 7 3 9 4 10 5 11 6 12 7 14 8 16 9 17 10 18 11 19 12
REMARK SMILES IDX 3 13 4 14 2 15 1 16 8 17 13 19 15 21
REMARK H PARENT 8 18 13 20 15 22
ROOT
ATOM      1  C   UNL     1       7.700  27.440  36.528  1.00  0.00     0.064 A 
ATOM      2  C   UNL     1       6.329  27.453  36.713  1.00  0.00     0.066 A 
ATOM      3  C   UNL     1       5.358  28.289  36.175  1.00  0.00     0.164 A 
ATOM      4  C   UNL     1       5.514  29.213  35.168  1.00  0.00     0.231 A 
ATOM      5  O   UNL     1       4.455  29.611  34.630  1.00  0.00    -0.285 OA
ATOM      6  C   UNL     1       6.699  29.762  34.668  1.00  0.00     0.079 A 
ATOM      7  C   UNL     1       6.474  30.756  33.750  1.00  0.00     0.169 A 
ATOM      8  C   UNL     1       7.545  31.419  33.145  1.00  0.00     0.158 A 
ATOM      9  C   UNL     1       8.840  31.081  33.464  1.00  0.00     0.051 A 
ATOM     10  C   UNL     1       9.037  30.078  34.389  1.00  0.00     0.013 A 
ATOM     11  C   UNL     1       7.997  29.413  34.997  1.00  0.00    -0.009 A 
ATOM     12  C   UNL     1       8.417  28.434  35.902  1.00  0.00     0.024 A 
ENDROOT
BRANCH   1  13
ATOM     13  C   UNL     1       8.440  26.291  37.029  1.00  0.00     0.338 C 
ATOM     14  O   UNL     1       7.785  25.353  37.543  1.00  0.00    -0.246 OA
BRANCH  13  15
ATOM     15  O   UNL     1       9.812  26.186  36.966  1.00  0.00    -0.465 OA
ATOM     16  C   UNL     1      10.581  25.468  37.925  1.00  0.00     0.282 C 
ENDBRANCH  13  15
ENDBRANCH   1  13
BRANCH   3  17
ATOM     17  O   UNL     1       4.092  28.176  36.717  1.00  0.00    -0.504 OA
ATOM     18  H   UNL     1       3.383  28.877  36.619  1.00  0.00     0.293 HD
ENDBRANCH   3  17
BRANCH   7  19
ATOM     19  O   UNL     1       5.171  31.121  33.406  1.00  0.00    -0.504 OA
ATOM     20  H   UNL     1       4.393  30.701  33.911  1.00  0.00     0.293 HD
ENDBRANCH   7  19
BRANCH   8  21
ATOM     21  O   UNL     1       7.274  32.415  32.225  1.00  0.00    -0.504 OA
ATOM     22  H   UNL     1       7.605  33.361  32.384  1.00  0.00     0.293 HD
ENDBRANCH   8  21
TORSDOF 5
ENDMDL
MODEL 7
REMARK VINA RESULT:      -5.7      2.472      5.091
REMARK SMILES COC(=O)c1cc(O)c(=O)c2c(O)c(O)ccc2c1
REMARK SMILES IDX 5 1 6 2 7 3 9 4 10 5 11 6 12 7 14 8 16 9 17 10 18 11 19 12
REMARK SMILES IDX 3 13 4 14 2 15 1 16 8 17 13 19 15 21
REMARK H PARENT 8 18 13 20 15 22
ROOT
ATOM      1  C   UNL     1       6.632  29.863  33.319  1.00  0.00     0.064 A 
ATOM      2  C   UNL     1       6.308  29.671  34.650  1.00  0.00     0.066 A 
ATOM      3  C   UNL     1       5.871  30.577  35.609  1.00  0.00     0.164 A 
ATOM      4  C   UNL     1       5.478  31.880  35.409  1.00  0.00     0.231 A 
ATOM      5  O   UNL     1       4.824  32.397  36.345  1.00  0.00    -0.285 OA
ATOM      6  C   UNL     1       5.712  32.700  34.301  1.00  0.00     0.079 A 
ATOM      7  C   UNL     1       5.289  33.989  34.498  1.00  0.00     0.169 A 
ATOM      8  C   UNL     1       5.443  34.948  33.494  1.00  0.00     0.158 A 
ATOM      9  C   UNL     1       6.023  34.609  32.294  1.00  0.00     0.051 A 
ATOM     10  C   UNL     1       6.440  33.306  32.122  1.00  0.00     0.013 A 
ATOM     11  C   UNL     1       6.297  32.346  33.098  1.00  0.00    -0.009 A 
ATOM     12  C   UNL     1       6.785  31.092  32.719  1.00  0.00     0.024 A 
ENDROOT
BRANCH   1  13
ATOM     13  C   UNL     1       6.825  28.682  32.491  1.00  0.00     0.338 C 
ATOM     14  O   UNL     1       7.130  28.856  31.287  1.00  0.00    -0.246 OA
BRANCH  13  15
ATOM     15  O   UNL     1       6.690  27.395  32.962  1.00  0.00    -0.465 OA
ATOM     16  C   UNL     1       6.201  26.322  32.164  1.00  0.00     0.282 C 
ENDBRANCH  13  15
ENDBRANCH   1  13
BRANCH   3  17
ATOM     17  O   UNL     1       5.828  30.112  36.909  1.00  0.00    -0.504 OA
ATOM     18  H   UNL     1       5.291  30.546  37.635  1.00  0.00     0.293 HD
ENDBRANCH   3  17
BRANCH   7  19
ATOM     19  O   UNL     1       4.697  34.363  35.706  1.00  0.00    -0.504 OA
ATOM     20  H   UNL     1       4.294  33.641  36.301  1.00  0.00     0.293 HD
ENDBRANCH   7  19
BRANCH   8  21
ATOM     21  O   UNL     1       5.002  36.236  33.734  1.00  0.00    -0.504 OA
ATOM     22  H   UNL     1       4.009  36.434  33.790  1.00  0.00     0.293 HD
ENDBRANCH   8  21
TORSDOF 5
ENDMDL
MODEL 8
REMARK VINA RESULT:      -5.7      5.434      9.882
REMARK SMILES COC(=O)c1cc(O)c(=O)c2c(O)c(O)ccc2c1
REMARK SMILES IDX 5 1 6 2 7 3 9 4 10 5 11 6 12 7 14 8 16 9 17 10 18 11 19 12
REMARK SMILES IDX 3 13 4 14 2 15 1 16 8 17 13 19 15 21
REMARK H PARENT 8 18 13 20 15 22
ROOT
ATOM      1  C   UNL     1       5.412  35.513  28.569  1.00  0.00     0.064 A 
ATOM      2  C   UNL     1       6.054  35.110  27.412  1.00  0.00     0.066 A 
ATOM      3  C   UNL     1       5.757  35.376  26.081  1.00  0.00     0.164 A 
ATOM      4  C   UNL     1       4.834  36.272  25.592  1.00  0.00     0.231 A 
ATOM      5  O   UNL     1       4.965  36.579  24.385  1.00  0.00    -0.285 OA
ATOM      6  C   UNL     1       3.774  36.883  26.268  1.00  0.00     0.079 A 
ATOM      7  C   UNL     1       2.973  37.621  25.436  1.00  0.00     0.169 A 
ATOM      8  C   UNL     1       1.862  38.303  25.941  1.00  0.00     0.158 A 
ATOM      9  C   UNL     1       1.559  38.241  27.280  1.00  0.00     0.051 A 
ATOM     10  C   UNL     1       2.382  37.492  28.095  1.00  0.00     0.013 A 
ATOM     11  C   UNL     1       3.480  36.813  27.619  1.00  0.00    -0.009 A 
ATOM     12  C   UNL     1       4.176  36.116  28.611  1.00  0.00     0.024 A 
ENDROOT
BRANCH   1  13
ATOM     13  C   UNL     1       6.091  35.284  29.836  1.00  0.00     0.338 C 
ATOM     14  O   UNL     1       5.687  34.338  30.553  1.00  0.00    -0.246 OA
BRANCH  13  15
ATOM     15  O   UNL     1       7.148  36.049  30.279  1.00  0.00    -0.465 OA
ATOM     16  C   UNL     1       7.638  37.182  29.570  1.00  0.00     0.282 C 
ENDBRANCH  13  15
ENDBRANCH   1  13
BRANCH   3  17
ATOM     17  O   UNL     1       6.473  34.656  25.143  1.00  0.00    -0.504 OA
ATOM     18  H   UNL     1       7.017  35.080  24.417  1.00  0.00     0.293 HD
ENDBRANCH   3  17
BRANCH   7  19
ATOM     19  O   UNL     1       3.254  37.703  24.071  1.00  0.00    -0.504 OA
ATOM     20  H   UNL     1       4.086  37.240  23.712  1.00  0.00     0.293 HD
ENDBRANCH   7  19
BRANCH   8  21
ATOM     21  O   UNL     1       1.081  39.037  25.066  1.00  0.00    -0.504 OA
ATOM     22  H   UNL     1       1.469  39.369  24.190  1.00  0.00     0.293 HD
ENDBRANCH   8  21
TORSDOF 5
ENDMDL
MODEL 9
REMARK VINA RESULT:      -5.7      2.763      3.939
REMARK SMILES COC(=O)c1cc(O)c(=O)c2c(O)c(O)ccc2c1
REMARK SMILES IDX 5 1 6 2 7 3 9 4 10 5 11 6 12 7 14 8 16 9 17 10 18 11 19 12
REMARK SMILES IDX 3 13 4 14 2 15 1 16 8 17 13 19 15 21
REMARK H PARENT 8 18 13 20 15 22
ROOT
ATOM      1  C   UNL     1       6.081  31.932  33.912  1.00  0.00     0.064 A 
ATOM      2  C   UNL     1       6.517  31.156  32.853  1.00  0.00     0.066 A 
ATOM      3  C   UNL     1       6.755  29.789  32.778  1.00  0.00     0.164 A 
ATOM      4  C   UNL     1       6.434  28.832  33.714  1.00  0.00     0.231 A 
ATOM      5  O   UNL     1       6.443  27.649  33.303  1.00  0.00    -0.285 OA
ATOM      6  C   UNL     1       6.099  29.010  35.060  1.00  0.00     0.079 A 
ATOM      7  C   UNL     1       5.968  27.823  35.733  1.00  0.00     0.169 A 
ATOM      8  C   UNL     1       5.636  27.809  37.090  1.00  0.00     0.158 A 
ATOM      9  C   UNL     1       5.437  28.989  37.768  1.00  0.00     0.051 A 
ATOM     10  C   UNL     1       5.575  30.168  37.067  1.00  0.00     0.013 A 
ATOM     11  C   UNL     1       5.902  30.204  35.731  1.00  0.00    -0.009 A 
ATOM     12  C   UNL     1       5.991  31.501  35.215  1.00  0.00     0.024 A 
ENDROOT
BRANCH   1  13
ATOM     13  C   UNL     1       5.686  33.304  33.629  1.00  0.00     0.338 C 
ATOM     14  O   UNL     1       5.509  34.073  34.604  1.00  0.00    -0.246 OA
BRANCH  13  15
ATOM     15  O   UNL     1       5.500  33.793  32.355  1.00  0.00    -0.465 OA
ATOM     16  C   UNL     1       6.361  34.758  31.760  1.00  0.00     0.282 C 
ENDBRANCH  13  15
ENDBRANCH   1  13
BRANCH   3  17
ATOM     17  O   UNL     1       7.384  29.343  31.632  1.00  0.00    -0.504 OA
ATOM     18  H   UNL     1       7.095  28.532  31.121  1.00  0.00     0.293 HD
ENDBRANCH   3  17
BRANCH   7  19
ATOM     19  O   UNL     1       6.164  26.609  35.072  1.00  0.00    -0.504 OA
ATOM     20  H   UNL     1       7.115  26.301  34.880  1.00  0.00     0.293 HD
ENDBRANCH   7  19
BRANCH   8  21
ATOM     21  O   UNL     1       5.513  26.589  37.730  1.00  0.00    -0.504 OA
ATOM     22  H   UNL     1       4.595  26.200  37.915  1.00  0.00     0.293 HD
ENDBRANCH   8  21
TORSDOF 5
ENDMDL
