MODEL 1
REMARK VINA RESULT:      -7.9      0.000      0.000
REMARK SMILES O=C(CCC[NH+]1CCC(O)(c2ccc(Cl)cc2)CC1)c1ccc(F)cc1
REMARK SMILES IDX 4 1 3 2 2 3 1 4 20 5 21 6 26 7 22 8 25 9 23 10 24 11 5 12
REMARK SMILES IDX 6 13 7 14 19 15 8 16 18 17 9 18 10 20 11 22 12 23 17 24
REMARK SMILES IDX 13 25 16 26 14 27 15 28
REMARK H PARENT 6 19 10 21
ROOT
ATOM      1  C   UNL     1     157.373 144.777 161.328  1.00  0.00     0.070 C 
ENDROOT
BRANCH   1   2
ATOM      2  C   UNL     1     156.583 144.900 160.044  1.00  0.00     0.087 C 
BRANCH   2   3
ATOM      3  C   UNL     1     157.356 145.402 158.906  1.00  0.00     0.163 C 
ATOM      4  O   UNL     1     158.555 145.760 159.033  1.00  0.00    -0.294 OA
BRANCH   3   5
ATOM      5  C   UNL     1     156.784 145.516 157.548  1.00  0.00     0.018 A 
ATOM      6  C   UNL     1     157.320 146.403 156.632  1.00  0.00     0.015 A 
ATOM      7  C   UNL     1     155.712 144.750 157.166  1.00  0.00     0.015 A 
ATOM      8  C   UNL     1     156.782 146.505 155.371  1.00  0.00     0.040 A 
ATOM      9  C   UNL     1     155.172 144.845 155.911  1.00  0.00     0.040 A 
ATOM     10  C   UNL     1     155.711 145.726 155.014  1.00  0.00     0.123 A 
ATOM     11  F   UNL     1     155.141 145.795 153.769  1.00  0.00    -0.207 F 
ENDBRANCH   3   5
ENDBRANCH   2   3
ENDBRANCH   1   2
BRANCH   1  12
ATOM     12  C   UNL     1     156.852 143.608 162.091  1.00  0.00     0.262 C 
BRANCH  12  13
ATOM     13  N   UNL     1     157.895 142.904 162.826  1.00  0.00    -0.335 N 
ATOM     14  C   UNL     1     157.797 141.483 162.689  1.00  0.00     0.265 C 
ATOM     15  C   UNL     1     159.181 143.365 162.415  1.00  0.00     0.265 C 
ATOM     16  C   UNL     1     157.911 141.057 161.251  1.00  0.00     0.102 C 
ATOM     17  C   UNL     1     159.969 142.472 161.555  1.00  0.00     0.102 C 
ATOM     18  C   UNL     1     159.241 141.491 160.712  1.00  0.00     0.100 C 
ATOM     19  H   UNL     1     157.695 143.122 163.848  1.00  0.00     0.348 HD
BRANCH  18  20
ATOM     20  O   UNL     1     160.038 140.322 160.655  1.00  0.00    -0.385 OA
ATOM     21  H   UNL     1     160.830 140.493 161.224  1.00  0.00     0.211 HD
ENDBRANCH  18  20
BRANCH  18  22
ATOM     22  C   UNL     1     159.132 141.929 159.275  1.00  0.00    -0.016 A 
ATOM     23  C   UNL     1     160.129 142.651 158.652  1.00  0.00     0.008 A 
ATOM     24  C   UNL     1     158.035 141.639 158.493  1.00  0.00     0.008 A 
ATOM     25  C   UNL     1     160.069 143.071 157.343  1.00  0.00     0.021 A 
ATOM     26  C   UNL     1     157.952 142.049 157.177  1.00  0.00     0.021 A 
ATOM     27  C   UNL     1     158.969 142.764 156.603  1.00  0.00     0.041 A 
ATOM     28  Cl  UNL     1     158.873 143.285 154.938  1.00  0.00    -0.084 Cl
ENDBRANCH  18  22
ENDBRANCH  12  13
ENDBRANCH   1  12
TORSDOF 7
ENDMDL
MODEL 2
REMARK VINA RESULT:      -7.7      3.587      6.764
REMARK SMILES O=C(CCC[NH+]1CCC(O)(c2ccc(Cl)cc2)CC1)c1ccc(F)cc1
REMARK SMILES IDX 4 1 3 2 2 3 1 4 20 5 21 6 26 7 22 8 25 9 23 10 24 11 5 12
REMARK SMILES IDX 6 13 7 14 19 15 8 16 18 17 9 18 10 20 11 22 12 23 17 24
REMARK SMILES IDX 13 25 16 26 14 27 15 28
REMARK H PARENT 6 19 10 21
ROOT
ATOM      1  C   UNL     1     159.039 142.540 156.082  1.00  0.00     0.070 C 
ENDROOT
BRANCH   1   2
ATOM      2  C   UNL     1     159.002 142.248 157.565  1.00  0.00     0.087 C 
BRANCH   2   3
ATOM      3  C   UNL     1     160.171 142.729 158.304  1.00  0.00     0.163 C 
ATOM      4  O   UNL     1     161.164 143.225 157.712  1.00  0.00    -0.294 OA
BRANCH   3   5
ATOM      5  C   UNL     1     160.258 142.664 159.778  1.00  0.00     0.018 A 
ATOM      6  C   UNL     1     160.967 143.620 160.483  1.00  0.00     0.015 A 
ATOM      7  C   UNL     1     159.641 141.659 160.479  1.00  0.00     0.015 A 
ATOM      8  C   UNL     1     161.045 143.553 161.853  1.00  0.00     0.040 A 
ATOM      9  C   UNL     1     159.713 141.586 161.844  1.00  0.00     0.040 A 
ATOM     10  C   UNL     1     160.418 142.538 162.530  1.00  0.00     0.123 A 
ATOM     11  F   UNL     1     160.470 142.430 163.896  1.00  0.00    -0.207 F 
ENDBRANCH   3   5
ENDBRANCH   2   3
ENDBRANCH   1   2
BRANCH   1  12
ATOM     12  C   UNL     1     157.845 143.360 155.733  1.00  0.00     0.262 C 
BRANCH  12  13
ATOM     13  N   UNL     1     158.196 144.628 155.106  1.00  0.00    -0.335 N 
ATOM     14  C   UNL     1     157.103 145.552 155.090  1.00  0.00     0.265 C 
ATOM     15  C   UNL     1     159.331 145.199 155.756  1.00  0.00     0.265 C 
ATOM     16  C   UNL     1     156.624 145.867 156.480  1.00  0.00     0.102 C 
ATOM     17  C   UNL     1     159.089 146.348 156.640  1.00  0.00     0.102 C 
ATOM     18  C   UNL     1     157.748 146.482 157.261  1.00  0.00     0.100 C 
ATOM     19  H   UNL     1     158.394 144.380 154.092  1.00  0.00     0.348 HD
BRANCH  18  20
ATOM     20  O   UNL     1     157.461 147.867 157.330  1.00  0.00    -0.385 OA
ATOM     21  H   UNL     1     156.532 147.947 157.661  1.00  0.00     0.211 HD
ENDBRANCH  18  20
BRANCH  18  22
ATOM     22  C   UNL     1     157.726 146.032 158.698  1.00  0.00    -0.016 A 
ATOM     23  C   UNL     1     157.055 144.896 159.100  1.00  0.00     0.008 A 
ATOM     24  C   UNL     1     158.371 146.724 159.700  1.00  0.00     0.008 A 
ATOM     25  C   UNL     1     157.011 144.451 160.401  1.00  0.00     0.021 A 
ATOM     26  C   UNL     1     158.340 146.297 161.013  1.00  0.00     0.021 A 
ATOM     27  C   UNL     1     157.660 145.162 161.362  1.00  0.00     0.041 A 
ATOM     28  Cl  UNL     1     157.618 144.614 163.021  1.00  0.00    -0.084 Cl
ENDBRANCH  18  22
ENDBRANCH  12  13
ENDBRANCH   1  12
TORSDOF 7
ENDMDL
MODEL 3
REMARK VINA RESULT:      -7.6      2.837      4.374
REMARK SMILES O=C(CCC[NH+]1CCC(O)(c2ccc(Cl)cc2)CC1)c1ccc(F)cc1
REMARK SMILES IDX 4 1 3 2 2 3 1 4 20 5 21 6 26 7 22 8 25 9 23 10 24 11 5 12
REMARK SMILES IDX 6 13 7 14 19 15 8 16 18 17 9 18 10 20 11 22 12 23 17 24
REMARK SMILES IDX 13 25 16 26 14 27 15 28
REMARK H PARENT 6 19 10 21
ROOT
ATOM      1  C   UNL     1     157.933 145.905 160.104  1.00  0.00     0.070 C 
ENDROOT
BRANCH   1   2
ATOM      2  C   UNL     1     157.983 146.358 158.662  1.00  0.00     0.087 C 
BRANCH   2   3
ATOM      3  C   UNL     1     159.161 145.895 157.925  1.00  0.00     0.163 C 
ATOM      4  O   UNL     1     160.251 146.523 157.967  1.00  0.00    -0.294 OA
BRANCH   3   5
ATOM      5  C   UNL     1     159.145 144.673 157.095  1.00  0.00     0.018 A 
ATOM      6  C   UNL     1     159.578 143.466 157.614  1.00  0.00     0.015 A 
ATOM      7  C   UNL     1     158.703 144.706 155.797  1.00  0.00     0.015 A 
ATOM      8  C   UNL     1     159.561 142.333 156.836  1.00  0.00     0.040 A 
ATOM      9  C   UNL     1     158.684 143.581 155.016  1.00  0.00     0.040 A 
ATOM     10  C   UNL     1     159.114 142.393 155.541  1.00  0.00     0.123 A 
ATOM     11  F   UNL     1     159.082 141.290 154.728  1.00  0.00    -0.207 F 
ENDBRANCH   3   5
ENDBRANCH   2   3
ENDBRANCH   1   2
BRANCH   1  12
ATOM     12  C   UNL     1     156.540 145.475 160.414  1.00  0.00     0.262 C 
BRANCH  12  13
ATOM     13  N   UNL     1     156.475 144.127 160.964  1.00  0.00    -0.335 N 
ATOM     14  C   UNL     1     155.146 143.754 161.343  1.00  0.00     0.265 C 
ATOM     15  C   UNL     1     157.018 143.191 160.034  1.00  0.00     0.265 C 
ATOM     16  C   UNL     1     154.204 143.796 160.170  1.00  0.00     0.102 C 
ATOM     17  C   UNL     1     156.065 142.336 159.311  1.00  0.00     0.102 C 
ATOM     18  C   UNL     1     154.681 142.837 159.121  1.00  0.00     0.100 C 
ATOM     19  H   UNL     1     157.040 144.177 161.863  1.00  0.00     0.348 HD
BRANCH  18  20
ATOM     20  O   UNL     1     153.821 141.715 159.200  1.00  0.00    -0.385 OA
ATOM     21  H   UNL     1     154.398 140.928 159.365  1.00  0.00     0.211 HD
ENDBRANCH  18  20
BRANCH  18  22
ATOM     22  C   UNL     1     154.446 143.380 157.736  1.00  0.00    -0.016 A 
ATOM     23  C   UNL     1     155.314 144.275 157.143  1.00  0.00     0.008 A 
ATOM     24  C   UNL     1     153.355 143.021 156.975  1.00  0.00     0.008 A 
ATOM     25  C   UNL     1     155.135 144.794 155.881  1.00  0.00     0.021 A 
ATOM     26  C   UNL     1     153.155 143.530 155.707  1.00  0.00     0.021 A 
ATOM     27  C   UNL     1     154.045 144.416 155.161  1.00  0.00     0.041 A 
ATOM     28  Cl  UNL     1     153.801 145.063 153.557  1.00  0.00    -0.084 Cl
ENDBRANCH  18  22
ENDBRANCH  12  13
ENDBRANCH   1  12
TORSDOF 7
ENDMDL
MODEL 4
REMARK VINA RESULT:      -7.5      2.308      3.213
REMARK SMILES O=C(CCC[NH+]1CCC(O)(c2ccc(Cl)cc2)CC1)c1ccc(F)cc1
REMARK SMILES IDX 4 1 3 2 2 3 1 4 20 5 21 6 26 7 22 8 25 9 23 10 24 11 5 12
REMARK SMILES IDX 6 13 7 14 19 15 8 16 18 17 9 18 10 20 11 22 12 23 17 24
REMARK SMILES IDX 13 25 16 26 14 27 15 28
REMARK H PARENT 6 19 10 21
ROOT
ATOM      1  C   UNL     1     155.687 140.491 160.122  1.00  0.00     0.070 C 
ENDROOT
BRANCH   1   2
ATOM      2  C   UNL     1     155.020 140.527 158.765  1.00  0.00     0.087 C 
BRANCH   2   3
ATOM      3  C   UNL     1     154.176 141.702 158.538  1.00  0.00     0.163 C 
ATOM      4  O   UNL     1     153.015 141.778 159.015  1.00  0.00    -0.294 OA
BRANCH   3   5
ATOM      5  C   UNL     1     154.632 142.863 157.744  1.00  0.00     0.018 A 
ATOM      6  C   UNL     1     154.247 143.004 156.423  1.00  0.00     0.015 A 
ATOM      7  C   UNL     1     155.442 143.822 158.296  1.00  0.00     0.015 A 
ATOM      8  C   UNL     1     154.674 144.086 155.690  1.00  0.00     0.040 A 
ATOM      9  C   UNL     1     155.872 144.902 157.572  1.00  0.00     0.040 A 
ATOM     10  C   UNL     1     155.484 145.031 156.267  1.00  0.00     0.123 A 
ATOM     11  F   UNL     1     155.936 146.125 155.574  1.00  0.00    -0.207 F 
ENDBRANCH   3   5
ENDBRANCH   2   3
ENDBRANCH   1   2
BRANCH   1  12
ATOM     12  C   UNL     1     157.163 140.479 159.922  1.00  0.00     0.262 C 
BRANCH  12  13
ATOM     13  N   UNL     1     157.884 141.138 161.003  1.00  0.00    -0.335 N 
ATOM     14  C   UNL     1     159.296 140.911 160.937  1.00  0.00     0.265 C 
ATOM     15  C   UNL     1     157.595 142.536 161.005  1.00  0.00     0.265 C 
ATOM     16  C   UNL     1     159.879 141.421 159.647  1.00  0.00     0.102 C 
ATOM     17  C   UNL     1     158.646 143.437 160.511  1.00  0.00     0.102 C 
ATOM     18  C   UNL     1     159.633 142.896 159.544  1.00  0.00     0.100 C 
ATOM     19  H   UNL     1     157.544 140.654 161.886  1.00  0.00     0.348 HD
BRANCH  18  20
ATOM     20  O   UNL     1     160.874 143.518 159.830  1.00  0.00    -0.385 OA
ATOM     21  H   UNL     1     161.499 142.795 160.090  1.00  0.00     0.211 HD
ENDBRANCH  18  20
BRANCH  18  22
ATOM     22  C   UNL     1     159.339 143.305 158.124  1.00  0.00    -0.016 A 
ATOM     23  C   UNL     1     158.790 142.430 157.210  1.00  0.00     0.008 A 
ATOM     24  C   UNL     1     159.598 144.572 157.650  1.00  0.00     0.008 A 
ATOM     25  C   UNL     1     158.506 142.763 155.905  1.00  0.00     0.021 A 
ATOM     26  C   UNL     1     159.322 144.928 156.344  1.00  0.00     0.021 A 
ATOM     27  C   UNL     1     158.776 144.024 155.474  1.00  0.00     0.041 A 
ATOM     28  Cl  UNL     1     158.422 144.468 153.821  1.00  0.00    -0.084 Cl
ENDBRANCH  18  22
ENDBRANCH  12  13
ENDBRANCH   1  12
TORSDOF 7
ENDMDL
MODEL 5
REMARK VINA RESULT:      -7.4      2.026      2.848
REMARK SMILES O=C(CCC[NH+]1CCC(O)(c2ccc(Cl)cc2)CC1)c1ccc(F)cc1
REMARK SMILES IDX 4 1 3 2 2 3 1 4 20 5 21 6 26 7 22 8 25 9 23 10 24 11 5 12
REMARK SMILES IDX 6 13 7 14 19 15 8 16 18 17 9 18 10 20 11 22 12 23 17 24
REMARK SMILES IDX 13 25 16 26 14 27 15 28
REMARK H PARENT 6 19 10 21
ROOT
ATOM      1  C   UNL     1     156.131 141.228 159.622  1.00  0.00     0.070 C 
ENDROOT
BRANCH   1   2
ATOM      2  C   UNL     1     156.709 141.899 158.396  1.00  0.00     0.087 C 
BRANCH   2   3
ATOM      3  C   UNL     1     156.385 143.322 158.278  1.00  0.00     0.163 C 
ATOM      4  O   UNL     1     155.776 143.936 159.193  1.00  0.00    -0.294 OA
BRANCH   3   5
ATOM      5  C   UNL     1     156.749 144.122 157.090  1.00  0.00     0.018 A 
ATOM      6  C   UNL     1     157.477 143.556 156.059  1.00  0.00     0.015 A 
ATOM      7  C   UNL     1     156.375 145.437 156.981  1.00  0.00     0.015 A 
ATOM      8  C   UNL     1     157.813 144.305 154.956  1.00  0.00     0.040 A 
ATOM      9  C   UNL     1     156.705 146.189 155.886  1.00  0.00     0.040 A 
ATOM     10  C   UNL     1     157.426 145.618 154.872  1.00  0.00     0.123 A 
ATOM     11  F   UNL     1     157.740 146.404 153.794  1.00  0.00    -0.207 F 
ENDBRANCH   3   5
ENDBRANCH   2   3
ENDBRANCH   1   2
BRANCH   1  12
ATOM     12  C   UNL     1     157.229 140.510 160.328  1.00  0.00     0.262 C 
BRANCH  12  13
ATOM     13  N   UNL     1     157.262 140.794 161.757  1.00  0.00    -0.335 N 
ATOM     14  C   UNL     1     158.578 140.683 162.307  1.00  0.00     0.265 C 
ATOM     15  C   UNL     1     156.713 142.086 162.013  1.00  0.00     0.265 C 
ATOM     16  C   UNL     1     159.535 141.639 161.648  1.00  0.00     0.102 C 
ATOM     17  C   UNL     1     157.658 143.160 162.351  1.00  0.00     0.102 C 
ATOM     18  C   UNL     1     159.053 143.043 161.859  1.00  0.00     0.100 C 
ATOM     19  H   UNL     1     156.686 140.016 162.198  1.00  0.00     0.348 HD
BRANCH  18  20
ATOM     20  O   UNL     1     159.890 143.596 162.858  1.00  0.00    -0.385 OA
ATOM     21  H   UNL     1     159.820 144.579 162.774  1.00  0.00     0.211 HD
ENDBRANCH  18  20
BRANCH  18  22
ATOM     22  C   UNL     1     159.315 143.900 160.648  1.00  0.00    -0.016 A 
ATOM     23  C   UNL     1     159.965 143.412 159.533  1.00  0.00     0.008 A 
ATOM     24  C   UNL     1     158.926 145.219 160.576  1.00  0.00     0.008 A 
ATOM     25  C   UNL     1     160.224 144.161 158.408  1.00  0.00     0.021 A 
ATOM     26  C   UNL     1     159.176 145.990 159.458  1.00  0.00     0.021 A 
ATOM     27  C   UNL     1     159.824 145.460 158.375  1.00  0.00     0.041 A 
ATOM     28  Cl  UNL     1     160.142 146.428 156.956  1.00  0.00    -0.084 Cl
ENDBRANCH  18  22
ENDBRANCH  12  13
ENDBRANCH   1  12
TORSDOF 7
ENDMDL
MODEL 6
REMARK VINA RESULT:      -7.4      1.840      2.663
REMARK SMILES O=C(CCC[NH+]1CCC(O)(c2ccc(Cl)cc2)CC1)c1ccc(F)cc1
REMARK SMILES IDX 4 1 3 2 2 3 1 4 20 5 21 6 26 7 22 8 25 9 23 10 24 11 5 12
REMARK SMILES IDX 6 13 7 14 19 15 8 16 18 17 9 18 10 20 11 22 12 23 17 24
REMARK SMILES IDX 13 25 16 26 14 27 15 28
REMARK H PARENT 6 19 10 21
ROOT
ATOM      1  C   UNL     1     155.988 142.041 160.375  1.00  0.00     0.070 C 
ENDROOT
BRANCH   1   2
ATOM      2  C   UNL     1     156.575 142.697 159.146  1.00  0.00     0.087 C 
BRANCH   2   3
ATOM      3  C   UNL     1     156.066 144.044 158.880  1.00  0.00     0.163 C 
ATOM      4  O   UNL     1     155.845 144.859 159.813  1.00  0.00    -0.294 OA
BRANCH   3   5
ATOM      5  C   UNL     1     155.784 144.529 157.512  1.00  0.00     0.018 A 
ATOM      6  C   UNL     1     154.705 144.036 156.801  1.00  0.00     0.015 A 
ATOM      7  C   UNL     1     156.582 145.473 156.919  1.00  0.00     0.015 A 
ATOM      8  C   UNL     1     154.448 144.491 155.530  1.00  0.00     0.040 A 
ATOM      9  C   UNL     1     156.333 145.931 155.653  1.00  0.00     0.040 A 
ATOM     10  C   UNL     1     155.262 145.436 154.959  1.00  0.00     0.123 A 
ATOM     11  F   UNL     1     155.046 145.917 153.694  1.00  0.00    -0.207 F 
ENDBRANCH   3   5
ENDBRANCH   2   3
ENDBRANCH   1   2
BRANCH   1  12
ATOM     12  C   UNL     1     156.972 141.051 160.896  1.00  0.00     0.262 C 
BRANCH  12  13
ATOM     13  N   UNL     1     157.350 141.307 162.280  1.00  0.00    -0.335 N 
ATOM     14  C   UNL     1     158.717 140.974 162.544  1.00  0.00     0.265 C 
ATOM     15  C   UNL     1     157.087 142.669 162.617  1.00  0.00     0.265 C 
ATOM     16  C   UNL     1     159.657 141.767 161.678  1.00  0.00     0.102 C 
ATOM     17  C   UNL     1     158.245 143.568 162.724  1.00  0.00     0.102 C 
ATOM     18  C   UNL     1     159.467 143.228 161.954  1.00  0.00     0.100 C 
ATOM     19  H   UNL     1     156.761 140.629 162.849  1.00  0.00     0.348 HD
BRANCH  18  20
ATOM     20  O   UNL     1     160.575 143.622 162.743  1.00  0.00    -0.385 OA
ATOM     21  H   UNL     1     160.245 144.314 163.369  1.00  0.00     0.211 HD
ENDBRANCH  18  20
BRANCH  18  22
ATOM     22  C   UNL     1     159.606 144.045 160.696  1.00  0.00    -0.016 A 
ATOM     23  C   UNL     1     159.326 145.396 160.666  1.00  0.00     0.008 A 
ATOM     24  C   UNL     1     160.019 143.500 159.500  1.00  0.00     0.008 A 
ATOM     25  C   UNL     1     159.439 146.177 159.538  1.00  0.00     0.021 A 
ATOM     26  C   UNL     1     160.139 144.264 158.356  1.00  0.00     0.021 A 
ATOM     27  C   UNL     1     159.850 145.601 158.377  1.00  0.00     0.041 A 
ATOM     28  Cl  UNL     1     160.002 146.576 156.934  1.00  0.00    -0.084 Cl
ENDBRANCH  18  22
ENDBRANCH  12  13
ENDBRANCH   1  12
TORSDOF 7
ENDMDL
MODEL 7
REMARK VINA RESULT:      -7.4      2.015      3.228
REMARK SMILES O=C(CCC[NH+]1CCC(O)(c2ccc(Cl)cc2)CC1)c1ccc(F)cc1
REMARK SMILES IDX 4 1 3 2 2 3 1 4 20 5 21 6 26 7 22 8 25 9 23 10 24 11 5 12
REMARK SMILES IDX 6 13 7 14 19 15 8 16 18 17 9 18 10 20 11 22 12 23 17 24
REMARK SMILES IDX 13 25 16 26 14 27 15 28
REMARK H PARENT 6 19 10 21
ROOT
ATOM      1  C   UNL     1     160.309 142.942 162.011  1.00  0.00     0.070 C 
ENDROOT
BRANCH   1   2
ATOM      2  C   UNL     1     160.698 144.117 161.142  1.00  0.00     0.087 C 
BRANCH   2   3
ATOM      3  C   UNL     1     160.409 143.936 159.718  1.00  0.00     0.163 C 
ATOM      4  O   UNL     1     160.860 142.952 159.076  1.00  0.00    -0.294 OA
BRANCH   3   5
ATOM      5  C   UNL     1     159.577 144.887 158.952  1.00  0.00     0.018 A 
ATOM      6  C   UNL     1     158.338 145.277 159.427  1.00  0.00     0.015 A 
ATOM      7  C   UNL     1     160.011 145.403 157.757  1.00  0.00     0.015 A 
ATOM      8  C   UNL     1     157.569 146.162 158.709  1.00  0.00     0.040 A 
ATOM      9  C   UNL     1     159.251 146.285 157.037  1.00  0.00     0.040 A 
ATOM     10  C   UNL     1     158.027 146.663 157.517  1.00  0.00     0.123 A 
ATOM     11  F   UNL     1     157.293 147.545 156.767  1.00  0.00    -0.207 F 
ENDBRANCH   3   5
ENDBRANCH   2   3
ENDBRANCH   1   2
BRANCH   1  12
ATOM     12  C   UNL     1     158.847 142.702 161.850  1.00  0.00     0.262 C 
BRANCH  12  13
ATOM     13  N   UNL     1     158.484 141.301 162.024  1.00  0.00    -0.335 N 
ATOM     14  C   UNL     1     157.070 141.114 162.147  1.00  0.00     0.265 C 
ATOM     15  C   UNL     1     159.007 140.521 160.950  1.00  0.00     0.265 C 
ATOM     16  C   UNL     1     156.339 141.608 160.929  1.00  0.00     0.102 C 
ATOM     17  C   UNL     1     158.052 140.058 159.932  1.00  0.00     0.102 C 
ATOM     18  C   UNL     1     156.812 140.847 159.727  1.00  0.00     0.100 C 
ATOM     19  H   UNL     1     158.905 141.030 162.962  1.00  0.00     0.348 HD
BRANCH  18  20
ATOM     20  O   UNL     1     155.782 139.925 159.420  1.00  0.00    -0.385 OA
ATOM     21  H   UNL     1     154.936 140.438 159.413  1.00  0.00     0.211 HD
ENDBRANCH  18  20
BRANCH  18  22
ATOM     22  C   UNL     1     156.883 141.733 158.511  1.00  0.00    -0.016 A 
ATOM     23  C   UNL     1     155.880 142.627 158.197  1.00  0.00     0.008 A 
ATOM     24  C   UNL     1     157.948 141.708 157.638  1.00  0.00     0.008 A 
ATOM     25  C   UNL     1     155.906 143.453 157.096  1.00  0.00     0.021 A 
ATOM     26  C   UNL     1     157.996 142.528 156.527  1.00  0.00     0.021 A 
ATOM     27  C   UNL     1     156.976 143.399 156.258  1.00  0.00     0.041 A 
ATOM     28  Cl  UNL     1     157.029 144.440 154.856  1.00  0.00    -0.084 Cl
ENDBRANCH  18  22
ENDBRANCH  12  13
ENDBRANCH   1  12
TORSDOF 7
ENDMDL
MODEL 8
REMARK VINA RESULT:      -7.4      1.890      2.595
REMARK SMILES O=C(CCC[NH+]1CCC(O)(c2ccc(Cl)cc2)CC1)c1ccc(F)cc1
REMARK SMILES IDX 4 1 3 2 2 3 1 4 20 5 21 6 26 7 22 8 25 9 23 10 24 11 5 12
REMARK SMILES IDX 6 13 7 14 19 15 8 16 18 17 9 18 10 20 11 22 12 23 17 24
REMARK SMILES IDX 13 25 16 26 14 27 15 28
REMARK H PARENT 6 19 10 21
ROOT
ATOM      1  C   UNL     1     159.936 146.073 159.530  1.00  0.00     0.070 C 
ENDROOT
BRANCH   1   2
ATOM      2  C   UNL     1     158.804 146.355 158.567  1.00  0.00     0.087 C 
BRANCH   2   3
ATOM      3  C   UNL     1     159.000 145.799 157.227  1.00  0.00     0.163 C 
ATOM      4  O   UNL     1     160.141 145.465 156.814  1.00  0.00    -0.294 OA
BRANCH   3   5
ATOM      5  C   UNL     1     157.882 145.594 156.283  1.00  0.00     0.018 A 
ATOM      6  C   UNL     1     158.126 145.406 154.934  1.00  0.00     0.015 A 
ATOM      7  C   UNL     1     156.581 145.586 156.719  1.00  0.00     0.015 A 
ATOM      8  C   UNL     1     157.081 145.217 154.061  1.00  0.00     0.040 A 
ATOM      9  C   UNL     1     155.535 145.397 155.856  1.00  0.00     0.040 A 
ATOM     10  C   UNL     1     155.790 145.212 154.524  1.00  0.00     0.123 A 
ATOM     11  F   UNL     1     154.717 145.029 153.691  1.00  0.00    -0.207 F 
ENDBRANCH   3   5
ENDBRANCH   2   3
ENDBRANCH   1   2
BRANCH   1  12
ATOM     12  C   UNL     1     159.458 145.093 160.545  1.00  0.00     0.262 C 
BRANCH  12  13
ATOM     13  N   UNL     1     160.428 144.040 160.813  1.00  0.00    -0.335 N 
ATOM     14  C   UNL     1     159.928 143.052 161.719  1.00  0.00     0.265 C 
ATOM     15  C   UNL     1     160.849 143.438 159.589  1.00  0.00     0.265 C 
ATOM     16  C   UNL     1     158.692 142.383 161.181  1.00  0.00     0.102 C 
ATOM     17  C   UNL     1     160.323 142.099 159.286  1.00  0.00     0.102 C 
ATOM     18  C   UNL     1     159.022 141.708 159.884  1.00  0.00     0.100 C 
ATOM     19  H   UNL     1     161.225 144.532 161.316  1.00  0.00     0.348 HD
BRANCH  18  20
ATOM     20  O   UNL     1     159.102 140.324 160.175  1.00  0.00    -0.385 OA
ATOM     21  H   UNL     1     159.406 140.250 161.114  1.00  0.00     0.211 HD
ENDBRANCH  18  20
BRANCH  18  22
ATOM     22  C   UNL     1     157.880 141.811 158.907  1.00  0.00    -0.016 A 
ATOM     23  C   UNL     1     156.563 141.782 159.316  1.00  0.00     0.008 A 
ATOM     24  C   UNL     1     158.076 141.940 157.550  1.00  0.00     0.008 A 
ATOM     25  C   UNL     1     155.491 141.872 158.456  1.00  0.00     0.021 A 
ATOM     26  C   UNL     1     157.017 142.032 156.668  1.00  0.00     0.021 A 
ATOM     27  C   UNL     1     155.726 141.998 157.123  1.00  0.00     0.041 A 
ATOM     28  Cl  UNL     1     154.380 142.117 156.015  1.00  0.00    -0.084 Cl
ENDBRANCH  18  22
ENDBRANCH  12  13
ENDBRANCH   1  12
TORSDOF 7
ENDMDL
MODEL 9
REMARK VINA RESULT:      -7.4      3.594      6.177
REMARK SMILES O=C(CCC[NH+]1CCC(O)(c2ccc(Cl)cc2)CC1)c1ccc(F)cc1
REMARK SMILES IDX 4 1 3 2 2 3 1 4 20 5 21 6 26 7 22 8 25 9 23 10 24 11 5 12
REMARK SMILES IDX 6 13 7 14 19 15 8 16 18 17 9 18 10 20 11 22 12 23 17 24
REMARK SMILES IDX 13 25 16 26 14 27 15 28
REMARK H PARENT 6 19 10 21
ROOT
ATOM      1  C   UNL     1     154.563 144.152 155.717  1.00  0.00     0.070 C 
ENDROOT
BRANCH   1   2
ATOM      2  C   UNL     1     154.333 143.714 157.147  1.00  0.00     0.087 C 
BRANCH   2   3
ATOM      3  C   UNL     1     154.888 142.398 157.470  1.00  0.00     0.163 C 
ATOM      4  O   UNL     1     154.678 141.398 156.736  1.00  0.00    -0.294 OA
BRANCH   3   5
ATOM      5  C   UNL     1     155.722 142.162 158.668  1.00  0.00     0.018 A 
ATOM      6  C   UNL     1     155.187 142.304 159.935  1.00  0.00     0.015 A 
ATOM      7  C   UNL     1     157.039 141.799 158.551  1.00  0.00     0.015 A 
ATOM      8  C   UNL     1     155.968 142.084 161.045  1.00  0.00     0.040 A 
ATOM      9  C   UNL     1     157.823 141.577 159.652  1.00  0.00     0.040 A 
ATOM     10  C   UNL     1     157.282 141.721 160.900  1.00  0.00     0.123 A 
ATOM     11  F   UNL     1     158.099 141.494 161.977  1.00  0.00    -0.207 F 
ENDBRANCH   3   5
ENDBRANCH   2   3
ENDBRANCH   1   2
BRANCH   1  12
ATOM     12  C   UNL     1     155.554 145.265 155.720  1.00  0.00     0.262 C 
BRANCH  12  13
ATOM     13  N   UNL     1     156.707 144.995 154.871  1.00  0.00    -0.335 N 
ATOM     14  C   UNL     1     157.598 146.112 154.785  1.00  0.00     0.265 C 
ATOM     15  C   UNL     1     157.395 143.833 155.333  1.00  0.00     0.265 C 
ATOM     16  C   UNL     1     158.130 146.500 156.137  1.00  0.00     0.102 C 
ATOM     17  C   UNL     1     158.670 144.045 156.033  1.00  0.00     0.102 C 
ATOM     18  C   UNL     1     158.883 145.342 156.721  1.00  0.00     0.100 C 
ATOM     19  H   UNL     1     156.298 144.862 153.898  1.00  0.00     0.348 HD
BRANCH  18  20
ATOM     20  O   UNL     1     160.256 145.662 156.585  1.00  0.00    -0.385 OA
ATOM     21  H   UNL     1     160.646 145.625 157.493  1.00  0.00     0.211 HD
ENDBRANCH  18  20
BRANCH  18  22
ATOM     22  C   UNL     1     158.676 145.250 158.210  1.00  0.00    -0.016 A 
ATOM     23  C   UNL     1     157.460 145.532 158.799  1.00  0.00     0.008 A 
ATOM     24  C   UNL     1     159.681 144.881 159.076  1.00  0.00     0.008 A 
ATOM     25  C   UNL     1     157.230 145.460 160.154  1.00  0.00     0.021 A 
ATOM     26  C   UNL     1     159.474 144.803 160.439  1.00  0.00     0.021 A 
ATOM     27  C   UNL     1     158.249 145.092 160.977  1.00  0.00     0.041 A 
ATOM     28  Cl  UNL     1     157.977 144.993 162.700  1.00  0.00    -0.084 Cl
ENDBRANCH  18  22
ENDBRANCH  12  13
ENDBRANCH   1  12
TORSDOF 7
ENDMDL
