MODEL 1
REMARK VINA RESULT:      -7.7      0.000      0.000
REMARK SMILES CC/C(=C(\c1ccccc1)c1ccc(OCC[NH+](C)C)cc1)c1ccccc1
REMARK SMILES IDX 15 1 14 2 11 3 12 4 22 5 13 6 21 7 4 8 3 9 2 10 1 11 23 12
REMARK SMILES IDX 24 13 28 14 25 15 27 16 26 17 5 18 6 19 10 20 7 21 9 22 8 23
REMARK SMILES IDX 16 24 17 25 18 26 19 27 20 28
REMARK H PARENT 18 29
ROOT
ATOM      1  O   UNL     1     154.975 145.384 162.249  1.00  0.00    -0.488 OA
ENDROOT
BRANCH   1   2
ATOM      2  C   UNL     1     155.425 145.069 160.980  1.00  0.00     0.119 A 
ATOM      3  C   UNL     1     156.454 144.478 158.381  1.00  0.00    -0.017 A 
ATOM      4  C   UNL     1     155.261 143.945 158.830  1.00  0.00     0.012 A 
ATOM      5  C   UNL     1     157.117 145.318 159.271  1.00  0.00     0.012 A 
ATOM      6  C   UNL     1     154.775 144.241 160.094  1.00  0.00     0.047 A 
ATOM      7  C   UNL     1     156.635 145.609 160.519  1.00  0.00     0.047 A 
BRANCH   3   8
ATOM      8  C   UNL     1     156.975 144.205 157.054  1.00  0.00    -0.007 C 
ATOM      9  C   UNL     1     158.039 143.472 156.849  1.00  0.00    -0.033 C 
BRANCH   9  10
ATOM     10  C   UNL     1     158.643 143.200 155.516  1.00  0.00     0.033 C 
ATOM     11  C   UNL     1     158.901 141.727 155.392  1.00  0.00     0.009 C 
ENDBRANCH   9  10
BRANCH   9  12
ATOM     12  C   UNL     1     158.708 142.778 157.964  1.00  0.00    -0.022 A 
ATOM     13  C   UNL     1     159.946 143.156 158.418  1.00  0.00     0.008 A 
ATOM     14  C   UNL     1     158.068 141.725 158.544  1.00  0.00     0.008 A 
ATOM     15  C   UNL     1     160.530 142.470 159.452  1.00  0.00     0.001 A 
ATOM     16  C   UNL     1     158.626 140.998 159.599  1.00  0.00     0.001 A 
ATOM     17  C   UNL     1     159.869 141.401 160.033  1.00  0.00     0.000 A 
ENDBRANCH   9  12
BRANCH   8  18
ATOM     18  C   UNL     1     156.299 144.808 155.923  1.00  0.00    -0.018 A 
ATOM     19  C   UNL     1     156.612 146.072 155.464  1.00  0.00     0.009 A 
ATOM     20  C   UNL     1     155.263 144.119 155.298  1.00  0.00     0.009 A 
ATOM     21  C   UNL     1     155.900 146.603 154.419  1.00  0.00     0.001 A 
ATOM     22  C   UNL     1     154.541 144.636 154.248  1.00  0.00     0.001 A 
ATOM     23  C   UNL     1     154.875 145.912 153.803  1.00  0.00     0.000 A 
ENDBRANCH   8  18
ENDBRANCH   3   8
ENDBRANCH   1   2
BRANCH   1  24
ATOM     24  C   UNL     1     154.759 144.541 163.325  1.00  0.00     0.290 C 
BRANCH  24  25
ATOM     25  C   UNL     1     155.995 144.059 164.037  1.00  0.00     0.303 C 
BRANCH  25  26
ATOM     26  N   UNL     1     156.425 142.766 163.595  1.00  0.00    -0.337 N 
ATOM     27  C   UNL     1     156.608 141.821 164.675  1.00  0.00     0.332 C 
ATOM     28  C   UNL     1     157.668 142.810 162.852  1.00  0.00     0.332 C 
ATOM     29  H   UNL     1     155.716 142.327 162.936  1.00  0.00     0.347 HD
ENDBRANCH  25  26
ENDBRANCH  24  25
ENDBRANCH   1  24
TORSDOF 8
ENDMDL
MODEL 2
REMARK VINA RESULT:      -7.6      0.974      1.935
REMARK SMILES CC/C(=C(\c1ccccc1)c1ccc(OCC[NH+](C)C)cc1)c1ccccc1
REMARK SMILES IDX 15 1 14 2 11 3 12 4 22 5 13 6 21 7 4 8 3 9 2 10 1 11 23 12
REMARK SMILES IDX 24 13 28 14 25 15 27 16 26 17 5 18 6 19 10 20 7 21 9 22 8 23
REMARK SMILES IDX 16 24 17 25 18 26 19 27 20 28
REMARK H PARENT 18 29
ROOT
ATOM      1  O   UNL     1     154.514 144.994 162.560  1.00  0.00    -0.488 OA
ENDROOT
BRANCH   1   2
ATOM      2  C   UNL     1     155.135 144.838 161.334  1.00  0.00     0.119 A 
ATOM      3  C   UNL     1     156.326 144.454 158.767  1.00  0.00    -0.017 A 
ATOM      4  C   UNL     1     156.918 145.245 159.732  1.00  0.00     0.012 A 
ATOM      5  C   UNL     1     155.121 143.859 159.124  1.00  0.00     0.012 A 
ATOM      6  C   UNL     1     156.327 145.422 160.974  1.00  0.00     0.047 A 
ATOM      7  C   UNL     1     154.539 144.035 160.351  1.00  0.00     0.047 A 
BRANCH   3   8
ATOM      8  C   UNL     1     156.934 144.232 157.467  1.00  0.00    -0.007 C 
ATOM      9  C   UNL     1     158.006 143.500 157.304  1.00  0.00    -0.033 C 
BRANCH   9  10
ATOM     10  C   UNL     1     158.696 143.278 156.003  1.00  0.00     0.033 C 
ATOM     11  C   UNL     1     158.617 141.820 155.655  1.00  0.00     0.009 C 
ENDBRANCH   9  10
BRANCH   9  12
ATOM     12  C   UNL     1     158.596 142.757 158.431  1.00  0.00    -0.022 A 
ATOM     13  C   UNL     1     158.017 141.621 158.936  1.00  0.00     0.008 A 
ATOM     14  C   UNL     1     159.747 143.232 158.983  1.00  0.00     0.008 A 
ATOM     15  C   UNL     1     158.602 140.972 159.994  1.00  0.00     0.001 A 
ATOM     16  C   UNL     1     160.376 142.603 160.062  1.00  0.00     0.001 A 
ATOM     17  C   UNL     1     159.772 141.466 160.547  1.00  0.00     0.000 A 
ENDBRANCH   9  12
BRANCH   8  18
ATOM     18  C   UNL     1     156.337 144.884 156.319  1.00  0.00    -0.018 A 
ATOM     19  C   UNL     1     155.362 144.279 155.551  1.00  0.00     0.009 A 
ATOM     20  C   UNL     1     156.786 146.145 155.938  1.00  0.00     0.009 A 
ATOM     21  C   UNL     1     154.874 144.933 154.449  1.00  0.00     0.001 A 
ATOM     22  C   UNL     1     156.306 146.815 154.837  1.00  0.00     0.001 A 
ATOM     23  C   UNL     1     155.324 146.185 154.079  1.00  0.00     0.000 A 
ENDBRANCH   8  18
ENDBRANCH   3   8
ENDBRANCH   1   2
BRANCH   1  24
ATOM     24  C   UNL     1     154.928 145.736 163.652  1.00  0.00     0.290 C 
BRANCH  24  25
ATOM     25  C   UNL     1     155.518 144.949 164.793  1.00  0.00     0.303 C 
BRANCH  25  26
ATOM     26  N   UNL     1     156.948 145.002 164.826  1.00  0.00    -0.337 N 
ATOM     27  C   UNL     1     157.579 143.767 164.416  1.00  0.00     0.332 C 
ATOM     28  C   UNL     1     157.468 145.332 166.137  1.00  0.00     0.332 C 
ATOM     29  H   UNL     1     157.323 145.755 164.175  1.00  0.00     0.347 HD
ENDBRANCH  25  26
ENDBRANCH  24  25
ENDBRANCH   1  24
TORSDOF 8
ENDMDL
MODEL 3
REMARK VINA RESULT:      -7.6      1.137      1.762
REMARK SMILES CC/C(=C(\c1ccccc1)c1ccc(OCC[NH+](C)C)cc1)c1ccccc1
REMARK SMILES IDX 15 1 14 2 11 3 12 4 22 5 13 6 21 7 4 8 3 9 2 10 1 11 23 12
REMARK SMILES IDX 24 13 28 14 25 15 27 16 26 17 5 18 6 19 10 20 7 21 9 22 8 23
REMARK SMILES IDX 16 24 17 25 18 26 19 27 20 28
REMARK H PARENT 18 29
ROOT
ATOM      1  O   UNL     1     153.977 144.522 162.245  1.00  0.00    -0.488 OA
ENDROOT
BRANCH   1   2
ATOM      2  C   UNL     1     154.714 144.464 161.076  1.00  0.00     0.119 A 
ATOM      3  C   UNL     1     156.154 144.275 158.617  1.00  0.00    -0.017 A 
ATOM      4  C   UNL     1     156.582 145.085 159.650  1.00  0.00     0.012 A 
ATOM      5  C   UNL     1     154.985 143.559 158.851  1.00  0.00     0.012 A 
ATOM      6  C   UNL     1     155.872 145.167 160.838  1.00  0.00     0.047 A 
ATOM      7  C   UNL     1     154.284 143.641 160.025  1.00  0.00     0.047 A 
BRANCH   3   8
ATOM      8  C   UNL     1     156.891 144.151 157.372  1.00  0.00    -0.007 C 
ATOM      9  C   UNL     1     158.001 143.467 157.272  1.00  0.00    -0.033 C 
BRANCH   9  10
ATOM     10  C   UNL     1     158.820 143.346 156.035  1.00  0.00     0.033 C 
ATOM     11  C   UNL     1     158.753 141.929 155.544  1.00  0.00     0.009 C 
ENDBRANCH   9  10
BRANCH   9  12
ATOM     12  C   UNL     1     158.511 142.677 158.408  1.00  0.00    -0.022 A 
ATOM     13  C   UNL     1     157.930 141.496 158.791  1.00  0.00     0.008 A 
ATOM     14  C   UNL     1     159.586 143.155 159.093  1.00  0.00     0.008 A 
ATOM     15  C   UNL     1     158.437 140.804 159.862  1.00  0.00     0.001 A 
ATOM     16  C   UNL     1     160.134 142.484 160.190  1.00  0.00     0.001 A 
ATOM     17  C   UNL     1     159.530 141.301 160.551  1.00  0.00     0.000 A 
ENDBRANCH   9  12
BRANCH   8  18
ATOM     18  C   UNL     1     156.381 144.851 156.210  1.00  0.00    -0.018 A 
ATOM     19  C   UNL     1     156.750 146.146 155.908  1.00  0.00     0.009 A 
ATOM     20  C   UNL     1     155.448 144.225 155.388  1.00  0.00     0.009 A 
ATOM     21  C   UNL     1     156.193 146.768 154.821  1.00  0.00     0.001 A 
ATOM     22  C   UNL     1     154.881 144.832 154.292  1.00  0.00     0.001 A 
ATOM     23  C   UNL     1     155.270 146.138 154.009  1.00  0.00     0.000 A 
ENDBRANCH   8  18
ENDBRANCH   3   8
ENDBRANCH   1   2
BRANCH   1  24
ATOM     24  C   UNL     1     153.892 145.553 163.165  1.00  0.00     0.290 C 
BRANCH  24  25
ATOM     25  C   UNL     1     154.516 145.283 164.509  1.00  0.00     0.303 C 
BRANCH  25  26
ATOM     26  N   UNL     1     155.929 145.064 164.434  1.00  0.00    -0.337 N 
ATOM     27  C   UNL     1     156.445 144.261 165.521  1.00  0.00     0.332 C 
ATOM     28  C   UNL     1     156.690 146.297 164.416  1.00  0.00     0.332 C 
ATOM     29  H   UNL     1     156.195 144.555 163.539  1.00  0.00     0.347 HD
ENDBRANCH  25  26
ENDBRANCH  24  25
ENDBRANCH   1  24
TORSDOF 8
ENDMDL
MODEL 4
REMARK VINA RESULT:      -7.6      2.844      4.527
REMARK SMILES CC/C(=C(\c1ccccc1)c1ccc(OCC[NH+](C)C)cc1)c1ccccc1
REMARK SMILES IDX 15 1 14 2 11 3 12 4 22 5 13 6 21 7 4 8 3 9 2 10 1 11 23 12
REMARK SMILES IDX 24 13 28 14 25 15 27 16 26 17 5 18 6 19 10 20 7 21 9 22 8 23
REMARK SMILES IDX 16 24 17 25 18 26 19 27 20 28
REMARK H PARENT 18 29
ROOT
ATOM      1  O   UNL     1     156.107 138.764 160.592  1.00  0.00    -0.488 OA
ENDROOT
BRANCH   1   2
ATOM      2  C   UNL     1     156.630 140.011 160.304  1.00  0.00     0.119 A 
ATOM      3  C   UNL     1     157.810 142.536 159.676  1.00  0.00    -0.017 A 
ATOM      4  C   UNL     1     156.494 142.428 160.080  1.00  0.00     0.012 A 
ATOM      5  C   UNL     1     158.521 141.342 159.597  1.00  0.00     0.012 A 
ATOM      6  C   UNL     1     155.936 141.196 160.381  1.00  0.00     0.047 A 
ATOM      7  C   UNL     1     157.967 140.126 159.895  1.00  0.00     0.047 A 
BRANCH   3   8
ATOM      8  C   UNL     1     158.428 143.815 159.378  1.00  0.00    -0.007 C 
ATOM      9  C   UNL     1     159.180 144.455 160.236  1.00  0.00    -0.033 C 
BRANCH   9  10
ATOM     10  C   UNL     1     159.798 145.788 160.001  1.00  0.00     0.033 C 
ATOM     11  C   UNL     1     158.929 146.843 160.620  1.00  0.00     0.009 C 
ENDBRANCH   9  10
BRANCH   9  12
ATOM     12  C   UNL     1     159.539 143.847 161.531  1.00  0.00    -0.022 A 
ATOM     13  C   UNL     1     158.617 143.669 162.530  1.00  0.00     0.008 A 
ATOM     14  C   UNL     1     160.831 143.467 161.727  1.00  0.00     0.008 A 
ATOM     15  C   UNL     1     159.005 143.107 163.721  1.00  0.00     0.001 A 
ATOM     16  C   UNL     1     161.270 142.892 162.923  1.00  0.00     0.001 A 
ATOM     17  C   UNL     1     160.323 142.724 163.908  1.00  0.00     0.000 A 
ENDBRANCH   9  12
BRANCH   8  18
ATOM     18  C   UNL     1     158.162 144.411 158.084  1.00  0.00    -0.018 A 
ATOM     19  C   UNL     1     159.012 144.251 157.009  1.00  0.00     0.009 A 
ATOM     20  C   UNL     1     157.038 145.216 157.919  1.00  0.00     0.009 A 
ATOM     21  C   UNL     1     158.726 144.882 155.826  1.00  0.00     0.001 A 
ATOM     22  C   UNL     1     156.735 145.855 156.740  1.00  0.00     0.001 A 
ATOM     23  C   UNL     1     157.608 145.677 155.670  1.00  0.00     0.000 A 
ENDBRANCH   8  18
ENDBRANCH   3   8
ENDBRANCH   1   2
BRANCH   1  24
ATOM     24  C   UNL     1     156.034 138.117 161.814  1.00  0.00     0.290 C 
BRANCH  24  25
ATOM     25  C   UNL     1     156.996 138.598 162.868  1.00  0.00     0.303 C 
BRANCH  25  26
ATOM     26  N   UNL     1     156.635 138.175 164.187  1.00  0.00    -0.337 N 
ATOM     27  C   UNL     1     155.553 137.215 164.208  1.00  0.00     0.332 C 
ATOM     28  C   UNL     1     156.244 139.276 165.044  1.00  0.00     0.332 C 
ATOM     29  H   UNL     1     157.453 137.708 164.681  1.00  0.00     0.347 HD
ENDBRANCH  25  26
ENDBRANCH  24  25
ENDBRANCH   1  24
TORSDOF 8
ENDMDL
MODEL 5
REMARK VINA RESULT:      -7.6      0.507      1.171
REMARK SMILES CC/C(=C(\c1ccccc1)c1ccc(OCC[NH+](C)C)cc1)c1ccccc1
REMARK SMILES IDX 15 1 14 2 11 3 12 4 22 5 13 6 21 7 4 8 3 9 2 10 1 11 23 12
REMARK SMILES IDX 24 13 28 14 25 15 27 16 26 17 5 18 6 19 10 20 7 21 9 22 8 23
REMARK SMILES IDX 16 24 17 25 18 26 19 27 20 28
REMARK H PARENT 18 29
ROOT
ATOM      1  O   UNL     1     155.199 145.465 162.274  1.00  0.00    -0.488 OA
ENDROOT
BRANCH   1   2
ATOM      2  C   UNL     1     155.598 145.148 160.988  1.00  0.00     0.119 A 
ATOM      3  C   UNL     1     156.520 144.552 158.351  1.00  0.00    -0.017 A 
ATOM      4  C   UNL     1     155.328 144.052 158.835  1.00  0.00     0.012 A 
ATOM      5  C   UNL     1     157.238 145.362 159.225  1.00  0.00     0.012 A 
ATOM      6  C   UNL     1     154.893 144.350 160.117  1.00  0.00     0.047 A 
ATOM      7  C   UNL     1     156.808 145.655 160.492  1.00  0.00     0.047 A 
BRANCH   3   8
ATOM      8  C   UNL     1     156.989 144.277 157.005  1.00  0.00    -0.007 C 
ATOM      9  C   UNL     1     158.064 143.573 156.761  1.00  0.00    -0.033 C 
BRANCH   9  10
ATOM     10  C   UNL     1     158.614 143.300 155.405  1.00  0.00     0.033 C 
ATOM     11  C   UNL     1     158.896 141.831 155.281  1.00  0.00     0.009 C 
ENDBRANCH   9  10
BRANCH   9  12
ATOM     12  C   UNL     1     158.804 142.914 157.852  1.00  0.00    -0.022 A 
ATOM     13  C   UNL     1     160.069 143.303 158.210  1.00  0.00     0.008 A 
ATOM     14  C   UNL     1     158.202 141.884 158.508  1.00  0.00     0.008 A 
ATOM     15  C   UNL     1     160.719 142.650 159.227  1.00  0.00     0.001 A 
ATOM     16  C   UNL     1     158.827 141.191 159.549  1.00  0.00     0.001 A 
ATOM     17  C   UNL     1     160.096 141.604 159.886  1.00  0.00     0.000 A 
ENDBRANCH   9  12
BRANCH   8  18
ATOM     18  C   UNL     1     156.244 144.843 155.899  1.00  0.00    -0.018 A 
ATOM     19  C   UNL     1     155.252 144.143 155.242  1.00  0.00     0.009 A 
ATOM     20  C   UNL     1     156.561 146.119 155.441  1.00  0.00     0.009 A 
ATOM     21  C   UNL     1     154.618 144.720 154.172  1.00  0.00     0.001 A 
ATOM     22  C   UNL     1     155.935 146.713 154.371  1.00  0.00     0.001 A 
ATOM     23  C   UNL     1     154.938 145.987 153.725  1.00  0.00     0.000 A 
ENDBRANCH   8  18
ENDBRANCH   3   8
ENDBRANCH   1   2
BRANCH   1  24
ATOM     24  C   UNL     1     154.977 144.617 163.345  1.00  0.00     0.290 C 
BRANCH  24  25
ATOM     25  C   UNL     1     155.902 143.432 163.444  1.00  0.00     0.303 C 
BRANCH  25  26
ATOM     26  N   UNL     1     156.388 143.214 164.772  1.00  0.00    -0.337 N 
ATOM     27  C   UNL     1     157.533 144.033 165.108  1.00  0.00     0.332 C 
ATOM     28  C   UNL     1     156.765 141.836 165.015  1.00  0.00     0.332 C 
ATOM     29  H   UNL     1     155.644 143.436 165.499  1.00  0.00     0.347 HD
ENDBRANCH  25  26
ENDBRANCH  24  25
ENDBRANCH   1  24
TORSDOF 8
ENDMDL
MODEL 6
REMARK VINA RESULT:      -7.6      1.220      2.033
REMARK SMILES CC/C(=C(\c1ccccc1)c1ccc(OCC[NH+](C)C)cc1)c1ccccc1
REMARK SMILES IDX 15 1 14 2 11 3 12 4 22 5 13 6 21 7 4 8 3 9 2 10 1 11 23 12
REMARK SMILES IDX 24 13 28 14 25 15 27 16 26 17 5 18 6 19 10 20 7 21 9 22 8 23
REMARK SMILES IDX 16 24 17 25 18 26 19 27 20 28
REMARK H PARENT 18 29
ROOT
ATOM      1  O   UNL     1     154.569 145.114 162.337  1.00  0.00    -0.488 OA
ENDROOT
BRANCH   1   2
ATOM      2  C   UNL     1     155.088 144.853 161.082  1.00  0.00     0.119 A 
ATOM      3  C   UNL     1     156.256 144.377 158.519  1.00  0.00    -0.017 A 
ATOM      4  C   UNL     1     155.060 143.796 158.893  1.00  0.00     0.012 A 
ATOM      5  C   UNL     1     156.851 145.205 159.465  1.00  0.00     0.012 A 
ATOM      6  C   UNL     1     154.506 144.037 160.140  1.00  0.00     0.047 A 
ATOM      7  C   UNL     1     156.302 145.441 160.697  1.00  0.00     0.047 A 
BRANCH   3   8
ATOM      8  C   UNL     1     156.848 144.163 157.210  1.00  0.00    -0.007 C 
ATOM      9  C   UNL     1     157.944 143.471 157.035  1.00  0.00    -0.033 C 
BRANCH   9  10
ATOM     10  C   UNL     1     158.619 143.260 155.725  1.00  0.00     0.033 C 
ATOM     11  C   UNL     1     158.744 141.786 155.475  1.00  0.00     0.009 C 
ENDBRANCH   9  10
BRANCH   9  12
ATOM     12  C   UNL     1     158.584 142.765 158.160  1.00  0.00    -0.022 A 
ATOM     13  C   UNL     1     158.022 141.653 158.734  1.00  0.00     0.008 A 
ATOM     14  C   UNL     1     159.763 143.250 158.638  1.00  0.00     0.008 A 
ATOM     15  C   UNL     1     158.653 141.039 159.786  1.00  0.00     0.001 A 
ATOM     16  C   UNL     1     160.439 142.656 159.707  1.00  0.00     0.001 A 
ATOM     17  C   UNL     1     159.852 141.542 160.263  1.00  0.00     0.000 A 
ENDBRANCH   9  12
BRANCH   8  18
ATOM     18  C   UNL     1     156.205 144.778 156.067  1.00  0.00    -0.018 A 
ATOM     19  C   UNL     1     155.247 144.123 155.319  1.00  0.00     0.009 A 
ATOM     20  C   UNL     1     156.592 146.054 155.668  1.00  0.00     0.009 A 
ATOM     21  C   UNL     1     154.713 144.744 154.219  1.00  0.00     0.001 A 
ATOM     22  C   UNL     1     156.066 146.692 154.569  1.00  0.00     0.001 A 
ATOM     23  C   UNL     1     155.101 146.012 153.832  1.00  0.00     0.000 A 
ENDBRANCH   8  18
ENDBRANCH   3   8
ENDBRANCH   1   2
BRANCH   1  24
ATOM     24  C   UNL     1     154.501 144.277 163.436  1.00  0.00     0.290 C 
BRANCH  24  25
ATOM     25  C   UNL     1     155.025 144.848 164.727  1.00  0.00     0.303 C 
BRANCH  25  26
ATOM     26  N   UNL     1     155.518 146.184 164.586  1.00  0.00    -0.337 N 
ATOM     27  C   UNL     1     156.962 146.273 164.630  1.00  0.00     0.332 C 
ATOM     28  C   UNL     1     155.006 147.084 165.600  1.00  0.00     0.332 C 
ATOM     29  H   UNL     1     155.225 146.609 163.656  1.00  0.00     0.347 HD
ENDBRANCH  25  26
ENDBRANCH  24  25
ENDBRANCH   1  24
TORSDOF 8
ENDMDL
MODEL 7
REMARK VINA RESULT:      -7.5      0.689      1.568
REMARK SMILES CC/C(=C(\c1ccccc1)c1ccc(OCC[NH+](C)C)cc1)c1ccccc1
REMARK SMILES IDX 15 1 14 2 11 3 12 4 22 5 13 6 21 7 4 8 3 9 2 10 1 11 23 12
REMARK SMILES IDX 24 13 28 14 25 15 27 16 26 17 5 18 6 19 10 20 7 21 9 22 8 23
REMARK SMILES IDX 16 24 17 25 18 26 19 27 20 28
REMARK H PARENT 18 29
ROOT
ATOM      1  O   UNL     1     155.327 145.457 162.419  1.00  0.00    -0.488 OA
ENDROOT
BRANCH   1   2
ATOM      2  C   UNL     1     155.758 145.189 161.132  1.00  0.00     0.119 A 
ATOM      3  C   UNL     1     156.547 144.578 158.456  1.00  0.00    -0.017 A 
ATOM      4  C   UNL     1     157.304 145.400 159.268  1.00  0.00     0.012 A 
ATOM      5  C   UNL     1     155.383 144.068 159.023  1.00  0.00     0.012 A 
ATOM      6  C   UNL     1     156.907 145.687 160.565  1.00  0.00     0.047 A 
ATOM      7  C   UNL     1     154.993 144.354 160.305  1.00  0.00     0.047 A 
BRANCH   3   8
ATOM      8  C   UNL     1     156.950 144.240 157.103  1.00  0.00    -0.007 C 
ATOM      9  C   UNL     1     157.982 143.479 156.842  1.00  0.00    -0.033 C 
BRANCH   9  10
ATOM     10  C   UNL     1     158.467 143.140 155.476  1.00  0.00     0.033 C 
ATOM     11  C   UNL     1     158.801 141.678 155.428  1.00  0.00     0.009 C 
ENDBRANCH   9  10
BRANCH   9  12
ATOM     12  C   UNL     1     158.733 142.821 157.926  1.00  0.00    -0.022 A 
ATOM     13  C   UNL     1     160.014 143.189 158.251  1.00  0.00     0.008 A 
ATOM     14  C   UNL     1     158.126 141.811 158.609  1.00  0.00     0.008 A 
ATOM     15  C   UNL     1     160.673 142.536 159.262  1.00  0.00     0.001 A 
ATOM     16  C   UNL     1     158.760 141.120 159.645  1.00  0.00     0.001 A 
ATOM     17  C   UNL     1     160.044 141.511 159.949  1.00  0.00     0.000 A 
ENDBRANCH   9  12
BRANCH   8  18
ATOM     18  C   UNL     1     156.190 144.806 156.008  1.00  0.00    -0.018 A 
ATOM     19  C   UNL     1     155.133 144.140 155.421  1.00  0.00     0.009 A 
ATOM     20  C   UNL     1     156.556 146.044 155.487  1.00  0.00     0.009 A 
ATOM     21  C   UNL     1     154.485 144.712 154.356  1.00  0.00     0.001 A 
ATOM     22  C   UNL     1     155.917 146.633 154.421  1.00  0.00     0.001 A 
ATOM     23  C   UNL     1     154.855 145.941 153.847  1.00  0.00     0.000 A 
ENDBRANCH   8  18
ENDBRANCH   3   8
ENDBRANCH   1   2
BRANCH   1  24
ATOM     24  C   UNL     1     156.081 145.615 163.569  1.00  0.00     0.290 C 
BRANCH  24  25
ATOM     25  C   UNL     1     157.086 144.528 163.848  1.00  0.00     0.303 C 
BRANCH  25  26
ATOM     26  N   UNL     1     156.789 143.785 165.034  1.00  0.00    -0.337 N 
ATOM     27  C   UNL     1     156.384 142.420 164.773  1.00  0.00     0.332 C 
ATOM     28  C   UNL     1     155.744 144.393 165.833  1.00  0.00     0.332 C 
ATOM     29  H   UNL     1     157.636 143.723 165.675  1.00  0.00     0.347 HD
ENDBRANCH  25  26
ENDBRANCH  24  25
ENDBRANCH   1  24
TORSDOF 8
ENDMDL
MODEL 8
REMARK VINA RESULT:      -7.5      1.147      1.321
REMARK SMILES CC/C(=C(\c1ccccc1)c1ccc(OCC[NH+](C)C)cc1)c1ccccc1
REMARK SMILES IDX 15 1 14 2 11 3 12 4 22 5 13 6 21 7 4 8 3 9 2 10 1 11 23 12
REMARK SMILES IDX 24 13 28 14 25 15 27 16 26 17 5 18 6 19 10 20 7 21 9 22 8 23
REMARK SMILES IDX 16 24 17 25 18 26 19 27 20 28
REMARK H PARENT 18 29
ROOT
ATOM      1  O   UNL     1     153.861 144.607 162.374  1.00  0.00    -0.488 OA
ENDROOT
BRANCH   1   2
ATOM      2  C   UNL     1     154.587 144.456 161.207  1.00  0.00     0.119 A 
ATOM      3  C   UNL     1     156.161 144.224 158.834  1.00  0.00    -0.017 A 
ATOM      4  C   UNL     1     155.073 143.407 159.068  1.00  0.00     0.012 A 
ATOM      5  C   UNL     1     156.439 145.163 159.823  1.00  0.00     0.012 A 
ATOM      6  C   UNL     1     154.319 143.532 160.224  1.00  0.00     0.047 A 
ATOM      7  C   UNL     1     155.693 145.284 160.965  1.00  0.00     0.047 A 
BRANCH   3   8
ATOM      8  C   UNL     1     156.955 144.132 157.622  1.00  0.00    -0.007 C 
ATOM      9  C   UNL     1     158.072 143.455 157.558  1.00  0.00    -0.033 C 
BRANCH   9  10
ATOM     10  C   UNL     1     158.947 143.367 156.357  1.00  0.00     0.033 C 
ATOM     11  C   UNL     1     158.660 142.081 155.640  1.00  0.00     0.009 C 
ENDBRANCH   9  10
BRANCH   9  12
ATOM     12  C   UNL     1     158.533 142.642 158.697  1.00  0.00    -0.022 A 
ATOM     13  C   UNL     1     159.534 143.063 159.533  1.00  0.00     0.008 A 
ATOM     14  C   UNL     1     157.942 141.432 158.905  1.00  0.00     0.008 A 
ATOM     15  C   UNL     1     159.933 142.263 160.574  1.00  0.00     0.001 A 
ATOM     16  C   UNL     1     158.318 140.585 159.952  1.00  0.00     0.001 A 
ATOM     17  C   UNL     1     159.325 141.035 160.775  1.00  0.00     0.000 A 
ENDBRANCH   9  12
BRANCH   8  18
ATOM     18  C   UNL     1     156.495 144.857 156.455  1.00  0.00    -0.018 A 
ATOM     19  C   UNL     1     156.909 146.144 156.175  1.00  0.00     0.009 A 
ATOM     20  C   UNL     1     155.567 144.266 155.603  1.00  0.00     0.009 A 
ATOM     21  C   UNL     1     156.399 146.791 155.079  1.00  0.00     0.001 A 
ATOM     22  C   UNL     1     155.045 144.900 154.499  1.00  0.00     0.001 A 
ATOM     23  C   UNL     1     155.479 146.196 154.238  1.00  0.00     0.000 A 
ENDBRANCH   8  18
ENDBRANCH   3   8
ENDBRANCH   1   2
BRANCH   1  24
ATOM     24  C   UNL     1     154.308 144.984 163.628  1.00  0.00     0.290 C 
BRANCH  24  25
ATOM     25  C   UNL     1     155.302 144.056 164.275  1.00  0.00     0.303 C 
BRANCH  25  26
ATOM     26  N   UNL     1     156.427 144.743 164.833  1.00  0.00    -0.337 N 
ATOM     27  C   UNL     1     156.510 144.637 166.274  1.00  0.00     0.332 C 
ATOM     28  C   UNL     1     156.441 146.155 164.508  1.00  0.00     0.332 C 
ATOM     29  H   UNL     1     157.343 144.357 164.456  1.00  0.00     0.347 HD
ENDBRANCH  25  26
ENDBRANCH  24  25
ENDBRANCH   1  24
TORSDOF 8
ENDMDL
MODEL 9
REMARK VINA RESULT:      -7.5      0.886      1.195
REMARK SMILES CC/C(=C(\c1ccccc1)c1ccc(OCC[NH+](C)C)cc1)c1ccccc1
REMARK SMILES IDX 15 1 14 2 11 3 12 4 22 5 13 6 21 7 4 8 3 9 2 10 1 11 23 12
REMARK SMILES IDX 24 13 28 14 25 15 27 16 26 17 5 18 6 19 10 20 7 21 9 22 8 23
REMARK SMILES IDX 16 24 17 25 18 26 19 27 20 28
REMARK H PARENT 18 29
ROOT
ATOM      1  O   UNL     1     155.525 145.626 162.246  1.00  0.00    -0.488 OA
ENDROOT
BRANCH   1   2
ATOM      2  C   UNL     1     155.873 145.266 160.957  1.00  0.00     0.119 A 
ATOM      3  C   UNL     1     156.693 144.584 158.307  1.00  0.00    -0.017 A 
ATOM      4  C   UNL     1     155.535 144.076 158.865  1.00  0.00     0.012 A 
ATOM      5  C   UNL     1     157.429 145.445 159.115  1.00  0.00     0.012 A 
ATOM      6  C   UNL     1     155.151 144.417 160.152  1.00  0.00     0.047 A 
ATOM      7  C   UNL     1     157.047 145.780 160.387  1.00  0.00     0.047 A 
BRANCH   3   8
ATOM      8  C   UNL     1     157.108 144.263 156.953  1.00  0.00    -0.007 C 
ATOM      9  C   UNL     1     158.155 143.525 156.691  1.00  0.00    -0.033 C 
BRANCH   9  10
ATOM     10  C   UNL     1     158.652 143.206 155.324  1.00  0.00     0.033 C 
ATOM     11  C   UNL     1     158.973 141.741 155.254  1.00  0.00     0.009 C 
ENDBRANCH   9  10
BRANCH   9  12
ATOM     12  C   UNL     1     158.915 142.873 157.773  1.00  0.00    -0.022 A 
ATOM     13  C   UNL     1     160.200 143.238 158.081  1.00  0.00     0.008 A 
ATOM     14  C   UNL     1     158.310 141.873 158.472  1.00  0.00     0.008 A 
ATOM     15  C   UNL     1     160.867 142.592 159.091  1.00  0.00     0.001 A 
ATOM     16  C   UNL     1     158.952 141.188 159.507  1.00  0.00     0.001 A 
ATOM     17  C   UNL     1     160.241 141.577 159.794  1.00  0.00     0.000 A 
ENDBRANCH   9  12
BRANCH   8  18
ATOM     18  C   UNL     1     156.340 144.823 155.859  1.00  0.00    -0.018 A 
ATOM     19  C   UNL     1     156.580 146.089 155.362  1.00  0.00     0.009 A 
ATOM     20  C   UNL     1     155.292 144.090 155.312  1.00  0.00     0.009 A 
ATOM     21  C   UNL     1     155.785 146.577 154.357  1.00  0.00     0.001 A 
ATOM     22  C   UNL     1     154.486 144.563 154.303  1.00  0.00     0.001 A 
ATOM     23  C   UNL     1     154.748 145.842 153.819  1.00  0.00     0.000 A 
ENDBRANCH   8  18
ENDBRANCH   3   8
ENDBRANCH   1   2
BRANCH   1  24
ATOM     24  C   UNL     1     154.792 144.910 163.177  1.00  0.00     0.290 C 
BRANCH  24  25
ATOM     25  C   UNL     1     155.583 143.972 164.051  1.00  0.00     0.303 C 
BRANCH  25  26
ATOM     26  N   UNL     1     155.309 144.145 165.445  1.00  0.00    -0.337 N 
ATOM     27  C   UNL     1     155.175 142.896 166.164  1.00  0.00     0.332 C 
ATOM     28  C   UNL     1     154.104 144.910 165.692  1.00  0.00     0.332 C 
ATOM     29  H   UNL     1     156.090 144.681 165.929  1.00  0.00     0.347 HD
ENDBRANCH  25  26
ENDBRANCH  24  25
ENDBRANCH   1  24
TORSDOF 8
ENDMDL
