MODEL 1
REMARK VINA RESULT:      -7.0      0.000      0.000
REMARK SMILES O=c1cc(-c2ccccc2)oc2cc(O)cc(O)c12
REMARK SMILES IDX 1 1 2 2 3 3 4 4 11 5 12 6 13 7 14 8 16 9 17 10 19 11 5 12
REMARK SMILES IDX 6 13 10 14 7 15 9 16 8 17 18 18 15 20
REMARK H PARENT 18 19 15 21
ROOT
ATOM      1  O   UNL     1       5.373 -13.675  21.505  1.00  0.00    -0.289 OA
ATOM      2  C   UNL     1       5.655 -14.828  21.091  1.00  0.00     0.197 A 
ATOM      3  C   UNL     1       5.826 -15.121  19.730  1.00  0.00     0.100 A 
ATOM      4  C   UNL     1       6.135 -16.389  19.300  1.00  0.00     0.138 A 
ATOM      5  O   UNL     1       6.259 -17.310  20.226  1.00  0.00    -0.456 OA
ATOM      6  C   UNL     1       6.112 -17.098  21.511  1.00  0.00     0.146 A 
ATOM      7  C   UNL     1       6.258 -18.118  22.443  1.00  0.00     0.094 A 
ATOM      8  C   UNL     1       6.111 -17.931  23.796  1.00  0.00     0.123 A 
ATOM      9  C   UNL     1       5.801 -16.675  24.268  1.00  0.00     0.093 A 
ATOM     10  C   UNL     1       5.648 -15.637  23.376  1.00  0.00     0.134 A 
ATOM     11  C   UNL     1       5.803 -15.848  22.000  1.00  0.00     0.107 A 
ENDROOT
BRANCH   4  12
ATOM     12  C   UNL     1       6.315 -16.705  17.880  1.00  0.00     0.017 A 
ATOM     13  C   UNL     1       7.453 -17.261  17.357  1.00  0.00     0.012 A 
ATOM     14  C   UNL     1       5.286 -16.435  16.996  1.00  0.00     0.012 A 
ATOM     15  C   UNL     1       7.580 -17.545  15.995  1.00  0.00     0.001 A 
ATOM     16  C   UNL     1       5.383 -16.706  15.639  1.00  0.00     0.001 A 
ATOM     17  C   UNL     1       6.544 -17.269  15.128  1.00  0.00     0.000 A 
ENDBRANCH   4  12
BRANCH  10  18
ATOM     18  O   UNL     1       5.340 -14.384  23.849  1.00  0.00    -0.507 OA
ATOM     19  H   UNL     1       5.795 -14.023  24.668  1.00  0.00     0.293 HD
ENDBRANCH  10  18
BRANCH   8  20
ATOM     20  O   UNL     1       6.266 -18.987  24.697  1.00  0.00    -0.508 OA
ATOM     21  H   UNL     1       5.875 -19.905  24.540  1.00  0.00     0.293 HD
ENDBRANCH   8  20
TORSDOF 3
ENDMDL
MODEL 2
REMARK VINA RESULT:      -7.0      9.700     10.775
REMARK SMILES O=c1cc(-c2ccccc2)oc2cc(O)cc(O)c12
REMARK SMILES IDX 1 1 2 2 3 3 4 4 11 5 12 6 13 7 14 8 16 9 17 10 19 11 5 12
REMARK SMILES IDX 6 13 10 14 7 15 9 16 8 17 18 18 15 20
REMARK H PARENT 18 19 15 21
ROOT
ATOM      1  O   UNL     1      14.483 -14.663  16.078  1.00  0.00    -0.289 OA
ATOM      2  C   UNL     1      14.611 -13.746  16.927  1.00  0.00     0.197 A 
ATOM      3  C   UNL     1      14.743 -12.397  16.566  1.00  0.00     0.100 A 
ATOM      4  C   UNL     1      14.882 -11.409  17.512  1.00  0.00     0.138 A 
ATOM      5  O   UNL     1      14.886 -11.792  18.766  1.00  0.00    -0.456 OA
ATOM      6  C   UNL     1      14.767 -13.035  19.165  1.00  0.00     0.146 A 
ATOM      7  C   UNL     1      14.779 -13.377  20.512  1.00  0.00     0.094 A 
ATOM      8  C   UNL     1      14.656 -14.668  20.964  1.00  0.00     0.123 A 
ATOM      9  C   UNL     1      14.515 -15.687  20.049  1.00  0.00     0.093 A 
ATOM     10  C   UNL     1      14.498 -15.390  18.704  1.00  0.00     0.134 A 
ATOM     11  C   UNL     1      14.625 -14.067  18.263  1.00  0.00     0.107 A 
ENDROOT
BRANCH   4  12
ATOM     12  C   UNL     1      15.020  -9.997  17.145  1.00  0.00     0.017 A 
ATOM     13  C   UNL     1      15.202  -8.984  18.049  1.00  0.00     0.012 A 
ATOM     14  C   UNL     1      14.969  -9.641  15.809  1.00  0.00     0.012 A 
ATOM     15  C   UNL     1      15.329  -7.651  17.652  1.00  0.00     0.001 A 
ATOM     16  C   UNL     1      15.093  -8.328  15.384  1.00  0.00     0.001 A 
ATOM     17  C   UNL     1      15.276  -7.315  16.316  1.00  0.00     0.000 A 
ENDBRANCH   4  12
BRANCH  10  18
ATOM     18  O   UNL     1      14.357 -16.408  17.792  1.00  0.00    -0.507 OA
ATOM     19  H   UNL     1      15.089 -17.083  17.664  1.00  0.00     0.293 HD
ENDBRANCH  10  18
BRANCH   8  20
ATOM     20  O   UNL     1      14.674 -14.965  22.329  1.00  0.00    -0.508 OA
ATOM     21  H   UNL     1      15.162 -15.762  22.712  1.00  0.00     0.293 HD
ENDBRANCH   8  20
TORSDOF 3
ENDMDL
MODEL 3
REMARK VINA RESULT:      -6.9      0.081      1.086
REMARK SMILES O=c1cc(-c2ccccc2)oc2cc(O)cc(O)c12
REMARK SMILES IDX 1 1 2 2 3 3 4 4 11 5 12 6 13 7 14 8 16 9 17 10 19 11 5 12
REMARK SMILES IDX 6 13 10 14 7 15 9 16 8 17 18 18 15 20
REMARK H PARENT 18 19 15 21
ROOT
ATOM      1  O   UNL     1       5.299 -13.708  21.554  1.00  0.00    -0.289 OA
ATOM      2  C   UNL     1       5.595 -14.851  21.125  1.00  0.00     0.197 A 
ATOM      3  C   UNL     1       5.748 -15.128  19.759  1.00  0.00     0.100 A 
ATOM      4  C   UNL     1       6.073 -16.387  19.311  1.00  0.00     0.138 A 
ATOM      5  O   UNL     1       6.230 -17.314  20.226  1.00  0.00    -0.456 OA
ATOM      6  C   UNL     1       6.101 -17.116  21.515  1.00  0.00     0.146 A 
ATOM      7  C   UNL     1       6.282 -18.142  22.435  1.00  0.00     0.094 A 
ATOM      8  C   UNL     1       6.155 -17.970  23.792  1.00  0.00     0.123 A 
ATOM      9  C   UNL     1       5.830 -16.724  24.282  1.00  0.00     0.093 A 
ATOM     10  C   UNL     1       5.643 -15.681  23.402  1.00  0.00     0.134 A 
ATOM     11  C   UNL     1       5.777 -15.877  22.022  1.00  0.00     0.107 A 
ENDROOT
BRANCH   4  12
ATOM     12  C   UNL     1       6.235 -16.686  17.886  1.00  0.00     0.017 A 
ATOM     13  C   UNL     1       5.281 -16.433  16.936  1.00  0.00     0.012 A 
ATOM     14  C   UNL     1       7.415 -17.260  17.450  1.00  0.00     0.012 A 
ATOM     15  C   UNL     1       5.480 -16.735  15.587  1.00  0.00     0.001 A 
ATOM     16  C   UNL     1       7.643 -17.572  16.118  1.00  0.00     0.001 A 
ATOM     17  C   UNL     1       6.663 -17.307  15.170  1.00  0.00     0.000 A 
ENDBRANCH   4  12
BRANCH  10  18
ATOM     18  O   UNL     1       5.320 -14.438  23.892  1.00  0.00    -0.507 OA
ATOM     19  H   UNL     1       5.333 -14.261  24.880  1.00  0.00     0.293 HD
ENDBRANCH  10  18
BRANCH   8  20
ATOM     20  O   UNL     1       6.345 -19.031  24.680  1.00  0.00    -0.508 OA
ATOM     21  H   UNL     1       7.028 -19.009  25.424  1.00  0.00     0.293 HD
ENDBRANCH   8  20
TORSDOF 3
ENDMDL
MODEL 4
REMARK VINA RESULT:      -6.5      9.457     10.411
REMARK SMILES O=c1cc(-c2ccccc2)oc2cc(O)cc(O)c12
REMARK SMILES IDX 1 1 2 2 3 3 4 4 11 5 12 6 13 7 14 8 16 9 17 10 19 11 5 12
REMARK SMILES IDX 6 13 10 14 7 15 9 16 8 17 18 18 15 20
REMARK H PARENT 18 19 15 21
ROOT
ATOM      1  O   UNL     1      14.483 -15.579  16.986  1.00  0.00    -0.289 OA
ATOM      2  C   UNL     1      14.629 -14.541  17.679  1.00  0.00     0.197 A 
ATOM      3  C   UNL     1      14.662 -13.256  17.117  1.00  0.00     0.100 A 
ATOM      4  C   UNL     1      14.822 -12.135  17.896  1.00  0.00     0.138 A 
ATOM      5  O   UNL     1      14.945 -12.327  19.187  1.00  0.00    -0.456 OA
ATOM      6  C   UNL     1      14.923 -13.501  19.770  1.00  0.00     0.146 A 
ATOM      7  C   UNL     1      15.058 -13.639  21.146  1.00  0.00     0.094 A 
ATOM      8  C   UNL     1      15.039 -14.853  21.789  1.00  0.00     0.123 A 
ATOM      9  C   UNL     1      14.880 -16.001  21.046  1.00  0.00     0.093 A 
ATOM     10  C   UNL     1      14.743 -15.907  19.678  1.00  0.00     0.134 A 
ATOM     11  C   UNL     1      14.765 -14.660  19.042  1.00  0.00     0.107 A 
ENDROOT
BRANCH   4  12
ATOM     12  C   UNL     1      14.858 -10.788  17.318  1.00  0.00     0.017 A 
ATOM     13  C   UNL     1      14.708 -10.522  15.983  1.00  0.00     0.012 A 
ATOM     14  C   UNL     1      15.051  -9.703  18.155  1.00  0.00     0.012 A 
ATOM     15  C   UNL     1      14.749  -9.220  15.478  1.00  0.00     0.001 A 
ATOM     16  C   UNL     1      15.096  -8.400  17.683  1.00  0.00     0.001 A 
ATOM     17  C   UNL     1      14.942  -8.151  16.326  1.00  0.00     0.000 A 
ENDBRANCH   4  12
BRANCH  10  18
ATOM     18  O   UNL     1      14.584 -17.054  18.938  1.00  0.00    -0.507 OA
ATOM     19  H   UNL     1      14.782 -17.056  17.954  1.00  0.00     0.293 HD
ENDBRANCH  10  18
BRANCH   8  20
ATOM     20  O   UNL     1      15.179 -14.943  23.176  1.00  0.00    -0.508 OA
ATOM     21  H   UNL     1      15.170 -15.821  23.673  1.00  0.00     0.293 HD
ENDBRANCH   8  20
TORSDOF 3
ENDMDL
MODEL 5
REMARK VINA RESULT:      -6.3      0.956      1.235
REMARK SMILES O=c1cc(-c2ccccc2)oc2cc(O)cc(O)c12
REMARK SMILES IDX 1 1 2 2 3 3 4 4 11 5 12 6 13 7 14 8 16 9 17 10 19 11 5 12
REMARK SMILES IDX 6 13 10 14 7 15 9 16 8 17 18 18 15 20
REMARK H PARENT 18 19 15 21
ROOT
ATOM      1  O   UNL     1       5.706 -14.047  21.041  1.00  0.00    -0.289 OA
ATOM      2  C   UNL     1       5.965 -15.269  20.907  1.00  0.00     0.197 A 
ATOM      3  C   UNL     1       6.288 -15.842  19.669  1.00  0.00     0.100 A 
ATOM      4  C   UNL     1       6.567 -17.182  19.546  1.00  0.00     0.138 A 
ATOM      5  O   UNL     1       6.515 -17.897  20.645  1.00  0.00    -0.456 OA
ATOM      6  C   UNL     1       6.220 -17.420  21.829  1.00  0.00     0.146 A 
ATOM      7  C   UNL     1       6.181 -18.231  22.957  1.00  0.00     0.094 A 
ATOM      8  C   UNL     1       5.876 -17.764  24.212  1.00  0.00     0.123 A 
ATOM      9  C   UNL     1       5.589 -16.427  24.378  1.00  0.00     0.093 A 
ATOM     10  C   UNL     1       5.617 -15.590  23.284  1.00  0.00     0.134 A 
ATOM     11  C   UNL     1       5.931 -16.085  22.013  1.00  0.00     0.107 A 
ENDROOT
BRANCH   4  12
ATOM     12  C   UNL     1       6.906 -17.790  18.256  1.00  0.00     0.017 A 
ATOM     13  C   UNL     1       6.965 -19.141  18.037  1.00  0.00     0.012 A 
ATOM     14  C   UNL     1       7.187 -16.968  17.179  1.00  0.00     0.012 A 
ATOM     15  C   UNL     1       7.292 -19.675  16.788  1.00  0.00     0.001 A 
ATOM     16  C   UNL     1       7.515 -17.468  15.928  1.00  0.00     0.001 A 
ATOM     17  C   UNL     1       7.569 -18.841  15.726  1.00  0.00     0.000 A 
ENDBRANCH   4  12
BRANCH  10  18
ATOM     18  O   UNL     1       5.331 -14.256  23.452  1.00  0.00    -0.507 OA
ATOM     19  H   UNL     1       6.032 -13.559  23.273  1.00  0.00     0.293 HD
ENDBRANCH  10  18
BRANCH   8  20
ATOM     20  O   UNL     1       5.849 -18.617  25.318  1.00  0.00    -0.508 OA
ATOM     21  H   UNL     1       5.870 -18.283  26.271  1.00  0.00     0.293 HD
ENDBRANCH   8  20
TORSDOF 3
ENDMDL
MODEL 6
REMARK VINA RESULT:      -6.3      1.125      2.921
REMARK SMILES O=c1cc(-c2ccccc2)oc2cc(O)cc(O)c12
REMARK SMILES IDX 1 1 2 2 3 3 4 4 11 5 12 6 13 7 14 8 16 9 17 10 19 11 5 12
REMARK SMILES IDX 6 13 10 14 7 15 9 16 8 17 18 18 15 20
REMARK H PARENT 18 19 15 21
ROOT
ATOM      1  O   UNL     1       7.088 -19.371  21.656  1.00  0.00    -0.289 OA
ATOM      2  C   UNL     1       6.757 -18.357  20.991  1.00  0.00     0.197 A 
ATOM      3  C   UNL     1       6.817 -18.320  19.590  1.00  0.00     0.100 A 
ATOM      4  C   UNL     1       6.450 -17.200  18.884  1.00  0.00     0.138 A 
ATOM      5  O   UNL     1       6.042 -16.169  19.585  1.00  0.00    -0.456 OA
ATOM      6  C   UNL     1       5.964 -16.143  20.893  1.00  0.00     0.146 A 
ATOM      7  C   UNL     1       5.523 -15.018  21.579  1.00  0.00     0.094 A 
ATOM      8  C   UNL     1       5.429 -14.957  22.948  1.00  0.00     0.123 A 
ATOM      9  C   UNL     1       5.787 -16.058  23.693  1.00  0.00     0.093 A 
ATOM     10  C   UNL     1       6.230 -17.193  23.051  1.00  0.00     0.134 A 
ATOM     11  C   UNL     1       6.319 -17.236  21.654  1.00  0.00     0.107 A 
ENDROOT
BRANCH   4  12
ATOM     12  C   UNL     1       6.509 -17.152  17.420  1.00  0.00     0.017 A 
ATOM     13  C   UNL     1       5.473 -16.741  16.624  1.00  0.00     0.012 A 
ATOM     14  C   UNL     1       7.674 -17.539  16.781  1.00  0.00     0.012 A 
ATOM     15  C   UNL     1       5.576 -16.711  15.231  1.00  0.00     0.001 A 
ATOM     16  C   UNL     1       7.806 -17.520  15.401  1.00  0.00     0.001 A 
ATOM     17  C   UNL     1       6.744 -17.100  14.611  1.00  0.00     0.000 A 
ENDBRANCH   4  12
BRANCH  10  18
ATOM     18  O   UNL     1       6.587 -18.292  23.796  1.00  0.00    -0.507 OA
ATOM     19  H   UNL     1       7.525 -18.649  23.760  1.00  0.00     0.293 HD
ENDBRANCH  10  18
BRANCH   8  20
ATOM     20  O   UNL     1       4.980 -13.803  23.595  1.00  0.00    -0.508 OA
ATOM     21  H   UNL     1       4.400 -13.111  23.143  1.00  0.00     0.293 HD
ENDBRANCH   8  20
TORSDOF 3
ENDMDL
MODEL 7
REMARK VINA RESULT:      -6.3      1.123      2.726
REMARK SMILES O=c1cc(-c2ccccc2)oc2cc(O)cc(O)c12
REMARK SMILES IDX 1 1 2 2 3 3 4 4 11 5 12 6 13 7 14 8 16 9 17 10 19 11 5 12
REMARK SMILES IDX 6 13 10 14 7 15 9 16 8 17 18 18 15 20
REMARK H PARENT 18 19 15 21
ROOT
ATOM      1  O   UNL     1       7.179 -19.595  21.704  1.00  0.00    -0.289 OA
ATOM      2  C   UNL     1       6.837 -18.567  21.067  1.00  0.00     0.197 A 
ATOM      3  C   UNL     1       6.912 -18.485  19.669  1.00  0.00     0.100 A 
ATOM      4  C   UNL     1       6.532 -17.350  18.993  1.00  0.00     0.138 A 
ATOM      5  O   UNL     1       6.098 -16.350  19.721  1.00  0.00    -0.456 OA
ATOM      6  C   UNL     1       6.005 -16.366  21.028  1.00  0.00     0.146 A 
ATOM      7  C   UNL     1       5.535 -15.271  21.743  1.00  0.00     0.094 A 
ATOM      8  C   UNL     1       5.424 -15.255  23.112  1.00  0.00     0.123 A 
ATOM      9  C   UNL     1       5.794 -16.372  23.827  1.00  0.00     0.093 A 
ATOM     10  C   UNL     1       6.265 -17.478  23.155  1.00  0.00     0.134 A 
ATOM     11  C   UNL     1       6.370 -17.475  21.759  1.00  0.00     0.107 A 
ENDROOT
BRANCH   4  12
ATOM     12  C   UNL     1       6.608 -17.255  17.532  1.00  0.00     0.017 A 
ATOM     13  C   UNL     1       7.714 -17.591  16.798  1.00  0.00     0.012 A 
ATOM     14  C   UNL     1       5.505 -16.801  16.831  1.00  0.00     0.012 A 
ATOM     15  C   UNL     1       7.739 -17.484  15.406  1.00  0.00     0.001 A 
ATOM     16  C   UNL     1       5.500 -16.684  15.449  1.00  0.00     0.001 A 
ATOM     17  C   UNL     1       6.631 -17.030  14.723  1.00  0.00     0.000 A 
ENDBRANCH   4  12
BRANCH  10  18
ATOM     18  O   UNL     1       6.633 -18.593  23.871  1.00  0.00    -0.507 OA
ATOM     19  H   UNL     1       7.384 -19.178  23.550  1.00  0.00     0.293 HD
ENDBRANCH  10  18
BRANCH   8  20
ATOM     20  O   UNL     1       4.947 -14.130  23.789  1.00  0.00    -0.508 OA
ATOM     21  H   UNL     1       4.717 -14.136  24.772  1.00  0.00     0.293 HD
ENDBRANCH   8  20
TORSDOF 3
ENDMDL
MODEL 8
REMARK VINA RESULT:      -6.2      9.583     10.343
REMARK SMILES O=c1cc(-c2ccccc2)oc2cc(O)cc(O)c12
REMARK SMILES IDX 1 1 2 2 3 3 4 4 11 5 12 6 13 7 14 8 16 9 17 10 19 11 5 12
REMARK SMILES IDX 6 13 10 14 7 15 9 16 8 17 18 18 15 20
REMARK H PARENT 18 19 15 21
ROOT
ATOM      1  O   UNL     1      16.216 -16.077  18.591  1.00  0.00    -0.289 OA
ATOM      2  C   UNL     1      15.796 -14.961  18.988  1.00  0.00     0.197 A 
ATOM      3  C   UNL     1      15.622 -13.870  18.124  1.00  0.00     0.100 A 
ATOM      4  C   UNL     1      15.161 -12.658  18.580  1.00  0.00     0.138 A 
ATOM      5  O   UNL     1      14.894 -12.574  19.861  1.00  0.00    -0.456 OA
ATOM      6  C   UNL     1      15.037 -13.557  20.717  1.00  0.00     0.146 A 
ATOM      7  C   UNL     1      14.737 -13.404  22.065  1.00  0.00     0.094 A 
ATOM      8  C   UNL     1      14.874 -14.412  22.988  1.00  0.00     0.123 A 
ATOM      9  C   UNL     1      15.333 -15.642  22.572  1.00  0.00     0.093 A 
ATOM     10  C   UNL     1      15.642 -15.834  21.243  1.00  0.00     0.134 A 
ATOM     11  C   UNL     1      15.495 -14.794  20.318  1.00  0.00     0.107 A 
ENDROOT
BRANCH   4  12
ATOM     12  C   UNL     1      14.975 -11.512  17.685  1.00  0.00     0.017 A 
ATOM     13  C   UNL     1      14.823 -11.616  16.328  1.00  0.00     0.012 A 
ATOM     14  C   UNL     1      14.946 -10.237  18.223  1.00  0.00     0.012 A 
ATOM     15  C   UNL     1      14.648 -10.494  15.514  1.00  0.00     0.001 A 
ATOM     16  C   UNL     1      14.774  -9.105  17.441  1.00  0.00     0.001 A 
ATOM     17  C   UNL     1      14.622  -9.231  16.067  1.00  0.00     0.000 A 
ENDBRANCH   4  12
BRANCH  10  18
ATOM     18  O   UNL     1      16.100 -17.062  20.830  1.00  0.00    -0.507 OA
ATOM     19  H   UNL     1      15.778 -17.902  21.277  1.00  0.00     0.293 HD
ENDBRANCH  10  18
BRANCH   8  20
ATOM     20  O   UNL     1      14.560 -14.213  24.334  1.00  0.00    -0.508 OA
ATOM     21  H   UNL     1      13.611 -14.160  24.675  1.00  0.00     0.293 HD
ENDBRANCH   8  20
TORSDOF 3
ENDMDL
MODEL 9
REMARK VINA RESULT:      -6.2      2.018      6.276
REMARK SMILES O=c1cc(-c2ccccc2)oc2cc(O)cc(O)c12
REMARK SMILES IDX 1 1 2 2 3 3 4 4 11 5 12 6 13 7 14 8 16 9 17 10 19 11 5 12
REMARK SMILES IDX 6 13 10 14 7 15 9 16 8 17 18 18 15 20
REMARK H PARENT 18 19 15 21
ROOT
ATOM      1  O   UNL     1       5.447 -14.550  23.705  1.00  0.00    -0.289 OA
ATOM      2  C   UNL     1       5.658 -15.710  23.270  1.00  0.00     0.197 A 
ATOM      3  C   UNL     1       5.614 -16.845  24.094  1.00  0.00     0.100 A 
ATOM      4  C   UNL     1       5.848 -18.104  23.596  1.00  0.00     0.138 A 
ATOM      5  O   UNL     1       6.114 -18.190  22.315  1.00  0.00    -0.456 OA
ATOM      6  C   UNL     1       6.169 -17.169  21.496  1.00  0.00     0.146 A 
ATOM      7  C   UNL     1       6.457 -17.327  20.145  1.00  0.00     0.094 A 
ATOM      8  C   UNL     1       6.521 -16.278  19.260  1.00  0.00     0.123 A 
ATOM      9  C   UNL     1       6.293 -15.000  19.718  1.00  0.00     0.093 A 
ATOM     10  C   UNL     1       6.005 -14.801  21.050  1.00  0.00     0.134 A 
ATOM     11  C   UNL     1       5.944 -15.883  21.937  1.00  0.00     0.107 A 
ENDROOT
BRANCH   4  12
ATOM     12  C   UNL     1       5.805 -19.296  24.448  1.00  0.00     0.017 A 
ATOM     13  C   UNL     1       4.819 -19.547  25.365  1.00  0.00     0.012 A 
ATOM     14  C   UNL     1       6.811 -20.239  24.336  1.00  0.00     0.012 A 
ATOM     15  C   UNL     1       4.820 -20.699  26.156  1.00  0.00     0.001 A 
ATOM     16  C   UNL     1       6.839 -21.391  25.107  1.00  0.00     0.001 A 
ATOM     17  C   UNL     1       5.830 -21.628  26.031  1.00  0.00     0.000 A 
ENDBRANCH   4  12
BRANCH  10  18
ATOM     18  O   UNL     1       5.778 -13.525  21.506  1.00  0.00    -0.507 OA
ATOM     19  H   UNL     1       5.296 -13.372  22.374  1.00  0.00     0.293 HD
ENDBRANCH  10  18
BRANCH   8  20
ATOM     20  O   UNL     1       6.815 -16.485  17.910  1.00  0.00    -0.508 OA
ATOM     21  H   UNL     1       7.444 -15.893  17.387  1.00  0.00     0.293 HD
ENDBRANCH   8  20
TORSDOF 3
ENDMDL
