MODEL 1
REMARK VINA RESULT:      -6.8      0.000      0.000
REMARK SMILES O=c1cc(-c2ccccc2)oc2cc(O)cc(O)c12
REMARK SMILES IDX 1 1 2 2 3 3 4 4 11 5 12 6 13 7 14 8 16 9 17 10 19 11 5 12
REMARK SMILES IDX 6 13 10 14 7 15 9 16 8 17 18 18 15 20
REMARK H PARENT 18 19 15 21
ROOT
ATOM      1  O   UNL     1      28.355 -11.706  -7.337  1.00  0.00    -0.289 OA
ATOM      2  C   UNL     1      29.397 -12.073  -7.937  1.00  0.00     0.197 A 
ATOM      3  C   UNL     1      29.598 -11.847  -9.307  1.00  0.00     0.100 A 
ATOM      4  C   UNL     1      30.745 -12.258  -9.943  1.00  0.00     0.138 A 
ATOM      5  O   UNL     1      31.640 -12.870  -9.205  1.00  0.00    -0.456 OA
ATOM      6  C   UNL     1      31.510 -13.109  -7.923  1.00  0.00     0.146 A 
ATOM      7  C   UNL     1      32.496 -13.764  -7.195  1.00  0.00     0.094 A 
ATOM      8  C   UNL     1      32.392 -14.030  -5.852  1.00  0.00     0.123 A 
ATOM      9  C   UNL     1      31.259 -13.636  -5.177  1.00  0.00     0.093 A 
ATOM     10  C   UNL     1      30.257 -12.984  -5.863  1.00  0.00     0.134 A 
ATOM     11  C   UNL     1      30.382 -12.722  -7.232  1.00  0.00     0.107 A 
ENDROOT
BRANCH   4  12
ATOM     12  C   UNL     1      30.965 -12.027 -11.373  1.00  0.00     0.017 A 
ATOM     13  C   UNL     1      31.827 -11.088 -11.875  1.00  0.00     0.012 A 
ATOM     14  C   UNL     1      30.270 -12.794 -12.292  1.00  0.00     0.012 A 
ATOM     15  C   UNL     1      32.003 -10.904 -13.249  1.00  0.00     0.001 A 
ATOM     16  C   UNL     1      30.424 -12.634 -13.661  1.00  0.00     0.001 A 
ATOM     17  C   UNL     1      31.303 -11.677 -14.150  1.00  0.00     0.000 A 
ENDBRANCH   4  12
BRANCH  10  18
ATOM     18  O   UNL     1      29.126 -12.591  -5.187  1.00  0.00    -0.507 OA
ATOM     19  H   UNL     1      29.145 -12.469  -4.191  1.00  0.00     0.293 HD
ENDBRANCH  10  18
BRANCH   8  20
ATOM     20  O   UNL     1      33.410 -14.692  -5.161  1.00  0.00    -0.508 OA
ATOM     21  H   UNL     1      33.800 -14.349  -4.295  1.00  0.00     0.293 HD
ENDBRANCH   8  20
TORSDOF 3
ENDMDL
MODEL 2
REMARK VINA RESULT:      -6.7      0.075      1.085
REMARK SMILES O=c1cc(-c2ccccc2)oc2cc(O)cc(O)c12
REMARK SMILES IDX 1 1 2 2 3 3 4 4 11 5 12 6 13 7 14 8 16 9 17 10 19 11 5 12
REMARK SMILES IDX 6 13 10 14 7 15 9 16 8 17 18 18 15 20
REMARK H PARENT 18 19 15 21
ROOT
ATOM      1  O   UNL     1      28.318 -11.781  -7.325  1.00  0.00    -0.289 OA
ATOM      2  C   UNL     1      29.359 -12.138  -7.931  1.00  0.00     0.197 A 
ATOM      3  C   UNL     1      29.545 -11.926  -9.304  1.00  0.00     0.100 A 
ATOM      4  C   UNL     1      30.693 -12.326  -9.946  1.00  0.00     0.138 A 
ATOM      5  O   UNL     1      31.604 -12.915  -9.208  1.00  0.00    -0.456 OA
ATOM      6  C   UNL     1      31.489 -13.141  -7.923  1.00  0.00     0.146 A 
ATOM      7  C   UNL     1      32.492 -13.771  -7.197  1.00  0.00     0.094 A 
ATOM      8  C   UNL     1      32.404 -14.023  -5.849  1.00  0.00     0.123 A 
ATOM      9  C   UNL     1      31.270 -13.639  -5.169  1.00  0.00     0.093 A 
ATOM     10  C   UNL     1      30.252 -13.011  -5.853  1.00  0.00     0.134 A 
ATOM     11  C   UNL     1      30.361 -12.763  -7.227  1.00  0.00     0.107 A 
ENDROOT
BRANCH   4  12
ATOM     12  C   UNL     1      30.896 -12.109 -11.381  1.00  0.00     0.017 A 
ATOM     13  C   UNL     1      30.259 -12.821 -12.362  1.00  0.00     0.012 A 
ATOM     14  C   UNL     1      31.781 -11.128 -11.794  1.00  0.00     0.012 A 
ATOM     15  C   UNL     1      30.485 -12.579 -13.719  1.00  0.00     0.001 A 
ATOM     16  C   UNL     1      32.025 -10.864 -13.133  1.00  0.00     0.001 A 
ATOM     17  C   UNL     1      31.369 -11.597 -14.112  1.00  0.00     0.000 A 
ENDBRANCH   4  12
BRANCH  10  18
ATOM     18  O   UNL     1      29.121 -12.628  -5.173  1.00  0.00    -0.507 OA
ATOM     19  H   UNL     1      28.481 -13.317  -4.821  1.00  0.00     0.293 HD
ENDBRANCH  10  18
BRANCH   8  20
ATOM     20  O   UNL     1      33.438 -14.660  -5.160  1.00  0.00    -0.508 OA
ATOM     21  H   UNL     1      34.366 -14.774  -5.543  1.00  0.00     0.293 HD
ENDBRANCH   8  20
TORSDOF 3
ENDMDL
MODEL 3
REMARK VINA RESULT:      -6.4     13.315     15.886
REMARK SMILES O=c1cc(-c2ccccc2)oc2cc(O)cc(O)c12
REMARK SMILES IDX 1 1 2 2 3 3 4 4 11 5 12 6 13 7 14 8 16 9 17 10 19 11 5 12
REMARK SMILES IDX 6 13 10 14 7 15 9 16 8 17 18 18 15 20
REMARK H PARENT 18 19 15 21
ROOT
ATOM      1  O   UNL     1      23.743  -6.602   0.594  1.00  0.00    -0.289 OA
ATOM      2  C   UNL     1      22.931  -7.266   1.286  1.00  0.00     0.197 A 
ATOM      3  C   UNL     1      21.578  -6.917   1.406  1.00  0.00     0.100 A 
ATOM      4  C   UNL     1      20.708  -7.659   2.168  1.00  0.00     0.138 A 
ATOM      5  O   UNL     1      21.207  -8.707   2.778  1.00  0.00    -0.456 OA
ATOM      6  C   UNL     1      22.460  -9.084   2.705  1.00  0.00     0.146 A 
ATOM      7  C   UNL     1      22.928 -10.208   3.375  1.00  0.00     0.094 A 
ATOM      8  C   UNL     1      24.234 -10.630   3.320  1.00  0.00     0.123 A 
ATOM      9  C   UNL     1      25.138  -9.915   2.567  1.00  0.00     0.093 A 
ATOM     10  C   UNL     1      24.713  -8.795   1.887  1.00  0.00     0.134 A 
ATOM     11  C   UNL     1      23.378  -8.380   1.956  1.00  0.00     0.107 A 
ENDROOT
BRANCH   4  12
ATOM     12  C   UNL     1      19.293  -7.302   2.300  1.00  0.00     0.017 A 
ATOM     13  C   UNL     1      18.822  -6.016   2.290  1.00  0.00     0.012 A 
ATOM     14  C   UNL     1      18.356  -8.310   2.443  1.00  0.00     0.012 A 
ATOM     15  C   UNL     1      17.462  -5.723   2.418  1.00  0.00     0.001 A 
ATOM     16  C   UNL     1      17.000  -8.051   2.572  1.00  0.00     0.001 A 
ATOM     17  C   UNL     1      16.542  -6.740   2.560  1.00  0.00     0.000 A 
ENDBRANCH   4  12
BRANCH  10  18
ATOM     18  O   UNL     1      25.617  -8.082   1.136  1.00  0.00    -0.507 OA
ATOM     19  H   UNL     1      26.440  -8.527   0.772  1.00  0.00     0.293 HD
ENDBRANCH  10  18
BRANCH   8  20
ATOM     20  O   UNL     1      24.660 -11.767   4.012  1.00  0.00    -0.508 OA
ATOM     21  H   UNL     1      25.603 -11.880   4.356  1.00  0.00     0.293 HD
ENDBRANCH   8  20
TORSDOF 3
ENDMDL
MODEL 4
REMARK VINA RESULT:      -6.3      1.847      1.944
REMARK SMILES O=c1cc(-c2ccccc2)oc2cc(O)cc(O)c12
REMARK SMILES IDX 1 1 2 2 3 3 4 4 11 5 12 6 13 7 14 8 16 9 17 10 19 11 5 12
REMARK SMILES IDX 6 13 10 14 7 15 9 16 8 17 18 18 15 20
REMARK H PARENT 18 19 15 21
ROOT
ATOM      1  O   UNL     1      29.410 -11.174  -6.882  1.00  0.00    -0.289 OA
ATOM      2  C   UNL     1      29.674 -12.025  -7.768  1.00  0.00     0.197 A 
ATOM      3  C   UNL     1      30.053 -11.667  -9.070  1.00  0.00     0.100 A 
ATOM      4  C   UNL     1      30.338 -12.615 -10.024  1.00  0.00     0.138 A 
ATOM      5  O   UNL     1      30.237 -13.870  -9.654  1.00  0.00    -0.456 OA
ATOM      6  C   UNL     1      29.889 -14.266  -8.454  1.00  0.00     0.146 A 
ATOM      7  C   UNL     1      29.801 -15.613  -8.125  1.00  0.00     0.094 A 
ATOM      8  C   UNL     1      29.440 -16.063  -6.878  1.00  0.00     0.123 A 
ATOM      9  C   UNL     1      29.146 -15.146  -5.894  1.00  0.00     0.093 A 
ATOM     10  C   UNL     1      29.222 -13.800  -6.181  1.00  0.00     0.134 A 
ATOM     11  C   UNL     1      29.592 -13.362  -7.458  1.00  0.00     0.107 A 
ENDROOT
BRANCH   4  12
ATOM     12  C   UNL     1      30.733 -12.251 -11.387  1.00  0.00     0.017 A 
ATOM     13  C   UNL     1      31.597 -11.231 -11.688  1.00  0.00     0.012 A 
ATOM     14  C   UNL     1      30.217 -12.968 -12.451  1.00  0.00     0.012 A 
ATOM     15  C   UNL     1      31.946 -10.920 -13.004  1.00  0.00     0.001 A 
ATOM     16  C   UNL     1      30.544 -12.684 -13.768  1.00  0.00     0.001 A 
ATOM     17  C   UNL     1      31.421 -11.645 -14.053  1.00  0.00     0.000 A 
ENDBRANCH   4  12
BRANCH  10  18
ATOM     18  O   UNL     1      28.929 -12.886  -5.198  1.00  0.00    -0.507 OA
ATOM     19  H   UNL     1      27.974 -12.667  -4.974  1.00  0.00     0.293 HD
ENDBRANCH  10  18
BRANCH   8  20
ATOM     20  O   UNL     1      29.364 -17.428  -6.592  1.00  0.00    -0.508 OA
ATOM     21  H   UNL     1      28.865 -17.796  -5.795  1.00  0.00     0.293 HD
ENDBRANCH   8  20
TORSDOF 3
ENDMDL
MODEL 5
REMARK VINA RESULT:      -6.3      1.845      2.204
REMARK SMILES O=c1cc(-c2ccccc2)oc2cc(O)cc(O)c12
REMARK SMILES IDX 1 1 2 2 3 3 4 4 11 5 12 6 13 7 14 8 16 9 17 10 19 11 5 12
REMARK SMILES IDX 6 13 10 14 7 15 9 16 8 17 18 18 15 20
REMARK H PARENT 18 19 15 21
ROOT
ATOM      1  O   UNL     1      29.279 -11.199  -6.963  1.00  0.00    -0.289 OA
ATOM      2  C   UNL     1      29.587 -12.051  -7.834  1.00  0.00     0.197 A 
ATOM      3  C   UNL     1      29.963 -11.696  -9.138  1.00  0.00     0.100 A 
ATOM      4  C   UNL     1      30.295 -12.645 -10.075  1.00  0.00     0.138 A 
ATOM      5  O   UNL     1      30.242 -13.897  -9.688  1.00  0.00    -0.456 OA
ATOM      6  C   UNL     1      29.899 -14.291  -8.486  1.00  0.00     0.146 A 
ATOM      7  C   UNL     1      29.862 -15.635  -8.138  1.00  0.00     0.094 A 
ATOM      8  C   UNL     1      29.508 -16.082  -6.888  1.00  0.00     0.123 A 
ATOM      9  C   UNL     1      29.167 -15.164  -5.920  1.00  0.00     0.093 A 
ATOM     10  C   UNL     1      29.191 -13.820  -6.226  1.00  0.00     0.134 A 
ATOM     11  C   UNL     1      29.555 -13.385  -7.506  1.00  0.00     0.107 A 
ENDROOT
BRANCH   4  12
ATOM     12  C   UNL     1      30.689 -12.284 -11.439  1.00  0.00     0.017 A 
ATOM     13  C   UNL     1      30.210 -12.901 -12.564  1.00  0.00     0.012 A 
ATOM     14  C   UNL     1      31.599 -11.259 -11.627  1.00  0.00     0.012 A 
ATOM     15  C   UNL     1      30.615 -12.522 -13.847  1.00  0.00     0.001 A 
ATOM     16  C   UNL     1      32.020 -10.860 -12.887  1.00  0.00     0.001 A 
ATOM     17  C   UNL     1      31.523 -11.498 -14.015  1.00  0.00     0.000 A 
ENDBRANCH   4  12
BRANCH  10  18
ATOM     18  O   UNL     1      28.851 -12.905  -5.259  1.00  0.00    -0.507 OA
ATOM     19  H   UNL     1      29.461 -12.739  -4.479  1.00  0.00     0.293 HD
ENDBRANCH  10  18
BRANCH   8  20
ATOM     20  O   UNL     1      29.485 -17.445  -6.583  1.00  0.00    -0.508 OA
ATOM     21  H   UNL     1      30.265 -18.061  -6.762  1.00  0.00     0.293 HD
ENDBRANCH   8  20
TORSDOF 3
ENDMDL
MODEL 6
REMARK VINA RESULT:      -6.3     13.394     15.983
REMARK SMILES O=c1cc(-c2ccccc2)oc2cc(O)cc(O)c12
REMARK SMILES IDX 1 1 2 2 3 3 4 4 11 5 12 6 13 7 14 8 16 9 17 10 19 11 5 12
REMARK SMILES IDX 6 13 10 14 7 15 9 16 8 17 18 18 15 20
REMARK H PARENT 18 19 15 21
ROOT
ATOM      1  O   UNL     1      23.625  -6.584   0.642  1.00  0.00    -0.289 OA
ATOM      2  C   UNL     1      22.825  -7.269   1.328  1.00  0.00     0.197 A 
ATOM      3  C   UNL     1      21.464  -6.951   1.443  1.00  0.00     0.100 A 
ATOM      4  C   UNL     1      20.608  -7.716   2.198  1.00  0.00     0.138 A 
ATOM      5  O   UNL     1      21.128  -8.755   2.806  1.00  0.00    -0.456 OA
ATOM      6  C   UNL     1      22.390  -9.103   2.737  1.00  0.00     0.146 A 
ATOM      7  C   UNL     1      22.880 -10.219   3.405  1.00  0.00     0.094 A 
ATOM      8  C   UNL     1      24.195 -10.612   3.354  1.00  0.00     0.123 A 
ATOM      9  C   UNL     1      25.086  -9.873   2.608  1.00  0.00     0.093 A 
ATOM     10  C   UNL     1      24.639  -8.760   1.931  1.00  0.00     0.134 A 
ATOM     11  C   UNL     1      23.295  -8.376   1.995  1.00  0.00     0.107 A 
ENDROOT
BRANCH   4  12
ATOM     12  C   UNL     1      19.184  -7.392   2.325  1.00  0.00     0.017 A 
ATOM     13  C   UNL     1      18.195  -8.327   2.475  1.00  0.00     0.012 A 
ATOM     14  C   UNL     1      18.792  -6.065   2.295  1.00  0.00     0.012 A 
ATOM     15  C   UNL     1      16.850  -7.970   2.592  1.00  0.00     0.001 A 
ATOM     16  C   UNL     1      17.465  -5.680   2.409  1.00  0.00     0.001 A 
ATOM     17  C   UNL     1      16.477  -6.644   2.560  1.00  0.00     0.000 A 
ENDBRANCH   4  12
BRANCH  10  18
ATOM     18  O   UNL     1      25.530  -8.024   1.186  1.00  0.00    -0.507 OA
ATOM     19  H   UNL     1      25.935  -7.184   1.560  1.00  0.00     0.293 HD
ENDBRANCH  10  18
BRANCH   8  20
ATOM     20  O   UNL     1      24.643 -11.741   4.043  1.00  0.00    -0.508 OA
ATOM     21  H   UNL     1      24.959 -11.710   5.002  1.00  0.00     0.293 HD
ENDBRANCH   8  20
TORSDOF 3
ENDMDL
MODEL 7
REMARK VINA RESULT:      -6.3      2.343      2.815
REMARK SMILES O=c1cc(-c2ccccc2)oc2cc(O)cc(O)c12
REMARK SMILES IDX 1 1 2 2 3 3 4 4 11 5 12 6 13 7 14 8 16 9 17 10 19 11 5 12
REMARK SMILES IDX 6 13 10 14 7 15 9 16 8 17 18 18 15 20
REMARK H PARENT 18 19 15 21
ROOT
ATOM      1  O   UNL     1      26.601 -12.343  -7.103  1.00  0.00    -0.289 OA
ATOM      2  C   UNL     1      27.746 -12.799  -7.345  1.00  0.00     0.197 A 
ATOM      3  C   UNL     1      28.598 -12.230  -8.303  1.00  0.00     0.100 A 
ATOM      4  C   UNL     1      29.847 -12.746  -8.552  1.00  0.00     0.138 A 
ATOM      5  O   UNL     1      30.201 -13.796  -7.850  1.00  0.00    -0.456 OA
ATOM      6  C   UNL     1      29.450 -14.372  -6.943  1.00  0.00     0.146 A 
ATOM      7  C   UNL     1      29.883 -15.484  -6.232  1.00  0.00     0.094 A 
ATOM      8  C   UNL     1      29.123 -16.111  -5.274  1.00  0.00     0.123 A 
ATOM      9  C   UNL     1      27.865 -15.626  -4.995  1.00  0.00     0.093 A 
ATOM     10  C   UNL     1      27.399 -14.524  -5.679  1.00  0.00     0.134 A 
ATOM     11  C   UNL     1      28.189 -13.899  -6.651  1.00  0.00     0.107 A 
ENDROOT
BRANCH   4  12
ATOM     12  C   UNL     1      30.745 -12.159  -9.551  1.00  0.00     0.017 A 
ATOM     13  C   UNL     1      31.975 -11.632  -9.261  1.00  0.00     0.012 A 
ATOM     14  C   UNL     1      30.346 -12.125 -10.876  1.00  0.00     0.012 A 
ATOM     15  C   UNL     1      32.797 -11.082 -10.247  1.00  0.00     0.001 A 
ATOM     16  C   UNL     1      31.140 -11.587 -11.877  1.00  0.00     0.001 A 
ATOM     17  C   UNL     1      32.384 -11.057 -11.562  1.00  0.00     0.000 A 
ENDBRANCH   4  12
BRANCH  10  18
ATOM     18  O   UNL     1      26.144 -14.041  -5.398  1.00  0.00    -0.507 OA
ATOM     19  H   UNL     1      26.029 -13.134  -4.982  1.00  0.00     0.293 HD
ENDBRANCH  10  18
BRANCH   8  20
ATOM     20  O   UNL     1      29.600 -17.228  -4.584  1.00  0.00    -0.508 OA
ATOM     21  H   UNL     1      30.486 -17.666  -4.793  1.00  0.00     0.293 HD
ENDBRANCH   8  20
TORSDOF 3
ENDMDL
MODEL 8
REMARK VINA RESULT:      -6.2      2.374      3.009
REMARK SMILES O=c1cc(-c2ccccc2)oc2cc(O)cc(O)c12
REMARK SMILES IDX 1 1 2 2 3 3 4 4 11 5 12 6 13 7 14 8 16 9 17 10 19 11 5 12
REMARK SMILES IDX 6 13 10 14 7 15 9 16 8 17 18 18 15 20
REMARK H PARENT 18 19 15 21
ROOT
ATOM      1  O   UNL     1      26.606 -12.352  -7.120  1.00  0.00    -0.289 OA
ATOM      2  C   UNL     1      27.754 -12.812  -7.344  1.00  0.00     0.197 A 
ATOM      3  C   UNL     1      28.620 -12.252  -8.295  1.00  0.00     0.100 A 
ATOM      4  C   UNL     1      29.871 -12.772  -8.524  1.00  0.00     0.138 A 
ATOM      5  O   UNL     1      30.213 -13.818  -7.809  1.00  0.00    -0.456 OA
ATOM      6  C   UNL     1      29.450 -14.385  -6.908  1.00  0.00     0.146 A 
ATOM      7  C   UNL     1      29.871 -15.493  -6.182  1.00  0.00     0.094 A 
ATOM      8  C   UNL     1      29.097 -16.111  -5.231  1.00  0.00     0.123 A 
ATOM      9  C   UNL     1      27.837 -15.622  -4.971  1.00  0.00     0.093 A 
ATOM     10  C   UNL     1      27.382 -14.524  -5.670  1.00  0.00     0.134 A 
ATOM     11  C   UNL     1      28.186 -13.908  -6.636  1.00  0.00     0.107 A 
ENDROOT
BRANCH   4  12
ATOM     12  C   UNL     1      30.783 -12.194  -9.515  1.00  0.00     0.017 A 
ATOM     13  C   UNL     1      30.426 -11.896 -10.803  1.00  0.00     0.012 A 
ATOM     14  C   UNL     1      32.090 -11.924  -9.149  1.00  0.00     0.012 A 
ATOM     15  C   UNL     1      31.330 -11.345 -11.714  1.00  0.00     0.001 A 
ATOM     16  C   UNL     1      33.010 -11.377 -10.030  1.00  0.00     0.001 A 
ATOM     17  C   UNL     1      32.628 -11.081 -11.332  1.00  0.00     0.000 A 
ENDBRANCH   4  12
BRANCH  10  18
ATOM     18  O   UNL     1      26.123 -14.036  -5.409  1.00  0.00    -0.507 OA
ATOM     19  H   UNL     1      25.507 -13.790  -6.162  1.00  0.00     0.293 HD
ENDBRANCH  10  18
BRANCH   8  20
ATOM     20  O   UNL     1      29.563 -17.224  -4.526  1.00  0.00    -0.508 OA
ATOM     21  H   UNL     1      29.651 -17.240  -3.520  1.00  0.00     0.293 HD
ENDBRANCH   8  20
TORSDOF 3
ENDMDL
MODEL 9
REMARK VINA RESULT:      -6.2      1.171      2.634
REMARK SMILES O=c1cc(-c2ccccc2)oc2cc(O)cc(O)c12
REMARK SMILES IDX 1 1 2 2 3 3 4 4 11 5 12 6 13 7 14 8 16 9 17 10 19 11 5 12
REMARK SMILES IDX 6 13 10 14 7 15 9 16 8 17 18 18 15 20
REMARK H PARENT 18 19 15 21
ROOT
ATOM      1  O   UNL     1      33.713 -13.424  -7.450  1.00  0.00    -0.289 OA
ATOM      2  C   UNL     1      32.629 -13.230  -8.054  1.00  0.00     0.197 A 
ATOM      3  C   UNL     1      32.573 -12.891  -9.414  1.00  0.00     0.100 A 
ATOM      4  C   UNL     1      31.375 -12.683 -10.056  1.00  0.00     0.138 A 
ATOM      5  O   UNL     1      30.289 -12.816  -9.331  1.00  0.00    -0.456 OA
ATOM      6  C   UNL     1      30.277 -13.129  -8.059  1.00  0.00     0.146 A 
ATOM      7  C   UNL     1      29.091 -13.255  -7.347  1.00  0.00     0.094 A 
ATOM      8  C   UNL     1      29.042 -13.583  -6.013  1.00  0.00     0.123 A 
ATOM      9  C   UNL     1      30.220 -13.799  -5.334  1.00  0.00     0.093 A 
ATOM     10  C   UNL     1      31.418 -13.684  -6.005  1.00  0.00     0.134 A 
ATOM     11  C   UNL     1      31.446 -13.350  -7.364  1.00  0.00     0.107 A 
ENDROOT
BRANCH   4  12
ATOM     12  C   UNL     1      31.306 -12.329 -11.476  1.00  0.00     0.017 A 
ATOM     13  C   UNL     1      32.075 -11.359 -12.063  1.00  0.00     0.012 A 
ATOM     14  C   UNL     1      30.418 -13.004 -12.295  1.00  0.00     0.012 A 
ATOM     15  C   UNL     1      31.975 -11.057 -13.423  1.00  0.00     0.001 A 
ATOM     16  C   UNL     1      30.296 -12.726 -13.647  1.00  0.00     0.001 A 
ATOM     17  C   UNL     1      31.085 -11.739 -14.224  1.00  0.00     0.000 A 
ENDBRANCH   4  12
BRANCH  10  18
ATOM     18  O   UNL     1      32.592 -13.902  -5.325  1.00  0.00    -0.507 OA
ATOM     19  H   UNL     1      32.883 -14.835  -5.096  1.00  0.00     0.293 HD
ENDBRANCH  10  18
BRANCH   8  20
ATOM     20  O   UNL     1      27.825 -13.697  -5.337  1.00  0.00    -0.508 OA
ATOM     21  H   UNL     1      26.941 -13.808  -5.813  1.00  0.00     0.293 HD
ENDBRANCH   8  20
TORSDOF 3
ENDMDL
