MODEL 1
REMARK VINA RESULT:      -6.8      0.000      0.000
REMARK SMILES O=c1c([O-])c(-c2ccccc2)oc2cc([O-])cc([O-])c12
REMARK SMILES IDX 1 1 2 2 3 3 4 4 5 5 12 6 13 7 14 8 15 9 16 10 17 11 18 12
REMARK SMILES IDX 19 13 20 14 6 15 7 16 11 17 8 18 10 19 9 20
REMARK H PARENT
ROOT
ATOM      1  O   UNL     1      28.729 -11.647  -7.146  1.00  0.00    -0.290 OA
ATOM      2  C   UNL     1      29.713 -12.104  -7.764  1.00  0.00     0.184 A 
ATOM      3  C   UNL     1      29.772 -11.826  -9.146  1.00  0.00    -0.014 A 
ATOM      4  O   UNL     1      28.778 -11.091  -9.731  1.00  0.00    -0.867 OA
ATOM      5  C   UNL     1      30.835 -12.311  -9.850  1.00  0.00     0.130 A 
ATOM      6  O   UNL     1      31.773 -13.029  -9.198  1.00  0.00    -0.457 OA
ATOM      7  C   UNL     1      31.727 -13.285  -7.945  1.00  0.00     0.137 A 
ATOM      8  C   UNL     1      32.712 -14.019  -7.342  1.00  0.00     0.039 A 
ATOM      9  C   UNL     1      32.694 -14.314  -5.995  1.00  0.00    -0.106 A 
ATOM     10  O   UNL     1      33.713 -15.065  -5.410  1.00  0.00    -0.872 OA
ATOM     11  C   UNL     1      31.631 -13.845  -5.220  1.00  0.00    -0.016 A 
ATOM     12  C   UNL     1      30.628 -13.107  -5.793  1.00  0.00    -0.094 A 
ATOM     13  O   UNL     1      29.583 -12.648  -5.020  1.00  0.00    -0.872 OA
ATOM     14  C   UNL     1      30.693 -12.840  -7.138  1.00  0.00     0.056 A 
ENDROOT
BRANCH   5  15
ATOM     15  C   UNL     1      31.006 -12.092 -11.275  1.00  0.00     0.017 A 
ATOM     16  C   UNL     1      31.777 -11.156 -11.887  1.00  0.00     0.012 A 
ATOM     17  C   UNL     1      30.304 -12.936 -12.151  1.00  0.00     0.012 A 
ATOM     18  C   UNL     1      31.875 -11.029 -13.264  1.00  0.00     0.001 A 
ATOM     19  C   UNL     1      30.389 -12.824 -13.520  1.00  0.00     0.001 A 
ATOM     20  C   UNL     1      31.182 -11.861 -14.100  1.00  0.00     0.000 A 
ENDBRANCH   5  15
TORSDOF 1
ENDMDL
MODEL 2
REMARK VINA RESULT:      -6.8      0.137      1.049
REMARK SMILES O=c1c([O-])c(-c2ccccc2)oc2cc([O-])cc([O-])c12
REMARK SMILES IDX 1 1 2 2 3 3 4 4 5 5 12 6 13 7 14 8 15 9 16 10 17 11 18 12
REMARK SMILES IDX 19 13 20 14 6 15 7 16 11 17 8 18 10 19 9 20
REMARK H PARENT
ROOT
ATOM      1  O   UNL     1      28.704 -11.583  -7.130  1.00  0.00    -0.290 OA
ATOM      2  C   UNL     1      29.660 -12.079  -7.761  1.00  0.00     0.184 A 
ATOM      3  C   UNL     1      29.694 -11.833  -9.150  1.00  0.00    -0.014 A 
ATOM      4  O   UNL     1      28.707 -11.082  -9.727  1.00  0.00    -0.867 OA
ATOM      5  C   UNL     1      30.727 -12.361  -9.867  1.00  0.00     0.130 A 
ATOM      6  O   UNL     1      31.660 -13.091  -9.222  1.00  0.00    -0.457 OA
ATOM      7  C   UNL     1      31.637 -13.321  -7.963  1.00  0.00     0.137 A 
ATOM      8  C   UNL     1      32.615 -14.069  -7.367  1.00  0.00     0.039 A 
ATOM      9  C   UNL     1      32.621 -14.335  -6.015  1.00  0.00    -0.106 A 
ATOM     10  O   UNL     1      33.633 -15.102  -5.437  1.00  0.00    -0.872 OA
ATOM     11  C   UNL     1      31.590 -13.820  -5.226  1.00  0.00    -0.016 A 
ATOM     12  C   UNL     1      30.594 -13.066  -5.791  1.00  0.00    -0.094 A 
ATOM     13  O   UNL     1      29.580 -12.563  -5.004  1.00  0.00    -0.872 OA
ATOM     14  C   UNL     1      30.634 -12.830  -7.142  1.00  0.00     0.056 A 
ENDROOT
BRANCH   5  15
ATOM     15  C   UNL     1      30.870 -12.178 -11.300  1.00  0.00     0.017 A 
ATOM     16  C   UNL     1      30.250 -12.867 -12.294  1.00  0.00     0.012 A 
ATOM     17  C   UNL     1      31.747 -11.173 -11.743  1.00  0.00     0.012 A 
ATOM     18  C   UNL     1      30.455 -12.612 -13.642  1.00  0.00     0.001 A 
ATOM     19  C   UNL     1      31.962 -10.907 -13.076  1.00  0.00     0.001 A 
ATOM     20  C   UNL     1      31.314 -11.629 -14.051  1.00  0.00     0.000 A 
ENDBRANCH   5  15
TORSDOF 1
ENDMDL
MODEL 3
REMARK VINA RESULT:      -6.3      2.679      5.838
REMARK SMILES O=c1c([O-])c(-c2ccccc2)oc2cc([O-])cc([O-])c12
REMARK SMILES IDX 1 1 2 2 3 3 4 4 5 5 12 6 13 7 14 8 15 9 16 10 17 11 18 12
REMARK SMILES IDX 19 13 20 14 6 15 7 16 11 17 8 18 10 19 9 20
REMARK H PARENT
ROOT
ATOM      1  O   UNL     1      33.043 -13.558  -7.111  1.00  0.00    -0.290 OA
ATOM      2  C   UNL     1      31.997 -13.313  -7.747  1.00  0.00     0.184 A 
ATOM      3  C   UNL     1      30.794 -13.799  -7.193  1.00  0.00    -0.014 A 
ATOM      4  O   UNL     1      30.825 -14.497  -6.018  1.00  0.00    -0.867 OA
ATOM      5  C   UNL     1      29.634 -13.546  -7.865  1.00  0.00     0.130 A 
ATOM      6  O   UNL     1      29.690 -12.850  -9.019  1.00  0.00    -0.457 OA
ATOM      7  C   UNL     1      30.777 -12.406  -9.529  1.00  0.00     0.137 A 
ATOM      8  C   UNL     1      30.767 -11.705 -10.704  1.00  0.00     0.039 A 
ATOM      9  C   UNL     1      31.918 -11.212 -11.280  1.00  0.00    -0.106 A 
ATOM     10  O   UNL     1      31.874 -10.501 -12.480  1.00  0.00    -0.872 OA
ATOM     11  C   UNL     1      33.138 -11.437 -10.639  1.00  0.00    -0.016 A 
ATOM     12  C   UNL     1      33.184 -12.136  -9.461  1.00  0.00    -0.094 A 
ATOM     13  O   UNL     1      34.393 -12.354  -8.836  1.00  0.00    -0.872 OA
ATOM     14  C   UNL     1      32.009 -12.605  -8.928  1.00  0.00     0.056 A 
ENDROOT
BRANCH   5  15
ATOM     15  C   UNL     1      28.335 -13.994  -7.397  1.00  0.00     0.017 A 
ATOM     16  C   UNL     1      27.939 -15.267  -7.132  1.00  0.00     0.012 A 
ATOM     17  C   UNL     1      27.349 -13.018  -7.181  1.00  0.00     0.012 A 
ATOM     18  C   UNL     1      26.668 -15.593  -6.684  1.00  0.00     0.001 A 
ATOM     19  C   UNL     1      26.083 -13.324  -6.737  1.00  0.00     0.001 A 
ATOM     20  C   UNL     1      25.722 -14.626  -6.481  1.00  0.00     0.000 A 
ENDBRANCH   5  15
TORSDOF 1
ENDMDL
MODEL 4
REMARK VINA RESULT:      -6.1      2.646      5.793
REMARK SMILES O=c1c([O-])c(-c2ccccc2)oc2cc([O-])cc([O-])c12
REMARK SMILES IDX 1 1 2 2 3 3 4 4 5 5 12 6 13 7 14 8 15 9 16 10 17 11 18 12
REMARK SMILES IDX 19 13 20 14 6 15 7 16 11 17 8 18 10 19 9 20
REMARK H PARENT
ROOT
ATOM      1  O   UNL     1      33.003 -13.399  -7.260  1.00  0.00    -0.290 OA
ATOM      2  C   UNL     1      31.956 -13.159  -7.897  1.00  0.00     0.184 A 
ATOM      3  C   UNL     1      30.750 -13.609  -7.320  1.00  0.00    -0.014 A 
ATOM      4  O   UNL     1      30.779 -14.267  -6.122  1.00  0.00    -0.867 OA
ATOM      5  C   UNL     1      29.590 -13.362  -7.992  1.00  0.00     0.130 A 
ATOM      6  O   UNL     1      29.647 -12.707  -9.170  1.00  0.00    -0.457 OA
ATOM      7  C   UNL     1      30.737 -12.296  -9.701  1.00  0.00     0.137 A 
ATOM      8  C   UNL     1      30.729 -11.635 -10.899  1.00  0.00     0.039 A 
ATOM      9  C   UNL     1      31.883 -11.179 -11.499  1.00  0.00    -0.106 A 
ATOM     10  O   UNL     1      31.841 -10.508 -12.722  1.00  0.00    -0.872 OA
ATOM     11  C   UNL     1      33.104 -11.400 -10.859  1.00  0.00    -0.016 A 
ATOM     12  C   UNL     1      33.148 -12.059  -9.658  1.00  0.00    -0.094 A 
ATOM     13  O   UNL     1      34.358 -12.274  -9.033  1.00  0.00    -0.872 OA
ATOM     14  C   UNL     1      31.971 -12.493  -9.102  1.00  0.00     0.056 A 
ENDROOT
BRANCH   5  15
ATOM     15  C   UNL     1      28.288 -13.775  -7.501  1.00  0.00     0.017 A 
ATOM     16  C   UNL     1      27.245 -12.983  -7.138  1.00  0.00     0.012 A 
ATOM     17  C   UNL     1      28.047 -15.153  -7.376  1.00  0.00     0.012 A 
ATOM     18  C   UNL     1      26.034 -13.478  -6.679  1.00  0.00     0.001 A 
ATOM     19  C   UNL     1      26.851 -15.661  -6.922  1.00  0.00     0.001 A 
ATOM     20  C   UNL     1      25.820 -14.824  -6.564  1.00  0.00     0.000 A 
ENDBRANCH   5  15
TORSDOF 1
ENDMDL
MODEL 5
REMARK VINA RESULT:      -6.1      2.640      3.005
REMARK SMILES O=c1c([O-])c(-c2ccccc2)oc2cc([O-])cc([O-])c12
REMARK SMILES IDX 1 1 2 2 3 3 4 4 5 5 12 6 13 7 14 8 15 9 16 10 17 11 18 12
REMARK SMILES IDX 19 13 20 14 6 15 7 16 11 17 8 18 10 19 9 20
REMARK H PARENT
ROOT
ATOM      1  O   UNL     1      26.916 -12.282  -7.083  1.00  0.00    -0.290 OA
ATOM      2  C   UNL     1      27.932 -12.907  -7.452  1.00  0.00     0.184 A 
ATOM      3  C   UNL     1      28.797 -12.235  -8.341  1.00  0.00    -0.014 A 
ATOM      4  O   UNL     1      28.494 -10.965  -8.748  1.00  0.00    -0.867 OA
ATOM      5  C   UNL     1      29.916 -12.892  -8.762  1.00  0.00     0.130 A 
ATOM      6  O   UNL     1      30.142 -14.144  -8.315  1.00  0.00    -0.457 OA
ATOM      7  C   UNL     1      29.362 -14.761  -7.508  1.00  0.00     0.137 A 
ATOM      8  C   UNL     1      29.648 -16.032  -7.090  1.00  0.00     0.039 A 
ATOM      9  C   UNL     1      28.831 -16.725  -6.223  1.00  0.00    -0.106 A 
ATOM     10  O   UNL     1      29.151 -18.021  -5.815  1.00  0.00    -0.872 OA
ATOM     11  C   UNL     1      27.670 -16.106  -5.755  1.00  0.00    -0.016 A 
ATOM     12  C   UNL     1      27.354 -14.834  -6.155  1.00  0.00    -0.094 A 
ATOM     13  O   UNL     1      26.205 -14.231  -5.689  1.00  0.00    -0.872 OA
ATOM     14  C   UNL     1      28.201 -14.186  -7.019  1.00  0.00     0.056 A 
ENDROOT
BRANCH   5  15
ATOM     15  C   UNL     1      30.880 -12.306  -9.676  1.00  0.00     0.017 A 
ATOM     16  C   UNL     1      32.092 -11.770  -9.376  1.00  0.00     0.012 A 
ATOM     17  C   UNL     1      30.548 -12.276 -11.041  1.00  0.00     0.012 A 
ATOM     18  C   UNL     1      32.946 -11.234 -10.328  1.00  0.00     0.001 A 
ATOM     19  C   UNL     1      31.383 -11.746 -11.998  1.00  0.00     0.001 A 
ATOM     20  C   UNL     1      32.603 -11.214 -11.652  1.00  0.00     0.000 A 
ENDBRANCH   5  15
TORSDOF 1
ENDMDL
MODEL 6
REMARK VINA RESULT:      -6.0      4.244      5.946
REMARK SMILES O=c1c([O-])c(-c2ccccc2)oc2cc([O-])cc([O-])c12
REMARK SMILES IDX 1 1 2 2 3 3 4 4 5 5 12 6 13 7 14 8 15 9 16 10 17 11 18 12
REMARK SMILES IDX 19 13 20 14 6 15 7 16 11 17 8 18 10 19 9 20
REMARK H PARENT
ROOT
ATOM      1  O   UNL     1      29.547 -16.019  -3.625  1.00  0.00    -0.290 OA
ATOM      2  C   UNL     1      28.775 -15.665  -4.540  1.00  0.00     0.184 A 
ATOM      3  C   UNL     1      29.300 -14.774  -5.498  1.00  0.00    -0.014 A 
ATOM      4  O   UNL     1      30.595 -14.347  -5.386  1.00  0.00    -0.867 OA
ATOM      5  C   UNL     1      28.481 -14.369  -6.511  1.00  0.00     0.130 A 
ATOM      6  O   UNL     1      27.216 -14.835  -6.549  1.00  0.00    -0.457 OA
ATOM      7  C   UNL     1      26.731 -15.645  -5.684  1.00  0.00     0.137 A 
ATOM      8  C   UNL     1      25.438 -16.083  -5.779  1.00  0.00     0.039 A 
ATOM      9  C   UNL     1      24.884 -16.953  -4.865  1.00  0.00    -0.106 A 
ATOM     10  O   UNL     1      23.562 -17.381  -4.990  1.00  0.00    -0.872 OA
ATOM     11  C   UNL     1      25.673 -17.405  -3.805  1.00  0.00    -0.016 A 
ATOM     12  C   UNL     1      26.973 -16.985  -3.680  1.00  0.00    -0.094 A 
ATOM     13  O   UNL     1      27.744 -17.436  -2.630  1.00  0.00    -0.872 OA
ATOM     14  C   UNL     1      27.477 -16.118  -4.617  1.00  0.00     0.056 A 
ENDROOT
BRANCH   5  15
ATOM     15  C   UNL     1      28.906 -13.454  -7.555  1.00  0.00     0.017 A 
ATOM     16  C   UNL     1      28.581 -12.142  -7.695  1.00  0.00     0.012 A 
ATOM     17  C   UNL     1      29.758 -13.956  -8.553  1.00  0.00     0.012 A 
ATOM     18  C   UNL     1      29.044 -11.349  -8.734  1.00  0.00     0.001 A 
ATOM     19  C   UNL     1      30.226 -13.183  -9.590  1.00  0.00     0.001 A 
ATOM     20  C   UNL     1      29.872 -11.858  -9.696  1.00  0.00     0.000 A 
ENDBRANCH   5  15
TORSDOF 1
ENDMDL
MODEL 7
REMARK VINA RESULT:      -6.0      2.771      3.287
REMARK SMILES O=c1c([O-])c(-c2ccccc2)oc2cc([O-])cc([O-])c12
REMARK SMILES IDX 1 1 2 2 3 3 4 4 5 5 12 6 13 7 14 8 15 9 16 10 17 11 18 12
REMARK SMILES IDX 19 13 20 14 6 15 7 16 11 17 8 18 10 19 9 20
REMARK H PARENT
ROOT
ATOM      1  O   UNL     1      26.901 -12.263  -6.969  1.00  0.00    -0.290 OA
ATOM      2  C   UNL     1      27.868 -12.921  -7.407  1.00  0.00     0.184 A 
ATOM      3  C   UNL     1      28.742 -12.247  -8.286  1.00  0.00    -0.014 A 
ATOM      4  O   UNL     1      28.499 -10.941  -8.611  1.00  0.00    -0.867 OA
ATOM      5  C   UNL     1      29.809 -12.939  -8.780  1.00  0.00     0.130 A 
ATOM      6  O   UNL     1      29.977 -14.225  -8.411  1.00  0.00    -0.457 OA
ATOM      7  C   UNL     1      29.189 -14.844  -7.615  1.00  0.00     0.137 A 
ATOM      8  C   UNL     1      29.415 -16.151  -7.277  1.00  0.00     0.039 A 
ATOM      9  C   UNL     1      28.588 -16.847  -6.423  1.00  0.00    -0.106 A 
ATOM     10  O   UNL     1      28.846 -18.179  -6.099  1.00  0.00    -0.872 OA
ATOM     11  C   UNL     1      27.479 -16.193  -5.883  1.00  0.00    -0.016 A 
ATOM     12  C   UNL     1      27.222 -14.884  -6.200  1.00  0.00    -0.094 A 
ATOM     13  O   UNL     1      26.125 -14.247  -5.662  1.00  0.00    -0.872 OA
ATOM     14  C   UNL     1      28.077 -14.235  -7.055  1.00  0.00     0.056 A 
ENDROOT
BRANCH   5  15
ATOM     15  C   UNL     1      30.776 -12.355  -9.692  1.00  0.00     0.017 A 
ATOM     16  C   UNL     1      30.607 -12.058 -11.007  1.00  0.00     0.012 A 
ATOM     17  C   UNL     1      32.048 -12.048  -9.182  1.00  0.00     0.012 A 
ATOM     18  C   UNL     1      31.599 -11.497 -11.796  1.00  0.00     0.001 A 
ATOM     19  C   UNL     1      33.044 -11.491  -9.951  1.00  0.00     0.001 A 
ATOM     20  C   UNL     1      32.832 -11.206 -11.280  1.00  0.00     0.000 A 
ENDBRANCH   5  15
TORSDOF 1
ENDMDL
MODEL 8
REMARK VINA RESULT:      -6.0      3.899      5.510
REMARK SMILES O=c1c([O-])c(-c2ccccc2)oc2cc([O-])cc([O-])c12
REMARK SMILES IDX 1 1 2 2 3 3 4 4 5 5 12 6 13 7 14 8 15 9 16 10 17 11 18 12
REMARK SMILES IDX 19 13 20 14 6 15 7 16 11 17 8 18 10 19 9 20
REMARK H PARENT
ROOT
ATOM      1  O   UNL     1      30.017 -15.698  -3.922  1.00  0.00    -0.290 OA
ATOM      2  C   UNL     1      29.223 -15.431  -4.847  1.00  0.00     0.184 A 
ATOM      3  C   UNL     1      29.724 -14.630  -5.896  1.00  0.00    -0.014 A 
ATOM      4  O   UNL     1      31.020 -14.195  -5.854  1.00  0.00    -0.867 OA
ATOM      5  C   UNL     1      28.880 -14.321  -6.922  1.00  0.00     0.130 A 
ATOM      6  O   UNL     1      27.615 -14.789  -6.887  1.00  0.00    -0.457 OA
ATOM      7  C   UNL     1      27.153 -15.516  -5.940  1.00  0.00     0.137 A 
ATOM      8  C   UNL     1      25.859 -15.961  -5.964  1.00  0.00     0.039 A 
ATOM      9  C   UNL     1      25.329 -16.744  -4.961  1.00  0.00    -0.106 A 
ATOM     10  O   UNL     1      24.005 -17.181  -5.015  1.00  0.00    -0.872 OA
ATOM     11  C   UNL     1      26.144 -17.095  -3.883  1.00  0.00    -0.016 A 
ATOM     12  C   UNL     1      27.445 -16.666  -3.828  1.00  0.00    -0.094 A 
ATOM     13  O   UNL     1      28.241 -17.018  -2.759  1.00  0.00    -0.872 OA
ATOM     14  C   UNL     1      27.925 -15.889  -4.852  1.00  0.00     0.056 A 
ENDROOT
BRANCH   5  15
ATOM     15  C   UNL     1      29.279 -13.506  -8.055  1.00  0.00     0.017 A 
ATOM     16  C   UNL     1      30.059 -13.867  -9.107  1.00  0.00     0.012 A 
ATOM     17  C   UNL     1      28.815 -12.180  -8.098  1.00  0.00     0.012 A 
ATOM     18  C   UNL     1      30.383 -13.009 -10.147  1.00  0.00     0.001 A 
ATOM     19  C   UNL     1      29.127 -11.316  -9.122  1.00  0.00     0.001 A 
ATOM     20  C   UNL     1      29.922 -11.721 -10.169  1.00  0.00     0.000 A 
ENDBRANCH   5  15
TORSDOF 1
ENDMDL
MODEL 9
REMARK VINA RESULT:      -5.9      4.643      5.926
REMARK SMILES O=c1c([O-])c(-c2ccccc2)oc2cc([O-])cc([O-])c12
REMARK SMILES IDX 1 1 2 2 3 3 4 4 5 5 12 6 13 7 14 8 15 9 16 10 17 11 18 12
REMARK SMILES IDX 19 13 20 14 6 15 7 16 11 17 8 18 10 19 9 20
REMARK H PARENT
ROOT
ATOM      1  O   UNL     1      24.583 -16.231  -5.864  1.00  0.00    -0.290 OA
ATOM      2  C   UNL     1      25.780 -15.937  -5.666  1.00  0.00     0.184 A 
ATOM      3  C   UNL     1      26.344 -14.979  -6.534  1.00  0.00    -0.014 A 
ATOM      4  O   UNL     1      25.578 -14.430  -7.525  1.00  0.00    -0.867 OA
ATOM      5  C   UNL     1      27.651 -14.635  -6.343  1.00  0.00     0.130 A 
ATOM      6  O   UNL     1      28.338 -15.224  -5.343  1.00  0.00    -0.457 OA
ATOM      7  C   UNL     1      27.834 -16.095  -4.551  1.00  0.00     0.137 A 
ATOM      8  C   UNL     1      28.584 -16.655  -3.554  1.00  0.00     0.039 A 
ATOM      9  C   UNL     1      28.073 -17.594  -2.684  1.00  0.00    -0.106 A 
ATOM     10  O   UNL     1      28.865 -18.147  -1.677  1.00  0.00    -0.872 OA
ATOM     11  C   UNL     1      26.741 -17.986  -2.827  1.00  0.00    -0.016 A 
ATOM     12  C   UNL     1      25.961 -17.445  -3.817  1.00  0.00    -0.094 A 
ATOM     13  O   UNL     1      24.647 -17.839  -3.951  1.00  0.00    -0.872 OA
ATOM     14  C   UNL     1      26.517 -16.513  -4.656  1.00  0.00     0.056 A 
ENDROOT
BRANCH   5  15
ATOM     15  C   UNL     1      28.342 -13.664  -7.171  1.00  0.00     0.017 A 
ATOM     16  C   UNL     1      28.115 -12.326  -7.251  1.00  0.00     0.012 A 
ATOM     17  C   UNL     1      29.377 -14.132  -7.998  1.00  0.00     0.012 A 
ATOM     18  C   UNL     1      28.836 -11.478  -8.077  1.00  0.00     0.001 A 
ATOM     19  C   UNL     1      30.102 -13.304  -8.824  1.00  0.00     0.001 A 
ATOM     20  C   UNL     1      29.840 -11.955  -8.875  1.00  0.00     0.000 A 
ENDBRANCH   5  15
TORSDOF 1
ENDMDL
