MODEL 1
REMARK VINA RESULT:     -10.1      0.000      0.000
REMARK SMILES O=c1cc(-c2ccccc2)oc2cc([O-])c(O)c([O-])c12
REMARK SMILES IDX 1 1 2 2 3 3 4 4 11 5 12 6 13 7 14 8 15 9 16 10 18 11 19 12
REMARK SMILES IDX 20 13 5 14 6 15 10 16 7 17 9 18 8 19 17 20
REMARK H PARENT 17 21
ROOT
ATOM      1  O   UNL     1       6.089  17.717  22.425  1.00  0.00    -0.289 OA
ATOM      2  C   UNL     1       5.097  18.043  21.727  1.00  0.00     0.192 A 
ATOM      3  C   UNL     1       4.068  17.144  21.430  1.00  0.00     0.100 A 
ATOM      4  C   UNL     1       2.980  17.480  20.671  1.00  0.00     0.138 A 
ATOM      5  O   UNL     1       2.948  18.720  20.223  1.00  0.00    -0.456 OA
ATOM      6  C   UNL     1       3.877  19.610  20.464  1.00  0.00     0.137 A 
ATOM      7  C   UNL     1       3.781  20.911  19.958  1.00  0.00     0.043 A 
ATOM      8  C   UNL     1       4.757  21.830  20.217  1.00  0.00    -0.063 A 
ATOM      9  O   UNL     1       4.607  23.108  19.686  1.00  0.00    -0.870 OA
ATOM     10  C   UNL     1       5.870  21.533  20.976  1.00  0.00     0.100 A 
ATOM     11  C   UNL     1       5.979  20.269  21.478  1.00  0.00    -0.051 A 
ATOM     12  O   UNL     1       7.087  19.957  22.240  1.00  0.00    -0.869 OA
ATOM     13  C   UNL     1       4.990  19.318  21.223  1.00  0.00     0.060 A 
ENDROOT
BRANCH   4  14
ATOM     14  C   UNL     1       1.925  16.529  20.376  1.00  0.00     0.017 A 
ATOM     15  C   UNL     1       1.785  15.307  20.973  1.00  0.00     0.012 A 
ATOM     16  C   UNL     1       0.969  16.869  19.414  1.00  0.00     0.012 A 
ATOM     17  C   UNL     1       0.736  14.441  20.635  1.00  0.00     0.001 A 
ATOM     18  C   UNL     1      -0.065  16.022  19.077  1.00  0.00     0.001 A 
ATOM     19  C   UNL     1      -0.195  14.794  19.685  1.00  0.00     0.000 A 
ENDBRANCH   4  14
BRANCH  10  20
ATOM     20  O   UNL     1       6.841  22.513  21.212  1.00  0.00    -0.509 OA
ATOM     21  H   UNL     1       7.522  22.355  21.957  1.00  0.00     0.293 HD
ENDBRANCH  10  20
TORSDOF 2
ENDMDL
MODEL 2
REMARK VINA RESULT:     -10.1      0.210      1.073
REMARK SMILES O=c1cc(-c2ccccc2)oc2cc([O-])c(O)c([O-])c12
REMARK SMILES IDX 1 1 2 2 3 3 4 4 11 5 12 6 13 7 14 8 15 9 16 10 18 11 19 12
REMARK SMILES IDX 20 13 5 14 6 15 10 16 7 17 9 18 8 19 17 20
REMARK H PARENT 17 21
ROOT
ATOM      1  O   UNL     1       5.888  17.753  22.330  1.00  0.00    -0.289 OA
ATOM      2  C   UNL     1       4.924  18.118  21.614  1.00  0.00     0.192 A 
ATOM      3  C   UNL     1       3.885  17.250  21.265  1.00  0.00     0.100 A 
ATOM      4  C   UNL     1       2.826  17.630  20.485  1.00  0.00     0.138 A 
ATOM      5  O   UNL     1       2.833  18.882  20.070  1.00  0.00    -0.456 OA
ATOM      6  C   UNL     1       3.773  19.744  20.360  1.00  0.00     0.137 A 
ATOM      7  C   UNL     1       3.719  21.060  19.886  1.00  0.00     0.043 A 
ATOM      8  C   UNL     1       4.707  21.950  20.196  1.00  0.00    -0.063 A 
ATOM      9  O   UNL     1       4.599  23.245  19.696  1.00  0.00    -0.870 OA
ATOM     10  C   UNL     1       5.791  21.610  20.978  1.00  0.00     0.100 A 
ATOM     11  C   UNL     1       5.859  20.331  21.449  1.00  0.00    -0.051 A 
ATOM     12  O   UNL     1       6.938  19.975  22.233  1.00  0.00    -0.869 OA
ATOM     13  C   UNL     1       4.858  19.409  21.141  1.00  0.00     0.060 A 
ENDROOT
BRANCH   4  14
ATOM     14  C   UNL     1       1.760  16.710  20.136  1.00  0.00     0.017 A 
ATOM     15  C   UNL     1       0.770  16.970  19.229  1.00  0.00     0.012 A 
ATOM     16  C   UNL     1       1.724  15.461  20.761  1.00  0.00     0.012 A 
ATOM     17  C   UNL     1      -0.229  16.029  18.943  1.00  0.00     0.001 A 
ATOM     18  C   UNL     1       0.745  14.531  20.484  1.00  0.00     0.001 A 
ATOM     19  C   UNL     1      -0.247  14.804  19.570  1.00  0.00     0.000 A 
ENDBRANCH   4  14
BRANCH  10  20
ATOM     20  O   UNL     1       6.776  22.562  21.266  1.00  0.00    -0.509 OA
ATOM     21  H   UNL     1       6.517  23.550  21.251  1.00  0.00     0.293 HD
ENDBRANCH  10  20
TORSDOF 2
ENDMDL
MODEL 3
REMARK VINA RESULT:     -10.0      2.220      6.975
REMARK SMILES O=c1cc(-c2ccccc2)oc2cc([O-])c(O)c([O-])c12
REMARK SMILES IDX 1 1 2 2 3 3 4 4 11 5 12 6 13 7 14 8 15 9 16 10 18 11 19 12
REMARK SMILES IDX 20 13 5 14 6 15 10 16 7 17 9 18 8 19 17 20
REMARK H PARENT 17 21
ROOT
ATOM      1  O   UNL     1       0.792  18.988  18.267  1.00  0.00    -0.289 OA
ATOM      2  C   UNL     1       1.686  18.715  19.105  1.00  0.00     0.192 A 
ATOM      3  C   UNL     1       2.703  19.619  19.431  1.00  0.00     0.100 A 
ATOM      4  C   UNL     1       3.685  19.339  20.342  1.00  0.00     0.138 A 
ATOM      5  O   UNL     1       3.625  18.151  20.911  1.00  0.00    -0.456 OA
ATOM      6  C   UNL     1       2.702  17.261  20.652  1.00  0.00     0.137 A 
ATOM      7  C   UNL     1       2.697  16.016  21.293  1.00  0.00     0.043 A 
ATOM      8  C   UNL     1       1.728  15.096  21.012  1.00  0.00    -0.063 A 
ATOM      9  O   UNL     1       1.775  13.875  21.681  1.00  0.00    -0.870 OA
ATOM     10  C   UNL     1       0.720  15.336  20.102  1.00  0.00     0.100 A 
ATOM     11  C   UNL     1       0.710  16.545  19.468  1.00  0.00    -0.051 A 
ATOM     12  O   UNL     1      -0.292  16.799  18.554  1.00  0.00    -0.869 OA
ATOM     13  C   UNL     1       1.693  17.496  19.742  1.00  0.00     0.060 A 
ENDROOT
BRANCH   4  14
ATOM     14  C   UNL     1       4.730  20.294  20.663  1.00  0.00     0.017 A 
ATOM     15  C   UNL     1       4.776  21.582  20.209  1.00  0.00     0.012 A 
ATOM     16  C   UNL     1       5.774  19.884  21.497  1.00  0.00     0.012 A 
ATOM     17  C   UNL     1       5.821  22.447  20.564  1.00  0.00     0.001 A 
ATOM     18  C   UNL     1       6.804  20.730  21.850  1.00  0.00     0.001 A 
ATOM     19  C   UNL     1       6.841  22.026  21.387  1.00  0.00     0.000 A 
ENDBRANCH   4  14
BRANCH  10  20
ATOM     20  O   UNL     1      -0.249  14.357  19.852  1.00  0.00    -0.509 OA
ATOM     21  H   UNL     1      -0.078  13.682  19.105  1.00  0.00     0.293 HD
ENDBRANCH  10  20
TORSDOF 2
ENDMDL
MODEL 4
REMARK VINA RESULT:     -10.0      2.235      6.901
REMARK SMILES O=c1cc(-c2ccccc2)oc2cc([O-])c(O)c([O-])c12
REMARK SMILES IDX 1 1 2 2 3 3 4 4 11 5 12 6 13 7 14 8 15 9 16 10 18 11 19 12
REMARK SMILES IDX 20 13 5 14 6 15 10 16 7 17 9 18 8 19 17 20
REMARK H PARENT 17 21
ROOT
ATOM      1  O   UNL     1       0.901  19.011  18.257  1.00  0.00    -0.289 OA
ATOM      2  C   UNL     1       1.762  18.709  19.119  1.00  0.00     0.192 A 
ATOM      3  C   UNL     1       2.792  19.582  19.483  1.00  0.00     0.100 A 
ATOM      4  C   UNL     1       3.739  19.270  20.419  1.00  0.00     0.138 A 
ATOM      5  O   UNL     1       3.632  18.079  20.975  1.00  0.00    -0.456 OA
ATOM      6  C   UNL     1       2.695  17.215  20.681  1.00  0.00     0.137 A 
ATOM      7  C   UNL     1       2.638  15.966  21.311  1.00  0.00     0.043 A 
ATOM      8  C   UNL     1       1.654  15.073  20.994  1.00  0.00    -0.063 A 
ATOM      9  O   UNL     1       1.650  13.847  21.653  1.00  0.00    -0.870 OA
ATOM     10  C   UNL     1       0.680  15.347  20.056  1.00  0.00     0.100 A 
ATOM     11  C   UNL     1       0.720  16.561  19.433  1.00  0.00    -0.051 A 
ATOM     12  O   UNL     1      -0.248  16.850  18.493  1.00  0.00    -0.869 OA
ATOM     13  C   UNL     1       1.719  17.484  19.745  1.00  0.00     0.060 A 
ENDROOT
BRANCH   4  14
ATOM     14  C   UNL     1       4.799  20.194  20.779  1.00  0.00     0.017 A 
ATOM     15  C   UNL     1       5.851  19.894  21.598  1.00  0.00     0.012 A 
ATOM     16  C   UNL     1       4.758  21.491  20.260  1.00  0.00     0.012 A 
ATOM     17  C   UNL     1       6.838  20.842  21.901  1.00  0.00     0.001 A 
ATOM     18  C   UNL     1       5.726  22.428  20.553  1.00  0.00     0.001 A 
ATOM     19  C   UNL     1       6.781  22.115  21.380  1.00  0.00     0.000 A 
ENDBRANCH   4  14
BRANCH  10  20
ATOM     20  O   UNL     1      -0.306  14.397  19.770  1.00  0.00    -0.509 OA
ATOM     21  H   UNL     1      -0.432  14.103  18.799  1.00  0.00     0.293 HD
ENDBRANCH  10  20
TORSDOF 2
ENDMDL
MODEL 5
REMARK VINA RESULT:      -9.9      1.034      2.587
REMARK SMILES O=c1cc(-c2ccccc2)oc2cc([O-])c(O)c([O-])c12
REMARK SMILES IDX 1 1 2 2 3 3 4 4 11 5 12 6 13 7 14 8 15 9 16 10 18 11 19 12
REMARK SMILES IDX 20 13 5 14 6 15 10 16 7 17 9 18 8 19 17 20
REMARK H PARENT 17 21
ROOT
ATOM      1  O   UNL     1       2.449  20.770  19.141  1.00  0.00    -0.289 OA
ATOM      2  C   UNL     1       2.874  19.782  19.789  1.00  0.00     0.192 A 
ATOM      3  C   UNL     1       2.173  18.573  19.850  1.00  0.00     0.100 A 
ATOM      4  C   UNL     1       2.620  17.486  20.550  1.00  0.00     0.138 A 
ATOM      5  O   UNL     1       3.770  17.636  21.180  1.00  0.00    -0.456 OA
ATOM      6  C   UNL     1       4.475  18.738  21.164  1.00  0.00     0.137 A 
ATOM      7  C   UNL     1       5.689  18.830  21.854  1.00  0.00     0.043 A 
ATOM      8  C   UNL     1       6.415  19.986  21.830  1.00  0.00    -0.063 A 
ATOM      9  O   UNL     1       7.614  20.018  22.536  1.00  0.00    -0.870 OA
ATOM     10  C   UNL     1       6.001  21.105  21.137  1.00  0.00     0.100 A 
ATOM     11  C   UNL     1       4.820  21.033  20.457  1.00  0.00    -0.051 A 
ATOM     12  O   UNL     1       4.393  22.144  19.759  1.00  0.00    -0.869 OA
ATOM     13  C   UNL     1       4.066  19.858  20.473  1.00  0.00     0.060 A 
ENDROOT
BRANCH   4  14
ATOM     14  C   UNL     1       1.874  16.242  20.598  1.00  0.00     0.017 A 
ATOM     15  C   UNL     1       2.126  15.214  21.463  1.00  0.00     0.012 A 
ATOM     16  C   UNL     1       0.815  16.064  19.703  1.00  0.00     0.012 A 
ATOM     17  C   UNL     1       1.360  14.040  21.449  1.00  0.00     0.001 A 
ATOM     18  C   UNL     1       0.058  14.913  19.685  1.00  0.00     0.001 A 
ATOM     19  C   UNL     1       0.321  13.883  20.560  1.00  0.00     0.000 A 
ENDBRANCH   4  14
BRANCH  10  20
ATOM     20  O   UNL     1       6.784  22.265  21.144  1.00  0.00    -0.509 OA
ATOM     21  H   UNL     1       7.277  22.514  22.004  1.00  0.00     0.293 HD
ENDBRANCH  10  20
TORSDOF 2
ENDMDL
MODEL 6
REMARK VINA RESULT:      -9.9      2.265      6.422
REMARK SMILES O=c1cc(-c2ccccc2)oc2cc([O-])c(O)c([O-])c12
REMARK SMILES IDX 1 1 2 2 3 3 4 4 11 5 12 6 13 7 14 8 15 9 16 10 18 11 19 12
REMARK SMILES IDX 20 13 5 14 6 15 10 16 7 17 9 18 8 19 17 20
REMARK H PARENT 17 21
ROOT
ATOM      1  O   UNL     1       3.663  15.048  22.208  1.00  0.00    -0.289 OA
ATOM      2  C   UNL     1       3.473  16.133  21.607  1.00  0.00     0.192 A 
ATOM      3  C   UNL     1       4.335  17.225  21.750  1.00  0.00     0.100 A 
ATOM      4  C   UNL     1       4.143  18.416  21.104  1.00  0.00     0.138 A 
ATOM      5  O   UNL     1       3.082  18.486  20.323  1.00  0.00    -0.456 OA
ATOM      6  C   UNL     1       2.237  17.504  20.146  1.00  0.00     0.137 A 
ATOM      7  C   UNL     1       1.130  17.645  19.300  1.00  0.00     0.043 A 
ATOM      8  C   UNL     1       0.256  16.611  19.124  1.00  0.00    -0.063 A 
ATOM      9  O   UNL     1      -0.827  16.811  18.272  1.00  0.00    -0.870 OA
ATOM     10  C   UNL     1       0.411  15.395  19.756  1.00  0.00     0.100 A 
ATOM     11  C   UNL     1       1.486  15.239  20.583  1.00  0.00    -0.051 A 
ATOM     12  O   UNL     1       1.654  14.028  21.222  1.00  0.00    -0.869 OA
ATOM     13  C   UNL     1       2.388  16.286  20.774  1.00  0.00     0.060 A 
ENDROOT
BRANCH   4  14
ATOM     14  C   UNL     1       5.052  19.535  21.268  1.00  0.00     0.017 A 
ATOM     15  C   UNL     1       6.160  19.530  22.068  1.00  0.00     0.012 A 
ATOM     16  C   UNL     1       4.792  20.715  20.564  1.00  0.00     0.012 A 
ATOM     17  C   UNL     1       6.993  20.653  22.176  1.00  0.00     0.001 A 
ATOM     18  C   UNL     1       5.607  21.822  20.665  1.00  0.00     0.001 A 
ATOM     19  C   UNL     1       6.721  21.806  21.475  1.00  0.00     0.000 A 
ENDBRANCH   4  14
BRANCH  10  20
ATOM     20  O   UNL     1      -0.515  14.368  19.540  1.00  0.00    -0.509 OA
ATOM     21  H   UNL     1      -1.144  14.111  20.303  1.00  0.00     0.293 HD
ENDBRANCH  10  20
TORSDOF 2
ENDMDL
MODEL 7
REMARK VINA RESULT:      -9.9      1.012      2.794
REMARK SMILES O=c1cc(-c2ccccc2)oc2cc([O-])c(O)c([O-])c12
REMARK SMILES IDX 1 1 2 2 3 3 4 4 11 5 12 6 13 7 14 8 15 9 16 10 18 11 19 12
REMARK SMILES IDX 20 13 5 14 6 15 10 16 7 17 9 18 8 19 17 20
REMARK H PARENT 17 21
ROOT
ATOM      1  O   UNL     1       2.421  20.901  19.182  1.00  0.00    -0.289 OA
ATOM      2  C   UNL     1       2.818  19.869  19.775  1.00  0.00     0.192 A 
ATOM      3  C   UNL     1       2.082  18.680  19.776  1.00  0.00     0.100 A 
ATOM      4  C   UNL     1       2.498  17.545  20.417  1.00  0.00     0.138 A 
ATOM      5  O   UNL     1       3.653  17.629  21.049  1.00  0.00    -0.456 OA
ATOM      6  C   UNL     1       4.390  18.709  21.089  1.00  0.00     0.137 A 
ATOM      7  C   UNL     1       5.608  18.729  21.779  1.00  0.00     0.043 A 
ATOM      8  C   UNL     1       6.367  19.863  21.812  1.00  0.00    -0.063 A 
ATOM      9  O   UNL     1       7.568  19.823  22.514  1.00  0.00    -0.870 OA
ATOM     10  C   UNL     1       5.986  21.028  21.179  1.00  0.00     0.100 A 
ATOM     11  C   UNL     1       4.801  21.026  20.501  1.00  0.00    -0.051 A 
ATOM     12  O   UNL     1       4.406  22.184  19.863  1.00  0.00    -0.869 OA
ATOM     13  C   UNL     1       4.013  19.875  20.458  1.00  0.00     0.060 A 
ENDROOT
BRANCH   4  14
ATOM     14  C   UNL     1       1.716  16.323  20.403  1.00  0.00     0.017 A 
ATOM     15  C   UNL     1       0.676  16.072  19.553  1.00  0.00     0.012 A 
ATOM     16  C   UNL     1       2.035  15.316  21.319  1.00  0.00     0.012 A 
ATOM     17  C   UNL     1      -0.034  14.864  19.599  1.00  0.00     0.001 A 
ATOM     18  C   UNL     1       1.341  14.126  21.369  1.00  0.00     0.001 A 
ATOM     19  C   UNL     1       0.295  13.884  20.508  1.00  0.00     0.000 A 
ENDBRANCH   4  14
BRANCH  10  20
ATOM     20  O   UNL     1       6.802  22.163  21.244  1.00  0.00    -0.509 OA
ATOM     21  H   UNL     1       7.758  22.096  20.890  1.00  0.00     0.293 HD
ENDBRANCH  10  20
TORSDOF 2
ENDMDL
MODEL 8
REMARK VINA RESULT:      -9.8      2.108      6.463
REMARK SMILES O=c1cc(-c2ccccc2)oc2cc([O-])c(O)c([O-])c12
REMARK SMILES IDX 1 1 2 2 3 3 4 4 11 5 12 6 13 7 14 8 15 9 16 10 18 11 19 12
REMARK SMILES IDX 20 13 5 14 6 15 10 16 7 17 9 18 8 19 17 20
REMARK H PARENT 17 21
ROOT
ATOM      1  O   UNL     1       4.010  16.072  22.026  1.00  0.00    -0.289 OA
ATOM      2  C   UNL     1       3.672  17.065  21.337  1.00  0.00     0.192 A 
ATOM      3  C   UNL     1       4.423  18.244  21.310  1.00  0.00     0.100 A 
ATOM      4  C   UNL     1       4.070  19.337  20.566  1.00  0.00     0.138 A 
ATOM      5  O   UNL     1       2.963  19.222  19.860  1.00  0.00    -0.456 OA
ATOM      6  C   UNL     1       2.214  18.149  19.840  1.00  0.00     0.137 A 
ATOM      7  C   UNL     1       1.049  18.094  19.066  1.00  0.00     0.043 A 
ATOM      8  C   UNL     1       0.276  16.968  19.055  1.00  0.00    -0.063 A 
ATOM      9  O   UNL     1      -0.871  16.972  18.267  1.00  0.00    -0.870 OA
ATOM     10  C   UNL     1       0.595  15.845  19.790  1.00  0.00     0.100 A 
ATOM     11  C   UNL     1       1.729  15.881  20.550  1.00  0.00    -0.051 A 
ATOM     12  O   UNL     1       2.060  14.765  21.291  1.00  0.00    -0.869 OA
ATOM     13  C   UNL     1       2.528  17.025  20.572  1.00  0.00     0.060 A 
ENDROOT
BRANCH   4  14
ATOM     14  C   UNL     1       4.867  20.549  20.555  1.00  0.00     0.017 A 
ATOM     15  C   UNL     1       4.417  21.775  20.152  1.00  0.00     0.012 A 
ATOM     16  C   UNL     1       6.196  20.479  20.984  1.00  0.00     0.012 A 
ATOM     17  C   UNL     1       5.249  22.904  20.170  1.00  0.00     0.001 A 
ATOM     18  C   UNL     1       7.019  21.585  21.004  1.00  0.00     0.001 A 
ATOM     19  C   UNL     1       6.554  22.815  20.596  1.00  0.00     0.000 A 
ENDBRANCH   4  14
BRANCH  10  20
ATOM     20  O   UNL     1      -0.231  14.716  19.742  1.00  0.00    -0.509 OA
ATOM     21  H   UNL     1      -0.768  14.542  18.891  1.00  0.00     0.293 HD
ENDBRANCH  10  20
TORSDOF 2
ENDMDL
MODEL 9
REMARK VINA RESULT:      -9.7      2.031      6.365
REMARK SMILES O=c1cc(-c2ccccc2)oc2cc([O-])c(O)c([O-])c12
REMARK SMILES IDX 1 1 2 2 3 3 4 4 11 5 12 6 13 7 14 8 15 9 16 10 18 11 19 12
REMARK SMILES IDX 20 13 5 14 6 15 10 16 7 17 9 18 8 19 17 20
REMARK H PARENT 17 21
ROOT
ATOM      1  O   UNL     1       4.127  16.301  22.131  1.00  0.00    -0.289 OA
ATOM      2  C   UNL     1       3.817  17.281  21.410  1.00  0.00     0.192 A 
ATOM      3  C   UNL     1       4.588  18.447  21.366  1.00  0.00     0.100 A 
ATOM      4  C   UNL     1       4.265  19.525  20.586  1.00  0.00     0.138 A 
ATOM      5  O   UNL     1       3.169  19.408  19.863  1.00  0.00    -0.456 OA
ATOM      6  C   UNL     1       2.404  18.347  19.859  1.00  0.00     0.137 A 
ATOM      7  C   UNL     1       1.252  18.289  19.066  1.00  0.00     0.043 A 
ATOM      8  C   UNL     1       0.461  17.175  19.071  1.00  0.00    -0.063 A 
ATOM      9  O   UNL     1      -0.672  17.176  18.262  1.00  0.00    -0.870 OA
ATOM     10  C   UNL     1       0.749  16.067  19.841  1.00  0.00     0.100 A 
ATOM     11  C   UNL     1       1.869  16.107  20.620  1.00  0.00    -0.051 A 
ATOM     12  O   UNL     1       2.170  15.006  21.396  1.00  0.00    -0.869 OA
ATOM     13  C   UNL     1       2.687  17.238  20.626  1.00  0.00     0.060 A 
ENDROOT
BRANCH   4  14
ATOM     14  C   UNL     1       5.082  20.724  20.557  1.00  0.00     0.017 A 
ATOM     15  C   UNL     1       6.416  20.768  20.852  1.00  0.00     0.012 A 
ATOM     16  C   UNL     1       4.478  21.934  20.203  1.00  0.00     0.012 A 
ATOM     17  C   UNL     1       7.139  21.968  20.802  1.00  0.00     0.001 A 
ATOM     18  C   UNL     1       5.183  23.117  20.151  1.00  0.00     0.001 A 
ATOM     19  C   UNL     1       6.527  23.149  20.450  1.00  0.00     0.000 A 
ENDBRANCH   4  14
BRANCH  10  20
ATOM     20  O   UNL     1      -0.095  14.951  19.808  1.00  0.00    -0.509 OA
ATOM     21  H   UNL     1      -0.475  14.655  18.908  1.00  0.00     0.293 HD
ENDBRANCH  10  20
TORSDOF 2
ENDMDL
