MODEL 1
REMARK VINA RESULT:     -10.8      0.000      0.000
REMARK SMILES O=c1c([O-])c(-c2ccccc2)oc2cc([O-])cc([O-])c12
REMARK SMILES IDX 1 1 2 2 3 3 4 4 5 5 12 6 13 7 14 8 15 9 16 10 17 11 18 12
REMARK SMILES IDX 19 13 20 14 6 15 7 16 11 17 8 18 10 19 9 20
REMARK H PARENT
ROOT
ATOM      1  O   UNL     1       1.988  15.271  21.139  1.00  0.00    -0.290 OA
ATOM      2  C   UNL     1       2.133  16.420  20.672  1.00  0.00     0.184 A 
ATOM      3  C   UNL     1       3.279  17.130  21.090  1.00  0.00    -0.014 A 
ATOM      4  O   UNL     1       4.155  16.546  21.963  1.00  0.00    -0.867 OA
ATOM      5  C   UNL     1       3.466  18.387  20.596  1.00  0.00     0.130 A 
ATOM      6  O   UNL     1       2.554  18.892  19.740  1.00  0.00    -0.457 OA
ATOM      7  C   UNL     1       1.512  18.255  19.356  1.00  0.00     0.137 A 
ATOM      8  C   UNL     1       0.624  18.822  18.483  1.00  0.00     0.039 A 
ATOM      9  C   UNL     1      -0.507  18.165  18.049  1.00  0.00    -0.106 A 
ATOM     10  O   UNL     1      -1.394  18.771  17.158  1.00  0.00    -0.872 OA
ATOM     11  C   UNL     1      -0.754  16.873  18.518  1.00  0.00    -0.016 A 
ATOM     12  C   UNL     1       0.115  16.275  19.394  1.00  0.00    -0.094 A 
ATOM     13  O   UNL     1      -0.137  15.000  19.852  1.00  0.00    -0.872 OA
ATOM     14  C   UNL     1       1.228  16.972  19.795  1.00  0.00     0.056 A 
ENDROOT
BRANCH   5  15
ATOM     15  C   UNL     1       4.604  19.215  20.952  1.00  0.00     0.017 A 
ATOM     16  C   UNL     1       5.585  18.940  21.850  1.00  0.00     0.012 A 
ATOM     17  C   UNL     1       4.733  20.456  20.305  1.00  0.00     0.012 A 
ATOM     18  C   UNL     1       6.637  19.803  22.119  1.00  0.00     0.001 A 
ATOM     19  C   UNL     1       5.771  21.324  20.560  1.00  0.00     0.001 A 
ATOM     20  C   UNL     1       6.745  21.007  21.478  1.00  0.00     0.000 A 
ENDBRANCH   5  15
TORSDOF 1
ENDMDL
MODEL 2
REMARK VINA RESULT:     -10.7      1.244      3.232
REMARK SMILES O=c1c([O-])c(-c2ccccc2)oc2cc([O-])cc([O-])c12
REMARK SMILES IDX 1 1 2 2 3 3 4 4 5 5 12 6 13 7 14 8 15 9 16 10 17 11 18 12
REMARK SMILES IDX 19 13 20 14 6 15 7 16 11 17 8 18 10 19 9 20
REMARK H PARENT
ROOT
ATOM      1  O   UNL     1       0.534  18.657  18.393  1.00  0.00    -0.290 OA
ATOM      2  C   UNL     1       1.399  18.279  19.210  1.00  0.00     0.184 A 
ATOM      3  C   UNL     1       2.441  19.188  19.489  1.00  0.00    -0.014 A 
ATOM      4  O   UNL     1       2.459  20.407  18.869  1.00  0.00    -0.867 OA
ATOM      5  C   UNL     1       3.402  18.805  20.378  1.00  0.00     0.130 A 
ATOM      6  O   UNL     1       3.313  17.585  20.946  1.00  0.00    -0.457 OA
ATOM      7  C   UNL     1       2.371  16.754  20.699  1.00  0.00     0.137 A 
ATOM      8  C   UNL     1       2.336  15.530  21.309  1.00  0.00     0.039 A 
ATOM      9  C   UNL     1       1.337  14.612  21.067  1.00  0.00    -0.106 A 
ATOM     10  O   UNL     1       1.330  13.371  21.705  1.00  0.00    -0.872 OA
ATOM     11  C   UNL     1       0.324  14.946  20.166  1.00  0.00    -0.016 A 
ATOM     12  C   UNL     1       0.328  16.164  19.537  1.00  0.00    -0.094 A 
ATOM     13  O   UNL     1      -0.676  16.484  18.649  1.00  0.00    -0.872 OA
ATOM     14  C   UNL     1       1.345  17.043  19.813  1.00  0.00     0.056 A 
ENDROOT
BRANCH   5  15
ATOM     15  C   UNL     1       4.523  19.651  20.744  1.00  0.00     0.017 A 
ATOM     16  C   UNL     1       4.790  20.913  20.315  1.00  0.00     0.012 A 
ATOM     17  C   UNL     1       5.462  19.131  21.652  1.00  0.00     0.012 A 
ATOM     18  C   UNL     1       5.894  21.642  20.728  1.00  0.00     0.001 A 
ATOM     19  C   UNL     1       6.563  19.842  22.072  1.00  0.00     0.001 A 
ATOM     20  C   UNL     1       6.797  21.117  21.612  1.00  0.00     0.000 A 
ENDBRANCH   5  15
TORSDOF 1
ENDMDL
MODEL 3
REMARK VINA RESULT:     -10.6      1.022      1.236
REMARK SMILES O=c1c([O-])c(-c2ccccc2)oc2cc([O-])cc([O-])c12
REMARK SMILES IDX 1 1 2 2 3 3 4 4 5 5 12 6 13 7 14 8 15 9 16 10 17 11 18 12
REMARK SMILES IDX 19 13 20 14 6 15 7 16 11 17 8 18 10 19 9 20
REMARK H PARENT
ROOT
ATOM      1  O   UNL     1       3.300  15.311  21.964  1.00  0.00    -0.290 OA
ATOM      2  C   UNL     1       3.079  16.361  21.326  1.00  0.00     0.184 A 
ATOM      3  C   UNL     1       4.016  17.403  21.483  1.00  0.00    -0.014 A 
ATOM      4  O   UNL     1       5.096  17.224  22.304  1.00  0.00    -0.867 OA
ATOM      5  C   UNL     1       3.802  18.563  20.798  1.00  0.00     0.130 A 
ATOM      6  O   UNL     1       2.712  18.661  20.010  1.00  0.00    -0.457 OA
ATOM      7  C   UNL     1       1.857  17.720  19.861  1.00  0.00     0.137 A 
ATOM      8  C   UNL     1       0.771  17.881  19.045  1.00  0.00     0.039 A 
ATOM      9  C   UNL     1      -0.169  16.889  18.862  1.00  0.00    -0.106 A 
ATOM     10  O   UNL     1      -1.266  17.084  18.022  1.00  0.00    -0.872 OA
ATOM     11  C   UNL     1      -0.005  15.677  19.536  1.00  0.00    -0.016 A 
ATOM     12  C   UNL     1       1.071  15.483  20.362  1.00  0.00    -0.094 A 
ATOM     13  O   UNL     1       1.225  14.284  21.024  1.00  0.00    -0.872 OA
ATOM     14  C   UNL     1       1.980  16.502  20.510  1.00  0.00     0.056 A 
ENDROOT
BRANCH   5  15
ATOM     15  C   UNL     1       4.694  19.705  20.879  1.00  0.00     0.017 A 
ATOM     16  C   UNL     1       5.856  19.807  21.577  1.00  0.00     0.012 A 
ATOM     17  C   UNL     1       4.342  20.859  20.158  1.00  0.00     0.012 A 
ATOM     18  C   UNL     1       6.642  20.950  21.588  1.00  0.00     0.001 A 
ATOM     19  C   UNL     1       5.110  22.001  20.158  1.00  0.00     0.001 A 
ATOM     20  C   UNL     1       6.280  22.062  20.879  1.00  0.00     0.000 A 
ENDBRANCH   5  15
TORSDOF 1
ENDMDL
MODEL 4
REMARK VINA RESULT:     -10.5      1.944      5.869
REMARK SMILES O=c1c([O-])c(-c2ccccc2)oc2cc([O-])cc([O-])c12
REMARK SMILES IDX 1 1 2 2 3 3 4 4 5 5 12 6 13 7 14 8 15 9 16 10 17 11 18 12
REMARK SMILES IDX 19 13 20 14 6 15 7 16 11 17 8 18 10 19 9 20
REMARK H PARENT
ROOT
ATOM      1  O   UNL     1       5.994  17.663  22.386  1.00  0.00    -0.290 OA
ATOM      2  C   UNL     1       5.042  18.058  21.682  1.00  0.00     0.184 A 
ATOM      3  C   UNL     1       4.038  17.110  21.391  1.00  0.00    -0.014 A 
ATOM      4  O   UNL     1       4.150  15.837  21.878  1.00  0.00    -0.867 OA
ATOM      5  C   UNL     1       2.984  17.511  20.625  1.00  0.00     0.130 A 
ATOM      6  O   UNL     1       2.949  18.785  20.182  1.00  0.00    -0.457 OA
ATOM      7  C   UNL     1       3.855  19.652  20.442  1.00  0.00     0.137 A 
ATOM      8  C   UNL     1       3.761  20.930  19.964  1.00  0.00     0.039 A 
ATOM      9  C   UNL     1       4.718  21.888  20.223  1.00  0.00    -0.106 A 
ATOM     10  O   UNL     1       4.593  23.184  19.721  1.00  0.00    -0.872 OA
ATOM     11  C   UNL     1       5.822  21.538  21.004  1.00  0.00    -0.016 A 
ATOM     12  C   UNL     1       5.947  20.266  21.498  1.00  0.00    -0.094 A 
ATOM     13  O   UNL     1       7.041  19.930  22.267  1.00  0.00    -0.872 OA
ATOM     14  C   UNL     1       4.967  19.349  21.211  1.00  0.00     0.056 A 
ENDROOT
BRANCH   5  15
ATOM     15  C   UNL     1       1.892  16.628  20.258  1.00  0.00     0.017 A 
ATOM     16  C   UNL     1       1.603  15.404  20.771  1.00  0.00     0.012 A 
ATOM     17  C   UNL     1       1.010  17.066  19.255  1.00  0.00     0.012 A 
ATOM     18  C   UNL     1       0.528  14.635  20.350  1.00  0.00     0.001 A 
ATOM     19  C   UNL     1      -0.061  16.315  18.826  1.00  0.00     0.001 A 
ATOM     20  C   UNL     1      -0.319  15.079  19.372  1.00  0.00     0.000 A 
ENDBRANCH   5  15
TORSDOF 1
ENDMDL
MODEL 5
REMARK VINA RESULT:     -10.5      0.224      1.061
REMARK SMILES O=c1c([O-])c(-c2ccccc2)oc2cc([O-])cc([O-])c12
REMARK SMILES IDX 1 1 2 2 3 3 4 4 5 5 12 6 13 7 14 8 15 9 16 10 17 11 18 12
REMARK SMILES IDX 19 13 20 14 6 15 7 16 11 17 8 18 10 19 9 20
REMARK H PARENT
ROOT
ATOM      1  O   UNL     1       1.913  15.374  20.973  1.00  0.00    -0.290 OA
ATOM      2  C   UNL     1       2.039  16.526  20.508  1.00  0.00     0.184 A 
ATOM      3  C   UNL     1       3.183  17.246  20.913  1.00  0.00    -0.014 A 
ATOM      4  O   UNL     1       4.077  16.668  21.771  1.00  0.00    -0.867 OA
ATOM      5  C   UNL     1       3.349  18.508  20.422  1.00  0.00     0.130 A 
ATOM      6  O   UNL     1       2.420  19.006  19.580  1.00  0.00    -0.457 OA
ATOM      7  C   UNL     1       1.380  18.359  19.208  1.00  0.00     0.137 A 
ATOM      8  C   UNL     1       0.474  18.921  18.351  1.00  0.00     0.039 A 
ATOM      9  C   UNL     1      -0.657  18.253  17.930  1.00  0.00    -0.106 A 
ATOM     10  O   UNL     1      -1.562  18.853  17.055  1.00  0.00    -0.872 OA
ATOM     11  C   UNL     1      -0.883  16.957  18.397  1.00  0.00    -0.016 A 
ATOM     12  C   UNL     1       0.005  16.365  19.258  1.00  0.00    -0.094 A 
ATOM     13  O   UNL     1      -0.227  15.085  19.714  1.00  0.00    -0.872 OA
ATOM     14  C   UNL     1       1.115  17.072  19.646  1.00  0.00     0.056 A 
ENDROOT
BRANCH   5  15
ATOM     15  C   UNL     1       4.484  19.347  20.765  1.00  0.00     0.017 A 
ATOM     16  C   UNL     1       4.839  20.534  20.208  1.00  0.00     0.012 A 
ATOM     17  C   UNL     1       5.333  18.904  21.793  1.00  0.00     0.012 A 
ATOM     18  C   UNL     1       5.948  21.263  20.611  1.00  0.00     0.001 A 
ATOM     19  C   UNL     1       6.437  19.615  22.204  1.00  0.00     0.001 A 
ATOM     20  C   UNL     1       6.762  20.814  21.614  1.00  0.00     0.000 A 
ENDBRANCH   5  15
TORSDOF 1
ENDMDL
MODEL 6
REMARK VINA RESULT:     -10.4      0.933      1.485
REMARK SMILES O=c1c([O-])c(-c2ccccc2)oc2cc([O-])cc([O-])c12
REMARK SMILES IDX 1 1 2 2 3 3 4 4 5 5 12 6 13 7 14 8 15 9 16 10 17 11 18 12
REMARK SMILES IDX 19 13 20 14 6 15 7 16 11 17 8 18 10 19 9 20
REMARK H PARENT
ROOT
ATOM      1  O   UNL     1       3.147  15.255  21.923  1.00  0.00    -0.290 OA
ATOM      2  C   UNL     1       2.973  16.313  21.283  1.00  0.00     0.184 A 
ATOM      3  C   UNL     1       3.937  17.326  21.466  1.00  0.00    -0.014 A 
ATOM      4  O   UNL     1       4.990  17.111  22.312  1.00  0.00    -0.867 OA
ATOM      5  C   UNL     1       3.775  18.494  20.781  1.00  0.00     0.130 A 
ATOM      6  O   UNL     1       2.708  18.627  19.967  1.00  0.00    -0.457 OA
ATOM      7  C   UNL     1       1.828  17.713  19.794  1.00  0.00     0.137 A 
ATOM      8  C   UNL     1       0.767  17.909  18.952  1.00  0.00     0.039 A 
ATOM      9  C   UNL     1      -0.198  16.947  18.744  1.00  0.00    -0.106 A 
ATOM     10  O   UNL     1      -1.268  17.178  17.879  1.00  0.00    -0.872 OA
ATOM     11  C   UNL     1      -0.087  15.729  19.417  1.00  0.00    -0.016 A 
ATOM     12  C   UNL     1       0.963  15.500  20.268  1.00  0.00    -0.094 A 
ATOM     13  O   UNL     1       1.064  14.294  20.929  1.00  0.00    -0.872 OA
ATOM     14  C   UNL     1       1.898  16.490  20.441  1.00  0.00     0.056 A 
ENDROOT
BRANCH   5  15
ATOM     15  C   UNL     1       4.699  19.608  20.887  1.00  0.00     0.017 A 
ATOM     16  C   UNL     1       4.615  20.821  20.280  1.00  0.00     0.012 A 
ATOM     17  C   UNL     1       5.825  19.444  21.711  1.00  0.00     0.012 A 
ATOM     18  C   UNL     1       5.556  21.826  20.448  1.00  0.00     0.001 A 
ATOM     19  C   UNL     1       6.768  20.430  21.890  1.00  0.00     0.001 A 
ATOM     20  C   UNL     1       6.645  21.645  21.255  1.00  0.00     0.000 A 
ENDBRANCH   5  15
TORSDOF 1
ENDMDL
MODEL 7
REMARK VINA RESULT:     -10.2      1.917      6.447
REMARK SMILES O=c1c([O-])c(-c2ccccc2)oc2cc([O-])cc([O-])c12
REMARK SMILES IDX 1 1 2 2 3 3 4 4 5 5 12 6 13 7 14 8 15 9 16 10 17 11 18 12
REMARK SMILES IDX 19 13 20 14 6 15 7 16 11 17 8 18 10 19 9 20
REMARK H PARENT
ROOT
ATOM      1  O   UNL     1       2.382  20.811  19.037  1.00  0.00    -0.290 OA
ATOM      2  C   UNL     1       2.811  19.833  19.684  1.00  0.00     0.184 A 
ATOM      3  C   UNL     1       2.014  18.669  19.670  1.00  0.00    -0.014 A 
ATOM      4  O   UNL     1       0.840  18.663  18.969  1.00  0.00    -0.867 OA
ATOM      5  C   UNL     1       2.456  17.584  20.367  1.00  0.00     0.130 A 
ATOM      6  O   UNL     1       3.626  17.672  21.034  1.00  0.00    -0.457 OA
ATOM      7  C   UNL     1       4.355  18.724  21.053  1.00  0.00     0.137 A 
ATOM      8  C   UNL     1       5.533  18.750  21.748  1.00  0.00     0.039 A 
ATOM      9  C   UNL     1       6.342  19.864  21.789  1.00  0.00    -0.106 A 
ATOM     10  O   UNL     1       7.538  19.859  22.508  1.00  0.00    -0.872 OA
ATOM     11  C   UNL     1       5.944  21.008  21.094  1.00  0.00    -0.016 A 
ATOM     12  C   UNL     1       4.769  21.016  20.387  1.00  0.00    -0.094 A 
ATOM     13  O   UNL     1       4.384  22.150  19.705  1.00  0.00    -0.872 OA
ATOM     14  C   UNL     1       3.999  19.880  20.378  1.00  0.00     0.056 A 
ENDROOT
BRANCH   5  15
ATOM     15  C   UNL     1       1.725  16.331  20.429  1.00  0.00     0.017 A 
ATOM     16  C   UNL     1       0.696  15.928  19.639  1.00  0.00     0.012 A 
ATOM     17  C   UNL     1       2.105  15.404  21.414  1.00  0.00     0.012 A 
ATOM     18  C   UNL     1       0.061  14.703  19.778  1.00  0.00     0.001 A 
ATOM     19  C   UNL     1       1.485  14.184  21.566  1.00  0.00     0.001 A 
ATOM     20  C   UNL     1       0.446  13.815  20.744  1.00  0.00     0.000 A 
ENDBRANCH   5  15
TORSDOF 1
ENDMDL
MODEL 8
REMARK VINA RESULT:     -10.2      2.009      5.959
REMARK SMILES O=c1c([O-])c(-c2ccccc2)oc2cc([O-])cc([O-])c12
REMARK SMILES IDX 1 1 2 2 3 3 4 4 5 5 12 6 13 7 14 8 15 9 16 10 17 11 18 12
REMARK SMILES IDX 19 13 20 14 6 15 7 16 11 17 8 18 10 19 9 20
REMARK H PARENT
ROOT
ATOM      1  O   UNL     1       6.108  17.840  22.254  1.00  0.00    -0.290 OA
ATOM      2  C   UNL     1       5.115  18.211  21.593  1.00  0.00     0.184 A 
ATOM      3  C   UNL     1       4.125  17.237  21.345  1.00  0.00    -0.014 A 
ATOM      4  O   UNL     1       4.291  15.967  21.824  1.00  0.00    -0.867 OA
ATOM      5  C   UNL     1       3.028  17.611  20.626  1.00  0.00     0.130 A 
ATOM      6  O   UNL     1       2.941  18.884  20.188  1.00  0.00    -0.457 OA
ATOM      7  C   UNL     1       3.835  19.774  20.409  1.00  0.00     0.137 A 
ATOM      8  C   UNL     1       3.687  21.050  19.938  1.00  0.00     0.039 A 
ATOM      9  C   UNL     1       4.629  22.032  20.157  1.00  0.00    -0.106 A 
ATOM     10  O   UNL     1       4.448  23.324  19.663  1.00  0.00    -0.872 OA
ATOM     11  C   UNL     1       5.775  21.711  20.888  1.00  0.00    -0.016 A 
ATOM     12  C   UNL     1       5.954  20.442  21.374  1.00  0.00    -0.094 A 
ATOM     13  O   UNL     1       7.089  20.134  22.094  1.00  0.00    -0.872 OA
ATOM     14  C   UNL     1       4.986  19.500  21.129  1.00  0.00     0.056 A 
ENDROOT
BRANCH   5  15
ATOM     15  C   UNL     1       1.944  16.700  20.305  1.00  0.00     0.017 A 
ATOM     16  C   UNL     1       0.953  16.874  19.392  1.00  0.00     0.012 A 
ATOM     17  C   UNL     1       1.888  15.484  21.006  1.00  0.00     0.012 A 
ATOM     18  C   UNL     1      -0.041  15.936  19.158  1.00  0.00     0.001 A 
ATOM     19  C   UNL     1       0.908  14.543  20.787  1.00  0.00     0.001 A 
ATOM     20  C   UNL     1      -0.078  14.758  19.852  1.00  0.00     0.000 A 
ENDBRANCH   5  15
TORSDOF 1
ENDMDL
MODEL 9
REMARK VINA RESULT:     -10.2      1.273      3.035
REMARK SMILES O=c1c([O-])c(-c2ccccc2)oc2cc([O-])cc([O-])c12
REMARK SMILES IDX 1 1 2 2 3 3 4 4 5 5 12 6 13 7 14 8 15 9 16 10 17 11 18 12
REMARK SMILES IDX 19 13 20 14 6 15 7 16 11 17 8 18 10 19 9 20
REMARK H PARENT
ROOT
ATOM      1  O   UNL     1       0.706  18.769  18.432  1.00  0.00    -0.290 OA
ATOM      2  C   UNL     1       1.539  18.335  19.255  1.00  0.00     0.184 A 
ATOM      3  C   UNL     1       2.604  19.198  19.586  1.00  0.00    -0.014 A 
ATOM      4  O   UNL     1       2.677  20.436  19.009  1.00  0.00    -0.867 OA
ATOM      5  C   UNL     1       3.531  18.753  20.483  1.00  0.00     0.130 A 
ATOM      6  O   UNL     1       3.388  17.518  21.007  1.00  0.00    -0.457 OA
ATOM      7  C   UNL     1       2.424  16.729  20.711  1.00  0.00     0.137 A 
ATOM      8  C   UNL     1       2.335  15.487  21.279  1.00  0.00     0.039 A 
ATOM      9  C   UNL     1       1.312  14.612  20.984  1.00  0.00    -0.106 A 
ATOM     10  O   UNL     1       1.249  13.352  21.579  1.00  0.00    -0.872 OA
ATOM     11  C   UNL     1       0.331  15.010  20.073  1.00  0.00    -0.016 A 
ATOM     12  C   UNL     1       0.391  16.248  19.486  1.00  0.00    -0.094 A 
ATOM     13  O   UNL     1      -0.582  16.632  18.587  1.00  0.00    -0.872 OA
ATOM     14  C   UNL     1       1.430  17.082  19.814  1.00  0.00     0.056 A 
ENDROOT
BRANCH   5  15
ATOM     15  C   UNL     1       4.671  19.548  20.902  1.00  0.00     0.017 A 
ATOM     16  C   UNL     1       5.650  19.202  21.778  1.00  0.00     0.012 A 
ATOM     17  C   UNL     1       4.806  20.834  20.351  1.00  0.00     0.012 A 
ATOM     18  C   UNL     1       6.705  20.038  22.113  1.00  0.00     0.001 A 
ATOM     19  C   UNL     1       5.846  21.676  20.673  1.00  0.00     0.001 A 
ATOM     20  C   UNL     1       6.817  21.286  21.566  1.00  0.00     0.000 A 
ENDBRANCH   5  15
TORSDOF 1
ENDMDL
