MODEL 1
REMARK VINA RESULT:      -7.6      0.000      0.000
REMARK SMILES O=C1NCN(c2ccccc2)C12CC[NH+](CCCC(c1ccc(F)cc1)c1ccc(F)cc1)CC2
REMARK SMILES IDX 17 1 16 2 15 3 1 4 2 5 3 6 12 7 4 8 5 9 13 10 35 11 14 12
REMARK SMILES IDX 34 13 6 16 7 17 11 18 8 19 10 20 9 21 18 22 19 23 20 24
REMARK SMILES IDX 21 25 26 26 22 27 25 28 23 29 24 30 27 31 28 32 33 33 29 34
REMARK SMILES IDX 32 35 30 36 31 37
REMARK H PARENT 3 14 15 15
ROOT
ATOM      1  C   UNL     1     -43.884  -7.354 138.519  1.00  0.00     0.062 C 
ENDROOT
BRANCH   1   2
ATOM      2  C   UNL     1     -43.282  -6.018 138.197  1.00  0.00     0.262 C 
BRANCH   2   3
ATOM      3  N   UNL     1     -43.581  -5.652 136.817  1.00  0.00    -0.335 N 
ATOM      4  O   UNL     1     -44.391  -6.677 133.864  1.00  0.00    -0.272 OA
ATOM      5  C   UNL     1     -44.089  -5.543 133.438  1.00  0.00     0.247 C 
ATOM      6  N   UNL     1     -44.169  -5.155 132.089  1.00  0.00    -0.336 N 
ATOM      7  C   UNL     1     -43.589  -4.394 134.284  1.00  0.00     0.131 C 
ATOM      8  C   UNL     1     -44.198  -3.726 132.085  1.00  0.00     0.238 C 
ATOM      9  N   UNL     1     -43.417  -3.351 133.275  1.00  0.00    -0.339 N 
ATOM     10  C   UNL     1     -42.275  -4.797 134.921  1.00  0.00     0.100 C 
ATOM     11  C   UNL     1     -44.633  -4.090 135.298  1.00  0.00     0.100 C 
ATOM     12  C   UNL     1     -42.469  -5.908 135.926  1.00  0.00     0.265 C 
ATOM     13  C   UNL     1     -44.097  -4.316 136.674  1.00  0.00     0.265 C 
ATOM     14  H   UNL     1     -44.200  -5.811 131.262  1.00  0.00     0.165 HD
ATOM     15  H   UNL     1     -44.345  -6.307 136.541  1.00  0.00     0.348 HD
BRANCH   9  16
ATOM     16  C   UNL     1     -42.653  -2.158 133.303  1.00  0.00     0.039 A 
ATOM     17  C   UNL     1     -41.657  -1.931 132.383  1.00  0.00     0.026 A 
ATOM     18  C   UNL     1     -42.918  -1.208 134.242  1.00  0.00     0.026 A 
ATOM     19  C   UNL     1     -40.911  -0.748 132.388  1.00  0.00     0.002 A 
ATOM     20  C   UNL     1     -42.199  -0.045 134.265  1.00  0.00     0.002 A 
ATOM     21  C   UNL     1     -41.205   0.192 133.352  1.00  0.00     0.000 A 
ENDBRANCH   9  16
ENDBRANCH   2   3
ENDBRANCH   1   2
BRANCH   1  22
ATOM     22  C   UNL     1     -42.985  -8.514 138.503  1.00  0.00     0.019 C 
BRANCH  22  23
ATOM     23  C   UNL     1     -42.423  -9.095 139.715  1.00  0.00     0.049 C 
BRANCH  23  24
ATOM     24  C   UNL     1     -42.210  -8.137 140.858  1.00  0.00    -0.040 A 
ATOM     25  C   UNL     1     -41.124  -7.296 140.764  1.00  0.00     0.007 A 
ATOM     26  C   UNL     1     -43.027  -8.106 141.957  1.00  0.00     0.007 A 
ATOM     27  C   UNL     1     -40.848  -6.411 141.775  1.00  0.00     0.039 A 
ATOM     28  C   UNL     1     -42.749  -7.221 142.963  1.00  0.00     0.039 A 
ATOM     29  C   UNL     1     -41.652  -6.355 142.892  1.00  0.00     0.123 A 
ATOM     30  F   UNL     1     -41.369  -5.476 143.886  1.00  0.00    -0.207 F 
ENDBRANCH  23  24
BRANCH  23  31
ATOM     31  C   UNL     1     -42.883 -10.384 140.204  1.00  0.00    -0.040 A 
ATOM     32  C   UNL     1     -42.103 -11.422 140.631  1.00  0.00     0.007 A 
ATOM     33  C   UNL     1     -44.272 -10.561 140.214  1.00  0.00     0.007 A 
ATOM     34  C   UNL     1     -42.722 -12.605 141.053  1.00  0.00     0.039 A 
ATOM     35  C   UNL     1     -44.884 -11.702 140.621  1.00  0.00     0.039 A 
ATOM     36  C   UNL     1     -44.088 -12.740 141.047  1.00  0.00     0.123 A 
ATOM     37  F   UNL     1     -44.714 -13.877 141.453  1.00  0.00    -0.207 F 
ENDBRANCH  23  31
ENDBRANCH  22  23
ENDBRANCH   1  22
TORSDOF 7
ENDMDL
MODEL 2
REMARK VINA RESULT:      -7.6      4.669      8.652
REMARK SMILES O=C1NCN(c2ccccc2)C12CC[NH+](CCCC(c1ccc(F)cc1)c1ccc(F)cc1)CC2
REMARK SMILES IDX 17 1 16 2 15 3 1 4 2 5 3 6 12 7 4 8 5 9 13 10 35 11 14 12
REMARK SMILES IDX 34 13 6 16 7 17 11 18 8 19 10 20 9 21 18 22 19 23 20 24
REMARK SMILES IDX 21 25 26 26 22 27 25 28 23 29 24 30 27 31 28 32 33 33 29 34
REMARK SMILES IDX 32 35 30 36 31 37
REMARK H PARENT 3 14 15 15
ROOT
ATOM      1  C   UNL     1     -45.984  -5.851 139.723  1.00  0.00     0.062 C 
ENDROOT
BRANCH   1   2
ATOM      2  C   UNL     1     -47.025  -5.941 140.800  1.00  0.00     0.262 C 
BRANCH   2   3
ATOM      3  N   UNL     1     -47.123  -7.310 141.291  1.00  0.00    -0.335 N 
ATOM      4  O   UNL     1     -48.467  -9.325 143.428  1.00  0.00    -0.272 OA
ATOM      5  C   UNL     1     -47.607 -10.170 143.102  1.00  0.00     0.247 C 
ATOM      6  N   UNL     1     -47.508 -11.457 143.659  1.00  0.00    -0.336 N 
ATOM      7  C   UNL     1     -46.528  -9.966 142.062  1.00  0.00     0.131 C 
ATOM      8  C   UNL     1     -46.748 -12.236 142.733  1.00  0.00     0.238 C 
ATOM      9  N   UNL     1     -45.848 -11.259 142.101  1.00  0.00    -0.339 N 
ATOM     10  C   UNL     1     -45.629  -8.832 142.511  1.00  0.00     0.100 C 
ATOM     11  C   UNL     1     -47.197  -9.671 140.768  1.00  0.00     0.100 C 
ATOM     12  C   UNL     1     -46.366  -7.512 142.509  1.00  0.00     0.265 C 
ATOM     13  C   UNL     1     -46.825  -8.304 140.294  1.00  0.00     0.265 C 
ATOM     14  H   UNL     1     -47.923 -11.760 144.581  1.00  0.00     0.165 HD
ATOM     15  H   UNL     1     -48.130  -7.418 141.541  1.00  0.00     0.348 HD
BRANCH   9  16
ATOM     16  C   UNL     1     -44.553 -11.633 141.661  1.00  0.00     0.039 A 
ATOM     17  C   UNL     1     -43.839 -10.835 140.799  1.00  0.00     0.026 A 
ATOM     18  C   UNL     1     -43.995 -12.789 142.112  1.00  0.00     0.026 A 
ATOM     19  C   UNL     1     -42.553 -11.183 140.375  1.00  0.00     0.002 A 
ATOM     20  C   UNL     1     -42.738 -13.149 141.709  1.00  0.00     0.002 A 
ATOM     21  C   UNL     1     -42.017 -12.361 140.851  1.00  0.00     0.000 A 
ENDBRANCH   9  16
ENDBRANCH   2   3
ENDBRANCH   1   2
BRANCH   1  22
ATOM     22  C   UNL     1     -44.710  -5.214 140.077  1.00  0.00     0.019 C 
BRANCH  22  23
ATOM     23  C   UNL     1     -43.422  -5.717 139.618  1.00  0.00     0.049 C 
BRANCH  23  24
ATOM     24  C   UNL     1     -42.454  -6.111 140.702  1.00  0.00    -0.040 A 
ATOM     25  C   UNL     1     -41.126  -6.187 140.345  1.00  0.00     0.007 A 
ATOM     26  C   UNL     1     -42.854  -6.409 141.977  1.00  0.00     0.007 A 
ATOM     27  C   UNL     1     -40.184  -6.564 141.270  1.00  0.00     0.039 A 
ATOM     28  C   UNL     1     -41.911  -6.783 142.897  1.00  0.00     0.039 A 
ATOM     29  C   UNL     1     -40.555  -6.867 142.560  1.00  0.00     0.123 A 
ATOM     30  F   UNL     1     -39.615  -7.238 143.466  1.00  0.00    -0.207 F 
ENDBRANCH  23  24
BRANCH  23  31
ATOM     31  C   UNL     1     -43.339  -6.637 138.496  1.00  0.00    -0.040 A 
ATOM     32  C   UNL     1     -43.454  -7.998 138.544  1.00  0.00     0.007 A 
ATOM     33  C   UNL     1     -43.099  -6.043 137.250  1.00  0.00     0.007 A 
ATOM     34  C   UNL     1     -43.326  -8.730 137.357  1.00  0.00     0.039 A 
ATOM     35  C   UNL     1     -42.975  -6.742 136.093  1.00  0.00     0.039 A 
ATOM     36  C   UNL     1     -43.091  -8.111 136.155  1.00  0.00     0.123 A 
ATOM     37  F   UNL     1     -42.965  -8.799 134.989  1.00  0.00    -0.207 F 
ENDBRANCH  23  31
ENDBRANCH  22  23
ENDBRANCH   1  22
TORSDOF 7
ENDMDL
MODEL 3
REMARK VINA RESULT:      -7.6      4.632      7.169
REMARK SMILES O=C1NCN(c2ccccc2)C12CC[NH+](CCCC(c1ccc(F)cc1)c1ccc(F)cc1)CC2
REMARK SMILES IDX 17 1 16 2 15 3 1 4 2 5 3 6 12 7 4 8 5 9 13 10 35 11 14 12
REMARK SMILES IDX 34 13 6 16 7 17 11 18 8 19 10 20 9 21 18 22 19 23 20 24
REMARK SMILES IDX 21 25 26 26 22 27 25 28 23 29 24 30 27 31 28 32 33 33 29 34
REMARK SMILES IDX 32 35 30 36 31 37
REMARK H PARENT 3 14 15 15
ROOT
ATOM      1  C   UNL     1     -43.748  -9.915 136.568  1.00  0.00     0.062 C 
ENDROOT
BRANCH   1   2
ATOM      2  C   UNL     1     -44.797  -9.435 135.608  1.00  0.00     0.262 C 
BRANCH   2   3
ATOM      3  N   UNL     1     -44.202  -9.179 134.301  1.00  0.00    -0.335 N 
ATOM      4  O   UNL     1     -44.180  -7.322 131.659  1.00  0.00    -0.272 OA
ATOM      5  C   UNL     1     -43.486  -8.200 131.105  1.00  0.00     0.247 C 
ATOM      6  N   UNL     1     -43.021  -8.124 129.780  1.00  0.00    -0.336 N 
ATOM      7  C   UNL     1     -43.024  -9.487 131.748  1.00  0.00     0.131 C 
ATOM      8  C   UNL     1     -41.928  -9.039 129.687  1.00  0.00     0.238 C 
ATOM      9  N   UNL     1     -42.261 -10.092 130.658  1.00  0.00    -0.339 N 
ATOM     10  C   UNL     1     -44.242 -10.308 132.120  1.00  0.00     0.100 C 
ATOM     11  C   UNL     1     -42.205  -9.131 132.936  1.00  0.00     0.100 C 
ATOM     12  C   UNL     1     -45.042  -9.641 133.215  1.00  0.00     0.265 C 
ATOM     13  C   UNL     1     -42.848  -9.651 134.181  1.00  0.00     0.265 C 
ATOM     14  H   UNL     1     -43.420  -7.505 129.023  1.00  0.00     0.165 HD
ATOM     15  H   UNL     1     -44.172  -8.138 134.236  1.00  0.00     0.348 HD
BRANCH   9  16
ATOM     16  C   UNL     1     -41.865 -11.437 130.446  1.00  0.00     0.039 A 
ATOM     17  C   UNL     1     -41.373 -12.203 131.476  1.00  0.00     0.026 A 
ATOM     18  C   UNL     1     -41.992 -11.991 129.208  1.00  0.00     0.026 A 
ATOM     19  C   UNL     1     -40.999 -13.536 131.282  1.00  0.00     0.002 A 
ATOM     20  C   UNL     1     -41.632 -13.293 128.998  1.00  0.00     0.002 A 
ATOM     21  C   UNL     1     -41.140 -14.066 130.017  1.00  0.00     0.000 A 
ENDBRANCH   9  16
ENDBRANCH   2   3
ENDBRANCH   1   2
BRANCH   1  22
ATOM     22  C   UNL     1     -43.702  -9.269 137.884  1.00  0.00     0.019 C 
BRANCH  22  23
ATOM     23  C   UNL     1     -42.886  -8.094 138.159  1.00  0.00     0.049 C 
BRANCH  23  24
ATOM     24  C   UNL     1     -43.318  -6.825 137.472  1.00  0.00    -0.040 A 
ATOM     25  C   UNL     1     -44.353  -6.129 138.057  1.00  0.00     0.007 A 
ATOM     26  C   UNL     1     -42.744  -6.382 136.311  1.00  0.00     0.007 A 
ATOM     27  C   UNL     1     -44.821  -4.976 137.479  1.00  0.00     0.039 A 
ATOM     28  C   UNL     1     -43.214  -5.231 135.738  1.00  0.00     0.039 A 
ATOM     29  C   UNL     1     -44.263  -4.504 136.312  1.00  0.00     0.123 A 
ATOM     30  F   UNL     1     -44.735  -3.362 135.750  1.00  0.00    -0.207 F 
ENDBRANCH  23  24
BRANCH  23  31
ATOM     31  C   UNL     1     -42.414  -7.814 139.505  1.00  0.00    -0.040 A 
ATOM     32  C   UNL     1     -42.806  -8.438 140.656  1.00  0.00     0.007 A 
ATOM     33  C   UNL     1     -41.472  -6.781 139.607  1.00  0.00     0.007 A 
ATOM     34  C   UNL     1     -42.255  -8.021 141.873  1.00  0.00     0.039 A 
ATOM     35  C   UNL     1     -40.931  -6.368 140.782  1.00  0.00     0.039 A 
ATOM     36  C   UNL     1     -41.335  -7.004 141.933  1.00  0.00     0.123 A 
ATOM     37  F   UNL     1     -40.784  -6.581 143.102  1.00  0.00    -0.207 F 
ENDBRANCH  23  31
ENDBRANCH  22  23
ENDBRANCH   1  22
TORSDOF 7
ENDMDL
MODEL 4
REMARK VINA RESULT:      -7.5      4.009      6.573
REMARK SMILES O=C1NCN(c2ccccc2)C12CC[NH+](CCCC(c1ccc(F)cc1)c1ccc(F)cc1)CC2
REMARK SMILES IDX 17 1 16 2 15 3 1 4 2 5 3 6 12 7 4 8 5 9 13 10 35 11 14 12
REMARK SMILES IDX 34 13 6 16 7 17 11 18 8 19 10 20 9 21 18 22 19 23 20 24
REMARK SMILES IDX 21 25 26 26 22 27 25 28 23 29 24 30 27 31 28 32 33 33 29 34
REMARK SMILES IDX 32 35 30 36 31 37
REMARK H PARENT 3 14 15 15
ROOT
ATOM      1  C   UNL     1     -42.670  -5.840 135.436  1.00  0.00     0.062 C 
ENDROOT
BRANCH   1   2
ATOM      2  C   UNL     1     -43.725  -5.962 134.377  1.00  0.00     0.262 C 
BRANCH   2   3
ATOM      3  N   UNL     1     -43.386  -7.035 133.450  1.00  0.00    -0.335 N 
ATOM      4  O   UNL     1     -43.406  -8.072 130.391  1.00  0.00    -0.272 OA
ATOM      5  C   UNL     1     -43.138  -9.212 130.825  1.00  0.00     0.247 C 
ATOM      6  N   UNL     1     -42.976 -10.350 130.016  1.00  0.00    -0.336 N 
ATOM      7  C   UNL     1     -42.942  -9.572 132.280  1.00  0.00     0.131 C 
ATOM      8  C   UNL     1     -42.246 -11.296 130.799  1.00  0.00     0.238 C 
ATOM      9  N   UNL     1     -42.649 -11.000 132.182  1.00  0.00    -0.339 N 
ATOM     10  C   UNL     1     -44.233  -9.301 133.025  1.00  0.00     0.100 C 
ATOM     11  C   UNL     1     -41.814  -8.756 132.800  1.00  0.00     0.100 C 
ATOM     12  C   UNL     1     -44.541  -7.822 133.073  1.00  0.00     0.265 C 
ATOM     13  C   UNL     1     -42.289  -7.855 133.893  1.00  0.00     0.265 C 
ATOM     14  H   UNL     1     -43.334 -10.458 129.028  1.00  0.00     0.165 HD
ATOM     15  H   UNL     1     -43.068  -6.536 132.590  1.00  0.00     0.348 HD
BRANCH   9  16
ATOM     16  C   UNL     1     -42.720 -12.025 133.160  1.00  0.00     0.039 A 
ATOM     17  C   UNL     1     -41.741 -12.163 134.115  1.00  0.00     0.026 A 
ATOM     18  C   UNL     1     -43.783 -12.875 133.172  1.00  0.00     0.026 A 
ATOM     19  C   UNL     1     -41.811 -13.156 135.097  1.00  0.00     0.002 A 
ATOM     20  C   UNL     1     -43.871 -13.853 134.123  1.00  0.00     0.002 A 
ATOM     21  C   UNL     1     -42.901 -14.001 135.080  1.00  0.00     0.000 A 
ENDBRANCH   9  16
ENDBRANCH   2   3
ENDBRANCH   1   2
BRANCH   1  22
ATOM     22  C   UNL     1     -43.077  -6.111 136.819  1.00  0.00     0.019 C 
BRANCH  22  23
ATOM     23  C   UNL     1     -42.987  -7.433 137.425  1.00  0.00     0.049 C 
BRANCH  23  24
ATOM     24  C   UNL     1     -42.577  -7.459 138.874  1.00  0.00    -0.040 A 
ATOM     25  C   UNL     1     -42.579  -8.689 139.494  1.00  0.00     0.007 A 
ATOM     26  C   UNL     1     -42.240  -6.327 139.566  1.00  0.00     0.007 A 
ATOM     27  C   UNL     1     -42.241  -8.793 140.820  1.00  0.00     0.039 A 
ATOM     28  C   UNL     1     -41.902  -6.435 140.889  1.00  0.00     0.039 A 
ATOM     29  C   UNL     1     -41.896  -7.673 141.542  1.00  0.00     0.123 A 
ATOM     30  F   UNL     1     -41.564  -7.788 142.853  1.00  0.00    -0.207 F 
ENDBRANCH  23  24
BRANCH  23  31
ATOM     31  C   UNL     1     -43.997  -8.444 137.159  1.00  0.00    -0.040 A 
ATOM     32  C   UNL     1     -45.349  -8.310 137.313  1.00  0.00     0.007 A 
ATOM     33  C   UNL     1     -43.507  -9.680 136.717  1.00  0.00     0.007 A 
ATOM     34  C   UNL     1     -46.174  -9.404 137.025  1.00  0.00     0.039 A 
ATOM     35  C   UNL     1     -44.297 -10.747 136.435  1.00  0.00     0.039 A 
ATOM     36  C   UNL     1     -45.655 -10.599 136.595  1.00  0.00     0.123 A 
ATOM     37  F   UNL     1     -46.435 -11.676 136.307  1.00  0.00    -0.207 F 
ENDBRANCH  23  31
ENDBRANCH  22  23
ENDBRANCH   1  22
TORSDOF 7
ENDMDL
MODEL 5
REMARK VINA RESULT:      -7.5      1.848      2.609
REMARK SMILES O=C1NCN(c2ccccc2)C12CC[NH+](CCCC(c1ccc(F)cc1)c1ccc(F)cc1)CC2
REMARK SMILES IDX 17 1 16 2 15 3 1 4 2 5 3 6 12 7 4 8 5 9 13 10 35 11 14 12
REMARK SMILES IDX 34 13 6 16 7 17 11 18 8 19 10 20 9 21 18 22 19 23 20 24
REMARK SMILES IDX 21 25 26 26 22 27 25 28 23 29 24 30 27 31 28 32 33 33 29 34
REMARK SMILES IDX 32 35 30 36 31 37
REMARK H PARENT 3 14 15 15
ROOT
ATOM      1  C   UNL     1     -42.664  -6.021 136.630  1.00  0.00     0.062 C 
ENDROOT
BRANCH   1   2
ATOM      2  C   UNL     1     -43.515  -6.242 135.414  1.00  0.00     0.262 C 
BRANCH   2   3
ATOM      3  N   UNL     1     -43.988  -4.965 134.892  1.00  0.00    -0.335 N 
ATOM      4  O   UNL     1     -46.533  -3.089 134.236  1.00  0.00    -0.272 OA
ATOM      5  C   UNL     1     -45.768  -2.366 133.564  1.00  0.00     0.247 C 
ATOM      6  N   UNL     1     -46.173  -1.213 132.869  1.00  0.00    -0.336 N 
ATOM      7  C   UNL     1     -44.286  -2.596 133.375  1.00  0.00     0.131 C 
ATOM      8  C   UNL     1     -44.989  -0.448 132.640  1.00  0.00     0.238 C 
ATOM      9  N   UNL     1     -43.927  -1.461 132.529  1.00  0.00    -0.339 N 
ATOM     10  C   UNL     1     -44.086  -3.923 132.670  1.00  0.00     0.100 C 
ATOM     11  C   UNL     1     -43.650  -2.576 134.719  1.00  0.00     0.100 C 
ATOM     12  C   UNL     1     -44.508  -5.080 133.546  1.00  0.00     0.265 C 
ATOM     13  C   UNL     1     -43.027  -3.900 135.016  1.00  0.00     0.265 C 
ATOM     14  H   UNL     1     -47.164  -0.983 132.587  1.00  0.00     0.165 HD
ATOM     15  H   UNL     1     -44.795  -4.724 135.507  1.00  0.00     0.348 HD
BRANCH   9  16
ATOM     16  C   UNL     1     -42.802  -1.255 131.691  1.00  0.00     0.039 A 
ATOM     17  C   UNL     1     -42.955  -0.870 130.380  1.00  0.00     0.026 A 
ATOM     18  C   UNL     1     -41.548  -1.418 132.192  1.00  0.00     0.026 A 
ATOM     19  C   UNL     1     -41.853  -0.644 129.550  1.00  0.00     0.002 A 
ATOM     20  C   UNL     1     -40.456  -1.202 131.398  1.00  0.00     0.002 A 
ATOM     21  C   UNL     1     -40.596  -0.819 130.089  1.00  0.00     0.000 A 
ENDBRANCH   9  16
ENDBRANCH   2   3
ENDBRANCH   1   2
BRANCH   1  22
ATOM     22  C   UNL     1     -43.188  -6.512 137.910  1.00  0.00     0.019 C 
BRANCH  22  23
ATOM     23  C   UNL     1     -42.371  -7.244 138.868  1.00  0.00     0.049 C 
BRANCH  23  24
ATOM     24  C   UNL     1     -42.023  -6.498 140.130  1.00  0.00    -0.040 A 
ATOM     25  C   UNL     1     -40.797  -6.776 140.693  1.00  0.00     0.007 A 
ATOM     26  C   UNL     1     -42.877  -5.605 140.720  1.00  0.00     0.007 A 
ATOM     27  C   UNL     1     -40.416  -6.156 141.856  1.00  0.00     0.039 A 
ATOM     28  C   UNL     1     -42.493  -4.989 141.880  1.00  0.00     0.039 A 
ATOM     29  C   UNL     1     -41.252  -5.253 142.471  1.00  0.00     0.123 A 
ATOM     30  F   UNL     1     -40.865  -4.646 143.622  1.00  0.00    -0.207 F 
ENDBRANCH  23  24
BRANCH  23  31
ATOM     31  C   UNL     1     -42.635  -8.644 139.156  1.00  0.00    -0.040 A 
ATOM     32  C   UNL     1     -42.403  -9.295 140.335  1.00  0.00     0.007 A 
ATOM     33  C   UNL     1     -43.167  -9.385 138.092  1.00  0.00     0.007 A 
ATOM     34  C   UNL     1     -42.703 -10.659 140.426  1.00  0.00     0.039 A 
ATOM     35  C   UNL     1     -43.463 -10.707 138.168  1.00  0.00     0.039 A 
ATOM     36  C   UNL     1     -43.223 -11.350 139.360  1.00  0.00     0.123 A 
ATOM     37  F   UNL     1     -43.525 -12.675 139.422  1.00  0.00    -0.207 F 
ENDBRANCH  23  31
ENDBRANCH  22  23
ENDBRANCH   1  22
TORSDOF 7
ENDMDL
MODEL 6
REMARK VINA RESULT:      -7.4      2.977      5.399
REMARK SMILES O=C1NCN(c2ccccc2)C12CC[NH+](CCCC(c1ccc(F)cc1)c1ccc(F)cc1)CC2
REMARK SMILES IDX 17 1 16 2 15 3 1 4 2 5 3 6 12 7 4 8 5 9 13 10 35 11 14 12
REMARK SMILES IDX 34 13 6 16 7 17 11 18 8 19 10 20 9 21 18 22 19 23 20 24
REMARK SMILES IDX 21 25 26 26 22 27 25 28 23 29 24 30 27 31 28 32 33 33 29 34
REMARK SMILES IDX 32 35 30 36 31 37
REMARK H PARENT 3 14 15 15
ROOT
ATOM      1  C   UNL     1     -44.087 -12.072 135.838  1.00  0.00     0.062 C 
ENDROOT
BRANCH   1   2
ATOM      2  C   UNL     1     -43.424 -12.246 134.503  1.00  0.00     0.262 C 
BRANCH   2   3
ATOM      3  N   UNL     1     -43.692 -11.091 133.654  1.00  0.00    -0.335 N 
ATOM      4  O   UNL     1     -43.405  -9.765 130.723  1.00  0.00    -0.272 OA
ATOM      5  C   UNL     1     -43.728  -8.674 131.237  1.00  0.00     0.247 C 
ATOM      6  N   UNL     1     -43.832  -7.464 130.527  1.00  0.00    -0.336 N 
ATOM      7  C   UNL     1     -44.064  -8.456 132.694  1.00  0.00     0.131 C 
ATOM      8  C   UNL     1     -44.646  -6.603 131.325  1.00  0.00     0.238 C 
ATOM      9  N   UNL     1     -44.368  -7.027 132.706  1.00  0.00    -0.339 N 
ATOM     10  C   UNL     1     -42.843  -8.790 133.528  1.00  0.00     0.100 C 
ATOM     11  C   UNL     1     -45.223  -9.326 133.027  1.00  0.00     0.100 C 
ATOM     12  C   UNL     1     -42.519 -10.264 133.464  1.00  0.00     0.265 C 
ATOM     13  C   UNL     1     -44.837 -10.324 134.069  1.00  0.00     0.265 C 
ATOM     14  H   UNL     1     -43.387  -7.261 129.592  1.00  0.00     0.165 HD
ATOM     15  H   UNL     1     -43.922 -11.507 132.725  1.00  0.00     0.348 HD
BRANCH   9  16
ATOM     16  C   UNL     1     -44.403  -6.101 133.779  1.00  0.00     0.039 A 
ATOM     17  C   UNL     1     -45.491  -6.026 134.616  1.00  0.00     0.026 A 
ATOM     18  C   UNL     1     -43.336  -5.285 134.001  1.00  0.00     0.026 A 
ATOM     19  C   UNL     1     -45.528  -5.130 135.689  1.00  0.00     0.002 A 
ATOM     20  C   UNL     1     -43.352  -4.402 135.046  1.00  0.00     0.002 A 
ATOM     21  C   UNL     1     -44.432  -4.318 135.886  1.00  0.00     0.000 A 
ENDBRANCH   9  16
ENDBRANCH   2   3
ENDBRANCH   1   2
BRANCH   1  22
ATOM     22  C   UNL     1     -43.210 -11.914 137.004  1.00  0.00     0.019 C 
BRANCH  22  23
ATOM     23  C   UNL     1     -43.586 -11.134 138.175  1.00  0.00     0.049 C 
BRANCH  23  24
ATOM     24  C   UNL     1     -43.409 -11.825 139.502  1.00  0.00    -0.040 A 
ATOM     25  C   UNL     1     -44.554 -12.070 140.227  1.00  0.00     0.007 A 
ATOM     26  C   UNL     1     -42.180 -12.176 139.993  1.00  0.00     0.007 A 
ATOM     27  C   UNL     1     -44.474 -12.673 141.457  1.00  0.00     0.039 A 
ATOM     28  C   UNL     1     -42.105 -12.779 141.220  1.00  0.00     0.039 A 
ATOM     29  C   UNL     1     -43.253 -13.040 141.977  1.00  0.00     0.123 A 
ATOM     30  F   UNL     1     -43.187 -13.636 143.194  1.00  0.00    -0.207 F 
ENDBRANCH  23  24
BRANCH  23  31
ATOM     31  C   UNL     1     -43.233  -9.728 138.277  1.00  0.00    -0.040 A 
ATOM     32  C   UNL     1     -42.753  -9.083 139.382  1.00  0.00     0.007 A 
ATOM     33  C   UNL     1     -43.431  -8.974 137.113  1.00  0.00     0.007 A 
ATOM     34  C   UNL     1     -42.484  -7.711 139.303  1.00  0.00     0.039 A 
ATOM     35  C   UNL     1     -43.173  -7.644 137.023  1.00  0.00     0.039 A 
ATOM     36  C   UNL     1     -42.691  -7.007 138.143  1.00  0.00     0.123 A 
ATOM     37  F   UNL     1     -42.437  -5.675 138.039  1.00  0.00    -0.207 F 
ENDBRANCH  23  31
ENDBRANCH  22  23
ENDBRANCH   1  22
TORSDOF 7
ENDMDL
MODEL 7
REMARK VINA RESULT:      -7.4      1.626      2.098
REMARK SMILES O=C1NCN(c2ccccc2)C12CC[NH+](CCCC(c1ccc(F)cc1)c1ccc(F)cc1)CC2
REMARK SMILES IDX 17 1 16 2 15 3 1 4 2 5 3 6 12 7 4 8 5 9 13 10 35 11 14 12
REMARK SMILES IDX 34 13 6 16 7 17 11 18 8 19 10 20 9 21 18 22 19 23 20 24
REMARK SMILES IDX 21 25 26 26 22 27 25 28 23 29 24 30 27 31 28 32 33 33 29 34
REMARK SMILES IDX 32 35 30 36 31 37
REMARK H PARENT 3 14 15 15
ROOT
ATOM      1  C   UNL     1     -43.986  -8.607 137.721  1.00  0.00     0.062 C 
ENDROOT
BRANCH   1   2
ATOM      2  C   UNL     1     -43.722  -9.386 136.467  1.00  0.00     0.262 C 
BRANCH   2   3
ATOM      3  N   UNL     1     -44.016  -8.568 135.296  1.00  0.00    -0.335 N 
ATOM      4  O   UNL     1     -44.394  -8.475 132.090  1.00  0.00    -0.272 OA
ATOM      5  C   UNL     1     -44.335  -7.230 132.166  1.00  0.00     0.247 C 
ATOM      6  N   UNL     1     -44.422  -6.363 131.062  1.00  0.00    -0.336 N 
ATOM      7  C   UNL     1     -44.162  -6.437 133.441  1.00  0.00     0.131 C 
ATOM      8  C   UNL     1     -44.778  -5.083 131.587  1.00  0.00     0.238 C 
ATOM      9  N   UNL     1     -44.175  -5.069 132.929  1.00  0.00    -0.339 N 
ATOM     10  C   UNL     1     -42.830  -6.804 134.064  1.00  0.00     0.100 C 
ATOM     11  C   UNL     1     -45.306  -6.761 134.334  1.00  0.00     0.100 C 
ATOM     12  C   UNL     1     -42.823  -8.237 134.543  1.00  0.00     0.265 C 
ATOM     13  C   UNL     1     -44.814  -7.407 135.588  1.00  0.00     0.265 C 
ATOM     14  H   UNL     1     -44.254  -6.632 130.055  1.00  0.00     0.165 HD
ATOM     15  H   UNL     1     -44.591  -9.192 134.689  1.00  0.00     0.348 HD
BRANCH   9  16
ATOM     16  C   UNL     1     -43.707  -3.863 133.510  1.00  0.00     0.039 A 
ATOM     17  C   UNL     1     -42.543  -3.273 133.079  1.00  0.00     0.026 A 
ATOM     18  C   UNL     1     -44.430  -3.264 134.496  1.00  0.00     0.026 A 
ATOM     19  C   UNL     1     -42.083  -2.073 133.630  1.00  0.00     0.002 A 
ATOM     20  C   UNL     1     -43.998  -2.090 135.049  1.00  0.00     0.002 A 
ATOM     21  C   UNL     1     -42.838  -1.493 134.627  1.00  0.00     0.000 A 
ENDBRANCH   9  16
ENDBRANCH   2   3
ENDBRANCH   1   2
BRANCH   1  22
ATOM     22  C   UNL     1     -42.835  -7.957 138.359  1.00  0.00     0.019 C 
BRANCH  22  23
ATOM     23  C   UNL     1     -42.312  -8.371 139.654  1.00  0.00     0.049 C 
BRANCH  23  24
ATOM     24  C   UNL     1     -41.952  -7.255 140.598  1.00  0.00    -0.040 A 
ATOM     25  C   UNL     1     -40.945  -7.512 141.502  1.00  0.00     0.007 A 
ATOM     26  C   UNL     1     -42.596  -6.047 140.594  1.00  0.00     0.007 A 
ATOM     27  C   UNL     1     -40.575  -6.554 142.412  1.00  0.00     0.039 A 
ATOM     28  C   UNL     1     -42.224  -5.094 141.503  1.00  0.00     0.039 A 
ATOM     29  C   UNL     1     -41.203  -5.329 142.431  1.00  0.00     0.123 A 
ATOM     30  F   UNL     1     -40.828  -4.390 143.336  1.00  0.00    -0.207 F 
ENDBRANCH  23  24
BRANCH  23  31
ATOM     31  C   UNL     1     -42.909  -9.482 140.377  1.00  0.00    -0.040 A 
ATOM     32  C   UNL     1     -42.506 -10.788 140.347  1.00  0.00     0.007 A 
ATOM     33  C   UNL     1     -44.020  -9.157 141.166  1.00  0.00     0.007 A 
ATOM     34  C   UNL     1     -43.216 -11.733 141.098  1.00  0.00     0.039 A 
ATOM     35  C   UNL     1     -44.716 -10.063 141.899  1.00  0.00     0.039 A 
ATOM     36  C   UNL     1     -44.301 -11.374 141.858  1.00  0.00     0.123 A 
ATOM     37  F   UNL     1     -45.007 -12.272 142.598  1.00  0.00    -0.207 F 
ENDBRANCH  23  31
ENDBRANCH  22  23
ENDBRANCH   1  22
TORSDOF 7
ENDMDL
MODEL 8
REMARK VINA RESULT:      -7.4      3.309      4.446
REMARK SMILES O=C1NCN(c2ccccc2)C12CC[NH+](CCCC(c1ccc(F)cc1)c1ccc(F)cc1)CC2
REMARK SMILES IDX 17 1 16 2 15 3 1 4 2 5 3 6 12 7 4 8 5 9 13 10 35 11 14 12
REMARK SMILES IDX 34 13 6 16 7 17 11 18 8 19 10 20 9 21 18 22 19 23 20 24
REMARK SMILES IDX 21 25 26 26 22 27 25 28 23 29 24 30 27 31 28 32 33 33 29 34
REMARK SMILES IDX 32 35 30 36 31 37
REMARK H PARENT 3 14 15 15
ROOT
ATOM      1  C   UNL     1     -43.151  -6.467 137.511  1.00  0.00     0.062 C 
ENDROOT
BRANCH   1   2
ATOM      2  C   UNL     1     -44.027  -6.193 136.325  1.00  0.00     0.262 C 
BRANCH   2   3
ATOM      3  N   UNL     1     -43.993  -7.322 135.403  1.00  0.00    -0.335 N 
ATOM      4  O   UNL     1     -43.117 -10.393 134.922  1.00  0.00    -0.272 OA
ATOM      5  C   UNL     1     -43.323 -10.213 133.704  1.00  0.00     0.247 C 
ATOM      6  N   UNL     1     -43.137 -11.194 132.715  1.00  0.00    -0.336 N 
ATOM      7  C   UNL     1     -43.804  -8.924 133.079  1.00  0.00     0.131 C 
ATOM      8  C   UNL     1     -43.897 -10.768 131.582  1.00  0.00     0.238 C 
ATOM      9  N   UNL     1     -43.871  -9.299 131.668  1.00  0.00    -0.339 N 
ATOM     10  C   UNL     1     -42.772  -7.844 133.336  1.00  0.00     0.100 C 
ATOM     11  C   UNL     1     -45.123  -8.592 133.681  1.00  0.00     0.100 C 
ATOM     12  C   UNL     1     -42.686  -7.505 134.806  1.00  0.00     0.265 C 
ATOM     13  C   UNL     1     -45.042  -7.295 134.418  1.00  0.00     0.265 C 
ATOM     14  H   UNL     1     -42.547 -12.064 132.816  1.00  0.00     0.165 HD
ATOM     15  H   UNL     1     -44.164  -8.152 136.012  1.00  0.00     0.348 HD
BRANCH   9  16
ATOM     16  C   UNL     1     -43.894  -8.496 130.500  1.00  0.00     0.039 A 
ATOM     17  C   UNL     1     -44.922  -7.612 130.267  1.00  0.00     0.026 A 
ATOM     18  C   UNL     1     -42.875  -8.581 129.602  1.00  0.00     0.026 A 
ATOM     19  C   UNL     1     -44.944  -6.800 129.129  1.00  0.00     0.002 A 
ATOM     20  C   UNL     1     -42.878  -7.796 128.482  1.00  0.00     0.002 A 
ATOM     21  C   UNL     1     -43.897  -6.912 128.239  1.00  0.00     0.000 A 
ENDBRANCH   9  16
ENDBRANCH   2   3
ENDBRANCH   1   2
BRANCH   1  22
ATOM     22  C   UNL     1     -43.530  -7.588 138.378  1.00  0.00     0.019 C 
BRANCH  22  23
ATOM     23  C   UNL     1     -42.579  -8.277 139.240  1.00  0.00     0.049 C 
BRANCH  23  24
ATOM     24  C   UNL     1     -42.186  -7.541 140.494  1.00  0.00    -0.040 A 
ATOM     25  C   UNL     1     -40.966  -6.901 140.478  1.00  0.00     0.007 A 
ATOM     26  C   UNL     1     -42.974  -7.516 141.614  1.00  0.00     0.007 A 
ATOM     27  C   UNL     1     -40.526  -6.229 141.590  1.00  0.00     0.039 A 
ATOM     28  C   UNL     1     -42.531  -6.844 142.721  1.00  0.00     0.039 A 
ATOM     29  C   UNL     1     -41.295  -6.186 142.730  1.00  0.00     0.123 A 
ATOM     30  F   UNL     1     -40.849  -5.518 143.824  1.00  0.00    -0.207 F 
ENDBRANCH  23  24
BRANCH  23  31
ATOM     31  C   UNL     1     -42.705  -9.701 139.499  1.00  0.00    -0.040 A 
ATOM     32  C   UNL     1     -42.248 -10.377 140.596  1.00  0.00     0.007 A 
ATOM     33  C   UNL     1     -43.352 -10.438 138.499  1.00  0.00     0.007 A 
ATOM     34  C   UNL     1     -42.443 -11.761 140.668  1.00  0.00     0.039 A 
ATOM     35  C   UNL     1     -43.549 -11.780 138.558  1.00  0.00     0.039 A 
ATOM     36  C   UNL     1     -43.082 -12.448 139.667  1.00  0.00     0.123 A 
ATOM     37  F   UNL     1     -43.286 -13.792 139.713  1.00  0.00    -0.207 F 
ENDBRANCH  23  31
ENDBRANCH  22  23
ENDBRANCH   1  22
TORSDOF 7
ENDMDL
MODEL 9
REMARK VINA RESULT:      -7.3      4.149      6.934
REMARK SMILES O=C1NCN(c2ccccc2)C12CC[NH+](CCCC(c1ccc(F)cc1)c1ccc(F)cc1)CC2
REMARK SMILES IDX 17 1 16 2 15 3 1 4 2 5 3 6 12 7 4 8 5 9 13 10 35 11 14 12
REMARK SMILES IDX 34 13 6 16 7 17 11 18 8 19 10 20 9 21 18 22 19 23 20 24
REMARK SMILES IDX 21 25 26 26 22 27 25 28 23 29 24 30 27 31 28 32 33 33 29 34
REMARK SMILES IDX 32 35 30 36 31 37
REMARK H PARENT 3 14 15 15
ROOT
ATOM      1  C   UNL     1     -43.839  -8.592 137.194  1.00  0.00     0.062 C 
ENDROOT
BRANCH   1   2
ATOM      2  C   UNL     1     -44.661  -9.377 136.215  1.00  0.00     0.262 C 
BRANCH   2   3
ATOM      3  N   UNL     1     -44.207  -9.117 134.854  1.00  0.00    -0.335 N 
ATOM      4  O   UNL     1     -44.613  -7.397 132.151  1.00  0.00    -0.272 OA
ATOM      5  C   UNL     1     -43.867  -8.214 131.574  1.00  0.00     0.247 C 
ATOM      6  N   UNL     1     -43.521  -8.148 130.213  1.00  0.00    -0.336 N 
ATOM      7  C   UNL     1     -43.207  -9.409 132.224  1.00  0.00     0.131 C 
ATOM      8  C   UNL     1     -42.338  -8.935 130.063  1.00  0.00     0.238 C 
ATOM      9  N   UNL     1     -42.467  -9.973 131.098  1.00  0.00    -0.339 N 
ATOM     10  C   UNL     1     -44.286 -10.345 132.728  1.00  0.00     0.100 C 
ATOM     11  C   UNL     1     -42.344  -8.905 133.325  1.00  0.00     0.100 C 
ATOM     12  C   UNL     1     -45.069  -9.723 133.861  1.00  0.00     0.265 C 
ATOM     13  C   UNL     1     -42.820  -9.436 134.638  1.00  0.00     0.265 C 
ATOM     14  H   UNL     1     -44.049  -7.615 129.470  1.00  0.00     0.165 HD
ATOM     15  H   UNL     1     -44.305  -8.084 134.748  1.00  0.00     0.348 HD
BRANCH   9  16
ATOM     16  C   UNL     1     -41.933 -11.272 130.903  1.00  0.00     0.039 A 
ATOM     17  C   UNL     1     -41.714 -11.767 129.640  1.00  0.00     0.026 A 
ATOM     18  C   UNL     1     -41.610 -12.037 131.981  1.00  0.00     0.026 A 
ATOM     19  C   UNL     1     -41.169 -13.039 129.436  1.00  0.00     0.002 A 
ATOM     20  C   UNL     1     -41.076 -13.284 131.805  1.00  0.00     0.002 A 
ATOM     21  C   UNL     1     -40.853 -13.788 130.550  1.00  0.00     0.000 A 
ENDBRANCH   9  16
ENDBRANCH   2   3
ENDBRANCH   1   2
BRANCH   1  22
ATOM     22  C   UNL     1     -43.043  -9.356 138.162  1.00  0.00     0.019 C 
BRANCH  22  23
ATOM     23  C   UNL     1     -43.278  -9.296 139.598  1.00  0.00     0.049 C 
BRANCH  23  24
ATOM     24  C   UNL     1     -43.287 -10.622 140.312  1.00  0.00    -0.040 A 
ATOM     25  C   UNL     1     -44.456 -10.970 140.953  1.00  0.00     0.007 A 
ATOM     26  C   UNL     1     -42.193 -11.444 140.358  1.00  0.00     0.007 A 
ATOM     27  C   UNL     1     -44.537 -12.151 141.646  1.00  0.00     0.039 A 
ATOM     28  C   UNL     1     -42.278 -12.622 141.050  1.00  0.00     0.039 A 
ATOM     29  C   UNL     1     -43.454 -12.999 141.708  1.00  0.00     0.123 A 
ATOM     30  F   UNL     1     -43.546 -14.165 142.397  1.00  0.00    -0.207 F 
ENDBRANCH  23  24
BRANCH  23  31
ATOM     31  C   UNL     1     -42.638  -8.278 140.415  1.00  0.00    -0.040 A 
ATOM     32  C   UNL     1     -42.692  -8.169 141.777  1.00  0.00     0.007 A 
ATOM     33  C   UNL     1     -41.911  -7.312 139.709  1.00  0.00     0.007 A 
ATOM     34  C   UNL     1     -42.026  -7.105 142.397  1.00  0.00     0.039 A 
ATOM     35  C   UNL     1     -41.260  -6.277 140.299  1.00  0.00     0.039 A 
ATOM     36  C   UNL     1     -41.324  -6.178 141.669  1.00  0.00     0.123 A 
ATOM     37  F   UNL     1     -40.667  -5.136 142.247  1.00  0.00    -0.207 F 
ENDBRANCH  23  31
ENDBRANCH  22  23
ENDBRANCH   1  22
TORSDOF 7
ENDMDL
