MODEL 1
REMARK VINA RESULT:      -5.6      0.000      0.000
REMARK SMILES CNCC[C@H](Oc1cccc2ccccc12)c1cccs1
REMARK SMILES IDX 4 1 3 2 2 3 1 4 5 6 6 7 7 8 8 9 16 10 9 11 15 12 11 13 10 14
REMARK SMILES IDX 14 15 12 16 13 17 17 18 18 19 21 20 19 21 20 22
REMARK H PARENT 2 5
ROOT
ATOM      1  C   UNL     1     -44.002  -7.548 134.063  1.00  0.00     0.066 C 
ENDROOT
BRANCH   1   2
ATOM      2  C   UNL     1     -43.543  -8.121 132.796  1.00  0.00     0.085 C 
BRANCH   2   3
ATOM      3  N   UNL     1     -43.880  -7.579 131.558  1.00  0.00    -0.320 NA
ATOM      4  C   UNL     1     -45.148  -7.020 131.320  1.00  0.00     0.101 C 
ATOM      5  H   UNL     1     -43.148  -7.245 130.930  1.00  0.00     0.122 HD
ENDBRANCH   2   3
ENDBRANCH   1   2
BRANCH   1   6
ATOM      6  C   UNL     1     -43.059  -7.002 135.065  1.00  0.00     0.215 C 
BRANCH   6   7
ATOM      7  O   UNL     1     -43.448  -7.001 136.399  1.00  0.00    -0.484 OA
BRANCH   7   8
ATOM      8  C   UNL     1     -43.359  -8.106 137.210  1.00  0.00     0.128 A 
ATOM      9  C   UNL     1     -43.785  -9.351 136.866  1.00  0.00     0.047 A 
ATOM     10  C   UNL     1     -42.781  -7.913 138.480  1.00  0.00     0.024 A 
ATOM     11  C   UNL     1     -43.641 -10.400 137.774  1.00  0.00     0.004 A 
ATOM     12  C   UNL     1     -42.338  -6.650 138.839  1.00  0.00     0.012 A 
ATOM     13  C   UNL     1     -42.630  -8.940 139.392  1.00  0.00    -0.015 A 
ATOM     14  C   UNL     1     -43.078 -10.209 139.010  1.00  0.00     0.009 A 
ATOM     15  C   UNL     1     -41.768  -6.466 140.079  1.00  0.00     0.001 A 
ATOM     16  C   UNL     1     -42.059  -8.746 140.632  1.00  0.00     0.009 A 
ATOM     17  C   UNL     1     -41.622  -7.496 140.984  1.00  0.00     0.001 A 
ENDBRANCH   7   8
ENDBRANCH   6   7
BRANCH   6  18
ATOM     18  C   UNL     1     -42.809  -5.566 134.633  1.00  0.00     0.045 A 
ATOM     19  C   UNL     1     -41.679  -4.832 134.637  1.00  0.00     0.019 A 
ATOM     20  S   UNL     1     -44.018  -4.436 133.980  1.00  0.00    -0.145 S 
ATOM     21  C   UNL     1     -41.686  -3.575 134.207  1.00  0.00     0.012 A 
ATOM     22  C   UNL     1     -42.884  -3.069 133.767  1.00  0.00     0.065 A 
ENDBRANCH   6  18
ENDBRANCH   1   6
TORSDOF 6
ENDMDL
MODEL 2
REMARK VINA RESULT:      -5.5      1.465      2.779
REMARK SMILES CNCC[C@H](Oc1cccc2ccccc12)c1cccs1
REMARK SMILES IDX 4 1 3 2 2 3 1 4 5 6 6 7 7 8 8 9 16 10 9 11 15 12 11 13 10 14
REMARK SMILES IDX 14 15 12 16 13 17 17 18 18 19 21 20 19 21 20 22
REMARK H PARENT 2 5
ROOT
ATOM      1  C   UNL     1     -42.815  -7.995 133.646  1.00  0.00     0.066 C 
ENDROOT
BRANCH   1   2
ATOM      2  C   UNL     1     -43.269  -9.385 133.562  1.00  0.00     0.085 C 
BRANCH   2   3
ATOM      3  N   UNL     1     -42.645 -10.424 134.249  1.00  0.00    -0.320 NA
ATOM      4  C   UNL     1     -42.184 -11.573 133.583  1.00  0.00     0.101 C 
ATOM      5  H   UNL     1     -42.187 -10.244 135.143  1.00  0.00     0.122 HD
ENDBRANCH   2   3
ENDBRANCH   1   2
BRANCH   1   6
ATOM      6  C   UNL     1     -42.595  -7.319 134.944  1.00  0.00     0.215 C 
BRANCH   6   7
ATOM      7  O   UNL     1     -43.408  -7.671 136.014  1.00  0.00    -0.484 OA
BRANCH   7   8
ATOM      8  C   UNL     1     -42.994  -7.621 137.322  1.00  0.00     0.128 A 
ATOM      9  C   UNL     1     -42.555  -6.498 137.950  1.00  0.00     0.047 A 
ATOM     10  C   UNL     1     -43.037  -8.829 138.045  1.00  0.00     0.024 A 
ATOM     11  C   UNL     1     -42.159  -6.568 139.286  1.00  0.00     0.004 A 
ATOM     12  C   UNL     1     -43.489  -9.980 137.418  1.00  0.00     0.012 A 
ATOM     13  C   UNL     1     -42.650  -8.918 139.369  1.00  0.00    -0.015 A 
ATOM     14  C   UNL     1     -42.202  -7.746 139.987  1.00  0.00     0.009 A 
ATOM     15  C   UNL     1     -43.535 -11.158 138.129  1.00  0.00     0.001 A 
ATOM     16  C   UNL     1     -42.699 -10.103 140.072  1.00  0.00     0.009 A 
ATOM     17  C   UNL     1     -43.146 -11.238 139.449  1.00  0.00     0.001 A 
ENDBRANCH   7   8
ENDBRANCH   6   7
BRANCH   6  18
ATOM     18  C   UNL     1     -42.789  -5.838 134.657  1.00  0.00     0.045 A 
ATOM     19  C   UNL     1     -41.897  -4.829 134.605  1.00  0.00     0.019 A 
ATOM     20  S   UNL     1     -44.331  -5.027 134.299  1.00  0.00    -0.145 S 
ATOM     21  C   UNL     1     -42.290  -3.590 134.331  1.00  0.00     0.012 A 
ATOM     22  C   UNL     1     -43.631  -3.392 134.108  1.00  0.00     0.065 A 
ENDBRANCH   6  18
ENDBRANCH   1   6
TORSDOF 6
ENDMDL
MODEL 3
REMARK VINA RESULT:      -5.5      1.475      1.617
REMARK SMILES CNCC[C@H](Oc1cccc2ccccc12)c1cccs1
REMARK SMILES IDX 4 1 3 2 2 3 1 4 5 6 6 7 7 8 8 9 16 10 9 11 15 12 11 13 10 14
REMARK SMILES IDX 14 15 12 16 13 17 17 18 18 19 21 20 19 21 20 22
REMARK H PARENT 2 5
ROOT
ATOM      1  C   UNL     1     -45.106  -5.876 135.602  1.00  0.00     0.066 C 
ENDROOT
BRANCH   1   2
ATOM      2  C   UNL     1     -46.283  -6.726 135.403  1.00  0.00     0.085 C 
BRANCH   2   3
ATOM      3  N   UNL     1     -47.257  -6.452 134.446  1.00  0.00    -0.320 NA
ATOM      4  C   UNL     1     -46.968  -6.489 133.070  1.00  0.00     0.101 C 
ATOM      5  H   UNL     1     -48.245  -6.575 134.671  1.00  0.00     0.122 HD
ENDBRANCH   2   3
ENDBRANCH   1   2
BRANCH   1   6
ATOM      6  C   UNL     1     -43.741  -6.334 135.260  1.00  0.00     0.215 C 
BRANCH   6   7
ATOM      7  O   UNL     1     -42.899  -6.717 136.298  1.00  0.00    -0.484 OA
BRANCH   7   8
ATOM      8  C   UNL     1     -43.059  -7.884 137.004  1.00  0.00     0.128 A 
ATOM      9  C   UNL     1     -43.558  -9.037 136.486  1.00  0.00     0.047 A 
ATOM     10  C   UNL     1     -42.669  -7.860 138.358  1.00  0.00     0.024 A 
ATOM     11  C   UNL     1     -43.673 -10.163 137.302  1.00  0.00     0.004 A 
ATOM     12  C   UNL     1     -42.153  -6.692 138.896  1.00  0.00     0.012 A 
ATOM     13  C   UNL     1     -42.776  -8.965 139.181  1.00  0.00    -0.015 A 
ATOM     14  C   UNL     1     -43.293 -10.137 138.620  1.00  0.00     0.009 A 
ATOM     15  C   UNL     1     -41.768  -6.674 140.218  1.00  0.00     0.001 A 
ATOM     16  C   UNL     1     -42.388  -8.938 140.504  1.00  0.00     0.009 A 
ATOM     17  C   UNL     1     -41.879  -7.781 141.033  1.00  0.00     0.001 A 
ENDBRANCH   7   8
ENDBRANCH   6   7
BRANCH   6  18
ATOM     18  C   UNL     1     -43.103  -5.165 134.527  1.00  0.00     0.045 A 
ATOM     19  C   UNL     1     -41.865  -4.641 134.620  1.00  0.00     0.019 A 
ATOM     20  S   UNL     1     -43.878  -4.144 133.294  1.00  0.00    -0.145 S 
ATOM     21  C   UNL     1     -41.511  -3.602 133.871  1.00  0.00     0.012 A 
ATOM     22  C   UNL     1     -42.456  -3.097 133.012  1.00  0.00     0.065 A 
ENDBRANCH   6  18
ENDBRANCH   1   6
TORSDOF 6
ENDMDL
MODEL 4
REMARK VINA RESULT:      -5.4      2.399      3.126
REMARK SMILES CNCC[C@H](Oc1cccc2ccccc12)c1cccs1
REMARK SMILES IDX 4 1 3 2 2 3 1 4 5 6 6 7 7 8 8 9 16 10 9 11 15 12 11 13 10 14
REMARK SMILES IDX 14 15 12 16 13 17 17 18 18 19 21 20 19 21 20 22
REMARK H PARENT 2 5
ROOT
ATOM      1  C   UNL     1     -44.649  -4.577 137.308  1.00  0.00     0.066 C 
ENDROOT
BRANCH   1   2
ATOM      2  C   UNL     1     -45.961  -5.036 137.771  1.00  0.00     0.085 C 
BRANCH   2   3
ATOM      3  N   UNL     1     -46.231  -6.371 138.063  1.00  0.00    -0.320 NA
ATOM      4  C   UNL     1     -46.166  -6.864 139.378  1.00  0.00     0.101 C 
ATOM      5  H   UNL     1     -46.818  -6.924 137.436  1.00  0.00     0.122 HD
ENDBRANCH   2   3
ENDBRANCH   1   2
BRANCH   1   6
ATOM      6  C   UNL     1     -43.857  -5.338 136.317  1.00  0.00     0.215 C 
BRANCH   6   7
ATOM      7  O   UNL     1     -42.800  -6.115 136.779  1.00  0.00    -0.484 OA
BRANCH   7   8
ATOM      8  C   UNL     1     -42.966  -7.370 137.310  1.00  0.00     0.128 A 
ATOM      9  C   UNL     1     -43.468  -8.436 136.631  1.00  0.00     0.047 A 
ATOM     10  C   UNL     1     -42.581  -7.543 138.654  1.00  0.00     0.024 A 
ATOM     11  C   UNL     1     -43.590  -9.666 137.276  1.00  0.00     0.004 A 
ATOM     12  C   UNL     1     -42.062  -6.467 139.356  1.00  0.00     0.012 A 
ATOM     13  C   UNL     1     -42.694  -8.754 139.310  1.00  0.00    -0.015 A 
ATOM     14  C   UNL     1     -43.214  -9.832 138.585  1.00  0.00     0.009 A 
ATOM     15  C   UNL     1     -41.681  -6.640 140.668  1.00  0.00     0.001 A 
ATOM     16  C   UNL     1     -42.310  -8.919 140.624  1.00  0.00     0.009 A 
ATOM     17  C   UNL     1     -41.798  -7.852 141.315  1.00  0.00     0.001 A 
ENDBRANCH   7   8
ENDBRANCH   6   7
BRANCH   6  18
ATOM     18  C   UNL     1     -43.304  -4.291 135.362  1.00  0.00     0.045 A 
ATOM     19  C   UNL     1     -43.764  -3.065 135.042  1.00  0.00     0.019 A 
ATOM     20  S   UNL     1     -41.831  -4.436 134.377  1.00  0.00    -0.145 S 
ATOM     21  C   UNL     1     -43.113  -2.304 134.170  1.00  0.00     0.012 A 
ATOM     22  C   UNL     1     -41.966  -2.821 133.619  1.00  0.00     0.065 A 
ENDBRANCH   6  18
ENDBRANCH   1   6
TORSDOF 6
ENDMDL
MODEL 5
REMARK VINA RESULT:      -5.4      3.891      5.875
REMARK SMILES CNCC[C@H](Oc1cccc2ccccc12)c1cccs1
REMARK SMILES IDX 4 1 3 2 2 3 1 4 5 6 6 7 7 8 8 9 16 10 9 11 15 12 11 13 10 14
REMARK SMILES IDX 14 15 12 16 13 17 17 18 18 19 21 20 19 21 20 22
REMARK H PARENT 2 5
ROOT
ATOM      1  C   UNL     1     -42.586  -6.588 138.259  1.00  0.00     0.066 C 
ENDROOT
BRANCH   1   2
ATOM      2  C   UNL     1     -43.829  -5.820 138.355  1.00  0.00     0.085 C 
BRANCH   2   3
ATOM      3  N   UNL     1     -45.086  -6.419 138.363  1.00  0.00    -0.320 NA
ATOM      4  C   UNL     1     -45.956  -6.290 139.460  1.00  0.00     0.101 C 
ATOM      5  H   UNL     1     -45.552  -6.645 137.483  1.00  0.00     0.122 HD
ENDBRANCH   2   3
ENDBRANCH   1   2
BRANCH   1   6
ATOM      6  C   UNL     1     -42.290  -7.718 139.168  1.00  0.00     0.215 C 
BRANCH   6   7
ATOM      7  O   UNL     1     -43.282  -8.668 139.379  1.00  0.00    -0.484 OA
BRANCH   7   8
ATOM      8  C   UNL     1     -43.020 -10.006 139.540  1.00  0.00     0.128 A 
ATOM      9  C   UNL     1     -42.607 -10.577 140.702  1.00  0.00     0.047 A 
ATOM     10  C   UNL     1     -43.201 -10.826 138.408  1.00  0.00     0.024 A 
ATOM     11  C   UNL     1     -42.372 -11.952 140.747  1.00  0.00     0.004 A 
ATOM     12  C   UNL     1     -43.628 -10.257 137.219  1.00  0.00     0.012 A 
ATOM     13  C   UNL     1     -42.974 -12.189 138.433  1.00  0.00    -0.015 A 
ATOM     14  C   UNL     1     -42.549 -12.747 139.643  1.00  0.00     0.009 A 
ATOM     15  C   UNL     1     -43.810 -11.061 136.116  1.00  0.00     0.001 A 
ATOM     16  C   UNL     1     -43.158 -12.986 137.324  1.00  0.00     0.009 A 
ATOM     17  C   UNL     1     -43.579 -12.420 136.150  1.00  0.00     0.001 A 
ENDBRANCH   7   8
ENDBRANCH   6   7
BRANCH   6  18
ATOM     18  C   UNL     1     -41.948  -7.073 140.502  1.00  0.00     0.045 A 
ATOM     19  C   UNL     1     -40.811  -6.487 140.928  1.00  0.00     0.019 A 
ATOM     20  S   UNL     1     -43.025  -6.926 141.909  1.00  0.00    -0.145 S 
ATOM     21  C   UNL     1     -40.729  -5.980 142.153  1.00  0.00     0.012 A 
ATOM     22  C   UNL     1     -41.842  -6.082 142.951  1.00  0.00     0.065 A 
ENDBRANCH   6  18
ENDBRANCH   1   6
TORSDOF 6
ENDMDL
MODEL 6
REMARK VINA RESULT:      -5.4      2.633      5.149
REMARK SMILES CNCC[C@H](Oc1cccc2ccccc12)c1cccs1
REMARK SMILES IDX 4 1 3 2 2 3 1 4 5 6 6 7 7 8 8 9 16 10 9 11 15 12 11 13 10 14
REMARK SMILES IDX 14 15 12 16 13 17 17 18 18 19 21 20 19 21 20 22
REMARK H PARENT 2 5
ROOT
ATOM      1  C   UNL     1     -42.728  -6.413 137.775  1.00  0.00     0.066 C 
ENDROOT
BRANCH   1   2
ATOM      2  C   UNL     1     -43.909  -6.516 136.915  1.00  0.00     0.085 C 
BRANCH   2   3
ATOM      3  N   UNL     1     -43.848  -6.984 135.605  1.00  0.00    -0.320 NA
ATOM      4  C   UNL     1     -42.709  -6.783 134.804  1.00  0.00     0.101 C 
ATOM      5  H   UNL     1     -44.433  -7.768 135.313  1.00  0.00     0.122 HD
ENDBRANCH   2   3
ENDBRANCH   1   2
BRANCH   1   6
ATOM      6  C   UNL     1     -42.383  -7.459 138.764  1.00  0.00     0.215 C 
BRANCH   6   7
ATOM      7  O   UNL     1     -43.350  -8.406 139.081  1.00  0.00    -0.484 OA
BRANCH   7   8
ATOM      8  C   UNL     1     -43.054  -9.715 139.372  1.00  0.00     0.128 A 
ATOM      9  C   UNL     1     -42.614 -10.156 140.580  1.00  0.00     0.047 A 
ATOM     10  C   UNL     1     -43.227 -10.648 138.330  1.00  0.00     0.024 A 
ATOM     11  C   UNL     1     -42.345 -11.513 140.759  1.00  0.00     0.004 A 
ATOM     12  C   UNL     1     -43.680 -10.211 137.096  1.00  0.00     0.012 A 
ATOM     13  C   UNL     1     -42.966 -11.996 138.489  1.00  0.00    -0.015 A 
ATOM     14  C   UNL     1     -42.515 -12.420 139.743  1.00  0.00     0.009 A 
ATOM     15  C   UNL     1     -43.854 -11.127 136.082  1.00  0.00     0.001 A 
ATOM     16  C   UNL     1     -43.142 -12.905 137.467  1.00  0.00     0.009 A 
ATOM     17  C   UNL     1     -43.590 -12.470 136.248  1.00  0.00     0.001 A 
ENDBRANCH   7   8
ENDBRANCH   6   7
BRANCH   6  18
ATOM     18  C   UNL     1     -42.015  -6.702 140.030  1.00  0.00     0.045 A 
ATOM     19  C   UNL     1     -40.923  -6.784 140.816  1.00  0.00     0.019 A 
ATOM     20  S   UNL     1     -42.992  -5.450 140.831  1.00  0.00    -0.145 S 
ATOM     21  C   UNL     1     -40.804  -6.015 141.893  1.00  0.00     0.012 A 
ATOM     22  C   UNL     1     -41.834  -5.146 142.160  1.00  0.00     0.065 A 
ENDBRANCH   6  18
ENDBRANCH   1   6
TORSDOF 6
ENDMDL
MODEL 7
REMARK VINA RESULT:      -5.4      4.519      7.528
REMARK SMILES CNCC[C@H](Oc1cccc2ccccc12)c1cccs1
REMARK SMILES IDX 4 1 3 2 2 3 1 4 5 6 6 7 7 8 8 9 16 10 9 11 15 12 11 13 10 14
REMARK SMILES IDX 14 15 12 16 13 17 17 18 18 19 21 20 19 21 20 22
REMARK H PARENT 2 5
ROOT
ATOM      1  C   UNL     1     -41.850  -5.096 141.998  1.00  0.00     0.066 C 
ENDROOT
BRANCH   1   2
ATOM      2  C   UNL     1     -41.483  -4.104 143.011  1.00  0.00     0.085 C 
BRANCH   2   3
ATOM      3  N   UNL     1     -41.144  -2.791 142.693  1.00  0.00    -0.320 NA
ATOM      4  C   UNL     1     -40.071  -2.134 143.320  1.00  0.00     0.101 C 
ATOM      5  H   UNL     1     -41.401  -2.402 141.784  1.00  0.00     0.122 HD
ENDBRANCH   2   3
ENDBRANCH   1   2
BRANCH   1   6
ATOM      6  C   UNL     1     -41.893  -6.544 142.298  1.00  0.00     0.215 C 
BRANCH   6   7
ATOM      7  O   UNL     1     -41.425  -7.428 141.332  1.00  0.00    -0.484 OA
BRANCH   7   8
ATOM      8  C   UNL     1     -41.975  -7.531 140.078  1.00  0.00     0.128 A 
ATOM      9  C   UNL     1     -42.083  -6.502 139.196  1.00  0.00     0.047 A 
ATOM     10  C   UNL     1     -42.451  -8.802 139.700  1.00  0.00     0.024 A 
ATOM     11  C   UNL     1     -42.660  -6.727 137.946  1.00  0.00     0.004 A 
ATOM     12  C   UNL     1     -42.340  -9.860 140.587  1.00  0.00     0.012 A 
ATOM     13  C   UNL     1     -43.025  -9.044 138.466  1.00  0.00    -0.015 A 
ATOM     14  C   UNL     1     -43.123  -7.966 137.580  1.00  0.00     0.009 A 
ATOM     15  C   UNL     1     -42.801 -11.103 140.213  1.00  0.00     0.001 A 
ATOM     16  C   UNL     1     -43.485 -10.291 138.100  1.00  0.00     0.009 A 
ATOM     17  C   UNL     1     -43.374 -11.335 138.980  1.00  0.00     0.001 A 
ENDBRANCH   7   8
ENDBRANCH   6   7
BRANCH   6  18
ATOM     18  C   UNL     1     -43.359  -6.851 142.562  1.00  0.00     0.045 A 
ATOM     19  C   UNL     1     -43.934  -7.834 143.282  1.00  0.00     0.019 A 
ATOM     20  S   UNL     1     -44.754  -5.934 141.951  1.00  0.00    -0.145 S 
ATOM     21  C   UNL     1     -45.256  -7.915 143.383  1.00  0.00     0.012 A 
ATOM     22  C   UNL     1     -45.995  -6.962 142.726  1.00  0.00     0.065 A 
ENDBRANCH   6  18
ENDBRANCH   1   6
TORSDOF 6
ENDMDL
MODEL 8
REMARK VINA RESULT:      -5.4      2.522      3.274
REMARK SMILES CNCC[C@H](Oc1cccc2ccccc12)c1cccs1
REMARK SMILES IDX 4 1 3 2 2 3 1 4 5 6 6 7 7 8 8 9 16 10 9 11 15 12 11 13 10 14
REMARK SMILES IDX 14 15 12 16 13 17 17 18 18 19 21 20 19 21 20 22
REMARK H PARENT 2 5
ROOT
ATOM      1  C   UNL     1     -44.658  -3.991 136.508  1.00  0.00     0.066 C 
ENDROOT
BRANCH   1   2
ATOM      2  C   UNL     1     -45.944  -4.379 137.091  1.00  0.00     0.085 C 
BRANCH   2   3
ATOM      3  N   UNL     1     -46.135  -4.530 138.462  1.00  0.00    -0.320 NA
ATOM      4  C   UNL     1     -46.378  -3.426 139.298  1.00  0.00     0.101 C 
ATOM      5  H   UNL     1     -46.462  -5.421 138.838  1.00  0.00     0.122 HD
ENDBRANCH   2   3
ENDBRANCH   1   2
BRANCH   1   6
ATOM      6  C   UNL     1     -43.827  -4.943 135.738  1.00  0.00     0.215 C 
BRANCH   6   7
ATOM      7  O   UNL     1     -42.875  -5.687 136.424  1.00  0.00    -0.484 OA
BRANCH   7   8
ATOM      8  C   UNL     1     -43.060  -7.002 136.777  1.00  0.00     0.128 A 
ATOM      9  C   UNL     1     -43.565  -7.958 135.954  1.00  0.00     0.047 A 
ATOM     10  C   UNL     1     -42.692  -7.361 138.089  1.00  0.00     0.024 A 
ATOM     11  C   UNL     1     -43.707  -9.264 136.423  1.00  0.00     0.004 A 
ATOM     12  C   UNL     1     -42.170  -6.397 138.936  1.00  0.00     0.012 A 
ATOM     13  C   UNL     1     -42.825  -8.649 138.572  1.00  0.00    -0.015 A 
ATOM     14  C   UNL     1     -43.348  -9.611 137.701  1.00  0.00     0.009 A 
ATOM     15  C   UNL     1     -41.806  -6.753 140.215  1.00  0.00     0.001 A 
ATOM     16  C   UNL     1     -42.458  -8.996 139.855  1.00  0.00     0.009 A 
ATOM     17  C   UNL     1     -41.943  -8.040 140.689  1.00  0.00     0.001 A 
ENDBRANCH   7   8
ENDBRANCH   6   7
BRANCH   6  18
ATOM     18  C   UNL     1     -43.115  -4.094 134.695  1.00  0.00     0.045 A 
ATOM     19  C   UNL     1     -41.809  -4.011 134.374  1.00  0.00     0.019 A 
ATOM     20  S   UNL     1     -43.876  -2.935 133.581  1.00  0.00    -0.145 S 
ATOM     21  C   UNL     1     -41.399  -3.190 133.413  1.00  0.00     0.012 A 
ATOM     22  C   UNL     1     -42.358  -2.442 132.775  1.00  0.00     0.065 A 
ENDBRANCH   6  18
ENDBRANCH   1   6
TORSDOF 6
ENDMDL
MODEL 9
REMARK VINA RESULT:      -5.4      1.332      2.654
REMARK SMILES CNCC[C@H](Oc1cccc2ccccc12)c1cccs1
REMARK SMILES IDX 4 1 3 2 2 3 1 4 5 6 6 7 7 8 8 9 16 10 9 11 15 12 11 13 10 14
REMARK SMILES IDX 14 15 12 16 13 17 17 18 18 19 21 20 19 21 20 22
REMARK H PARENT 2 5
ROOT
ATOM      1  C   UNL     1     -43.127  -8.231 134.026  1.00  0.00     0.066 C 
ENDROOT
BRANCH   1   2
ATOM      2  C   UNL     1     -42.070  -8.846 133.221  1.00  0.00     0.085 C 
BRANCH   2   3
ATOM      3  N   UNL     1     -42.330  -9.796 132.235  1.00  0.00    -0.320 NA
ATOM      4  C   UNL     1     -42.479  -9.432 130.884  1.00  0.00     0.101 C 
ATOM      5  H   UNL     1     -42.066 -10.771 132.381  1.00  0.00     0.122 HD
ENDBRANCH   2   3
ENDBRANCH   1   2
BRANCH   1   6
ATOM      6  C   UNL     1     -42.829  -7.256 135.099  1.00  0.00     0.215 C 
BRANCH   6   7
ATOM      7  O   UNL     1     -43.608  -7.289 136.249  1.00  0.00    -0.484 OA
BRANCH   7   8
ATOM      8  C   UNL     1     -43.078  -7.361 137.515  1.00  0.00     0.128 A 
ATOM      9  C   UNL     1     -42.562  -6.304 138.197  1.00  0.00     0.047 A 
ATOM     10  C   UNL     1     -43.082  -8.629 138.129  1.00  0.00     0.024 A 
ATOM     11  C   UNL     1     -42.051  -6.499 139.480  1.00  0.00     0.004 A 
ATOM     12  C   UNL     1     -43.611  -9.712 137.447  1.00  0.00     0.012 A 
ATOM     13  C   UNL     1     -42.581  -8.841 139.400  1.00  0.00    -0.015 A 
ATOM     14  C   UNL     1     -42.056  -7.734 140.076  1.00  0.00     0.009 A 
ATOM     15  C   UNL     1     -43.619 -10.949 138.053  1.00  0.00     0.001 A 
ATOM     16  C   UNL     1     -42.593 -10.083 139.998  1.00  0.00     0.009 A 
ATOM     17  C   UNL     1     -43.116 -11.152 139.320  1.00  0.00     0.001 A 
ENDBRANCH   7   8
ENDBRANCH   6   7
BRANCH   6  18
ATOM     18  C   UNL     1     -42.986  -5.891 134.448  1.00  0.00     0.045 A 
ATOM     19  C   UNL     1     -43.977  -5.391 133.683  1.00  0.00     0.019 A 
ATOM     20  S   UNL     1     -41.833  -4.540 134.543  1.00  0.00    -0.145 S 
ATOM     21  C   UNL     1     -43.909  -4.151 133.212  1.00  0.00     0.012 A 
ATOM     22  C   UNL     1     -42.796  -3.416 133.539  1.00  0.00     0.065 A 
ENDBRANCH   6  18
ENDBRANCH   1   6
TORSDOF 6
ENDMDL
