MODEL 1
REMARK VINA RESULT:      -8.7      0.000      0.000
REMARK SMILES Clc1ccccc1C(c1ccccc1)(c1ccccc1)n1ccnc1
REMARK SMILES IDX 1 1 2 2 3 3 4 4 5 5 6 6 7 7 8 8 9 9 10 10 14 11 11 12 13 13
REMARK SMILES IDX 12 14 15 15 16 16 20 17 17 18 19 19 18 20 21 21 22 22 25 23
REMARK SMILES IDX 23 24 24 25
REMARK H PARENT
ROOT
ATOM      1  Cl  UNL     1      21.736   5.862 -60.179  1.00  0.00    -0.084 Cl
ATOM      2  C   UNL     1      23.167   5.984 -61.178  1.00  0.00     0.047 A 
ATOM      3  C   UNL     1      24.388   5.520 -60.747  1.00  0.00     0.021 A 
ATOM      4  C   UNL     1      25.511   5.584 -61.543  1.00  0.00     0.002 A 
ATOM      5  C   UNL     1      25.381   6.131 -62.796  1.00  0.00     0.001 A 
ATOM      6  C   UNL     1      24.137   6.603 -63.234  1.00  0.00     0.008 A 
ATOM      7  C   UNL     1      23.033   6.536 -62.441  1.00  0.00     0.006 A 
ENDROOT
BRANCH   7   8
ATOM      8  C   UNL     1      21.727   7.067 -62.919  1.00  0.00     0.123 C 
BRANCH   8   9
ATOM      9  C   UNL     1      20.878   5.906 -63.310  1.00  0.00    -0.013 A 
ATOM     10  C   UNL     1      19.547   5.784 -63.082  1.00  0.00     0.007 A 
ATOM     11  C   UNL     1      21.561   4.878 -63.986  1.00  0.00     0.007 A 
ATOM     12  C   UNL     1      18.884   4.650 -63.518  1.00  0.00     0.000 A 
ATOM     13  C   UNL     1      20.897   3.758 -64.416  1.00  0.00     0.000 A 
ATOM     14  C   UNL     1      19.548   3.624 -64.190  1.00  0.00     0.000 A 
ENDBRANCH   8   9
BRANCH   8  15
ATOM     15  C   UNL     1      21.886   7.835 -64.183  1.00  0.00    -0.013 A 
ATOM     16  C   UNL     1      22.780   8.863 -64.332  1.00  0.00     0.007 A 
ATOM     17  C   UNL     1      21.117   7.484 -65.263  1.00  0.00     0.007 A 
ATOM     18  C   UNL     1      22.923   9.548 -65.533  1.00  0.00     0.000 A 
ATOM     19  C   UNL     1      21.244   8.163 -66.487  1.00  0.00     0.000 A 
ATOM     20  C   UNL     1      22.144   9.185 -66.605  1.00  0.00     0.000 A 
ENDBRANCH   8  15
BRANCH   8  21
ATOM     21  N   UNL     1      21.139   7.905 -61.916  1.00  0.00    -0.319 N 
ATOM     22  C   UNL     1      21.728   8.985 -61.332  1.00  0.00     0.109 A 
ATOM     23  C   UNL     1      19.918   7.800 -61.392  1.00  0.00     0.200 A 
ATOM     24  C   UNL     1      20.848   9.546 -60.434  1.00  0.00     0.131 A 
ATOM     25  N   UNL     1      19.749   8.803 -60.490  1.00  0.00    -0.245 NA
ENDBRANCH   8  21
ENDBRANCH   7   8
TORSDOF 4
ENDMDL
MODEL 2
REMARK VINA RESULT:      -8.7      0.392      1.193
REMARK SMILES Clc1ccccc1C(c1ccccc1)(c1ccccc1)n1ccnc1
REMARK SMILES IDX 1 1 2 2 3 3 4 4 5 5 6 6 7 7 8 8 9 9 10 10 14 11 11 12 13 13
REMARK SMILES IDX 12 14 15 15 16 16 20 17 17 18 19 19 18 20 21 21 22 22 25 23
REMARK SMILES IDX 23 24 24 25
REMARK H PARENT
ROOT
ATOM      1  Cl  UNL     1      21.820   5.879 -60.124  1.00  0.00    -0.084 Cl
ATOM      2  C   UNL     1      23.232   5.997 -61.151  1.00  0.00     0.047 A 
ATOM      3  C   UNL     1      24.467   5.558 -60.731  1.00  0.00     0.021 A 
ATOM      4  C   UNL     1      25.574   5.619 -61.549  1.00  0.00     0.002 A 
ATOM      5  C   UNL     1      25.415   6.136 -62.811  1.00  0.00     0.001 A 
ATOM      6  C   UNL     1      24.157   6.582 -63.238  1.00  0.00     0.008 A 
ATOM      7  C   UNL     1      23.069   6.519 -62.424  1.00  0.00     0.006 A 
ENDROOT
BRANCH   7   8
ATOM      8  C   UNL     1      21.748   7.023 -62.889  1.00  0.00     0.123 C 
BRANCH   8   9
ATOM      9  C   UNL     1      20.900   5.842 -63.217  1.00  0.00    -0.013 A 
ATOM     10  C   UNL     1      19.613   5.657 -62.829  1.00  0.00     0.007 A 
ATOM     11  C   UNL     1      21.529   4.867 -64.015  1.00  0.00     0.007 A 
ATOM     12  C   UNL     1      18.943   4.513 -63.224  1.00  0.00     0.000 A 
ATOM     13  C   UNL     1      20.857   3.737 -64.402  1.00  0.00     0.000 A 
ATOM     14  C   UNL     1      19.553   3.539 -64.014  1.00  0.00     0.000 A 
ENDBRANCH   8   9
BRANCH   8  15
ATOM     15  C   UNL     1      21.871   7.745 -64.184  1.00  0.00    -0.013 A 
ATOM     16  C   UNL     1      21.118   7.444 -65.289  1.00  0.00     0.007 A 
ATOM     17  C   UNL     1      22.764   8.781 -64.273  1.00  0.00     0.007 A 
ATOM     18  C   UNL     1      21.238   8.151 -66.479  1.00  0.00     0.000 A 
ATOM     19  C   UNL     1      22.903   9.510 -65.466  1.00  0.00     0.000 A 
ATOM     20  C   UNL     1      22.139   9.186 -66.552  1.00  0.00     0.000 A 
ENDBRANCH   8  15
BRANCH   8  21
ATOM     21  N   UNL     1      21.176   7.893 -61.905  1.00  0.00    -0.319 N 
ATOM     22  C   UNL     1      19.939   7.767 -61.350  1.00  0.00     0.109 A 
ATOM     23  C   UNL     1      21.747   8.957 -61.341  1.00  0.00     0.200 A 
ATOM     24  C   UNL     1      19.754   8.776 -60.431  1.00  0.00     0.131 A 
ATOM     25  N   UNL     1      20.874   9.490 -60.445  1.00  0.00    -0.245 NA
ENDBRANCH   8  21
ENDBRANCH   7   8
TORSDOF 4
ENDMDL
MODEL 3
REMARK VINA RESULT:      -8.4      1.136      4.326
REMARK SMILES Clc1ccccc1C(c1ccccc1)(c1ccccc1)n1ccnc1
REMARK SMILES IDX 1 1 2 2 3 3 4 4 5 5 6 6 7 7 8 8 9 9 10 10 14 11 11 12 13 13
REMARK SMILES IDX 12 14 15 15 16 16 20 17 17 18 19 19 18 20 21 21 22 22 25 23
REMARK SMILES IDX 23 24 24 25
REMARK H PARENT
ROOT
ATOM      1  Cl  UNL     1      23.080   9.125 -61.720  1.00  0.00    -0.084 Cl
ATOM      2  C   UNL     1      22.467   8.923 -63.346  1.00  0.00     0.047 A 
ATOM      3  C   UNL     1      22.610   9.906 -64.298  1.00  0.00     0.021 A 
ATOM      4  C   UNL     1      22.158   9.737 -65.589  1.00  0.00     0.002 A 
ATOM      5  C   UNL     1      21.552   8.547 -65.908  1.00  0.00     0.001 A 
ATOM      6  C   UNL     1      21.407   7.547 -64.938  1.00  0.00     0.008 A 
ATOM      7  C   UNL     1      21.855   7.721 -63.666  1.00  0.00     0.006 A 
ENDROOT
BRANCH   7   8
ATOM      8  C   UNL     1      21.667   6.654 -62.646  1.00  0.00     0.123 C 
BRANCH   8   9
ATOM      9  C   UNL     1      23.012   6.108 -62.305  1.00  0.00    -0.013 A 
ATOM     10  C   UNL     1      23.374   5.580 -61.109  1.00  0.00     0.007 A 
ATOM     11  C   UNL     1      23.950   6.152 -63.354  1.00  0.00     0.007 A 
ATOM     12  C   UNL     1      24.658   5.095 -60.942  1.00  0.00     0.000 A 
ATOM     13  C   UNL     1      25.220   5.667 -63.180  1.00  0.00     0.000 A 
ATOM     14  C   UNL     1      25.598   5.131 -61.972  1.00  0.00     0.000 A 
ENDBRANCH   8   9
BRANCH   8  15
ATOM     15  C   UNL     1      20.941   5.487 -63.213  1.00  0.00    -0.013 A 
ATOM     16  C   UNL     1      21.461   4.677 -64.188  1.00  0.00     0.007 A 
ATOM     17  C   UNL     1      19.696   5.188 -62.720  1.00  0.00     0.007 A 
ATOM     18  C   UNL     1      20.769   3.578 -64.683  1.00  0.00     0.000 A 
ATOM     19  C   UNL     1      18.977   4.082 -63.205  1.00  0.00     0.000 A 
ATOM     20  C   UNL     1      19.522   3.293 -64.179  1.00  0.00     0.000 A 
ENDBRANCH   8  15
BRANCH   8  21
ATOM     21  N   UNL     1      20.947   7.169 -61.519  1.00  0.00    -0.319 N 
ATOM     22  C   UNL     1      21.220   6.910 -60.211  1.00  0.00     0.109 A 
ATOM     23  C   UNL     1      19.906   8.001 -61.540  1.00  0.00     0.200 A 
ATOM     24  C   UNL     1      20.326   7.598 -59.421  1.00  0.00     0.131 A 
ATOM     25  N   UNL     1      19.534   8.257 -60.258  1.00  0.00    -0.245 NA
ENDBRANCH   8  21
ENDBRANCH   7   8
TORSDOF 4
ENDMDL
MODEL 4
REMARK VINA RESULT:      -8.3      1.149      4.428
REMARK SMILES Clc1ccccc1C(c1ccccc1)(c1ccccc1)n1ccnc1
REMARK SMILES IDX 1 1 2 2 3 3 4 4 5 5 6 6 7 7 8 8 9 9 10 10 14 11 11 12 13 13
REMARK SMILES IDX 12 14 15 15 16 16 20 17 17 18 19 19 18 20 21 21 22 22 25 23
REMARK SMILES IDX 23 24 24 25
REMARK H PARENT
ROOT
ATOM      1  Cl  UNL     1      23.202   9.127 -61.856  1.00  0.00    -0.084 Cl
ATOM      2  C   UNL     1      22.510   8.895 -63.446  1.00  0.00     0.047 A 
ATOM      3  C   UNL     1      22.619   9.854 -64.426  1.00  0.00     0.021 A 
ATOM      4  C   UNL     1      22.104   9.661 -65.689  1.00  0.00     0.002 A 
ATOM      5  C   UNL     1      21.469   8.472 -65.952  1.00  0.00     0.001 A 
ATOM      6  C   UNL     1      21.359   7.496 -64.953  1.00  0.00     0.008 A 
ATOM      7  C   UNL     1      21.870   7.694 -63.707  1.00  0.00     0.006 A 
ENDROOT
BRANCH   7   8
ATOM      8  C   UNL     1      21.719   6.653 -62.655  1.00  0.00     0.123 C 
BRANCH   8   9
ATOM      9  C   UNL     1      23.070   6.093 -62.370  1.00  0.00    -0.013 A 
ATOM     10  C   UNL     1      24.099   6.017 -63.251  1.00  0.00     0.007 A 
ATOM     11  C   UNL     1      23.250   5.627 -61.054  1.00  0.00     0.007 A 
ATOM     12  C   UNL     1      25.308   5.484 -62.838  1.00  0.00     0.000 A 
ATOM     13  C   UNL     1      24.451   5.101 -60.654  1.00  0.00     0.000 A 
ATOM     14  C   UNL     1      25.500   5.019 -61.538  1.00  0.00     0.000 A 
ENDBRANCH   8   9
BRANCH   8  15
ATOM     15  C   UNL     1      20.947   5.485 -63.157  1.00  0.00    -0.013 A 
ATOM     16  C   UNL     1      19.709   5.140 -62.683  1.00  0.00     0.007 A 
ATOM     17  C   UNL     1      21.488   4.727 -64.164  1.00  0.00     0.007 A 
ATOM     18  C   UNL     1      19.000   4.056 -63.188  1.00  0.00     0.000 A 
ATOM     19  C   UNL     1      20.790   3.626 -64.690  1.00  0.00     0.000 A 
ATOM     20  C   UNL     1      19.557   3.306 -64.196  1.00  0.00     0.000 A 
ENDBRANCH   8  15
BRANCH   8  21
ATOM     21  N   UNL     1      21.064   7.205 -61.506  1.00  0.00    -0.319 N 
ATOM     22  C   UNL     1      19.998   8.051 -61.524  1.00  0.00     0.109 A 
ATOM     23  C   UNL     1      21.357   6.979 -60.225  1.00  0.00     0.200 A 
ATOM     24  C   UNL     1      19.637   8.347 -60.228  1.00  0.00     0.131 A 
ATOM     25  N   UNL     1      20.484   7.678 -59.454  1.00  0.00    -0.245 NA
ENDBRANCH   8  21
ENDBRANCH   7   8
TORSDOF 4
ENDMDL
MODEL 5
REMARK VINA RESULT:      -8.3      2.202      4.630
REMARK SMILES Clc1ccccc1C(c1ccccc1)(c1ccccc1)n1ccnc1
REMARK SMILES IDX 1 1 2 2 3 3 4 4 5 5 6 6 7 7 8 8 9 9 10 10 14 11 11 12 13 13
REMARK SMILES IDX 12 14 15 15 16 16 20 17 17 18 19 19 18 20 21 21 22 22 25 23
REMARK SMILES IDX 23 24 24 25
REMARK H PARENT
ROOT
ATOM      1  Cl  UNL     1      22.847   6.652 -66.225  1.00  0.00    -0.084 Cl
ATOM      2  C   UNL     1      22.705   8.107 -65.263  1.00  0.00     0.047 A 
ATOM      3  C   UNL     1      22.903   9.354 -65.809  1.00  0.00     0.021 A 
ATOM      4  C   UNL     1      22.761  10.504 -65.062  1.00  0.00     0.002 A 
ATOM      5  C   UNL     1      22.411  10.374 -63.741  1.00  0.00     0.001 A 
ATOM      6  C   UNL     1      22.209   9.104 -63.186  1.00  0.00     0.008 A 
ATOM      7  C   UNL     1      22.353   7.973 -63.929  1.00  0.00     0.006 A 
ENDROOT
BRANCH   7   8
ATOM      8  C   UNL     1      22.158   6.633 -63.312  1.00  0.00     0.123 C 
BRANCH   8   9
ATOM      9  C   UNL     1      21.113   5.917 -64.097  1.00  0.00    -0.013 A 
ATOM     10  C   UNL     1      20.096   6.499 -64.780  1.00  0.00     0.007 A 
ATOM     11  C   UNL     1      21.245   4.515 -64.113  1.00  0.00     0.007 A 
ATOM     12  C   UNL     1      19.206   5.704 -65.480  1.00  0.00     0.000 A 
ATOM     13  C   UNL     1      20.359   3.735 -64.810  1.00  0.00     0.000 A 
ATOM     14  C   UNL     1      19.325   4.314 -65.505  1.00  0.00     0.000 A 
ENDBRANCH   8   9
BRANCH   8  15
ATOM     15  C   UNL     1      21.568   6.746 -61.951  1.00  0.00    -0.013 A 
ATOM     16  C   UNL     1      22.305   6.656 -60.800  1.00  0.00     0.007 A 
ATOM     17  C   UNL     1      20.220   6.977 -61.839  1.00  0.00     0.007 A 
ATOM     18  C   UNL     1      21.730   6.789 -59.542  1.00  0.00     0.000 A 
ATOM     19  C   UNL     1      19.616   7.114 -60.578  1.00  0.00     0.000 A 
ATOM     20  C   UNL     1      20.379   7.018 -59.447  1.00  0.00     0.000 A 
ENDBRANCH   8  15
BRANCH   8  21
ATOM     21  N   UNL     1      23.409   5.938 -63.238  1.00  0.00    -0.319 N 
ATOM     22  C   UNL     1      24.635   6.512 -63.093  1.00  0.00     0.109 A 
ATOM     23  C   UNL     1      23.601   4.619 -63.275  1.00  0.00     0.200 A 
ATOM     24  C   UNL     1      25.591   5.523 -63.042  1.00  0.00     0.131 A 
ATOM     25  N   UNL     1      24.933   4.375 -63.155  1.00  0.00    -0.245 NA
ENDBRANCH   8  21
ENDBRANCH   7   8
TORSDOF 4
ENDMDL
MODEL 6
REMARK VINA RESULT:      -8.3      2.228      4.768
REMARK SMILES Clc1ccccc1C(c1ccccc1)(c1ccccc1)n1ccnc1
REMARK SMILES IDX 1 1 2 2 3 3 4 4 5 5 6 6 7 7 8 8 9 9 10 10 14 11 11 12 13 13
REMARK SMILES IDX 12 14 15 15 16 16 20 17 17 18 19 19 18 20 21 21 22 22 25 23
REMARK SMILES IDX 23 24 24 25
REMARK H PARENT
ROOT
ATOM      1  Cl  UNL     1      22.784   6.658 -66.258  1.00  0.00    -0.084 Cl
ATOM      2  C   UNL     1      22.673   8.116 -65.298  1.00  0.00     0.047 A 
ATOM      3  C   UNL     1      22.863   9.361 -65.852  1.00  0.00     0.021 A 
ATOM      4  C   UNL     1      22.744  10.514 -65.106  1.00  0.00     0.002 A 
ATOM      5  C   UNL     1      22.428  10.390 -63.776  1.00  0.00     0.001 A 
ATOM      6  C   UNL     1      22.235   9.122 -63.212  1.00  0.00     0.008 A 
ATOM      7  C   UNL     1      22.355   7.988 -63.955  1.00  0.00     0.006 A 
ENDROOT
BRANCH   7   8
ATOM      8  C   UNL     1      22.171   6.651 -63.328  1.00  0.00     0.123 C 
BRANCH   8   9
ATOM      9  C   UNL     1      21.128   5.924 -64.105  1.00  0.00    -0.013 A 
ATOM     10  C   UNL     1      20.088   6.493 -64.765  1.00  0.00     0.007 A 
ATOM     11  C   UNL     1      21.286   4.525 -64.139  1.00  0.00     0.007 A 
ATOM     12  C   UNL     1      19.203   5.689 -65.461  1.00  0.00     0.000 A 
ATOM     13  C   UNL     1      20.404   3.736 -64.831  1.00  0.00     0.000 A 
ATOM     14  C   UNL     1      19.348   4.302 -65.503  1.00  0.00     0.000 A 
ENDBRANCH   8   9
BRANCH   8  15
ATOM     15  C   UNL     1      21.585   6.769 -61.966  1.00  0.00    -0.013 A 
ATOM     16  C   UNL     1      20.242   6.916 -61.734  1.00  0.00     0.007 A 
ATOM     17  C   UNL     1      22.425   6.704 -60.884  1.00  0.00     0.007 A 
ATOM     18  C   UNL     1      19.720   7.001 -60.449  1.00  0.00     0.000 A 
ATOM     19  C   UNL     1      21.920   6.787 -59.575  1.00  0.00     0.000 A 
ATOM     20  C   UNL     1      20.575   6.934 -59.376  1.00  0.00     0.000 A 
ENDBRANCH   8  15
BRANCH   8  21
ATOM     21  N   UNL     1      23.426   5.964 -63.255  1.00  0.00    -0.319 N 
ATOM     22  C   UNL     1      23.593   4.615 -63.172  1.00  0.00     0.109 A 
ATOM     23  C   UNL     1      24.644   6.504 -63.275  1.00  0.00     0.200 A 
ATOM     24  C   UNL     1      24.940   4.331 -63.140  1.00  0.00     0.131 A 
ATOM     25  N   UNL     1      25.561   5.503 -63.205  1.00  0.00    -0.245 NA
ENDBRANCH   8  21
ENDBRANCH   7   8
TORSDOF 4
ENDMDL
MODEL 7
REMARK VINA RESULT:      -8.3      0.545      1.521
REMARK SMILES Clc1ccccc1C(c1ccccc1)(c1ccccc1)n1ccnc1
REMARK SMILES IDX 1 1 2 2 3 3 4 4 5 5 6 6 7 7 8 8 9 9 10 10 14 11 11 12 13 13
REMARK SMILES IDX 12 14 15 15 16 16 20 17 17 18 19 19 18 20 21 21 22 22 25 23
REMARK SMILES IDX 23 24 24 25
REMARK H PARENT
ROOT
ATOM      1  Cl  UNL     1      21.829   5.734 -60.330  1.00  0.00    -0.084 Cl
ATOM      2  C   UNL     1      23.296   5.853 -61.275  1.00  0.00     0.047 A 
ATOM      3  C   UNL     1      24.493   5.355 -60.815  1.00  0.00     0.021 A 
ATOM      4  C   UNL     1      25.644   5.417 -61.570  1.00  0.00     0.002 A 
ATOM      5  C   UNL     1      25.568   5.997 -62.812  1.00  0.00     0.001 A 
ATOM      6  C   UNL     1      24.349   6.504 -63.281  1.00  0.00     0.008 A 
ATOM      7  C   UNL     1      23.217   6.439 -62.528  1.00  0.00     0.006 A 
ENDROOT
BRANCH   7   8
ATOM      8  C   UNL     1      21.939   7.007 -63.036  1.00  0.00     0.123 C 
BRANCH   8   9
ATOM      9  C   UNL     1      21.079   5.873 -63.479  1.00  0.00    -0.013 A 
ATOM     10  C   UNL     1      21.521   4.687 -63.968  1.00  0.00     0.007 A 
ATOM     11  C   UNL     1      19.696   6.093 -63.343  1.00  0.00     0.007 A 
ATOM     12  C   UNL     1      20.602   3.716 -64.326  1.00  0.00     0.000 A 
ATOM     13  C   UNL     1      18.793   5.125 -63.699  1.00  0.00     0.000 A 
ATOM     14  C   UNL     1      19.229   3.921 -64.197  1.00  0.00     0.000 A 
ENDBRANCH   8   9
BRANCH   8  15
ATOM     15  C   UNL     1      22.154   7.797 -64.278  1.00  0.00    -0.013 A 
ATOM     16  C   UNL     1      21.976   7.286 -65.536  1.00  0.00     0.007 A 
ATOM     17  C   UNL     1      22.527   9.112 -64.161  1.00  0.00     0.007 A 
ATOM     18  C   UNL     1      22.162   8.055 -66.679  1.00  0.00     0.000 A 
ATOM     19  C   UNL     1      22.722   9.909 -65.302  1.00  0.00     0.000 A 
ATOM     20  C   UNL     1      22.537   9.370 -66.545  1.00  0.00     0.000 A 
ENDBRANCH   8  15
BRANCH   8  21
ATOM     21  N   UNL     1      21.335   7.837 -62.036  1.00  0.00    -0.319 N 
ATOM     22  C   UNL     1      20.080   7.692 -61.528  1.00  0.00     0.109 A 
ATOM     23  C   UNL     1      21.888   8.875 -61.409  1.00  0.00     0.200 A 
ATOM     24  C   UNL     1      19.866   8.662 -60.575  1.00  0.00     0.131 A 
ATOM     25  N   UNL     1      20.986   9.373 -60.522  1.00  0.00    -0.245 NA
ENDBRANCH   8  21
ENDBRANCH   7   8
TORSDOF 4
ENDMDL
MODEL 8
REMARK VINA RESULT:      -8.2      2.010      3.305
REMARK SMILES Clc1ccccc1C(c1ccccc1)(c1ccccc1)n1ccnc1
REMARK SMILES IDX 1 1 2 2 3 3 4 4 5 5 6 6 7 7 8 8 9 9 10 10 14 11 11 12 13 13
REMARK SMILES IDX 12 14 15 15 16 16 20 17 17 18 19 19 18 20 21 21 22 22 25 23
REMARK SMILES IDX 23 24 24 25
REMARK H PARENT
ROOT
ATOM      1  Cl  UNL     1      21.104   7.835 -57.998  1.00  0.00    -0.084 Cl
ATOM      2  C   UNL     1      22.261   6.983 -58.996  1.00  0.00     0.047 A 
ATOM      3  C   UNL     1      23.421   6.461 -58.470  1.00  0.00     0.021 A 
ATOM      4  C   UNL     1      24.319   5.760 -59.246  1.00  0.00     0.002 A 
ATOM      5  C   UNL     1      24.026   5.594 -60.577  1.00  0.00     0.001 A 
ATOM      6  C   UNL     1      22.846   6.126 -61.112  1.00  0.00     0.008 A 
ATOM      7  C   UNL     1      21.965   6.817 -60.339  1.00  0.00     0.006 A 
ENDROOT
BRANCH   7   8
ATOM      8  C   UNL     1      20.729   7.395 -60.935  1.00  0.00     0.123 C 
BRANCH   8   9
ATOM      9  C   UNL     1      19.561   6.692 -60.334  1.00  0.00    -0.013 A 
ATOM     10  C   UNL     1      19.541   5.403 -59.913  1.00  0.00     0.007 A 
ATOM     11  C   UNL     1      18.403   7.482 -60.198  1.00  0.00     0.007 A 
ATOM     12  C   UNL     1      18.384   4.887 -59.357  1.00  0.00     0.000 A 
ATOM     13  C   UNL     1      17.261   6.963 -59.646  1.00  0.00     0.000 A 
ATOM     14  C   UNL     1      17.230   5.658 -59.217  1.00  0.00     0.000 A 
ENDBRANCH   8   9
BRANCH   8  15
ATOM     15  C   UNL     1      20.630   7.079 -62.385  1.00  0.00    -0.013 A 
ATOM     16  C   UNL     1      21.424   7.658 -63.339  1.00  0.00     0.007 A 
ATOM     17  C   UNL     1      19.714   6.140 -62.788  1.00  0.00     0.007 A 
ATOM     18  C   UNL     1      21.324   7.326 -64.685  1.00  0.00     0.000 A 
ATOM     19  C   UNL     1      19.595   5.788 -64.143  1.00  0.00     0.000 A 
ATOM     20  C   UNL     1      20.401   6.385 -65.073  1.00  0.00     0.000 A 
ENDBRANCH   8  15
BRANCH   8  21
ATOM     21  N   UNL     1      20.711   8.816 -60.750  1.00  0.00    -0.319 N 
ATOM     22  C   UNL     1      21.685   9.685 -61.138  1.00  0.00     0.109 A 
ATOM     23  C   UNL     1      19.744   9.544 -60.193  1.00  0.00     0.200 A 
ATOM     24  C   UNL     1      21.302  10.966 -60.808  1.00  0.00     0.131 A 
ATOM     25  N   UNL     1      20.111  10.852 -60.232  1.00  0.00    -0.245 NA
ENDBRANCH   8  21
ENDBRANCH   7   8
TORSDOF 4
ENDMDL
MODEL 9
REMARK VINA RESULT:      -8.1      2.206      4.765
REMARK SMILES Clc1ccccc1C(c1ccccc1)(c1ccccc1)n1ccnc1
REMARK SMILES IDX 1 1 2 2 3 3 4 4 5 5 6 6 7 7 8 8 9 9 10 10 14 11 11 12 13 13
REMARK SMILES IDX 12 14 15 15 16 16 20 17 17 18 19 19 18 20 21 21 22 22 25 23
REMARK SMILES IDX 23 24 24 25
REMARK H PARENT
ROOT
ATOM      1  Cl  UNL     1      22.954   6.505 -66.111  1.00  0.00    -0.084 Cl
ATOM      2  C   UNL     1      22.739   7.966 -65.174  1.00  0.00     0.047 A 
ATOM      3  C   UNL     1      22.915   9.212 -65.731  1.00  0.00     0.021 A 
ATOM      4  C   UNL     1      22.714  10.366 -65.005  1.00  0.00     0.002 A 
ATOM      5  C   UNL     1      22.330  10.243 -63.693  1.00  0.00     0.001 A 
ATOM      6  C   UNL     1      22.151   8.974 -63.126  1.00  0.00     0.008 A 
ATOM      7  C   UNL     1      22.352   7.839 -63.849  1.00  0.00     0.006 A 
ENDROOT
BRANCH   7   8
ATOM      8  C   UNL     1      22.181   6.502 -63.219  1.00  0.00     0.123 C 
BRANCH   8   9
ATOM      9  C   UNL     1      21.222   5.724 -64.053  1.00  0.00    -0.013 A 
ATOM     10  C   UNL     1      21.241   4.381 -64.241  1.00  0.00     0.007 A 
ATOM     11  C   UNL     1      20.216   6.494 -64.668  1.00  0.00     0.007 A 
ATOM     12  C   UNL     1      20.272   3.792 -65.033  1.00  0.00     0.000 A 
ATOM     13  C   UNL     1      19.259   5.902 -65.451  1.00  0.00     0.000 A 
ATOM     14  C   UNL     1      19.270   4.542 -65.648  1.00  0.00     0.000 A 
ENDBRANCH   8   9
BRANCH   8  15
ATOM     15  C   UNL     1      21.502   6.610 -61.900  1.00  0.00    -0.013 A 
ATOM     16  C   UNL     1      20.140   6.622 -61.753  1.00  0.00     0.007 A 
ATOM     17  C   UNL     1      22.275   6.675 -60.769  1.00  0.00     0.007 A 
ATOM     18  C   UNL     1      19.532   6.700 -60.505  1.00  0.00     0.000 A 
ATOM     19  C   UNL     1      21.684   6.755 -59.497  1.00  0.00     0.000 A 
ATOM     20  C   UNL     1      20.321   6.766 -59.382  1.00  0.00     0.000 A 
ENDBRANCH   8  15
BRANCH   8  21
ATOM     21  N   UNL     1      23.455   5.868 -63.055  1.00  0.00    -0.319 N 
ATOM     22  C   UNL     1      24.636   6.500 -62.808  1.00  0.00     0.109 A 
ATOM     23  C   UNL     1      23.716   4.561 -63.089  1.00  0.00     0.200 A 
ATOM     24  C   UNL     1      25.634   5.558 -62.693  1.00  0.00     0.131 A 
ATOM     25  N   UNL     1      25.045   4.381 -62.868  1.00  0.00    -0.245 NA
ENDBRANCH   8  21
ENDBRANCH   7   8
TORSDOF 4
ENDMDL
