MODEL 1
REMARK VINA RESULT:      -5.1      0.000      0.000
REMARK SMILES O=C1Nc2ccc(I)cc2/C1=C/c1cc(Br)c(O)c(Br)c1
REMARK SMILES IDX 13 1 14 2 15 3 16 4 17 5 19 6 20 7 21 8 12 9 1 10 2 11 3 12
REMARK SMILES IDX 11 13 4 14 10 15 5 16 9 17 6 18 7 19 8 21 18 22
REMARK H PARENT 3 20 18 23
ROOT
ATOM      1  C   UNL     1     -18.066  -9.479  17.869  1.00  0.00    -0.022 A 
ATOM      2  C   UNL     1     -16.741  -9.220  17.707  1.00  0.00     0.027 A 
ATOM      3  C   UNL     1     -16.256  -7.975  18.065  1.00  0.00     0.061 A 
ATOM      4  Br  UNL     1     -14.390  -7.614  17.836  1.00  0.00    -0.047 Br
ATOM      5  C   UNL     1     -17.083  -6.992  18.582  1.00  0.00     0.143 A 
ATOM      6  C   UNL     1     -18.410  -7.289  18.730  1.00  0.00     0.061 A 
ATOM      7  Br  UNL     1     -19.615  -5.981  19.435  1.00  0.00    -0.047 Br
ATOM      8  C   UNL     1     -18.911  -8.515  18.382  1.00  0.00     0.027 A 
ENDROOT
BRANCH   1   9
ATOM      9  C   UNL     1     -18.669 -10.765  17.559  1.00  0.00     0.022 C 
ATOM     10  O   UNL     1     -17.688 -10.869  20.422  1.00  0.00    -0.269 OA
ATOM     11  C   UNL     1     -18.241 -11.799  19.789  1.00  0.00     0.256 C 
ATOM     12  N   UNL     1     -18.520 -13.117  20.292  1.00  0.00    -0.321 N 
ATOM     13  C   UNL     1     -18.729 -11.762  18.419  1.00  0.00     0.050 C 
ATOM     14  C   UNL     1     -19.166 -13.891  19.267  1.00  0.00     0.049 A 
ATOM     15  C   UNL     1     -19.295 -13.086  18.141  1.00  0.00     0.012 A 
ATOM     16  C   UNL     1     -19.618 -15.198  19.288  1.00  0.00     0.028 A 
ATOM     17  C   UNL     1     -19.904 -13.667  17.036  1.00  0.00     0.025 A 
ATOM     18  C   UNL     1     -20.217 -15.721  18.155  1.00  0.00     0.017 A 
ATOM     19  C   UNL     1     -20.367 -14.962  17.014  1.00  0.00     0.014 A 
ATOM     20  H   UNL     1     -18.276 -13.415  21.244  1.00  0.00     0.170 HD
ATOM     21  I   UNL     1     -21.287 -15.776  15.290  1.00  0.00    -0.044 I 
ENDBRANCH   1   9
BRANCH   5  22
ATOM     22  O   UNL     1     -16.583  -5.745  18.939  1.00  0.00    -0.506 OA
ATOM     23  H   UNL     1     -16.656  -5.429  19.899  1.00  0.00     0.293 HD
ENDBRANCH   5  22
TORSDOF 2
ENDMDL
MODEL 2
REMARK VINA RESULT:      -5.0      4.672      7.309
REMARK SMILES O=C1Nc2ccc(I)cc2/C1=C/c1cc(Br)c(O)c(Br)c1
REMARK SMILES IDX 13 1 14 2 15 3 16 4 17 5 19 6 20 7 21 8 12 9 1 10 2 11 3 12
REMARK SMILES IDX 11 13 4 14 10 15 5 16 9 17 6 18 7 19 8 21 18 22
REMARK H PARENT 3 20 18 23
ROOT
ATOM      1  C   UNL     1     -19.700 -13.272  17.952  1.00  0.00    -0.022 A 
ATOM      2  C   UNL     1     -20.119 -13.822  16.781  1.00  0.00     0.027 A 
ATOM      3  C   UNL     1     -20.620 -15.112  16.792  1.00  0.00     0.061 A 
ATOM      4  Br  UNL     1     -21.210 -15.884  15.142  1.00  0.00    -0.047 Br
ATOM      5  C   UNL     1     -20.703 -15.851  17.960  1.00  0.00     0.143 A 
ATOM      6  C   UNL     1     -20.271 -15.265  19.117  1.00  0.00     0.061 A 
ATOM      7  Br  UNL     1     -20.353 -16.225  20.770  1.00  0.00    -0.047 Br
ATOM      8  C   UNL     1     -19.773 -13.989  19.129  1.00  0.00     0.027 A 
ENDROOT
BRANCH   1   9
ATOM      9  C   UNL     1     -19.193 -11.914  18.056  1.00  0.00     0.022 C 
ATOM     10  O   UNL     1     -16.841 -13.741  17.510  1.00  0.00    -0.269 OA
ATOM     11  C   UNL     1     -16.796 -12.501  17.686  1.00  0.00     0.256 C 
ATOM     12  N   UNL     1     -15.611 -11.686  17.673  1.00  0.00    -0.321 N 
ATOM     13  C   UNL     1     -17.916 -11.608  17.938  1.00  0.00     0.050 C 
ATOM     14  C   UNL     1     -15.975 -10.315  17.909  1.00  0.00     0.049 A 
ATOM     15  C   UNL     1     -17.354 -10.260  18.069  1.00  0.00     0.012 A 
ATOM     16  C   UNL     1     -15.183  -9.183  17.984  1.00  0.00     0.028 A 
ATOM     17  C   UNL     1     -17.896  -9.002  18.307  1.00  0.00     0.025 A 
ATOM     18  C   UNL     1     -15.781  -7.958  18.223  1.00  0.00     0.017 A 
ATOM     19  C   UNL     1     -17.146  -7.852  18.389  1.00  0.00     0.014 A 
ATOM     20  H   UNL     1     -14.671 -12.068  17.515  1.00  0.00     0.170 HD
ATOM     21  I   UNL     1     -18.046  -5.971  18.753  1.00  0.00    -0.044 I 
ENDBRANCH   1   9
BRANCH   5  22
ATOM     22  O   UNL     1     -21.209 -17.147  17.958  1.00  0.00    -0.506 OA
ATOM     23  H   UNL     1     -21.152 -17.712  18.797  1.00  0.00     0.293 HD
ENDBRANCH   5  22
TORSDOF 2
ENDMDL
MODEL 3
REMARK VINA RESULT:      -5.0      3.765      5.347
REMARK SMILES O=C1Nc2ccc(I)cc2/C1=C/c1cc(Br)c(O)c(Br)c1
REMARK SMILES IDX 13 1 14 2 15 3 16 4 17 5 19 6 20 7 21 8 12 9 1 10 2 11 3 12
REMARK SMILES IDX 11 13 4 14 10 15 5 16 9 17 6 18 7 19 8 21 18 22
REMARK H PARENT 3 20 18 23
ROOT
ATOM      1  C   UNL     1     -19.726 -14.118  16.689  1.00  0.00    -0.022 A 
ATOM      2  C   UNL     1     -18.757 -14.208  17.639  1.00  0.00     0.027 A 
ATOM      3  C   UNL     1     -18.030 -13.075  17.960  1.00  0.00     0.061 A 
ATOM      4  Br  UNL     1     -16.668 -13.204  19.298  1.00  0.00    -0.047 Br
ATOM      5  C   UNL     1     -18.265 -11.859  17.340  1.00  0.00     0.143 A 
ATOM      6  C   UNL     1     -19.247 -11.808  16.389  1.00  0.00     0.061 A 
ATOM      7  Br  UNL     1     -19.628 -10.164  15.487  1.00  0.00    -0.047 Br
ATOM      8  C   UNL     1     -19.979 -12.917  16.057  1.00  0.00     0.027 A 
ENDROOT
BRANCH   1   9
ATOM      9  C   UNL     1     -20.570 -15.238  16.306  1.00  0.00     0.022 C 
ATOM     10  O   UNL     1     -21.815 -13.930  18.737  1.00  0.00    -0.269 OA
ATOM     11  C   UNL     1     -22.242 -14.943  18.134  1.00  0.00     0.256 C 
ATOM     12  N   UNL     1     -23.415 -15.701  18.478  1.00  0.00    -0.321 N 
ATOM     13  C   UNL     1     -21.664 -15.576  16.959  1.00  0.00     0.050 C 
ATOM     14  C   UNL     1     -23.572 -16.784  17.545  1.00  0.00     0.049 A 
ATOM     15  C   UNL     1     -22.527 -16.716  16.631  1.00  0.00     0.012 A 
ATOM     16  C   UNL     1     -24.543 -17.767  17.475  1.00  0.00     0.028 A 
ATOM     17  C   UNL     1     -22.510 -17.691  15.641  1.00  0.00     0.025 A 
ATOM     18  C   UNL     1     -24.472 -18.711  16.464  1.00  0.00     0.017 A 
ATOM     19  C   UNL     1     -23.454 -18.684  15.534  1.00  0.00     0.014 A 
ATOM     20  H   UNL     1     -24.017 -15.468  19.277  1.00  0.00     0.170 HD
ATOM     21  I   UNL     1     -23.363 -20.134  13.994  1.00  0.00    -0.044 I 
ENDBRANCH   1   9
BRANCH   5  22
ATOM     22  O   UNL     1     -17.529 -10.727  17.672  1.00  0.00    -0.506 OA
ATOM     23  H   UNL     1     -17.781 -10.183  18.488  1.00  0.00     0.293 HD
ENDBRANCH   5  22
TORSDOF 2
ENDMDL
MODEL 4
REMARK VINA RESULT:      -5.0      3.740      5.596
REMARK SMILES O=C1Nc2ccc(I)cc2/C1=C/c1cc(Br)c(O)c(Br)c1
REMARK SMILES IDX 13 1 14 2 15 3 16 4 17 5 19 6 20 7 21 8 12 9 1 10 2 11 3 12
REMARK SMILES IDX 11 13 4 14 10 15 5 16 9 17 6 18 7 19 8 21 18 22
REMARK H PARENT 3 20 18 23
ROOT
ATOM      1  C   UNL     1     -19.691 -14.131  16.676  1.00  0.00    -0.022 A 
ATOM      2  C   UNL     1     -19.937 -12.826  16.386  1.00  0.00     0.027 A 
ATOM      3  C   UNL     1     -19.020 -11.869  16.784  1.00  0.00     0.061 A 
ATOM      4  Br  UNL     1     -19.369 -10.032  16.373  1.00  0.00    -0.047 Br
ATOM      5  C   UNL     1     -17.865 -12.208  17.468  1.00  0.00     0.143 A 
ATOM      6  C   UNL     1     -17.652 -13.531  17.743  1.00  0.00     0.061 A 
ATOM      7  Br  UNL     1     -16.079 -14.076  18.685  1.00  0.00    -0.047 Br
ATOM      8  C   UNL     1     -18.546 -14.494  17.357  1.00  0.00     0.027 A 
ENDROOT
BRANCH   1   9
ATOM      9  C   UNL     1     -20.570 -15.215  16.272  1.00  0.00     0.022 C 
ATOM     10  O   UNL     1     -21.627 -14.088  18.876  1.00  0.00    -0.269 OA
ATOM     11  C   UNL     1     -22.106 -15.051  18.232  1.00  0.00     0.256 C 
ATOM     12  N   UNL     1     -23.258 -15.828  18.602  1.00  0.00    -0.321 N 
ATOM     13  C   UNL     1     -21.619 -15.597  16.975  1.00  0.00     0.050 C 
ATOM     14  C   UNL     1     -23.491 -16.838  17.604  1.00  0.00     0.049 A 
ATOM     15  C   UNL     1     -22.513 -16.705  16.626  1.00  0.00     0.012 A 
ATOM     16  C   UNL     1     -24.474 -17.808  17.531  1.00  0.00     0.028 A 
ATOM     17  C   UNL     1     -22.577 -17.603  15.567  1.00  0.00     0.025 A 
ATOM     18  C   UNL     1     -24.485 -18.674  16.450  1.00  0.00     0.017 A 
ATOM     19  C   UNL     1     -23.535 -18.582  15.455  1.00  0.00     0.014 A 
ATOM     20  H   UNL     1     -23.800 -15.653  19.457  1.00  0.00     0.170 HD
ATOM     21  I   UNL     1     -23.568 -19.913  13.809  1.00  0.00    -0.044 I 
ENDBRANCH   1   9
BRANCH   5  22
ATOM     22  O   UNL     1     -16.950 -11.238  17.861  1.00  0.00    -0.506 OA
ATOM     23  H   UNL     1     -17.207 -10.258  17.828  1.00  0.00     0.293 HD
ENDBRANCH   5  22
TORSDOF 2
ENDMDL
MODEL 5
REMARK VINA RESULT:      -5.0      6.406      9.237
REMARK SMILES O=C1Nc2ccc(I)cc2/C1=C/c1cc(Br)c(O)c(Br)c1
REMARK SMILES IDX 13 1 14 2 15 3 16 4 17 5 19 6 20 7 21 8 12 9 1 10 2 11 3 12
REMARK SMILES IDX 11 13 4 14 10 15 5 16 9 17 6 18 7 19 8 21 18 22
REMARK H PARENT 3 20 18 23
ROOT
ATOM      1  C   UNL     1     -20.806 -17.130  15.772  1.00  0.00    -0.022 A 
ATOM      2  C   UNL     1     -21.898 -17.501  15.052  1.00  0.00     0.027 A 
ATOM      3  C   UNL     1     -22.032 -18.827  14.678  1.00  0.00     0.061 A 
ATOM      4  Br  UNL     1     -23.571 -19.346  13.665  1.00  0.00    -0.047 Br
ATOM      5  C   UNL     1     -21.086 -19.778  15.018  1.00  0.00     0.143 A 
ATOM      6  C   UNL     1     -20.001 -19.368  15.742  1.00  0.00     0.061 A 
ATOM      7  Br  UNL     1     -18.650 -20.625  16.248  1.00  0.00    -0.047 Br
ATOM      8  C   UNL     1     -19.849 -18.061  16.123  1.00  0.00     0.027 A 
ENDROOT
BRANCH   1   9
ATOM      9  C   UNL     1     -20.589 -15.774  16.245  1.00  0.00     0.022 C 
ATOM     10  O   UNL     1     -22.444 -17.150  18.203  1.00  0.00    -0.269 OA
ATOM     11  C   UNL     1     -22.047 -15.962  18.261  1.00  0.00     0.256 C 
ATOM     12  N   UNL     1     -22.399 -15.001  19.271  1.00  0.00    -0.321 N 
ATOM     13  C   UNL     1     -21.148 -15.290  17.337  1.00  0.00     0.050 C 
ATOM     14  C   UNL     1     -21.738 -13.755  18.991  1.00  0.00     0.049 A 
ATOM     15  C   UNL     1     -20.987 -13.920  17.834  1.00  0.00     0.012 A 
ATOM     16  C   UNL     1     -21.772 -12.554  19.678  1.00  0.00     0.028 A 
ATOM     17  C   UNL     1     -20.269 -12.810  17.403  1.00  0.00     0.025 A 
ATOM     18  C   UNL     1     -21.035 -11.485  19.199  1.00  0.00     0.017 A 
ATOM     19  C   UNL     1     -20.274 -11.599  18.055  1.00  0.00     0.014 A 
ATOM     20  H   UNL     1     -23.029 -15.216  20.053  1.00  0.00     0.170 HD
ATOM     21  I   UNL     1     -19.151  -9.954  17.337  1.00  0.00    -0.044 I 
ENDBRANCH   1   9
BRANCH   5  22
ATOM     22  O   UNL     1     -21.233 -21.108  14.638  1.00  0.00    -0.506 OA
ATOM     23  H   UNL     1     -22.112 -21.428  14.249  1.00  0.00     0.293 HD
ENDBRANCH   5  22
TORSDOF 2
ENDMDL
MODEL 6
REMARK VINA RESULT:      -4.9      0.367      2.068
REMARK SMILES O=C1Nc2ccc(I)cc2/C1=C/c1cc(Br)c(O)c(Br)c1
REMARK SMILES IDX 13 1 14 2 15 3 16 4 17 5 19 6 20 7 21 8 12 9 1 10 2 11 3 12
REMARK SMILES IDX 11 13 4 14 10 15 5 16 9 17 6 18 7 19 8 21 18 22
REMARK H PARENT 3 20 18 23
ROOT
ATOM      1  C   UNL     1     -18.406  -9.585  18.044  1.00  0.00    -0.022 A 
ATOM      2  C   UNL     1     -19.164  -8.543  18.478  1.00  0.00     0.027 A 
ATOM      3  C   UNL     1     -18.545  -7.337  18.756  1.00  0.00     0.061 A 
ATOM      4  Br  UNL     1     -19.615  -5.872  19.367  1.00  0.00    -0.047 Br
ATOM      5  C   UNL     1     -17.179  -7.167  18.602  1.00  0.00     0.143 A 
ATOM      6  C   UNL     1     -16.449  -8.238  18.164  1.00  0.00     0.061 A 
ATOM      7  Br  UNL     1     -14.557  -8.081  17.929  1.00  0.00    -0.047 Br
ATOM      8  C   UNL     1     -17.042  -9.440  17.883  1.00  0.00     0.027 A 
ENDROOT
BRANCH   1   9
ATOM      9  C   UNL     1     -18.962 -10.880  17.690  1.00  0.00     0.022 C 
ATOM     10  O   UNL     1     -18.245 -10.951  20.632  1.00  0.00    -0.269 OA
ATOM     11  C   UNL     1     -18.727 -11.893  19.958  1.00  0.00     0.256 C 
ATOM     12  N   UNL     1     -19.034 -13.211  20.445  1.00  0.00    -0.321 N 
ATOM     13  C   UNL     1     -19.087 -11.872  18.550  1.00  0.00     0.050 C 
ATOM     14  C   UNL     1     -19.574 -14.000  19.372  1.00  0.00     0.049 A 
ATOM     15  C   UNL     1     -19.609 -13.205  18.233  1.00  0.00     0.012 A 
ATOM     16  C   UNL     1     -20.009 -15.313  19.362  1.00  0.00     0.028 A 
ATOM     17  C   UNL     1     -20.108 -13.802  17.081  1.00  0.00     0.025 A 
ATOM     18  C   UNL     1     -20.496 -15.852  18.184  1.00  0.00     0.017 A 
ATOM     19  C   UNL     1     -20.551 -15.103  17.027  1.00  0.00     0.014 A 
ATOM     20  H   UNL     1     -18.874 -13.499  21.418  1.00  0.00     0.170 HD
ATOM     21  I   UNL     1     -21.300 -15.941  15.234  1.00  0.00    -0.044 I 
ENDBRANCH   1   9
BRANCH   5  22
ATOM     22  O   UNL     1     -16.568  -5.950  18.883  1.00  0.00    -0.506 OA
ATOM     23  H   UNL     1     -16.189  -5.390  18.128  1.00  0.00     0.293 HD
ENDBRANCH   5  22
TORSDOF 2
ENDMDL
MODEL 7
REMARK VINA RESULT:      -4.9      4.718      7.356
REMARK SMILES O=C1Nc2ccc(I)cc2/C1=C/c1cc(Br)c(O)c(Br)c1
REMARK SMILES IDX 13 1 14 2 15 3 16 4 17 5 19 6 20 7 21 8 12 9 1 10 2 11 3 12
REMARK SMILES IDX 11 13 4 14 10 15 5 16 9 17 6 18 7 19 8 21 18 22
REMARK H PARENT 3 20 18 23
ROOT
ATOM      1  C   UNL     1     -19.722 -13.391  18.169  1.00  0.00    -0.022 A 
ATOM      2  C   UNL     1     -19.751 -14.216  19.250  1.00  0.00     0.027 A 
ATOM      3  C   UNL     1     -20.217 -15.509  19.091  1.00  0.00     0.061 A 
ATOM      4  Br  UNL     1     -20.256 -16.667  20.614  1.00  0.00    -0.047 Br
ATOM      5  C   UNL     1     -20.653 -15.980  17.864  1.00  0.00     0.143 A 
ATOM      6  C   UNL     1     -20.609 -15.121  16.800  1.00  0.00     0.061 A 
ATOM      7  Br  UNL     1     -21.196 -15.699  15.073  1.00  0.00    -0.047 Br
ATOM      8  C   UNL     1     -20.151 -13.838  16.935  1.00  0.00     0.027 A 
ENDROOT
BRANCH   1   9
ATOM      9  C   UNL     1     -19.217 -12.029  18.221  1.00  0.00     0.022 C 
ATOM     10  O   UNL     1     -16.881 -13.861  17.622  1.00  0.00    -0.269 OA
ATOM     11  C   UNL     1     -16.835 -12.616  17.768  1.00  0.00     0.256 C 
ATOM     12  N   UNL     1     -15.655 -11.797  17.688  1.00  0.00    -0.321 N 
ATOM     13  C   UNL     1     -17.947 -11.722  18.044  1.00  0.00     0.050 C 
ATOM     14  C   UNL     1     -16.014 -10.423  17.908  1.00  0.00     0.049 A 
ATOM     15  C   UNL     1     -17.386 -10.369  18.121  1.00  0.00     0.012 A 
ATOM     16  C   UNL     1     -15.225  -9.287  17.924  1.00  0.00     0.028 A 
ATOM     17  C   UNL     1     -17.924  -9.108  18.353  1.00  0.00     0.025 A 
ATOM     18  C   UNL     1     -15.819  -8.059  18.159  1.00  0.00     0.017 A 
ATOM     19  C   UNL     1     -17.176  -7.954  18.377  1.00  0.00     0.014 A 
ATOM     20  H   UNL     1     -14.720 -12.180  17.501  1.00  0.00     0.170 HD
ATOM     21  I   UNL     1     -18.069  -6.068  18.734  1.00  0.00    -0.044 I 
ENDBRANCH   1   9
BRANCH   5  22
ATOM     22  O   UNL     1     -21.118 -17.282  17.716  1.00  0.00    -0.506 OA
ATOM     23  H   UNL     1     -22.061 -17.516  18.003  1.00  0.00     0.293 HD
ENDBRANCH   5  22
TORSDOF 2
ENDMDL
MODEL 8
REMARK VINA RESULT:      -4.9      1.505      2.421
REMARK SMILES O=C1Nc2ccc(I)cc2/C1=C/c1cc(Br)c(O)c(Br)c1
REMARK SMILES IDX 13 1 14 2 15 3 16 4 17 5 19 6 20 7 21 8 12 9 1 10 2 11 3 12
REMARK SMILES IDX 11 13 4 14 10 15 5 16 9 17 6 18 7 19 8 21 18 22
REMARK H PARENT 3 20 18 23
ROOT
ATOM      1  C   UNL     1     -17.800  -9.859  18.114  1.00  0.00    -0.022 A 
ATOM      2  C   UNL     1     -18.300  -8.594  18.114  1.00  0.00     0.027 A 
ATOM      3  C   UNL     1     -17.456  -7.543  18.426  1.00  0.00     0.061 A 
ATOM      4  Br  UNL     1     -18.162  -5.763  18.424  1.00  0.00    -0.047 Br
ATOM      5  C   UNL     1     -16.122  -7.747  18.737  1.00  0.00     0.143 A 
ATOM      6  C   UNL     1     -15.656  -9.033  18.728  1.00  0.00     0.061 A 
ATOM      7  Br  UNL     1     -13.825  -9.395  19.148  1.00  0.00    -0.047 Br
ATOM      8  C   UNL     1     -16.474 -10.088  18.421  1.00  0.00     0.027 A 
ENDROOT
BRANCH   1   9
ATOM      9  C   UNL     1     -18.592 -11.026  17.766  1.00  0.00     0.022 C 
ATOM     10  O   UNL     1     -19.434 -10.129  20.533  1.00  0.00    -0.269 OA
ATOM     11  C   UNL     1     -19.875 -11.119  19.904  1.00  0.00     0.256 C 
ATOM     12  N   UNL     1     -20.873 -12.044  20.372  1.00  0.00    -0.321 N 
ATOM     13  C   UNL     1     -19.491 -11.557  18.572  1.00  0.00     0.050 C 
ATOM     14  C   UNL     1     -21.112 -13.038  19.360  1.00  0.00     0.049 A 
ATOM     15  C   UNL     1     -20.288 -12.753  18.279  1.00  0.00     0.012 A 
ATOM     16  C   UNL     1     -21.977 -14.117  19.359  1.00  0.00     0.028 A 
ATOM     17  C   UNL     1     -20.380 -13.614  17.192  1.00  0.00     0.025 A 
ATOM     18  C   UNL     1     -22.023 -14.939  18.246  1.00  0.00     0.017 A 
ATOM     19  C   UNL     1     -21.225 -14.698  17.148  1.00  0.00     0.014 A 
ATOM     20  H   UNL     1     -21.319 -11.966  21.294  1.00  0.00     0.170 HD
ATOM     21  I   UNL     1     -21.311 -15.963  15.453  1.00  0.00    -0.044 I 
ENDBRANCH   1   9
BRANCH   5  22
ATOM     22  O   UNL     1     -15.283  -6.682  19.048  1.00  0.00    -0.506 OA
ATOM     23  H   UNL     1     -15.615  -5.731  18.941  1.00  0.00     0.293 HD
ENDBRANCH   5  22
TORSDOF 2
ENDMDL
MODEL 9
REMARK VINA RESULT:      -4.8      1.941      2.313
REMARK SMILES O=C1Nc2ccc(I)cc2/C1=C/c1cc(Br)c(O)c(Br)c1
REMARK SMILES IDX 13 1 14 2 15 3 16 4 17 5 19 6 20 7 21 8 12 9 1 10 2 11 3 12
REMARK SMILES IDX 11 13 4 14 10 15 5 16 9 17 6 18 7 19 8 21 18 22
REMARK H PARENT 3 20 18 23
ROOT
ATOM      1  C   UNL     1     -17.499  -9.572  18.747  1.00  0.00    -0.022 A 
ATOM      2  C   UNL     1     -16.245  -9.173  18.404  1.00  0.00     0.027 A 
ATOM      3  C   UNL     1     -15.953  -7.821  18.396  1.00  0.00     0.061 A 
ATOM      4  Br  UNL     1     -14.187  -7.263  17.913  1.00  0.00    -0.047 Br
ATOM      5  C   UNL     1     -16.902  -6.869  18.728  1.00  0.00     0.143 A 
ATOM      6  C   UNL     1     -18.153  -7.308  19.068  1.00  0.00     0.061 A 
ATOM      7  Br  UNL     1     -19.518  -6.053  19.537  1.00  0.00    -0.047 Br
ATOM      8  C   UNL     1     -18.462  -8.642  19.082  1.00  0.00     0.027 A 
ENDROOT
BRANCH   1   9
ATOM      9  C   UNL     1     -17.897 -10.967  18.822  1.00  0.00     0.022 C 
ATOM     10  O   UNL     1     -18.834  -9.878  16.156  1.00  0.00    -0.269 OA
ATOM     11  C   UNL     1     -19.015 -11.039  16.593  1.00  0.00     0.256 C 
ATOM     12  N   UNL     1     -19.716 -12.098  15.916  1.00  0.00    -0.321 N 
ATOM     13  C   UNL     1     -18.563 -11.581  17.863  1.00  0.00     0.050 C 
ATOM     14  C   UNL     1     -19.705 -13.277  16.740  1.00  0.00     0.049 A 
ATOM     15  C   UNL     1     -19.016 -12.976  17.908  1.00  0.00     0.012 A 
ATOM     16  C   UNL     1     -20.247 -14.529  16.510  1.00  0.00     0.028 A 
ATOM     17  C   UNL     1     -18.899 -14.004  18.835  1.00  0.00     0.025 A 
ATOM     18  C   UNL     1     -20.097 -15.512  17.473  1.00  0.00     0.017 A 
ATOM     19  C   UNL     1     -19.421 -15.262  18.648  1.00  0.00     0.014 A 
ATOM     20  H   UNL     1     -20.143 -11.983  14.989  1.00  0.00     0.170 HD
ATOM     21  I   UNL     1     -19.200 -16.778  20.109  1.00  0.00    -0.044 I 
ENDBRANCH   1   9
BRANCH   5  22
ATOM     22  O   UNL     1     -16.597  -5.512  18.719  1.00  0.00    -0.506 OA
ATOM     23  H   UNL     1     -16.361  -5.042  19.585  1.00  0.00     0.293 HD
ENDBRANCH   5  22
TORSDOF 2
ENDMDL
