MODEL 1
REMARK VINA RESULT:      -8.2      0.000      0.000
REMARK SMILES Cc1c(C(=O)[O-])c([O-])cc2c1C(=O)c1c([O-])c([C@H]3O[C@H](CO)[C@@H](O)[C@H](O)[C@H]3O)c([O-])c([O-])c1C2=O
REMARK SMILES IDX 18 1 19 2 20 3 23 4 25 5 27 6 17 7 2 8 3 9 11 10 7 11 10 12
REMARK SMILES IDX 12 13 9 14 34 15 13 16 14 17 33 18 35 19 15 20 31 21 29 22
REMARK SMILES IDX 1 23 8 24 16 25 32 26 30 27 4 28 5 29 6 30 28 31 21 33 22 34
REMARK SMILES IDX 26 36 24 38
REMARK H PARENT 28 32 22 35 26 37 24 39
ROOT
ATOM      1  C   UNL     1      14.268   6.913 -58.325  1.00  0.00     0.179 C 
ATOM      2  O   UNL     1      13.498   5.818 -58.136  1.00  0.00    -0.362 OA
ATOM      3  C   UNL     1      12.607   5.455 -59.066  1.00  0.00     0.176 C 
ATOM      4  C   UNL     1      12.885   5.799 -60.478  1.00  0.00     0.177 C 
ATOM      5  C   UNL     1      13.667   7.040 -60.701  1.00  0.00     0.177 C 
ATOM      6  C   UNL     1      13.852   7.822 -59.442  1.00  0.00     0.179 C 
ENDROOT
BRANCH   1   7
ATOM      7  C   UNL     1      14.496   7.706 -57.075  1.00  0.00    -0.032 A 
ATOM      8  C   UNL     1      18.879  10.392 -53.534  1.00  0.00    -0.031 A 
ATOM      9  C   UNL     1      19.109  11.122 -52.387  1.00  0.00    -0.007 A 
ATOM     10  C   UNL     1      17.611  10.003 -53.925  1.00  0.00     0.037 A 
ATOM     11  C   UNL     1      18.056  11.495 -51.577  1.00  0.00    -0.099 A 
ATOM     12  C   UNL     1      16.554  10.378 -53.111  1.00  0.00     0.033 A 
ATOM     13  C   UNL     1      17.353   9.230 -55.137  1.00  0.00     0.194 C 
ATOM     14  C   UNL     1      16.768  11.108 -51.960  1.00  0.00     0.005 A 
ATOM     15  C   UNL     1      15.209   9.975 -53.510  1.00  0.00     0.193 C 
ATOM     16  O   UNL     1      18.297   8.890 -55.872  1.00  0.00    -0.289 OA
ATOM     17  C   UNL     1      16.004   8.825 -55.540  1.00  0.00     0.026 A 
ATOM     18  C   UNL     1      14.955   9.199 -54.728  1.00  0.00     0.025 A 
ATOM     19  O   UNL     1      14.237  10.299 -52.795  1.00  0.00    -0.289 OA
ATOM     20  C   UNL     1      15.762   8.094 -56.684  1.00  0.00    -0.091 A 
ATOM     21  C   UNL     1      13.679   8.821 -55.100  1.00  0.00    -0.105 A 
ATOM     22  C   UNL     1      13.459   8.091 -56.250  1.00  0.00    -0.111 A 
ATOM     23  C   UNL     1      20.031  10.006 -54.383  1.00  0.00     0.046 C 
ATOM     24  O   UNL     1      18.246  12.235 -50.405  1.00  0.00    -0.872 OA
ATOM     25  O   UNL     1      16.847   7.744 -57.463  1.00  0.00    -0.872 OA
ATOM     26  O   UNL     1      12.632   9.209 -54.266  1.00  0.00    -0.872 OA
ATOM     27  O   UNL     1      12.175   7.713 -56.621  1.00  0.00    -0.873 OA
BRANCH   9  28
ATOM     28  C   UNL     1      20.450  11.530 -51.978  1.00  0.00     0.071 C 
ATOM     29  O   UNL     1      21.182  10.874 -51.214  1.00  0.00    -0.545 OA
ATOM     30  O   UNL     1      20.918  12.738 -52.491  1.00  0.00    -0.545 OA
ENDBRANCH   9  28
ENDBRANCH   1   7
BRANCH   6  31
ATOM     31  O   UNL     1      12.737   8.582 -59.165  1.00  0.00    -0.387 OA
ATOM     32  H   UNL     1      12.563   8.592 -58.192  1.00  0.00     0.211 HD
ENDBRANCH   6  31
BRANCH   3  33
ATOM     33  C   UNL     1      12.458   3.926 -59.000  1.00  0.00     0.191 C 
BRANCH  33  34
ATOM     34  O   UNL     1      13.495   3.285 -59.643  1.00  0.00    -0.394 OA
ATOM     35  H   UNL     1      13.410   2.287 -59.592  1.00  0.00     0.210 HD
ENDBRANCH  33  34
ENDBRANCH   3  33
BRANCH   5  36
ATOM     36  O   UNL     1      14.898   6.797 -61.318  1.00  0.00    -0.387 OA
ATOM     37  H   UNL     1      15.657   6.953 -60.708  1.00  0.00     0.211 HD
ENDBRANCH   5  36
BRANCH   4  38
ATOM     38  O   UNL     1      11.646   5.850 -61.159  1.00  0.00    -0.388 OA
ATOM     39  H   UNL     1      11.160   4.995 -60.928  1.00  0.00     0.211 HD
ENDBRANCH   4  38
TORSDOF 7
ENDMDL
MODEL 2
REMARK VINA RESULT:      -8.0      1.227      2.277
REMARK SMILES Cc1c(C(=O)[O-])c([O-])cc2c1C(=O)c1c([O-])c([C@H]3O[C@H](CO)[C@@H](O)[C@H](O)[C@H]3O)c([O-])c([O-])c1C2=O
REMARK SMILES IDX 18 1 19 2 20 3 23 4 25 5 27 6 17 7 2 8 3 9 11 10 7 11 10 12
REMARK SMILES IDX 12 13 9 14 34 15 13 16 14 17 33 18 35 19 15 20 31 21 29 22
REMARK SMILES IDX 1 23 8 24 16 25 32 26 30 27 4 28 5 29 6 30 28 31 21 33 22 34
REMARK SMILES IDX 26 36 24 38
REMARK H PARENT 28 32 22 35 26 37 24 39
ROOT
ATOM      1  C   UNL     1      13.333   7.528 -57.491  1.00  0.00     0.179 C 
ATOM      2  O   UNL     1      13.399   8.263 -58.625  1.00  0.00    -0.362 OA
ATOM      3  C   UNL     1      13.536   7.656 -59.810  1.00  0.00     0.176 C 
ATOM      4  C   UNL     1      12.986   6.292 -59.969  1.00  0.00     0.177 C 
ATOM      5  C   UNL     1      12.977   5.450 -58.747  1.00  0.00     0.177 C 
ATOM      6  C   UNL     1      13.722   6.086 -57.620  1.00  0.00     0.179 C 
ENDROOT
BRANCH   1   7
ATOM      7  C   UNL     1      14.049   8.152 -56.333  1.00  0.00    -0.032 A 
ATOM      8  C   UNL     1      19.525  10.483 -54.451  1.00  0.00    -0.031 A 
ATOM      9  C   UNL     1      20.202  11.059 -53.396  1.00  0.00    -0.007 A 
ATOM     10  C   UNL     1      18.198  10.107 -54.366  1.00  0.00     0.037 A 
ATOM     11  C   UNL     1      19.558  11.283 -52.197  1.00  0.00    -0.099 A 
ATOM     12  C   UNL     1      17.551  10.333 -53.160  1.00  0.00     0.033 A 
ATOM     13  C   UNL     1      17.470   9.497 -55.474  1.00  0.00     0.194 C 
ATOM     14  C   UNL     1      18.214  10.908 -52.095  1.00  0.00     0.005 A 
ATOM     15  C   UNL     1      16.149   9.942 -53.054  1.00  0.00     0.193 C 
ATOM     16  O   UNL     1      18.043   9.292 -56.559  1.00  0.00    -0.289 OA
ATOM     17  C   UNL     1      16.062   9.104 -55.371  1.00  0.00     0.026 A 
ATOM     18  C   UNL     1      15.423   9.330 -54.170  1.00  0.00     0.025 A 
ATOM     19  O   UNL     1      15.542  10.134 -51.979  1.00  0.00    -0.289 OA
ATOM     20  C   UNL     1      15.376   8.527 -56.418  1.00  0.00    -0.091 A 
ATOM     21  C   UNL     1      14.095   8.962 -54.063  1.00  0.00    -0.105 A 
ATOM     22  C   UNL     1      13.427   8.386 -55.124  1.00  0.00    -0.111 A 
ATOM     23  C   UNL     1      20.245  10.255 -55.727  1.00  0.00     0.046 C 
ATOM     24  O   UNL     1      20.207  11.864 -51.102  1.00  0.00    -0.872 OA
ATOM     25  O   UNL     1      16.061   8.322 -57.598  1.00  0.00    -0.872 OA
ATOM     26  O   UNL     1      13.465   9.198 -52.842  1.00  0.00    -0.872 OA
ATOM     27  O   UNL     1      12.092   8.018 -55.013  1.00  0.00    -0.873 OA
BRANCH   9  28
ATOM     28  C   UNL     1      21.604  11.453 -53.490  1.00  0.00     0.071 C 
ATOM     29  O   UNL     1      22.565  10.680 -53.323  1.00  0.00    -0.545 OA
ATOM     30  O   UNL     1      21.857  12.790 -53.791  1.00  0.00    -0.545 OA
ENDBRANCH   9  28
ENDBRANCH   1   7
BRANCH   6  31
ATOM     31  O   UNL     1      15.078   5.878 -57.746  1.00  0.00    -0.387 OA
ATOM     32  H   UNL     1      15.268   4.914 -57.856  1.00  0.00     0.211 HD
ENDBRANCH   6  31
BRANCH   3  33
ATOM     33  C   UNL     1      12.852   8.538 -60.868  1.00  0.00     0.191 C 
BRANCH  33  34
ATOM     34  O   UNL     1      12.379   9.712 -60.325  1.00  0.00    -0.394 OA
ATOM     35  H   UNL     1      12.667   9.829 -59.371  1.00  0.00     0.210 HD
ENDBRANCH  33  34
ENDBRANCH   3  33
BRANCH   5  36
ATOM     36  O   UNL     1      11.684   5.096 -58.347  1.00  0.00    -0.387 OA
ATOM     37  H   UNL     1      11.406   5.569 -57.528  1.00  0.00     0.211 HD
ENDBRANCH   5  36
BRANCH   4  38
ATOM     38  O   UNL     1      13.701   5.660 -61.015  1.00  0.00    -0.388 OA
ATOM     39  H   UNL     1      13.007   5.288 -61.647  1.00  0.00     0.211 HD
ENDBRANCH   4  38
TORSDOF 7
ENDMDL
MODEL 3
REMARK VINA RESULT:      -7.3      2.392      3.763
REMARK SMILES Cc1c(C(=O)[O-])c([O-])cc2c1C(=O)c1c([O-])c([C@H]3O[C@H](CO)[C@@H](O)[C@H](O)[C@H]3O)c([O-])c([O-])c1C2=O
REMARK SMILES IDX 18 1 19 2 20 3 23 4 25 5 27 6 17 7 2 8 3 9 11 10 7 11 10 12
REMARK SMILES IDX 12 13 9 14 34 15 13 16 14 17 33 18 35 19 15 20 31 21 29 22
REMARK SMILES IDX 1 23 8 24 16 25 32 26 30 27 4 28 5 29 6 30 28 31 21 33 22 34
REMARK SMILES IDX 26 36 24 38
REMARK H PARENT 28 32 22 35 26 37 24 39
ROOT
ATOM      1  C   UNL     1      13.499   6.619 -58.523  1.00  0.00     0.179 C 
ATOM      2  O   UNL     1      12.762   7.475 -59.268  1.00  0.00    -0.362 OA
ATOM      3  C   UNL     1      12.310   7.100 -60.470  1.00  0.00     0.176 C 
ATOM      4  C   UNL     1      12.043   5.664 -60.705  1.00  0.00     0.177 C 
ATOM      5  C   UNL     1      12.896   4.714 -59.948  1.00  0.00     0.177 C 
ATOM      6  C   UNL     1      14.012   5.405 -59.236  1.00  0.00     0.179 C 
ENDROOT
BRANCH   1   7
ATOM      7  C   UNL     1      14.612   7.285 -57.774  1.00  0.00    -0.032 A 
ATOM      8  C   UNL     1      16.679  12.774 -55.639  1.00  0.00    -0.031 A 
ATOM      9  C   UNL     1      17.694  13.406 -54.951  1.00  0.00    -0.007 A 
ATOM     10  C   UNL     1      16.678  11.413 -55.878  1.00  0.00     0.037 A 
ATOM     11  C   UNL     1      18.764  12.680 -54.470  1.00  0.00    -0.099 A 
ATOM     12  C   UNL     1      17.753  10.683 -55.394  1.00  0.00     0.033 A 
ATOM     13  C   UNL     1      15.610  10.732 -56.604  1.00  0.00     0.194 C 
ATOM     14  C   UNL     1      18.777  11.301 -54.704  1.00  0.00     0.005 A 
ATOM     15  C   UNL     1      17.767   9.245 -55.638  1.00  0.00     0.193 C 
ATOM     16  O   UNL     1      14.642  11.379 -57.041  1.00  0.00    -0.289 OA
ATOM     17  C   UNL     1      15.621   9.287 -56.850  1.00  0.00     0.026 A 
ATOM     18  C   UNL     1      16.693   8.566 -56.367  1.00  0.00     0.025 A 
ATOM     19  O   UNL     1      18.724   8.563 -55.212  1.00  0.00    -0.289 OA
ATOM     20  C   UNL     1      14.613   8.645 -57.536  1.00  0.00    -0.091 A 
ATOM     21  C   UNL     1      16.712   7.203 -56.594  1.00  0.00    -0.105 A 
ATOM     22  C   UNL     1      15.692   6.580 -57.283  1.00  0.00    -0.111 A 
ATOM     23  C   UNL     1      15.543  13.582 -56.144  1.00  0.00     0.046 C 
ATOM     24  O   UNL     1      19.814  13.281 -53.768  1.00  0.00    -0.872 OA
ATOM     25  O   UNL     1      13.563   9.413 -57.999  1.00  0.00    -0.872 OA
ATOM     26  O   UNL     1      17.803   6.490 -56.098  1.00  0.00    -0.872 OA
ATOM     27  O   UNL     1      15.715   5.210 -57.510  1.00  0.00    -0.873 OA
BRANCH   9  28
ATOM     28  C   UNL     1      17.690  14.844 -54.702  1.00  0.00     0.071 C 
ATOM     29  O   UNL     1      18.181  15.692 -55.470  1.00  0.00    -0.545 OA
ATOM     30  O   UNL     1      17.091  15.270 -53.519  1.00  0.00    -0.545 OA
ENDBRANCH   9  28
ENDBRANCH   1   7
BRANCH   6  31
ATOM     31  O   UNL     1      15.062   5.656 -60.092  1.00  0.00    -0.387 OA
ATOM     32  H   UNL     1      15.178   6.630 -60.216  1.00  0.00     0.211 HD
ENDBRANCH   6  31
BRANCH   3  33
ATOM     33  C   UNL     1      10.991   7.847 -60.728  1.00  0.00     0.191 C 
BRANCH  33  34
ATOM     34  O   UNL     1       9.951   6.976 -60.967  1.00  0.00    -0.394 OA
ATOM     35  H   UNL     1      10.056   6.494 -61.840  1.00  0.00     0.210 HD
ENDBRANCH  33  34
ENDBRANCH   3  33
BRANCH   5  36
ATOM     36  O   UNL     1      12.161   3.920 -59.063  1.00  0.00    -0.387 OA
ATOM     37  H   UNL     1      12.740   3.333 -58.521  1.00  0.00     0.211 HD
ENDBRANCH   5  36
BRANCH   4  38
ATOM     38  O   UNL     1      12.137   5.432 -62.097  1.00  0.00    -0.388 OA
ATOM     39  H   UNL     1      11.247   5.049 -62.382  1.00  0.00     0.211 HD
ENDBRANCH   4  38
TORSDOF 7
ENDMDL
MODEL 4
REMARK VINA RESULT:      -7.2      2.144      4.395
REMARK SMILES Cc1c(C(=O)[O-])c([O-])cc2c1C(=O)c1c([O-])c([C@H]3O[C@H](CO)[C@@H](O)[C@H](O)[C@H]3O)c([O-])c([O-])c1C2=O
REMARK SMILES IDX 18 1 19 2 20 3 23 4 25 5 27 6 17 7 2 8 3 9 11 10 7 11 10 12
REMARK SMILES IDX 12 13 9 14 34 15 13 16 14 17 33 18 35 19 15 20 31 21 29 22
REMARK SMILES IDX 1 23 8 24 16 25 32 26 30 27 4 28 5 29 6 30 28 31 21 33 22 34
REMARK SMILES IDX 26 36 24 38
REMARK H PARENT 28 32 22 35 26 37 24 39
ROOT
ATOM      1  C   UNL     1      14.305   6.876 -58.316  1.00  0.00     0.179 C 
ATOM      2  O   UNL     1      13.419   5.875 -58.108  1.00  0.00    -0.362 OA
ATOM      3  C   UNL     1      12.431   5.661 -58.985  1.00  0.00     0.176 C 
ATOM      4  C   UNL     1      12.657   6.024 -60.402  1.00  0.00     0.177 C 
ATOM      5  C   UNL     1      13.570   7.169 -60.640  1.00  0.00     0.177 C 
ATOM      6  C   UNL     1      13.933   7.872 -59.373  1.00  0.00     0.179 C 
ENDROOT
BRANCH   1   7
ATOM      7  C   UNL     1      14.710   7.585 -57.060  1.00  0.00    -0.032 A 
ATOM      8  C   UNL     1      12.536  10.406 -51.935  1.00  0.00    -0.031 A 
ATOM      9  C   UNL     1      12.889  11.062 -50.774  1.00  0.00    -0.007 A 
ATOM     10  C   UNL     1      13.473   9.924 -52.830  1.00  0.00     0.037 A 
ATOM     11  C   UNL     1      14.219  11.259 -50.464  1.00  0.00    -0.099 A 
ATOM     12  C   UNL     1      14.809  10.122 -52.518  1.00  0.00     0.033 A 
ATOM     13  C   UNL     1      13.113   9.229 -54.063  1.00  0.00     0.194 C 
ATOM     14  C   UNL     1      15.178  10.777 -51.360  1.00  0.00     0.005 A 
ATOM     15  C   UNL     1      15.810   9.620 -53.453  1.00  0.00     0.193 C 
ATOM     16  O   UNL     1      11.916   9.047 -54.349  1.00  0.00    -0.289 OA
ATOM     17  C   UNL     1      14.116   8.722 -55.003  1.00  0.00     0.026 A 
ATOM     18  C   UNL     1      15.443   8.922 -54.689  1.00  0.00     0.025 A 
ATOM     19  O   UNL     1      17.022   9.785 -53.197  1.00  0.00    -0.289 OA
ATOM     20  C   UNL     1      13.775   8.067 -56.167  1.00  0.00    -0.091 A 
ATOM     21  C   UNL     1      16.397   8.448 -55.570  1.00  0.00    -0.105 A 
ATOM     22  C   UNL     1      16.033   7.794 -56.729  1.00  0.00    -0.111 A 
ATOM     23  C   UNL     1      11.099  10.210 -52.240  1.00  0.00     0.046 C 
ATOM     24  O   UNL     1      14.621  11.919 -49.297  1.00  0.00    -0.872 OA
ATOM     25  O   UNL     1      12.432   7.892 -56.434  1.00  0.00    -0.872 OA
ATOM     26  O   UNL     1      17.733   8.659 -55.236  1.00  0.00    -0.872 OA
ATOM     27  O   UNL     1      16.994   7.318 -57.613  1.00  0.00    -0.873 OA
BRANCH   9  28
ATOM     28  C   UNL     1      11.897  11.569 -49.832  1.00  0.00     0.071 C 
ATOM     29  O   UNL     1      11.400  12.710 -49.880  1.00  0.00    -0.545 OA
ATOM     30  O   UNL     1      11.494  10.699 -48.820  1.00  0.00    -0.545 OA
ENDBRANCH   9  28
ENDBRANCH   1   7
BRANCH   6  31
ATOM     31  O   UNL     1      12.940   8.750 -58.995  1.00  0.00    -0.387 OA
ATOM     32  H   UNL     1      12.575   8.495 -58.112  1.00  0.00     0.211 HD
ENDBRANCH   6  31
BRANCH   3  33
ATOM     33  C   UNL     1      12.099   4.159 -58.958  1.00  0.00     0.191 C 
BRANCH  33  34
ATOM     34  O   UNL     1      13.125   3.401 -59.476  1.00  0.00    -0.394 OA
ATOM     35  H   UNL     1      12.869   2.436 -59.574  1.00  0.00     0.210 HD
ENDBRANCH  33  34
ENDBRANCH   3  33
BRANCH   5  36
ATOM     36  O   UNL     1      14.719   6.803 -61.348  1.00  0.00    -0.387 OA
ATOM     37  H   UNL     1      15.117   7.564 -61.831  1.00  0.00     0.211 HD
ENDBRANCH   5  36
BRANCH   4  38
ATOM     38  O   UNL     1      11.392   6.253 -60.993  1.00  0.00    -0.388 OA
ATOM     39  H   UNL     1      10.742   5.646 -60.515  1.00  0.00     0.211 HD
ENDBRANCH   4  38
TORSDOF 7
ENDMDL
MODEL 5
REMARK VINA RESULT:      -6.6      6.863     10.408
REMARK SMILES Cc1c(C(=O)[O-])c([O-])cc2c1C(=O)c1c([O-])c([C@H]3O[C@H](CO)[C@@H](O)[C@H](O)[C@H]3O)c([O-])c([O-])c1C2=O
REMARK SMILES IDX 18 1 19 2 20 3 23 4 25 5 27 6 17 7 2 8 3 9 11 10 7 11 10 12
REMARK SMILES IDX 12 13 9 14 34 15 13 16 14 17 33 18 35 19 15 20 31 21 29 22
REMARK SMILES IDX 1 23 8 24 16 25 32 26 30 27 4 28 5 29 6 30 28 31 21 33 22 34
REMARK SMILES IDX 26 36 24 38
REMARK H PARENT 28 32 22 35 26 37 24 39
ROOT
ATOM      1  C   UNL     1      12.029   9.895 -51.073  1.00  0.00     0.179 C 
ATOM      2  O   UNL     1      11.680   8.728 -51.660  1.00  0.00    -0.362 OA
ATOM      3  C   UNL     1      12.576   8.046 -52.384  1.00  0.00     0.176 C 
ATOM      4  C   UNL     1      14.008   8.177 -52.034  1.00  0.00     0.177 C 
ATOM      5  C   UNL     1      14.418   9.481 -51.457  1.00  0.00     0.177 C 
ATOM      6  C   UNL     1      13.325  10.496 -51.528  1.00  0.00     0.179 C 
ENDROOT
BRANCH   1   7
ATOM      7  C   UNL     1      10.944  10.927 -51.104  1.00  0.00    -0.032 A 
ATOM      8  C   UNL     1       6.962  13.949 -54.840  1.00  0.00    -0.031 A 
ATOM      9  C   UNL     1       5.961  14.897 -54.890  1.00  0.00    -0.007 A 
ATOM     10  C   UNL     1       7.593  13.595 -53.663  1.00  0.00     0.037 A 
ATOM     11  C   UNL     1       5.550  15.534 -53.737  1.00  0.00    -0.099 A 
ATOM     12  C   UNL     1       7.179  14.234 -52.505  1.00  0.00     0.033 A 
ATOM     13  C   UNL     1       8.653  12.594 -53.597  1.00  0.00     0.194 C 
ATOM     14  C   UNL     1       6.179  15.186 -52.537  1.00  0.00     0.005 A 
ATOM     15  C   UNL     1       7.835  13.871 -51.253  1.00  0.00     0.193 C 
ATOM     16  O   UNL     1       9.029  12.015 -54.632  1.00  0.00    -0.289 OA
ATOM     17  C   UNL     1       9.313  12.226 -52.341  1.00  0.00     0.026 A 
ATOM     18  C   UNL     1       8.899  12.866 -51.192  1.00  0.00     0.025 A 
ATOM     19  O   UNL     1       7.482  14.433 -50.193  1.00  0.00    -0.289 OA
ATOM     20  C   UNL     1      10.315  11.281 -52.280  1.00  0.00    -0.091 A 
ATOM     21  C   UNL     1       9.516  12.526 -50.003  1.00  0.00    -0.105 A 
ATOM     22  C   UNL     1      10.516  11.577 -49.964  1.00  0.00    -0.111 A 
ATOM     23  C   UNL     1       7.382  13.283 -56.097  1.00  0.00     0.046 C 
ATOM     24  O   UNL     1       4.539  16.501 -53.742  1.00  0.00    -0.872 OA
ATOM     25  O   UNL     1      10.693  10.671 -53.459  1.00  0.00    -0.872 OA
ATOM     26  O   UNL     1       9.083  13.182 -48.851  1.00  0.00    -0.872 OA
ATOM     27  O   UNL     1      11.134  11.238 -48.767  1.00  0.00    -0.873 OA
BRANCH   9  28
ATOM     28  C   UNL     1       5.299  15.269 -56.136  1.00  0.00     0.071 C 
ATOM     29  O   UNL     1       4.286  14.704 -56.589  1.00  0.00    -0.545 OA
ATOM     30  O   UNL     1       5.857  16.329 -56.847  1.00  0.00    -0.545 OA
ENDBRANCH   9  28
ENDBRANCH   1   7
BRANCH   6  31
ATOM     31  O   UNL     1      13.269  11.073 -52.778  1.00  0.00    -0.387 OA
ATOM     32  H   UNL     1      13.560  12.017 -52.733  1.00  0.00     0.211 HD
ENDBRANCH   6  31
BRANCH   3  33
ATOM     33  C   UNL     1      12.225   6.552 -52.276  1.00  0.00     0.191 C 
BRANCH  33  34
ATOM     34  O   UNL     1      13.272   5.819 -51.761  1.00  0.00    -0.394 OA
ATOM     35  H   UNL     1      14.142   6.039 -52.209  1.00  0.00     0.210 HD
ENDBRANCH  33  34
ENDBRANCH   3  33
BRANCH   5  36
ATOM     36  O   UNL     1      14.898   9.363 -50.150  1.00  0.00    -0.387 OA
ATOM     37  H   UNL     1      14.257   9.708 -49.485  1.00  0.00     0.211 HD
ENDBRANCH   5  36
BRANCH   4  38
ATOM     38  O   UNL     1      14.761   7.875 -53.193  1.00  0.00    -0.388 OA
ATOM     39  H   UNL     1      14.823   8.733 -53.723  1.00  0.00     0.211 HD
ENDBRANCH   4  38
TORSDOF 7
ENDMDL
MODEL 6
REMARK VINA RESULT:      -6.4      3.089      5.385
REMARK SMILES Cc1c(C(=O)[O-])c([O-])cc2c1C(=O)c1c([O-])c([C@H]3O[C@H](CO)[C@@H](O)[C@H](O)[C@H]3O)c([O-])c([O-])c1C2=O
REMARK SMILES IDX 18 1 19 2 20 3 23 4 25 5 27 6 17 7 2 8 3 9 11 10 7 11 10 12
REMARK SMILES IDX 12 13 9 14 34 15 13 16 14 17 33 18 35 19 15 20 31 21 29 22
REMARK SMILES IDX 1 23 8 24 16 25 32 26 30 27 4 28 5 29 6 30 28 31 21 33 22 34
REMARK SMILES IDX 26 36 24 38
REMARK H PARENT 28 32 22 35 26 37 24 39
ROOT
ATOM      1  C   UNL     1      15.129   8.610 -54.479  1.00  0.00     0.179 C 
ATOM      2  O   UNL     1      14.672   8.127 -53.301  1.00  0.00    -0.362 OA
ATOM      3  C   UNL     1      13.378   8.248 -52.983  1.00  0.00     0.176 C 
ATOM      4  C   UNL     1      12.385   8.289 -54.080  1.00  0.00     0.177 C 
ATOM      5  C   UNL     1      12.853   8.885 -55.356  1.00  0.00     0.177 C 
ATOM      6  C   UNL     1      14.197   9.522 -55.220  1.00  0.00     0.179 C 
ENDROOT
BRANCH   1   7
ATOM      7  C   UNL     1      16.488   9.232 -54.382  1.00  0.00    -0.032 A 
ATOM      8  C   UNL     1      20.079  12.998 -50.936  1.00  0.00    -0.031 A 
ATOM      9  C   UNL     1      21.325  13.580 -50.829  1.00  0.00    -0.007 A 
ATOM     10  C   UNL     1      19.736  12.162 -51.982  1.00  0.00     0.037 A 
ATOM     11  C   UNL     1      22.289  13.338 -51.785  1.00  0.00    -0.099 A 
ATOM     12  C   UNL     1      20.706  11.919 -52.942  1.00  0.00     0.033 A 
ATOM     13  C   UNL     1      18.422  11.540 -52.107  1.00  0.00     0.194 C 
ATOM     14  C   UNL     1      21.957  12.494 -52.850  1.00  0.00     0.005 A 
ATOM     15  C   UNL     1      20.360  11.038 -54.053  1.00  0.00     0.193 C 
ATOM     16  O   UNL     1      17.547  11.753 -51.248  1.00  0.00    -0.289 OA
ATOM     17  C   UNL     1      18.072  10.654 -53.220  1.00  0.00     0.026 A 
ATOM     18  C   UNL     1      19.039  10.416 -54.174  1.00  0.00     0.025 A 
ATOM     19  O   UNL     1      21.215  10.801 -54.934  1.00  0.00    -0.289 OA
ATOM     20  C   UNL     1      16.830  10.068 -53.338  1.00  0.00    -0.091 A 
ATOM     21  C   UNL     1      18.718   9.581 -55.229  1.00  0.00    -0.105 A 
ATOM     22  C   UNL     1      17.469   9.004 -55.326  1.00  0.00    -0.111 A 
ATOM     23  C   UNL     1      19.064  13.278 -49.892  1.00  0.00     0.046 C 
ATOM     24  O   UNL     1      23.565  13.908 -51.716  1.00  0.00    -0.872 OA
ATOM     25  O   UNL     1      15.897  10.339 -52.357  1.00  0.00    -0.872 OA
ATOM     26  O   UNL     1      19.708   9.352 -56.182  1.00  0.00    -0.872 OA
ATOM     27  O   UNL     1      17.150   8.167 -56.388  1.00  0.00    -0.873 OA
BRANCH   9  28
ATOM     28  C   UNL     1      21.681  14.463 -49.723  1.00  0.00     0.071 C 
ATOM     29  O   UNL     1      21.507  15.696 -49.723  1.00  0.00    -0.545 OA
ATOM     30  O   UNL     1      22.252  13.862 -48.604  1.00  0.00    -0.545 OA
ENDBRANCH   9  28
ENDBRANCH   1   7
BRANCH   6  31
ATOM     31  O   UNL     1      14.093  10.783 -54.675  1.00  0.00    -0.387 OA
ATOM     32  H   UNL     1      14.752  11.391 -55.091  1.00  0.00     0.211 HD
ENDBRANCH   6  31
BRANCH   3  33
ATOM     33  C   UNL     1      13.003   7.055 -52.088  1.00  0.00     0.191 C 
BRANCH  33  34
ATOM     34  O   UNL     1      12.111   6.210 -52.711  1.00  0.00    -0.394 OA
ATOM     35  H   UNL     1      12.330   6.081 -53.681  1.00  0.00     0.210 HD
ENDBRANCH  33  34
ENDBRANCH   3  33
BRANCH   5  36
ATOM     36  O   UNL     1      12.844   7.970 -56.412  1.00  0.00    -0.387 OA
ATOM     37  H   UNL     1      12.127   7.300 -56.318  1.00  0.00     0.211 HD
ENDBRANCH   5  36
BRANCH   4  38
ATOM     38  O   UNL     1      11.239   8.962 -53.596  1.00  0.00    -0.388 OA
ATOM     39  H   UNL     1      10.516   8.825 -54.287  1.00  0.00     0.211 HD
ENDBRANCH   4  38
TORSDOF 7
ENDMDL
MODEL 7
REMARK VINA RESULT:      -6.4      2.022      8.973
REMARK SMILES Cc1c(C(=O)[O-])c([O-])cc2c1C(=O)c1c([O-])c([C@H]3O[C@H](CO)[C@@H](O)[C@H](O)[C@H]3O)c([O-])c([O-])c1C2=O
REMARK SMILES IDX 18 1 19 2 20 3 23 4 25 5 27 6 17 7 2 8 3 9 11 10 7 11 10 12
REMARK SMILES IDX 12 13 9 14 34 15 13 16 14 17 33 18 35 19 15 20 31 21 29 22
REMARK SMILES IDX 1 23 8 24 16 25 32 26 30 27 4 28 5 29 6 30 28 31 21 33 22 34
REMARK SMILES IDX 26 36 24 38
REMARK H PARENT 28 32 22 35 26 37 24 39
ROOT
ATOM      1  C   UNL     1      19.569  10.885 -54.542  1.00  0.00     0.179 C 
ATOM      2  O   UNL     1      20.087  12.097 -54.845  1.00  0.00    -0.362 OA
ATOM      3  C   UNL     1      20.759  12.790 -53.918  1.00  0.00     0.176 C 
ATOM      4  C   UNL     1      21.473  12.040 -52.861  1.00  0.00     0.177 C 
ATOM      5  C   UNL     1      20.872  10.741 -52.468  1.00  0.00     0.177 C 
ATOM      6  C   UNL     1      19.528  10.533 -53.086  1.00  0.00     0.179 C 
ENDROOT
BRANCH   1   7
ATOM      7  C   UNL     1      18.231  10.634 -55.169  1.00  0.00    -0.032 A 
ATOM      8  C   UNL     1      14.761   6.360 -58.109  1.00  0.00    -0.031 A 
ATOM      9  C   UNL     1      13.535   6.109 -58.690  1.00  0.00    -0.007 A 
ATOM     10  C   UNL     1      15.078   7.579 -57.540  1.00  0.00     0.037 A 
ATOM     11  C   UNL     1      12.567   7.091 -58.722  1.00  0.00    -0.099 A 
ATOM     12  C   UNL     1      14.105   8.565 -57.572  1.00  0.00     0.033 A 
ATOM     13  C   UNL     1      16.371   7.857 -56.921  1.00  0.00     0.194 C 
ATOM     14  C   UNL     1      12.874   8.331 -58.151  1.00  0.00     0.005 A 
ATOM     15  C   UNL     1      14.424   9.859 -56.976  1.00  0.00     0.193 C 
ATOM     16  O   UNL     1      17.249   6.977 -56.889  1.00  0.00    -0.289 OA
ATOM     17  C   UNL     1      16.694   9.154 -56.321  1.00  0.00     0.026 A 
ATOM     18  C   UNL     1      15.723  10.133 -56.356  1.00  0.00     0.025 A 
ATOM     19  O   UNL     1      13.565  10.766 -56.991  1.00  0.00    -0.289 OA
ATOM     20  C   UNL     1      17.915   9.417 -55.738  1.00  0.00    -0.091 A 
ATOM     21  C   UNL     1      16.019  11.360 -55.792  1.00  0.00    -0.105 A 
ATOM     22  C   UNL     1      17.248  11.601 -55.213  1.00  0.00    -0.111 A 
ATOM     23  C   UNL     1      15.781   5.284 -58.090  1.00  0.00     0.046 C 
ATOM     24  O   UNL     1      11.312   6.879 -59.302  1.00  0.00    -0.872 OA
ATOM     25  O   UNL     1      18.852   8.403 -55.729  1.00  0.00    -0.872 OA
ATOM     26  O   UNL     1      15.025  12.337 -55.837  1.00  0.00    -0.872 OA
ATOM     27  O   UNL     1      17.541  12.835 -54.648  1.00  0.00    -0.873 OA
BRANCH   9  28
ATOM     28  C   UNL     1      13.206   4.820 -59.290  1.00  0.00     0.071 C 
ATOM     29  O   UNL     1      12.778   3.838 -58.656  1.00  0.00    -0.545 OA
ATOM     30  O   UNL     1      13.391   4.707 -60.667  1.00  0.00    -0.545 OA
ENDBRANCH   9  28
ENDBRANCH   1   7
BRANCH   6  31
ATOM     31  O   UNL     1      18.551  11.194 -52.374  1.00  0.00    -0.387 OA
ATOM     32  H   UNL     1      18.367  12.075 -52.782  1.00  0.00     0.211 HD
ENDBRANCH   6  31
BRANCH   3  33
ATOM     33  C   UNL     1      21.810  13.646 -54.644  1.00  0.00     0.191 C 
BRANCH  33  34
ATOM     34  O   UNL     1      21.818  13.401 -56.000  1.00  0.00    -0.394 OA
ATOM     35  H   UNL     1      21.269  12.598 -56.241  1.00  0.00     0.210 HD
ENDBRANCH  33  34
ENDBRANCH   3  33
BRANCH   5  36
ATOM     36  O   UNL     1      21.713   9.657 -52.737  1.00  0.00    -0.387 OA
ATOM     37  H   UNL     1      21.297   9.007 -53.351  1.00  0.00     0.211 HD
ENDBRANCH   5  36
BRANCH   4  38
ATOM     38  O   UNL     1      21.606  12.896 -51.742  1.00  0.00    -0.388 OA
ATOM     39  H   UNL     1      22.494  12.672 -51.317  1.00  0.00     0.211 HD
ENDBRANCH   4  38
TORSDOF 7
ENDMDL
MODEL 8
REMARK VINA RESULT:      -6.4      4.303      7.438
REMARK SMILES Cc1c(C(=O)[O-])c([O-])cc2c1C(=O)c1c([O-])c([C@H]3O[C@H](CO)[C@@H](O)[C@H](O)[C@H]3O)c([O-])c([O-])c1C2=O
REMARK SMILES IDX 18 1 19 2 20 3 23 4 25 5 27 6 17 7 2 8 3 9 11 10 7 11 10 12
REMARK SMILES IDX 12 13 9 14 34 15 13 16 14 17 33 18 35 19 15 20 31 21 29 22
REMARK SMILES IDX 1 23 8 24 16 25 32 26 30 27 4 28 5 29 6 30 28 31 21 33 22 34
REMARK SMILES IDX 26 36 24 38
REMARK H PARENT 28 32 22 35 26 37 24 39
ROOT
ATOM      1  C   UNL     1      12.249  12.060 -51.356  1.00  0.00     0.179 C 
ATOM      2  O   UNL     1      11.042  11.980 -51.962  1.00  0.00    -0.362 OA
ATOM      3  C   UNL     1       9.935  11.800 -51.231  1.00  0.00     0.176 C 
ATOM      4  C   UNL     1       9.916  12.316 -49.844  1.00  0.00     0.177 C 
ATOM      5  C   UNL     1      11.224  12.339 -49.143  1.00  0.00     0.177 C 
ATOM      6  C   UNL     1      12.290  11.637 -49.918  1.00  0.00     0.179 C 
ENDROOT
BRANCH   1   7
ATOM      7  C   UNL     1      13.347  11.389 -52.122  1.00  0.00    -0.032 A 
ATOM      8  C   UNL     1      19.219  12.038 -54.136  1.00  0.00    -0.031 A 
ATOM      9  C   UNL     1      20.243  11.436 -54.838  1.00  0.00    -0.007 A 
ATOM     10  C   UNL     1      17.991  11.432 -53.946  1.00  0.00     0.037 A 
ATOM     11  C   UNL     1      20.067  10.181 -55.383  1.00  0.00    -0.099 A 
ATOM     12  C   UNL     1      17.816  10.171 -54.494  1.00  0.00     0.033 A 
ATOM     13  C   UNL     1      16.900  12.057 -53.205  1.00  0.00     0.194 C 
ATOM     14  C   UNL     1      18.830   9.555 -55.200  1.00  0.00     0.005 A 
ATOM     15  C   UNL     1      16.525   9.517 -54.303  1.00  0.00     0.193 C 
ATOM     16  O   UNL     1      17.050  13.188 -52.710  1.00  0.00    -0.289 OA
ATOM     17  C   UNL     1      15.603  11.403 -53.011  1.00  0.00     0.026 A 
ATOM     18  C   UNL     1      15.433  10.149 -53.558  1.00  0.00     0.025 A 
ATOM     19  O   UNL     1      16.339   8.380 -54.787  1.00  0.00    -0.289 OA
ATOM     20  C   UNL     1      14.573  11.995 -52.312  1.00  0.00    -0.091 A 
ATOM     21  C   UNL     1      14.213   9.524 -53.380  1.00  0.00    -0.105 A 
ATOM     22  C   UNL     1      13.195  10.135 -52.677  1.00  0.00    -0.111 A 
ATOM     23  C   UNL     1      19.438  13.387 -53.561  1.00  0.00     0.046 C 
ATOM     24  O   UNL     1      21.079   9.535 -56.103  1.00  0.00    -0.872 OA
ATOM     25  O   UNL     1      14.795  13.251 -51.784  1.00  0.00    -0.872 OA
ATOM     26  O   UNL     1      14.059   8.257 -53.941  1.00  0.00    -0.872 OA
ATOM     27  O   UNL     1      11.970   9.503 -52.500  1.00  0.00    -0.873 OA
BRANCH   9  28
ATOM     28  C   UNL     1      21.537  12.081 -55.036  1.00  0.00     0.071 C 
ATOM     29  O   UNL     1      21.786  12.894 -55.944  1.00  0.00    -0.545 OA
ATOM     30  O   UNL     1      22.545  11.747 -54.133  1.00  0.00    -0.545 OA
ENDBRANCH   9  28
ENDBRANCH   1   7
BRANCH   6  31
ATOM     31  O   UNL     1      12.221  10.274 -49.730  1.00  0.00    -0.387 OA
ATOM     32  H   UNL     1      11.288  10.001 -49.552  1.00  0.00     0.211 HD
ENDBRANCH   6  31
BRANCH   3  33
ATOM     33  C   UNL     1       8.770  12.474 -51.974  1.00  0.00     0.191 C 
BRANCH  33  34
ATOM     34  O   UNL     1       7.561  12.221 -51.363  1.00  0.00    -0.394 OA
ATOM     35  H   UNL     1       6.785  12.500 -51.933  1.00  0.00     0.210 HD
ENDBRANCH  33  34
ENDBRANCH   3  33
BRANCH   5  36
ATOM     36  O   UNL     1      11.629  13.634 -48.805  1.00  0.00    -0.387 OA
ATOM     37  H   UNL     1      10.974  14.314 -49.086  1.00  0.00     0.211 HD
ENDBRANCH   5  36
BRANCH   4  38
ATOM     38  O   UNL     1       8.965  11.560 -49.119  1.00  0.00    -0.388 OA
ATOM     39  H   UNL     1       9.492  10.926 -48.536  1.00  0.00     0.211 HD
ENDBRANCH   4  38
TORSDOF 7
ENDMDL
MODEL 9
REMARK VINA RESULT:      -6.4      2.055      8.715
REMARK SMILES Cc1c(C(=O)[O-])c([O-])cc2c1C(=O)c1c([O-])c([C@H]3O[C@H](CO)[C@@H](O)[C@H](O)[C@H]3O)c([O-])c([O-])c1C2=O
REMARK SMILES IDX 18 1 19 2 20 3 23 4 25 5 27 6 17 7 2 8 3 9 11 10 7 11 10 12
REMARK SMILES IDX 12 13 9 14 34 15 13 16 14 17 33 18 35 19 15 20 31 21 29 22
REMARK SMILES IDX 1 23 8 24 16 25 32 26 30 27 4 28 5 29 6 30 28 31 21 33 22 34
REMARK SMILES IDX 26 36 24 38
REMARK H PARENT 28 32 22 35 26 37 24 39
ROOT
ATOM      1  C   UNL     1      19.594  10.401 -54.062  1.00  0.00     0.179 C 
ATOM      2  O   UNL     1      20.473   9.420 -54.367  1.00  0.00    -0.362 OA
ATOM      3  C   UNL     1      21.760   9.715 -54.584  1.00  0.00     0.176 C 
ATOM      4  C   UNL     1      22.337  10.892 -53.898  1.00  0.00     0.177 C 
ATOM      5  C   UNL     1      21.397  12.008 -53.624  1.00  0.00     0.177 C 
ATOM      6  C   UNL     1      20.074  11.804 -54.286  1.00  0.00     0.179 C 
ENDROOT
BRANCH   1   7
ATOM      7  C   UNL     1      18.247  10.212 -54.689  1.00  0.00    -0.032 A 
ATOM      8  C   UNL     1      14.791   6.330 -58.144  1.00  0.00    -0.031 A 
ATOM      9  C   UNL     1      13.557   6.137 -58.729  1.00  0.00    -0.007 A 
ATOM     10  C   UNL     1      15.098   7.460 -57.411  1.00  0.00     0.037 A 
ATOM     11  C   UNL     1      12.568   7.090 -58.595  1.00  0.00    -0.099 A 
ATOM     12  C   UNL     1      14.104   8.417 -57.276  1.00  0.00     0.033 A 
ATOM     13  C   UNL     1      16.400   7.676 -56.787  1.00  0.00     0.194 C 
ATOM     14  C   UNL     1      12.864   8.240 -57.856  1.00  0.00     0.005 A 
ATOM     15  C   UNL     1      14.412   9.618 -56.505  1.00  0.00     0.193 C 
ATOM     16  O   UNL     1      17.296   6.822 -56.902  1.00  0.00    -0.289 OA
ATOM     17  C   UNL     1      16.711   8.880 -56.011  1.00  0.00     0.026 A 
ATOM     18  C   UNL     1      15.720   9.830 -55.881  1.00  0.00     0.025 A 
ATOM     19  O   UNL     1      13.535  10.497 -56.368  1.00  0.00    -0.289 OA
ATOM     20  C   UNL     1      17.941   9.083 -55.422  1.00  0.00    -0.091 A 
ATOM     21  C   UNL     1      16.005  10.968 -55.151  1.00  0.00    -0.105 A 
ATOM     22  C   UNL     1      17.243  11.151 -54.570  1.00  0.00    -0.111 A 
ATOM     23  C   UNL     1      15.833   5.287 -58.306  1.00  0.00     0.046 C 
ATOM     24  O   UNL     1      11.303   6.935 -59.173  1.00  0.00    -0.872 OA
ATOM     25  O   UNL     1      18.899   8.102 -55.583  1.00  0.00    -0.872 OA
ATOM     26  O   UNL     1      14.991  11.917 -55.030  1.00  0.00    -0.872 OA
ATOM     27  O   UNL     1      17.526  12.297 -53.837  1.00  0.00    -0.873 OA
BRANCH   9  28
ATOM     28  C   UNL     1      13.238   4.942 -59.503  1.00  0.00     0.071 C 
ATOM     29  O   UNL     1      12.969   3.833 -59.006  1.00  0.00    -0.545 OA
ATOM     30  O   UNL     1      13.242   5.077 -60.890  1.00  0.00    -0.545 OA
ENDBRANCH   9  28
ENDBRANCH   1   7
BRANCH   6  31
ATOM     31  O   UNL     1      20.123  12.178 -55.611  1.00  0.00    -0.387 OA
ATOM     32  H   UNL     1      20.799  11.643 -56.093  1.00  0.00     0.211 HD
ENDBRANCH   6  31
BRANCH   3  33
ATOM     33  C   UNL     1      22.598   8.497 -54.160  1.00  0.00     0.191 C 
BRANCH  33  34
ATOM     34  O   UNL     1      23.919   8.636 -54.523  1.00  0.00    -0.394 OA
ATOM     35  H   UNL     1      24.070   8.408 -55.488  1.00  0.00     0.210 HD
ENDBRANCH  33  34
ENDBRANCH   3  33
BRANCH   5  36
ATOM     36  O   UNL     1      21.234  12.250 -52.257  1.00  0.00    -0.387 OA
ATOM     37  H   UNL     1      21.492  11.472 -51.708  1.00  0.00     0.211 HD
ENDBRANCH   5  36
BRANCH   4  38
ATOM     38  O   UNL     1      23.442  11.336 -54.662  1.00  0.00    -0.388 OA
ATOM     39  H   UNL     1      23.060  11.728 -55.511  1.00  0.00     0.211 HD
ENDBRANCH   4  38
TORSDOF 7
ENDMDL
