MODEL 1
REMARK VINA RESULT:      -9.0      0.000      0.000
REMARK SMILES O=C([O-])c1cc(O)c2c(c1)C(=O)c1cccc([O-])c1C2=O
REMARK SMILES IDX 4 1 5 2 6 3 8 4 9 5 10 6 11 7 12 8 13 9 14 10 15 11 16 12
REMARK SMILES IDX 17 13 18 14 19 15 20 16 21 17 2 18 1 19 3 20 7 21
REMARK H PARENT 7 22
ROOT
ATOM      1  C   UNL     1      14.637  -0.824 -63.023  1.00  0.00     0.002 A 
ATOM      2  C   UNL     1      14.869  -2.182 -63.038  1.00  0.00     0.057 A 
ATOM      3  C   UNL     1      15.701  -2.733 -63.988  1.00  0.00     0.128 A 
ATOM      4  C   UNL     1      16.331  -1.967 -64.955  1.00  0.00     0.075 A 
ATOM      5  C   UNL     1      16.101  -0.604 -64.944  1.00  0.00     0.038 A 
ATOM      6  C   UNL     1      15.263  -0.056 -63.984  1.00  0.00     0.023 A 
ATOM      7  C   UNL     1      16.763   0.204 -65.960  1.00  0.00     0.194 C 
ATOM      8  O   UNL     1      16.556   1.439 -65.950  1.00  0.00    -0.289 OA
ATOM      9  C   UNL     1      17.644  -0.390 -66.965  1.00  0.00     0.033 A 
ATOM     10  C   UNL     1      18.274   0.378 -67.931  1.00  0.00     0.013 A 
ATOM     11  C   UNL     1      19.106  -0.175 -68.883  1.00  0.00     0.000 A 
ATOM     12  C   UNL     1      19.342  -1.535 -68.902  1.00  0.00    -0.008 A 
ATOM     13  C   UNL     1      18.711  -2.304 -67.933  1.00  0.00    -0.097 A 
ATOM     14  O   UNL     1      18.925  -3.665 -67.923  1.00  0.00    -0.872 OA
ATOM     15  C   UNL     1      17.877  -1.751 -66.979  1.00  0.00     0.026 A 
ATOM     16  C   UNL     1      17.213  -2.558 -65.961  1.00  0.00     0.197 C 
ATOM     17  O   UNL     1      17.422  -3.789 -65.972  1.00  0.00    -0.288 OA
ENDROOT
BRANCH   1  18
ATOM     18  C   UNL     1      13.761  -0.220 -62.027  1.00  0.00     0.072 C 
ATOM     19  O   UNL     1      13.858   0.988 -61.706  1.00  0.00    -0.545 OA
ATOM     20  O   UNL     1      12.791  -0.992 -61.410  1.00  0.00    -0.545 OA
ENDBRANCH   1  18
BRANCH   3  21
ATOM     21  O   UNL     1      15.934  -4.088 -64.005  1.00  0.00    -0.507 OA
ATOM     22  H   UNL     1      15.845  -4.663 -64.833  1.00  0.00     0.293 HD
ENDBRANCH   3  21
TORSDOF 2
ENDMDL
MODEL 2
REMARK VINA RESULT:      -7.1      3.737      5.398
REMARK SMILES O=C([O-])c1cc(O)c2c(c1)C(=O)c1cccc([O-])c1C2=O
REMARK SMILES IDX 4 1 5 2 6 3 8 4 9 5 10 6 11 7 12 8 13 9 14 10 15 11 16 12
REMARK SMILES IDX 17 13 18 14 19 15 20 16 21 17 2 18 1 19 3 20 7 21
REMARK H PARENT 7 22
ROOT
ATOM      1  C   UNL     1      17.099  -1.149 -65.012  1.00  0.00     0.002 A 
ATOM      2  C   UNL     1      16.650   0.068 -65.477  1.00  0.00     0.057 A 
ATOM      3  C   UNL     1      17.542   1.088 -65.724  1.00  0.00     0.128 A 
ATOM      4  C   UNL     1      18.905   0.946 -65.521  1.00  0.00     0.075 A 
ATOM      5  C   UNL     1      19.360  -0.273 -65.054  1.00  0.00     0.038 A 
ATOM      6  C   UNL     1      18.456  -1.296 -64.809  1.00  0.00     0.023 A 
ATOM      7  C   UNL     1      20.793  -0.425 -64.841  1.00  0.00     0.194 C 
ATOM      8  O   UNL     1      21.207  -1.529 -64.418  1.00  0.00    -0.289 OA
ATOM      9  C   UNL     1      21.733   0.664 -65.105  1.00  0.00     0.033 A 
ATOM     10  C   UNL     1      23.096   0.520 -64.902  1.00  0.00     0.013 A 
ATOM     11  C   UNL     1      23.988   1.543 -65.149  1.00  0.00     0.000 A 
ATOM     12  C   UNL     1      23.544   2.763 -65.615  1.00  0.00    -0.008 A 
ATOM     13  C   UNL     1      22.178   2.907 -65.818  1.00  0.00    -0.097 A 
ATOM     14  O   UNL     1      21.700   4.113 -66.284  1.00  0.00    -0.872 OA
ATOM     15  C   UNL     1      21.283   1.883 -65.571  1.00  0.00     0.026 A 
ATOM     16  C   UNL     1      19.847   2.033 -65.785  1.00  0.00     0.197 C 
ATOM     17  O   UNL     1      19.437   3.134 -66.206  1.00  0.00    -0.288 OA
ENDROOT
BRANCH   1  18
ATOM     18  C   UNL     1      16.173  -2.243 -64.745  1.00  0.00     0.072 C 
ATOM     19  O   UNL     1      16.289  -3.359 -65.302  1.00  0.00    -0.545 OA
ATOM     20  O   UNL     1      15.131  -2.054 -63.851  1.00  0.00    -0.545 OA
ENDBRANCH   1  18
BRANCH   3  21
ATOM     21  O   UNL     1      17.096   2.303 -66.188  1.00  0.00    -0.507 OA
ATOM     22  H   UNL     1      16.325   2.814 -65.775  1.00  0.00     0.293 HD
ENDBRANCH   3  21
TORSDOF 2
ENDMDL
MODEL 3
REMARK VINA RESULT:      -7.0      1.458      3.256
REMARK SMILES O=C([O-])c1cc(O)c2c(c1)C(=O)c1cccc([O-])c1C2=O
REMARK SMILES IDX 4 1 5 2 6 3 8 4 9 5 10 6 11 7 12 8 13 9 14 10 15 11 16 12
REMARK SMILES IDX 17 13 18 14 19 15 20 16 21 17 2 18 1 19 3 20 7 21
REMARK H PARENT 7 22
ROOT
ATOM      1  C   UNL     1      15.533  -0.526 -64.019  1.00  0.00     0.002 A 
ATOM      2  C   UNL     1      15.892   0.667 -64.609  1.00  0.00     0.057 A 
ATOM      3  C   UNL     1      16.705   0.673 -65.721  1.00  0.00     0.128 A 
ATOM      4  C   UNL     1      17.193  -0.493 -66.289  1.00  0.00     0.075 A 
ATOM      5  C   UNL     1      16.836  -1.691 -65.700  1.00  0.00     0.038 A 
ATOM      6  C   UNL     1      16.016  -1.690 -64.580  1.00  0.00     0.023 A 
ATOM      7  C   UNL     1      17.347  -2.918 -66.295  1.00  0.00     0.194 C 
ATOM      8  O   UNL     1      17.025  -4.005 -65.763  1.00  0.00    -0.289 OA
ATOM      9  C   UNL     1      18.211  -2.902 -67.476  1.00  0.00     0.033 A 
ATOM     10  C   UNL     1      18.697  -4.069 -68.043  1.00  0.00     0.013 A 
ATOM     11  C   UNL     1      19.512  -4.061 -69.156  1.00  0.00     0.000 A 
ATOM     12  C   UNL     1      19.874  -2.870 -69.751  1.00  0.00    -0.008 A 
ATOM     13  C   UNL     1      19.386  -1.701 -69.183  1.00  0.00    -0.097 A 
ATOM     14  O   UNL     1      19.727  -0.493 -69.753  1.00  0.00    -0.872 OA
ATOM     15  C   UNL     1      18.569  -1.707 -68.068  1.00  0.00     0.026 A 
ATOM     16  C   UNL     1      18.056  -0.479 -67.470  1.00  0.00     0.197 C 
ATOM     17  O   UNL     1      18.378   0.602 -68.003  1.00  0.00    -0.288 OA
ENDROOT
BRANCH   1  18
ATOM     18  C   UNL     1      14.674  -0.556 -62.841  1.00  0.00     0.072 C 
ATOM     19  O   UNL     1      14.206   0.493 -62.337  1.00  0.00    -0.545 OA
ATOM     20  O   UNL     1      14.358  -1.770 -62.255  1.00  0.00    -0.545 OA
ENDBRANCH   1  18
BRANCH   3  21
ATOM     21  O   UNL     1      17.063   1.862 -66.312  1.00  0.00    -0.507 OA
ATOM     22  H   UNL     1      17.497   1.928 -67.224  1.00  0.00     0.293 HD
ENDBRANCH   3  21
TORSDOF 2
ENDMDL
MODEL 4
REMARK VINA RESULT:      -6.9      9.530     11.797
REMARK SMILES O=C([O-])c1cc(O)c2c(c1)C(=O)c1cccc([O-])c1C2=O
REMARK SMILES IDX 4 1 5 2 6 3 8 4 9 5 10 6 11 7 12 8 13 9 14 10 15 11 16 12
REMARK SMILES IDX 17 13 18 14 19 15 20 16 21 17 2 18 1 19 3 20 7 21
REMARK H PARENT 7 22
ROOT
ATOM      1  C   UNL     1      16.481   8.068 -56.292  1.00  0.00     0.002 A 
ATOM      2  C   UNL     1      16.773   6.740 -56.513  1.00  0.00     0.057 A 
ATOM      3  C   UNL     1      16.037   6.010 -57.421  1.00  0.00     0.128 A 
ATOM      4  C   UNL     1      14.989   6.562 -58.140  1.00  0.00     0.075 A 
ATOM      5  C   UNL     1      14.693   7.895 -57.921  1.00  0.00     0.038 A 
ATOM      6  C   UNL     1      15.439   8.623 -57.006  1.00  0.00     0.023 A 
ATOM      7  C   UNL     1      13.593   8.478 -58.677  1.00  0.00     0.194 C 
ATOM      8  O   UNL     1      13.324   9.685 -58.479  1.00  0.00    -0.289 OA
ATOM      9  C   UNL     1      12.816   7.695 -59.638  1.00  0.00     0.033 A 
ATOM     10  C   UNL     1      11.769   8.250 -60.357  1.00  0.00     0.013 A 
ATOM     11  C   UNL     1      11.032   7.518 -61.265  1.00  0.00     0.000 A 
ATOM     12  C   UNL     1      11.320   6.187 -61.491  1.00  0.00    -0.008 A 
ATOM     13  C   UNL     1      12.370   5.632 -60.770  1.00  0.00    -0.097 A 
ATOM     14  O   UNL     1      12.685   4.306 -60.972  1.00  0.00    -0.872 OA
ATOM     15  C   UNL     1      13.109   6.365 -59.860  1.00  0.00     0.026 A 
ATOM     16  C   UNL     1      14.212   5.783 -59.103  1.00  0.00     0.197 C 
ATOM     17  O   UNL     1      14.478   4.580 -59.302  1.00  0.00    -0.288 OA
ENDROOT
BRANCH   1  18
ATOM     18  C   UNL     1      17.248   8.859 -55.336  1.00  0.00     0.072 C 
ATOM     19  O   UNL     1      18.469   9.091 -55.499  1.00  0.00    -0.545 OA
ATOM     20  O   UNL     1      16.620   9.372 -54.214  1.00  0.00    -0.545 OA
ENDBRANCH   1  18
BRANCH   3  21
ATOM     21  O   UNL     1      16.326   4.685 -57.644  1.00  0.00    -0.507 OA
ATOM     22  H   UNL     1      16.805   4.345 -58.468  1.00  0.00     0.293 HD
ENDBRANCH   3  21
TORSDOF 2
ENDMDL
MODEL 5
REMARK VINA RESULT:      -6.7      3.819      6.383
REMARK SMILES O=C([O-])c1cc(O)c2c(c1)C(=O)c1cccc([O-])c1C2=O
REMARK SMILES IDX 4 1 5 2 6 3 8 4 9 5 10 6 11 7 12 8 13 9 14 10 15 11 16 12
REMARK SMILES IDX 17 13 18 14 19 15 20 16 21 17 2 18 1 19 3 20 7 21
REMARK H PARENT 7 22
ROOT
ATOM      1  C   UNL     1      21.258   3.173 -65.711  1.00  0.00     0.002 A 
ATOM      2  C   UNL     1      19.927   3.384 -65.999  1.00  0.00     0.057 A 
ATOM      3  C   UNL     1      19.061   2.316 -66.096  1.00  0.00     0.128 A 
ATOM      4  C   UNL     1      19.476   1.007 -65.914  1.00  0.00     0.075 A 
ATOM      5  C   UNL     1      20.811   0.791 -65.626  1.00  0.00     0.038 A 
ATOM      6  C   UNL     1      21.676   1.871 -65.529  1.00  0.00     0.023 A 
ATOM      7  C   UNL     1      21.249  -0.585 -65.434  1.00  0.00     0.194 C 
ATOM      8  O   UNL     1      22.457  -0.782 -65.173  1.00  0.00    -0.289 OA
ATOM      9  C   UNL     1      20.322  -1.712 -65.540  1.00  0.00     0.033 A 
ATOM     10  C   UNL     1      20.739  -3.021 -65.357  1.00  0.00     0.013 A 
ATOM     11  C   UNL     1      19.871  -4.089 -65.456  1.00  0.00     0.000 A 
ATOM     12  C   UNL     1      18.536  -3.883 -65.743  1.00  0.00    -0.008 A 
ATOM     13  C   UNL     1      18.120  -2.571 -65.925  1.00  0.00    -0.097 A 
ATOM     14  O   UNL     1      16.794  -2.331 -66.212  1.00  0.00    -0.872 OA
ATOM     15  C   UNL     1      18.988  -1.501 -65.827  1.00  0.00     0.026 A 
ATOM     16  C   UNL     1      18.552  -0.122 -66.018  1.00  0.00     0.197 C 
ATOM     17  O   UNL     1      17.346   0.072 -66.278  1.00  0.00    -0.288 OA
ENDROOT
BRANCH   1  18
ATOM     18  C   UNL     1      22.192   4.288 -65.604  1.00  0.00     0.072 C 
ATOM     19  O   UNL     1      23.136   4.440 -66.414  1.00  0.00    -0.545 OA
ATOM     20  O   UNL     1      22.041   5.210 -64.582  1.00  0.00    -0.545 OA
ENDBRANCH   1  18
BRANCH   3  21
ATOM     21  O   UNL     1      17.733   2.525 -66.382  1.00  0.00    -0.507 OA
ATOM     22  H   UNL     1      17.311   3.442 -66.453  1.00  0.00     0.293 HD
ENDBRANCH   3  21
TORSDOF 2
ENDMDL
MODEL 6
REMARK VINA RESULT:      -6.6      9.665     12.028
REMARK SMILES O=C([O-])c1cc(O)c2c(c1)C(=O)c1cccc([O-])c1C2=O
REMARK SMILES IDX 4 1 5 2 6 3 8 4 9 5 10 6 11 7 12 8 13 9 14 10 15 11 16 12
REMARK SMILES IDX 17 13 18 14 19 15 20 16 21 17 2 18 1 19 3 20 7 21
REMARK H PARENT 7 22
ROOT
ATOM      1  C   UNL     1      11.800   6.868 -60.431  1.00  0.00     0.002 A 
ATOM      2  C   UNL     1      12.451   5.654 -60.389  1.00  0.00     0.057 A 
ATOM      3  C   UNL     1      13.565   5.491 -59.596  1.00  0.00     0.128 A 
ATOM      4  C   UNL     1      14.077   6.516 -58.818  1.00  0.00     0.075 A 
ATOM      5  C   UNL     1      13.428   7.736 -58.857  1.00  0.00     0.038 A 
ATOM      6  C   UNL     1      12.306   7.892 -59.658  1.00  0.00     0.023 A 
ATOM      7  C   UNL     1      13.964   8.816 -58.039  1.00  0.00     0.194 C 
ATOM      8  O   UNL     1      13.377   9.922 -58.073  1.00  0.00    -0.289 OA
ATOM      9  C   UNL     1      15.149   8.635 -57.200  1.00  0.00     0.033 A 
ATOM     10  C   UNL     1      15.659   9.661 -56.422  1.00  0.00     0.013 A 
ATOM     11  C   UNL     1      16.775   9.497 -55.629  1.00  0.00     0.000 A 
ATOM     12  C   UNL     1      17.430   8.283 -55.583  1.00  0.00    -0.008 A 
ATOM     13  C   UNL     1      16.918   7.254 -56.363  1.00  0.00    -0.097 A 
ATOM     14  O   UNL     1      17.547   6.029 -56.340  1.00  0.00    -0.872 OA
ATOM     15  C   UNL     1      15.800   7.418 -57.158  1.00  0.00     0.026 A 
ATOM     16  C   UNL     1      15.261   6.337 -57.977  1.00  0.00     0.197 C 
ATOM     17  O   UNL     1      15.847   5.236 -57.941  1.00  0.00    -0.288 OA
ENDROOT
BRANCH   1  18
ATOM     18  C   UNL     1      10.619   7.062 -61.263  1.00  0.00     0.072 C 
ATOM     19  O   UNL     1      10.014   6.098 -61.789  1.00  0.00    -0.545 OA
ATOM     20  O   UNL     1      10.142   8.343 -61.486  1.00  0.00    -0.545 OA
ENDBRANCH   1  18
BRANCH   3  21
ATOM     21  O   UNL     1      14.215   4.280 -59.553  1.00  0.00    -0.507 OA
ATOM     22  H   UNL     1      15.160   4.162 -59.210  1.00  0.00     0.293 HD
ENDBRANCH   3  21
TORSDOF 2
ENDMDL
MODEL 7
REMARK VINA RESULT:      -6.6      1.358      3.081
REMARK SMILES O=C([O-])c1cc(O)c2c(c1)C(=O)c1cccc([O-])c1C2=O
REMARK SMILES IDX 4 1 5 2 6 3 8 4 9 5 10 6 11 7 12 8 13 9 14 10 15 11 16 12
REMARK SMILES IDX 17 13 18 14 19 15 20 16 21 17 2 18 1 19 3 20 7 21
REMARK H PARENT 7 22
ROOT
ATOM      1  C   UNL     1      15.253  -1.304 -63.344  1.00  0.00     0.002 A 
ATOM      2  C   UNL     1      15.470   0.027 -63.627  1.00  0.00     0.057 A 
ATOM      3  C   UNL     1      16.237   0.389 -64.713  1.00  0.00     0.128 A 
ATOM      4  C   UNL     1      16.817  -0.546 -65.555  1.00  0.00     0.075 A 
ATOM      5  C   UNL     1      16.602  -1.883 -65.274  1.00  0.00     0.038 A 
ATOM      6  C   UNL     1      15.827  -2.239 -64.180  1.00  0.00     0.023 A 
ATOM      7  C   UNL     1      17.210  -2.868 -66.159  1.00  0.00     0.194 C 
ATOM      8  O   UNL     1      17.016  -4.078 -65.906  1.00  0.00    -0.289 OA
ATOM      9  C   UNL     1      18.025  -2.474 -67.308  1.00  0.00     0.033 A 
ATOM     10  C   UNL     1      18.603  -3.411 -68.150  1.00  0.00     0.013 A 
ATOM     11  C   UNL     1      19.373  -3.047 -69.236  1.00  0.00     0.000 A 
ATOM     12  C   UNL     1      19.593  -1.715 -69.524  1.00  0.00    -0.008 A 
ATOM     13  C   UNL     1      19.012  -0.777 -68.681  1.00  0.00    -0.097 A 
ATOM     14  O   UNL     1      19.212   0.561 -68.940  1.00  0.00    -0.872 OA
ATOM     15  C   UNL     1      18.242  -1.140 -67.592  1.00  0.00     0.026 A 
ATOM     16  C   UNL     1      17.631  -0.156 -66.705  1.00  0.00     0.197 C 
ATOM     17  O   UNL     1      17.826   1.051 -66.960  1.00  0.00    -0.288 OA
ENDROOT
BRANCH   1  18
ATOM     18  C   UNL     1      14.443  -1.709 -62.201  1.00  0.00     0.072 C 
ATOM     19  O   UNL     1      14.955  -2.217 -61.175  1.00  0.00    -0.545 OA
ATOM     20  O   UNL     1      13.070  -1.533 -62.238  1.00  0.00    -0.545 OA
ENDBRANCH   1  18
BRANCH   3  21
ATOM     21  O   UNL     1      16.455   1.716 -64.997  1.00  0.00    -0.507 OA
ATOM     22  H   UNL     1      16.053   2.478 -64.465  1.00  0.00     0.293 HD
ENDBRANCH   3  21
TORSDOF 2
ENDMDL
MODEL 8
REMARK VINA RESULT:      -6.6      3.837      6.101
REMARK SMILES O=C([O-])c1cc(O)c2c(c1)C(=O)c1cccc([O-])c1C2=O
REMARK SMILES IDX 4 1 5 2 6 3 8 4 9 5 10 6 11 7 12 8 13 9 14 10 15 11 16 12
REMARK SMILES IDX 17 13 18 14 19 15 20 16 21 17 2 18 1 19 3 20 7 21
REMARK H PARENT 7 22
ROOT
ATOM      1  C   UNL     1      21.079   3.436 -65.515  1.00  0.00     0.002 A 
ATOM      2  C   UNL     1      22.169   2.593 -65.532  1.00  0.00     0.057 A 
ATOM      3  C   UNL     1      21.989   1.228 -65.575  1.00  0.00     0.128 A 
ATOM      4  C   UNL     1      20.731   0.647 -65.602  1.00  0.00     0.075 A 
ATOM      5  C   UNL     1      19.635   1.489 -65.586  1.00  0.00     0.038 A 
ATOM      6  C   UNL     1      19.824   2.863 -65.543  1.00  0.00     0.023 A 
ATOM      7  C   UNL     1      18.312   0.880 -65.615  1.00  0.00     0.194 C 
ATOM      8  O   UNL     1      17.318   1.642 -65.600  1.00  0.00    -0.289 OA
ATOM      9  C   UNL     1      18.131  -0.571 -65.660  1.00  0.00     0.033 A 
ATOM     10  C   UNL     1      16.872  -1.150 -65.688  1.00  0.00     0.013 A 
ATOM     11  C   UNL     1      16.693  -2.517 -65.730  1.00  0.00     0.000 A 
ATOM     12  C   UNL     1      17.782  -3.366 -65.747  1.00  0.00    -0.008 A 
ATOM     13  C   UNL     1      19.042  -2.785 -65.720  1.00  0.00    -0.097 A 
ATOM     14  O   UNL     1      20.151  -3.603 -65.737  1.00  0.00    -0.872 OA
ATOM     15  C   UNL     1      19.223  -1.415 -65.677  1.00  0.00     0.026 A 
ATOM     16  C   UNL     1      20.547  -0.803 -65.648  1.00  0.00     0.197 C 
ATOM     17  O   UNL     1      21.536  -1.564 -65.664  1.00  0.00    -0.288 OA
ENDROOT
BRANCH   1  18
ATOM     18  C   UNL     1      21.246   4.884 -65.470  1.00  0.00     0.072 C 
ATOM     19  O   UNL     1      20.265   5.662 -65.405  1.00  0.00    -0.545 OA
ATOM     20  O   UNL     1      22.520   5.427 -65.501  1.00  0.00    -0.545 OA
ENDBRANCH   1  18
BRANCH   3  21
ATOM     21  O   UNL     1      23.075   0.385 -65.592  1.00  0.00    -0.507 OA
ATOM     22  H   UNL     1      23.959   0.617 -66.027  1.00  0.00     0.293 HD
ENDBRANCH   3  21
TORSDOF 2
ENDMDL
MODEL 9
REMARK VINA RESULT:      -6.6      1.337      6.635
REMARK SMILES O=C([O-])c1cc(O)c2c(c1)C(=O)c1cccc([O-])c1C2=O
REMARK SMILES IDX 4 1 5 2 6 3 8 4 9 5 10 6 11 7 12 8 13 9 14 10 15 11 16 12
REMARK SMILES IDX 17 13 18 14 19 15 20 16 21 17 2 18 1 19 3 20 7 21
REMARK H PARENT 7 22
ROOT
ATOM      1  C   UNL     1      19.027  -1.234 -68.744  1.00  0.00     0.002 A 
ATOM      2  C   UNL     1      18.794   0.099 -68.482  1.00  0.00     0.057 A 
ATOM      3  C   UNL     1      18.006   0.468 -67.414  1.00  0.00     0.128 A 
ATOM      4  C   UNL     1      17.418  -0.460 -66.570  1.00  0.00     0.075 A 
ATOM      5  C   UNL     1      17.649  -1.799 -66.830  1.00  0.00     0.038 A 
ATOM      6  C   UNL     1      18.445  -2.163 -67.906  1.00  0.00     0.023 A 
ATOM      7  C   UNL     1      17.033  -2.777 -65.944  1.00  0.00     0.194 C 
ATOM      8  O   UNL     1      17.241  -3.989 -66.178  1.00  0.00    -0.289 OA
ATOM      9  C   UNL     1      16.196  -2.376 -64.813  1.00  0.00     0.033 A 
ATOM     10  C   UNL     1      15.610  -3.306 -63.970  1.00  0.00     0.013 A 
ATOM     11  C   UNL     1      14.820  -2.935 -62.902  1.00  0.00     0.000 A 
ATOM     12  C   UNL     1      14.584  -1.602 -62.634  1.00  0.00    -0.008 A 
ATOM     13  C   UNL     1      15.172  -0.670 -63.480  1.00  0.00    -0.097 A 
ATOM     14  O   UNL     1      14.958   0.670 -63.240  1.00  0.00    -0.872 OA
ATOM     15  C   UNL     1      15.964  -1.040 -64.550  1.00  0.00     0.026 A 
ATOM     16  C   UNL     1      16.582  -0.062 -65.439  1.00  0.00     0.197 C 
ATOM     17  O   UNL     1      16.374   1.146 -65.203  1.00  0.00    -0.288 OA
ENDROOT
BRANCH   1  18
ATOM     18  C   UNL     1      19.859  -1.647 -69.868  1.00  0.00     0.072 C 
ATOM     19  O   UNL     1      20.979  -1.129 -70.087  1.00  0.00    -0.545 OA
ATOM     20  O   UNL     1      19.409  -2.638 -70.724  1.00  0.00    -0.545 OA
ENDBRANCH   1  18
BRANCH   3  21
ATOM     21  O   UNL     1      17.773   1.797 -67.151  1.00  0.00    -0.507 OA
ATOM     22  H   UNL     1      17.762   2.518 -67.861  1.00  0.00     0.293 HD
ENDBRANCH   3  21
TORSDOF 2
ENDMDL
