MODEL 1
REMARK VINA RESULT:      -4.9      0.000      0.000
REMARK SMILES C=CCCCCCCCCCCCc1ccco1
REMARK SMILES IDX 8 1 7 2 6 3 5 4 4 5 3 6 2 7 1 8 9 9 10 10 11 11 12 12 13 13
REMARK SMILES IDX 14 14 15 15 18 16 16 17 17 18
REMARK H PARENT
ROOT
ATOM      1  C   UNL     1      16.665   1.714 -66.550  1.00  0.00     0.000 C 
ENDROOT
BRANCH   1   2
ATOM      2  C   UNL     1      16.452   0.716 -65.471  1.00  0.00     0.000 C 
BRANCH   2   3
ATOM      3  C   UNL     1      16.403  -0.705 -65.874  1.00  0.00     0.000 C 
BRANCH   3   4
ATOM      4  C   UNL     1      16.316  -1.677 -64.723  1.00  0.00     0.000 C 
BRANCH   4   5
ATOM      5  C   UNL     1      14.959  -1.715 -64.096  1.00  0.00     0.004 C 
BRANCH   5   6
ATOM      6  C   UNL     1      14.992  -1.343 -62.634  1.00  0.00     0.027 C 
BRANCH   6   7
ATOM      7  C   UNL     1      14.023  -0.236 -62.412  1.00  0.00    -0.035 C 
ATOM      8  C   UNL     1      13.168  -0.248 -61.400  1.00  0.00     0.004 C 
ENDBRANCH   6   7
ENDBRANCH   5   6
ENDBRANCH   4   5
ENDBRANCH   3   4
ENDBRANCH   2   3
ENDBRANCH   1   2
BRANCH   1   9
ATOM      9  C   UNL     1      18.101   1.963 -66.889  1.00  0.00     0.000 C 
BRANCH   9  10
ATOM     10  C   UNL     1      18.357   1.609 -68.317  1.00  0.00     0.000 C 
BRANCH  10  11
ATOM     11  C   UNL     1      18.502   0.158 -68.602  1.00  0.00     0.000 C 
BRANCH  11  12
ATOM     12  C   UNL     1      19.852  -0.402 -68.217  1.00  0.00     0.008 C 
BRANCH  12  13
ATOM     13  C   UNL     1      19.589  -1.507 -67.209  1.00  0.00     0.075 C 
BRANCH  13  14
ATOM     14  C   UNL     1      20.316  -1.251 -65.935  1.00  0.00     0.103 A 
ATOM     15  C   UNL     1      20.027  -0.354 -64.950  1.00  0.00     0.045 A 
ATOM     16  O   UNL     1      21.396  -1.913 -65.600  1.00  0.00    -0.469 OA
ATOM     17  C   UNL     1      20.997  -0.506 -63.989  1.00  0.00     0.042 A 
ATOM     18  C   UNL     1      21.830  -1.495 -64.443  1.00  0.00     0.195 A 
ENDBRANCH  13  14
ENDBRANCH  12  13
ENDBRANCH  11  12
ENDBRANCH  10  11
ENDBRANCH   9  10
ENDBRANCH   1   9
TORSDOF 12
ENDMDL
MODEL 2
REMARK VINA RESULT:      -4.7      2.190      5.995
REMARK SMILES C=CCCCCCCCCCCCc1ccco1
REMARK SMILES IDX 8 1 7 2 6 3 5 4 4 5 3 6 2 7 1 8 9 9 10 10 11 11 12 12 13 13
REMARK SMILES IDX 14 14 15 15 18 16 16 17 17 18
REMARK H PARENT
ROOT
ATOM      1  C   UNL     1      20.147  -1.399 -67.605  1.00  0.00     0.000 C 
ENDROOT
BRANCH   1   2
ATOM      2  C   UNL     1      19.924  -2.172 -66.356  1.00  0.00     0.000 C 
BRANCH   2   3
ATOM      3  C   UNL     1      20.839  -1.899 -65.227  1.00  0.00     0.000 C 
BRANCH   3   4
ATOM      4  C   UNL     1      20.591  -0.585 -64.528  1.00  0.00     0.000 C 
BRANCH   4   5
ATOM      5  C   UNL     1      21.762   0.343 -64.605  1.00  0.00     0.004 C 
BRANCH   5   6
ATOM      6  C   UNL     1      21.572   1.419 -65.646  1.00  0.00     0.027 C 
BRANCH   6   7
ATOM      7  C   UNL     1      20.270   2.093 -65.388  1.00  0.00    -0.035 C 
ATOM      8  C   UNL     1      19.796   3.031 -66.194  1.00  0.00     0.004 C 
ENDBRANCH   6   7
ENDBRANCH   5   6
ENDBRANCH   4   5
ENDBRANCH   3   4
ENDBRANCH   2   3
ENDBRANCH   1   2
BRANCH   1   9
ATOM      9  C   UNL     1      19.006  -0.515 -67.997  1.00  0.00     0.000 C 
BRANCH   9  10
ATOM     10  C   UNL     1      17.832  -0.777 -67.113  1.00  0.00     0.000 C 
BRANCH  10  11
ATOM     11  C   UNL     1      17.140   0.430 -66.591  1.00  0.00     0.000 C 
BRANCH  11  12
ATOM     12  C   UNL     1      16.767   0.330 -65.130  1.00  0.00     0.008 C 
BRANCH  12  13
ATOM     13  C   UNL     1      15.881  -0.896 -64.994  1.00  0.00     0.075 C 
BRANCH  13  14
ATOM     14  C   UNL     1      14.911  -0.732 -63.876  1.00  0.00     0.103 A 
ATOM     15  C   UNL     1      13.923  -1.579 -63.470  1.00  0.00     0.045 A 
ATOM     16  O   UNL     1      14.903   0.327 -63.105  1.00  0.00    -0.469 OA
ATOM     17  C   UNL     1      13.308  -0.974 -62.401  1.00  0.00     0.042 A 
ATOM     18  C   UNL     1      13.959   0.217 -62.213  1.00  0.00     0.195 A 
ENDBRANCH  13  14
ENDBRANCH  12  13
ENDBRANCH  11  12
ENDBRANCH  10  11
ENDBRANCH   9  10
ENDBRANCH   1   9
TORSDOF 12
ENDMDL
MODEL 3
REMARK VINA RESULT:      -4.6      1.746      3.760
REMARK SMILES C=CCCCCCCCCCCCc1ccco1
REMARK SMILES IDX 8 1 7 2 6 3 5 4 4 5 3 6 2 7 1 8 9 9 10 10 11 11 12 12 13 13
REMARK SMILES IDX 14 14 15 15 18 16 16 17 17 18
REMARK H PARENT
ROOT
ATOM      1  C   UNL     1      19.094  -2.421 -65.591  1.00  0.00     0.000 C 
ENDROOT
BRANCH   1   2
ATOM      2  C   UNL     1      17.945  -1.564 -65.202  1.00  0.00     0.000 C 
BRANCH   2   3
ATOM      3  C   UNL     1      16.669  -1.793 -65.911  1.00  0.00     0.000 C 
BRANCH   3   4
ATOM      4  C   UNL     1      15.513  -0.969 -65.397  1.00  0.00     0.000 C 
BRANCH   4   5
ATOM      5  C   UNL     1      15.869  -0.160 -64.191  1.00  0.00     0.004 C 
BRANCH   5   6
ATOM      6  C   UNL     1      14.774  -0.168 -63.153  1.00  0.00     0.027 C 
BRANCH   6   7
ATOM      7  C   UNL     1      13.980  -1.415 -63.323  1.00  0.00    -0.035 C 
ATOM      8  C   UNL     1      12.656  -1.416 -63.259  1.00  0.00     0.004 C 
ENDBRANCH   6   7
ENDBRANCH   5   6
ENDBRANCH   4   5
ENDBRANCH   3   4
ENDBRANCH   2   3
ENDBRANCH   1   2
BRANCH   1   9
ATOM      9  C   UNL     1      20.283  -1.669 -66.099  1.00  0.00     0.000 C 
BRANCH   9  10
ATOM     10  C   UNL     1      21.098  -1.170 -64.952  1.00  0.00     0.000 C 
BRANCH  10  11
ATOM     11  C   UNL     1      20.982   0.283 -64.666  1.00  0.00     0.000 C 
BRANCH  11  12
ATOM     12  C   UNL     1      21.345   1.162 -65.840  1.00  0.00     0.008 C 
BRANCH  12  13
ATOM     13  C   UNL     1      20.312   2.274 -65.884  1.00  0.00     0.075 C 
BRANCH  13  14
ATOM     14  C   UNL     1      19.156   1.896 -66.742  1.00  0.00     0.103 A 
ATOM     15  C   UNL     1      17.826   1.929 -66.448  1.00  0.00     0.045 A 
ATOM     16  O   UNL     1      19.307   1.456 -67.967  1.00  0.00    -0.469 OA
ATOM     17  C   UNL     1      17.169   1.482 -67.567  1.00  0.00     0.042 A 
ATOM     18  C   UNL     1      18.141   1.199 -68.491  1.00  0.00     0.195 A 
ENDBRANCH  13  14
ENDBRANCH  12  13
ENDBRANCH  11  12
ENDBRANCH  10  11
ENDBRANCH   9  10
ENDBRANCH   1   9
TORSDOF 12
ENDMDL
MODEL 4
REMARK VINA RESULT:      -4.6      4.140      7.079
REMARK SMILES C=CCCCCCCCCCCCc1ccco1
REMARK SMILES IDX 8 1 7 2 6 3 5 4 4 5 3 6 2 7 1 8 9 9 10 10 11 11 12 12 13 13
REMARK SMILES IDX 14 14 15 15 18 16 16 17 17 18
REMARK H PARENT
ROOT
ATOM      1  C   UNL     1      19.889   2.059 -65.620  1.00  0.00     0.000 C 
ENDROOT
BRANCH   1   2
ATOM      2  C   UNL     1      19.976   3.414 -66.222  1.00  0.00     0.000 C 
BRANCH   2   3
ATOM      3  C   UNL     1      20.617   4.469 -65.409  1.00  0.00     0.000 C 
BRANCH   3   4
ATOM      4  C   UNL     1      22.103   4.290 -65.215  1.00  0.00     0.000 C 
BRANCH   4   5
ATOM      5  C   UNL     1      22.883   5.526 -65.531  1.00  0.00     0.004 C 
BRANCH   5   6
ATOM      6  C   UNL     1      23.433   6.189 -64.292  1.00  0.00     0.027 C 
BRANCH   6   7
ATOM      7  C   UNL     1      22.510   7.290 -63.904  1.00  0.00    -0.035 C 
ATOM      8  C   UNL     1      22.103   8.201 -64.776  1.00  0.00     0.004 C 
ENDBRANCH   6   7
ENDBRANCH   5   6
ENDBRANCH   4   5
ENDBRANCH   3   4
ENDBRANCH   2   3
ENDBRANCH   1   2
BRANCH   1   9
ATOM      9  C   UNL     1      18.511   1.653 -65.205  1.00  0.00     0.000 C 
BRANCH   9  10
ATOM     10  C   UNL     1      17.779   1.073 -66.370  1.00  0.00     0.000 C 
BRANCH  10  11
ATOM     11  C   UNL     1      18.055  -0.360 -66.651  1.00  0.00     0.000 C 
BRANCH  11  12
ATOM     12  C   UNL     1      18.068  -1.228 -65.415  1.00  0.00     0.008 C 
BRANCH  12  13
ATOM     13  C   UNL     1      16.748  -1.980 -65.401  1.00  0.00     0.075 C 
BRANCH  13  14
ATOM     14  C   UNL     1      15.894  -1.538 -64.265  1.00  0.00     0.103 A 
ATOM     15  C   UNL     1      15.297  -0.329 -64.063  1.00  0.00     0.045 A 
ATOM     16  O   UNL     1      15.604  -2.325 -63.258  1.00  0.00    -0.469 OA
ATOM     17  C   UNL     1      14.622  -0.423 -62.870  1.00  0.00     0.042 A 
ATOM     18  C   UNL     1      14.846  -1.693 -62.407  1.00  0.00     0.195 A 
ENDBRANCH  13  14
ENDBRANCH  12  13
ENDBRANCH  11  12
ENDBRANCH  10  11
ENDBRANCH   9  10
ENDBRANCH   1   9
TORSDOF 12
ENDMDL
MODEL 5
REMARK VINA RESULT:      -4.6      1.806      3.073
REMARK SMILES C=CCCCCCCCCCCCc1ccco1
REMARK SMILES IDX 8 1 7 2 6 3 5 4 4 5 3 6 2 7 1 8 9 9 10 10 11 11 12 12 13 13
REMARK SMILES IDX 14 14 15 15 18 16 16 17 17 18
REMARK H PARENT
ROOT
ATOM      1  C   UNL     1      17.397  -3.277 -66.280  1.00  0.00     0.000 C 
ENDROOT
BRANCH   1   2
ATOM      2  C   UNL     1      18.194  -2.247 -65.568  1.00  0.00     0.000 C 
BRANCH   2   3
ATOM      3  C   UNL     1      17.458  -1.083 -65.031  1.00  0.00     0.000 C 
BRANCH   3   4
ATOM      4  C   UNL     1      16.087  -0.882 -65.628  1.00  0.00     0.000 C 
BRANCH   4   5
ATOM      5  C   UNL     1      14.985  -1.132 -64.649  1.00  0.00     0.004 C 
BRANCH   5   6
ATOM      6  C   UNL     1      15.122  -0.288 -63.405  1.00  0.00     0.027 C 
BRANCH   6   7
ATOM      7  C   UNL     1      14.405  -0.973 -62.295  1.00  0.00    -0.035 C 
ATOM      8  C   UNL     1      13.312  -0.463 -61.748  1.00  0.00     0.004 C 
ENDBRANCH   6   7
ENDBRANCH   5   6
ENDBRANCH   4   5
ENDBRANCH   3   4
ENDBRANCH   2   3
ENDBRANCH   1   2
BRANCH   1   9
ATOM      9  C   UNL     1      17.882  -3.590 -67.660  1.00  0.00     0.000 C 
BRANCH   9  10
ATOM     10  C   UNL     1      19.116  -2.803 -67.957  1.00  0.00     0.000 C 
BRANCH  10  11
ATOM     11  C   UNL     1      19.223  -2.277 -69.342  1.00  0.00     0.000 C 
BRANCH  11  12
ATOM     12  C   UNL     1      19.536  -0.800 -69.406  1.00  0.00     0.008 C 
BRANCH  12  13
ATOM     13  C   UNL     1      18.466  -0.095 -68.591  1.00  0.00     0.075 C 
BRANCH  13  14
ATOM     14  C   UNL     1      19.074   0.823 -67.590  1.00  0.00     0.103 A 
ATOM     15  C   UNL     1      18.719   2.100 -67.273  1.00  0.00     0.045 A 
ATOM     16  O   UNL     1      20.098   0.473 -66.850  1.00  0.00    -0.469 OA
ATOM     17  C   UNL     1      19.587   2.514 -66.293  1.00  0.00     0.042 A 
ATOM     18  C   UNL     1      20.431   1.458 -66.063  1.00  0.00     0.195 A 
ENDBRANCH  13  14
ENDBRANCH  12  13
ENDBRANCH  11  12
ENDBRANCH  10  11
ENDBRANCH   9  10
ENDBRANCH   1   9
TORSDOF 12
ENDMDL
MODEL 6
REMARK VINA RESULT:      -4.5      4.135      4.738
REMARK SMILES C=CCCCCCCCCCCCc1ccco1
REMARK SMILES IDX 8 1 7 2 6 3 5 4 4 5 3 6 2 7 1 8 9 9 10 10 11 11 12 12 13 13
REMARK SMILES IDX 14 14 15 15 18 16 16 17 17 18
REMARK H PARENT
ROOT
ATOM      1  C   UNL     1      16.959   1.398 -66.469  1.00  0.00     0.000 C 
ENDROOT
BRANCH   1   2
ATOM      2  C   UNL     1      17.114  -0.070 -66.307  1.00  0.00     0.000 C 
BRANCH   2   3
ATOM      3  C   UNL     1      15.992  -0.798 -65.678  1.00  0.00     0.000 C 
BRANCH   3   4
ATOM      4  C   UNL     1      16.407  -1.797 -64.626  1.00  0.00     0.000 C 
BRANCH   4   5
ATOM      5  C   UNL     1      15.474  -1.832 -63.458  1.00  0.00     0.004 C 
BRANCH   5   6
ATOM      6  C   UNL     1      14.956  -0.461 -63.097  1.00  0.00     0.027 C 
BRANCH   6   7
ATOM      7  C   UNL     1      13.516  -0.586 -62.741  1.00  0.00    -0.035 C 
ATOM      8  C   UNL     1      12.707  -1.416 -63.383  1.00  0.00     0.004 C 
ENDBRANCH   6   7
ENDBRANCH   5   6
ENDBRANCH   4   5
ENDBRANCH   3   4
ENDBRANCH   2   3
ENDBRANCH   1   2
BRANCH   1   9
ATOM      9  C   UNL     1      18.247   2.143 -66.615  1.00  0.00     0.000 C 
BRANCH   9  10
ATOM     10  C   UNL     1      19.168   1.796 -65.492  1.00  0.00     0.000 C 
BRANCH  10  11
ATOM     11  C   UNL     1      20.585   2.204 -65.675  1.00  0.00     0.000 C 
BRANCH  11  12
ATOM     12  C   UNL     1      20.792   3.701 -65.640  1.00  0.00     0.008 C 
BRANCH  12  13
ATOM     13  C   UNL     1      22.290   3.927 -65.526  1.00  0.00     0.075 C 
BRANCH  13  14
ATOM     14  C   UNL     1      22.589   5.329 -65.128  1.00  0.00     0.103 A 
ATOM     15  C   UNL     1      21.722   6.339 -64.833  1.00  0.00     0.045 A 
ATOM     16  O   UNL     1      23.815   5.778 -65.011  1.00  0.00    -0.469 OA
ATOM     17  C   UNL     1      22.491   7.435 -64.528  1.00  0.00     0.042 A 
ATOM     18  C   UNL     1      23.794   7.032 -64.653  1.00  0.00     0.195 A 
ENDBRANCH  13  14
ENDBRANCH  12  13
ENDBRANCH  11  12
ENDBRANCH  10  11
ENDBRANCH   9  10
ENDBRANCH   1   9
TORSDOF 12
ENDMDL
MODEL 7
REMARK VINA RESULT:      -4.5      4.423      8.855
REMARK SMILES C=CCCCCCCCCCCCc1ccco1
REMARK SMILES IDX 8 1 7 2 6 3 5 4 4 5 3 6 2 7 1 8 9 9 10 10 11 11 12 12 13 13
REMARK SMILES IDX 14 14 15 15 18 16 16 17 17 18
REMARK H PARENT
ROOT
ATOM      1  C   UNL     1      14.260  -1.140 -62.214  1.00  0.00     0.000 C 
ENDROOT
BRANCH   1   2
ATOM      2  C   UNL     1      14.503  -1.696 -63.569  1.00  0.00     0.000 C 
BRANCH   2   3
ATOM      3  C   UNL     1      15.880  -1.597 -64.097  1.00  0.00     0.000 C 
BRANCH   3   4
ATOM      4  C   UNL     1      15.988  -0.895 -65.429  1.00  0.00     0.000 C 
BRANCH   4   5
ATOM      5  C   UNL     1      16.309   0.559 -65.294  1.00  0.00     0.004 C 
BRANCH   5   6
ATOM      6  C   UNL     1      17.556   0.944 -66.051  1.00  0.00     0.027 C 
BRANCH   6   7
ATOM      7  C   UNL     1      17.174   1.248 -67.457  1.00  0.00    -0.035 C 
ATOM      8  C   UNL     1      18.067   1.277 -68.434  1.00  0.00     0.004 C 
ENDBRANCH   6   7
ENDBRANCH   5   6
ENDBRANCH   4   5
ENDBRANCH   3   4
ENDBRANCH   2   3
ENDBRANCH   1   2
BRANCH   1   9
ATOM      9  C   UNL     1      13.510   0.154 -62.201  1.00  0.00     0.000 C 
BRANCH   9  10
ATOM     10  C   UNL     1      13.362   0.643 -60.797  1.00  0.00     0.000 C 
BRANCH  10  11
ATOM     11  C   UNL     1      13.473   2.113 -60.616  1.00  0.00     0.000 C 
BRANCH  11  12
ATOM     12  C   UNL     1      12.763   2.626 -59.384  1.00  0.00     0.008 C 
BRANCH  12  13
ATOM     13  C   UNL     1      13.279   4.034 -59.143  1.00  0.00     0.075 C 
BRANCH  13  14
ATOM     14  C   UNL     1      12.609   5.011 -60.044  1.00  0.00     0.103 A 
ATOM     15  C   UNL     1      11.383   5.592 -59.915  1.00  0.00     0.045 A 
ATOM     16  O   UNL     1      13.170   5.449 -61.144  1.00  0.00    -0.469 OA
ATOM     17  C   UNL     1      11.225   6.414 -61.004  1.00  0.00     0.042 A 
ATOM     18  C   UNL     1      12.372   6.289 -61.743  1.00  0.00     0.195 A 
ENDBRANCH  13  14
ENDBRANCH  12  13
ENDBRANCH  11  12
ENDBRANCH  10  11
ENDBRANCH   9  10
ENDBRANCH   1   9
TORSDOF 12
ENDMDL
MODEL 8
REMARK VINA RESULT:      -4.5      9.982     13.500
REMARK SMILES C=CCCCCCCCCCCCc1ccco1
REMARK SMILES IDX 8 1 7 2 6 3 5 4 4 5 3 6 2 7 1 8 9 9 10 10 11 11 12 12 13 13
REMARK SMILES IDX 14 14 15 15 18 16 16 17 17 18
REMARK H PARENT
ROOT
ATOM      1  C   UNL     1      16.072   5.678 -57.531  1.00  0.00     0.000 C 
ENDROOT
BRANCH   1   2
ATOM      2  C   UNL     1      14.944   6.206 -58.340  1.00  0.00     0.000 C 
BRANCH   2   3
ATOM      3  C   UNL     1      14.517   5.398 -59.502  1.00  0.00     0.000 C 
BRANCH   3   4
ATOM      4  C   UNL     1      13.392   4.434 -59.212  1.00  0.00     0.000 C 
BRANCH   4   5
ATOM      5  C   UNL     1      12.052   5.096 -59.191  1.00  0.00     0.004 C 
BRANCH   5   6
ATOM      6  C   UNL     1      12.044   6.399 -59.953  1.00  0.00     0.027 C 
BRANCH   6   7
ATOM      7  C   UNL     1      10.712   6.554 -60.598  1.00  0.00    -0.035 C 
ATOM      8  C   UNL     1      10.314   7.708 -61.112  1.00  0.00     0.004 C 
ENDBRANCH   6   7
ENDBRANCH   5   6
ENDBRANCH   4   5
ENDBRANCH   3   4
ENDBRANCH   2   3
ENDBRANCH   1   2
BRANCH   1   9
ATOM      9  C   UNL     1      16.606   6.636 -56.515  1.00  0.00     0.000 C 
BRANCH   9  10
ATOM     10  C   UNL     1      15.847   7.921 -56.577  1.00  0.00     0.000 C 
BRANCH  10  11
ATOM     11  C   UNL     1      15.020   8.236 -55.384  1.00  0.00     0.000 C 
BRANCH  11  12
ATOM     12  C   UNL     1      13.535   8.091 -55.621  1.00  0.00     0.008 C 
BRANCH  12  13
ATOM     13  C   UNL     1      12.842   8.858 -54.508  1.00  0.00     0.075 C 
BRANCH  13  14
ATOM     14  C   UNL     1      12.591   7.982 -53.331  1.00  0.00     0.103 A 
ATOM     15  C   UNL     1      12.739   8.266 -52.007  1.00  0.00     0.045 A 
ATOM     16  O   UNL     1      12.170   6.747 -53.454  1.00  0.00    -0.469 OA
ATOM     17  C   UNL     1      12.382   7.130 -51.323  1.00  0.00     0.042 A 
ATOM     18  C   UNL     1      12.033   6.208 -52.275  1.00  0.00     0.195 A 
ENDBRANCH  13  14
ENDBRANCH  12  13
ENDBRANCH  11  12
ENDBRANCH  10  11
ENDBRANCH   9  10
ENDBRANCH   1   9
TORSDOF 12
ENDMDL
MODEL 9
REMARK VINA RESULT:      -4.5      2.269      6.018
REMARK SMILES C=CCCCCCCCCCCCc1ccco1
REMARK SMILES IDX 8 1 7 2 6 3 5 4 4 5 3 6 2 7 1 8 9 9 10 10 11 11 12 12 13 13
REMARK SMILES IDX 14 14 15 15 18 16 16 17 17 18
REMARK H PARENT
ROOT
ATOM      1  C   UNL     1      17.163   1.546 -66.739  1.00  0.00     0.000 C 
ENDROOT
BRANCH   1   2
ATOM      2  C   UNL     1      18.418   2.295 -66.475  1.00  0.00     0.000 C 
BRANCH   2   3
ATOM      3  C   UNL     1      19.125   1.995 -65.212  1.00  0.00     0.000 C 
BRANCH   3   4
ATOM      4  C   UNL     1      20.377   1.169 -65.379  1.00  0.00     0.000 C 
BRANCH   4   5
ATOM      5  C   UNL     1      20.496   0.083 -64.357  1.00  0.00     0.004 C 
BRANCH   5   6
ATOM      6  C   UNL     1      20.058  -1.258 -64.893  1.00  0.00     0.027 C 
BRANCH   6   7
ATOM      7  C   UNL     1      20.497  -1.358 -66.312  1.00  0.00    -0.035 C 
ATOM      8  C   UNL     1      20.398  -2.488 -66.996  1.00  0.00     0.004 C 
ENDBRANCH   6   7
ENDBRANCH   5   6
ENDBRANCH   4   5
ENDBRANCH   3   4
ENDBRANCH   2   3
ENDBRANCH   1   2
BRANCH   1   9
ATOM      9  C   UNL     1      17.367   0.115 -67.124  1.00  0.00     0.000 C 
BRANCH   9  10
ATOM     10  C   UNL     1      16.272  -0.726 -66.555  1.00  0.00     0.000 C 
BRANCH  10  11
ATOM     11  C   UNL     1      16.713  -1.869 -65.714  1.00  0.00     0.000 C 
BRANCH  11  12
ATOM     12  C   UNL     1      16.203  -1.807 -64.293  1.00  0.00     0.008 C 
BRANCH  12  13
ATOM     13  C   UNL     1      15.771  -0.371 -64.051  1.00  0.00     0.075 C 
BRANCH  13  14
ATOM     14  C   UNL     1      14.692  -0.304 -63.028  1.00  0.00     0.103 A 
ATOM     15  C   UNL     1      13.739  -1.230 -62.727  1.00  0.00     0.045 A 
ATOM     16  O   UNL     1      14.531   0.737 -62.247  1.00  0.00    -0.469 OA
ATOM     17  C   UNL     1      12.982  -0.695 -61.714  1.00  0.00     0.042 A 
ATOM     18  C   UNL     1      13.519   0.538 -61.449  1.00  0.00     0.195 A 
ENDBRANCH  13  14
ENDBRANCH  12  13
ENDBRANCH  11  12
ENDBRANCH  10  11
ENDBRANCH   9  10
ENDBRANCH   1   9
TORSDOF 12
ENDMDL
