MODEL 1
REMARK VINA RESULT:      -7.2      0.000      0.000
REMARK SMILES O=C1NCN(c2ccccc2)C12CC[NH+](CCCC(c1ccc(F)cc1)c1ccc(F)cc1)CC2
REMARK SMILES IDX 17 1 16 2 15 3 1 4 2 5 3 6 12 7 4 8 5 9 13 10 35 11 14 12
REMARK SMILES IDX 34 13 6 16 7 17 11 18 8 19 10 20 9 21 18 22 19 23 20 24
REMARK SMILES IDX 21 25 26 26 22 27 25 28 23 29 24 30 27 31 28 32 33 33 29 34
REMARK SMILES IDX 32 35 30 36 31 37
REMARK H PARENT 3 14 15 15
ROOT
ATOM      1  C   UNL     1     116.641  64.934 107.818  1.00  0.00     0.062 C 
ENDROOT
BRANCH   1   2
ATOM      2  C   UNL     1     117.719  63.989 108.258  1.00  0.00     0.262 C 
BRANCH   2   3
ATOM      3  N   UNL     1     118.954  64.262 107.532  1.00  0.00    -0.335 N 
ATOM      4  O   UNL     1     122.110  64.920 107.720  1.00  0.00    -0.272 OA
ATOM      5  C   UNL     1     122.070  65.231 106.512  1.00  0.00     0.247 C 
ATOM      6  N   UNL     1     123.176  65.685 105.772  1.00  0.00    -0.336 N 
ATOM      7  C   UNL     1     120.841  65.176 105.633  1.00  0.00     0.131 C 
ATOM      8  C   UNL     1     122.847  65.483 104.397  1.00  0.00     0.238 C 
ATOM      9  N   UNL     1     121.384  65.629 104.355  1.00  0.00    -0.339 N 
ATOM     10  C   UNL     1     119.805  66.133 106.188  1.00  0.00     0.100 C 
ATOM     11  C   UNL     1     120.355  63.771 105.622  1.00  0.00     0.100 C 
ATOM     12  C   UNL     1     119.292  65.670 107.531  1.00  0.00     0.265 C 
ATOM     13  C   UNL     1     118.984  63.694 106.210  1.00  0.00     0.265 C 
ATOM     14  H   UNL     1     124.062  66.091 106.179  1.00  0.00     0.165 HD
ATOM     15  H   UNL     1     119.689  63.776 108.092  1.00  0.00     0.348 HD
BRANCH   9  16
ATOM     16  C   UNL     1     120.732  66.154 103.210  1.00  0.00     0.039 A 
ATOM     17  C   UNL     1     121.045  67.402 102.725  1.00  0.00     0.026 A 
ATOM     18  C   UNL     1     119.796  65.406 102.564  1.00  0.00     0.026 A 
ATOM     19  C   UNL     1     120.424  67.920 101.585  1.00  0.00     0.002 A 
ATOM     20  C   UNL     1     119.176  65.895 101.448  1.00  0.00     0.002 A 
ATOM     21  C   UNL     1     119.480  67.137 100.955  1.00  0.00     0.000 A 
ENDBRANCH   9  16
ENDBRANCH   2   3
ENDBRANCH   1   2
BRANCH   1  22
ATOM     22  C   UNL     1     115.283  64.674 108.308  1.00  0.00     0.019 C 
BRANCH  22  23
ATOM     23  C   UNL     1     114.407  63.673 107.715  1.00  0.00     0.049 C 
BRANCH  23  24
ATOM     24  C   UNL     1     112.968  63.720 108.158  1.00  0.00    -0.040 A 
ATOM     25  C   UNL     1     112.244  62.556 108.029  1.00  0.00     0.007 A 
ATOM     26  C   UNL     1     112.383  64.859 108.644  1.00  0.00     0.007 A 
ATOM     27  C   UNL     1     110.920  62.525 108.388  1.00  0.00     0.039 A 
ATOM     28  C   UNL     1     111.062  64.823 109.002  1.00  0.00     0.039 A 
ATOM     29  C   UNL     1     110.304  63.653 108.881  1.00  0.00     0.123 A 
ATOM     30  F   UNL     1     108.994  63.610 109.233  1.00  0.00    -0.207 F 
ENDBRANCH  23  24
BRANCH  23  31
ATOM     31  C   UNL     1     114.498  63.348 106.301  1.00  0.00    -0.040 A 
ATOM     32  C   UNL     1     115.073  62.237 105.752  1.00  0.00     0.007 A 
ATOM     33  C   UNL     1     113.946  64.298 105.431  1.00  0.00     0.007 A 
ATOM     34  C   UNL     1     115.086  62.099 104.359  1.00  0.00     0.039 A 
ATOM     35  C   UNL     1     113.950  64.175 104.079  1.00  0.00     0.039 A 
ATOM     36  C   UNL     1     114.534  63.052 103.540  1.00  0.00     0.123 A 
ATOM     37  F   UNL     1     114.531  62.942 102.184  1.00  0.00    -0.207 F 
ENDBRANCH  23  31
ENDBRANCH  22  23
ENDBRANCH   1  22
TORSDOF 7
ENDMDL
MODEL 2
REMARK VINA RESULT:      -7.2      0.574      3.783
REMARK SMILES O=C1NCN(c2ccccc2)C12CC[NH+](CCCC(c1ccc(F)cc1)c1ccc(F)cc1)CC2
REMARK SMILES IDX 17 1 16 2 15 3 1 4 2 5 3 6 12 7 4 8 5 9 13 10 35 11 14 12
REMARK SMILES IDX 34 13 6 16 7 17 11 18 8 19 10 20 9 21 18 22 19 23 20 24
REMARK SMILES IDX 21 25 26 26 22 27 25 28 23 29 24 30 27 31 28 32 33 33 29 34
REMARK SMILES IDX 32 35 30 36 31 37
REMARK H PARENT 3 14 15 15
ROOT
ATOM      1  C   UNL     1     116.574  64.672 107.734  1.00  0.00     0.062 C 
ENDROOT
BRANCH   1   2
ATOM      2  C   UNL     1     117.668  63.723 108.127  1.00  0.00     0.262 C 
BRANCH   2   3
ATOM      3  N   UNL     1     118.906  64.071 107.440  1.00  0.00    -0.335 N 
ATOM      4  O   UNL     1     122.011  64.911 107.726  1.00  0.00    -0.272 OA
ATOM      5  C   UNL     1     121.989  65.224 106.518  1.00  0.00     0.247 C 
ATOM      6  N   UNL     1     123.089  65.745 105.814  1.00  0.00    -0.336 N 
ATOM      7  C   UNL     1     120.793  65.102 105.602  1.00  0.00     0.131 C 
ATOM      8  C   UNL     1     122.814  65.530 104.428  1.00  0.00     0.238 C 
ATOM      9  N   UNL     1     121.347  65.592 104.343  1.00  0.00    -0.339 N 
ATOM     10  C   UNL     1     119.687  65.995 106.128  1.00  0.00     0.100 C 
ATOM     11  C   UNL     1     120.390  63.671 105.572  1.00  0.00     0.100 C 
ATOM     12  C   UNL     1     119.161  65.496 107.454  1.00  0.00     0.265 C 
ATOM     13  C   UNL     1     119.009  63.512 106.118  1.00  0.00     0.265 C 
ATOM     14  H   UNL     1     123.937  66.200 106.249  1.00  0.00     0.165 HD
ATOM     15  H   UNL     1     119.651  63.626 108.021  1.00  0.00     0.348 HD
BRANCH   9  16
ATOM     16  C   UNL     1     120.701  66.083 103.180  1.00  0.00     0.039 A 
ATOM     17  C   UNL     1     120.955  67.350 102.708  1.00  0.00     0.026 A 
ATOM     18  C   UNL     1     119.830  65.285 102.504  1.00  0.00     0.026 A 
ATOM     19  C   UNL     1     120.339  67.837 101.552  1.00  0.00     0.002 A 
ATOM     20  C   UNL     1     119.217  65.743 101.370  1.00  0.00     0.002 A 
ATOM     21  C   UNL     1     119.462  67.003 100.891  1.00  0.00     0.000 A 
ENDBRANCH   9  16
ENDBRANCH   2   3
ENDBRANCH   1   2
BRANCH   1  22
ATOM     22  C   UNL     1     115.195  64.253 108.009  1.00  0.00     0.019 C 
BRANCH  22  23
ATOM     23  C   UNL     1     114.110  64.432 107.053  1.00  0.00     0.049 C 
BRANCH  23  24
ATOM     24  C   UNL     1     114.327  63.812 105.698  1.00  0.00    -0.040 A 
ATOM     25  C   UNL     1     114.033  64.599 104.606  1.00  0.00     0.007 A 
ATOM     26  C   UNL     1     114.770  62.527 105.535  1.00  0.00     0.007 A 
ATOM     27  C   UNL     1     114.181  64.099 103.337  1.00  0.00     0.039 A 
ATOM     28  C   UNL     1     114.918  62.032 104.268  1.00  0.00     0.039 A 
ATOM     29  C   UNL     1     114.626  62.811 103.141  1.00  0.00     0.123 A 
ATOM     30  F   UNL     1     114.768  62.327 101.881  1.00  0.00    -0.207 F 
ENDBRANCH  23  24
BRANCH  23  31
ATOM     31  C   UNL     1     112.724  64.289 107.466  1.00  0.00    -0.040 A 
ATOM     32  C   UNL     1     111.740  63.608 106.806  1.00  0.00     0.007 A 
ATOM     33  C   UNL     1     112.383  64.940 108.659  1.00  0.00     0.007 A 
ATOM     34  C   UNL     1     110.448  63.593 107.346  1.00  0.00     0.039 A 
ATOM     35  C   UNL     1     111.135  64.932 109.193  1.00  0.00     0.039 A 
ATOM     36  C   UNL     1     110.153  64.244 108.517  1.00  0.00     0.123 A 
ATOM     37  F   UNL     1     108.908  64.244 109.063  1.00  0.00    -0.207 F 
ENDBRANCH  23  31
ENDBRANCH  22  23
ENDBRANCH   1  22
TORSDOF 7
ENDMDL
MODEL 3
REMARK VINA RESULT:      -7.0      2.837      7.604
REMARK SMILES O=C1NCN(c2ccccc2)C12CC[NH+](CCCC(c1ccc(F)cc1)c1ccc(F)cc1)CC2
REMARK SMILES IDX 17 1 16 2 15 3 1 4 2 5 3 6 12 7 4 8 5 9 13 10 35 11 14 12
REMARK SMILES IDX 34 13 6 16 7 17 11 18 8 19 10 20 9 21 18 22 19 23 20 24
REMARK SMILES IDX 21 25 26 26 22 27 25 28 23 29 24 30 27 31 28 32 33 33 29 34
REMARK SMILES IDX 32 35 30 36 31 37
REMARK H PARENT 3 14 15 15
ROOT
ATOM      1  C   UNL     1     119.868  64.255 105.707  1.00  0.00     0.062 C 
ENDROOT
BRANCH   1   2
ATOM      2  C   UNL     1     119.758  63.346 106.896  1.00  0.00     0.262 C 
BRANCH   2   3
ATOM      3  N   UNL     1     118.446  63.487 107.518  1.00  0.00    -0.335 N 
ATOM      4  O   UNL     1     116.616  62.940 110.122  1.00  0.00    -0.272 OA
ATOM      5  C   UNL     1     115.620  63.222 109.423  1.00  0.00     0.247 C 
ATOM      6  N   UNL     1     114.294  63.204 109.890  1.00  0.00    -0.336 N 
ATOM      7  C   UNL     1     115.657  63.629 107.968  1.00  0.00     0.131 C 
ATOM      8  C   UNL     1     113.540  64.007 108.980  1.00  0.00     0.238 C 
ATOM      9  N   UNL     1     114.237  63.840 107.695  1.00  0.00    -0.339 N 
ATOM     10  C   UNL     1     116.233  62.485 107.159  1.00  0.00     0.100 C 
ATOM     11  C   UNL     1     116.484  64.860 107.863  1.00  0.00     0.100 C 
ATOM     12  C   UNL     1     117.689  62.254 107.491  1.00  0.00     0.265 C 
ATOM     13  C   UNL     1     117.687  64.603 107.016  1.00  0.00     0.265 C 
ATOM     14  H   UNL     1     113.951  62.692 110.747  1.00  0.00     0.165 HD
ATOM     15  H   UNL     1     118.661  63.687 108.519  1.00  0.00     0.348 HD
BRANCH   9  16
ATOM     16  C   UNL     1     113.530  63.879 106.467  1.00  0.00     0.039 A 
ATOM     17  C   UNL     1     113.615  64.970 105.634  1.00  0.00     0.026 A 
ATOM     18  C   UNL     1     112.771  62.814 106.091  1.00  0.00     0.026 A 
ATOM     19  C   UNL     1     112.939  65.011 104.411  1.00  0.00     0.002 A 
ATOM     20  C   UNL     1     112.101  62.834 104.899  1.00  0.00     0.002 A 
ATOM     21  C   UNL     1     112.178  63.916 104.060  1.00  0.00     0.000 A 
ENDBRANCH   9  16
ENDBRANCH   2   3
ENDBRANCH   1   2
BRANCH   1  22
ATOM     22  C   UNL     1     119.690  63.648 104.383  1.00  0.00     0.019 C 
BRANCH  22  23
ATOM     23  C   UNL     1     118.532  63.915 103.541  1.00  0.00     0.049 C 
BRANCH  23  24
ATOM     24  C   UNL     1     118.835  64.473 102.175  1.00  0.00    -0.040 A 
ATOM     25  C   UNL     1     119.027  63.559 101.163  1.00  0.00     0.007 A 
ATOM     26  C   UNL     1     118.945  65.817 101.935  1.00  0.00     0.007 A 
ATOM     27  C   UNL     1     119.331  63.988  99.896  1.00  0.00     0.039 A 
ATOM     28  C   UNL     1     119.247  66.241 100.669  1.00  0.00     0.039 A 
ATOM     29  C   UNL     1     119.446  65.332  99.623  1.00  0.00     0.123 A 
ATOM     30  F   UNL     1     119.747  65.744  98.365  1.00  0.00    -0.207 F 
ENDBRANCH  23  24
BRANCH  23  31
ATOM     31  C   UNL     1     117.426  62.974 103.477  1.00  0.00    -0.040 A 
ATOM     32  C   UNL     1     116.133  63.254 103.132  1.00  0.00     0.007 A 
ATOM     33  C   UNL     1     117.740  61.654 103.825  1.00  0.00     0.007 A 
ATOM     34  C   UNL     1     115.190  62.219 103.144  1.00  0.00     0.039 A 
ATOM     35  C   UNL     1     116.835  60.642 103.838  1.00  0.00     0.039 A 
ATOM     36  C   UNL     1     115.538  60.938 103.491  1.00  0.00     0.123 A 
ATOM     37  F   UNL     1     114.642  59.915 103.509  1.00  0.00    -0.207 F 
ENDBRANCH  23  31
ENDBRANCH  22  23
ENDBRANCH   1  22
TORSDOF 7
ENDMDL
MODEL 4
REMARK VINA RESULT:      -6.9      2.743      7.108
REMARK SMILES O=C1NCN(c2ccccc2)C12CC[NH+](CCCC(c1ccc(F)cc1)c1ccc(F)cc1)CC2
REMARK SMILES IDX 17 1 16 2 15 3 1 4 2 5 3 6 12 7 4 8 5 9 13 10 35 11 14 12
REMARK SMILES IDX 34 13 6 16 7 17 11 18 8 19 10 20 9 21 18 22 19 23 20 24
REMARK SMILES IDX 21 25 26 26 22 27 25 28 23 29 24 30 27 31 28 32 33 33 29 34
REMARK SMILES IDX 32 35 30 36 31 37
REMARK H PARENT 3 14 15 15
ROOT
ATOM      1  C   UNL     1     119.974  63.209 105.542  1.00  0.00     0.062 C 
ENDROOT
BRANCH   1   2
ATOM      2  C   UNL     1     120.000  63.889 106.879  1.00  0.00     0.262 C 
BRANCH   2   3
ATOM      3  N   UNL     1     118.696  63.778 107.524  1.00  0.00    -0.335 N 
ATOM      4  O   UNL     1     117.014  62.663 110.045  1.00  0.00    -0.272 OA
ATOM      5  C   UNL     1     115.974  62.905 109.398  1.00  0.00     0.247 C 
ATOM      6  N   UNL     1     114.672  62.656 109.867  1.00  0.00    -0.336 N 
ATOM      7  C   UNL     1     115.923  63.501 108.010  1.00  0.00     0.131 C 
ATOM      8  C   UNL     1     113.801  63.468 109.078  1.00  0.00     0.238 C 
ATOM      9  N   UNL     1     114.482  63.562 107.778  1.00  0.00    -0.339 N 
ATOM     10  C   UNL     1     116.619  62.556 107.050  1.00  0.00     0.100 C 
ATOM     11  C   UNL     1     116.586  64.831 108.064  1.00  0.00     0.100 C 
ATOM     12  C   UNL     1     118.100  62.472 107.338  1.00  0.00     0.265 C 
ATOM     13  C   UNL     1     117.791  64.844 107.181  1.00  0.00     0.265 C 
ATOM     14  H   UNL     1     114.417  61.995 110.651  1.00  0.00     0.165 HD
ATOM     15  H   UNL     1     118.909  63.870 108.541  1.00  0.00     0.348 HD
BRANCH   9  16
ATOM     16  C   UNL     1     113.746  63.672 106.571  1.00  0.00     0.039 A 
ATOM     17  C   UNL     1     113.026  62.609 106.080  1.00  0.00     0.026 A 
ATOM     18  C   UNL     1     113.732  64.853 105.895  1.00  0.00     0.026 A 
ATOM     19  C   UNL     1     112.280  62.712 104.901  1.00  0.00     0.002 A 
ATOM     20  C   UNL     1     113.009  64.975 104.740  1.00  0.00     0.002 A 
ATOM     21  C   UNL     1     112.287  63.922 104.241  1.00  0.00     0.000 A 
ENDBRANCH   9  16
ENDBRANCH   2   3
ENDBRANCH   1   2
BRANCH   1  22
ATOM     22  C   UNL     1     119.910  64.071 104.356  1.00  0.00     0.019 C 
BRANCH  22  23
ATOM     23  C   UNL     1     119.369  63.620 103.081  1.00  0.00     0.049 C 
BRANCH  23  24
ATOM     24  C   UNL     1     118.115  62.789 103.162  1.00  0.00    -0.040 A 
ATOM     25  C   UNL     1     116.937  63.470 103.382  1.00  0.00     0.007 A 
ATOM     26  C   UNL     1     118.125  61.425 103.053  1.00  0.00     0.007 A 
ATOM     27  C   UNL     1     115.755  62.782 103.493  1.00  0.00     0.039 A 
ATOM     28  C   UNL     1     116.943  60.743 103.163  1.00  0.00     0.039 A 
ATOM     29  C   UNL     1     115.733  61.410 103.386  1.00  0.00     0.123 A 
ATOM     30  F   UNL     1     114.557  60.741 103.497  1.00  0.00    -0.207 F 
ENDBRANCH  23  24
BRANCH  23  31
ATOM     31  C   UNL     1     119.318  64.514 101.936  1.00  0.00    -0.040 A 
ATOM     32  C   UNL     1     119.229  64.153 100.620  1.00  0.00     0.007 A 
ATOM     33  C   UNL     1     119.387  65.880 102.238  1.00  0.00     0.007 A 
ATOM     34  C   UNL     1     119.211  65.157  99.643  1.00  0.00     0.039 A 
ATOM     35  C   UNL     1     119.370  66.861 101.300  1.00  0.00     0.039 A 
ATOM     36  C   UNL     1     119.281  66.485  99.980  1.00  0.00     0.123 A 
ATOM     37  F   UNL     1     119.264  67.479  99.051  1.00  0.00    -0.207 F 
ENDBRANCH  23  31
ENDBRANCH  22  23
ENDBRANCH   1  22
TORSDOF 7
ENDMDL
MODEL 5
REMARK VINA RESULT:      -6.9      1.108      3.820
REMARK SMILES O=C1NCN(c2ccccc2)C12CC[NH+](CCCC(c1ccc(F)cc1)c1ccc(F)cc1)CC2
REMARK SMILES IDX 17 1 16 2 15 3 1 4 2 5 3 6 12 7 4 8 5 9 13 10 35 11 14 12
REMARK SMILES IDX 34 13 6 16 7 17 11 18 8 19 10 20 9 21 18 22 19 23 20 24
REMARK SMILES IDX 21 25 26 26 22 27 25 28 23 29 24 30 27 31 28 32 33 33 29 34
REMARK SMILES IDX 32 35 30 36 31 37
REMARK H PARENT 3 14 15 15
ROOT
ATOM      1  C   UNL     1     115.982  64.319 107.817  1.00  0.00     0.062 C 
ENDROOT
BRANCH   1   2
ATOM      2  C   UNL     1     117.054  63.433 108.380  1.00  0.00     0.262 C 
BRANCH   2   3
ATOM      3  N   UNL     1     118.340  63.747 107.766  1.00  0.00    -0.335 N 
ATOM      4  O   UNL     1     121.448  64.486 108.233  1.00  0.00    -0.272 OA
ATOM      5  C   UNL     1     121.504  64.808 107.028  1.00  0.00     0.247 C 
ATOM      6  N   UNL     1     122.657  65.299 106.391  1.00  0.00    -0.336 N 
ATOM      7  C   UNL     1     120.358  64.731 106.046  1.00  0.00     0.131 C 
ATOM      8  C   UNL     1     122.454  65.103 104.990  1.00  0.00     0.238 C 
ATOM      9  N   UNL     1     120.997  65.212 104.823  1.00  0.00    -0.339 N 
ATOM     10  C   UNL     1     119.252  65.654 106.517  1.00  0.00     0.100 C 
ATOM     11  C   UNL     1     119.913  63.313 105.980  1.00  0.00     0.100 C 
ATOM     12  C   UNL     1     118.637  65.163 107.807  1.00  0.00     0.265 C 
ATOM     13  C   UNL     1     118.499  63.194 106.447  1.00  0.00     0.265 C 
ATOM     14  H   UNL     1     123.494  65.724 106.876  1.00  0.00     0.165 HD
ATOM     15  H   UNL     1     119.036  63.275 108.383  1.00  0.00     0.348 HD
BRANCH   9  16
ATOM     16  C   UNL     1     120.432  65.732 103.631  1.00  0.00     0.039 A 
ATOM     17  C   UNL     1     120.895  66.903 103.079  1.00  0.00     0.026 A 
ATOM     18  C   UNL     1     119.430  65.054 103.007  1.00  0.00     0.026 A 
ATOM     19  C   UNL     1     120.359  67.414 101.892  1.00  0.00     0.002 A 
ATOM     20  C   UNL     1     118.893  65.536 101.846  1.00  0.00     0.002 A 
ATOM     21  C   UNL     1     119.346  66.703 101.286  1.00  0.00     0.000 A 
ENDBRANCH   9  16
ENDBRANCH   2   3
ENDBRANCH   1   2
BRANCH   1  22
ATOM     22  C   UNL     1     114.764  64.486 108.617  1.00  0.00     0.019 C 
BRANCH  22  23
ATOM     23  C   UNL     1     113.433  64.537 108.027  1.00  0.00     0.049 C 
BRANCH  23  24
ATOM     24  C   UNL     1     113.342  64.107 106.586  1.00  0.00    -0.040 A 
ATOM     25  C   UNL     1     113.327  62.751 106.347  1.00  0.00     0.007 A 
ATOM     26  C   UNL     1     113.302  65.002 105.551  1.00  0.00     0.007 A 
ATOM     27  C   UNL     1     113.270  62.280 105.059  1.00  0.00     0.039 A 
ATOM     28  C   UNL     1     113.244  64.527 104.268  1.00  0.00     0.039 A 
ATOM     29  C   UNL     1     113.227  63.154 103.997  1.00  0.00     0.123 A 
ATOM     30  F   UNL     1     113.171  62.676 102.728  1.00  0.00    -0.207 F 
ENDBRANCH  23  24
BRANCH  23  31
ATOM     31  C   UNL     1     112.271  64.081 108.773  1.00  0.00    -0.040 A 
ATOM     32  C   UNL     1     110.993  64.555 108.665  1.00  0.00     0.007 A 
ATOM     33  C   UNL     1     112.516  63.062 109.702  1.00  0.00     0.007 A 
ATOM     34  C   UNL     1     109.997  64.007 109.483  1.00  0.00     0.039 A 
ATOM     35  C   UNL     1     111.559  62.522 110.499  1.00  0.00     0.039 A 
ATOM     36  C   UNL     1     110.278  63.009 110.382  1.00  0.00     0.123 A 
ATOM     37  F   UNL     1     109.329  62.459 111.186  1.00  0.00    -0.207 F 
ENDBRANCH  23  31
ENDBRANCH  22  23
ENDBRANCH   1  22
TORSDOF 7
ENDMDL
MODEL 6
REMARK VINA RESULT:      -6.9      1.434      3.858
REMARK SMILES O=C1NCN(c2ccccc2)C12CC[NH+](CCCC(c1ccc(F)cc1)c1ccc(F)cc1)CC2
REMARK SMILES IDX 17 1 16 2 15 3 1 4 2 5 3 6 12 7 4 8 5 9 13 10 35 11 14 12
REMARK SMILES IDX 34 13 6 16 7 17 11 18 8 19 10 20 9 21 18 22 19 23 20 24
REMARK SMILES IDX 21 25 26 26 22 27 25 28 23 29 24 30 27 31 28 32 33 33 29 34
REMARK SMILES IDX 32 35 30 36 31 37
REMARK H PARENT 3 14 15 15
ROOT
ATOM      1  C   UNL     1     115.995  63.389 107.406  1.00  0.00     0.062 C 
ENDROOT
BRANCH   1   2
ATOM      2  C   UNL     1     117.043  63.622 108.454  1.00  0.00     0.262 C 
BRANCH   2   3
ATOM      3  N   UNL     1     118.334  63.877 107.826  1.00  0.00    -0.335 N 
ATOM      4  O   UNL     1     121.470  64.516 108.259  1.00  0.00    -0.272 OA
ATOM      5  C   UNL     1     121.529  64.809 107.047  1.00  0.00     0.247 C 
ATOM      6  N   UNL     1     122.695  65.246 106.393  1.00  0.00    -0.336 N 
ATOM      7  C   UNL     1     120.374  64.751 106.073  1.00  0.00     0.131 C 
ATOM      8  C   UNL     1     122.476  65.026 104.998  1.00  0.00     0.238 C 
ATOM      9  N   UNL     1     121.022  65.183 104.837  1.00  0.00    -0.339 N 
ATOM     10  C   UNL     1     119.305  65.723 106.530  1.00  0.00     0.100 C 
ATOM     11  C   UNL     1     119.880  63.349 106.041  1.00  0.00     0.100 C 
ATOM     12  C   UNL     1     118.682  65.282 107.834  1.00  0.00     0.265 C 
ATOM     13  C   UNL     1     118.465  63.290 106.518  1.00  0.00     0.265 C 
ATOM     14  H   UNL     1     123.549  65.651 106.864  1.00  0.00     0.165 HD
ATOM     15  H   UNL     1     119.018  63.394 108.450  1.00  0.00     0.348 HD
BRANCH   9  16
ATOM     16  C   UNL     1     120.469  65.696 103.637  1.00  0.00     0.039 A 
ATOM     17  C   UNL     1     119.421  65.063 103.011  1.00  0.00     0.026 A 
ATOM     18  C   UNL     1     120.964  66.846 103.102  1.00  0.00     0.026 A 
ATOM     19  C   UNL     1     118.854  65.571 101.838  1.00  0.00     0.002 A 
ATOM     20  C   UNL     1     120.424  67.360 101.956  1.00  0.00     0.002 A 
ATOM     21  C   UNL     1     119.380  66.737 101.323  1.00  0.00     0.000 A 
ENDBRANCH   9  16
ENDBRANCH   2   3
ENDBRANCH   1   2
BRANCH   1  22
ATOM     22  C   UNL     1     114.695  62.884 107.861  1.00  0.00     0.019 C 
BRANCH  22  23
ATOM     23  C   UNL     1     113.451  63.617 107.667  1.00  0.00     0.049 C 
BRANCH  23  24
ATOM     24  C   UNL     1     112.798  63.448 106.321  1.00  0.00    -0.040 A 
ATOM     25  C   UNL     1     112.997  64.459 105.407  1.00  0.00     0.007 A 
ATOM     26  C   UNL     1     112.021  62.365 106.008  1.00  0.00     0.007 A 
ATOM     27  C   UNL     1     112.415  64.391 104.166  1.00  0.00     0.039 A 
ATOM     28  C   UNL     1     111.444  62.300 104.769  1.00  0.00     0.039 A 
ATOM     29  C   UNL     1     111.630  63.314 103.822  1.00  0.00     0.123 A 
ATOM     30  F   UNL     1     111.060  63.257 102.592  1.00  0.00    -0.207 F 
ENDBRANCH  23  24
BRANCH  23  31
ATOM     31  C   UNL     1     112.450  63.676 108.720  1.00  0.00    -0.040 A 
ATOM     32  C   UNL     1     112.207  62.726 109.671  1.00  0.00     0.007 A 
ATOM     33  C   UNL     1     111.654  64.829 108.727  1.00  0.00     0.007 A 
ATOM     34  C   UNL     1     111.183  62.945 110.600  1.00  0.00     0.039 A 
ATOM     35  C   UNL     1     110.659  65.053 109.622  1.00  0.00     0.039 A 
ATOM     36  C   UNL     1     110.424  64.088 110.574  1.00  0.00     0.123 A 
ATOM     37  F   UNL     1     109.425  64.326 111.465  1.00  0.00    -0.207 F 
ENDBRANCH  23  31
ENDBRANCH  22  23
ENDBRANCH   1  22
TORSDOF 7
ENDMDL
MODEL 7
REMARK VINA RESULT:      -6.8      2.949      7.852
REMARK SMILES O=C1NCN(c2ccccc2)C12CC[NH+](CCCC(c1ccc(F)cc1)c1ccc(F)cc1)CC2
REMARK SMILES IDX 17 1 16 2 15 3 1 4 2 5 3 6 12 7 4 8 5 9 13 10 35 11 14 12
REMARK SMILES IDX 34 13 6 16 7 17 11 18 8 19 10 20 9 21 18 22 19 23 20 24
REMARK SMILES IDX 21 25 26 26 22 27 25 28 23 29 24 30 27 31 28 32 33 33 29 34
REMARK SMILES IDX 32 35 30 36 31 37
REMARK H PARENT 3 14 15 15
ROOT
ATOM      1  C   UNL     1     119.651  62.628 105.570  1.00  0.00     0.062 C 
ENDROOT
BRANCH   1   2
ATOM      2  C   UNL     1     119.785  63.187 106.955  1.00  0.00     0.262 C 
BRANCH   2   3
ATOM      3  N   UNL     1     118.466  63.401 107.540  1.00  0.00    -0.335 N 
ATOM      4  O   UNL     1     116.576  63.071 110.138  1.00  0.00    -0.272 OA
ATOM      5  C   UNL     1     115.600  63.329 109.403  1.00  0.00     0.247 C 
ATOM      6  N   UNL     1     114.265  63.374 109.843  1.00  0.00    -0.336 N 
ATOM      7  C   UNL     1     115.673  63.637 107.925  1.00  0.00     0.131 C 
ATOM      8  C   UNL     1     113.548  64.131 108.867  1.00  0.00     0.238 C 
ATOM      9  N   UNL     1     114.264  63.862 107.611  1.00  0.00    -0.339 N 
ATOM     10  C   UNL     1     116.236  62.428 107.205  1.00  0.00     0.100 C 
ATOM     11  C   UNL     1     116.532  64.839 107.755  1.00  0.00     0.100 C 
ATOM     12  C   UNL     1     117.679  62.186 107.580  1.00  0.00     0.265 C 
ATOM     13  C   UNL     1     117.744  64.498 106.951  1.00  0.00     0.265 C 
ATOM     14  H   UNL     1     113.894  62.927 110.725  1.00  0.00     0.165 HD
ATOM     15  H   UNL     1     118.667  63.662 108.530  1.00  0.00     0.348 HD
BRANCH   9  16
ATOM     16  C   UNL     1     113.581  63.836 106.368  1.00  0.00     0.039 A 
ATOM     17  C   UNL     1     112.914  62.709 105.949  1.00  0.00     0.026 A 
ATOM     18  C   UNL     1     113.564  64.948 105.584  1.00  0.00     0.026 A 
ATOM     19  C   UNL     1     112.220  62.679 104.736  1.00  0.00     0.002 A 
ATOM     20  C   UNL     1     112.891  64.939 104.394  1.00  0.00     0.002 A 
ATOM     21  C   UNL     1     112.223  63.822 103.965  1.00  0.00     0.000 A 
ENDBRANCH   9  16
ENDBRANCH   2   3
ENDBRANCH   1   2
BRANCH   1  22
ATOM     22  C   UNL     1     120.036  63.502 104.456  1.00  0.00     0.019 C 
BRANCH  22  23
ATOM     23  C   UNL     1     119.062  64.150 103.588  1.00  0.00     0.049 C 
BRANCH  23  24
ATOM     24  C   UNL     1     119.635  65.034 102.511  1.00  0.00    -0.040 A 
ATOM     25  C   UNL     1     120.947  64.805 102.160  1.00  0.00     0.007 A 
ATOM     26  C   UNL     1     118.915  66.035 101.917  1.00  0.00     0.007 A 
ATOM     27  C   UNL     1     121.549  65.584 101.204  1.00  0.00     0.039 A 
ATOM     28  C   UNL     1     119.520  66.809 100.963  1.00  0.00     0.039 A 
ATOM     29  C   UNL     1     120.851  66.597 100.587  1.00  0.00     0.123 A 
ATOM     30  F   UNL     1     121.458  67.361  99.643  1.00  0.00    -0.207 F 
ENDBRANCH  23  24
BRANCH  23  31
ATOM     31  C   UNL     1     117.906  63.422 103.093  1.00  0.00    -0.040 A 
ATOM     32  C   UNL     1     116.631  63.481 103.582  1.00  0.00     0.007 A 
ATOM     33  C   UNL     1     118.154  62.566 102.012  1.00  0.00     0.007 A 
ATOM     34  C   UNL     1     115.640  62.689 102.988  1.00  0.00     0.039 A 
ATOM     35  C   UNL     1     117.202  61.794 101.427  1.00  0.00     0.039 A 
ATOM     36  C   UNL     1     115.924  61.862 101.930  1.00  0.00     0.123 A 
ATOM     37  F   UNL     1     114.980  61.084 101.334  1.00  0.00    -0.207 F 
ENDBRANCH  23  31
ENDBRANCH  22  23
ENDBRANCH   1  22
TORSDOF 7
ENDMDL
MODEL 8
REMARK VINA RESULT:      -6.8      2.756      7.035
REMARK SMILES O=C1NCN(c2ccccc2)C12CC[NH+](CCCC(c1ccc(F)cc1)c1ccc(F)cc1)CC2
REMARK SMILES IDX 17 1 16 2 15 3 1 4 2 5 3 6 12 7 4 8 5 9 13 10 35 11 14 12
REMARK SMILES IDX 34 13 6 16 7 17 11 18 8 19 10 20 9 21 18 22 19 23 20 24
REMARK SMILES IDX 21 25 26 26 22 27 25 28 23 29 24 30 27 31 28 32 33 33 29 34
REMARK SMILES IDX 32 35 30 36 31 37
REMARK H PARENT 3 14 15 15
ROOT
ATOM      1  C   UNL     1     120.016  63.455 105.649  1.00  0.00     0.062 C 
ENDROOT
BRANCH   1   2
ATOM      2  C   UNL     1     119.963  64.159 106.973  1.00  0.00     0.262 C 
BRANCH   2   3
ATOM      3  N   UNL     1     118.666  63.945 107.605  1.00  0.00    -0.335 N 
ATOM      4  O   UNL     1     117.041  62.601 110.051  1.00  0.00    -0.272 OA
ATOM      5  C   UNL     1     115.990  62.825 109.414  1.00  0.00     0.247 C 
ATOM      6  N   UNL     1     114.703  62.482 109.864  1.00  0.00    -0.336 N 
ATOM      7  C   UNL     1     115.911  63.496 108.062  1.00  0.00     0.131 C 
ATOM      8  C   UNL     1     113.791  63.292 109.118  1.00  0.00     0.238 C 
ATOM      9  N   UNL     1     114.469  63.494 107.828  1.00  0.00    -0.339 N 
ATOM     10  C   UNL     1     116.656  62.644 107.054  1.00  0.00     0.100 C 
ATOM     11  C   UNL     1     116.503  64.853 108.195  1.00  0.00     0.100 C 
ATOM     12  C   UNL     1     118.139  62.621 107.342  1.00  0.00     0.265 C 
ATOM     13  C   UNL     1     117.706  64.979 107.319  1.00  0.00     0.265 C 
ATOM     14  H   UNL     1     114.482  61.766 110.607  1.00  0.00     0.165 HD
ATOM     15  H   UNL     1     118.872  63.990 108.626  1.00  0.00     0.348 HD
BRANCH   9  16
ATOM     16  C   UNL     1     113.729  63.634 106.626  1.00  0.00     0.039 A 
ATOM     17  C   UNL     1     113.691  64.831 105.951  1.00  0.00     0.026 A 
ATOM     18  C   UNL     1     113.062  62.563 106.116  1.00  0.00     0.026 A 
ATOM     19  C   UNL     1     112.983  64.974 104.754  1.00  0.00     0.002 A 
ATOM     20  C   UNL     1     112.363  62.681 104.947  1.00  0.00     0.002 A 
ATOM     21  C   UNL     1     112.318  63.870 104.266  1.00  0.00     0.000 A 
ENDBRANCH   9  16
ENDBRANCH   2   3
ENDBRANCH   1   2
BRANCH   1  22
ATOM     22  C   UNL     1     119.894  64.284 104.445  1.00  0.00     0.019 C 
BRANCH  22  23
ATOM     23  C   UNL     1     119.341  63.784 103.194  1.00  0.00     0.049 C 
BRANCH  23  24
ATOM     24  C   UNL     1     118.059  63.002 103.315  1.00  0.00    -0.040 A 
ATOM     25  C   UNL     1     118.174  61.630 103.352  1.00  0.00     0.007 A 
ATOM     26  C   UNL     1     116.830  63.603 103.362  1.00  0.00     0.007 A 
ATOM     27  C   UNL     1     117.051  60.847 103.437  1.00  0.00     0.039 A 
ATOM     28  C   UNL     1     115.712  62.818 103.447  1.00  0.00     0.039 A 
ATOM     29  C   UNL     1     115.801  61.421 103.487  1.00  0.00     0.123 A 
ATOM     30  F   UNL     1     114.698  60.636 103.570  1.00  0.00    -0.207 F 
ENDBRANCH  23  24
BRANCH  23  31
ATOM     31  C   UNL     1     119.324  64.616 102.002  1.00  0.00    -0.040 A 
ATOM     32  C   UNL     1     119.321  65.982 101.958  1.00  0.00     0.007 A 
ATOM     33  C   UNL     1     119.291  63.921 100.786  1.00  0.00     0.007 A 
ATOM     34  C   UNL     1     119.284  66.619 100.711  1.00  0.00     0.039 A 
ATOM     35  C   UNL     1     119.256  64.526  99.572  1.00  0.00     0.039 A 
ATOM     36  C   UNL     1     119.252  65.902  99.542  1.00  0.00     0.123 A 
ATOM     37  F   UNL     1     119.217  66.496  98.318  1.00  0.00    -0.207 F 
ENDBRANCH  23  31
ENDBRANCH  22  23
ENDBRANCH   1  22
TORSDOF 7
ENDMDL
MODEL 9
REMARK VINA RESULT:      -6.8      2.751      7.110
REMARK SMILES O=C1NCN(c2ccccc2)C12CC[NH+](CCCC(c1ccc(F)cc1)c1ccc(F)cc1)CC2
REMARK SMILES IDX 17 1 16 2 15 3 1 4 2 5 3 6 12 7 4 8 5 9 13 10 35 11 14 12
REMARK SMILES IDX 34 13 6 16 7 17 11 18 8 19 10 20 9 21 18 22 19 23 20 24
REMARK SMILES IDX 21 25 26 26 22 27 25 28 23 29 24 30 27 31 28 32 33 33 29 34
REMARK SMILES IDX 32 35 30 36 31 37
REMARK H PARENT 3 14 15 15
ROOT
ATOM      1  C   UNL     1     119.803  62.683 104.364  1.00  0.00     0.062 C 
ENDROOT
BRANCH   1   2
ATOM      2  C   UNL     1     120.265  63.175 105.704  1.00  0.00     0.262 C 
BRANCH   2   3
ATOM      3  N   UNL     1     119.144  63.230 106.634  1.00  0.00    -0.335 N 
ATOM      4  O   UNL     1     118.000  62.406 109.540  1.00  0.00    -0.272 OA
ATOM      5  C   UNL     1     116.864  62.728 109.132  1.00  0.00     0.247 C 
ATOM      6  N   UNL     1     115.691  62.637 109.901  1.00  0.00    -0.336 N 
ATOM      7  C   UNL     1     116.547  63.266 107.756  1.00  0.00     0.131 C 
ATOM      8  C   UNL     1     114.738  63.502 109.279  1.00  0.00     0.238 C 
ATOM      9  N   UNL     1     115.104  63.468 107.855  1.00  0.00    -0.339 N 
ATOM     10  C   UNL     1     116.910  62.213 106.728  1.00  0.00     0.100 C 
ATOM     11  C   UNL     1     117.324  64.520 107.570  1.00  0.00     0.100 C 
ATOM     12  C   UNL     1     118.402  61.986 106.675  1.00  0.00     0.265 C 
ATOM     13  C   UNL     1     118.286  64.369 106.437  1.00  0.00     0.265 C 
ATOM     14  H   UNL     1     115.566  62.041 110.763  1.00  0.00     0.165 HD
ATOM     15  H   UNL     1     119.595  63.342 107.568  1.00  0.00     0.348 HD
BRANCH   9  16
ATOM     16  C   UNL     1     114.120  63.603 106.843  1.00  0.00     0.039 A 
ATOM     17  C   UNL     1     113.941  64.795 106.181  1.00  0.00     0.026 A 
ATOM     18  C   UNL     1     113.352  62.533 106.501  1.00  0.00     0.026 A 
ATOM     19  C   UNL     1     112.988  64.933 105.167  1.00  0.00     0.002 A 
ATOM     20  C   UNL     1     112.414  62.647 105.512  1.00  0.00     0.002 A 
ATOM     21  C   UNL     1     112.227  63.830 104.846  1.00  0.00     0.000 A 
ENDBRANCH   9  16
ENDBRANCH   2   3
ENDBRANCH   1   2
BRANCH   1  22
ATOM     22  C   UNL     1     119.979  63.587 103.222  1.00  0.00     0.019 C 
BRANCH  22  23
ATOM     23  C   UNL     1     119.128  63.544 102.042  1.00  0.00     0.049 C 
BRANCH  23  24
ATOM     24  C   UNL     1     117.719  63.064 102.272  1.00  0.00    -0.040 A 
ATOM     25  C   UNL     1     117.333  61.932 101.589  1.00  0.00     0.007 A 
ATOM     26  C   UNL     1     116.841  63.718 103.094  1.00  0.00     0.007 A 
ATOM     27  C   UNL     1     116.058  61.445 101.727  1.00  0.00     0.039 A 
ATOM     28  C   UNL     1     115.570  63.229 103.230  1.00  0.00     0.039 A 
ATOM     29  C   UNL     1     115.153  62.080 102.547  1.00  0.00     0.123 A 
ATOM     30  F   UNL     1     113.894  61.589 102.675  1.00  0.00    -0.207 F 
ENDBRANCH  23  24
BRANCH  23  31
ATOM     31  C   UNL     1     119.149  64.623 101.068  1.00  0.00    -0.040 A 
ATOM     32  C   UNL     1     119.066  64.501  99.710  1.00  0.00     0.007 A 
ATOM     33  C   UNL     1     119.285  65.911 101.604  1.00  0.00     0.007 A 
ATOM     34  C   UNL     1     119.123  65.657  98.922  1.00  0.00     0.039 A 
ATOM     35  C   UNL     1     119.340  67.039 100.850  1.00  0.00     0.039 A 
ATOM     36  C   UNL     1     119.258  66.902  99.484  1.00  0.00     0.123 A 
ATOM     37  F   UNL     1     119.314  68.040  98.742  1.00  0.00    -0.207 F 
ENDBRANCH  23  31
ENDBRANCH  22  23
ENDBRANCH   1  22
TORSDOF 7
ENDMDL
