MODEL 1
REMARK VINA RESULT:      -7.7      0.000      0.000
REMARK SMILES O=C(CCC[NH+]1CCC(O)(c2ccc(Cl)cc2)CC1)c1ccc(F)cc1
REMARK SMILES IDX 4 1 3 2 2 3 1 4 20 5 21 6 26 7 22 8 25 9 23 10 24 11 5 12
REMARK SMILES IDX 6 13 7 14 19 15 8 16 18 17 9 18 10 20 11 22 12 23 17 24
REMARK SMILES IDX 13 25 16 26 14 27 15 28
REMARK H PARENT 6 19 10 21
ROOT
ATOM      1  C   UNL     1      -7.844   8.683  14.413  1.00  0.00     0.070 C 
ENDROOT
BRANCH   1   2
ATOM      2  C   UNL     1      -7.939   9.310  13.040  1.00  0.00     0.087 C 
BRANCH   2   3
ATOM      3  C   UNL     1      -6.644   9.607  12.423  1.00  0.00     0.163 C 
ATOM      4  O   UNL     1      -5.569   9.498  13.067  1.00  0.00    -0.294 OA
BRANCH   3   5
ATOM      5  C   UNL     1      -6.519  10.048  11.017  1.00  0.00     0.018 A 
ATOM      6  C   UNL     1      -6.493  11.395  10.703  1.00  0.00     0.015 A 
ATOM      7  C   UNL     1      -6.427   9.136   9.996  1.00  0.00     0.015 A 
ATOM      8  C   UNL     1      -6.377  11.798   9.394  1.00  0.00     0.040 A 
ATOM      9  C   UNL     1      -6.311   9.530   8.690  1.00  0.00     0.040 A 
ATOM     10  C   UNL     1      -6.286  10.865   8.392  1.00  0.00     0.123 A 
ATOM     11  F   UNL     1      -6.171  11.221   7.073  1.00  0.00    -0.207 F 
ENDBRANCH   3   5
ENDBRANCH   2   3
ENDBRANCH   1   2
BRANCH   1  12
ATOM     12  C   UNL     1      -9.226   8.465  14.927  1.00  0.00     0.262 C 
BRANCH  12  13
ATOM     13  N   UNL     1      -9.777   7.175  14.533  1.00  0.00    -0.335 N 
ATOM     14  C   UNL     1      -9.000   6.076  15.019  1.00  0.00     0.265 C 
ATOM     15  C   UNL     1     -11.133   7.067  14.966  1.00  0.00     0.265 C 
ATOM     16  C   UNL     1      -8.918   6.078  16.521  1.00  0.00     0.102 C 
ATOM     17  C   UNL     1     -11.399   6.195  16.119  1.00  0.00     0.102 C 
ATOM     18  C   UNL     1     -10.301   5.964  17.090  1.00  0.00     0.100 C 
ATOM     19  H   UNL     1      -9.690   7.159  13.473  1.00  0.00     0.348 HD
BRANCH  18  20
ATOM     20  O   UNL     1     -10.426   4.629  17.544  1.00  0.00    -0.385 OA
ATOM     21  H   UNL     1     -10.641   4.079  16.750  1.00  0.00     0.211 HD
ENDBRANCH  18  20
BRANCH  18  22
ATOM     22  C   UNL     1     -10.448   6.791  18.340  1.00  0.00    -0.016 A 
ATOM     23  C   UNL     1     -11.350   7.831  18.428  1.00  0.00     0.008 A 
ATOM     24  C   UNL     1      -9.696   6.563  19.471  1.00  0.00     0.008 A 
ATOM     25  C   UNL     1     -11.515   8.610  19.551  1.00  0.00     0.021 A 
ATOM     26  C   UNL     1      -9.844   7.331  20.609  1.00  0.00     0.021 A 
ATOM     27  C   UNL     1     -10.753   8.353  20.648  1.00  0.00     0.041 A 
ATOM     28  Cl  UNL     1     -10.948   9.329  22.084  1.00  0.00    -0.084 Cl
ENDBRANCH  18  22
ENDBRANCH  12  13
ENDBRANCH   1  12
TORSDOF 7
ENDMDL
MODEL 2
REMARK VINA RESULT:      -7.7      0.624      1.131
REMARK SMILES O=C(CCC[NH+]1CCC(O)(c2ccc(Cl)cc2)CC1)c1ccc(F)cc1
REMARK SMILES IDX 4 1 3 2 2 3 1 4 20 5 21 6 26 7 22 8 25 9 23 10 24 11 5 12
REMARK SMILES IDX 6 13 7 14 19 15 8 16 18 17 9 18 10 20 11 22 12 23 17 24
REMARK SMILES IDX 13 25 16 26 14 27 15 28
REMARK H PARENT 6 19 10 21
ROOT
ATOM      1  C   UNL     1      -9.449   9.179  13.569  1.00  0.00     0.070 C 
ENDROOT
BRANCH   1   2
ATOM      2  C   UNL     1      -8.176   8.836  12.828  1.00  0.00     0.087 C 
BRANCH   2   3
ATOM      3  C   UNL     1      -7.336   9.991  12.506  1.00  0.00     0.163 C 
ATOM      4  O   UNL     1      -7.030  10.844  13.379  1.00  0.00    -0.294 OA
BRANCH   3   5
ATOM      5  C   UNL     1      -6.797  10.225  11.150  1.00  0.00     0.018 A 
ATOM      6  C   UNL     1      -6.503   9.160  10.317  1.00  0.00     0.015 A 
ATOM      7  C   UNL     1      -6.577  11.497  10.687  1.00  0.00     0.015 A 
ATOM      8  C   UNL     1      -6.003   9.385   9.057  1.00  0.00     0.040 A 
ATOM      9  C   UNL     1      -6.079  11.729   9.433  1.00  0.00     0.040 A 
ATOM     10  C   UNL     1      -5.792  10.667   8.619  1.00  0.00     0.123 A 
ATOM     11  F   UNL     1      -5.292  10.939   7.371  1.00  0.00    -0.207 F 
ENDBRANCH   3   5
ENDBRANCH   2   3
ENDBRANCH   1   2
BRANCH   1  12
ATOM     12  C   UNL     1      -9.532   8.322  14.786  1.00  0.00     0.262 C 
BRANCH  12  13
ATOM     13  N   UNL     1      -9.971   6.964  14.489  1.00  0.00    -0.335 N 
ATOM     14  C   UNL     1      -9.062   5.975  14.983  1.00  0.00     0.265 C 
ATOM     15  C   UNL     1     -11.284   6.749  15.005  1.00  0.00     0.265 C 
ATOM     16  C   UNL     1      -8.901   6.068  16.476  1.00  0.00     0.102 C 
ATOM     17  C   UNL     1     -11.400   5.920  16.214  1.00  0.00     0.102 C 
ATOM     18  C   UNL     1     -10.234   5.852  17.129  1.00  0.00     0.100 C 
ATOM     19  H   UNL     1      -9.938   6.898  13.428  1.00  0.00     0.348 HD
BRANCH  18  20
ATOM     20  O   UNL     1     -10.199   4.538  17.657  1.00  0.00    -0.385 OA
ATOM     21  H   UNL     1      -9.265   4.370  17.937  1.00  0.00     0.211 HD
ENDBRANCH  18  20
BRANCH  18  22
ATOM     22  C   UNL     1     -10.397   6.728  18.344  1.00  0.00    -0.016 A 
ATOM     23  C   UNL     1     -11.296   7.774  18.376  1.00  0.00     0.008 A 
ATOM     24  C   UNL     1      -9.663   6.543  19.494  1.00  0.00     0.008 A 
ATOM     25  C   UNL     1     -11.476   8.597  19.464  1.00  0.00     0.021 A 
ATOM     26  C   UNL     1      -9.825   7.357  20.598  1.00  0.00     0.021 A 
ATOM     27  C   UNL     1     -10.731   8.383  20.582  1.00  0.00     0.041 A 
ATOM     28  Cl  UNL     1     -10.945   9.416  21.975  1.00  0.00    -0.084 Cl
ENDBRANCH  18  22
ENDBRANCH  12  13
ENDBRANCH   1  12
TORSDOF 7
ENDMDL
MODEL 3
REMARK VINA RESULT:      -7.6      2.734      3.263
REMARK SMILES O=C(CCC[NH+]1CCC(O)(c2ccc(Cl)cc2)CC1)c1ccc(F)cc1
REMARK SMILES IDX 4 1 3 2 2 3 1 4 20 5 21 6 26 7 22 8 25 9 23 10 24 11 5 12
REMARK SMILES IDX 6 13 7 14 19 15 8 16 18 17 9 18 10 20 11 22 12 23 17 24
REMARK SMILES IDX 13 25 16 26 14 27 15 28
REMARK H PARENT 6 19 10 21
ROOT
ATOM      1  C   UNL     1      -9.960   8.889  13.501  1.00  0.00     0.070 C 
ENDROOT
BRANCH   1   2
ATOM      2  C   UNL     1      -8.551   8.684  12.990  1.00  0.00     0.087 C 
BRANCH   2   3
ATOM      3  C   UNL     1      -7.509   9.239  13.856  1.00  0.00     0.163 C 
ATOM      4  O   UNL     1      -6.614   8.511  14.358  1.00  0.00    -0.294 OA
BRANCH   3   5
ATOM      5  C   UNL     1      -7.441  10.677  14.192  1.00  0.00     0.018 A 
ATOM      6  C   UNL     1      -8.003  11.622  13.351  1.00  0.00     0.015 A 
ATOM      7  C   UNL     1      -6.824  11.107  15.338  1.00  0.00     0.015 A 
ATOM      8  C   UNL     1      -7.936  12.957  13.669  1.00  0.00     0.040 A 
ATOM      9  C   UNL     1      -6.753  12.436  15.661  1.00  0.00     0.040 A 
ATOM     10  C   UNL     1      -7.313  13.360  14.822  1.00  0.00     0.123 A 
ATOM     11  F   UNL     1      -7.220  14.681  15.178  1.00  0.00    -0.207 F 
ENDBRANCH   3   5
ENDBRANCH   2   3
ENDBRANCH   1   2
BRANCH   1  12
ATOM     12  C   UNL     1     -10.093   8.189  14.811  1.00  0.00     0.262 C 
BRANCH  12  13
ATOM     13  N   UNL     1     -10.352   6.762  14.663  1.00  0.00    -0.335 N 
ATOM     14  C   UNL     1      -9.250   5.959  15.098  1.00  0.00     0.265 C 
ATOM     15  C   UNL     1     -11.545   6.406  15.360  1.00  0.00     0.265 C 
ATOM     16  C   UNL     1      -8.928   6.198  16.547  1.00  0.00     0.102 C 
ATOM     17  C   UNL     1     -11.388   5.673  16.624  1.00  0.00     0.102 C 
ATOM     18  C   UNL     1     -10.124   5.849  17.382  1.00  0.00     0.100 C 
ATOM     19  H   UNL     1     -10.436   6.613  13.614  1.00  0.00     0.348 HD
BRANCH  18  20
ATOM     20  O   UNL     1      -9.827   4.602  17.985  1.00  0.00    -0.385 OA
ATOM     21  H   UNL     1     -10.023   3.907  17.308  1.00  0.00     0.211 HD
ENDBRANCH  18  20
BRANCH  18  22
ATOM     22  C   UNL     1     -10.272   6.792  18.547  1.00  0.00    -0.016 A 
ATOM     23  C   UNL     1     -11.248   7.767  18.581  1.00  0.00     0.008 A 
ATOM     24  C   UNL     1      -9.448   6.742  19.650  1.00  0.00     0.008 A 
ATOM     25  C   UNL     1     -11.417   8.647  19.625  1.00  0.00     0.021 A 
ATOM     26  C   UNL     1      -9.598   7.615  20.709  1.00  0.00     0.021 A 
ATOM     27  C   UNL     1     -10.582   8.566  20.696  1.00  0.00     0.041 A 
ATOM     28  Cl  UNL     1     -10.781   9.673  22.033  1.00  0.00    -0.084 Cl
ENDBRANCH  18  22
ENDBRANCH  12  13
ENDBRANCH   1  12
TORSDOF 7
ENDMDL
MODEL 4
REMARK VINA RESULT:      -7.6      0.667      1.472
REMARK SMILES O=C(CCC[NH+]1CCC(O)(c2ccc(Cl)cc2)CC1)c1ccc(F)cc1
REMARK SMILES IDX 4 1 3 2 2 3 1 4 20 5 21 6 26 7 22 8 25 9 23 10 24 11 5 12
REMARK SMILES IDX 6 13 7 14 19 15 8 16 18 17 9 18 10 20 11 22 12 23 17 24
REMARK SMILES IDX 13 25 16 26 14 27 15 28
REMARK H PARENT 6 19 10 21
ROOT
ATOM      1  C   UNL     1      -8.209   9.684  13.581  1.00  0.00     0.070 C 
ENDROOT
BRANCH   1   2
ATOM      2  C   UNL     1      -6.753  10.071  13.713  1.00  0.00     0.087 C 
BRANCH   2   3
ATOM      3  C   UNL     1      -5.896   9.573  12.634  1.00  0.00     0.163 C 
ATOM      4  O   UNL     1      -4.970   8.752  12.856  1.00  0.00    -0.294 OA
BRANCH   3   5
ATOM      5  C   UNL     1      -6.065   9.999  11.228  1.00  0.00     0.018 A 
ATOM      6  C   UNL     1      -6.090   9.064  10.209  1.00  0.00     0.015 A 
ATOM      7  C   UNL     1      -6.202  11.324  10.903  1.00  0.00     0.015 A 
ATOM      8  C   UNL     1      -6.247   9.466   8.905  1.00  0.00     0.040 A 
ATOM      9  C   UNL     1      -6.359  11.733   9.606  1.00  0.00     0.040 A 
ATOM     10  C   UNL     1      -6.382  10.798   8.606  1.00  0.00     0.123 A 
ATOM     11  F   UNL     1      -6.538  11.246   7.320  1.00  0.00    -0.207 F 
ENDBRANCH   3   5
ENDBRANCH   2   3
ENDBRANCH   1   2
BRANCH   1  12
ATOM     12  C   UNL     1      -8.537   8.710  14.661  1.00  0.00     0.262 C 
BRANCH  12  13
ATOM     13  N   UNL     1      -9.201   7.515  14.158  1.00  0.00    -0.335 N 
ATOM     14  C   UNL     1      -8.592   6.310  14.634  1.00  0.00     0.265 C 
ATOM     15  C   UNL     1     -10.588   7.547  14.492  1.00  0.00     0.265 C 
ATOM     16  C   UNL     1      -8.622   6.230  16.136  1.00  0.00     0.102 C 
ATOM     17  C   UNL     1     -11.037   6.658  15.573  1.00  0.00     0.102 C 
ATOM     18  C   UNL     1     -10.047   6.253  16.602  1.00  0.00     0.100 C 
ATOM     19  H   UNL     1      -9.037   7.539  13.108  1.00  0.00     0.348 HD
BRANCH  18  20
ATOM     20  O   UNL     1     -10.357   4.922  16.971  1.00  0.00    -0.385 OA
ATOM     21  H   UNL     1     -10.360   4.896  17.961  1.00  0.00     0.211 HD
ENDBRANCH  18  20
BRANCH  18  22
ATOM     22  C   UNL     1     -10.191   7.031  17.884  1.00  0.00    -0.016 A 
ATOM     23  C   UNL     1      -9.182   7.089  18.822  1.00  0.00     0.008 A 
ATOM     24  C   UNL     1     -11.335   7.731  18.200  1.00  0.00     0.008 A 
ATOM     25  C   UNL     1      -9.274   7.787  20.005  1.00  0.00     0.021 A 
ATOM     26  C   UNL     1     -11.450   8.438  19.381  1.00  0.00     0.021 A 
ATOM     27  C   UNL     1     -10.420   8.466  20.281  1.00  0.00     0.041 A 
ATOM     28  Cl  UNL     1     -10.556   9.360  21.776  1.00  0.00    -0.084 Cl
ENDBRANCH  18  22
ENDBRANCH  12  13
ENDBRANCH   1  12
TORSDOF 7
ENDMDL
MODEL 5
REMARK VINA RESULT:      -7.5      2.562      3.738
REMARK SMILES O=C(CCC[NH+]1CCC(O)(c2ccc(Cl)cc2)CC1)c1ccc(F)cc1
REMARK SMILES IDX 4 1 3 2 2 3 1 4 20 5 21 6 26 7 22 8 25 9 23 10 24 11 5 12
REMARK SMILES IDX 6 13 7 14 19 15 8 16 18 17 9 18 10 20 11 22 12 23 17 24
REMARK SMILES IDX 13 25 16 26 14 27 15 28
REMARK H PARENT 6 19 10 21
ROOT
ATOM      1  C   UNL     1     -10.300   8.476  14.062  1.00  0.00     0.070 C 
ENDROOT
BRANCH   1   2
ATOM      2  C   UNL     1      -9.064   8.287  13.211  1.00  0.00     0.087 C 
BRANCH   2   3
ATOM      3  C   UNL     1      -8.019   9.289  13.434  1.00  0.00     0.163 C 
ATOM      4  O   UNL     1      -7.531   9.487  14.576  1.00  0.00    -0.294 OA
BRANCH   3   5
ATOM      5  C   UNL     1      -7.476  10.124  12.341  1.00  0.00     0.018 A 
ATOM      6  C   UNL     1      -6.727   9.554  11.328  1.00  0.00     0.015 A 
ATOM      7  C   UNL     1      -7.702  11.476  12.306  1.00  0.00     0.015 A 
ATOM      8  C   UNL     1      -6.225  10.335  10.315  1.00  0.00     0.040 A 
ATOM      9  C   UNL     1      -7.205  12.261  11.300  1.00  0.00     0.040 A 
ATOM     10  C   UNL     1      -6.465  11.686  10.304  1.00  0.00     0.123 A 
ATOM     11  F   UNL     1      -5.983  12.504   9.315  1.00  0.00    -0.207 F 
ENDBRANCH   3   5
ENDBRANCH   2   3
ENDBRANCH   1   2
BRANCH   1  12
ATOM     12  C   UNL     1     -10.854   7.133  14.392  1.00  0.00     0.262 C 
BRANCH  12  13
ATOM     13  N   UNL     1     -11.622   7.130  15.631  1.00  0.00    -0.335 N 
ATOM     14  C   UNL     1     -11.795   5.812  16.163  1.00  0.00     0.265 C 
ATOM     15  C   UNL     1     -11.009   7.988  16.591  1.00  0.00     0.265 C 
ATOM     16  C   UNL     1     -10.474   5.160  16.465  1.00  0.00     0.102 C 
ATOM     17  C   UNL     1     -10.286   7.345  17.698  1.00  0.00     0.102 C 
ATOM     18  C   UNL     1      -9.737   5.985  17.478  1.00  0.00     0.100 C 
ATOM     19  H   UNL     1     -12.589   7.468  15.346  1.00  0.00     0.348 HD
BRANCH  18  20
ATOM     20  O   UNL     1      -9.853   5.288  18.706  1.00  0.00    -0.385 OA
ATOM     21  H   UNL     1      -8.936   5.195  19.066  1.00  0.00     0.211 HD
ENDBRANCH  18  20
BRANCH  18  22
ATOM     22  C   UNL     1      -8.256   5.994  17.203  1.00  0.00    -0.016 A 
ATOM     23  C   UNL     1      -7.324   5.838  18.207  1.00  0.00     0.008 A 
ATOM     24  C   UNL     1      -7.739   6.159  15.936  1.00  0.00     0.008 A 
ATOM     25  C   UNL     1      -5.963   5.841  17.999  1.00  0.00     0.021 A 
ATOM     26  C   UNL     1      -6.378   6.166  15.703  1.00  0.00     0.021 A 
ATOM     27  C   UNL     1      -5.492   6.007  16.734  1.00  0.00     0.041 A 
ATOM     28  Cl  UNL     1      -3.768   6.012  16.446  1.00  0.00    -0.084 Cl
ENDBRANCH  18  22
ENDBRANCH  12  13
ENDBRANCH   1  12
TORSDOF 7
ENDMDL
MODEL 6
REMARK VINA RESULT:      -7.5      3.532      4.502
REMARK SMILES O=C(CCC[NH+]1CCC(O)(c2ccc(Cl)cc2)CC1)c1ccc(F)cc1
REMARK SMILES IDX 4 1 3 2 2 3 1 4 20 5 21 6 26 7 22 8 25 9 23 10 24 11 5 12
REMARK SMILES IDX 6 13 7 14 19 15 8 16 18 17 9 18 10 20 11 22 12 23 17 24
REMARK SMILES IDX 13 25 16 26 14 27 15 28
REMARK H PARENT 6 19 10 21
ROOT
ATOM      1  C   UNL     1      -9.912   8.347  13.731  1.00  0.00     0.070 C 
ENDROOT
BRANCH   1   2
ATOM      2  C   UNL     1      -8.416   8.355  13.509  1.00  0.00     0.087 C 
BRANCH   2   3
ATOM      3  C   UNL     1      -7.886   9.631  13.023  1.00  0.00     0.163 C 
ATOM      4  O   UNL     1      -7.709   9.845  11.796  1.00  0.00    -0.294 OA
BRANCH   3   5
ATOM      5  C   UNL     1      -7.530  10.739  13.935  1.00  0.00     0.018 A 
ATOM      6  C   UNL     1      -7.843  12.046  13.608  1.00  0.00     0.015 A 
ATOM      7  C   UNL     1      -6.884  10.498  15.121  1.00  0.00     0.015 A 
ATOM      8  C   UNL     1      -7.509  13.071  14.460  1.00  0.00     0.040 A 
ATOM      9  C   UNL     1      -6.548  11.515  15.975  1.00  0.00     0.040 A 
ATOM     10  C   UNL     1      -6.863  12.803  15.640  1.00  0.00     0.123 A 
ATOM     11  F   UNL     1      -6.508  13.794  16.519  1.00  0.00    -0.207 F 
ENDBRANCH   3   5
ENDBRANCH   2   3
ENDBRANCH   1   2
BRANCH   1  12
ATOM     12  C   UNL     1     -10.346   6.939  13.958  1.00  0.00     0.262 C 
BRANCH  12  13
ATOM     13  N   UNL     1     -11.344   6.821  15.014  1.00  0.00    -0.335 N 
ATOM     14  C   UNL     1     -11.231   5.591  15.737  1.00  0.00     0.265 C 
ATOM     15  C   UNL     1     -11.258   7.938  15.898  1.00  0.00     0.265 C 
ATOM     16  C   UNL     1      -9.883   5.454  16.390  1.00  0.00     0.102 C 
ATOM     17  C   UNL     1     -10.654   7.702  17.217  1.00  0.00     0.102 C 
ATOM     18  C   UNL     1      -9.685   6.586  17.353  1.00  0.00     0.100 C 
ATOM     19  H   UNL     1     -12.274   6.783  14.500  1.00  0.00     0.348 HD
BRANCH  18  20
ATOM     20  O   UNL     1      -9.869   6.035  18.645  1.00  0.00    -0.385 OA
ATOM     21  H   UNL     1      -9.923   6.798  19.273  1.00  0.00     0.211 HD
ENDBRANCH  18  20
BRANCH  18  22
ATOM     22  C   UNL     1      -8.254   7.057  17.358  1.00  0.00    -0.016 A 
ATOM     23  C   UNL     1      -7.775   7.935  18.308  1.00  0.00     0.008 A 
ATOM     24  C   UNL     1      -7.336   6.644  16.418  1.00  0.00     0.008 A 
ATOM     25  C   UNL     1      -6.477   8.389  18.347  1.00  0.00     0.021 A 
ATOM     26  C   UNL     1      -6.028   7.087  16.437  1.00  0.00     0.021 A 
ATOM     27  C   UNL     1      -5.600   7.958  17.401  1.00  0.00     0.041 A 
ATOM     28  Cl  UNL     1      -3.946   8.521  17.434  1.00  0.00    -0.084 Cl
ENDBRANCH  18  22
ENDBRANCH  12  13
ENDBRANCH   1  12
TORSDOF 7
ENDMDL
MODEL 7
REMARK VINA RESULT:      -7.5      1.106      1.335
REMARK SMILES O=C(CCC[NH+]1CCC(O)(c2ccc(Cl)cc2)CC1)c1ccc(F)cc1
REMARK SMILES IDX 4 1 3 2 2 3 1 4 20 5 21 6 26 7 22 8 25 9 23 10 24 11 5 12
REMARK SMILES IDX 6 13 7 14 19 15 8 16 18 17 9 18 10 20 11 22 12 23 17 24
REMARK SMILES IDX 13 25 16 26 14 27 15 28
REMARK H PARENT 6 19 10 21
ROOT
ATOM      1  C   UNL     1      -8.938   9.210  13.364  1.00  0.00     0.070 C 
ENDROOT
BRANCH   1   2
ATOM      2  C   UNL     1      -7.567   9.823  13.547  1.00  0.00     0.087 C 
BRANCH   2   3
ATOM      3  C   UNL     1      -6.463   8.979  13.085  1.00  0.00     0.163 C 
ATOM      4  O   UNL     1      -5.960   8.092  13.823  1.00  0.00    -0.294 OA
BRANCH   3   5
ATOM      5  C   UNL     1      -5.875   9.113  11.736  1.00  0.00     0.018 A 
ATOM      6  C   UNL     1      -6.660   9.491  10.662  1.00  0.00     0.015 A 
ATOM      7  C   UNL     1      -4.543   8.867  11.518  1.00  0.00     0.015 A 
ATOM      8  C   UNL     1      -6.107   9.613   9.409  1.00  0.00     0.040 A 
ATOM      9  C   UNL     1      -3.985   8.988  10.273  1.00  0.00     0.040 A 
ATOM     10  C   UNL     1      -4.772   9.362   9.219  1.00  0.00     0.123 A 
ATOM     11  F   UNL     1      -4.178   9.469   7.988  1.00  0.00    -0.207 F 
ENDBRANCH   3   5
ENDBRANCH   2   3
ENDBRANCH   1   2
BRANCH   1  12
ATOM     12  C   UNL     1      -9.256   8.399  14.574  1.00  0.00     0.262 C 
BRANCH  12  13
ATOM     13  N   UNL     1      -9.684   7.045  14.248  1.00  0.00    -0.335 N 
ATOM     14  C   UNL     1      -8.793   6.051  14.766  1.00  0.00     0.265 C 
ATOM     15  C   UNL     1     -11.015   6.825  14.714  1.00  0.00     0.265 C 
ATOM     16  C   UNL     1      -8.688   6.129  16.264  1.00  0.00     0.102 C 
ATOM     17  C   UNL     1     -11.175   5.984  15.909  1.00  0.00     0.102 C 
ATOM     18  C   UNL     1     -10.043   5.906  16.866  1.00  0.00     0.100 C 
ATOM     19  H   UNL     1      -9.612   6.989  13.189  1.00  0.00     0.348 HD
BRANCH  18  20
ATOM     20  O   UNL     1     -10.028   4.587  17.381  1.00  0.00    -0.385 OA
ATOM     21  H   UNL     1     -10.951   4.389  17.678  1.00  0.00     0.211 HD
ENDBRANCH  18  20
BRANCH  18  22
ATOM     22  C   UNL     1     -10.251   6.771  18.082  1.00  0.00    -0.016 A 
ATOM     23  C   UNL     1     -11.285   7.680  18.166  1.00  0.00     0.008 A 
ATOM     24  C   UNL     1      -9.426   6.710  19.183  1.00  0.00     0.008 A 
ATOM     25  C   UNL     1     -11.509   8.488  19.257  1.00  0.00     0.021 A 
ATOM     26  C   UNL     1      -9.631   7.511  20.290  1.00  0.00     0.021 A 
ATOM     27  C   UNL     1     -10.672   8.398  20.325  1.00  0.00     0.041 A 
ATOM     28  Cl  UNL     1     -10.940   9.414  21.722  1.00  0.00    -0.084 Cl
ENDBRANCH  18  22
ENDBRANCH  12  13
ENDBRANCH   1  12
TORSDOF 7
ENDMDL
MODEL 8
REMARK VINA RESULT:      -7.5      2.841      3.719
REMARK SMILES O=C(CCC[NH+]1CCC(O)(c2ccc(Cl)cc2)CC1)c1ccc(F)cc1
REMARK SMILES IDX 4 1 3 2 2 3 1 4 20 5 21 6 26 7 22 8 25 9 23 10 24 11 5 12
REMARK SMILES IDX 6 13 7 14 19 15 8 16 18 17 9 18 10 20 11 22 12 23 17 24
REMARK SMILES IDX 13 25 16 26 14 27 15 28
REMARK H PARENT 6 19 10 21
ROOT
ATOM      1  C   UNL     1      -9.356   9.144  13.226  1.00  0.00     0.070 C 
ENDROOT
BRANCH   1   2
ATOM      2  C   UNL     1      -7.941   9.494  12.822  1.00  0.00     0.087 C 
BRANCH   2   3
ATOM      3  C   UNL     1      -7.072   9.871  13.938  1.00  0.00     0.163 C 
ATOM      4  O   UNL     1      -6.267   9.051  14.451  1.00  0.00    -0.294 OA
BRANCH   3   5
ATOM      5  C   UNL     1      -7.083  11.227  14.527  1.00  0.00     0.018 A 
ATOM      6  C   UNL     1      -7.731  12.267  13.885  1.00  0.00     0.015 A 
ATOM      7  C   UNL     1      -6.455  11.485  15.719  1.00  0.00     0.015 A 
ATOM      8  C   UNL     1      -7.737  13.525  14.438  1.00  0.00     0.040 A 
ATOM      9  C   UNL     1      -6.457  12.736  16.276  1.00  0.00     0.040 A 
ATOM     10  C   UNL     1      -7.101  13.756  15.631  1.00  0.00     0.123 A 
ATOM     11  F   UNL     1      -7.080  14.994  16.218  1.00  0.00    -0.207 F 
ENDBRANCH   3   5
ENDBRANCH   2   3
ENDBRANCH   1   2
BRANCH   1  12
ATOM     12  C   UNL     1      -9.306   8.378  14.503  1.00  0.00     0.262 C 
BRANCH  12  13
ATOM     13  N   UNL     1      -9.463   6.943  14.305  1.00  0.00    -0.335 N 
ATOM     14  C   UNL     1      -8.375   6.193  14.856  1.00  0.00     0.265 C 
ATOM     15  C   UNL     1     -10.707   6.504  14.848  1.00  0.00     0.265 C 
ATOM     16  C   UNL     1      -8.242   6.419  16.337  1.00  0.00     0.102 C 
ATOM     17  C   UNL     1     -10.659   5.755  16.112  1.00  0.00     0.102 C 
ATOM     18  C   UNL     1      -9.506   5.986  17.018  1.00  0.00     0.100 C 
ATOM     19  H   UNL     1      -9.413   6.811  13.251  1.00  0.00     0.348 HD
BRANCH  18  20
ATOM     20  O   UNL     1      -9.210   4.745  17.633  1.00  0.00    -0.385 OA
ATOM     21  H   UNL     1      -8.616   4.255  17.011  1.00  0.00     0.211 HD
ENDBRANCH  18  20
BRANCH  18  22
ATOM     22  C   UNL     1      -9.846   6.894  18.170  1.00  0.00    -0.016 A 
ATOM     23  C   UNL     1      -8.929   7.204  19.153  1.00  0.00     0.008 A 
ATOM     24  C   UNL     1     -11.089   7.470  18.317  1.00  0.00     0.008 A 
ATOM     25  C   UNL     1      -9.200   8.028  20.222  1.00  0.00     0.021 A 
ATOM     26  C   UNL     1     -11.384   8.299  19.381  1.00  0.00     0.021 A 
ATOM     27  C   UNL     1     -10.439   8.578  20.332  1.00  0.00     0.041 A 
ATOM     28  Cl  UNL     1     -10.803   9.628  21.680  1.00  0.00    -0.084 Cl
ENDBRANCH  18  22
ENDBRANCH  12  13
ENDBRANCH   1  12
TORSDOF 7
ENDMDL
MODEL 9
REMARK VINA RESULT:      -7.4      1.252      1.819
REMARK SMILES O=C(CCC[NH+]1CCC(O)(c2ccc(Cl)cc2)CC1)c1ccc(F)cc1
REMARK SMILES IDX 4 1 3 2 2 3 1 4 20 5 21 6 26 7 22 8 25 9 23 10 24 11 5 12
REMARK SMILES IDX 6 13 7 14 19 15 8 16 18 17 9 18 10 20 11 22 12 23 17 24
REMARK SMILES IDX 13 25 16 26 14 27 15 28
REMARK H PARENT 6 19 10 21
ROOT
ATOM      1  C   UNL     1      -9.014   8.645  13.220  1.00  0.00     0.070 C 
ENDROOT
BRANCH   1   2
ATOM      2  C   UNL     1      -8.196   9.917  13.244  1.00  0.00     0.087 C 
BRANCH   2   3
ATOM      3  C   UNL     1      -6.878   9.798  12.617  1.00  0.00     0.163 C 
ATOM      4  O   UNL     1      -5.879   9.387  13.262  1.00  0.00    -0.294 OA
BRANCH   3   5
ATOM      5  C   UNL     1      -6.641  10.148  11.201  1.00  0.00     0.018 A 
ATOM      6  C   UNL     1      -6.446   9.157  10.256  1.00  0.00     0.015 A 
ATOM      7  C   UNL     1      -6.608  11.457  10.792  1.00  0.00     0.015 A 
ATOM      8  C   UNL     1      -6.225   9.489   8.940  1.00  0.00     0.040 A 
ATOM      9  C   UNL     1      -6.389  11.795   9.484  1.00  0.00     0.040 A 
ATOM     10  C   UNL     1      -6.198  10.806   8.558  1.00  0.00     0.123 A 
ATOM     11  F   UNL     1      -5.979  11.184   7.259  1.00  0.00    -0.207 F 
ENDBRANCH   3   5
ENDBRANCH   2   3
ENDBRANCH   1   2
BRANCH   1  12
ATOM     12  C   UNL     1      -9.733   8.523  14.520  1.00  0.00     0.262 C 
BRANCH  12  13
ATOM     13  N   UNL     1     -10.727   7.457  14.516  1.00  0.00    -0.335 N 
ATOM     14  C   UNL     1     -10.133   6.156  14.559  1.00  0.00     0.265 C 
ATOM     15  C   UNL     1     -11.640   7.634  15.598  1.00  0.00     0.265 C 
ATOM     16  C   UNL     1      -9.296   5.970  15.795  1.00  0.00     0.102 C 
ATOM     17  C   UNL     1     -11.498   6.729  16.748  1.00  0.00     0.102 C 
ATOM     18  C   UNL     1     -10.164   6.133  17.007  1.00  0.00     0.100 C 
ATOM     19  H   UNL     1     -11.203   7.539  13.569  1.00  0.00     0.348 HD
BRANCH  18  20
ATOM     20  O   UNL     1     -10.386   4.825  17.504  1.00  0.00    -0.385 OA
ATOM     21  H   UNL     1     -10.459   4.905  18.488  1.00  0.00     0.211 HD
ENDBRANCH  18  20
BRANCH  18  22
ATOM     22  C   UNL     1      -9.424   6.826  18.122  1.00  0.00    -0.016 A 
ATOM     23  C   UNL     1      -8.092   7.166  18.015  1.00  0.00     0.008 A 
ATOM     24  C   UNL     1     -10.028   7.163  19.313  1.00  0.00     0.008 A 
ATOM     25  C   UNL     1      -7.380   7.799  19.008  1.00  0.00     0.021 A 
ATOM     26  C   UNL     1      -9.334   7.798  20.324  1.00  0.00     0.021 A 
ATOM     27  C   UNL     1      -8.011   8.116  20.171  1.00  0.00     0.041 A 
ATOM     28  Cl  UNL     1      -7.127   8.921  21.444  1.00  0.00    -0.084 Cl
ENDBRANCH  18  22
ENDBRANCH  12  13
ENDBRANCH   1  12
TORSDOF 7
ENDMDL
