MODEL 1
REMARK VINA RESULT:      -7.6      0.000      0.000
REMARK SMILES O=S(=O)([N-]CC[NH2+]C/C=C/c1ccc(Br)cc1)c1cccc2cnccc12
REMARK SMILES IDX 6 1 5 2 4 3 2 4 1 5 3 6 18 7 19 8 27 9 20 10 26 11 22 12
REMARK SMILES IDX 21 13 25 14 23 15 24 16 7 17 8 20 9 21 10 22 11 23 12 24
REMARK SMILES IDX 17 25 13 26 16 27 14 28 15 29
REMARK H PARENT 7 18 7 19
ROOT
ATOM      1  C   UNL     1      42.537  26.356 111.401  1.00  0.00     0.238 C 
ENDROOT
BRANCH   1   2
ATOM      2  C   UNL     1      42.622  27.736 110.792  1.00  0.00    -0.070 C 
BRANCH   2   3
ATOM      3  N   UNL     1      43.634  28.526 111.458  1.00  0.00    -0.540 NA
BRANCH   3   4
ATOM      4  S   UNL     1      44.959  28.867 110.355  1.00  0.00     0.102 S 
ATOM      5  O   UNL     1      44.510  28.358 109.075  1.00  0.00    -0.244 OA
ATOM      6  O   UNL     1      46.096  28.011 110.849  1.00  0.00    -0.244 OA
BRANCH   4   7
ATOM      7  C   UNL     1      45.355  30.504 110.553  1.00  0.00     0.056 A 
ATOM      8  C   UNL     1      46.662  30.879 110.782  1.00  0.00     0.019 A 
ATOM      9  C   UNL     1      44.405  31.500 110.498  1.00  0.00     0.002 A 
ATOM     10  C   UNL     1      46.981  32.218 110.945  1.00  0.00     0.002 A 
ATOM     11  C   UNL     1      43.101  31.121 110.269  1.00  0.00     0.030 A 
ATOM     12  C   UNL     1      44.698  32.854 110.659  1.00  0.00     0.001 A 
ATOM     13  C   UNL     1      46.018  33.206 110.887  1.00  0.00     0.010 A 
ATOM     14  C   UNL     1      42.135  32.084 110.205  1.00  0.00     0.111 A 
ATOM     15  C   UNL     1      43.699  33.805 110.590  1.00  0.00     0.119 A 
ATOM     16  N   UNL     1      42.449  33.378 110.365  1.00  0.00    -0.264 NA
ENDBRANCH   4   7
ENDBRANCH   3   4
ENDBRANCH   2   3
ENDBRANCH   1   2
BRANCH   1  17
ATOM     17  N   UNL     1      43.504  25.446 110.861  1.00  0.00    -0.344 N 
ATOM     18  H   UNL     1      44.073  25.911 110.147  1.00  0.00     0.346 HD
ATOM     19  H   UNL     1      44.095  25.084 111.647  1.00  0.00     0.346 HD
BRANCH  17  20
ATOM     20  C   UNL     1      42.793  24.305 110.325  1.00  0.00     0.289 C 
BRANCH  20  21
ATOM     21  C   UNL     1      43.656  23.145 110.084  1.00  0.00     0.034 C 
ATOM     22  C   UNL     1      44.865  23.107 110.612  1.00  0.00     0.009 C 
BRANCH  22  23
ATOM     23  C   UNL     1      45.812  22.012 110.444  1.00  0.00    -0.026 A 
ATOM     24  C   UNL     1      46.963  22.201 109.711  1.00  0.00     0.009 A 
ATOM     25  C   UNL     1      45.624  20.764 110.987  1.00  0.00     0.009 A 
ATOM     26  C   UNL     1      47.897  21.200 109.519  1.00  0.00     0.016 A 
ATOM     27  C   UNL     1      46.564  19.743 110.798  1.00  0.00     0.016 A 
ATOM     28  C   UNL     1      47.705  19.950 110.064  1.00  0.00     0.018 A 
ATOM     29  Br  UNL     1      48.977  18.538 109.819  1.00  0.00    -0.051 Br
ENDBRANCH  22  23
ENDBRANCH  20  21
ENDBRANCH  17  20
ENDBRANCH   1  17
TORSDOF 8
ENDMDL
MODEL 2
REMARK VINA RESULT:      -7.4      1.344      1.855
REMARK SMILES O=S(=O)([N-]CC[NH2+]C/C=C/c1ccc(Br)cc1)c1cccc2cnccc12
REMARK SMILES IDX 6 1 5 2 4 3 2 4 1 5 3 6 18 7 19 8 27 9 20 10 26 11 22 12
REMARK SMILES IDX 21 13 25 14 23 15 24 16 7 17 8 20 9 21 10 22 11 23 12 24
REMARK SMILES IDX 17 25 13 26 16 27 14 28 15 29
REMARK H PARENT 7 18 7 19
ROOT
ATOM      1  C   UNL     1      43.085  25.965 111.800  1.00  0.00     0.238 C 
ENDROOT
BRANCH   1   2
ATOM      2  C   UNL     1      43.172  27.445 112.094  1.00  0.00    -0.070 C 
BRANCH   2   3
ATOM      3  N   UNL     1      43.899  28.132 111.049  1.00  0.00    -0.540 NA
BRANCH   3   4
ATOM      4  S   UNL     1      43.368  29.804 110.942  1.00  0.00     0.102 S 
ATOM      5  O   UNL     1      42.357  29.934 111.972  1.00  0.00    -0.244 OA
ATOM      6  O   UNL     1      42.707  29.908 109.593  1.00  0.00    -0.244 OA
BRANCH   4   7
ATOM      7  C   UNL     1      44.765  30.764 110.964  1.00  0.00     0.056 A 
ATOM      8  C   UNL     1      46.001  30.186 111.157  1.00  0.00     0.019 A 
ATOM      9  C   UNL     1      44.718  32.131 110.796  1.00  0.00     0.002 A 
ATOM     10  C   UNL     1      47.141  30.975 111.177  1.00  0.00     0.002 A 
ATOM     11  C   UNL     1      43.481  32.705 110.602  1.00  0.00     0.030 A 
ATOM     12  C   UNL     1      45.849  32.948 110.811  1.00  0.00     0.001 A 
ATOM     13  C   UNL     1      47.079  32.344 111.007  1.00  0.00     0.010 A 
ATOM     14  C   UNL     1      43.400  34.056 110.430  1.00  0.00     0.111 A 
ATOM     15  C   UNL     1      45.734  34.313 110.636  1.00  0.00     0.119 A 
ATOM     16  N   UNL     1      44.505  34.815 110.451  1.00  0.00    -0.264 NA
ENDBRANCH   4   7
ENDBRANCH   3   4
ENDBRANCH   2   3
ENDBRANCH   1   2
BRANCH   1  17
ATOM     17  N   UNL     1      43.436  25.643 110.448  1.00  0.00    -0.344 N 
ATOM     18  H   UNL     1      42.920  26.238 109.793  1.00  0.00     0.346 HD
ATOM     19  H   UNL     1      44.472  25.758 110.337  1.00  0.00     0.346 HD
BRANCH  17  20
ATOM     20  C   UNL     1      43.156  24.239 110.237  1.00  0.00     0.289 C 
BRANCH  20  21
ATOM     21  C   UNL     1      44.243  23.358 110.674  1.00  0.00     0.034 C 
ATOM     22  C   UNL     1      44.934  22.678 109.779  1.00  0.00     0.009 C 
BRANCH  22  23
ATOM     23  C   UNL     1      46.034  21.774 110.090  1.00  0.00    -0.026 A 
ATOM     24  C   UNL     1      45.813  20.664 110.875  1.00  0.00     0.009 A 
ATOM     25  C   UNL     1      47.317  21.962 109.635  1.00  0.00     0.009 A 
ATOM     26  C   UNL     1      46.816  19.771 111.203  1.00  0.00     0.016 A 
ATOM     27  C   UNL     1      48.341  21.064 109.961  1.00  0.00     0.016 A 
ATOM     28  C   UNL     1      48.101  19.964 110.746  1.00  0.00     0.018 A 
ATOM     29  Br  UNL     1      49.518  18.747 111.179  1.00  0.00    -0.051 Br
ENDBRANCH  22  23
ENDBRANCH  20  21
ENDBRANCH  17  20
ENDBRANCH   1  17
TORSDOF 8
ENDMDL
MODEL 3
REMARK VINA RESULT:      -7.1      1.819      2.238
REMARK SMILES O=S(=O)([N-]CC[NH2+]C/C=C/c1ccc(Br)cc1)c1cccc2cnccc12
REMARK SMILES IDX 6 1 5 2 4 3 2 4 1 5 3 6 18 7 19 8 27 9 20 10 26 11 22 12
REMARK SMILES IDX 21 13 25 14 23 15 24 16 7 17 8 20 9 21 10 22 11 23 12 24
REMARK SMILES IDX 17 25 13 26 16 27 14 28 15 29
REMARK H PARENT 7 18 7 19
ROOT
ATOM      1  C   UNL     1      43.666  27.013 109.205  1.00  0.00     0.238 C 
ENDROOT
BRANCH   1   2
ATOM      2  C   UNL     1      43.288  28.448 109.487  1.00  0.00    -0.070 C 
BRANCH   2   3
ATOM      3  N   UNL     1      43.281  28.704 110.911  1.00  0.00    -0.540 NA
BRANCH   3   4
ATOM      4  S   UNL     1      43.108  30.427 111.215  1.00  0.00     0.102 S 
ATOM      5  O   UNL     1      42.335  30.507 112.438  1.00  0.00    -0.244 OA
ATOM      6  O   UNL     1      42.268  30.933 110.072  1.00  0.00    -0.244 OA
BRANCH   4   7
ATOM      7  C   UNL     1      44.661  31.101 111.119  1.00  0.00     0.056 A 
ATOM      8  C   UNL     1      45.775  30.298 111.246  1.00  0.00     0.019 A 
ATOM      9  C   UNL     1      44.864  32.448 110.916  1.00  0.00     0.002 A 
ATOM     10  C   UNL     1      47.043  30.854 111.168  1.00  0.00     0.002 A 
ATOM     11  C   UNL     1      43.749  33.246 110.789  1.00  0.00     0.030 A 
ATOM     12  C   UNL     1      46.129  33.033 110.834  1.00  0.00     0.001 A 
ATOM     13  C   UNL     1      47.231  32.206 110.965  1.00  0.00     0.010 A 
ATOM     14  C   UNL     1      43.916  34.586 110.585  1.00  0.00     0.111 A 
ATOM     15  C   UNL     1      46.265  34.391 110.629  1.00  0.00     0.119 A 
ATOM     16  N   UNL     1      45.145  35.118 110.512  1.00  0.00    -0.264 NA
ENDBRANCH   4   7
ENDBRANCH   3   4
ENDBRANCH   2   3
ENDBRANCH   1   2
BRANCH   1  17
ATOM     17  N   UNL     1      44.107  26.311 110.375  1.00  0.00    -0.344 N 
ATOM     18  H   UNL     1      45.001  25.843 110.195  1.00  0.00     0.346 HD
ATOM     19  H   UNL     1      44.185  26.996 111.163  1.00  0.00     0.346 HD
BRANCH  17  20
ATOM     20  C   UNL     1      43.072  25.372 110.749  1.00  0.00     0.289 C 
BRANCH  20  21
ATOM     21  C   UNL     1      43.396  23.984 110.407  1.00  0.00     0.034 C 
ATOM     22  C   UNL     1      44.658  23.607 110.327  1.00  0.00     0.009 C 
BRANCH  22  23
ATOM     23  C   UNL     1      45.104  22.260 109.997  1.00  0.00    -0.026 A 
ATOM     24  C   UNL     1      44.795  21.712 108.771  1.00  0.00     0.009 A 
ATOM     25  C   UNL     1      45.836  21.476 110.856  1.00  0.00     0.009 A 
ATOM     26  C   UNL     1      45.191  20.440 108.402  1.00  0.00     0.016 A 
ATOM     27  C   UNL     1      46.242  20.186 110.492  1.00  0.00     0.016 A 
ATOM     28  C   UNL     1      45.925  19.657 109.266  1.00  0.00     0.018 A 
ATOM     29  Br  UNL     1      46.491  17.889 108.790  1.00  0.00    -0.051 Br
ENDBRANCH  22  23
ENDBRANCH  20  21
ENDBRANCH  17  20
ENDBRANCH   1  17
TORSDOF 8
ENDMDL
MODEL 4
REMARK VINA RESULT:      -7.0      1.980      2.570
REMARK SMILES O=S(=O)([N-]CC[NH2+]C/C=C/c1ccc(Br)cc1)c1cccc2cnccc12
REMARK SMILES IDX 6 1 5 2 4 3 2 4 1 5 3 6 18 7 19 8 27 9 20 10 26 11 22 12
REMARK SMILES IDX 21 13 25 14 23 15 24 16 7 17 8 20 9 21 10 22 11 23 12 24
REMARK SMILES IDX 17 25 13 26 16 27 14 28 15 29
REMARK H PARENT 7 18 7 19
ROOT
ATOM      1  C   UNL     1      43.004  27.506 109.774  1.00  0.00     0.238 C 
ENDROOT
BRANCH   1   2
ATOM      2  C   UNL     1      42.086  28.608 110.251  1.00  0.00    -0.070 C 
BRANCH   2   3
ATOM      3  N   UNL     1      42.381  29.850 109.569  1.00  0.00    -0.540 NA
BRANCH   3   4
ATOM      4  S   UNL     1      42.585  31.147 110.738  1.00  0.00     0.102 S 
ATOM      5  O   UNL     1      41.927  30.667 111.936  1.00  0.00    -0.244 OA
ATOM      6  O   UNL     1      41.792  32.296 110.173  1.00  0.00    -0.244 OA
BRANCH   4   7
ATOM      7  C   UNL     1      44.233  31.545 110.746  1.00  0.00     0.056 A 
ATOM      8  C   UNL     1      45.187  30.552 110.806  1.00  0.00     0.019 A 
ATOM      9  C   UNL     1      44.672  32.850 110.698  1.00  0.00     0.002 A 
ATOM     10  C   UNL     1      46.533  30.882 110.815  1.00  0.00     0.002 A 
ATOM     11  C   UNL     1      43.717  33.840 110.637  1.00  0.00     0.030 A 
ATOM     12  C   UNL     1      46.020  33.210 110.705  1.00  0.00     0.001 A 
ATOM     13  C   UNL     1      46.959  32.194 110.766  1.00  0.00     0.010 A 
ATOM     14  C   UNL     1      44.118  35.143 110.586  1.00  0.00     0.111 A 
ATOM     15  C   UNL     1      46.395  34.538 110.654  1.00  0.00     0.119 A 
ATOM     16  N   UNL     1      45.422  35.457 110.596  1.00  0.00    -0.264 NA
ENDBRANCH   4   7
ENDBRANCH   3   4
ENDBRANCH   2   3
ENDBRANCH   1   2
BRANCH   1  17
ATOM     17  N   UNL     1      43.348  26.578 110.812  1.00  0.00    -0.344 N 
ATOM     18  H   UNL     1      44.303  26.231 110.678  1.00  0.00     0.346 HD
ATOM     19  H   UNL     1      43.241  27.059 111.736  1.00  0.00     0.346 HD
BRANCH  17  20
ATOM     20  C   UNL     1      42.377  25.507 110.792  1.00  0.00     0.289 C 
BRANCH  20  21
ATOM     21  C   UNL     1      42.893  24.265 110.209  1.00  0.00     0.034 C 
ATOM     22  C   UNL     1      44.062  23.793 110.604  1.00  0.00     0.009 C 
BRANCH  22  23
ATOM     23  C   UNL     1      44.678  22.573 110.099  1.00  0.00    -0.026 A 
ATOM     24  C   UNL     1      45.582  21.885 110.877  1.00  0.00     0.009 A 
ATOM     25  C   UNL     1      44.407  22.048 108.859  1.00  0.00     0.009 A 
ATOM     26  C   UNL     1      46.198  20.722 110.453  1.00  0.00     0.016 A 
ATOM     27  C   UNL     1      45.025  20.871 108.418  1.00  0.00     0.016 A 
ATOM     28  C   UNL     1      45.924  20.199 109.208  1.00  0.00     0.018 A 
ATOM     29  Br  UNL     1      46.758  18.590 108.585  1.00  0.00    -0.051 Br
ENDBRANCH  22  23
ENDBRANCH  20  21
ENDBRANCH  17  20
ENDBRANCH   1  17
TORSDOF 8
ENDMDL
MODEL 5
REMARK VINA RESULT:      -6.8      1.554      2.407
REMARK SMILES O=S(=O)([N-]CC[NH2+]C/C=C/c1ccc(Br)cc1)c1cccc2cnccc12
REMARK SMILES IDX 6 1 5 2 4 3 2 4 1 5 3 6 18 7 19 8 27 9 20 10 26 11 22 12
REMARK SMILES IDX 21 13 25 14 23 15 24 16 7 17 8 20 9 21 10 22 11 23 12 24
REMARK SMILES IDX 17 25 13 26 16 27 14 28 15 29
REMARK H PARENT 7 18 7 19
ROOT
ATOM      1  C   UNL     1      41.486  26.709 110.981  1.00  0.00     0.238 C 
ENDROOT
BRANCH   1   2
ATOM      2  C   UNL     1      41.739  27.891 110.074  1.00  0.00    -0.070 C 
BRANCH   2   3
ATOM      3  N   UNL     1      41.942  29.095 110.850  1.00  0.00    -0.540 NA
BRANCH   3   4
ATOM      4  S   UNL     1      43.619  29.610 110.740  1.00  0.00     0.102 S 
ATOM      5  O   UNL     1      44.185  28.791 109.688  1.00  0.00    -0.244 OA
ATOM      6  O   UNL     1      44.229  29.206 112.056  1.00  0.00    -0.244 OA
BRANCH   4   7
ATOM      7  C   UNL     1      43.605  31.301 110.617  1.00  0.00     0.056 A 
ATOM      8  C   UNL     1      42.412  31.977 110.475  1.00  0.00     0.019 A 
ATOM      9  C   UNL     1      44.762  32.049 110.652  1.00  0.00     0.002 A 
ATOM     10  C   UNL     1      42.406  33.360 110.373  1.00  0.00     0.002 A 
ATOM     11  C   UNL     1      45.952  31.370 110.796  1.00  0.00     0.030 A 
ATOM     12  C   UNL     1      44.784  33.440 110.552  1.00  0.00     0.001 A 
ATOM     13  C   UNL     1      43.573  34.096 110.409  1.00  0.00     0.010 A 
ATOM     14  C   UNL     1      47.116  32.080 110.837  1.00  0.00     0.111 A 
ATOM     15  C   UNL     1      45.979  34.131 110.596  1.00  0.00     0.119 A 
ATOM     16  N   UNL     1      47.105  33.418 110.737  1.00  0.00    -0.264 NA
ENDBRANCH   4   7
ENDBRANCH   3   4
ENDBRANCH   2   3
ENDBRANCH   1   2
BRANCH   1  17
ATOM     17  N   UNL     1      42.052  25.490 110.482  1.00  0.00    -0.344 N 
ATOM     18  H   UNL     1      41.391  24.715 110.596  1.00  0.00     0.346 HD
ATOM     19  H   UNL     1      42.308  25.631 109.476  1.00  0.00     0.346 HD
BRANCH  17  20
ATOM     20  C   UNL     1      43.292  25.251 111.189  1.00  0.00     0.289 C 
BRANCH  20  21
ATOM     21  C   UNL     1      44.217  24.379 110.460  1.00  0.00     0.034 C 
ATOM     22  C   UNL     1      44.390  23.132 110.856  1.00  0.00     0.009 C 
BRANCH  22  23
ATOM     23  C   UNL     1      45.280  22.172 110.214  1.00  0.00    -0.026 A 
ATOM     24  C   UNL     1      45.061  21.794 108.908  1.00  0.00     0.009 A 
ATOM     25  C   UNL     1      46.358  21.603 110.848  1.00  0.00     0.009 A 
ATOM     26  C   UNL     1      45.871  20.889 108.248  1.00  0.00     0.016 A 
ATOM     27  C   UNL     1      47.185  20.685 110.189  1.00  0.00     0.016 A 
ATOM     28  C   UNL     1      46.950  20.320 108.887  1.00  0.00     0.018 A 
ATOM     29  Br  UNL     1      48.096  19.062 108.005  1.00  0.00    -0.051 Br
ENDBRANCH  22  23
ENDBRANCH  20  21
ENDBRANCH  17  20
ENDBRANCH   1  17
TORSDOF 8
ENDMDL
MODEL 6
REMARK VINA RESULT:      -6.7     12.824     15.003
REMARK SMILES O=S(=O)([N-]CC[NH2+]C/C=C/c1ccc(Br)cc1)c1cccc2cnccc12
REMARK SMILES IDX 6 1 5 2 4 3 2 4 1 5 3 6 18 7 19 8 27 9 20 10 26 11 22 12
REMARK SMILES IDX 21 13 25 14 23 15 24 16 7 17 8 20 9 21 10 22 11 23 12 24
REMARK SMILES IDX 17 25 13 26 16 27 14 28 15 29
REMARK H PARENT 7 18 7 19
ROOT
ATOM      1  C   UNL     1      53.208  22.632 114.181  1.00  0.00     0.238 C 
ENDROOT
BRANCH   1   2
ATOM      2  C   UNL     1      53.655  22.114 115.528  1.00  0.00    -0.070 C 
BRANCH   2   3
ATOM      3  N   UNL     1      53.146  22.953 116.592  1.00  0.00    -0.540 NA
BRANCH   3   4
ATOM      4  S   UNL     1      53.830  22.456 118.133  1.00  0.00     0.102 S 
ATOM      5  O   UNL     1      54.449  21.174 117.863  1.00  0.00    -0.244 OA
ATOM      6  O   UNL     1      52.637  22.244 119.028  1.00  0.00    -0.244 OA
BRANCH   4   7
ATOM      7  C   UNL     1      54.744  23.763 118.708  1.00  0.00     0.056 A 
ATOM      8  C   UNL     1      54.521  25.034 118.221  1.00  0.00     0.019 A 
ATOM      9  C   UNL     1      55.725  23.609 119.662  1.00  0.00     0.002 A 
ATOM     10  C   UNL     1      55.272  26.099 118.692  1.00  0.00     0.002 A 
ATOM     11  C   UNL     1      55.944  22.339 120.148  1.00  0.00     0.030 A 
ATOM     12  C   UNL     1      56.495  24.663 120.154  1.00  0.00     0.001 A 
ATOM     13  C   UNL     1      56.253  25.929 119.648  1.00  0.00     0.010 A 
ATOM     14  C   UNL     1      56.908  22.151 121.096  1.00  0.00     0.111 A 
ATOM     15  C   UNL     1      57.464  24.442 121.112  1.00  0.00     0.119 A 
ATOM     16  N   UNL     1      57.632  23.185 121.548  1.00  0.00    -0.264 NA
ENDBRANCH   4   7
ENDBRANCH   3   4
ENDBRANCH   2   3
ENDBRANCH   1   2
BRANCH   1  17
ATOM     17  N   UNL     1      54.262  22.647 113.210  1.00  0.00    -0.344 N 
ATOM     18  H   UNL     1      54.093  21.942 112.487  1.00  0.00     0.346 HD
ATOM     19  H   UNL     1      54.322  23.610 112.800  1.00  0.00     0.346 HD
BRANCH  17  20
ATOM     20  C   UNL     1      55.511  22.421 113.904  1.00  0.00     0.289 C 
BRANCH  20  21
ATOM     21  C   UNL     1      56.271  23.650 114.148  1.00  0.00     0.034 C 
ATOM     22  C   UNL     1      56.887  23.821 115.304  1.00  0.00     0.009 C 
BRANCH  22  23
ATOM     23  C   UNL     1      57.670  24.996 115.663  1.00  0.00    -0.026 A 
ATOM     24  C   UNL     1      57.701  26.087 114.822  1.00  0.00     0.009 A 
ATOM     25  C   UNL     1      58.401  25.089 116.822  1.00  0.00     0.009 A 
ATOM     26  C   UNL     1      58.426  27.229 115.110  1.00  0.00     0.016 A 
ATOM     27  C   UNL     1      59.139  26.241 117.123  1.00  0.00     0.016 A 
ATOM     28  C   UNL     1      59.158  27.318 116.273  1.00  0.00     0.018 A 
ATOM     29  Br  UNL     1      60.174  28.884 116.707  1.00  0.00    -0.051 Br
ENDBRANCH  22  23
ENDBRANCH  20  21
ENDBRANCH  17  20
ENDBRANCH   1  17
TORSDOF 8
ENDMDL
MODEL 7
REMARK VINA RESULT:      -6.5      1.338      2.478
REMARK SMILES O=S(=O)([N-]CC[NH2+]C/C=C/c1ccc(Br)cc1)c1cccc2cnccc12
REMARK SMILES IDX 6 1 5 2 4 3 2 4 1 5 3 6 18 7 19 8 27 9 20 10 26 11 22 12
REMARK SMILES IDX 21 13 25 14 23 15 24 16 7 17 8 20 9 21 10 22 11 23 12 24
REMARK SMILES IDX 17 25 13 26 16 27 14 28 15 29
REMARK H PARENT 7 18 7 19
ROOT
ATOM      1  C   UNL     1      42.973  25.745 112.076  1.00  0.00     0.238 C 
ENDROOT
BRANCH   1   2
ATOM      2  C   UNL     1      41.774  26.628 112.332  1.00  0.00    -0.070 C 
BRANCH   2   3
ATOM      3  N   UNL     1      41.725  27.714 111.377  1.00  0.00    -0.540 NA
BRANCH   3   4
ATOM      4  S   UNL     1      43.288  28.512 111.291  1.00  0.00     0.102 S 
ATOM      5  O   UNL     1      44.084  27.668 110.423  1.00  0.00    -0.244 OA
ATOM      6  O   UNL     1      43.837  28.428 112.691  1.00  0.00    -0.244 OA
BRANCH   4   7
ATOM      7  C   UNL     1      42.990  30.134 110.896  1.00  0.00     0.056 A 
ATOM      8  C   UNL     1      41.724  30.536 110.523  1.00  0.00     0.019 A 
ATOM      9  C   UNL     1      43.980  31.092 110.929  1.00  0.00     0.002 A 
ATOM     10  C   UNL     1      41.485  31.862 110.199  1.00  0.00     0.002 A 
ATOM     11  C   UNL     1      45.242  30.687 111.303  1.00  0.00     0.030 A 
ATOM     12  C   UNL     1      43.766  32.432 110.608  1.00  0.00     0.001 A 
ATOM     13  C   UNL     1      42.487  32.811 110.237  1.00  0.00     0.010 A 
ATOM     14  C   UNL     1      46.245  31.611 111.348  1.00  0.00     0.111 A 
ATOM     15  C   UNL     1      44.801  33.344 110.663  1.00  0.00     0.119 A 
ATOM     16  N   UNL     1      46.008  32.893 111.033  1.00  0.00    -0.264 NA
ENDBRANCH   4   7
ENDBRANCH   3   4
ENDBRANCH   2   3
ENDBRANCH   1   2
BRANCH   1  17
ATOM     17  N   UNL     1      42.615  24.430 111.632  1.00  0.00    -0.344 N 
ATOM     18  H   UNL     1      42.976  23.723 112.280  1.00  0.00     0.346 HD
ATOM     19  H   UNL     1      41.571  24.380 111.552  1.00  0.00     0.346 HD
BRANCH  17  20
ATOM     20  C   UNL     1      43.137  24.253 110.294  1.00  0.00     0.289 C 
BRANCH  20  21
ATOM     21  C   UNL     1      43.880  23.001 110.122  1.00  0.00     0.034 C 
ATOM     22  C   UNL     1      45.152  22.942 110.471  1.00  0.00     0.009 C 
BRANCH  22  23
ATOM     23  C   UNL     1      45.993  21.758 110.348  1.00  0.00    -0.026 A 
ATOM     24  C   UNL     1      45.514  20.528 110.742  1.00  0.00     0.009 A 
ATOM     25  C   UNL     1      47.272  21.791 109.849  1.00  0.00     0.009 A 
ATOM     26  C   UNL     1      46.265  19.371 110.649  1.00  0.00     0.016 A 
ATOM     27  C   UNL     1      48.042  20.624 109.750  1.00  0.00     0.016 A 
ATOM     28  C   UNL     1      47.548  19.408 110.148  1.00  0.00     0.018 A 
ATOM     29  Br  UNL     1      48.619  17.825 110.003  1.00  0.00    -0.051 Br
ENDBRANCH  22  23
ENDBRANCH  20  21
ENDBRANCH  17  20
ENDBRANCH   1  17
TORSDOF 8
ENDMDL
MODEL 8
REMARK VINA RESULT:      -6.5     11.233     14.136
REMARK SMILES O=S(=O)([N-]CC[NH2+]C/C=C/c1ccc(Br)cc1)c1cccc2cnccc12
REMARK SMILES IDX 6 1 5 2 4 3 2 4 1 5 3 6 18 7 19 8 27 9 20 10 26 11 22 12
REMARK SMILES IDX 21 13 25 14 23 15 24 16 7 17 8 20 9 21 10 22 11 23 12 24
REMARK SMILES IDX 17 25 13 26 16 27 14 28 15 29
REMARK H PARENT 7 18 7 19
ROOT
ATOM      1  C   UNL     1      54.515  25.258 118.803  1.00  0.00     0.238 C 
ENDROOT
BRANCH   1   2
ATOM      2  C   UNL     1      55.820  24.881 118.142  1.00  0.00    -0.070 C 
BRANCH   2   3
ATOM      3  N   UNL     1      56.293  23.606 118.635  1.00  0.00    -0.540 NA
BRANCH   3   4
ATOM      4  S   UNL     1      56.185  22.391 117.369  1.00  0.00     0.102 S 
ATOM      5  O   UNL     1      57.561  22.052 117.068  1.00  0.00    -0.244 OA
ATOM      6  O   UNL     1      55.593  23.119 116.192  1.00  0.00    -0.244 OA
BRANCH   4   7
ATOM      7  C   UNL     1      55.095  21.212 117.913  1.00  0.00     0.056 A 
ATOM      8  C   UNL     1      54.261  21.476 118.979  1.00  0.00     0.019 A 
ATOM      9  C   UNL     1      55.004  19.969 117.324  1.00  0.00     0.002 A 
ATOM     10  C   UNL     1      53.373  20.508 119.422  1.00  0.00     0.002 A 
ATOM     11  C   UNL     1      55.837  19.710 116.259  1.00  0.00     0.030 A 
ATOM     12  C   UNL     1      54.119  18.978 117.749  1.00  0.00     0.001 A 
ATOM     13  C   UNL     1      53.293  19.267 118.822  1.00  0.00     0.010 A 
ATOM     14  C   UNL     1      55.771  18.489 115.651  1.00  0.00     0.111 A 
ATOM     15  C   UNL     1      54.077  17.753 117.114  1.00  0.00     0.119 A 
ATOM     16  N   UNL     1      54.911  17.556 116.084  1.00  0.00    -0.264 NA
ENDBRANCH   4   7
ENDBRANCH   3   4
ENDBRANCH   2   3
ENDBRANCH   1   2
BRANCH   1  17
ATOM     17  N   UNL     1      53.595  25.892 117.904  1.00  0.00    -0.344 N 
ATOM     18  H   UNL     1      53.508  26.888 118.126  1.00  0.00     0.346 HD
ATOM     19  H   UNL     1      53.936  25.746 116.924  1.00  0.00     0.346 HD
BRANCH  17  20
ATOM     20  C   UNL     1      52.327  25.203 118.003  1.00  0.00     0.289 C 
BRANCH  20  21
ATOM     21  C   UNL     1      52.388  23.808 117.556  1.00  0.00     0.034 C 
ATOM     22  C   UNL     1      51.938  23.484 116.358  1.00  0.00     0.009 C 
BRANCH  22  23
ATOM     23  C   UNL     1      51.945  22.136 115.804  1.00  0.00    -0.026 A 
ATOM     24  C   UNL     1      51.112  21.172 116.326  1.00  0.00     0.009 A 
ATOM     25  C   UNL     1      52.753  21.755 114.761  1.00  0.00     0.009 A 
ATOM     26  C   UNL     1      51.075  19.877 115.842  1.00  0.00     0.016 A 
ATOM     27  C   UNL     1      52.724  20.446 114.262  1.00  0.00     0.016 A 
ATOM     28  C   UNL     1      51.888  19.498 114.796  1.00  0.00     0.018 A 
ATOM     29  Br  UNL     1      51.864  17.713 114.097  1.00  0.00    -0.051 Br
ENDBRANCH  22  23
ENDBRANCH  20  21
ENDBRANCH  17  20
ENDBRANCH   1  17
TORSDOF 8
ENDMDL
MODEL 9
REMARK VINA RESULT:      -6.4     11.543     14.055
REMARK SMILES O=S(=O)([N-]CC[NH2+]C/C=C/c1ccc(Br)cc1)c1cccc2cnccc12
REMARK SMILES IDX 6 1 5 2 4 3 2 4 1 5 3 6 18 7 19 8 27 9 20 10 26 11 22 12
REMARK SMILES IDX 21 13 25 14 23 15 24 16 7 17 8 20 9 21 10 22 11 23 12 24
REMARK SMILES IDX 17 25 13 26 16 27 14 28 15 29
REMARK H PARENT 7 18 7 19
ROOT
ATOM      1  C   UNL     1      55.378  26.169 118.757  1.00  0.00     0.238 C 
ENDROOT
BRANCH   1   2
ATOM      2  C   UNL     1      55.723  25.179 119.845  1.00  0.00    -0.070 C 
BRANCH   2   3
ATOM      3  N   UNL     1      56.845  24.356 119.450  1.00  0.00    -0.540 NA
BRANCH   3   4
ATOM      4  S   UNL     1      56.353  22.672 119.344  1.00  0.00     0.102 S 
ATOM      5  O   UNL     1      55.268  22.547 120.296  1.00  0.00    -0.244 OA
ATOM      6  O   UNL     1      57.540  21.896 119.851  1.00  0.00    -0.244 OA
BRANCH   4   7
ATOM      7  C   UNL     1      56.114  22.333 117.700  1.00  0.00     0.056 A 
ATOM      8  C   UNL     1      56.503  23.243 116.740  1.00  0.00     0.019 A 
ATOM      9  C   UNL     1      55.533  21.161 117.269  1.00  0.00     0.002 A 
ATOM     10  C   UNL     1      56.304  22.963 115.397  1.00  0.00     0.002 A 
ATOM     11  C   UNL     1      55.147  20.253 118.231  1.00  0.00     0.030 A 
ATOM     12  C   UNL     1      55.322  20.854 115.925  1.00  0.00     0.001 A 
ATOM     13  C   UNL     1      55.720  21.784 114.981  1.00  0.00     0.010 A 
ATOM     14  C   UNL     1      54.570  19.081 117.838  1.00  0.00     0.111 A 
ATOM     15  C   UNL     1      54.734  19.659 115.559  1.00  0.00     0.119 A 
ATOM     16  N   UNL     1      54.379  18.815 116.538  1.00  0.00    -0.264 NA
ENDBRANCH   4   7
ENDBRANCH   3   4
ENDBRANCH   2   3
ENDBRANCH   1   2
BRANCH   1  17
ATOM     17  N   UNL     1      54.349  25.697 117.877  1.00  0.00    -0.344 N 
ATOM     18  H   UNL     1      53.986  26.466 117.306  1.00  0.00     0.346 HD
ATOM     19  H   UNL     1      54.746  24.931 117.283  1.00  0.00     0.346 HD
BRANCH  17  20
ATOM     20  C   UNL     1      53.314  25.091 118.686  1.00  0.00     0.289 C 
BRANCH  20  21
ATOM     21  C   UNL     1      52.820  23.822 118.143  1.00  0.00     0.034 C 
ATOM     22  C   UNL     1      52.585  23.712 116.848  1.00  0.00     0.009 C 
BRANCH  22  23
ATOM     23  C   UNL     1      52.095  22.507 116.192  1.00  0.00    -0.026 A 
ATOM     24  C   UNL     1      51.616  21.458 116.945  1.00  0.00     0.009 A 
ATOM     25  C   UNL     1      52.079  22.346 114.828  1.00  0.00     0.009 A 
ATOM     26  C   UNL     1      51.139  20.291 116.378  1.00  0.00     0.016 A 
ATOM     27  C   UNL     1      51.597  21.167 114.243  1.00  0.00     0.016 A 
ATOM     28  C   UNL     1      51.124  20.132 115.010  1.00  0.00     0.018 A 
ATOM     29  Br  UNL     1      50.469  18.529 114.188  1.00  0.00    -0.051 Br
ENDBRANCH  22  23
ENDBRANCH  20  21
ENDBRANCH  17  20
ENDBRANCH   1  17
TORSDOF 8
ENDMDL
