MODEL 1
REMARK VINA RESULT:      -9.1      0.000      0.000
REMARK SMILES O=C(CCC[NH+]1CCC(O)(c2ccc(Cl)cc2)CC1)c1ccc(F)cc1
REMARK SMILES IDX 4 1 3 2 2 3 1 4 20 5 21 6 26 7 22 8 25 9 23 10 24 11 5 12
REMARK SMILES IDX 6 13 7 14 19 15 8 16 18 17 9 18 10 20 11 22 12 23 17 24
REMARK SMILES IDX 13 25 16 26 14 27 15 28
REMARK H PARENT 6 19 10 21
ROOT
ATOM      1  C   UNL     1     140.114 141.698 165.602  1.00  0.00     0.070 C 
ENDROOT
BRANCH   1   2
ATOM      2  C   UNL     1     139.393 141.267 164.344  1.00  0.00     0.087 C 
BRANCH   2   3
ATOM      3  C   UNL     1     140.278 140.827 163.263  1.00  0.00     0.163 C 
ATOM      4  O   UNL     1     139.841 140.610 162.103  1.00  0.00    -0.294 OA
BRANCH   3   5
ATOM      5  C   UNL     1     141.727 140.614 163.463  1.00  0.00     0.018 A 
ATOM      6  C   UNL     1     142.209 139.372 163.834  1.00  0.00     0.015 A 
ATOM      7  C   UNL     1     142.623 141.638 163.286  1.00  0.00     0.015 A 
ATOM      8  C   UNL     1     143.558 139.181 164.019  1.00  0.00     0.040 A 
ATOM      9  C   UNL     1     143.967 141.455 163.467  1.00  0.00     0.040 A 
ATOM     10  C   UNL     1     144.433 140.221 163.835  1.00  0.00     0.123 A 
ATOM     11  F   UNL     1     145.785 140.078 164.010  1.00  0.00    -0.207 F 
ENDBRANCH   3   5
ENDBRANCH   2   3
ENDBRANCH   1   2
BRANCH   1  12
ATOM     12  C   UNL     1     140.010 140.599 166.604  1.00  0.00     0.262 C 
BRANCH  12  13
ATOM     13  N   UNL     1     139.528 141.061 167.899  1.00  0.00    -0.335 N 
ATOM     14  C   UNL     1     140.352 140.614 168.980  1.00  0.00     0.265 C 
ATOM     15  C   UNL     1     139.416 142.484 167.902  1.00  0.00     0.265 C 
ATOM     16  C   UNL     1     141.766 141.105 168.838  1.00  0.00     0.102 C 
ATOM     17  C   UNL     1     140.438 143.234 168.647  1.00  0.00     0.102 C 
ATOM     18  C   UNL     1     141.769 142.605 168.833  1.00  0.00     0.100 C 
ATOM     19  H   UNL     1     138.587 140.582 168.020  1.00  0.00     0.348 HD
BRANCH  18  20
ATOM     20  O   UNL     1     142.235 142.997 170.112  1.00  0.00    -0.385 OA
ATOM     21  H   UNL     1     142.043 142.245 170.726  1.00  0.00     0.211 HD
ENDBRANCH  18  20
BRANCH  18  22
ATOM     22  C   UNL     1     142.806 143.147 167.885  1.00  0.00    -0.016 A 
ATOM     23  C   UNL     1     143.801 142.352 167.355  1.00  0.00     0.008 A 
ATOM     24  C   UNL     1     142.827 144.466 167.487  1.00  0.00     0.008 A 
ATOM     25  C   UNL     1     144.766 142.808 166.486  1.00  0.00     0.021 A 
ATOM     26  C   UNL     1     143.786 144.947 166.616  1.00  0.00     0.021 A 
ATOM     27  C   UNL     1     144.753 144.117 166.117  1.00  0.00     0.041 A 
ATOM     28  Cl  UNL     1     145.969 144.717 165.014  1.00  0.00    -0.084 Cl
ENDBRANCH  18  22
ENDBRANCH  12  13
ENDBRANCH   1  12
TORSDOF 7
ENDMDL
MODEL 2
REMARK VINA RESULT:      -8.6      2.329      5.175
REMARK SMILES O=C(CCC[NH+]1CCC(O)(c2ccc(Cl)cc2)CC1)c1ccc(F)cc1
REMARK SMILES IDX 4 1 3 2 2 3 1 4 20 5 21 6 26 7 22 8 25 9 23 10 24 11 5 12
REMARK SMILES IDX 6 13 7 14 19 15 8 16 18 17 9 18 10 20 11 22 12 23 17 24
REMARK SMILES IDX 13 25 16 26 14 27 15 28
REMARK H PARENT 6 19 10 21
ROOT
ATOM      1  C   UNL     1     142.105 144.747 168.842  1.00  0.00     0.070 C 
ENDROOT
BRANCH   1   2
ATOM      2  C   UNL     1     142.395 145.454 167.537  1.00  0.00     0.087 C 
BRANCH   2   3
ATOM      3  C   UNL     1     143.680 146.155 167.505  1.00  0.00     0.163 C 
ATOM      4  O   UNL     1     143.854 147.237 168.122  1.00  0.00    -0.294 OA
BRANCH   3   5
ATOM      5  C   UNL     1     144.844 145.641 166.753  1.00  0.00     0.018 A 
ATOM      6  C   UNL     1     144.685 144.640 165.811  1.00  0.00     0.015 A 
ATOM      7  C   UNL     1     146.103 146.141 166.969  1.00  0.00     0.015 A 
ATOM      8  C   UNL     1     145.772 144.165 165.115  1.00  0.00     0.040 A 
ATOM      9  C   UNL     1     147.189 145.674 166.279  1.00  0.00     0.040 A 
ATOM     10  C   UNL     1     147.020 144.684 165.351  1.00  0.00     0.123 A 
ATOM     11  F   UNL     1     148.132 144.240 164.683  1.00  0.00    -0.207 F 
ENDBRANCH   3   5
ENDBRANCH   2   3
ENDBRANCH   1   2
BRANCH   1  12
ATOM     12  C   UNL     1     142.081 143.279 168.587  1.00  0.00     0.262 C 
BRANCH  12  13
ATOM     13  N   UNL     1     140.733 142.724 168.614  1.00  0.00    -0.335 N 
ATOM     14  C   UNL     1     139.938 143.165 167.509  1.00  0.00     0.265 C 
ATOM     15  C   UNL     1     140.790 141.299 168.661  1.00  0.00     0.265 C 
ATOM     16  C   UNL     1     140.549 142.767 166.194  1.00  0.00     0.102 C 
ATOM     17  C   UNL     1     140.455 140.575 167.426  1.00  0.00     0.102 C 
ATOM     18  C   UNL     1     140.654 141.272 166.131  1.00  0.00     0.100 C 
ATOM     19  H   UNL     1     140.291 143.139 169.487  1.00  0.00     0.348 HD
BRANCH  18  20
ATOM     20  O   UNL     1     139.616 140.845 165.269  1.00  0.00    -0.385 OA
ATOM     21  H   UNL     1     138.822 140.685 165.839  1.00  0.00     0.211 HD
ENDBRANCH  18  20
BRANCH  18  22
ATOM     22  C   UNL     1     141.914 140.842 165.427  1.00  0.00    -0.016 A 
ATOM     23  C   UNL     1     141.909 139.874 164.445  1.00  0.00     0.008 A 
ATOM     24  C   UNL     1     143.147 141.384 165.718  1.00  0.00     0.008 A 
ATOM     25  C   UNL     1     143.037 139.452 163.778  1.00  0.00     0.021 A 
ATOM     26  C   UNL     1     144.292 140.976 165.063  1.00  0.00     0.021 A 
ATOM     27  C   UNL     1     144.236 140.011 164.094  1.00  0.00     0.041 A 
ATOM     28  Cl  UNL     1     145.680 139.491 163.259  1.00  0.00    -0.084 Cl
ENDBRANCH  18  22
ENDBRANCH  12  13
ENDBRANCH   1  12
TORSDOF 7
ENDMDL
MODEL 3
REMARK VINA RESULT:      -8.5      1.032      1.507
REMARK SMILES O=C(CCC[NH+]1CCC(O)(c2ccc(Cl)cc2)CC1)c1ccc(F)cc1
REMARK SMILES IDX 4 1 3 2 2 3 1 4 20 5 21 6 26 7 22 8 25 9 23 10 24 11 5 12
REMARK SMILES IDX 6 13 7 14 19 15 8 16 18 17 9 18 10 20 11 22 12 23 17 24
REMARK SMILES IDX 13 25 16 26 14 27 15 28
REMARK H PARENT 6 19 10 21
ROOT
ATOM      1  C   UNL     1     139.932 140.412 165.994  1.00  0.00     0.070 C 
ENDROOT
BRANCH   1   2
ATOM      2  C   UNL     1     139.759 141.071 164.644  1.00  0.00     0.087 C 
BRANCH   2   3
ATOM      3  C   UNL     1     140.557 140.469 163.573  1.00  0.00     0.163 C 
ATOM      4  O   UNL     1     140.018 139.998 162.538  1.00  0.00    -0.294 OA
BRANCH   3   5
ATOM      5  C   UNL     1     142.030 140.380 163.638  1.00  0.00     0.018 A 
ATOM      6  C   UNL     1     142.649 139.176 163.925  1.00  0.00     0.015 A 
ATOM      7  C   UNL     1     142.816 141.482 163.417  1.00  0.00     0.015 A 
ATOM      8  C   UNL     1     144.020 139.099 163.984  1.00  0.00     0.040 A 
ATOM      9  C   UNL     1     144.182 141.413 163.474  1.00  0.00     0.040 A 
ATOM     10  C   UNL     1     144.782 140.217 163.758  1.00  0.00     0.123 A 
ATOM     11  F   UNL     1     146.152 140.188 163.809  1.00  0.00    -0.207 F 
ENDBRANCH   3   5
ENDBRANCH   2   3
ENDBRANCH   1   2
BRANCH   1  12
ATOM     12  C   UNL     1     140.839 141.260 166.819  1.00  0.00     0.262 C 
BRANCH  12  13
ATOM     13  N   UNL     1     140.122 142.261 167.597  1.00  0.00    -0.335 N 
ATOM     14  C   UNL     1     140.643 142.399 168.923  1.00  0.00     0.265 C 
ATOM     15  C   UNL     1     140.134 143.514 166.915  1.00  0.00     0.265 C 
ATOM     16  C   UNL     1     142.090 142.809 168.909  1.00  0.00     0.102 C 
ATOM     17  C   UNL     1     141.024 144.557 167.446  1.00  0.00     0.102 C 
ATOM     18  C   UNL     1     142.222 144.130 168.211  1.00  0.00     0.100 C 
ATOM     19  H   UNL     1     139.140 141.866 167.701  1.00  0.00     0.348 HD
BRANCH  18  20
ATOM     20  O   UNL     1     142.423 145.090 169.232  1.00  0.00    -0.385 OA
ATOM     21  H   UNL     1     141.887 144.793 170.010  1.00  0.00     0.211 HD
ENDBRANCH  18  20
BRANCH  18  22
ATOM     22  C   UNL     1     143.486 144.194 167.395  1.00  0.00    -0.016 A 
ATOM     23  C   UNL     1     144.094 145.392 167.082  1.00  0.00     0.008 A 
ATOM     24  C   UNL     1     144.113 143.067 166.911  1.00  0.00     0.008 A 
ATOM     25  C   UNL     1     145.248 145.494 166.339  1.00  0.00     0.021 A 
ATOM     26  C   UNL     1     145.271 143.145 166.163  1.00  0.00     0.021 A 
ATOM     27  C   UNL     1     145.838 144.358 165.878  1.00  0.00     0.041 A 
ATOM     28  Cl  UNL     1     147.304 144.465 164.934  1.00  0.00    -0.084 Cl
ENDBRANCH  18  22
ENDBRANCH  12  13
ENDBRANCH   1  12
TORSDOF 7
ENDMDL
MODEL 4
REMARK VINA RESULT:      -8.3      0.837      1.594
REMARK SMILES O=C(CCC[NH+]1CCC(O)(c2ccc(Cl)cc2)CC1)c1ccc(F)cc1
REMARK SMILES IDX 4 1 3 2 2 3 1 4 20 5 21 6 26 7 22 8 25 9 23 10 24 11 5 12
REMARK SMILES IDX 6 13 7 14 19 15 8 16 18 17 9 18 10 20 11 22 12 23 17 24
REMARK SMILES IDX 13 25 16 26 14 27 15 28
REMARK H PARENT 6 19 10 21
ROOT
ATOM      1  C   UNL     1     139.163 141.140 165.091  1.00  0.00     0.070 C 
ENDROOT
BRANCH   1   2
ATOM      2  C   UNL     1     139.437 141.322 163.615  1.00  0.00     0.087 C 
BRANCH   2   3
ATOM      3  C   UNL     1     140.360 140.337 163.047  1.00  0.00     0.163 C 
ATOM      4  O   UNL     1     139.962 139.443 162.257  1.00  0.00    -0.294 OA
BRANCH   3   5
ATOM      5  C   UNL     1     141.804 140.332 163.362  1.00  0.00     0.018 A 
ATOM      6  C   UNL     1     142.560 141.481 163.213  1.00  0.00     0.015 A 
ATOM      7  C   UNL     1     142.427 139.194 163.808  1.00  0.00     0.015 A 
ATOM      8  C   UNL     1     143.902 141.470 163.507  1.00  0.00     0.040 A 
ATOM      9  C   UNL     1     143.764 139.175 164.103  1.00  0.00     0.040 A 
ATOM     10  C   UNL     1     144.500 140.318 163.951  1.00  0.00     0.123 A 
ATOM     11  F   UNL     1     145.836 140.259 164.254  1.00  0.00    -0.207 F 
ENDBRANCH   3   5
ENDBRANCH   2   3
ENDBRANCH   1   2
BRANCH   1  12
ATOM     12  C   UNL     1     140.037 142.079 165.851  1.00  0.00     0.262 C 
BRANCH  12  13
ATOM     13  N   UNL     1     139.855 141.976 167.293  1.00  0.00    -0.335 N 
ATOM     14  C   UNL     1     140.627 140.917 167.868  1.00  0.00     0.265 C 
ATOM     15  C   UNL     1     140.160 143.223 167.917  1.00  0.00     0.265 C 
ATOM     16  C   UNL     1     142.099 141.112 167.626  1.00  0.00     0.102 C 
ATOM     17  C   UNL     1     141.430 143.311 168.651  1.00  0.00     0.102 C 
ATOM     18  C   UNL     1     142.535 142.405 168.248  1.00  0.00     0.100 C 
ATOM     19  H   UNL     1     138.834 141.703 167.415  1.00  0.00     0.348 HD
BRANCH  18  20
ATOM     20  O   UNL     1     143.232 142.053 169.429  1.00  0.00    -0.385 OA
ATOM     21  H   UNL     1     142.841 141.200 169.744  1.00  0.00     0.211 HD
ENDBRANCH  18  20
BRANCH  18  22
ATOM     22  C   UNL     1     143.573 143.097 167.403  1.00  0.00    -0.016 A 
ATOM     23  C   UNL     1     143.466 144.427 167.056  1.00  0.00     0.008 A 
ATOM     24  C   UNL     1     144.691 142.448 166.926  1.00  0.00     0.008 A 
ATOM     25  C   UNL     1     144.391 145.095 166.287  1.00  0.00     0.021 A 
ATOM     26  C   UNL     1     145.632 143.098 166.152  1.00  0.00     0.021 A 
ATOM     27  C   UNL     1     145.482 144.420 165.834  1.00  0.00     0.041 A 
ATOM     28  Cl  UNL     1     146.669 145.250 164.858  1.00  0.00    -0.084 Cl
ENDBRANCH  18  22
ENDBRANCH  12  13
ENDBRANCH   1  12
TORSDOF 7
ENDMDL
MODEL 5
REMARK VINA RESULT:      -8.3      0.848      1.709
REMARK SMILES O=C(CCC[NH+]1CCC(O)(c2ccc(Cl)cc2)CC1)c1ccc(F)cc1
REMARK SMILES IDX 4 1 3 2 2 3 1 4 20 5 21 6 26 7 22 8 25 9 23 10 24 11 5 12
REMARK SMILES IDX 6 13 7 14 19 15 8 16 18 17 9 18 10 20 11 22 12 23 17 24
REMARK SMILES IDX 13 25 16 26 14 27 15 28
REMARK H PARENT 6 19 10 21
ROOT
ATOM      1  C   UNL     1     140.028 141.443 165.313  1.00  0.00     0.070 C 
ENDROOT
BRANCH   1   2
ATOM      2  C   UNL     1     141.327 141.640 164.563  1.00  0.00     0.087 C 
BRANCH   2   3
ATOM      3  C   UNL     1     141.799 140.449 163.853  1.00  0.00     0.163 C 
ATOM      4  O   UNL     1     141.014 139.730 163.181  1.00  0.00    -0.294 OA
BRANCH   3   5
ATOM      5  C   UNL     1     143.213 140.021 163.877  1.00  0.00     0.018 A 
ATOM      6  C   UNL     1     144.229 140.938 163.671  1.00  0.00     0.015 A 
ATOM      7  C   UNL     1     143.552 138.712 164.105  1.00  0.00     0.015 A 
ATOM      8  C   UNL     1     145.542 140.533 163.695  1.00  0.00     0.040 A 
ATOM      9  C   UNL     1     144.858 138.301 164.131  1.00  0.00     0.040 A 
ATOM     10  C   UNL     1     145.853 139.217 163.925  1.00  0.00     0.123 A 
ATOM     11  F   UNL     1     147.148 138.768 163.956  1.00  0.00    -0.207 F 
ENDBRANCH   3   5
ENDBRANCH   2   3
ENDBRANCH   1   2
BRANCH   1  12
ATOM     12  C   UNL     1     140.283 140.532 166.465  1.00  0.00     0.262 C 
BRANCH  12  13
ATOM     13  N   UNL     1     139.720 141.031 167.713  1.00  0.00    -0.335 N 
ATOM     14  C   UNL     1     140.499 140.656 168.853  1.00  0.00     0.265 C 
ATOM     15  C   UNL     1     139.563 142.448 167.649  1.00  0.00     0.265 C 
ATOM     16  C   UNL     1     141.903 141.188 168.763  1.00  0.00     0.102 C 
ATOM     17  C   UNL     1     140.520 143.262 168.412  1.00  0.00     0.102 C 
ATOM     18  C   UNL     1     141.859 142.686 168.694  1.00  0.00     0.100 C 
ATOM     19  H   UNL     1     138.789 140.526 167.806  1.00  0.00     0.348 HD
BRANCH  18  20
ATOM     20  O   UNL     1     142.245 143.146 169.976  1.00  0.00    -0.385 OA
ATOM     21  H   UNL     1     143.000 143.771 169.837  1.00  0.00     0.211 HD
ENDBRANCH  18  20
BRANCH  18  22
ATOM     22  C   UNL     1     142.927 143.223 167.777  1.00  0.00    -0.016 A 
ATOM     23  C   UNL     1     142.976 144.552 167.411  1.00  0.00     0.008 A 
ATOM     24  C   UNL     1     143.917 142.426 167.246  1.00  0.00     0.008 A 
ATOM     25  C   UNL     1     143.934 145.082 166.576  1.00  0.00     0.021 A 
ATOM     26  C   UNL     1     144.888 142.935 166.406  1.00  0.00     0.021 A 
ATOM     27  C   UNL     1     144.895 144.263 166.073  1.00  0.00     0.041 A 
ATOM     28  Cl  UNL     1     146.121 144.916 165.012  1.00  0.00    -0.084 Cl
ENDBRANCH  18  22
ENDBRANCH  12  13
ENDBRANCH   1  12
TORSDOF 7
ENDMDL
MODEL 6
REMARK VINA RESULT:      -8.3      1.139      1.682
REMARK SMILES O=C(CCC[NH+]1CCC(O)(c2ccc(Cl)cc2)CC1)c1ccc(F)cc1
REMARK SMILES IDX 4 1 3 2 2 3 1 4 20 5 21 6 26 7 22 8 25 9 23 10 24 11 5 12
REMARK SMILES IDX 6 13 7 14 19 15 8 16 18 17 9 18 10 20 11 22 12 23 17 24
REMARK SMILES IDX 13 25 16 26 14 27 15 28
REMARK H PARENT 6 19 10 21
ROOT
ATOM      1  C   UNL     1     140.384 140.221 166.370  1.00  0.00     0.070 C 
ENDROOT
BRANCH   1   2
ATOM      2  C   UNL     1     139.950 140.935 165.109  1.00  0.00     0.087 C 
BRANCH   2   3
ATOM      3  C   UNL     1     140.660 140.509 163.901  1.00  0.00     0.163 C 
ATOM      4  O   UNL     1     140.041 140.204 162.849  1.00  0.00    -0.294 OA
BRANCH   3   5
ATOM      5  C   UNL     1     142.134 140.414 163.841  1.00  0.00     0.018 A 
ATOM      6  C   UNL     1     142.901 141.537 163.591  1.00  0.00     0.015 A 
ATOM      7  C   UNL     1     142.772 139.215 164.031  1.00  0.00     0.015 A 
ATOM      8  C   UNL     1     144.271 141.441 163.536  1.00  0.00     0.040 A 
ATOM      9  C   UNL     1     144.136 139.111 163.978  1.00  0.00     0.040 A 
ATOM     10  C   UNL     1     144.884 140.229 163.730  1.00  0.00     0.123 A 
ATOM     11  F   UNL     1     146.247 140.086 163.682  1.00  0.00    -0.207 F 
ENDBRANCH   3   5
ENDBRANCH   2   3
ENDBRANCH   1   2
BRANCH   1  12
ATOM     12  C   UNL     1     141.163 141.177 167.208  1.00  0.00     0.262 C 
BRANCH  12  13
ATOM     13  N   UNL     1     140.333 142.225 167.787  1.00  0.00    -0.335 N 
ATOM     14  C   UNL     1     140.782 142.621 169.087  1.00  0.00     0.265 C 
ATOM     15  C   UNL     1     140.275 143.347 166.908  1.00  0.00     0.265 C 
ATOM     16  C   UNL     1     142.190 143.147 169.050  1.00  0.00     0.102 C 
ATOM     17  C   UNL     1     141.053 144.535 167.286  1.00  0.00     0.102 C 
ATOM     18  C   UNL     1     142.246 144.344 168.148  1.00  0.00     0.100 C 
ATOM     19  H   UNL     1     139.383 141.768 167.924  1.00  0.00     0.348 HD
BRANCH  18  20
ATOM     20  O   UNL     1     142.323 145.471 169.001  1.00  0.00    -0.385 OA
ATOM     21  H   UNL     1     141.641 146.114 168.684  1.00  0.00     0.211 HD
ENDBRANCH  18  20
BRANCH  18  22
ATOM     22  C   UNL     1     143.536 144.384 167.371  1.00  0.00    -0.016 A 
ATOM     23  C   UNL     1     144.153 143.238 166.916  1.00  0.00     0.008 A 
ATOM     24  C   UNL     1     144.181 145.563 167.068  1.00  0.00     0.008 A 
ATOM     25  C   UNL     1     145.331 143.231 166.204  1.00  0.00     0.021 A 
ATOM     26  C   UNL     1     145.364 145.582 166.355  1.00  0.00     0.021 A 
ATOM     27  C   UNL     1     145.937 144.416 165.924  1.00  0.00     0.041 A 
ATOM     28  Cl  UNL     1     147.432 144.431 165.020  1.00  0.00    -0.084 Cl
ENDBRANCH  18  22
ENDBRANCH  12  13
ENDBRANCH   1  12
TORSDOF 7
ENDMDL
MODEL 7
REMARK VINA RESULT:      -8.2      1.068      1.681
REMARK SMILES O=C(CCC[NH+]1CCC(O)(c2ccc(Cl)cc2)CC1)c1ccc(F)cc1
REMARK SMILES IDX 4 1 3 2 2 3 1 4 20 5 21 6 26 7 22 8 25 9 23 10 24 11 5 12
REMARK SMILES IDX 6 13 7 14 19 15 8 16 18 17 9 18 10 20 11 22 12 23 17 24
REMARK SMILES IDX 13 25 16 26 14 27 15 28
REMARK H PARENT 6 19 10 21
ROOT
ATOM      1  C   UNL     1     140.345 141.308 165.071  1.00  0.00     0.070 C 
ENDROOT
BRANCH   1   2
ATOM      2  C   UNL     1     141.660 141.380 164.328  1.00  0.00     0.087 C 
BRANCH   2   3
ATOM      3  C   UNL     1     142.130 140.094 163.808  1.00  0.00     0.163 C 
ATOM      4  O   UNL     1     141.331 139.243 163.339  1.00  0.00    -0.294 OA
BRANCH   3   5
ATOM      5  C   UNL     1     143.559 139.717 163.801  1.00  0.00     0.018 A 
ATOM      6  C   UNL     1     143.947 138.428 164.121  1.00  0.00     0.015 A 
ATOM      7  C   UNL     1     144.530 140.631 163.479  1.00  0.00     0.015 A 
ATOM      8  C   UNL     1     145.278 138.084 164.113  1.00  0.00     0.040 A 
ATOM      9  C   UNL     1     145.857 140.296 163.469  1.00  0.00     0.040 A 
ATOM     10  C   UNL     1     146.229 139.018 163.787  1.00  0.00     0.123 A 
ATOM     11  F   UNL     1     147.567 138.721 163.768  1.00  0.00    -0.207 F 
ENDBRANCH   3   5
ENDBRANCH   2   3
ENDBRANCH   1   2
BRANCH   1  12
ATOM     12  C   UNL     1     140.559 140.545 166.333  1.00  0.00     0.262 C 
BRANCH  12  13
ATOM     13  N   UNL     1     139.892 141.150 167.478  1.00  0.00    -0.335 N 
ATOM     14  C   UNL     1     140.575 140.892 168.709  1.00  0.00     0.265 C 
ATOM     15  C   UNL     1     139.736 142.553 167.270  1.00  0.00     0.265 C 
ATOM     16  C   UNL     1     141.979 141.430 168.686  1.00  0.00     0.102 C 
ATOM     17  C   UNL     1     140.623 143.445 168.030  1.00  0.00     0.102 C 
ATOM     18  C   UNL     1     141.936 142.914 168.474  1.00  0.00     0.100 C 
ATOM     19  H   UNL     1     138.958 140.645 167.542  1.00  0.00     0.348 HD
BRANCH  18  20
ATOM     20  O   UNL     1     142.211 143.495 169.735  1.00  0.00    -0.385 OA
ATOM     21  H   UNL     1     141.540 143.132 170.366  1.00  0.00     0.211 HD
ENDBRANCH  18  20
BRANCH  18  22
ATOM     22  C   UNL     1     143.074 143.376 167.602  1.00  0.00    -0.016 A 
ATOM     23  C   UNL     1     143.245 144.702 167.264  1.00  0.00     0.008 A 
ATOM     24  C   UNL     1     144.012 142.508 167.088  1.00  0.00     0.008 A 
ATOM     25  C   UNL     1     144.270 145.165 166.471  1.00  0.00     0.021 A 
ATOM     26  C   UNL     1     145.049 142.950 166.289  1.00  0.00     0.021 A 
ATOM     27  C   UNL     1     145.177 144.277 165.982  1.00  0.00     0.041 A 
ATOM     28  Cl  UNL     1     146.487 144.844 164.975  1.00  0.00    -0.084 Cl
ENDBRANCH  18  22
ENDBRANCH  12  13
ENDBRANCH   1  12
TORSDOF 7
ENDMDL
MODEL 8
REMARK VINA RESULT:      -8.2      0.773      1.024
REMARK SMILES O=C(CCC[NH+]1CCC(O)(c2ccc(Cl)cc2)CC1)c1ccc(F)cc1
REMARK SMILES IDX 4 1 3 2 2 3 1 4 20 5 21 6 26 7 22 8 25 9 23 10 24 11 5 12
REMARK SMILES IDX 6 13 7 14 19 15 8 16 18 17 9 18 10 20 11 22 12 23 17 24
REMARK SMILES IDX 13 25 16 26 14 27 15 28
REMARK H PARENT 6 19 10 21
ROOT
ATOM      1  C   UNL     1     139.945 141.447 165.494  1.00  0.00     0.070 C 
ENDROOT
BRANCH   1   2
ATOM      2  C   UNL     1     141.266 141.721 164.809  1.00  0.00     0.087 C 
BRANCH   2   3
ATOM      3  C   UNL     1     141.722 140.646 163.926  1.00  0.00     0.163 C 
ATOM      4  O   UNL     1     140.941 140.088 163.113  1.00  0.00    -0.294 OA
BRANCH   3   5
ATOM      5  C   UNL     1     143.116 140.154 163.932  1.00  0.00     0.018 A 
ATOM      6  C   UNL     1     143.385 138.810 164.117  1.00  0.00     0.015 A 
ATOM      7  C   UNL     1     144.170 141.013 163.755  1.00  0.00     0.015 A 
ATOM      8  C   UNL     1     144.683 138.358 164.122  1.00  0.00     0.040 A 
ATOM      9  C   UNL     1     145.466 140.571 163.759  1.00  0.00     0.040 A 
ATOM     10  C   UNL     1     145.719 139.239 163.942  1.00  0.00     0.123 A 
ATOM     11  F   UNL     1     147.029 138.835 163.942  1.00  0.00    -0.207 F 
ENDBRANCH   3   5
ENDBRANCH   2   3
ENDBRANCH   1   2
BRANCH   1  12
ATOM     12  C   UNL     1     140.183 140.483 166.606  1.00  0.00     0.262 C 
BRANCH  12  13
ATOM     13  N   UNL     1     139.649 140.950 167.879  1.00  0.00    -0.335 N 
ATOM     14  C   UNL     1     140.472 140.574 168.988  1.00  0.00     0.265 C 
ATOM     15  C   UNL     1     139.462 142.364 167.844  1.00  0.00     0.265 C 
ATOM     16  C   UNL     1     141.861 141.138 168.862  1.00  0.00     0.102 C 
ATOM     17  C   UNL     1     140.426 143.186 168.589  1.00  0.00     0.102 C 
ATOM     18  C   UNL     1     141.784 142.635 168.818  1.00  0.00     0.100 C 
ATOM     19  H   UNL     1     138.733 140.424 167.994  1.00  0.00     0.348 HD
BRANCH  18  20
ATOM     20  O   UNL     1     142.202 143.082 170.096  1.00  0.00    -0.385 OA
ATOM     21  H   UNL     1     142.829 143.832 169.941  1.00  0.00     0.211 HD
ENDBRANCH  18  20
BRANCH  18  22
ATOM     22  C   UNL     1     142.810 143.209 167.877  1.00  0.00    -0.016 A 
ATOM     23  C   UNL     1     143.827 142.442 167.346  1.00  0.00     0.008 A 
ATOM     24  C   UNL     1     142.800 144.530 167.487  1.00  0.00     0.008 A 
ATOM     25  C   UNL     1     144.783 142.928 166.484  1.00  0.00     0.021 A 
ATOM     26  C   UNL     1     143.749 145.040 166.624  1.00  0.00     0.021 A 
ATOM     27  C   UNL     1     144.740 144.238 166.123  1.00  0.00     0.041 A 
ATOM     28  Cl  UNL     1     145.943 144.875 165.028  1.00  0.00    -0.084 Cl
ENDBRANCH  18  22
ENDBRANCH  12  13
ENDBRANCH   1  12
TORSDOF 7
ENDMDL
MODEL 9
REMARK VINA RESULT:      -8.2      0.930      1.086
REMARK SMILES O=C(CCC[NH+]1CCC(O)(c2ccc(Cl)cc2)CC1)c1ccc(F)cc1
REMARK SMILES IDX 4 1 3 2 2 3 1 4 20 5 21 6 26 7 22 8 25 9 23 10 24 11 5 12
REMARK SMILES IDX 6 13 7 14 19 15 8 16 18 17 9 18 10 20 11 22 12 23 17 24
REMARK SMILES IDX 13 25 16 26 14 27 15 28
REMARK H PARENT 6 19 10 21
ROOT
ATOM      1  C   UNL     1     139.132 141.522 164.790  1.00  0.00     0.070 C 
ENDROOT
BRANCH   1   2
ATOM      2  C   UNL     1     139.630 141.464 163.364  1.00  0.00     0.087 C 
BRANCH   2   3
ATOM      3  C   UNL     1     140.476 140.305 163.067  1.00  0.00     0.163 C 
ATOM      4  O   UNL     1     140.005 139.266 162.537  1.00  0.00    -0.294 OA
BRANCH   3   5
ATOM      5  C   UNL     1     141.923 140.284 163.367  1.00  0.00     0.018 A 
ATOM      6  C   UNL     1     142.535 139.119 163.794  1.00  0.00     0.015 A 
ATOM      7  C   UNL     1     142.690 141.413 163.231  1.00  0.00     0.015 A 
ATOM      8  C   UNL     1     143.881 139.106 164.072  1.00  0.00     0.040 A 
ATOM      9  C   UNL     1     144.031 141.408 163.505  1.00  0.00     0.040 A 
ATOM     10  C   UNL     1     144.625 140.249 163.926  1.00  0.00     0.123 A 
ATOM     11  F   UNL     1     145.969 140.284 164.194  1.00  0.00    -0.207 F 
ENDBRANCH   3   5
ENDBRANCH   2   3
ENDBRANCH   1   2
BRANCH   1  12
ATOM     12  C   UNL     1     140.148 142.236 165.615  1.00  0.00     0.262 C 
BRANCH  12  13
ATOM     13  N   UNL     1     139.956 142.033 167.045  1.00  0.00    -0.335 N 
ATOM     14  C   UNL     1     140.726 140.938 167.551  1.00  0.00     0.265 C 
ATOM     15  C   UNL     1     140.256 143.234 167.756  1.00  0.00     0.265 C 
ATOM     16  C   UNL     1     142.199 141.150 167.332  1.00  0.00     0.102 C 
ATOM     17  C   UNL     1     141.521 143.271 168.503  1.00  0.00     0.102 C 
ATOM     18  C   UNL     1     142.629 142.397 168.045  1.00  0.00     0.100 C 
ATOM     19  H   UNL     1     138.935 141.751 167.141  1.00  0.00     0.348 HD
BRANCH  18  20
ATOM     20  O   UNL     1     143.319 141.964 169.204  1.00  0.00    -0.385 OA
ATOM     21  H   UNL     1     144.170 141.563 168.893  1.00  0.00     0.211 HD
ENDBRANCH  18  20
BRANCH  18  22
ATOM     22  C   UNL     1     143.672 143.146 167.257  1.00  0.00    -0.016 A 
ATOM     23  C   UNL     1     144.815 142.532 166.788  1.00  0.00     0.008 A 
ATOM     24  C   UNL     1     143.553 144.485 166.957  1.00  0.00     0.008 A 
ATOM     25  C   UNL     1     145.792 143.180 166.066  1.00  0.00     0.021 A 
ATOM     26  C   UNL     1     144.520 145.156 166.235  1.00  0.00     0.021 A 
ATOM     27  C   UNL     1     145.637 144.503 165.790  1.00  0.00     0.041 A 
ATOM     28  Cl  UNL     1     146.864 145.344 164.873  1.00  0.00    -0.084 Cl
ENDBRANCH  18  22
ENDBRANCH  12  13
ENDBRANCH   1  12
TORSDOF 7
ENDMDL
