MODEL 1
REMARK VINA RESULT:      -4.6      0.000      0.000
REMARK SMILES O=C1c2c([O-])ccc(O)c2C(=O)c2c(NCC[NH2+]CCO)ccc(NCCNCCO)c21
REMARK SMILES IDX 1 1 2 2 3 3 4 4 5 5 6 6 7 7 8 8 10 9 11 10 12 11 13 12 14 13
REMARK SMILES IDX 22 14 23 15 24 16 32 17 25 18 26 20 27 21 28 22 29 24 30 25
REMARK SMILES IDX 31 26 9 28 15 30 16 32 17 33 18 34 19 37 20 38 21 39
REMARK H PARENT 25 19 28 23 31 27 9 29 15 31 18 35 18 36 21 40
ROOT
ATOM      1  O   UNL     1     -53.885  12.967 128.880  1.00  0.00    -0.288 OA
ATOM      2  C   UNL     1     -52.662  12.705 128.779  1.00  0.00     0.196 C 
ATOM      3  C   UNL     1     -52.178  12.113 127.510  1.00  0.00     0.030 A 
ATOM      4  C   UNL     1     -53.107  11.887 126.512  1.00  0.00    -0.097 A 
ATOM      5  O   UNL     1     -54.441  12.218 126.728  1.00  0.00    -0.872 OA
ATOM      6  C   UNL     1     -52.681  11.339 125.322  1.00  0.00    -0.004 A 
ATOM      7  C   UNL     1     -51.364  11.024 125.136  1.00  0.00     0.046 A 
ATOM      8  C   UNL     1     -50.422  11.240 126.118  1.00  0.00     0.127 A 
ATOM      9  C   UNL     1     -50.866  11.796 127.317  1.00  0.00     0.075 A 
ATOM     10  C   UNL     1     -49.899  12.045 128.393  1.00  0.00     0.200 C 
ATOM     11  O   UNL     1     -48.716  11.724 128.130  1.00  0.00    -0.288 OA
ATOM     12  C   UNL     1     -50.350  12.625 129.650  1.00  0.00     0.059 A 
ATOM     13  C   UNL     1     -49.407  12.832 130.619  1.00  0.00     0.046 A 
ATOM     14  C   UNL     1     -49.883  13.393 131.822  1.00  0.00     0.028 A 
ATOM     15  C   UNL     1     -51.193  13.707 132.003  1.00  0.00     0.028 A 
ATOM     16  C   UNL     1     -52.162  13.493 131.009  1.00  0.00     0.046 A 
ATOM     17  C   UNL     1     -51.718  12.949 129.832  1.00  0.00     0.059 A 
ENDROOT
BRANCH  16  18
ATOM     18  N   UNL     1     -53.501  13.893 131.294  1.00  0.00    -0.383 N 
ATOM     19  H   UNL     1     -54.288  13.282 131.125  1.00  0.00     0.160 HD
BRANCH  18  20
ATOM     20  C   UNL     1     -53.812  15.201 131.840  1.00  0.00     0.128 C 
BRANCH  20  21
ATOM     21  C   UNL     1     -54.644  16.062 130.958  1.00  0.00     0.102 C 
BRANCH  21  22
ATOM     22  N   UNL     1     -54.617  15.599 129.565  1.00  0.00    -0.313 NA
ATOM     23  H   UNL     1     -54.127  14.671 129.575  1.00  0.00     0.122 HD
BRANCH  22  24
ATOM     24  C   UNL     1     -53.744  16.511 128.839  1.00  0.00     0.109 C 
BRANCH  24  25
ATOM     25  C   UNL     1     -53.623  16.113 127.388  1.00  0.00     0.171 C 
BRANCH  25  26
ATOM     26  O   UNL     1     -54.587  15.173 127.031  1.00  0.00    -0.395 OA
ATOM     27  H   UNL     1     -55.401  15.675 126.749  1.00  0.00     0.210 HD
ENDBRANCH  25  26
ENDBRANCH  24  25
ENDBRANCH  22  24
ENDBRANCH  21  22
ENDBRANCH  20  21
ENDBRANCH  18  20
ENDBRANCH  16  18
BRANCH   8  28
ATOM     28  O   UNL     1     -49.073  10.916 125.924  1.00  0.00    -0.507 OA
ATOM     29  H   UNL     1     -48.535  10.419 126.635  1.00  0.00     0.293 HD
ENDBRANCH   8  28
BRANCH  13  30
ATOM     30  N   UNL     1     -48.031  12.541 130.518  1.00  0.00    -0.379 N 
ATOM     31  H   UNL     1     -47.633  11.633 130.332  1.00  0.00     0.160 HD
BRANCH  30  32
ATOM     32  C   UNL     1     -47.029  13.611 130.694  1.00  0.00     0.174 C 
BRANCH  32  33
ATOM     33  C   UNL     1     -45.982  13.590 129.641  1.00  0.00     0.281 C 
BRANCH  33  34
ATOM     34  N   UNL     1     -46.477  13.511 128.302  1.00  0.00    -0.343 N 
ATOM     35  H   UNL     1     -45.908  12.893 127.680  1.00  0.00     0.346 HD
ATOM     36  H   UNL     1     -47.432  13.075 128.340  1.00  0.00     0.346 HD
BRANCH  34  37
ATOM     37  C   UNL     1     -46.636  14.794 127.661  1.00  0.00     0.289 C 
BRANCH  37  38
ATOM     38  C   UNL     1     -47.850  14.839 126.762  1.00  0.00     0.217 C 
BRANCH  38  39
ATOM     39  O   UNL     1     -47.875  13.689 125.991  1.00  0.00    -0.391 OA
ATOM     40  H   UNL     1     -46.964  13.278 126.053  1.00  0.00     0.210 HD
ENDBRANCH  38  39
ENDBRANCH  37  38
ENDBRANCH  34  37
ENDBRANCH  33  34
ENDBRANCH  32  33
ENDBRANCH  30  32
ENDBRANCH  13  30
TORSDOF 15
ENDMDL
MODEL 2
REMARK VINA RESULT:      -4.5      3.144      5.416
REMARK SMILES O=C1c2c([O-])ccc(O)c2C(=O)c2c(NCC[NH2+]CCO)ccc(NCCNCCO)c21
REMARK SMILES IDX 1 1 2 2 3 3 4 4 5 5 6 6 7 7 8 8 10 9 11 10 12 11 13 12 14 13
REMARK SMILES IDX 22 14 23 15 24 16 32 17 25 18 26 20 27 21 28 22 29 24 30 25
REMARK SMILES IDX 31 26 9 28 15 30 16 32 17 33 18 34 19 37 20 38 21 39
REMARK H PARENT 25 19 28 23 31 27 9 29 15 31 18 35 18 36 21 40
ROOT
ATOM      1  O   UNL     1     -53.978  12.980 128.466  1.00  0.00    -0.288 OA
ATOM      2  C   UNL     1     -52.763  12.791 128.719  1.00  0.00     0.196 C 
ATOM      3  C   UNL     1     -52.250  13.222 130.040  1.00  0.00     0.030 A 
ATOM      4  C   UNL     1     -53.144  13.806 130.916  1.00  0.00    -0.097 A 
ATOM      5  O   UNL     1     -54.473  13.967 130.536  1.00  0.00    -0.872 OA
ATOM      6  C   UNL     1     -52.691  14.214 132.152  1.00  0.00    -0.004 A 
ATOM      7  C   UNL     1     -51.380  14.044 132.500  1.00  0.00     0.046 A 
ATOM      8  C   UNL     1     -50.472  13.464 131.642  1.00  0.00     0.127 A 
ATOM      9  C   UNL     1     -50.944  13.055 130.395  1.00  0.00     0.075 A 
ATOM     10  C   UNL     1     -50.014  12.432 129.445  1.00  0.00     0.200 C 
ATOM     11  O   UNL     1     -48.833  12.318 129.854  1.00  0.00    -0.288 OA
ATOM     12  C   UNL     1     -50.494  12.000 128.140  1.00  0.00     0.059 A 
ATOM     13  C   UNL     1     -49.583  11.429 127.296  1.00  0.00     0.046 A 
ATOM     14  C   UNL     1     -50.085  11.026 126.041  1.00  0.00     0.028 A 
ATOM     15  C   UNL     1     -51.389  11.196 125.698  1.00  0.00     0.028 A 
ATOM     16  C   UNL     1     -52.325  11.783 126.565  1.00  0.00     0.046 A 
ATOM     17  C   UNL     1     -51.855  12.181 127.789  1.00  0.00     0.059 A 
ENDROOT
BRANCH  16  18
ATOM     18  N   UNL     1     -53.675  11.879 126.115  1.00  0.00    -0.383 N 
ATOM     19  H   UNL     1     -54.135  12.770 125.990  1.00  0.00     0.160 HD
BRANCH  18  20
ATOM     20  C   UNL     1     -54.469  10.702 125.815  1.00  0.00     0.128 C 
BRANCH  20  21
ATOM     21  C   UNL     1     -55.751  10.977 125.113  1.00  0.00     0.102 C 
BRANCH  21  22
ATOM     22  N   UNL     1     -55.589  10.943 123.654  1.00  0.00    -0.313 NA
ATOM     23  H   UNL     1     -55.057  11.811 123.399  1.00  0.00     0.122 HD
BRANCH  22  24
ATOM     24  C   UNL     1     -56.918  11.098 123.083  1.00  0.00     0.109 C 
BRANCH  24  25
ATOM     25  C   UNL     1     -57.085  10.249 121.845  1.00  0.00     0.171 C 
BRANCH  25  26
ATOM     26  O   UNL     1     -58.416   9.890 121.645  1.00  0.00    -0.395 OA
ATOM     27  H   UNL     1     -58.759   9.525 122.507  1.00  0.00     0.210 HD
ENDBRANCH  25  26
ENDBRANCH  24  25
ENDBRANCH  22  24
ENDBRANCH  21  22
ENDBRANCH  20  21
ENDBRANCH  18  20
ENDBRANCH  16  18
BRANCH   8  28
ATOM     28  O   UNL     1     -49.130  13.291 132.002  1.00  0.00    -0.507 OA
ATOM     29  H   UNL     1     -48.863  12.736 132.817  1.00  0.00     0.293 HD
ENDBRANCH   8  28
BRANCH  13  30
ATOM     30  N   UNL     1     -48.216  11.212 127.566  1.00  0.00    -0.379 N 
ATOM     31  H   UNL     1     -47.798  11.156 128.483  1.00  0.00     0.160 HD
BRANCH  30  32
ATOM     32  C   UNL     1     -47.255  11.044 126.457  1.00  0.00     0.174 C 
BRANCH  32  33
ATOM     33  C   UNL     1     -46.572  12.313 126.098  1.00  0.00     0.281 C 
BRANCH  33  34
ATOM     34  N   UNL     1     -46.442  12.550 124.694  1.00  0.00    -0.343 N 
ATOM     35  H   UNL     1     -45.728  13.275 124.455  1.00  0.00     0.346 HD
ATOM     36  H   UNL     1     -46.103  11.660 124.251  1.00  0.00     0.346 HD
BRANCH  34  37
ATOM     37  C   UNL     1     -47.683  12.889 124.041  1.00  0.00     0.289 C 
BRANCH  37  38
ATOM     38  C   UNL     1     -47.827  12.210 122.697  1.00  0.00     0.217 C 
BRANCH  38  39
ATOM     39  O   UNL     1     -48.772  11.205 122.806  1.00  0.00    -0.391 OA
ATOM     40  H   UNL     1     -49.630  11.572 122.446  1.00  0.00     0.210 HD
ENDBRANCH  38  39
ENDBRANCH  37  38
ENDBRANCH  34  37
ENDBRANCH  33  34
ENDBRANCH  32  33
ENDBRANCH  30  32
ENDBRANCH  13  30
TORSDOF 15
ENDMDL
MODEL 3
REMARK VINA RESULT:      -4.5      2.761      6.334
REMARK SMILES O=C1c2c([O-])ccc(O)c2C(=O)c2c(NCC[NH2+]CCO)ccc(NCCNCCO)c21
REMARK SMILES IDX 1 1 2 2 3 3 4 4 5 5 6 6 7 7 8 8 10 9 11 10 12 11 13 12 14 13
REMARK SMILES IDX 22 14 23 15 24 16 32 17 25 18 26 20 27 21 28 22 29 24 30 25
REMARK SMILES IDX 31 26 9 28 15 30 16 32 17 33 18 34 19 37 20 38 21 39
REMARK H PARENT 25 19 28 23 31 27 9 29 15 31 18 35 18 36 21 40
ROOT
ATOM      1  O   UNL     1     -49.087  10.859 126.142  1.00  0.00    -0.288 OA
ATOM      2  C   UNL     1     -49.701  11.359 127.116  1.00  0.00     0.196 C 
ATOM      3  C   UNL     1     -51.157  11.598 126.974  1.00  0.00     0.030 A 
ATOM      4  C   UNL     1     -51.750  11.254 125.774  1.00  0.00    -0.097 A 
ATOM      5  O   UNL     1     -50.975  10.703 124.758  1.00  0.00    -0.872 OA
ATOM      6  C   UNL     1     -53.102  11.466 125.619  1.00  0.00    -0.004 A 
ATOM      7  C   UNL     1     -53.840  12.008 126.634  1.00  0.00     0.046 A 
ATOM      8  C   UNL     1     -53.269  12.359 127.837  1.00  0.00     0.127 A 
ATOM      9  C   UNL     1     -51.899  12.139 127.982  1.00  0.00     0.075 A 
ATOM     10  C   UNL     1     -51.245  12.496 129.247  1.00  0.00     0.200 C 
ATOM     11  O   UNL     1     -52.003  12.986 130.118  1.00  0.00    -0.288 OA
ATOM     12  C   UNL     1     -49.816  12.271 129.410  1.00  0.00     0.059 A 
ATOM     13  C   UNL     1     -49.259  12.625 130.608  1.00  0.00     0.046 A 
ATOM     14  C   UNL     1     -47.873  12.394 130.727  1.00  0.00     0.028 A 
ATOM     15  C   UNL     1     -47.143  11.854 129.716  1.00  0.00     0.028 A 
ATOM     16  C   UNL     1     -47.714  11.490 128.485  1.00  0.00     0.046 A 
ATOM     17  C   UNL     1     -49.060  11.708 128.351  1.00  0.00     0.059 A 
ENDROOT
BRANCH  16  18
ATOM     18  N   UNL     1     -46.860  10.899 127.509  1.00  0.00    -0.383 N 
ATOM     19  H   UNL     1     -47.101  10.037 127.039  1.00  0.00     0.160 HD
BRANCH  18  20
ATOM     20  C   UNL     1     -45.591  11.497 127.135  1.00  0.00     0.128 C 
BRANCH  20  21
ATOM     21  C   UNL     1     -45.621  12.286 125.876  1.00  0.00     0.102 C 
BRANCH  21  22
ATOM     22  N   UNL     1     -46.486  11.664 124.865  1.00  0.00    -0.313 NA
ATOM     23  H   UNL     1     -45.846  11.167 124.199  1.00  0.00     0.122 HD
BRANCH  22  24
ATOM     24  C   UNL     1     -47.095  12.749 124.112  1.00  0.00     0.109 C 
BRANCH  24  25
ATOM     25  C   UNL     1     -47.791  12.233 122.875  1.00  0.00     0.171 C 
BRANCH  25  26
ATOM     26  O   UNL     1     -48.888  11.438 123.198  1.00  0.00    -0.395 OA
ATOM     27  H   UNL     1     -48.828  10.609 122.646  1.00  0.00     0.210 HD
ENDBRANCH  25  26
ENDBRANCH  24  25
ENDBRANCH  22  24
ENDBRANCH  21  22
ENDBRANCH  20  21
ENDBRANCH  18  20
ENDBRANCH  16  18
BRANCH   8  28
ATOM     28  O   UNL     1     -54.028  12.914 128.875  1.00  0.00    -0.507 OA
ATOM     29  H   UNL     1     -55.031  13.079 128.775  1.00  0.00     0.293 HD
ENDBRANCH   8  28
BRANCH  13  30
ATOM     30  N   UNL     1     -49.937  13.188 131.708  1.00  0.00    -0.379 N 
ATOM     31  H   UNL     1     -50.372  14.098 131.731  1.00  0.00     0.160 HD
BRANCH  30  32
ATOM     32  C   UNL     1     -50.057  12.435 132.974  1.00  0.00     0.174 C 
BRANCH  32  33
ATOM     33  C   UNL     1     -50.517  11.039 132.764  1.00  0.00     0.281 C 
BRANCH  33  34
ATOM     34  N   UNL     1     -51.761  10.715 133.391  1.00  0.00    -0.343 N 
ATOM     35  H   UNL     1     -52.598  11.012 132.840  1.00  0.00     0.346 HD
ATOM     36  H   UNL     1     -51.821   9.669 133.458  1.00  0.00     0.346 HD
BRANCH  34  37
ATOM     37  C   UNL     1     -51.887  11.222 134.736  1.00  0.00     0.289 C 
BRANCH  37  38
ATOM     38  C   UNL     1     -51.992  10.113 135.758  1.00  0.00     0.217 C 
BRANCH  38  39
ATOM     39  O   UNL     1     -51.902   8.896 135.105  1.00  0.00    -0.391 OA
ATOM     40  H   UNL     1     -52.719   8.373 135.350  1.00  0.00     0.210 HD
ENDBRANCH  38  39
ENDBRANCH  37  38
ENDBRANCH  34  37
ENDBRANCH  33  34
ENDBRANCH  32  33
ENDBRANCH  30  32
ENDBRANCH  13  30
TORSDOF 15
ENDMDL
MODEL 4
REMARK VINA RESULT:      -4.5      3.035      5.386
REMARK SMILES O=C1c2c([O-])ccc(O)c2C(=O)c2c(NCC[NH2+]CCO)ccc(NCCNCCO)c21
REMARK SMILES IDX 1 1 2 2 3 3 4 4 5 5 6 6 7 7 8 8 10 9 11 10 12 11 13 12 14 13
REMARK SMILES IDX 22 14 23 15 24 16 32 17 25 18 26 20 27 21 28 22 29 24 30 25
REMARK SMILES IDX 31 26 9 28 15 30 16 32 17 33 18 34 19 37 20 38 21 39
REMARK H PARENT 25 19 28 23 31 27 9 29 15 31 18 35 18 36 21 40
ROOT
ATOM      1  O   UNL     1     -53.975  12.878 128.204  1.00  0.00    -0.288 OA
ATOM      2  C   UNL     1     -52.759  12.699 128.458  1.00  0.00     0.196 C 
ATOM      3  C   UNL     1     -52.241  13.177 129.761  1.00  0.00     0.030 A 
ATOM      4  C   UNL     1     -53.133  13.790 130.620  1.00  0.00    -0.097 A 
ATOM      5  O   UNL     1     -54.463  13.935 130.240  1.00  0.00    -0.872 OA
ATOM      6  C   UNL     1     -52.675  14.241 131.839  1.00  0.00    -0.004 A 
ATOM      7  C   UNL     1     -51.362  14.084 132.188  1.00  0.00     0.046 A 
ATOM      8  C   UNL     1     -50.457  13.476 131.346  1.00  0.00     0.127 A 
ATOM      9  C   UNL     1     -50.933  13.024 130.116  1.00  0.00     0.075 A 
ATOM     10  C   UNL     1     -50.006  12.369 129.185  1.00  0.00     0.200 C 
ATOM     11  O   UNL     1     -48.824  12.271 129.592  1.00  0.00    -0.288 OA
ATOM     12  C   UNL     1     -50.491  11.892 127.897  1.00  0.00     0.059 A 
ATOM     13  C   UNL     1     -49.583  11.293 127.069  1.00  0.00     0.046 A 
ATOM     14  C   UNL     1     -50.090  10.846 125.831  1.00  0.00     0.028 A 
ATOM     15  C   UNL     1     -51.396  11.002 125.488  1.00  0.00     0.028 A 
ATOM     16  C   UNL     1     -52.329  11.619 126.338  1.00  0.00     0.046 A 
ATOM     17  C   UNL     1     -51.854  12.059 127.546  1.00  0.00     0.059 A 
ENDROOT
BRANCH  16  18
ATOM     18  N   UNL     1     -53.681  11.697 125.891  1.00  0.00    -0.383 N 
ATOM     19  H   UNL     1     -54.425  12.021 126.492  1.00  0.00     0.160 HD
BRANCH  18  20
ATOM     20  C   UNL     1     -54.068  11.310 124.546  1.00  0.00     0.128 C 
BRANCH  20  21
ATOM     21  C   UNL     1     -55.487  10.893 124.402  1.00  0.00     0.102 C 
BRANCH  21  22
ATOM     22  N   UNL     1     -55.817  10.562 123.010  1.00  0.00    -0.313 NA
ATOM     23  H   UNL     1     -55.283  11.240 122.414  1.00  0.00     0.122 HD
BRANCH  22  24
ATOM     24  C   UNL     1     -57.225  10.881 122.827  1.00  0.00     0.109 C 
BRANCH  24  25
ATOM     25  C   UNL     1     -57.789  10.191 121.608  1.00  0.00     0.171 C 
BRANCH  25  26
ATOM     26  O   UNL     1     -56.866   9.315 121.042  1.00  0.00    -0.395 OA
ATOM     27  H   UNL     1     -57.308   8.423 120.971  1.00  0.00     0.210 HD
ENDBRANCH  25  26
ENDBRANCH  24  25
ENDBRANCH  22  24
ENDBRANCH  21  22
ENDBRANCH  20  21
ENDBRANCH  18  20
ENDBRANCH  16  18
BRANCH   8  28
ATOM     28  O   UNL     1     -49.113  13.317 131.707  1.00  0.00    -0.507 OA
ATOM     29  H   UNL     1     -48.826  13.254 132.685  1.00  0.00     0.293 HD
ENDBRANCH   8  28
BRANCH  13  30
ATOM     30  N   UNL     1     -48.215  11.087 127.341  1.00  0.00    -0.379 N 
ATOM     31  H   UNL     1     -47.839  10.601 128.142  1.00  0.00     0.160 HD
BRANCH  30  32
ATOM     32  C   UNL     1     -47.186  11.605 126.416  1.00  0.00     0.174 C 
BRANCH  32  33
ATOM     33  C   UNL     1     -47.319  13.063 126.174  1.00  0.00     0.281 C 
BRANCH  33  34
ATOM     34  N   UNL     1     -47.331  13.870 127.355  1.00  0.00    -0.343 N 
ATOM     35  H   UNL     1     -47.610  13.348 128.216  1.00  0.00     0.346 HD
ATOM     36  H   UNL     1     -46.349  14.198 127.527  1.00  0.00     0.346 HD
BRANCH  34  37
ATOM     37  C   UNL     1     -48.148  15.054 127.245  1.00  0.00     0.289 C 
BRANCH  37  38
ATOM     38  C   UNL     1     -49.254  14.894 126.226  1.00  0.00     0.217 C 
BRANCH  38  39
ATOM     39  O   UNL     1     -50.094  15.991 126.307  1.00  0.00    -0.391 OA
ATOM     40  H   UNL     1     -50.702  15.951 125.513  1.00  0.00     0.210 HD
ENDBRANCH  38  39
ENDBRANCH  37  38
ENDBRANCH  34  37
ENDBRANCH  33  34
ENDBRANCH  32  33
ENDBRANCH  30  32
ENDBRANCH  13  30
TORSDOF 15
ENDMDL
MODEL 5
REMARK VINA RESULT:      -4.5      2.944      4.702
REMARK SMILES O=C1c2c([O-])ccc(O)c2C(=O)c2c(NCC[NH2+]CCO)ccc(NCCNCCO)c21
REMARK SMILES IDX 1 1 2 2 3 3 4 4 5 5 6 6 7 7 8 8 10 9 11 10 12 11 13 12 14 13
REMARK SMILES IDX 22 14 23 15 24 16 32 17 25 18 26 20 27 21 28 22 29 24 30 25
REMARK SMILES IDX 31 26 9 28 15 30 16 32 17 33 18 34 19 37 20 38 21 39
REMARK H PARENT 25 19 28 23 31 27 9 29 15 31 18 35 18 36 21 40
ROOT
ATOM      1  O   UNL     1     -51.861  13.025 129.996  1.00  0.00    -0.288 OA
ATOM      2  C   UNL     1     -51.163  12.503 129.093  1.00  0.00     0.196 C 
ATOM      3  C   UNL     1     -51.827  12.136 127.821  1.00  0.00     0.030 A 
ATOM      4  C   UNL     1     -53.180  12.394 127.705  1.00  0.00    -0.097 A 
ATOM      5  O   UNL     1     -53.860  12.980 128.768  1.00  0.00    -0.872 OA
ATOM      6  C   UNL     1     -53.820  12.063 126.531  1.00  0.00    -0.004 A 
ATOM      7  C   UNL     1     -53.127  11.489 125.502  1.00  0.00     0.046 A 
ATOM      8  C   UNL     1     -51.779  11.223 125.596  1.00  0.00     0.127 A 
ATOM      9  C   UNL     1     -51.142  11.563 126.790  1.00  0.00     0.075 A 
ATOM     10  C   UNL     1     -49.706  11.300 126.937  1.00  0.00     0.200 C 
ATOM     11  O   UNL     1     -49.157  10.772 125.941  1.00  0.00    -0.288 OA
ATOM     12  C   UNL     1     -49.030  11.650 128.178  1.00  0.00     0.059 A 
ATOM     13  C   UNL     1     -47.693  11.380 128.262  1.00  0.00     0.046 A 
ATOM     14  C   UNL     1     -47.074  11.731 129.479  1.00  0.00     0.028 A 
ATOM     15  C   UNL     1     -47.766  12.303 130.500  1.00  0.00     0.028 A 
ATOM     16  C   UNL     1     -49.141  12.581 130.416  1.00  0.00     0.046 A 
ATOM     17  C   UNL     1     -49.758  12.246 129.239  1.00  0.00     0.059 A 
ENDROOT
BRANCH  16  18
ATOM     18  N   UNL     1     -49.757  13.215 131.534  1.00  0.00    -0.383 N 
ATOM     19  H   UNL     1     -50.151  14.144 131.472  1.00  0.00     0.160 HD
BRANCH  18  20
ATOM     20  C   UNL     1     -49.850  12.567 132.829  1.00  0.00     0.128 C 
BRANCH  20  21
ATOM     21  C   UNL     1     -50.461  11.212 132.805  1.00  0.00     0.102 C 
BRANCH  21  22
ATOM     22  N   UNL     1     -50.525  10.621 134.149  1.00  0.00    -0.313 NA
ATOM     23  H   UNL     1     -49.718  11.025 134.684  1.00  0.00     0.122 HD
BRANCH  22  24
ATOM     24  C   UNL     1     -50.241   9.202 133.995  1.00  0.00     0.109 C 
BRANCH  24  25
ATOM     25  C   UNL     1     -51.171   8.363 134.837  1.00  0.00     0.171 C 
BRANCH  25  26
ATOM     26  O   UNL     1     -51.589   7.221 134.158  1.00  0.00    -0.395 OA
ATOM     27  H   UNL     1     -50.790   6.636 134.039  1.00  0.00     0.210 HD
ENDBRANCH  25  26
ENDBRANCH  24  25
ENDBRANCH  22  24
ENDBRANCH  21  22
ENDBRANCH  20  21
ENDBRANCH  18  20
ENDBRANCH  16  18
BRANCH   8  28
ATOM     28  O   UNL     1     -51.072  10.635 124.539  1.00  0.00    -0.507 OA
ATOM     29  H   UNL     1     -50.405   9.878 124.698  1.00  0.00     0.293 HD
ENDBRANCH   8  28
BRANCH  13  30
ATOM     30  N   UNL     1     -46.897  10.792 127.257  1.00  0.00    -0.379 N 
ATOM     31  H   UNL     1     -47.020   9.868 126.871  1.00  0.00     0.160 HD
BRANCH  30  32
ATOM     32  C   UNL     1     -45.764  11.539 126.673  1.00  0.00     0.174 C 
BRANCH  32  33
ATOM     33  C   UNL     1     -45.847  11.638 125.194  1.00  0.00     0.281 C 
BRANCH  33  34
ATOM     34  N   UNL     1     -46.121  12.950 124.694  1.00  0.00    -0.343 N 
ATOM     35  H   UNL     1     -45.915  13.712 125.380  1.00  0.00     0.346 HD
ATOM     36  H   UNL     1     -45.480  13.120 123.880  1.00  0.00     0.346 HD
BRANCH  34  37
ATOM     37  C   UNL     1     -47.466  13.119 124.202  1.00  0.00     0.289 C 
BRANCH  37  38
ATOM     38  C   UNL     1     -47.707  12.358 122.918  1.00  0.00     0.217 C 
BRANCH  38  39
ATOM     39  O   UNL     1     -48.778  11.502 123.103  1.00  0.00    -0.391 OA
ATOM     40  H   UNL     1     -49.506  11.809 122.488  1.00  0.00     0.210 HD
ENDBRANCH  38  39
ENDBRANCH  37  38
ENDBRANCH  34  37
ENDBRANCH  33  34
ENDBRANCH  32  33
ENDBRANCH  30  32
ENDBRANCH  13  30
TORSDOF 15
ENDMDL
MODEL 6
REMARK VINA RESULT:      -4.4      3.054      5.433
REMARK SMILES O=C1c2c([O-])ccc(O)c2C(=O)c2c(NCC[NH2+]CCO)ccc(NCCNCCO)c21
REMARK SMILES IDX 1 1 2 2 3 3 4 4 5 5 6 6 7 7 8 8 10 9 11 10 12 11 13 12 14 13
REMARK SMILES IDX 22 14 23 15 24 16 32 17 25 18 26 20 27 21 28 22 29 24 30 25
REMARK SMILES IDX 31 26 9 28 15 30 16 32 17 33 18 34 19 37 20 38 21 39
REMARK H PARENT 25 19 28 23 31 27 9 29 15 31 18 35 18 36 21 40
ROOT
ATOM      1  O   UNL     1     -54.034  13.004 128.329  1.00  0.00    -0.288 OA
ATOM      2  C   UNL     1     -52.816  12.786 128.542  1.00  0.00     0.196 C 
ATOM      3  C   UNL     1     -52.243  13.229 129.834  1.00  0.00     0.030 A 
ATOM      4  C   UNL     1     -53.087  13.855 130.730  1.00  0.00    -0.097 A 
ATOM      5  O   UNL     1     -54.424  14.046 130.395  1.00  0.00    -0.872 OA
ATOM      6  C   UNL     1     -52.578  14.275 131.939  1.00  0.00    -0.004 A 
ATOM      7  C   UNL     1     -51.260  14.075 132.243  1.00  0.00     0.046 A 
ATOM      8  C   UNL     1     -50.401  13.453 131.364  1.00  0.00     0.127 A 
ATOM      9  C   UNL     1     -50.929  13.032 130.144  1.00  0.00     0.075 A 
ATOM     10  C   UNL     1     -50.052  12.364 129.175  1.00  0.00     0.200 C 
ATOM     11  O   UNL     1     -48.861  12.225 129.543  1.00  0.00    -0.288 OA
ATOM     12  C   UNL     1     -50.592  11.920 127.897  1.00  0.00     0.059 A 
ATOM     13  C   UNL     1     -49.729  11.306 127.032  1.00  0.00     0.046 A 
ATOM     14  C   UNL     1     -50.288  10.893 125.805  1.00  0.00     0.028 A 
ATOM     15  C   UNL     1     -51.599  11.093 125.507  1.00  0.00     0.028 A 
ATOM     16  C   UNL     1     -52.486  11.724 126.395  1.00  0.00     0.046 A 
ATOM     17  C   UNL     1     -51.960  12.132 127.593  1.00  0.00     0.059 A 
ENDROOT
BRANCH  16  18
ATOM     18  N   UNL     1     -53.848  11.849 125.992  1.00  0.00    -0.383 N 
ATOM     19  H   UNL     1     -54.279  12.749 125.835  1.00  0.00     0.160 HD
BRANCH  18  20
ATOM     20  C   UNL     1     -54.698  10.689 125.791  1.00  0.00     0.128 C 
BRANCH  20  21
ATOM     21  C   UNL     1     -55.444  10.680 124.505  1.00  0.00     0.102 C 
BRANCH  21  22
ATOM     22  N   UNL     1     -56.787  11.258 124.651  1.00  0.00    -0.313 NA
ATOM     23  H   UNL     1     -57.422  10.461 124.901  1.00  0.00     0.122 HD
BRANCH  22  24
ATOM     24  C   UNL     1     -57.196  11.705 123.328  1.00  0.00     0.109 C 
BRANCH  24  25
ATOM     25  C   UNL     1     -56.941  10.640 122.288  1.00  0.00     0.171 C 
BRANCH  25  26
ATOM     26  O   UNL     1     -58.103  10.314 121.593  1.00  0.00    -0.395 OA
ATOM     27  H   UNL     1     -58.727  11.087 121.677  1.00  0.00     0.210 HD
ENDBRANCH  25  26
ENDBRANCH  24  25
ENDBRANCH  22  24
ENDBRANCH  21  22
ENDBRANCH  20  21
ENDBRANCH  18  20
ENDBRANCH  16  18
BRANCH   8  28
ATOM     28  O   UNL     1     -49.051  13.249 131.679  1.00  0.00    -0.507 OA
ATOM     29  H   UNL     1     -48.589  12.356 131.497  1.00  0.00     0.293 HD
ENDBRANCH   8  28
BRANCH  13  30
ATOM     30  N   UNL     1     -48.360  11.056 127.257  1.00  0.00    -0.379 N 
ATOM     31  H   UNL     1     -47.979  10.479 127.992  1.00  0.00     0.160 HD
BRANCH  30  32
ATOM     32  C   UNL     1     -47.338  11.663 126.380  1.00  0.00     0.174 C 
BRANCH  32  33
ATOM     33  C   UNL     1     -46.000  11.043 126.549  1.00  0.00     0.281 C 
BRANCH  33  34
ATOM     34  N   UNL     1     -45.472  11.106 127.876  1.00  0.00    -0.343 N 
ATOM     35  H   UNL     1     -44.693  11.794 127.985  1.00  0.00     0.346 HD
ATOM     36  H   UNL     1     -46.239  11.442 128.509  1.00  0.00     0.346 HD
BRANCH  34  37
ATOM     37  C   UNL     1     -45.039   9.831 128.394  1.00  0.00     0.289 C 
BRANCH  37  38
ATOM     38  C   UNL     1     -45.767   9.451 129.664  1.00  0.00     0.217 C 
BRANCH  38  39
ATOM     39  O   UNL     1     -46.815  10.336 129.856  1.00  0.00    -0.391 OA
ATOM     40  H   UNL     1     -46.665  10.776 130.743  1.00  0.00     0.210 HD
ENDBRANCH  38  39
ENDBRANCH  37  38
ENDBRANCH  34  37
ENDBRANCH  33  34
ENDBRANCH  32  33
ENDBRANCH  30  32
ENDBRANCH  13  30
TORSDOF 15
ENDMDL
MODEL 7
REMARK VINA RESULT:      -4.3      2.627      6.077
REMARK SMILES O=C1c2c([O-])ccc(O)c2C(=O)c2c(NCC[NH2+]CCO)ccc(NCCNCCO)c21
REMARK SMILES IDX 1 1 2 2 3 3 4 4 5 5 6 6 7 7 8 8 10 9 11 10 12 11 13 12 14 13
REMARK SMILES IDX 22 14 23 15 24 16 32 17 25 18 26 20 27 21 28 22 29 24 30 25
REMARK SMILES IDX 31 26 9 28 15 30 16 32 17 33 18 34 19 37 20 38 21 39
REMARK H PARENT 25 19 28 23 31 27 9 29 15 31 18 35 18 36 21 40
ROOT
ATOM      1  O   UNL     1     -48.748  10.604 126.198  1.00  0.00    -0.288 OA
ATOM      2  C   UNL     1     -49.396  11.201 127.093  1.00  0.00     0.196 C 
ATOM      3  C   UNL     1     -50.834  11.465 126.854  1.00  0.00     0.030 A 
ATOM      4  C   UNL     1     -51.376  11.035 125.657  1.00  0.00    -0.097 A 
ATOM      5  O   UNL     1     -50.567  10.380 124.734  1.00  0.00    -0.872 OA
ATOM      6  C   UNL     1     -52.711  11.268 125.413  1.00  0.00    -0.004 A 
ATOM      7  C   UNL     1     -53.483  11.913 126.338  1.00  0.00     0.046 A 
ATOM      8  C   UNL     1     -52.964  12.350 127.536  1.00  0.00     0.127 A 
ATOM      9  C   UNL     1     -51.611  12.108 127.772  1.00  0.00     0.075 A 
ATOM     10  C   UNL     1     -51.012  12.555 129.035  1.00  0.00     0.200 C 
ATOM     11  O   UNL     1     -51.798  13.136 129.821  1.00  0.00    -0.288 OA
ATOM     12  C   UNL     1     -49.600  12.307 129.294  1.00  0.00     0.059 A 
ATOM     13  C   UNL     1     -49.095  12.748 130.485  1.00  0.00     0.046 A 
ATOM     14  C   UNL     1     -47.724  12.492 130.698  1.00  0.00     0.028 A 
ATOM     15  C   UNL     1     -46.960  11.849 129.776  1.00  0.00     0.028 A 
ATOM     16  C   UNL     1     -47.478  11.397 128.551  1.00  0.00     0.046 A 
ATOM     17  C   UNL     1     -48.809  11.637 128.328  1.00  0.00     0.059 A 
ENDROOT
BRANCH  16  18
ATOM     18  N   UNL     1     -46.593  10.703 127.674  1.00  0.00    -0.383 N 
ATOM     19  H   UNL     1     -46.744   9.737 127.417  1.00  0.00     0.160 HD
BRANCH  18  20
ATOM     20  C   UNL     1     -45.421  11.341 127.103  1.00  0.00     0.128 C 
BRANCH  20  21
ATOM     21  C   UNL     1     -45.676  12.113 125.859  1.00  0.00     0.102 C 
BRANCH  21  22
ATOM     22  N   UNL     1     -46.105  11.241 124.757  1.00  0.00    -0.313 NA
ATOM     23  H   UNL     1     -45.270  10.659 124.504  1.00  0.00     0.122 HD
BRANCH  22  24
ATOM     24  C   UNL     1     -46.358  12.107 123.615  1.00  0.00     0.109 C 
BRANCH  24  25
ATOM     25  C   UNL     1     -47.749  12.690 123.668  1.00  0.00     0.171 C 
BRANCH  25  26
ATOM     26  O   UNL     1     -48.713  11.754 123.300  1.00  0.00    -0.395 OA
ATOM     27  H   UNL     1     -49.413  11.753 124.010  1.00  0.00     0.210 HD
ENDBRANCH  25  26
ENDBRANCH  24  25
ENDBRANCH  22  24
ENDBRANCH  21  22
ENDBRANCH  20  21
ENDBRANCH  18  20
ENDBRANCH  16  18
BRANCH   8  28
ATOM     28  O   UNL     1     -53.758  13.011 128.483  1.00  0.00    -0.507 OA
ATOM     29  H   UNL     1     -54.627  12.601 128.831  1.00  0.00     0.293 HD
ENDBRANCH   8  28
BRANCH  13  30
ATOM     30  N   UNL     1     -49.811  13.420 131.497  1.00  0.00    -0.379 N 
ATOM     31  H   UNL     1     -50.792  13.652 131.471  1.00  0.00     0.160 HD
BRANCH  30  32
ATOM     32  C   UNL     1     -49.125  13.853 132.732  1.00  0.00     0.174 C 
BRANCH  32  33
ATOM     33  C   UNL     1     -49.573  13.097 133.928  1.00  0.00     0.281 C 
BRANCH  33  34
ATOM     34  N   UNL     1     -49.245  11.704 133.917  1.00  0.00    -0.343 N 
ATOM     35  H   UNL     1     -49.029  11.332 132.964  1.00  0.00     0.346 HD
ATOM     36  H   UNL     1     -48.366  11.580 134.477  1.00  0.00     0.346 HD
BRANCH  34  37
ATOM     37  C   UNL     1     -50.246  10.864 134.527  1.00  0.00     0.289 C 
BRANCH  37  38
ATOM     38  C   UNL     1     -51.640  11.187 134.039  1.00  0.00     0.217 C 
BRANCH  38  39
ATOM     39  O   UNL     1     -51.826  10.595 132.802  1.00  0.00    -0.391 OA
ATOM     40  H   UNL     1     -52.609  11.050 132.376  1.00  0.00     0.210 HD
ENDBRANCH  38  39
ENDBRANCH  37  38
ENDBRANCH  34  37
ENDBRANCH  33  34
ENDBRANCH  32  33
ENDBRANCH  30  32
ENDBRANCH  13  30
TORSDOF 15
ENDMDL
MODEL 8
REMARK VINA RESULT:      -4.3      3.434      8.135
REMARK SMILES O=C1c2c([O-])ccc(O)c2C(=O)c2c(NCC[NH2+]CCO)ccc(NCCNCCO)c21
REMARK SMILES IDX 1 1 2 2 3 3 4 4 5 5 6 6 7 7 8 8 10 9 11 10 12 11 13 12 14 13
REMARK SMILES IDX 22 14 23 15 24 16 32 17 25 18 26 20 27 21 28 22 29 24 30 25
REMARK SMILES IDX 31 26 9 28 15 30 16 32 17 33 18 34 19 37 20 38 21 39
REMARK H PARENT 25 19 28 23 31 27 9 29 15 31 18 35 18 36 21 40
ROOT
ATOM      1  O   UNL     1     -48.760  12.250 128.952  1.00  0.00    -0.288 OA
ATOM      2  C   UNL     1     -50.001  12.332 128.781  1.00  0.00     0.196 C 
ATOM      3  C   UNL     1     -50.815  12.935 129.861  1.00  0.00     0.030 A 
ATOM      4  C   UNL     1     -50.157  13.374 130.994  1.00  0.00    -0.097 A 
ATOM      5  O   UNL     1     -48.774  13.238 131.080  1.00  0.00    -0.872 OA
ATOM      6  C   UNL     1     -50.893  13.940 132.011  1.00  0.00    -0.004 A 
ATOM      7  C   UNL     1     -52.250  14.063 131.900  1.00  0.00     0.046 A 
ATOM      8  C   UNL     1     -52.926  13.631 130.781  1.00  0.00     0.127 A 
ATOM      9  C   UNL     1     -52.170  13.060 129.757  1.00  0.00     0.075 A 
ATOM     10  C   UNL     1     -52.846  12.586 128.544  1.00  0.00     0.200 C 
ATOM     11  O   UNL     1     -54.091  12.741 128.534  1.00  0.00    -0.288 OA
ATOM     12  C   UNL     1     -52.067  11.988 127.469  1.00  0.00     0.059 A 
ATOM     13  C   UNL     1     -52.749  11.561 126.364  1.00  0.00     0.046 A 
ATOM     14  C   UNL     1     -51.961  10.987 125.345  1.00  0.00     0.028 A 
ATOM     15  C   UNL     1     -50.612  10.868 125.459  1.00  0.00     0.028 A 
ATOM     16  C   UNL     1     -49.910  11.306 126.594  1.00  0.00     0.046 A 
ATOM     17  C   UNL     1     -50.660  11.867 127.594  1.00  0.00     0.059 A 
ENDROOT
BRANCH  16  18
ATOM     18  N   UNL     1     -48.491  11.164 126.590  1.00  0.00    -0.383 N 
ATOM     19  H   UNL     1     -48.021  10.483 127.170  1.00  0.00     0.160 HD
BRANCH  18  20
ATOM     20  C   UNL     1     -47.639  11.992 125.757  1.00  0.00     0.128 C 
BRANCH  20  21
ATOM     21  C   UNL     1     -46.183  11.722 125.892  1.00  0.00     0.102 C 
BRANCH  21  22
ATOM     22  N   UNL     1     -45.634  11.094 124.683  1.00  0.00    -0.313 NA
ATOM     23  H   UNL     1     -46.242  10.263 124.484  1.00  0.00     0.122 HD
BRANCH  22  24
ATOM     24  C   UNL     1     -44.328  10.565 125.045  1.00  0.00     0.109 C 
BRANCH  24  25
ATOM     25  C   UNL     1     -44.338   9.986 126.439  1.00  0.00     0.171 C 
BRANCH  25  26
ATOM     26  O   UNL     1     -44.465   8.599 126.418  1.00  0.00    -0.395 OA
ATOM     27  H   UNL     1     -44.703   8.336 125.486  1.00  0.00     0.210 HD
ENDBRANCH  25  26
ENDBRANCH  24  25
ENDBRANCH  22  24
ENDBRANCH  21  22
ENDBRANCH  20  21
ENDBRANCH  18  20
ENDBRANCH  16  18
BRANCH   8  28
ATOM     28  O   UNL     1     -54.317  13.758 130.670  1.00  0.00    -0.507 OA
ATOM     29  H   UNL     1     -54.841  13.277 129.937  1.00  0.00     0.293 HD
ENDBRANCH   8  28
BRANCH  13  30
ATOM     30  N   UNL     1     -54.142  11.646 126.159  1.00  0.00    -0.379 N 
ATOM     31  H   UNL     1     -54.731  12.421 126.423  1.00  0.00     0.160 HD
BRANCH  30  32
ATOM     32  C   UNL     1     -54.868  10.534 125.511  1.00  0.00     0.174 C 
BRANCH  32  33
ATOM     33  C   UNL     1     -55.711  10.989 124.377  1.00  0.00     0.281 C 
BRANCH  33  34
ATOM     34  N   UNL     1     -55.187  10.689 123.080  1.00  0.00    -0.343 N 
ATOM     35  H   UNL     1     -54.422  11.333 122.778  1.00  0.00     0.346 HD
ATOM     36  H   UNL     1     -54.754   9.734 123.124  1.00  0.00     0.346 HD
BRANCH  34  37
ATOM     37  C   UNL     1     -56.189  10.641 122.043  1.00  0.00     0.289 C 
BRANCH  37  38
ATOM     38  C   UNL     1     -55.683   9.961 120.790  1.00  0.00     0.217 C 
BRANCH  38  39
ATOM     39  O   UNL     1     -56.128  10.671 119.689  1.00  0.00    -0.391 OA
ATOM     40  H   UNL     1     -57.060  10.358 119.498  1.00  0.00     0.210 HD
ENDBRANCH  38  39
ENDBRANCH  37  38
ENDBRANCH  34  37
ENDBRANCH  33  34
ENDBRANCH  32  33
ENDBRANCH  30  32
ENDBRANCH  13  30
TORSDOF 15
ENDMDL
MODEL 9
REMARK VINA RESULT:      -4.3      2.266      5.985
REMARK SMILES O=C1c2c([O-])ccc(O)c2C(=O)c2c(NCC[NH2+]CCO)ccc(NCCNCCO)c21
REMARK SMILES IDX 1 1 2 2 3 3 4 4 5 5 6 6 7 7 8 8 10 9 11 10 12 11 13 12 14 13
REMARK SMILES IDX 22 14 23 15 24 16 32 17 25 18 26 20 27 21 28 22 29 24 30 25
REMARK SMILES IDX 31 26 9 28 15 30 16 32 17 33 18 34 19 37 20 38 21 39
REMARK H PARENT 25 19 28 23 31 27 9 29 15 31 18 35 18 36 21 40
ROOT
ATOM      1  O   UNL     1     -49.120  10.810 126.122  1.00  0.00    -0.288 OA
ATOM      2  C   UNL     1     -49.737  11.339 127.079  1.00  0.00     0.196 C 
ATOM      3  C   UNL     1     -51.193  11.568 126.928  1.00  0.00     0.030 A 
ATOM      4  C   UNL     1     -51.784  11.183 125.741  1.00  0.00    -0.097 A 
ATOM      5  O   UNL     1     -51.007  10.602 124.744  1.00  0.00    -0.872 OA
ATOM      6  C   UNL     1     -53.137  11.384 125.578  1.00  0.00    -0.004 A 
ATOM      7  C   UNL     1     -53.878  11.957 126.574  1.00  0.00     0.046 A 
ATOM      8  C   UNL     1     -53.308  12.349 127.766  1.00  0.00     0.127 A 
ATOM      9  C   UNL     1     -51.938  12.139 127.918  1.00  0.00     0.075 A 
ATOM     10  C   UNL     1     -51.286  12.540 129.170  1.00  0.00     0.200 C 
ATOM     11  O   UNL     1     -52.046  13.056 130.025  1.00  0.00    -0.288 OA
ATOM     12  C   UNL     1     -49.856  12.326 129.342  1.00  0.00     0.059 A 
ATOM     13  C   UNL     1     -49.301  12.721 130.527  1.00  0.00     0.046 A 
ATOM     14  C   UNL     1     -47.914  12.499 130.655  1.00  0.00     0.028 A 
ATOM     15  C   UNL     1     -47.181  11.928 129.663  1.00  0.00     0.028 A 
ATOM     16  C   UNL     1     -47.751  11.523 128.444  1.00  0.00     0.046 A 
ATOM     17  C   UNL     1     -49.098  11.731 128.303  1.00  0.00     0.059 A 
ENDROOT
BRANCH  16  18
ATOM     18  N   UNL     1     -46.894  10.902 127.488  1.00  0.00    -0.383 N 
ATOM     19  H   UNL     1     -47.043   9.955 127.172  1.00  0.00     0.160 HD
BRANCH  18  20
ATOM     20  C   UNL     1     -45.753  11.595 126.916  1.00  0.00     0.128 C 
BRANCH  20  21
ATOM     21  C   UNL     1     -45.665  11.532 125.434  1.00  0.00     0.102 C 
BRANCH  21  22
ATOM     22  N   UNL     1     -46.910  11.982 124.796  1.00  0.00    -0.313 NA
ATOM     23  H   UNL     1     -47.620  11.232 124.981  1.00  0.00     0.122 HD
BRANCH  22  24
ATOM     24  C   UNL     1     -46.671  11.971 123.361  1.00  0.00     0.109 C 
BRANCH  24  25
ATOM     25  C   UNL     1     -47.951  12.195 122.592  1.00  0.00     0.171 C 
BRANCH  25  26
ATOM     26  O   UNL     1     -48.600  10.994 122.314  1.00  0.00    -0.395 OA
ATOM     27  H   UNL     1     -49.577  11.147 122.443  1.00  0.00     0.210 HD
ENDBRANCH  25  26
ENDBRANCH  24  25
ENDBRANCH  22  24
ENDBRANCH  21  22
ENDBRANCH  20  21
ENDBRANCH  18  20
ENDBRANCH  16  18
BRANCH   8  28
ATOM     28  O   UNL     1     -54.070  12.935 128.785  1.00  0.00    -0.507 OA
ATOM     29  H   UNL     1     -54.459  13.875 128.688  1.00  0.00     0.293 HD
ENDBRANCH   8  28
BRANCH  13  30
ATOM     30  N   UNL     1     -49.982  13.317 131.609  1.00  0.00    -0.379 N 
ATOM     31  H   UNL     1     -50.735  12.900 132.134  1.00  0.00     0.160 HD
BRANCH  30  32
ATOM     32  C   UNL     1     -49.612  14.673 132.064  1.00  0.00     0.174 C 
BRANCH  32  33
ATOM     33  C   UNL     1     -50.368  15.738 131.357  1.00  0.00     0.281 C 
BRANCH  33  34
ATOM     34  N   UNL     1     -51.787  15.561 131.345  1.00  0.00    -0.343 N 
ATOM     35  H   UNL     1     -52.281  16.180 130.662  1.00  0.00     0.346 HD
ATOM     36  H   UNL     1     -51.983  14.578 131.031  1.00  0.00     0.346 HD
BRANCH  34  37
ATOM     37  C   UNL     1     -52.406  15.712 132.639  1.00  0.00     0.289 C 
BRANCH  37  38
ATOM     38  C   UNL     1     -53.395  14.607 132.933  1.00  0.00     0.217 C 
BRANCH  38  39
ATOM     39  O   UNL     1     -53.854  14.091 131.734  1.00  0.00    -0.391 OA
ATOM     40  H   UNL     1     -53.411  13.202 131.611  1.00  0.00     0.210 HD
ENDBRANCH  38  39
ENDBRANCH  37  38
ENDBRANCH  34  37
ENDBRANCH  33  34
ENDBRANCH  32  33
ENDBRANCH  30  32
ENDBRANCH  13  30
TORSDOF 15
ENDMDL
