MODEL 1
REMARK VINA RESULT:      -6.1      0.000      0.000
REMARK SMILES Clc1ccc(COC(Cn2ccnc2)c2ccc(Cl)cc2Cl)c(Cl)c1
REMARK SMILES IDX 7 1 6 2 5 3 2 4 3 5 25 6 4 7 23 8 1 9 24 10 8 11 9 12 10 13
REMARK SMILES IDX 11 14 14 15 12 16 13 17 15 18 16 19 21 20 17 21 20 22 18 23
REMARK SMILES IDX 22 24 19 25
REMARK H PARENT
ROOT
ATOM      1  O   UNL     1     130.723 136.834 135.183  1.00  0.00    -0.367 OA
ENDROOT
BRANCH   1   2
ATOM      2  C   UNL     1     130.344 135.813 134.399  1.00  0.00     0.198 C 
BRANCH   2   3
ATOM      3  C   UNL     1     131.154 134.585 134.560  1.00  0.00    -0.004 A 
ATOM      4  C   UNL     1     132.567 132.193 135.139  1.00  0.00     0.042 A 
ATOM      5  C   UNL     1     131.268 132.399 135.569  1.00  0.00     0.021 A 
ATOM      6  C   UNL     1     133.137 133.212 134.414  1.00  0.00     0.041 A 
ATOM      7  C   UNL     1     130.565 133.548 135.301  1.00  0.00     0.009 A 
ATOM      8  C   UNL     1     132.431 134.390 134.131  1.00  0.00     0.048 A 
ATOM      9  Cl  UNL     1     133.446 130.715 135.504  1.00  0.00    -0.084 Cl
ATOM     10  Cl  UNL     1     133.179 135.618 133.114  1.00  0.00    -0.084 Cl
ENDBRANCH   2   3
ENDBRANCH   1   2
BRANCH   1  11
ATOM     11  C   UNL     1     131.513 137.848 134.890  1.00  0.00     0.170 C 
BRANCH  11  12
ATOM     12  C   UNL     1     130.643 138.924 134.195  1.00  0.00     0.160 C 
BRANCH  12  13
ATOM     13  N   UNL     1     131.203 139.196 132.907  1.00  0.00    -0.335 N 
ATOM     14  C   UNL     1     132.483 139.463 132.606  1.00  0.00     0.107 A 
ATOM     15  C   UNL     1     130.474 139.221 131.772  1.00  0.00     0.199 A 
ATOM     16  C   UNL     1     132.513 139.654 131.240  1.00  0.00     0.130 A 
ATOM     17  N   UNL     1     131.272 139.501 130.753  1.00  0.00    -0.245 NA
ENDBRANCH  12  13
ENDBRANCH  11  12
BRANCH  11  18
ATOM     18  C   UNL     1     132.120 138.493 136.123  1.00  0.00     0.001 A 
ATOM     19  C   UNL     1     131.339 139.116 137.067  1.00  0.00     0.009 A 
ATOM     20  C   UNL     1     133.479 138.465 136.310  1.00  0.00     0.048 A 
ATOM     21  C   UNL     1     131.934 139.706 138.191  1.00  0.00     0.021 A 
ATOM     22  C   UNL     1     134.081 139.046 137.424  1.00  0.00     0.041 A 
ATOM     23  C   UNL     1     133.297 139.674 138.374  1.00  0.00     0.042 A 
ATOM     24  Cl  UNL     1     134.459 137.666 135.094  1.00  0.00    -0.084 Cl
ATOM     25  Cl  UNL     1     134.046 140.414 139.780  1.00  0.00    -0.084 Cl
ENDBRANCH  11  18
ENDBRANCH   1  11
TORSDOF 6
ENDMDL
MODEL 2
REMARK VINA RESULT:      -5.7      1.668      5.627
REMARK SMILES Clc1ccc(COC(Cn2ccnc2)c2ccc(Cl)cc2Cl)c(Cl)c1
REMARK SMILES IDX 7 1 6 2 5 3 2 4 3 5 25 6 4 7 23 8 1 9 24 10 8 11 9 12 10 13
REMARK SMILES IDX 11 14 14 15 12 16 13 17 15 18 16 19 21 20 17 21 20 22 18 23
REMARK SMILES IDX 22 24 19 25
REMARK H PARENT
ROOT
ATOM      1  O   UNL     1     130.743 137.840 134.155  1.00  0.00    -0.367 OA
ENDROOT
BRANCH   1   2
ATOM      2  C   UNL     1     131.497 138.938 134.321  1.00  0.00     0.198 C 
BRANCH   2   3
ATOM      3  C   UNL     1     132.165 139.028 135.638  1.00  0.00    -0.004 A 
ATOM      4  C   UNL     1     133.261 139.438 138.224  1.00  0.00     0.042 A 
ATOM      5  C   UNL     1     131.929 139.688 137.944  1.00  0.00     0.021 A 
ATOM      6  C   UNL     1     134.027 138.980 137.179  1.00  0.00     0.041 A 
ATOM      7  C   UNL     1     131.377 139.497 136.701  1.00  0.00     0.009 A 
ATOM      8  C   UNL     1     133.476 138.778 135.904  1.00  0.00     0.048 A 
ATOM      9  Cl  UNL     1     133.942 139.699 139.823  1.00  0.00    -0.084 Cl
ATOM     10  Cl  UNL     1     134.484 138.095 134.632  1.00  0.00    -0.084 Cl
ENDBRANCH   2   3
ENDBRANCH   1   2
BRANCH   1  11
ATOM     11  C   UNL     1     130.832 136.913 133.223  1.00  0.00     0.170 C 
BRANCH  11  12
ATOM     12  C   UNL     1     131.917 137.373 132.218  1.00  0.00     0.160 C 
BRANCH  12  13
ATOM     13  N   UNL     1     131.285 137.655 130.967  1.00  0.00    -0.335 N 
ATOM     14  C   UNL     1     131.274 136.895 129.860  1.00  0.00     0.107 A 
ATOM     15  C   UNL     1     130.584 138.782 130.728  1.00  0.00     0.199 A 
ATOM     16  C   UNL     1     130.538 137.600 128.931  1.00  0.00     0.130 A 
ATOM     17  N   UNL     1     130.127 138.752 129.485  1.00  0.00    -0.245 NA
ENDBRANCH  12  13
ENDBRANCH  11  12
BRANCH  11  18
ATOM     18  C   UNL     1     131.275 135.569 133.773  1.00  0.00     0.001 A 
ATOM     19  C   UNL     1     132.604 135.226 133.852  1.00  0.00     0.009 A 
ATOM     20  C   UNL     1     130.337 134.664 134.202  1.00  0.00     0.048 A 
ATOM     21  C   UNL     1     132.976 133.974 134.361  1.00  0.00     0.021 A 
ATOM     22  C   UNL     1     130.696 133.418 134.711  1.00  0.00     0.041 A 
ATOM     23  C   UNL     1     132.032 133.071 134.791  1.00  0.00     0.042 A 
ATOM     24  Cl  UNL     1     128.647 135.119 134.093  1.00  0.00    -0.084 Cl
ATOM     25  Cl  UNL     1     132.495 131.501 135.426  1.00  0.00    -0.084 Cl
ENDBRANCH  11  18
ENDBRANCH   1  11
TORSDOF 6
ENDMDL
MODEL 3
REMARK VINA RESULT:      -5.5      2.469      4.786
REMARK SMILES Clc1ccc(COC(Cn2ccnc2)c2ccc(Cl)cc2Cl)c(Cl)c1
REMARK SMILES IDX 7 1 6 2 5 3 2 4 3 5 25 6 4 7 23 8 1 9 24 10 8 11 9 12 10 13
REMARK SMILES IDX 11 14 14 15 12 16 13 17 15 18 16 19 21 20 17 21 20 22 18 23
REMARK SMILES IDX 22 24 19 25
REMARK H PARENT
ROOT
ATOM      1  O   UNL     1     132.413 136.224 134.955  1.00  0.00    -0.367 OA
ENDROOT
BRANCH   1   2
ATOM      2  C   UNL     1     131.637 135.242 134.471  1.00  0.00     0.198 C 
BRANCH   2   3
ATOM      3  C   UNL     1     132.195 133.882 134.637  1.00  0.00    -0.004 A 
ATOM      4  C   UNL     1     133.086 131.248 135.204  1.00  0.00     0.042 A 
ATOM      5  C   UNL     1     131.794 131.659 135.480  1.00  0.00     0.021 A 
ATOM      6  C   UNL     1     133.917 132.185 134.639  1.00  0.00     0.041 A 
ATOM      7  C   UNL     1     131.341 132.929 135.214  1.00  0.00     0.009 A 
ATOM      8  C   UNL     1     133.467 133.485 134.361  1.00  0.00     0.048 A 
ATOM      9  Cl  UNL     1     133.641 129.619 135.562  1.00  0.00    -0.084 Cl
ATOM     10  Cl  UNL     1     134.548 134.612 133.546  1.00  0.00    -0.084 Cl
ENDBRANCH   2   3
ENDBRANCH   1   2
BRANCH   1  11
ATOM     11  C   UNL     1     132.270 137.528 134.822  1.00  0.00     0.170 C 
BRANCH  11  12
ATOM     12  C   UNL     1     133.495 138.196 135.497  1.00  0.00     0.160 C 
BRANCH  12  13
ATOM     13  N   UNL     1     133.073 138.765 136.739  1.00  0.00    -0.335 N 
ATOM     14  C   UNL     1     133.843 139.212 137.743  1.00  0.00     0.107 A 
ATOM     15  C   UNL     1     131.777 138.931 137.076  1.00  0.00     0.199 A 
ATOM     16  C   UNL     1     132.969 139.660 138.712  1.00  0.00     0.130 A 
ATOM     17  N   UNL     1     131.711 139.476 138.281  1.00  0.00    -0.245 NA
ENDBRANCH  12  13
ENDBRANCH  11  12
BRANCH  11  18
ATOM     18  C   UNL     1     132.263 137.972 133.371  1.00  0.00     0.001 A 
ATOM     19  C   UNL     1     133.390 137.892 132.588  1.00  0.00     0.009 A 
ATOM     20  C   UNL     1     131.112 138.471 132.816  1.00  0.00     0.048 A 
ATOM     21  C   UNL     1     133.347 138.317 131.253  1.00  0.00     0.021 A 
ATOM     22  C   UNL     1     131.058 138.894 131.489  1.00  0.00     0.041 A 
ATOM     23  C   UNL     1     132.191 138.815 130.701  1.00  0.00     0.042 A 
ATOM     24  Cl  UNL     1     129.685 138.566 133.830  1.00  0.00    -0.084 Cl
ATOM     25  Cl  UNL     1     132.135 139.350 129.029  1.00  0.00    -0.084 Cl
ENDBRANCH  11  18
ENDBRANCH   1  11
TORSDOF 6
ENDMDL
MODEL 4
REMARK VINA RESULT:      -5.5      2.749      4.929
REMARK SMILES Clc1ccc(COC(Cn2ccnc2)c2ccc(Cl)cc2Cl)c(Cl)c1
REMARK SMILES IDX 7 1 6 2 5 3 2 4 3 5 25 6 4 7 23 8 1 9 24 10 8 11 9 12 10 13
REMARK SMILES IDX 11 14 14 15 12 16 13 17 15 18 16 19 21 20 17 21 20 22 18 23
REMARK SMILES IDX 22 24 19 25
REMARK H PARENT
ROOT
ATOM      1  O   UNL     1     132.485 136.795 135.214  1.00  0.00    -0.367 OA
ENDROOT
BRANCH   1   2
ATOM      2  C   UNL     1     132.442 135.977 134.151  1.00  0.00     0.198 C 
BRANCH   2   3
ATOM      3  C   UNL     1     132.085 134.577 134.472  1.00  0.00    -0.004 A 
ATOM      4  C   UNL     1     131.662 131.811 134.946  1.00  0.00     0.042 A 
ATOM      5  C   UNL     1     132.930 132.362 134.910  1.00  0.00     0.021 A 
ATOM      6  C   UNL     1     130.615 132.677 134.739  1.00  0.00     0.041 A 
ATOM      7  C   UNL     1     133.159 133.698 134.683  1.00  0.00     0.009 A 
ATOM      8  C   UNL     1     130.834 134.043 134.507  1.00  0.00     0.048 A 
ATOM      9  Cl  UNL     1     131.398 130.097 135.232  1.00  0.00    -0.084 Cl
ATOM     10  Cl  UNL     1     129.449 135.120 134.347  1.00  0.00    -0.084 Cl
ENDBRANCH   2   3
ENDBRANCH   1   2
BRANCH   1  11
ATOM     11  C   UNL     1     132.728 138.091 135.246  1.00  0.00     0.170 C 
BRANCH  11  12
ATOM     12  C   UNL     1     134.231 138.270 135.574  1.00  0.00     0.160 C 
BRANCH  12  13
ATOM     13  N   UNL     1     134.358 138.566 136.968  1.00  0.00    -0.335 N 
ATOM     14  C   UNL     1     135.417 138.348 137.763  1.00  0.00     0.107 A 
ATOM     15  C   UNL     1     133.374 139.131 137.698  1.00  0.00     0.199 A 
ATOM     16  C   UNL     1     135.046 138.800 139.012  1.00  0.00     0.130 A 
ATOM     17  N   UNL     1     133.791 139.274 138.946  1.00  0.00    -0.245 NA
ENDBRANCH  12  13
ENDBRANCH  11  12
BRANCH  11  18
ATOM     18  C   UNL     1     132.479 138.767 133.910  1.00  0.00     0.001 A 
ATOM     19  C   UNL     1     133.501 139.000 133.020  1.00  0.00     0.009 A 
ATOM     20  C   UNL     1     131.211 139.165 133.572  1.00  0.00     0.048 A 
ATOM     21  C   UNL     1     133.235 139.631 131.798  1.00  0.00     0.021 A 
ATOM     22  C   UNL     1     130.935 139.792 132.359  1.00  0.00     0.041 A 
ATOM     23  C   UNL     1     131.961 140.027 131.462  1.00  0.00     0.042 A 
ATOM     24  Cl  UNL     1     129.921 138.861 134.721  1.00  0.00    -0.084 Cl
ATOM     25  Cl  UNL     1     131.626 140.821 129.932  1.00  0.00    -0.084 Cl
ENDBRANCH  11  18
ENDBRANCH   1  11
TORSDOF 6
ENDMDL
MODEL 5
REMARK VINA RESULT:      -5.1     17.043     18.599
REMARK SMILES Clc1ccc(COC(Cn2ccnc2)c2ccc(Cl)cc2Cl)c(Cl)c1
REMARK SMILES IDX 7 1 6 2 5 3 2 4 3 5 25 6 4 7 23 8 1 9 24 10 8 11 9 12 10 13
REMARK SMILES IDX 11 14 14 15 12 16 13 17 15 18 16 19 21 20 17 21 20 22 18 23
REMARK SMILES IDX 22 24 19 25
REMARK H PARENT
ROOT
ATOM      1  O   UNL     1     117.714 136.095 145.726  1.00  0.00    -0.367 OA
ENDROOT
BRANCH   1   2
ATOM      2  C   UNL     1     116.612 135.786 145.025  1.00  0.00     0.198 C 
BRANCH   2   3
ATOM      3  C   UNL     1     116.771 135.889 143.558  1.00  0.00    -0.004 A 
ATOM      4  C   UNL     1     116.880 136.322 140.755  1.00  0.00     0.042 A 
ATOM      5  C   UNL     1     116.702 137.362 141.650  1.00  0.00     0.021 A 
ATOM      6  C   UNL     1     117.002 135.065 141.297  1.00  0.00     0.041 A 
ATOM      7  C   UNL     1     116.646 137.176 143.011  1.00  0.00     0.009 A 
ATOM      8  C   UNL     1     116.948 134.861 142.684  1.00  0.00     0.048 A 
ATOM      9  Cl  UNL     1     116.940 136.587 139.018  1.00  0.00    -0.084 Cl
ATOM     10  Cl  UNL     1     117.211 133.241 143.325  1.00  0.00    -0.084 Cl
ENDBRANCH   2   3
ENDBRANCH   1   2
BRANCH   1  11
ATOM     11  C   UNL     1     117.819 136.838 146.810  1.00  0.00     0.170 C 
BRANCH  11  12
ATOM     12  C   UNL     1     117.789 135.882 148.028  1.00  0.00     0.160 C 
BRANCH  12  13
ATOM     13  N   UNL     1     116.476 135.911 148.594  1.00  0.00    -0.335 N 
ATOM     14  C   UNL     1     115.723 134.870 148.983  1.00  0.00     0.107 A 
ATOM     15  C   UNL     1     115.791 137.052 148.817  1.00  0.00     0.199 A 
ATOM     16  C   UNL     1     114.547 135.415 149.454  1.00  0.00     0.130 A 
ATOM     17  N   UNL     1     114.612 136.752 149.342  1.00  0.00    -0.245 NA
ENDBRANCH  12  13
ENDBRANCH  11  12
BRANCH  11  18
ATOM     18  C   UNL     1     119.131 137.599 146.873  1.00  0.00     0.001 A 
ATOM     19  C   UNL     1     120.272 137.025 147.381  1.00  0.00     0.009 A 
ATOM     20  C   UNL     1     119.192 138.893 146.420  1.00  0.00     0.048 A 
ATOM     21  C   UNL     1     121.465 137.761 147.429  1.00  0.00     0.021 A 
ATOM     22  C   UNL     1     120.373 139.632 146.462  1.00  0.00     0.041 A 
ATOM     23  C   UNL     1     121.521 139.057 146.972  1.00  0.00     0.042 A 
ATOM     24  Cl  UNL     1     117.725 139.608 145.777  1.00  0.00    -0.084 Cl
ATOM     25  Cl  UNL     1     123.013 139.981 147.033  1.00  0.00    -0.084 Cl
ENDBRANCH  11  18
ENDBRANCH   1  11
TORSDOF 6
ENDMDL
MODEL 6
REMARK VINA RESULT:      -5.0      2.740      4.938
REMARK SMILES Clc1ccc(COC(Cn2ccnc2)c2ccc(Cl)cc2Cl)c(Cl)c1
REMARK SMILES IDX 7 1 6 2 5 3 2 4 3 5 25 6 4 7 23 8 1 9 24 10 8 11 9 12 10 13
REMARK SMILES IDX 11 14 14 15 12 16 13 17 15 18 16 19 21 20 17 21 20 22 18 23
REMARK SMILES IDX 22 24 19 25
REMARK H PARENT
ROOT
ATOM      1  O   UNL     1     132.616 136.739 133.918  1.00  0.00    -0.367 OA
ENDROOT
BRANCH   1   2
ATOM      2  C   UNL     1     131.585 135.892 134.063  1.00  0.00     0.198 C 
BRANCH   2   3
ATOM      3  C   UNL     1     131.969 134.525 134.475  1.00  0.00    -0.004 A 
ATOM      4  C   UNL     1     132.915 131.909 135.041  1.00  0.00     0.042 A 
ATOM      5  C   UNL     1     133.750 132.901 134.557  1.00  0.00     0.021 A 
ATOM      6  C   UNL     1     131.601 132.259 135.234  1.00  0.00     0.041 A 
ATOM      7  C   UNL     1     133.314 134.174 134.276  1.00  0.00     0.009 A 
ATOM      8  C   UNL     1     131.142 133.555 134.953  1.00  0.00     0.048 A 
ATOM      9  Cl  UNL     1     133.498 130.287 135.384  1.00  0.00    -0.084 Cl
ATOM     10  Cl  UNL     1     129.470 133.972 135.315  1.00  0.00    -0.084 Cl
ENDBRANCH   2   3
ENDBRANCH   1   2
BRANCH   1  11
ATOM     11  C   UNL     1     132.635 138.048 134.075  1.00  0.00     0.170 C 
BRANCH  11  12
ATOM     12  C   UNL     1     133.802 138.379 135.038  1.00  0.00     0.160 C 
BRANCH  12  13
ATOM     13  N   UNL     1     133.252 138.783 136.294  1.00  0.00    -0.335 N 
ATOM     14  C   UNL     1     133.912 139.205 137.384  1.00  0.00     0.107 A 
ATOM     15  C   UNL     1     131.929 138.789 136.557  1.00  0.00     0.199 A 
ATOM     16  C   UNL     1     132.942 139.471 138.328  1.00  0.00     0.130 A 
ATOM     17  N   UNL     1     131.737 139.207 137.798  1.00  0.00    -0.245 NA
ENDBRANCH  12  13
ENDBRANCH  11  12
BRANCH  11  18
ATOM     18  C   UNL     1     132.902 138.790 132.778  1.00  0.00     0.001 A 
ATOM     19  C   UNL     1     134.179 138.982 132.309  1.00  0.00     0.009 A 
ATOM     20  C   UNL     1     131.852 139.290 132.049  1.00  0.00     0.048 A 
ATOM     21  C   UNL     1     134.388 139.677 131.110  1.00  0.00     0.021 A 
ATOM     22  C   UNL     1     132.049 139.980 130.855  1.00  0.00     0.041 A 
ATOM     23  C   UNL     1     133.333 140.175 130.382  1.00  0.00     0.042 A 
ATOM     24  Cl  UNL     1     130.230 139.036 132.665  1.00  0.00    -0.084 Cl
ATOM     25  Cl  UNL     1     133.592 141.048 128.880  1.00  0.00    -0.084 Cl
ENDBRANCH  11  18
ENDBRANCH   1  11
TORSDOF 6
ENDMDL
MODEL 7
REMARK VINA RESULT:      -4.9     16.841     18.315
REMARK SMILES Clc1ccc(COC(Cn2ccnc2)c2ccc(Cl)cc2Cl)c(Cl)c1
REMARK SMILES IDX 7 1 6 2 5 3 2 4 3 5 25 6 4 7 23 8 1 9 24 10 8 11 9 12 10 13
REMARK SMILES IDX 11 14 14 15 12 16 13 17 15 18 16 19 21 20 17 21 20 22 18 23
REMARK SMILES IDX 22 24 19 25
REMARK H PARENT
ROOT
ATOM      1  O   UNL     1     116.500 136.606 142.062  1.00  0.00    -0.367 OA
ENDROOT
BRANCH   1   2
ATOM      2  C   UNL     1     116.601 137.932 141.881  1.00  0.00     0.198 C 
BRANCH   2   3
ATOM      3  C   UNL     1     116.080 138.413 140.582  1.00  0.00    -0.004 A 
ATOM      4  C   UNL     1     115.359 139.276 137.976  1.00  0.00     0.042 A 
ATOM      5  C   UNL     1     116.269 138.254 138.184  1.00  0.00     0.021 A 
ATOM      6  C   UNL     1     114.821 139.851 139.102  1.00  0.00     0.041 A 
ATOM      7  C   UNL     1     116.633 137.820 139.436  1.00  0.00     0.009 A 
ATOM      8  C   UNL     1     115.182 139.417 140.387  1.00  0.00     0.048 A 
ATOM      9  Cl  UNL     1     114.917 139.816 136.363  1.00  0.00    -0.084 Cl
ATOM     10  Cl  UNL     1     114.385 140.125 141.788  1.00  0.00    -0.084 Cl
ENDBRANCH   2   3
ENDBRANCH   1   2
BRANCH   1  11
ATOM     11  C   UNL     1     115.685 135.943 142.858  1.00  0.00     0.170 C 
BRANCH  11  12
ATOM     12  C   UNL     1     115.644 134.477 142.357  1.00  0.00     0.160 C 
BRANCH  12  13
ATOM     13  N   UNL     1     116.411 134.388 141.154  1.00  0.00    -0.335 N 
ATOM     14  C   UNL     1     117.738 134.233 141.033  1.00  0.00     0.107 A 
ATOM     15  C   UNL     1     115.866 134.455 139.921  1.00  0.00     0.199 A 
ATOM     16  C   UNL     1     117.989 134.208 139.677  1.00  0.00     0.130 A 
ATOM     17  N   UNL     1     116.828 134.346 139.018  1.00  0.00    -0.245 NA
ENDBRANCH  12  13
ENDBRANCH  11  12
BRANCH  11  18
ATOM     18  C   UNL     1     116.168 135.910 144.296  1.00  0.00     0.001 A 
ATOM     19  C   UNL     1     117.282 135.194 144.665  1.00  0.00     0.009 A 
ATOM     20  C   UNL     1     115.484 136.603 145.262  1.00  0.00     0.048 A 
ATOM     21  C   UNL     1     117.696 135.182 146.004  1.00  0.00     0.021 A 
ATOM     22  C   UNL     1     115.887 136.599 146.596  1.00  0.00     0.041 A 
ATOM     23  C   UNL     1     117.007 135.880 146.968  1.00  0.00     0.042 A 
ATOM     24  Cl  UNL     1     114.064 137.509 144.773  1.00  0.00    -0.084 Cl
ATOM     25  Cl  UNL     1     117.522 135.865 148.648  1.00  0.00    -0.084 Cl
ENDBRANCH  11  18
ENDBRANCH   1  11
TORSDOF 6
ENDMDL
MODEL 8
REMARK VINA RESULT:      -4.9     17.174     18.668
REMARK SMILES Clc1ccc(COC(Cn2ccnc2)c2ccc(Cl)cc2Cl)c(Cl)c1
REMARK SMILES IDX 7 1 6 2 5 3 2 4 3 5 25 6 4 7 23 8 1 9 24 10 8 11 9 12 10 13
REMARK SMILES IDX 11 14 14 15 12 16 13 17 15 18 16 19 21 20 17 21 20 22 18 23
REMARK SMILES IDX 22 24 19 25
REMARK H PARENT
ROOT
ATOM      1  O   UNL     1     117.277 136.405 145.227  1.00  0.00    -0.367 OA
ENDROOT
BRANCH   1   2
ATOM      2  C   UNL     1     116.418 135.457 144.822  1.00  0.00     0.198 C 
BRANCH   2   3
ATOM      3  C   UNL     1     116.453 135.180 143.369  1.00  0.00    -0.004 A 
ATOM      4  C   UNL     1     116.823 134.599 140.615  1.00  0.00     0.042 A 
ATOM      5  C   UNL     1     117.580 133.990 141.600  1.00  0.00     0.021 A 
ATOM      6  C   UNL     1     115.880 135.502 141.043  1.00  0.00     0.041 A 
ATOM      7  C   UNL     1     117.419 134.255 142.939  1.00  0.00     0.009 A 
ATOM      8  C   UNL     1     115.703 135.782 142.406  1.00  0.00     0.048 A 
ATOM      9  Cl  UNL     1     117.056 134.247 138.909  1.00  0.00    -0.084 Cl
ATOM     10  Cl  UNL     1     114.412 136.874 142.899  1.00  0.00    -0.084 Cl
ENDBRANCH   2   3
ENDBRANCH   1   2
BRANCH   1  11
ATOM     11  C   UNL     1     117.471 136.876 146.443  1.00  0.00     0.170 C 
BRANCH  11  12
ATOM     12  C   UNL     1     117.361 135.680 147.422  1.00  0.00     0.160 C 
BRANCH  12  13
ATOM     13  N   UNL     1     116.259 135.916 148.302  1.00  0.00    -0.335 N 
ATOM     14  C   UNL     1     115.683 135.049 149.149  1.00  0.00     0.107 A 
ATOM     15  C   UNL     1     115.624 137.102 148.394  1.00  0.00     0.199 A 
ATOM     16  C   UNL     1     114.667 135.749 149.766  1.00  0.00     0.130 A 
ATOM     17  N   UNL     1     114.651 137.003 149.287  1.00  0.00    -0.245 NA
ENDBRANCH  12  13
ENDBRANCH  11  12
BRANCH  11  18
ATOM     18  C   UNL     1     118.852 137.477 146.625  1.00  0.00     0.001 A 
ATOM     19  C   UNL     1     119.928 136.708 147.001  1.00  0.00     0.009 A 
ATOM     20  C   UNL     1     119.045 138.819 146.418  1.00  0.00     0.048 A 
ATOM     21  C   UNL     1     121.188 137.299 147.165  1.00  0.00     0.021 A 
ATOM     22  C   UNL     1     120.294 139.416 146.577  1.00  0.00     0.041 A 
ATOM     23  C   UNL     1     121.377 138.644 146.955  1.00  0.00     0.042 A 
ATOM     24  Cl  UNL     1     117.661 139.784 145.941  1.00  0.00    -0.084 Cl
ATOM     25  Cl  UNL     1     122.955 139.388 147.163  1.00  0.00    -0.084 Cl
ENDBRANCH  11  18
ENDBRANCH   1  11
TORSDOF 6
ENDMDL
MODEL 9
REMARK VINA RESULT:      -4.8     17.404     18.895
REMARK SMILES Clc1ccc(COC(Cn2ccnc2)c2ccc(Cl)cc2Cl)c(Cl)c1
REMARK SMILES IDX 7 1 6 2 5 3 2 4 3 5 25 6 4 7 23 8 1 9 24 10 8 11 9 12 10 13
REMARK SMILES IDX 11 14 14 15 12 16 13 17 15 18 16 19 21 20 17 21 20 22 18 23
REMARK SMILES IDX 22 24 19 25
REMARK H PARENT
ROOT
ATOM      1  O   UNL     1     117.146 136.064 144.907  1.00  0.00    -0.367 OA
ENDROOT
BRANCH   1   2
ATOM      2  C   UNL     1     116.104 135.515 144.265  1.00  0.00     0.198 C 
BRANCH   2   3
ATOM      3  C   UNL     1     116.076 135.777 142.809  1.00  0.00    -0.004 A 
ATOM      4  C   UNL     1     116.066 136.577 140.085  1.00  0.00     0.042 A 
ATOM      5  C   UNL     1     116.836 137.224 141.036  1.00  0.00     0.021 A 
ATOM      6  C   UNL     1     115.305 135.524 140.532  1.00  0.00     0.041 A 
ATOM      7  C   UNL     1     116.856 136.854 142.359  1.00  0.00     0.009 A 
ATOM      8  C   UNL     1     115.317 135.135 141.880  1.00  0.00     0.048 A 
ATOM      9  Cl  UNL     1     116.053 137.075 138.400  1.00  0.00    -0.084 Cl
ATOM     10  Cl  UNL     1     114.397 133.716 142.373  1.00  0.00    -0.084 Cl
ENDBRANCH   2   3
ENDBRANCH   1   2
BRANCH   1  11
ATOM     11  C   UNL     1     117.189 136.572 146.123  1.00  0.00     0.170 C 
BRANCH  11  12
ATOM     12  C   UNL     1     117.090 135.391 147.120  1.00  0.00     0.160 C 
BRANCH  12  13
ATOM     13  N   UNL     1     115.958 135.607 147.967  1.00  0.00    -0.335 N 
ATOM     14  C   UNL     1     115.774 135.168 149.222  1.00  0.00     0.107 A 
ATOM     15  C   UNL     1     114.875 136.316 147.590  1.00  0.00     0.199 A 
ATOM     16  C   UNL     1     114.533 135.635 149.602  1.00  0.00     0.130 A 
ATOM     17  N   UNL     1     114.002 136.334 148.586  1.00  0.00    -0.245 NA
ENDBRANCH  12  13
ENDBRANCH  11  12
BRANCH  11  18
ATOM     18  C   UNL     1     118.494 137.291 146.412  1.00  0.00     0.001 A 
ATOM     19  C   UNL     1     119.532 136.666 147.061  1.00  0.00     0.009 A 
ATOM     20  C   UNL     1     118.653 138.598 146.026  1.00  0.00     0.048 A 
ATOM     21  C   UNL     1     120.721 137.363 147.315  1.00  0.00     0.021 A 
ATOM     22  C   UNL     1     119.832 139.300 146.272  1.00  0.00     0.041 A 
ATOM     23  C   UNL     1     120.876 138.672 146.925  1.00  0.00     0.042 A 
ATOM     24  Cl  UNL     1     117.318 139.380 145.201  1.00  0.00    -0.084 Cl
ATOM     25  Cl  UNL     1     122.364 139.549 147.245  1.00  0.00    -0.084 Cl
ENDBRANCH  11  18
ENDBRANCH   1  11
TORSDOF 6
ENDMDL
