MODEL 1
REMARK VINA RESULT:      -4.7      0.000      0.000
REMARK SMILES CC/C(=C(\c1ccccc1)c1ccc(OCCN(C)C)cc1)c1ccccc1
REMARK SMILES IDX 15 1 14 2 11 3 12 4 22 5 13 6 21 7 4 8 3 9 2 10 1 11 23 12
REMARK SMILES IDX 24 13 28 14 25 15 27 16 26 17 5 18 6 19 10 20 7 21 9 22 8 23
REMARK SMILES IDX 16 24 17 25 18 26 19 27 20 28
REMARK H PARENT
ROOT
ATOM      1  O   UNL     1     120.926 137.595 148.223  1.00  0.00    -0.492 OA
ENDROOT
BRANCH   1   2
ATOM      2  C   UNL     1     119.888 137.256 147.454  1.00  0.00     0.119 A 
ATOM      3  C   UNL     1     117.693 136.713 145.778  1.00  0.00    -0.017 A 
ATOM      4  C   UNL     1     118.185 137.968 145.872  1.00  0.00     0.012 A 
ATOM      5  C   UNL     1     118.292 135.718 146.517  1.00  0.00     0.012 A 
ATOM      6  C   UNL     1     119.243 138.251 146.674  1.00  0.00     0.047 A 
ATOM      7  C   UNL     1     119.361 135.980 147.335  1.00  0.00     0.047 A 
BRANCH   3   8
ATOM      8  C   UNL     1     116.541 136.311 144.941  1.00  0.00    -0.007 C 
ATOM      9  C   UNL     1     115.358 136.390 145.484  1.00  0.00    -0.033 C 
BRANCH   9  10
ATOM     10  C   UNL     1     114.156 136.055 144.653  1.00  0.00     0.033 C 
ATOM     11  C   UNL     1     113.485 137.337 144.288  1.00  0.00     0.009 C 
ENDBRANCH   9  10
BRANCH   9  12
ATOM     12  C   UNL     1     115.168 136.747 146.909  1.00  0.00    -0.022 A 
ATOM     13  C   UNL     1     115.162 138.032 147.372  1.00  0.00     0.008 A 
ATOM     14  C   UNL     1     114.972 135.707 147.794  1.00  0.00     0.008 A 
ATOM     15  C   UNL     1     114.960 138.259 148.711  1.00  0.00     0.001 A 
ATOM     16  C   UNL     1     114.767 135.950 149.157  1.00  0.00     0.001 A 
ATOM     17  C   UNL     1     114.761 137.239 149.617  1.00  0.00     0.000 A 
ENDBRANCH   9  12
BRANCH   8  18
ATOM     18  C   UNL     1     116.808 135.898 143.543  1.00  0.00    -0.018 A 
ATOM     19  C   UNL     1     117.068 134.615 143.157  1.00  0.00     0.009 A 
ATOM     20  C   UNL     1     116.778 136.872 142.541  1.00  0.00     0.009 A 
ATOM     21  C   UNL     1     117.293 134.303 141.814  1.00  0.00     0.001 A 
ATOM     22  C   UNL     1     117.000 136.565 141.219  1.00  0.00     0.001 A 
ATOM     23  C   UNL     1     117.263 135.268 140.829  1.00  0.00     0.000 A 
ENDBRANCH   8  18
ENDBRANCH   3   8
ENDBRANCH   1   2
BRANCH   1  24
ATOM     24  C   UNL     1     122.086 138.209 148.351  1.00  0.00     0.245 C 
BRANCH  24  25
ATOM     25  C   UNL     1     122.981 138.420 147.164  1.00  0.00     0.125 C 
BRANCH  25  26
ATOM     26  N   UNL     1     123.205 139.761 146.785  1.00  0.00    -0.306 NA
ATOM     27  C   UNL     1     122.146 140.688 147.061  1.00  0.00     0.105 C 
ATOM     28  C   UNL     1     124.440 140.261 147.296  1.00  0.00     0.105 C 
ENDBRANCH  25  26
ENDBRANCH  24  25
ENDBRANCH   1  24
TORSDOF 8
ENDMDL
MODEL 2
REMARK VINA RESULT:      -4.5      0.609      1.221
REMARK SMILES CC/C(=C(\c1ccccc1)c1ccc(OCCN(C)C)cc1)c1ccccc1
REMARK SMILES IDX 15 1 14 2 11 3 12 4 22 5 13 6 21 7 4 8 3 9 2 10 1 11 23 12
REMARK SMILES IDX 24 13 28 14 25 15 27 16 26 17 5 18 6 19 10 20 7 21 9 22 8 23
REMARK SMILES IDX 16 24 17 25 18 26 19 27 20 28
REMARK H PARENT
ROOT
ATOM      1  O   UNL     1     120.619 137.946 148.245  1.00  0.00    -0.492 OA
ENDROOT
BRANCH   1   2
ATOM      2  C   UNL     1     119.626 137.553 147.443  1.00  0.00     0.119 A 
ATOM      3  C   UNL     1     117.549 136.562 145.822  1.00  0.00    -0.017 A 
ATOM      4  C   UNL     1     118.196 135.741 146.680  1.00  0.00     0.012 A 
ATOM      5  C   UNL     1     117.932 137.883 145.766  1.00  0.00     0.012 A 
ATOM      6  C   UNL     1     119.200 136.200 147.470  1.00  0.00     0.047 A 
ATOM      7  C   UNL     1     118.944 138.368 146.554  1.00  0.00     0.047 A 
BRANCH   3   8
ATOM      8  C   UNL     1     116.454 136.153 144.916  1.00  0.00    -0.007 C 
ATOM      9  C   UNL     1     115.235 136.316 145.349  1.00  0.00    -0.033 C 
BRANCH   9  10
ATOM     10  C   UNL     1     114.092 135.976 144.439  1.00  0.00     0.033 C 
ATOM     11  C   UNL     1     113.521 137.257 143.930  1.00  0.00     0.009 C 
ENDBRANCH   9  10
BRANCH   9  12
ATOM     12  C   UNL     1     114.943 136.772 146.727  1.00  0.00    -0.022 A 
ATOM     13  C   UNL     1     114.773 138.083 147.069  1.00  0.00     0.008 A 
ATOM     14  C   UNL     1     114.826 135.798 147.697  1.00  0.00     0.008 A 
ATOM     15  C   UNL     1     114.488 138.402 148.373  1.00  0.00     0.001 A 
ATOM     16  C   UNL     1     114.535 136.134 149.024  1.00  0.00     0.001 A 
ATOM     17  C   UNL     1     114.364 137.450 149.362  1.00  0.00     0.000 A 
ENDBRANCH   9  12
BRANCH   8  18
ATOM     18  C   UNL     1     116.818 135.640 143.574  1.00  0.00    -0.018 A 
ATOM     19  C   UNL     1     117.101 134.333 143.301  1.00  0.00     0.009 A 
ATOM     20  C   UNL     1     116.863 136.538 142.504  1.00  0.00     0.009 A 
ATOM     21  C   UNL     1     117.419 133.924 142.004  1.00  0.00     0.001 A 
ATOM     22  C   UNL     1     117.176 136.135 141.227  1.00  0.00     0.001 A 
ATOM     23  C   UNL     1     117.461 134.814 140.952  1.00  0.00     0.000 A 
ENDBRANCH   8  18
ENDBRANCH   3   8
ENDBRANCH   1   2
BRANCH   1  24
ATOM     24  C   UNL     1     121.907 138.162 148.426  1.00  0.00     0.245 C 
BRANCH  24  25
ATOM     25  C   UNL     1     122.448 139.559 148.525  1.00  0.00     0.125 C 
BRANCH  25  26
ATOM     26  N   UNL     1     123.604 139.833 147.763  1.00  0.00    -0.306 NA
ATOM     27  C   UNL     1     124.798 140.135 148.499  1.00  0.00     0.105 C 
ATOM     28  C   UNL     1     123.866 138.810 146.803  1.00  0.00     0.105 C 
ENDBRANCH  25  26
ENDBRANCH  24  25
ENDBRANCH   1  24
TORSDOF 8
ENDMDL
MODEL 3
REMARK VINA RESULT:      -3.9      4.026      7.532
REMARK SMILES CC/C(=C(\c1ccccc1)c1ccc(OCCN(C)C)cc1)c1ccccc1
REMARK SMILES IDX 15 1 14 2 11 3 12 4 22 5 13 6 21 7 4 8 3 9 2 10 1 11 23 12
REMARK SMILES IDX 24 13 28 14 25 15 27 16 26 17 5 18 6 19 10 20 7 21 9 22 8 23
REMARK SMILES IDX 16 24 17 25 18 26 19 27 20 28
REMARK H PARENT
ROOT
ATOM      1  O   UNL     1     115.336 140.062 140.272  1.00  0.00    -0.492 OA
ENDROOT
BRANCH   1   2
ATOM      2  C   UNL     1     115.804 139.511 141.395  1.00  0.00     0.119 A 
ATOM      3  C   UNL     1     116.642 138.407 143.845  1.00  0.00    -0.017 A 
ATOM      4  C   UNL     1     115.471 139.077 143.764  1.00  0.00     0.012 A 
ATOM      5  C   UNL     1     117.404 138.280 142.705  1.00  0.00     0.012 A 
ATOM      6  C   UNL     1     115.050 139.617 142.592  1.00  0.00     0.047 A 
ATOM      7  C   UNL     1     116.998 138.818 141.511  1.00  0.00     0.047 A 
BRANCH   3   8
ATOM      8  C   UNL     1     117.189 137.795 145.075  1.00  0.00    -0.007 C 
ATOM      9  C   UNL     1     117.035 136.508 145.216  1.00  0.00    -0.033 C 
BRANCH   9  10
ATOM     10  C   UNL     1     117.630 135.835 146.417  1.00  0.00     0.033 C 
ATOM     11  C   UNL     1     116.550 135.685 147.435  1.00  0.00     0.009 C 
ENDBRANCH   9  10
BRANCH   9  12
ATOM     12  C   UNL     1     116.245 135.700 144.259  1.00  0.00    -0.022 A 
ATOM     13  C   UNL     1     114.888 135.786 144.136  1.00  0.00     0.008 A 
ATOM     14  C   UNL     1     116.945 134.831 143.448  1.00  0.00     0.008 A 
ATOM     15  C   UNL     1     114.250 135.005 143.205  1.00  0.00     0.001 A 
ATOM     16  C   UNL     1     116.284 134.038 142.502  1.00  0.00     0.001 A 
ATOM     17  C   UNL     1     114.924 134.129 142.381  1.00  0.00     0.000 A 
ENDBRANCH   9  12
BRANCH   8  18
ATOM     18  C   UNL     1     117.910 138.673 146.027  1.00  0.00    -0.018 A 
ATOM     19  C   UNL     1     117.316 139.344 147.056  1.00  0.00     0.009 A 
ATOM     20  C   UNL     1     119.292 138.823 145.883  1.00  0.00     0.009 A 
ATOM     21  C   UNL     1     118.068 140.141 147.922  1.00  0.00     0.001 A 
ATOM     22  C   UNL     1     120.033 139.607 146.735  1.00  0.00     0.001 A 
ATOM     23  C   UNL     1     119.432 140.285 147.776  1.00  0.00     0.000 A 
ENDBRANCH   8  18
ENDBRANCH   3   8
ENDBRANCH   1   2
BRANCH   1  24
ATOM     24  C   UNL     1     115.575 140.597 139.091  1.00  0.00     0.245 C 
BRANCH  24  25
ATOM     25  C   UNL     1     116.392 139.867 138.064  1.00  0.00     0.125 C 
BRANCH  25  26
ATOM     26  N   UNL     1     115.767 139.640 136.819  1.00  0.00    -0.306 NA
ATOM     27  C   UNL     1     114.405 139.193 136.860  1.00  0.00     0.105 C 
ATOM     28  C   UNL     1     115.888 140.764 135.948  1.00  0.00     0.105 C 
ENDBRANCH  25  26
ENDBRANCH  24  25
ENDBRANCH   1  24
TORSDOF 8
ENDMDL
MODEL 4
REMARK VINA RESULT:      -3.7      1.688      2.614
REMARK SMILES CC/C(=C(\c1ccccc1)c1ccc(OCCN(C)C)cc1)c1ccccc1
REMARK SMILES IDX 15 1 14 2 11 3 12 4 22 5 13 6 21 7 4 8 3 9 2 10 1 11 23 12
REMARK SMILES IDX 24 13 28 14 25 15 27 16 26 17 5 18 6 19 10 20 7 21 9 22 8 23
REMARK SMILES IDX 16 24 17 25 18 26 19 27 20 28
REMARK H PARENT
ROOT
ATOM      1  O   UNL     1     119.657 140.112 146.193  1.00  0.00    -0.492 OA
ENDROOT
BRANCH   1   2
ATOM      2  C   UNL     1     118.849 139.303 145.504  1.00  0.00     0.119 A 
ATOM      3  C   UNL     1     117.136 137.724 143.924  1.00  0.00    -0.017 A 
ATOM      4  C   UNL     1     117.491 138.963 143.515  1.00  0.00     0.012 A 
ATOM      5  C   UNL     1     117.632 137.262 145.122  1.00  0.00     0.012 A 
ATOM      6  C   UNL     1     118.316 139.740 144.263  1.00  0.00     0.047 A 
ATOM      7  C   UNL     1     118.466 138.030 145.893  1.00  0.00     0.047 A 
BRANCH   3   8
ATOM      8  C   UNL     1     116.236 136.811 143.186  1.00  0.00    -0.007 C 
ATOM      9  C   UNL     1     115.017 136.694 143.630  1.00  0.00    -0.033 C 
BRANCH   9  10
ATOM     10  C   UNL     1     114.051 135.829 142.875  1.00  0.00     0.033 C 
ATOM     11  C   UNL     1     113.403 136.676 141.832  1.00  0.00     0.009 C 
ENDBRANCH   9  10
BRANCH   9  12
ATOM     12  C   UNL     1     114.569 137.342 144.883  1.00  0.00    -0.022 A 
ATOM     13  C   UNL     1     114.519 136.702 146.089  1.00  0.00     0.008 A 
ATOM     14  C   UNL     1     114.203 138.669 144.806  1.00  0.00     0.008 A 
ATOM     15  C   UNL     1     114.105 137.397 147.198  1.00  0.00     0.001 A 
ATOM     16  C   UNL     1     113.782 139.370 145.943  1.00  0.00     0.001 A 
ATOM     17  C   UNL     1     113.735 138.725 147.149  1.00  0.00     0.000 A 
ENDBRANCH   9  12
BRANCH   8  18
ATOM     18  C   UNL     1     116.768 136.139 141.976  1.00  0.00    -0.018 A 
ATOM     19  C   UNL     1     116.833 136.716 140.742  1.00  0.00     0.009 A 
ATOM     20  C   UNL     1     117.255 134.834 142.096  1.00  0.00     0.009 A 
ATOM     21  C   UNL     1     117.366 136.022 139.653  1.00  0.00     0.001 A 
ATOM     22  C   UNL     1     117.779 134.150 141.024  1.00  0.00     0.001 A 
ATOM     23  C   UNL     1     117.845 134.734 139.776  1.00  0.00     0.000 A 
ENDBRANCH   8  18
ENDBRANCH   3   8
ENDBRANCH   1   2
BRANCH   1  24
ATOM     24  C   UNL     1     120.798 140.767 146.276  1.00  0.00     0.245 C 
BRANCH  24  25
ATOM     25  C   UNL     1     121.993 140.153 146.947  1.00  0.00     0.125 C 
BRANCH  25  26
ATOM     26  N   UNL     1     122.703 140.986 147.838  1.00  0.00    -0.306 NA
ATOM     27  C   UNL     1     122.255 140.993 149.201  1.00  0.00     0.105 C 
ATOM     28  C   UNL     1     124.109 140.749 147.786  1.00  0.00     0.105 C 
ENDBRANCH  25  26
ENDBRANCH  24  25
ENDBRANCH   1  24
TORSDOF 8
ENDMDL
MODEL 5
REMARK VINA RESULT:      -3.7      4.256      7.773
REMARK SMILES CC/C(=C(\c1ccccc1)c1ccc(OCCN(C)C)cc1)c1ccccc1
REMARK SMILES IDX 15 1 14 2 11 3 12 4 22 5 13 6 21 7 4 8 3 9 2 10 1 11 23 12
REMARK SMILES IDX 24 13 28 14 25 15 27 16 26 17 5 18 6 19 10 20 7 21 9 22 8 23
REMARK SMILES IDX 16 24 17 25 18 26 19 27 20 28
REMARK H PARENT
ROOT
ATOM      1  O   UNL     1     114.674 139.991 140.258  1.00  0.00    -0.492 OA
ENDROOT
BRANCH   1   2
ATOM      2  C   UNL     1     115.277 139.483 141.335  1.00  0.00     0.119 A 
ATOM      3  C   UNL     1     116.408 138.466 143.704  1.00  0.00    -0.017 A 
ATOM      4  C   UNL     1     115.210 139.090 143.734  1.00  0.00     0.012 A 
ATOM      5  C   UNL     1     117.052 138.342 142.493  1.00  0.00     0.012 A 
ATOM      6  C   UNL     1     114.648 139.588 142.603  1.00  0.00     0.047 A 
ATOM      7  C   UNL     1     116.503 138.837 141.338  1.00  0.00     0.047 A 
BRANCH   3   8
ATOM      8  C   UNL     1     117.104 137.902 144.882  1.00  0.00    -0.007 C 
ATOM      9  C   UNL     1     117.032 136.612 145.051  1.00  0.00    -0.033 C 
BRANCH   9  10
ATOM     10  C   UNL     1     117.776 135.989 146.194  1.00  0.00     0.033 C 
ATOM     11  C   UNL     1     116.794 135.728 147.286  1.00  0.00     0.009 C 
ENDBRANCH   9  10
BRANCH   9  12
ATOM     12  C   UNL     1     116.198 135.749 144.184  1.00  0.00    -0.022 A 
ATOM     13  C   UNL     1     114.834 135.809 144.146  1.00  0.00     0.008 A 
ATOM     14  C   UNL     1     116.859 134.854 143.369  1.00  0.00     0.008 A 
ATOM     15  C   UNL     1     114.151 134.976 143.294  1.00  0.00     0.001 A 
ATOM     16  C   UNL     1     116.154 134.009 142.504  1.00  0.00     0.001 A 
ATOM     17  C   UNL     1     114.787 134.074 142.468  1.00  0.00     0.000 A 
ENDBRANCH   9  12
BRANCH   8  18
ATOM     18  C   UNL     1     117.866 138.832 145.748  1.00  0.00    -0.018 A 
ATOM     19  C   UNL     1     119.189 139.123 145.588  1.00  0.00     0.009 A 
ATOM     20  C   UNL     1     117.194 139.474 146.794  1.00  0.00     0.009 A 
ATOM     21  C   UNL     1     119.833 140.025 146.438  1.00  0.00     0.001 A 
ATOM     22  C   UNL     1     117.828 140.362 147.630  1.00  0.00     0.001 A 
ATOM     23  C   UNL     1     119.166 140.656 147.467  1.00  0.00     0.000 A 
ENDBRANCH   8  18
ENDBRANCH   3   8
ENDBRANCH   1   2
BRANCH   1  24
ATOM     24  C   UNL     1     114.311 141.048 139.559  1.00  0.00     0.245 C 
BRANCH  24  25
ATOM     25  C   UNL     1     113.757 140.904 138.171  1.00  0.00     0.125 C 
BRANCH  25  26
ATOM     26  N   UNL     1     114.538 140.155 137.265  1.00  0.00    -0.306 NA
ATOM     27  C   UNL     1     113.886 139.052 136.619  1.00  0.00     0.105 C 
ATOM     28  C   UNL     1     115.172 140.986 136.293  1.00  0.00     0.105 C 
ENDBRANCH  25  26
ENDBRANCH  24  25
ENDBRANCH   1  24
TORSDOF 8
ENDMDL
MODEL 6
REMARK VINA RESULT:      -3.4      2.924      5.647
REMARK SMILES CC/C(=C(\c1ccccc1)c1ccc(OCCN(C)C)cc1)c1ccccc1
REMARK SMILES IDX 15 1 14 2 11 3 12 4 22 5 13 6 21 7 4 8 3 9 2 10 1 11 23 12
REMARK SMILES IDX 24 13 28 14 25 15 27 16 26 17 5 18 6 19 10 20 7 21 9 22 8 23
REMARK SMILES IDX 16 24 17 25 18 26 19 27 20 28
REMARK H PARENT
ROOT
ATOM      1  O   UNL     1     117.004 139.368 145.824  1.00  0.00    -0.492 OA
ENDROOT
BRANCH   1   2
ATOM      2  C   UNL     1     116.814 138.906 144.586  1.00  0.00     0.119 A 
ATOM      3  C   UNL     1     116.242 137.897 142.020  1.00  0.00    -0.017 A 
ATOM      4  C   UNL     1     115.286 137.910 142.977  1.00  0.00     0.012 A 
ATOM      5  C   UNL     1     117.489 138.388 142.334  1.00  0.00     0.012 A 
ATOM      6  C   UNL     1     115.542 138.392 144.220  1.00  0.00     0.047 A 
ATOM      7  C   UNL     1     117.770 138.880 143.584  1.00  0.00     0.047 A 
BRANCH   3   8
ATOM      8  C   UNL     1     116.062 137.384 140.645  1.00  0.00    -0.007 C 
ATOM      9  C   UNL     1     116.115 136.092 140.483  1.00  0.00    -0.033 C 
BRANCH   9  10
ATOM     10  C   UNL     1     115.872 135.522 139.117  1.00  0.00     0.033 C 
ATOM     11  C   UNL     1     116.835 134.400 138.916  1.00  0.00     0.009 C 
ENDBRANCH   9  10
BRANCH   9  12
ATOM     12  C   UNL     1     116.459 135.172 141.592  1.00  0.00    -0.022 A 
ATOM     13  C   UNL     1     115.575 134.291 142.146  1.00  0.00     0.008 A 
ATOM     14  C   UNL     1     117.755 135.217 142.062  1.00  0.00     0.008 A 
ATOM     15  C   UNL     1     115.998 133.469 143.160  1.00  0.00     0.001 A 
ATOM     16  C   UNL     1     118.176 134.373 143.097  1.00  0.00     0.001 A 
ATOM     17  C   UNL     1     117.287 133.491 143.648  1.00  0.00     0.000 A 
ENDBRANCH   9  12
BRANCH   8  18
ATOM     18  C   UNL     1     115.788 138.364 139.568  1.00  0.00    -0.018 A 
ATOM     19  C   UNL     1     116.753 139.004 138.846  1.00  0.00     0.009 A 
ATOM     20  C   UNL     1     114.457 138.652 139.248  1.00  0.00     0.009 A 
ATOM     21  C   UNL     1     116.413 139.903 137.833  1.00  0.00     0.001 A 
ATOM     22  C   UNL     1     114.122 139.538 138.251  1.00  0.00     0.001 A 
ATOM     23  C   UNL     1     115.098 140.183 137.521  1.00  0.00     0.000 A 
ENDBRANCH   8  18
ENDBRANCH   3   8
ENDBRANCH   1   2
BRANCH   1  24
ATOM     24  C   UNL     1     116.920 139.178 147.126  1.00  0.00     0.245 C 
BRANCH  24  25
ATOM     25  C   UNL     1     118.122 139.349 148.010  1.00  0.00     0.125 C 
BRANCH  25  26
ATOM     26  N   UNL     1     118.432 138.262 148.855  1.00  0.00    -0.306 NA
ATOM     27  C   UNL     1     118.043 136.961 148.392  1.00  0.00     0.105 C 
ATOM     28  C   UNL     1     119.808 138.256 149.234  1.00  0.00     0.105 C 
ENDBRANCH  25  26
ENDBRANCH  24  25
ENDBRANCH   1  24
TORSDOF 8
ENDMDL
MODEL 7
REMARK VINA RESULT:      -3.4      4.363      7.118
REMARK SMILES CC/C(=C(\c1ccccc1)c1ccc(OCCN(C)C)cc1)c1ccccc1
REMARK SMILES IDX 15 1 14 2 11 3 12 4 22 5 13 6 21 7 4 8 3 9 2 10 1 11 23 12
REMARK SMILES IDX 24 13 28 14 25 15 27 16 26 17 5 18 6 19 10 20 7 21 9 22 8 23
REMARK SMILES IDX 16 24 17 25 18 26 19 27 20 28
REMARK H PARENT
ROOT
ATOM      1  O   UNL     1     116.648 134.428 141.093  1.00  0.00    -0.492 OA
ENDROOT
BRANCH   1   2
ATOM      2  C   UNL     1     116.192 135.063 142.176  1.00  0.00     0.119 A 
ATOM      3  C   UNL     1     115.389 136.482 144.471  1.00  0.00    -0.017 A 
ATOM      4  C   UNL     1     116.639 136.633 143.978  1.00  0.00     0.012 A 
ATOM      5  C   UNL     1     114.529 135.624 143.823  1.00  0.00     0.012 A 
ATOM      6  C   UNL     1     117.045 135.957 142.873  1.00  0.00     0.047 A 
ATOM      7  C   UNL     1     114.918 134.931 142.705  1.00  0.00     0.047 A 
BRANCH   3   8
ATOM      8  C   UNL     1     114.860 137.164 145.672  1.00  0.00    -0.007 C 
ATOM      9  C   UNL     1     114.356 138.354 145.504  1.00  0.00    -0.033 C 
BRANCH   9  10
ATOM     10  C   UNL     1     113.749 139.056 146.682  1.00  0.00     0.033 C 
ATOM     11  C   UNL     1     114.814 139.888 147.313  1.00  0.00     0.009 C 
ENDBRANCH   9  10
BRANCH   9  12
ATOM     12  C   UNL     1     114.412 139.056 144.202  1.00  0.00    -0.022 A 
ATOM     13  C   UNL     1     115.474 139.812 143.794  1.00  0.00     0.008 A 
ATOM     14  C   UNL     1     113.325 138.911 143.365  1.00  0.00     0.008 A 
ATOM     15  C   UNL     1     115.436 140.409 142.560  1.00  0.00     0.001 A 
ATOM     16  C   UNL     1     113.295 139.524 142.107  1.00  0.00     0.001 A 
ATOM     17  C   UNL     1     114.363 140.279 141.703  1.00  0.00     0.000 A 
ENDBRANCH   9  12
BRANCH   8  18
ATOM     18  C   UNL     1     114.897 136.431 146.960  1.00  0.00    -0.018 A 
ATOM     19  C   UNL     1     113.791 136.084 147.679  1.00  0.00     0.009 A 
ATOM     20  C   UNL     1     116.139 136.048 147.476  1.00  0.00     0.009 A 
ATOM     21  C   UNL     1     113.908 135.377 148.878  1.00  0.00     0.001 A 
ATOM     22  C   UNL     1     116.254 135.352 148.656  1.00  0.00     0.001 A 
ATOM     23  C   UNL     1     115.135 135.001 149.383  1.00  0.00     0.000 A 
ENDBRANCH   8  18
ENDBRANCH   3   8
ENDBRANCH   1   2
BRANCH   1  24
ATOM     24  C   UNL     1     116.928 134.449 139.805  1.00  0.00     0.245 C 
BRANCH  24  25
ATOM     25  C   UNL     1     115.935 134.971 138.807  1.00  0.00     0.125 C 
BRANCH  25  26
ATOM     26  N   UNL     1     115.791 136.373 138.748  1.00  0.00    -0.306 NA
ATOM     27  C   UNL     1     114.642 136.926 139.405  1.00  0.00     0.105 C 
ATOM     28  C   UNL     1     116.972 137.050 139.175  1.00  0.00     0.105 C 
ENDBRANCH  25  26
ENDBRANCH  24  25
ENDBRANCH   1  24
TORSDOF 8
ENDMDL
MODEL 8
REMARK VINA RESULT:      -3.3      3.648      7.223
REMARK SMILES CC/C(=C(\c1ccccc1)c1ccc(OCCN(C)C)cc1)c1ccccc1
REMARK SMILES IDX 15 1 14 2 11 3 12 4 22 5 13 6 21 7 4 8 3 9 2 10 1 11 23 12
REMARK SMILES IDX 24 13 28 14 25 15 27 16 26 17 5 18 6 19 10 20 7 21 9 22 8 23
REMARK SMILES IDX 16 24 17 25 18 26 19 27 20 28
REMARK H PARENT
ROOT
ATOM      1  O   UNL     1     116.113 140.899 140.980  1.00  0.00    -0.492 OA
ENDROOT
BRANCH   1   2
ATOM      2  C   UNL     1     116.399 140.180 142.069  1.00  0.00     0.119 A 
ATOM      3  C   UNL     1     116.837 138.703 144.425  1.00  0.00    -0.017 A 
ATOM      4  C   UNL     1     115.658 139.332 144.224  1.00  0.00     0.012 A 
ATOM      5  C   UNL     1     117.807 138.804 143.453  1.00  0.00     0.012 A 
ATOM      6  C   UNL     1     115.427 140.050 143.094  1.00  0.00     0.047 A 
ATOM      7  C   UNL     1     117.596 139.524 142.305  1.00  0.00     0.047 A 
BRANCH   3   8
ATOM      8  C   UNL     1     117.184 137.910 145.624  1.00  0.00    -0.007 C 
ATOM      9  C   UNL     1     116.922 136.634 145.586  1.00  0.00    -0.033 C 
BRANCH   9  10
ATOM     10  C   UNL     1     117.316 135.778 146.753  1.00  0.00     0.033 C 
ATOM     11  C   UNL     1     118.736 135.367 146.555  1.00  0.00     0.009 C 
ENDBRANCH   9  10
BRANCH   9  12
ATOM     12  C   UNL     1     116.199 136.011 144.454  1.00  0.00    -0.022 A 
ATOM     13  C   UNL     1     116.812 135.290 143.469  1.00  0.00     0.008 A 
ATOM     14  C   UNL     1     114.829 136.169 144.423  1.00  0.00     0.008 A 
ATOM     15  C   UNL     1     116.050 134.738 142.470  1.00  0.00     0.001 A 
ATOM     16  C   UNL     1     114.060 135.602 143.400  1.00  0.00     0.001 A 
ATOM     17  C   UNL     1     114.679 134.879 142.416  1.00  0.00     0.000 A 
ENDBRANCH   9  12
BRANCH   8  18
ATOM     18  C   UNL     1     117.845 138.608 146.751  1.00  0.00    -0.018 A 
ATOM     19  C   UNL     1     119.144 139.027 146.742  1.00  0.00     0.009 A 
ATOM     20  C   UNL     1     117.097 138.878 147.901  1.00  0.00     0.009 A 
ATOM     21  C   UNL     1     119.690 139.695 147.840  1.00  0.00     0.001 A 
ATOM     22  C   UNL     1     117.635 139.537 148.982  1.00  0.00     0.001 A 
ATOM     23  C   UNL     1     118.947 139.960 148.972  1.00  0.00     0.000 A 
ENDBRANCH   8  18
ENDBRANCH   3   8
ENDBRANCH   1   2
BRANCH   1  24
ATOM     24  C   UNL     1     115.402 141.048 139.879  1.00  0.00     0.245 C 
BRANCH  24  25
ATOM     25  C   UNL     1     115.082 139.873 139.002  1.00  0.00     0.125 C 
BRANCH  25  26
ATOM     26  N   UNL     1     116.178 139.085 138.593  1.00  0.00    -0.306 NA
ATOM     27  C   UNL     1     115.940 137.676 138.464  1.00  0.00     0.105 C 
ATOM     28  C   UNL     1     116.785 139.590 137.404  1.00  0.00     0.105 C 
ENDBRANCH  25  26
ENDBRANCH  24  25
ENDBRANCH   1  24
TORSDOF 8
ENDMDL
MODEL 9
REMARK VINA RESULT:      -3.3      4.543      6.971
REMARK SMILES CC/C(=C(\c1ccccc1)c1ccc(OCCN(C)C)cc1)c1ccccc1
REMARK SMILES IDX 15 1 14 2 11 3 12 4 22 5 13 6 21 7 4 8 3 9 2 10 1 11 23 12
REMARK SMILES IDX 24 13 28 14 25 15 27 16 26 17 5 18 6 19 10 20 7 21 9 22 8 23
REMARK SMILES IDX 16 24 17 25 18 26 19 27 20 28
REMARK H PARENT
ROOT
ATOM      1  O   UNL     1     114.235 138.621 145.480  1.00  0.00    -0.492 OA
ENDROOT
BRANCH   1   2
ATOM      2  C   UNL     1     114.564 138.250 144.240  1.00  0.00     0.119 A 
ATOM      3  C   UNL     1     115.401 137.574 141.638  1.00  0.00    -0.017 A 
ATOM      4  C   UNL     1     116.110 138.459 142.374  1.00  0.00     0.012 A 
ATOM      5  C   UNL     1     114.269 137.019 142.192  1.00  0.00     0.012 A 
ATOM      6  C   UNL     1     115.723 138.797 143.631  1.00  0.00     0.047 A 
ATOM      7  C   UNL     1     113.860 137.347 143.459  1.00  0.00     0.047 A 
BRANCH   3   8
ATOM      8  C   UNL     1     115.736 137.153 140.260  1.00  0.00    -0.007 C 
ATOM      9  C   UNL     1     116.241 135.961 140.112  1.00  0.00    -0.033 C 
BRANCH   9  10
ATOM     10  C   UNL     1     116.536 135.465 138.728  1.00  0.00     0.033 C 
ATOM     11  C   UNL     1     116.247 134.002 138.697  1.00  0.00     0.009 C 
ENDBRANCH   9  10
BRANCH   9  12
ATOM     12  C   UNL     1     116.585 135.101 141.268  1.00  0.00    -0.022 A 
ATOM     13  C   UNL     1     115.658 134.434 142.017  1.00  0.00     0.008 A 
ATOM     14  C   UNL     1     117.923 134.972 141.576  1.00  0.00     0.008 A 
ATOM     15  C   UNL     1     116.080 133.648 143.059  1.00  0.00     0.001 A 
ATOM     16  C   UNL     1     118.344 134.167 142.642  1.00  0.00     0.001 A 
ATOM     17  C   UNL     1     117.411 133.500 143.388  1.00  0.00     0.000 A 
ENDBRANCH   9  12
BRANCH   8  18
ATOM     18  C   UNL     1     115.429 138.089 139.153  1.00  0.00    -0.018 A 
ATOM     19  C   UNL     1     114.278 138.063 138.421  1.00  0.00     0.009 A 
ATOM     20  C   UNL     1     116.363 139.080 138.838  1.00  0.00     0.009 A 
ATOM     21  C   UNL     1     114.055 138.993 137.403  1.00  0.00     0.001 A 
ATOM     22  C   UNL     1     116.144 139.995 137.835  1.00  0.00     0.001 A 
ATOM     23  C   UNL     1     114.980 139.969 137.095  1.00  0.00     0.000 A 
ENDBRANCH   8  18
ENDBRANCH   3   8
ENDBRANCH   1   2
BRANCH   1  24
ATOM     24  C   UNL     1     113.324 138.710 146.428  1.00  0.00     0.245 C 
BRANCH  24  25
ATOM     25  C   UNL     1     113.695 138.538 147.873  1.00  0.00     0.125 C 
BRANCH  25  26
ATOM     26  N   UNL     1     114.188 137.268 148.241  1.00  0.00    -0.306 NA
ATOM     27  C   UNL     1     114.536 137.094 149.622  1.00  0.00     0.105 C 
ATOM     28  C   UNL     1     113.323 136.215 147.818  1.00  0.00     0.105 C 
ENDBRANCH  25  26
ENDBRANCH  24  25
ENDBRANCH   1  24
TORSDOF 8
ENDMDL
