MODEL 1
REMARK VINA RESULT:     -10.9      0.000      0.000
REMARK SMILES O=c1cc(-c2ccccc2)oc2cc([O-])c(O)c([O-])c12
REMARK SMILES IDX 1 1 2 2 3 3 4 4 11 5 12 6 13 7 14 8 15 9 16 10 18 11 19 12
REMARK SMILES IDX 20 13 5 14 6 15 10 16 7 17 9 18 8 19 17 20
REMARK H PARENT 17 21
ROOT
ATOM      1  O   UNL     1     -17.264  18.986 -20.851  1.00  0.00    -0.289 OA
ATOM      2  C   UNL     1     -18.026  19.788 -20.260  1.00  0.00     0.192 A 
ATOM      3  C   UNL     1     -17.751  21.157 -20.182  1.00  0.00     0.100 A 
ATOM      4  C   UNL     1     -18.570  22.047 -19.541  1.00  0.00     0.138 A 
ATOM      5  O   UNL     1     -19.655  21.540 -18.988  1.00  0.00    -0.456 OA
ATOM      6  C   UNL     1     -19.971  20.271 -19.024  1.00  0.00     0.137 A 
ATOM      7  C   UNL     1     -21.140  19.799 -18.416  1.00  0.00     0.043 A 
ATOM      8  C   UNL     1     -21.457  18.471 -18.461  1.00  0.00    -0.063 A 
ATOM      9  O   UNL     1     -22.632  18.061 -17.837  1.00  0.00    -0.870 OA
ATOM     10  C   UNL     1     -20.661  17.541 -19.095  1.00  0.00     0.100 A 
ATOM     11  C   UNL     1     -19.517  17.985 -19.694  1.00  0.00    -0.051 A 
ATOM     12  O   UNL     1     -18.710  17.065 -20.333  1.00  0.00    -0.869 OA
ATOM     13  C   UNL     1     -19.178  19.338 -19.657  1.00  0.00     0.060 A 
ENDROOT
BRANCH   4  14
ATOM     14  C   UNL     1     -18.263  23.464 -19.474  1.00  0.00     0.017 A 
ATOM     15  C   UNL     1     -19.028  24.398 -18.833  1.00  0.00     0.012 A 
ATOM     16  C   UNL     1     -17.104  23.926 -20.104  1.00  0.00     0.012 A 
ATOM     17  C   UNL     1     -18.665  25.753 -18.812  1.00  0.00     0.001 A 
ATOM     18  C   UNL     1     -16.742  25.256 -20.086  1.00  0.00     0.001 A 
ATOM     19  C   UNL     1     -17.520  26.189 -19.438  1.00  0.00     0.000 A 
ENDBRANCH   4  14
BRANCH  10  20
ATOM     20  O   UNL     1     -21.033  16.192 -19.112  1.00  0.00    -0.509 OA
ATOM     21  H   UNL     1     -21.980  15.952 -19.411  1.00  0.00     0.293 HD
ENDBRANCH  10  20
TORSDOF 2
ENDMDL
MODEL 2
REMARK VINA RESULT:     -10.9      0.122      1.060
REMARK SMILES O=c1cc(-c2ccccc2)oc2cc([O-])c(O)c([O-])c12
REMARK SMILES IDX 1 1 2 2 3 3 4 4 11 5 12 6 13 7 14 8 15 9 16 10 18 11 19 12
REMARK SMILES IDX 20 13 5 14 6 15 10 16 7 17 9 18 8 19 17 20
REMARK H PARENT 17 21
ROOT
ATOM      1  O   UNL     1     -17.294  18.840 -20.837  1.00  0.00    -0.289 OA
ATOM      2  C   UNL     1     -18.023  19.688 -20.267  1.00  0.00     0.192 A 
ATOM      3  C   UNL     1     -17.693  21.047 -20.228  1.00  0.00     0.100 A 
ATOM      4  C   UNL     1     -18.474  21.986 -19.611  1.00  0.00     0.138 A 
ATOM      5  O   UNL     1     -19.578  21.539 -19.044  1.00  0.00    -0.456 OA
ATOM      6  C   UNL     1     -19.944  20.283 -19.045  1.00  0.00     0.137 A 
ATOM      7  C   UNL     1     -21.131  19.875 -18.423  1.00  0.00     0.043 A 
ATOM      8  C   UNL     1     -21.501  18.561 -18.431  1.00  0.00    -0.063 A 
ATOM      9  O   UNL     1     -22.691  18.215 -17.796  1.00  0.00    -0.870 OA
ATOM     10  C   UNL     1     -20.744  17.582 -19.040  1.00  0.00     0.100 A 
ATOM     11  C   UNL     1     -19.584  17.962 -19.652  1.00  0.00    -0.051 A 
ATOM     12  O   UNL     1     -18.816  16.994 -20.265  1.00  0.00    -0.869 OA
ATOM     13  C   UNL     1     -19.191  19.301 -19.652  1.00  0.00     0.060 A 
ENDROOT
BRANCH   4  14
ATOM     14  C   UNL     1     -18.111  23.391 -19.584  1.00  0.00     0.017 A 
ATOM     15  C   UNL     1     -16.997  23.920 -20.174  1.00  0.00     0.012 A 
ATOM     16  C   UNL     1     -18.948  24.284 -18.909  1.00  0.00     0.012 A 
ATOM     17  C   UNL     1     -16.712  25.292 -20.104  1.00  0.00     0.001 A 
ATOM     18  C   UNL     1     -18.674  25.633 -18.837  1.00  0.00     0.001 A 
ATOM     19  C   UNL     1     -17.549  26.155 -19.435  1.00  0.00     0.000 A 
ENDBRANCH   4  14
BRANCH  10  20
ATOM     20  O   UNL     1     -21.170  16.249 -19.019  1.00  0.00    -0.509 OA
ATOM     21  H   UNL     1     -20.956  15.683 -18.196  1.00  0.00     0.293 HD
ENDBRANCH  10  20
TORSDOF 2
ENDMDL
MODEL 3
REMARK VINA RESULT:     -10.5      2.530      6.765
REMARK SMILES O=c1cc(-c2ccccc2)oc2cc([O-])c(O)c([O-])c12
REMARK SMILES IDX 1 1 2 2 3 3 4 4 11 5 12 6 13 7 14 8 15 9 16 10 18 11 19 12
REMARK SMILES IDX 20 13 5 14 6 15 10 16 7 17 9 18 8 19 17 20
REMARK H PARENT 17 21
ROOT
ATOM      1  O   UNL     1     -18.583  24.484 -18.971  1.00  0.00    -0.289 OA
ATOM      2  C   UNL     1     -18.385  23.311 -19.372  1.00  0.00     0.192 A 
ATOM      3  C   UNL     1     -19.249  22.259 -19.051  1.00  0.00     0.100 A 
ATOM      4  C   UNL     1     -19.050  20.974 -19.478  1.00  0.00     0.138 A 
ATOM      5  O   UNL     1     -17.981  20.771 -20.223  1.00  0.00    -0.456 OA
ATOM      6  C   UNL     1     -17.134  21.710 -20.560  1.00  0.00     0.137 A 
ATOM      7  C   UNL     1     -16.018  21.426 -21.356  1.00  0.00     0.043 A 
ATOM      8  C   UNL     1     -15.141  22.416 -21.700  1.00  0.00    -0.063 A 
ATOM      9  O   UNL     1     -14.050  22.073 -22.493  1.00  0.00    -0.870 OA
ATOM     10  C   UNL     1     -15.304  23.723 -21.291  1.00  0.00     0.100 A 
ATOM     11  C   UNL     1     -16.387  24.017 -20.515  1.00  0.00    -0.051 A 
ATOM     12  O   UNL     1     -16.563  25.321 -20.098  1.00  0.00    -0.869 OA
ATOM     13  C   UNL     1     -17.292  23.018 -20.154  1.00  0.00     0.060 A 
ENDROOT
BRANCH   4  14
ATOM     14  C   UNL     1     -19.960  19.899 -19.131  1.00  0.00     0.017 A 
ATOM     15  C   UNL     1     -20.925  19.973 -18.166  1.00  0.00     0.012 A 
ATOM     16  C   UNL     1     -19.859  18.689 -19.825  1.00  0.00     0.012 A 
ATOM     17  C   UNL     1     -21.769  18.889 -17.887  1.00  0.00     0.001 A 
ATOM     18  C   UNL     1     -20.687  17.620 -19.556  1.00  0.00     0.001 A 
ATOM     19  C   UNL     1     -21.655  17.706 -18.581  1.00  0.00     0.000 A 
ENDBRANCH   4  14
BRANCH  10  20
ATOM     20  O   UNL     1     -14.376  24.699 -21.672  1.00  0.00    -0.509 OA
ATOM     21  H   UNL     1     -14.553  25.232 -22.526  1.00  0.00     0.293 HD
ENDBRANCH  10  20
TORSDOF 2
ENDMDL
MODEL 4
REMARK VINA RESULT:     -10.5      2.512      6.823
REMARK SMILES O=c1cc(-c2ccccc2)oc2cc([O-])c(O)c([O-])c12
REMARK SMILES IDX 1 1 2 2 3 3 4 4 11 5 12 6 13 7 14 8 15 9 16 10 18 11 19 12
REMARK SMILES IDX 20 13 5 14 6 15 10 16 7 17 9 18 8 19 17 20
REMARK H PARENT 17 21
ROOT
ATOM      1  O   UNL     1     -18.586  24.372 -18.965  1.00  0.00    -0.289 OA
ATOM      2  C   UNL     1     -18.381  23.206 -19.383  1.00  0.00     0.192 A 
ATOM      3  C   UNL     1     -19.236  22.143 -19.075  1.00  0.00     0.100 A 
ATOM      4  C   UNL     1     -19.029  20.866 -19.520  1.00  0.00     0.138 A 
ATOM      5  O   UNL     1     -17.961  20.681 -20.270  1.00  0.00    -0.456 OA
ATOM      6  C   UNL     1     -17.121  21.630 -20.595  1.00  0.00     0.137 A 
ATOM      7  C   UNL     1     -16.004  21.365 -21.397  1.00  0.00     0.043 A 
ATOM      8  C   UNL     1     -15.135  22.365 -21.728  1.00  0.00    -0.063 A 
ATOM      9  O   UNL     1     -14.043  22.040 -22.528  1.00  0.00    -0.870 OA
ATOM     10  C   UNL     1     -15.306  23.665 -21.301  1.00  0.00     0.100 A 
ATOM     11  C   UNL     1     -16.390  23.941 -20.519  1.00  0.00    -0.051 A 
ATOM     12  O   UNL     1     -16.574  25.238 -20.084  1.00  0.00    -0.869 OA
ATOM     13  C   UNL     1     -17.287  22.931 -20.171  1.00  0.00     0.060 A 
ENDROOT
BRANCH   4  14
ATOM     14  C   UNL     1     -19.932  19.779 -19.186  1.00  0.00     0.017 A 
ATOM     15  C   UNL     1     -19.907  18.540 -19.761  1.00  0.00     0.012 A 
ATOM     16  C   UNL     1     -20.905  19.997 -18.207  1.00  0.00     0.012 A 
ATOM     17  C   UNL     1     -20.814  17.539 -19.386  1.00  0.00     0.001 A 
ATOM     18  C   UNL     1     -21.799  19.017 -17.833  1.00  0.00     0.001 A 
ATOM     19  C   UNL     1     -21.765  17.772 -18.419  1.00  0.00     0.000 A 
ENDBRANCH   4  14
BRANCH  10  20
ATOM     20  O   UNL     1     -14.385  24.652 -21.670  1.00  0.00    -0.509 OA
ATOM     21  H   UNL     1     -14.562  25.189 -22.522  1.00  0.00     0.293 HD
ENDBRANCH  10  20
TORSDOF 2
ENDMDL
MODEL 5
REMARK VINA RESULT:     -10.4      2.042      6.314
REMARK SMILES O=c1cc(-c2ccccc2)oc2cc([O-])c(O)c([O-])c12
REMARK SMILES IDX 1 1 2 2 3 3 4 4 11 5 12 6 13 7 14 8 15 9 16 10 18 11 19 12
REMARK SMILES IDX 20 13 5 14 6 15 10 16 7 17 9 18 8 19 17 20
REMARK H PARENT 17 21
ROOT
ATOM      1  O   UNL     1     -16.536  20.365 -21.250  1.00  0.00    -0.289 OA
ATOM      2  C   UNL     1     -17.515  20.722 -20.551  1.00  0.00     0.192 A 
ATOM      3  C   UNL     1     -18.513  19.826 -20.153  1.00  0.00     0.100 A 
ATOM      4  C   UNL     1     -19.588  20.197 -19.392  1.00  0.00     0.138 A 
ATOM      5  O   UNL     1     -19.639  21.468 -19.043  1.00  0.00    -0.456 OA
ATOM      6  C   UNL     1     -18.740  22.357 -19.381  1.00  0.00     0.137 A 
ATOM      7  C   UNL     1     -18.855  23.692 -18.976  1.00  0.00     0.043 A 
ATOM      8  C   UNL     1     -17.909  24.609 -19.336  1.00  0.00    -0.063 A 
ATOM      9  O   UNL     1     -18.077  25.922 -18.904  1.00  0.00    -0.870 OA
ATOM     10  C   UNL     1     -16.811  24.278 -20.102  1.00  0.00     0.100 A 
ATOM     11  C   UNL     1     -16.683  22.981 -20.505  1.00  0.00    -0.051 A 
ATOM     12  O   UNL     1     -15.590  22.634 -21.272  1.00  0.00    -0.869 OA
ATOM     13  C   UNL     1     -17.641  22.031 -20.146  1.00  0.00     0.060 A 
ENDROOT
BRANCH   4  14
ATOM     14  C   UNL     1     -20.611  19.249 -18.992  1.00  0.00     0.017 A 
ATOM     15  C   UNL     1     -21.573  19.489 -18.051  1.00  0.00     0.012 A 
ATOM     16  C   UNL     1     -20.631  17.992 -19.603  1.00  0.00     0.012 A 
ATOM     17  C   UNL     1     -22.530  18.520 -17.717  1.00  0.00     0.001 A 
ATOM     18  C   UNL     1     -21.570  17.035 -19.280  1.00  0.00     0.001 A 
ATOM     19  C   UNL     1     -22.534  17.288 -18.330  1.00  0.00     0.000 A 
ENDBRANCH   4  14
BRANCH  10  20
ATOM     20  O   UNL     1     -15.871  25.258 -20.442  1.00  0.00    -0.509 OA
ATOM     21  H   UNL     1     -15.307  25.672 -19.697  1.00  0.00     0.293 HD
ENDBRANCH  10  20
TORSDOF 2
ENDMDL
MODEL 6
REMARK VINA RESULT:     -10.3      2.017      6.377
REMARK SMILES O=c1cc(-c2ccccc2)oc2cc([O-])c(O)c([O-])c12
REMARK SMILES IDX 1 1 2 2 3 3 4 4 11 5 12 6 13 7 14 8 15 9 16 10 18 11 19 12
REMARK SMILES IDX 20 13 5 14 6 15 10 16 7 17 9 18 8 19 17 20
REMARK H PARENT 17 21
ROOT
ATOM      1  O   UNL     1     -16.401  20.393 -21.157  1.00  0.00    -0.289 OA
ATOM      2  C   UNL     1     -17.427  20.694 -20.500  1.00  0.00     0.192 A 
ATOM      3  C   UNL     1     -18.388  19.743 -20.141  1.00  0.00     0.100 A 
ATOM      4  C   UNL     1     -19.513  20.053 -19.426  1.00  0.00     0.138 A 
ATOM      5  O   UNL     1     -19.651  21.319 -19.084  1.00  0.00    -0.456 OA
ATOM      6  C   UNL     1     -18.792  22.257 -19.387  1.00  0.00     0.137 A 
ATOM      7  C   UNL     1     -18.999  23.584 -18.992  1.00  0.00     0.043 A 
ATOM      8  C   UNL     1     -18.094  24.554 -19.316  1.00  0.00    -0.063 A 
ATOM      9  O   UNL     1     -18.355  25.856 -18.896  1.00  0.00    -0.870 OA
ATOM     10  C   UNL     1     -16.948  24.286 -20.035  1.00  0.00     0.100 A 
ATOM     11  C   UNL     1     -16.729  22.997 -20.428  1.00  0.00    -0.051 A 
ATOM     12  O   UNL     1     -15.587  22.714 -21.148  1.00  0.00    -0.869 OA
ATOM     13  C   UNL     1     -17.645  21.995 -20.105  1.00  0.00     0.060 A 
ENDROOT
BRANCH   4  14
ATOM     14  C   UNL     1     -20.495  19.048 -19.065  1.00  0.00     0.017 A 
ATOM     15  C   UNL     1     -20.497  17.759 -19.520  1.00  0.00     0.012 A 
ATOM     16  C   UNL     1     -21.524  19.404 -18.188  1.00  0.00     0.012 A 
ATOM     17  C   UNL     1     -21.482  16.843 -19.125  1.00  0.00     0.001 A 
ATOM     18  C   UNL     1     -22.496  18.508 -17.796  1.00  0.00     0.001 A 
ATOM     19  C   UNL     1     -22.487  17.212 -18.261  1.00  0.00     0.000 A 
ENDBRANCH   4  14
BRANCH  10  20
ATOM     20  O   UNL     1     -16.052  25.318 -20.340  1.00  0.00    -0.509 OA
ATOM     21  H   UNL     1     -15.714  25.401 -21.300  1.00  0.00     0.293 HD
ENDBRANCH  10  20
TORSDOF 2
ENDMDL
MODEL 7
REMARK VINA RESULT:     -10.3      0.997      1.340
REMARK SMILES O=c1cc(-c2ccccc2)oc2cc([O-])c(O)c([O-])c12
REMARK SMILES IDX 1 1 2 2 3 3 4 4 11 5 12 6 13 7 14 8 15 9 16 10 18 11 19 12
REMARK SMILES IDX 20 13 5 14 6 15 10 16 7 17 9 18 8 19 17 20
REMARK H PARENT 17 21
ROOT
ATOM      1  O   UNL     1     -15.921  19.932 -21.209  1.00  0.00    -0.289 OA
ATOM      2  C   UNL     1     -16.898  20.476 -20.640  1.00  0.00     0.192 A 
ATOM      3  C   UNL     1     -16.960  21.857 -20.423  1.00  0.00     0.100 A 
ATOM      4  C   UNL     1     -18.016  22.468 -19.804  1.00  0.00     0.138 A 
ATOM      5  O   UNL     1     -18.995  21.675 -19.413  1.00  0.00    -0.456 OA
ATOM      6  C   UNL     1     -18.999  20.378 -19.584  1.00  0.00     0.137 A 
ATOM      7  C   UNL     1     -20.072  19.594 -19.145  1.00  0.00     0.043 A 
ATOM      8  C   UNL     1     -20.064  18.241 -19.330  1.00  0.00    -0.063 A 
ATOM      9  O   UNL     1     -21.159  17.513 -18.871  1.00  0.00    -0.870 OA
ATOM     10  C   UNL     1     -19.021  17.585 -19.948  1.00  0.00     0.100 A 
ATOM     11  C   UNL     1     -17.966  18.334 -20.384  1.00  0.00    -0.051 A 
ATOM     12  O   UNL     1     -16.914  17.692 -21.004  1.00  0.00    -0.869 OA
ATOM     13  C   UNL     1     -17.959  19.718 -20.202  1.00  0.00     0.060 A 
ENDROOT
BRANCH   4  14
ATOM     14  C   UNL     1     -18.057  23.902 -19.591  1.00  0.00     0.017 A 
ATOM     15  C   UNL     1     -19.038  24.561 -18.903  1.00  0.00     0.012 A 
ATOM     16  C   UNL     1     -17.027  24.686 -20.119  1.00  0.00     0.012 A 
ATOM     17  C   UNL     1     -19.009  25.954 -18.738  1.00  0.00     0.001 A 
ATOM     18  C   UNL     1     -16.992  26.055 -19.960  1.00  0.00     0.001 A 
ATOM     19  C   UNL     1     -17.986  26.708 -19.266  1.00  0.00     0.000 A 
ENDBRANCH   4  14
BRANCH  10  20
ATOM     20  O   UNL     1     -19.063  16.195 -20.113  1.00  0.00    -0.509 OA
ATOM     21  H   UNL     1     -18.183  15.694 -20.245  1.00  0.00     0.293 HD
ENDBRANCH  10  20
TORSDOF 2
ENDMDL
MODEL 8
REMARK VINA RESULT:     -10.1      1.168      2.868
REMARK SMILES O=c1cc(-c2ccccc2)oc2cc([O-])c(O)c([O-])c12
REMARK SMILES IDX 1 1 2 2 3 3 4 4 11 5 12 6 13 7 14 8 15 9 16 10 18 11 19 12
REMARK SMILES IDX 20 13 5 14 6 15 10 16 7 17 9 18 8 19 17 20
REMARK H PARENT 17 21
ROOT
ATOM      1  O   UNL     1     -21.402  20.653 -18.165  1.00  0.00    -0.289 OA
ATOM      2  C   UNL     1     -20.316  20.525 -18.783  1.00  0.00     0.192 A 
ATOM      3  C   UNL     1     -19.509  21.621 -19.105  1.00  0.00     0.100 A 
ATOM      4  C   UNL     1     -18.323  21.501 -19.778  1.00  0.00     0.138 A 
ATOM      5  O   UNL     1     -17.971  20.275 -20.115  1.00  0.00    -0.456 OA
ATOM      6  C   UNL     1     -18.679  19.209 -19.844  1.00  0.00     0.137 A 
ATOM      7  C   UNL     1     -18.245  17.936 -20.231  1.00  0.00     0.043 A 
ATOM      8  C   UNL     1     -18.995  16.831 -19.943  1.00  0.00    -0.063 A 
ATOM      9  O   UNL     1     -18.512  15.591 -20.353  1.00  0.00    -0.870 OA
ATOM     10  C   UNL     1     -20.195  16.906 -19.267  1.00  0.00     0.100 A 
ATOM     11  C   UNL     1     -20.632  18.141 -18.882  1.00  0.00    -0.051 A 
ATOM     12  O   UNL     1     -21.831  18.232 -18.205  1.00  0.00    -0.869 OA
ATOM     13  C   UNL     1     -19.878  19.279 -19.169  1.00  0.00     0.060 A 
ENDROOT
BRANCH   4  14
ATOM     14  C   UNL     1     -17.503  22.653 -20.102  1.00  0.00     0.017 A 
ATOM     15  C   UNL     1     -16.406  22.626 -20.917  1.00  0.00     0.012 A 
ATOM     16  C   UNL     1     -17.843  23.891 -19.549  1.00  0.00     0.012 A 
ATOM     17  C   UNL     1     -15.662  23.784 -21.184  1.00  0.00     0.001 A 
ATOM     18  C   UNL     1     -17.115  25.033 -19.807  1.00  0.00     0.001 A 
ATOM     19  C   UNL     1     -16.012  24.994 -20.630  1.00  0.00     0.000 A 
ENDBRANCH   4  14
BRANCH  10  20
ATOM     20  O   UNL     1     -20.923  15.742 -18.996  1.00  0.00    -0.509 OA
ATOM     21  H   UNL     1     -20.623  15.150 -18.220  1.00  0.00     0.293 HD
ENDBRANCH  10  20
TORSDOF 2
ENDMDL
MODEL 9
REMARK VINA RESULT:     -10.0      1.224      2.744
REMARK SMILES O=c1cc(-c2ccccc2)oc2cc([O-])c(O)c([O-])c12
REMARK SMILES IDX 1 1 2 2 3 3 4 4 11 5 12 6 13 7 14 8 15 9 16 10 18 11 19 12
REMARK SMILES IDX 20 13 5 14 6 15 10 16 7 17 9 18 8 19 17 20
REMARK H PARENT 17 21
ROOT
ATOM      1  O   UNL     1     -21.394  20.561 -18.145  1.00  0.00    -0.289 OA
ATOM      2  C   UNL     1     -20.313  20.444 -18.772  1.00  0.00     0.192 A 
ATOM      3  C   UNL     1     -19.516  21.547 -19.094  1.00  0.00     0.100 A 
ATOM      4  C   UNL     1     -18.335  21.440 -19.777  1.00  0.00     0.138 A 
ATOM      5  O   UNL     1     -17.976  20.219 -20.124  1.00  0.00    -0.456 OA
ATOM      6  C   UNL     1     -18.674  19.146 -19.854  1.00  0.00     0.137 A 
ATOM      7  C   UNL     1     -18.235  17.878 -20.252  1.00  0.00     0.043 A 
ATOM      8  C   UNL     1     -18.974  16.766 -19.964  1.00  0.00    -0.063 A 
ATOM      9  O   UNL     1     -18.486  15.532 -20.386  1.00  0.00    -0.870 OA
ATOM     10  C   UNL     1     -20.169  16.829 -19.279  1.00  0.00     0.100 A 
ATOM     11  C   UNL     1     -20.612  18.058 -18.883  1.00  0.00    -0.051 A 
ATOM     12  O   UNL     1     -21.807  18.137 -18.196  1.00  0.00    -0.869 OA
ATOM     13  C   UNL     1     -19.869  19.204 -19.170  1.00  0.00     0.060 A 
ENDROOT
BRANCH   4  14
ATOM     14  C   UNL     1     -17.525  22.600 -20.100  1.00  0.00     0.017 A 
ATOM     15  C   UNL     1     -17.721  23.854 -19.593  1.00  0.00     0.012 A 
ATOM     16  C   UNL     1     -16.462  22.444 -20.994  1.00  0.00     0.012 A 
ATOM     17  C   UNL     1     -16.894  24.928 -19.953  1.00  0.00     0.001 A 
ATOM     18  C   UNL     1     -15.645  23.495 -21.352  1.00  0.00     0.001 A 
ATOM     19  C   UNL     1     -15.852  24.754 -20.835  1.00  0.00     0.000 A 
ENDBRANCH   4  14
BRANCH  10  20
ATOM     20  O   UNL     1     -20.887  15.658 -19.009  1.00  0.00    -0.509 OA
ATOM     21  H   UNL     1     -20.851  14.897 -19.690  1.00  0.00     0.293 HD
ENDBRANCH  10  20
TORSDOF 2
ENDMDL
