MODEL 1
REMARK VINA RESULT:     -11.5      0.000      0.000
REMARK SMILES O=C1c2ccccc2C(=O)c2c1ccc(O)c2O
REMARK SMILES IDX 1 1 2 2 3 3 4 4 5 5 6 6 7 7 8 8 9 9 10 10 11 11 12 12 13 13
REMARK SMILES IDX 14 14 15 15 17 16 18 17 16 19
REMARK H PARENT 18 18 16 20
ROOT
ATOM      1  O   UNL     1     -15.008  22.409 -21.558  1.00  0.00    -0.289 OA
ATOM      2  C   UNL     1     -16.107  22.380 -20.936  1.00  0.00     0.194 C 
ATOM      3  C   UNL     1     -16.777  21.086 -20.727  1.00  0.00     0.034 A 
ATOM      4  C   UNL     1     -16.180  19.922 -21.221  1.00  0.00     0.013 A 
ATOM      5  C   UNL     1     -16.824  18.729 -21.014  1.00  0.00     0.001 A 
ATOM      6  C   UNL     1     -18.015  18.679 -20.342  1.00  0.00     0.001 A 
ATOM      7  C   UNL     1     -18.595  19.816 -19.860  1.00  0.00     0.013 A 
ATOM      8  C   UNL     1     -17.977  21.047 -20.049  1.00  0.00     0.034 A 
ATOM      9  C   UNL     1     -18.595  22.256 -19.535  1.00  0.00     0.198 C 
ATOM     10  O   UNL     1     -19.690  22.175 -18.922  1.00  0.00    -0.288 OA
ATOM     11  C   UNL     1     -17.936  23.530 -19.741  1.00  0.00     0.079 A 
ATOM     12  C   UNL     1     -16.728  23.592 -20.421  1.00  0.00     0.038 A 
ATOM     13  C   UNL     1     -16.092  24.801 -20.622  1.00  0.00     0.017 A 
ATOM     14  C   UNL     1     -16.693  25.931 -20.129  1.00  0.00     0.051 A 
ATOM     15  C   UNL     1     -17.894  25.875 -19.453  1.00  0.00     0.158 A 
ATOM     16  C   UNL     1     -18.530  24.692 -19.248  1.00  0.00     0.169 A 
ENDROOT
BRANCH  16  17
ATOM     17  O   UNL     1     -19.733  24.555 -18.580  1.00  0.00    -0.504 OA
ATOM     18  H   UNL     1     -20.495  25.196 -18.742  1.00  0.00     0.293 HD
ENDBRANCH  16  17
BRANCH  15  19
ATOM     19  O   UNL     1     -18.499  27.033 -18.954  1.00  0.00    -0.504 OA
ATOM     20  H   UNL     1     -18.979  27.682 -19.581  1.00  0.00     0.293 HD
ENDBRANCH  15  19
TORSDOF 2
ENDMDL
MODEL 2
REMARK VINA RESULT:     -11.2      1.475      5.014
REMARK SMILES O=C1c2ccccc2C(=O)c2c1ccc(O)c2O
REMARK SMILES IDX 1 1 2 2 3 3 4 4 5 5 6 6 7 7 8 8 9 9 10 10 11 11 12 12 13 13
REMARK SMILES IDX 14 14 15 15 17 16 18 17 16 19
REMARK H PARENT 18 18 16 20
ROOT
ATOM      1  O   UNL     1     -15.285  22.948 -21.375  1.00  0.00    -0.289 OA
ATOM      2  C   UNL     1     -16.357  22.675 -20.765  1.00  0.00     0.194 C 
ATOM      3  C   UNL     1     -17.119  23.765 -20.135  1.00  0.00     0.034 A 
ATOM      4  C   UNL     1     -16.639  25.075 -20.229  1.00  0.00     0.013 A 
ATOM      5  C   UNL     1     -17.368  26.073 -19.633  1.00  0.00     0.001 A 
ATOM      6  C   UNL     1     -18.530  25.795 -18.968  1.00  0.00     0.001 A 
ATOM      7  C   UNL     1     -18.997  24.517 -18.878  1.00  0.00     0.013 A 
ATOM      8  C   UNL     1     -18.289  23.475 -19.466  1.00  0.00     0.034 A 
ATOM      9  C   UNL     1     -18.788  22.114 -19.370  1.00  0.00     0.198 C 
ATOM     10  O   UNL     1     -19.860  21.893 -18.751  1.00  0.00    -0.288 OA
ATOM     11  C   UNL     1     -18.038  21.041 -19.990  1.00  0.00     0.079 A 
ATOM     12  C   UNL     1     -16.857  21.311 -20.667  1.00  0.00     0.038 A 
ATOM     13  C   UNL     1     -16.135  20.295 -21.262  1.00  0.00     0.017 A 
ATOM     14  C   UNL     1     -16.622  19.017 -21.159  1.00  0.00     0.051 A 
ATOM     15  C   UNL     1     -17.796  18.743 -20.486  1.00  0.00     0.158 A 
ATOM     16  C   UNL     1     -18.516  19.733 -19.898  1.00  0.00     0.169 A 
ENDROOT
BRANCH  16  17
ATOM     17  O   UNL     1     -19.698  19.537 -19.208  1.00  0.00    -0.504 OA
ATOM     18  H   UNL     1     -19.857  19.970 -18.311  1.00  0.00     0.293 HD
ENDBRANCH  16  17
BRANCH  15  19
ATOM     19  O   UNL     1     -18.285  17.436 -20.387  1.00  0.00    -0.504 OA
ATOM     20  H   UNL     1     -18.438  17.005 -19.473  1.00  0.00     0.293 HD
ENDBRANCH  15  19
TORSDOF 2
ENDMDL
MODEL 3
REMARK VINA RESULT:     -11.1      1.321      3.607
REMARK SMILES O=C1c2ccccc2C(=O)c2c1ccc(O)c2O
REMARK SMILES IDX 1 1 2 2 3 3 4 4 5 5 6 6 7 7 8 8 9 9 10 10 11 11 12 12 13 13
REMARK SMILES IDX 14 14 15 15 17 16 18 17 16 19
REMARK H PARENT 18 18 16 20
ROOT
ATOM      1  O   UNL     1     -19.279  23.623 -18.781  1.00  0.00    -0.289 OA
ATOM      2  C   UNL     1     -18.527  22.850 -19.438  1.00  0.00     0.194 C 
ATOM      3  C   UNL     1     -18.848  21.414 -19.492  1.00  0.00     0.034 A 
ATOM      4  C   UNL     1     -19.978  20.944 -18.815  1.00  0.00     0.013 A 
ATOM      5  C   UNL     1     -20.256  19.602 -18.880  1.00  0.00     0.001 A 
ATOM      6  C   UNL     1     -19.453  18.750 -19.588  1.00  0.00     0.001 A 
ATOM      7  C   UNL     1     -18.352  19.211 -20.248  1.00  0.00     0.013 A 
ATOM      8  C   UNL     1     -18.032  20.564 -20.207  1.00  0.00     0.034 A 
ATOM      9  C   UNL     1     -16.860  21.054 -20.911  1.00  0.00     0.198 C 
ATOM     10  O   UNL     1     -16.143  20.244 -21.552  1.00  0.00    -0.288 OA
ATOM     11  C   UNL     1     -16.543  22.467 -20.858  1.00  0.00     0.079 A 
ATOM     12  C   UNL     1     -17.351  23.340 -20.143  1.00  0.00     0.038 A 
ATOM     13  C   UNL     1     -17.058  24.689 -20.087  1.00  0.00     0.017 A 
ATOM     14  C   UNL     1     -15.946  25.131 -20.758  1.00  0.00     0.051 A 
ATOM     15  C   UNL     1     -15.139  24.267 -21.469  1.00  0.00     0.158 A 
ATOM     16  C   UNL     1     -15.417  22.939 -21.533  1.00  0.00     0.169 A 
ENDROOT
BRANCH  16  17
ATOM     17  O   UNL     1     -14.658  22.012 -22.224  1.00  0.00    -0.504 OA
ATOM     18  H   UNL     1     -15.073  21.414 -22.921  1.00  0.00     0.293 HD
ENDBRANCH  16  17
BRANCH  15  19
ATOM     19  O   UNL     1     -14.007  24.728 -22.150  1.00  0.00    -0.504 OA
ATOM     20  H   UNL     1     -13.939  25.704 -22.444  1.00  0.00     0.293 HD
ENDBRANCH  15  19
TORSDOF 2
ENDMDL
MODEL 4
REMARK VINA RESULT:     -11.0      1.927      5.443
REMARK SMILES O=C1c2ccccc2C(=O)c2c1ccc(O)c2O
REMARK SMILES IDX 1 1 2 2 3 3 4 4 5 5 6 6 7 7 8 8 9 9 10 10 11 11 12 12 13 13
REMARK SMILES IDX 14 14 15 15 17 16 18 17 16 19
REMARK H PARENT 18 18 16 20
ROOT
ATOM      1  O   UNL     1     -19.253  23.805 -18.791  1.00  0.00    -0.289 OA
ATOM      2  C   UNL     1     -18.532  22.974 -19.411  1.00  0.00     0.194 C 
ATOM      3  C   UNL     1     -17.333  23.453 -20.117  1.00  0.00     0.034 A 
ATOM      4  C   UNL     1     -17.021  24.816 -20.083  1.00  0.00     0.013 A 
ATOM      5  C   UNL     1     -15.899  25.237 -20.749  1.00  0.00     0.001 A 
ATOM      6  C   UNL     1     -15.107  24.351 -21.425  1.00  0.00     0.001 A 
ATOM      7  C   UNL     1     -15.412  23.022 -21.457  1.00  0.00     0.013 A 
ATOM      8  C   UNL     1     -16.541  22.552 -20.797  1.00  0.00     0.034 A 
ATOM      9  C   UNL     1     -16.865  21.136 -20.831  1.00  0.00     0.198 C 
ATOM     10  O   UNL     1     -16.116  20.348 -21.462  1.00  0.00    -0.288 OA
ATOM     11  C   UNL     1     -18.046  20.664 -20.136  1.00  0.00     0.079 A 
ATOM     12  C   UNL     1     -18.856  21.555 -19.446  1.00  0.00     0.038 A 
ATOM     13  C   UNL     1     -19.983  21.114 -18.781  1.00  0.00     0.017 A 
ATOM     14  C   UNL     1     -20.272  19.774 -18.826  1.00  0.00     0.051 A 
ATOM     15  C   UNL     1     -19.470  18.885 -19.511  1.00  0.00     0.158 A 
ATOM     16  C   UNL     1     -18.358  19.305 -20.169  1.00  0.00     0.169 A 
ENDROOT
BRANCH  16  17
ATOM     17  O   UNL     1     -17.506  18.475 -20.875  1.00  0.00    -0.504 OA
ATOM     18  H   UNL     1     -17.682  17.485 -20.945  1.00  0.00     0.293 HD
ENDBRANCH  16  17
BRANCH  15  19
ATOM     19  O   UNL     1     -19.772  17.519 -19.550  1.00  0.00    -0.504 OA
ATOM     20  H   UNL     1     -20.161  17.049 -18.731  1.00  0.00     0.293 HD
ENDBRANCH  15  19
TORSDOF 2
ENDMDL
MODEL 5
REMARK VINA RESULT:     -11.0      1.380      4.773
REMARK SMILES O=C1c2ccccc2C(=O)c2c1ccc(O)c2O
REMARK SMILES IDX 1 1 2 2 3 3 4 4 5 5 6 6 7 7 8 8 9 9 10 10 11 11 12 12 13 13
REMARK SMILES IDX 14 14 15 15 17 16 18 17 16 19
REMARK H PARENT 18 18 16 20
ROOT
ATOM      1  O   UNL     1     -15.682  20.712 -21.718  1.00  0.00    -0.289 OA
ATOM      2  C   UNL     1     -16.573  21.285 -21.030  1.00  0.00     0.194 C 
ATOM      3  C   UNL     1     -16.481  22.737 -20.806  1.00  0.00     0.034 A 
ATOM      4  C   UNL     1     -15.411  23.445 -21.363  1.00  0.00     0.013 A 
ATOM      5  C   UNL     1     -15.348  24.797 -21.139  1.00  0.00     0.001 A 
ATOM      6  C   UNL     1     -16.304  25.434 -20.396  1.00  0.00     0.001 A 
ATOM      7  C   UNL     1     -17.347  24.741 -19.855  1.00  0.00     0.013 A 
ATOM      8  C   UNL     1     -17.449  23.369 -20.055  1.00  0.00     0.034 A 
ATOM      9  C   UNL     1     -18.560  22.633 -19.479  1.00  0.00     0.198 C 
ATOM     10  O   UNL     1     -19.422  23.248 -18.801  1.00  0.00    -0.288 OA
ATOM     11  C   UNL     1     -18.651  21.203 -19.698  1.00  0.00     0.079 A 
ATOM     12  C   UNL     1     -17.687  20.547 -20.451  1.00  0.00     0.038 A 
ATOM     13  C   UNL     1     -17.765  19.185 -20.666  1.00  0.00     0.017 A 
ATOM     14  C   UNL     1     -18.821  18.508 -20.113  1.00  0.00     0.051 A 
ATOM     15  C   UNL     1     -19.782  19.156 -19.363  1.00  0.00     0.158 A 
ATOM     16  C   UNL     1     -19.717  20.495 -19.145  1.00  0.00     0.169 A 
ENDROOT
BRANCH  16  17
ATOM     17  O   UNL     1     -20.641  21.213 -18.407  1.00  0.00    -0.504 OA
ATOM     18  H   UNL     1     -21.627  21.014 -18.470  1.00  0.00     0.293 HD
ENDBRANCH  16  17
BRANCH  15  19
ATOM     19  O   UNL     1     -20.857  18.456 -18.803  1.00  0.00    -0.504 OA
ATOM     20  H   UNL     1     -21.377  17.772 -19.356  1.00  0.00     0.293 HD
ENDBRANCH  15  19
TORSDOF 2
ENDMDL
MODEL 6
REMARK VINA RESULT:     -10.7      1.070      2.873
REMARK SMILES O=C1c2ccccc2C(=O)c2c1ccc(O)c2O
REMARK SMILES IDX 1 1 2 2 3 3 4 4 5 5 6 6 7 7 8 8 9 9 10 10 11 11 12 12 13 13
REMARK SMILES IDX 14 14 15 15 17 16 18 17 16 19
REMARK H PARENT 18 18 16 20
ROOT
ATOM      1  O   UNL     1     -19.928  21.552 -18.715  1.00  0.00    -0.289 OA
ATOM      2  C   UNL     1     -18.896  21.972 -19.310  1.00  0.00     0.194 C 
ATOM      3  C   UNL     1     -18.031  21.008 -20.010  1.00  0.00     0.034 A 
ATOM      4  C   UNL     1     -18.374  19.652 -19.998  1.00  0.00     0.013 A 
ATOM      5  C   UNL     1     -17.551  18.775 -20.657  1.00  0.00     0.001 A 
ATOM      6  C   UNL     1     -16.430  19.212 -21.307  1.00  0.00     0.001 A 
ATOM      7  C   UNL     1     -16.098  20.535 -21.317  1.00  0.00     0.013 A 
ATOM      8  C   UNL     1     -16.903  21.459 -20.661  1.00  0.00     0.034 A 
ATOM      9  C   UNL     1     -16.549  22.868 -20.674  1.00  0.00     0.198 C 
ATOM     10  O   UNL     1     -15.511  23.237 -21.281  1.00  0.00    -0.288 OA
ATOM     11  C   UNL     1     -17.400  23.817 -19.985  1.00  0.00     0.079 A 
ATOM     12  C   UNL     1     -18.540  23.384 -19.322  1.00  0.00     0.038 A 
ATOM     13  C   UNL     1     -19.358  24.281 -18.664  1.00  0.00     0.017 A 
ATOM     14  C   UNL     1     -19.006  25.606 -18.686  1.00  0.00     0.051 A 
ATOM     15  C   UNL     1     -17.873  26.042 -19.343  1.00  0.00     0.158 A 
ATOM     16  C   UNL     1     -17.061  25.170 -19.996  1.00  0.00     0.169 A 
ENDROOT
BRANCH  16  17
ATOM     17  O   UNL     1     -15.911  25.530 -20.676  1.00  0.00    -0.504 OA
ATOM     18  H   UNL     1     -15.277  26.217 -20.299  1.00  0.00     0.293 HD
ENDBRANCH  16  17
BRANCH  15  19
ATOM     19  O   UNL     1     -17.522  27.396 -19.361  1.00  0.00    -0.504 OA
ATOM     20  H   UNL     1     -16.918  27.787 -18.636  1.00  0.00     0.293 HD
ENDBRANCH  15  19
TORSDOF 2
ENDMDL
MODEL 7
REMARK VINA RESULT:     -10.5      1.440      5.731
REMARK SMILES O=C1c2ccccc2C(=O)c2c1ccc(O)c2O
REMARK SMILES IDX 1 1 2 2 3 3 4 4 5 5 6 6 7 7 8 8 9 9 10 10 11 11 12 12 13 13
REMARK SMILES IDX 14 14 15 15 17 16 18 17 16 19
REMARK H PARENT 18 18 16 20
ROOT
ATOM      1  O   UNL     1     -19.993  22.267 -18.660  1.00  0.00    -0.289 OA
ATOM      2  C   UNL     1     -18.911  22.476 -19.279  1.00  0.00     0.194 C 
ATOM      3  C   UNL     1     -18.393  23.851 -19.372  1.00  0.00     0.034 A 
ATOM      4  C   UNL     1     -19.111  24.891 -18.773  1.00  0.00     0.013 A 
ATOM      5  C   UNL     1     -18.608  26.163 -18.874  1.00  0.00     0.001 A 
ATOM      6  C   UNL     1     -17.438  26.406 -19.541  1.00  0.00     0.001 A 
ATOM      7  C   UNL     1     -16.740  25.391 -20.124  1.00  0.00     0.013 A 
ATOM      8  C   UNL     1     -17.214  24.086 -20.047  1.00  0.00     0.034 A 
ATOM      9  C   UNL     1     -16.469  23.005 -20.668  1.00  0.00     0.198 C 
ATOM     10  O   UNL     1     -15.398  23.263 -21.273  1.00  0.00    -0.288 OA
ATOM     11  C   UNL     1     -16.979  21.651 -20.576  1.00  0.00     0.079 A 
ATOM     12  C   UNL     1     -18.164  21.393 -19.903  1.00  0.00     0.038 A 
ATOM     13  C   UNL     1     -18.658  20.106 -19.809  1.00  0.00     0.017 A 
ATOM     14  C   UNL     1     -17.940  19.100 -20.403  1.00  0.00     0.051 A 
ATOM     15  C   UNL     1     -16.761  19.352 -21.075  1.00  0.00     0.158 A 
ATOM     16  C   UNL     1     -16.264  20.613 -21.173  1.00  0.00     0.169 A 
ENDROOT
BRANCH  16  17
ATOM     17  O   UNL     1     -15.091  20.943 -21.827  1.00  0.00    -0.504 OA
ATOM     18  H   UNL     1     -14.361  20.262 -21.964  1.00  0.00     0.293 HD
ENDBRANCH  16  17
BRANCH  15  19
ATOM     19  O   UNL     1     -16.035  18.318 -21.677  1.00  0.00    -0.504 OA
ATOM     20  H   UNL     1     -15.043  18.435 -21.890  1.00  0.00     0.293 HD
ENDBRANCH  15  19
TORSDOF 2
ENDMDL
MODEL 8
REMARK VINA RESULT:     -10.4      1.757      4.935
REMARK SMILES O=C1c2ccccc2C(=O)c2c1ccc(O)c2O
REMARK SMILES IDX 1 1 2 2 3 3 4 4 5 5 6 6 7 7 8 8 9 9 10 10 11 11 12 12 13 13
REMARK SMILES IDX 14 14 15 15 17 16 18 17 16 19
REMARK H PARENT 18 18 16 20
ROOT
ATOM      1  O   UNL     1     -16.177  19.286 -21.486  1.00  0.00    -0.289 OA
ATOM      2  C   UNL     1     -16.960  20.065 -20.874  1.00  0.00     0.194 C 
ATOM      3  C   UNL     1     -16.625  21.495 -20.787  1.00  0.00     0.034 A 
ATOM      4  C   UNL     1     -15.448  21.956 -21.387  1.00  0.00     0.013 A 
ATOM      5  C   UNL     1     -15.158  23.294 -21.292  1.00  0.00     0.001 A 
ATOM      6  C   UNL     1     -15.995  24.151 -20.632  1.00  0.00     0.001 A 
ATOM      7  C   UNL     1     -17.142  23.699 -20.048  1.00  0.00     0.013 A 
ATOM      8  C   UNL     1     -17.474  22.351 -20.119  1.00  0.00     0.034 A 
ATOM      9  C   UNL     1     -18.696  21.871 -19.498  1.00  0.00     0.198 C 
ATOM     10  O   UNL     1     -19.444  22.686 -18.899  1.00  0.00    -0.288 OA
ATOM     11  C   UNL     1     -19.027  20.463 -19.582  1.00  0.00     0.079 A 
ATOM     12  C   UNL     1     -18.185  19.584 -20.250  1.00  0.00     0.038 A 
ATOM     13  C   UNL     1     -18.491  18.241 -20.336  1.00  0.00     0.017 A 
ATOM     14  C   UNL     1     -19.649  17.807 -19.742  1.00  0.00     0.051 A 
ATOM     15  C   UNL     1     -20.489  18.677 -19.077  1.00  0.00     0.158 A 
ATOM     16  C   UNL     1     -20.200  20.001 -18.986  1.00  0.00     0.169 A 
ENDROOT
BRANCH  16  17
ATOM     17  O   UNL     1     -20.991  20.932 -18.338  1.00  0.00    -0.504 OA
ATOM     18  H   UNL     1     -21.383  20.741 -17.429  1.00  0.00     0.293 HD
ENDBRANCH  16  17
BRANCH  15  19
ATOM     19  O   UNL     1     -21.669  18.226 -18.475  1.00  0.00    -0.504 OA
ATOM     20  H   UNL     1     -22.413  17.809 -19.037  1.00  0.00     0.293 HD
ENDBRANCH  15  19
TORSDOF 2
ENDMDL
MODEL 9
REMARK VINA RESULT:     -10.3      1.565      2.370
REMARK SMILES O=C1c2ccccc2C(=O)c2c1ccc(O)c2O
REMARK SMILES IDX 1 1 2 2 3 3 4 4 5 5 6 6 7 7 8 8 9 9 10 10 11 11 12 12 13 13
REMARK SMILES IDX 14 14 15 15 17 16 18 17 16 19
REMARK H PARENT 18 18 16 20
ROOT
ATOM      1  O   UNL     1     -16.222  19.305 -21.423  1.00  0.00    -0.289 OA
ATOM      2  C   UNL     1     -17.027  20.074 -20.826  1.00  0.00     0.194 C 
ATOM      3  C   UNL     1     -18.253  19.512 -20.239  1.00  0.00     0.034 A 
ATOM      4  C   UNL     1     -18.497  18.139 -20.356  1.00  0.00     0.013 A 
ATOM      5  C   UNL     1     -19.647  17.640 -19.801  1.00  0.00     0.001 A 
ATOM      6  C   UNL     1     -20.529  18.458 -19.151  1.00  0.00     0.001 A 
ATOM      7  C   UNL     1     -20.290  19.796 -19.038  1.00  0.00     0.013 A 
ATOM      8  C   UNL     1     -19.136  20.346 -19.587  1.00  0.00     0.034 A 
ATOM      9  C   UNL     1     -18.882  21.770 -19.464  1.00  0.00     0.198 C 
ATOM     10  O   UNL     1     -19.713  22.495 -18.861  1.00  0.00    -0.288 OA
ATOM     11  C   UNL     1     -17.674  22.325 -20.042  1.00  0.00     0.079 A 
ATOM     12  C   UNL     1     -16.773  21.503 -20.704  1.00  0.00     0.038 A 
ATOM     13  C   UNL     1     -15.619  22.022 -21.257  1.00  0.00     0.017 A 
ATOM     14  C   UNL     1     -15.397  23.370 -21.132  1.00  0.00     0.051 A 
ATOM     15  C   UNL     1     -16.291  24.191 -20.476  1.00  0.00     0.158 A 
ATOM     16  C   UNL     1     -17.429  23.693 -19.926  1.00  0.00     0.169 A 
ENDROOT
BRANCH  16  17
ATOM     17  O   UNL     1     -18.371  24.451 -19.254  1.00  0.00    -0.504 OA
ATOM     18  H   UNL     1     -18.744  24.153 -18.367  1.00  0.00     0.293 HD
ENDBRANCH  16  17
BRANCH  15  19
ATOM     19  O   UNL     1     -16.056  25.565 -20.352  1.00  0.00    -0.504 OA
ATOM     20  H   UNL     1     -15.914  26.145 -21.181  1.00  0.00     0.293 HD
ENDBRANCH  15  19
TORSDOF 2
ENDMDL
