MODEL 1
REMARK VINA RESULT:     -10.9      0.000      0.000
REMARK SMILES O=c1cc(-c2ccccc2)oc2cc(O)cc(O)c12
REMARK SMILES IDX 1 1 2 2 3 3 4 4 11 5 12 6 13 7 14 8 16 9 17 10 19 11 5 12
REMARK SMILES IDX 6 13 10 14 7 15 9 16 8 17 18 18 15 20
REMARK H PARENT 18 19 15 21
ROOT
ATOM      1  O   UNL     1     -15.574  22.084 -21.356  1.00  0.00    -0.289 OA
ATOM      2  C   UNL     1     -16.641  22.188 -20.702  1.00  0.00     0.197 A 
ATOM      3  C   UNL     1     -17.456  21.086 -20.406  1.00  0.00     0.100 A 
ATOM      4  C   UNL     1     -18.621  21.223 -19.688  1.00  0.00     0.138 A 
ATOM      5  O   UNL     1     -18.930  22.436 -19.296  1.00  0.00    -0.456 OA
ATOM      6  C   UNL     1     -18.210  23.503 -19.541  1.00  0.00     0.146 A 
ATOM      7  C   UNL     1     -18.593  24.763 -19.096  1.00  0.00     0.094 A 
ATOM      8  C   UNL     1     -17.863  25.902 -19.335  1.00  0.00     0.123 A 
ATOM      9  C   UNL     1     -16.690  25.808 -20.050  1.00  0.00     0.093 A 
ATOM     10  C   UNL     1     -16.276  24.576 -20.508  1.00  0.00     0.134 A 
ATOM     11  C   UNL     1     -17.034  23.427 -20.255  1.00  0.00     0.107 A 
ENDROOT
BRANCH   4  12
ATOM     12  C   UNL     1     -19.479  20.077 -19.375  1.00  0.00     0.017 A 
ATOM     13  C   UNL     1     -20.462  20.094 -18.421  1.00  0.00     0.012 A 
ATOM     14  C   UNL     1     -19.304  18.896 -20.073  1.00  0.00     0.012 A 
ATOM     15  C   UNL     1     -21.256  18.976 -18.157  1.00  0.00     0.001 A 
ATOM     16  C   UNL     1     -20.077  17.770 -19.833  1.00  0.00     0.001 A 
ATOM     17  C   UNL     1     -21.069  17.806 -18.862  1.00  0.00     0.000 A 
ENDBRANCH   4  12
BRANCH  10  18
ATOM     18  O   UNL     1     -15.105  24.484 -21.222  1.00  0.00    -0.507 OA
ATOM     19  H   UNL     1     -15.011  24.947 -22.108  1.00  0.00     0.293 HD
ENDBRANCH  10  18
BRANCH   8  20
ATOM     20  O   UNL     1     -18.288  27.148 -18.868  1.00  0.00    -0.508 OA
ATOM     21  H   UNL     1     -18.663  27.289 -17.941  1.00  0.00     0.293 HD
ENDBRANCH   8  20
TORSDOF 3
ENDMDL
MODEL 2
REMARK VINA RESULT:     -10.9      0.160      1.093
REMARK SMILES O=c1cc(-c2ccccc2)oc2cc(O)cc(O)c12
REMARK SMILES IDX 1 1 2 2 3 3 4 4 11 5 12 6 13 7 14 8 16 9 17 10 19 11 5 12
REMARK SMILES IDX 6 13 10 14 7 15 9 16 8 17 18 18 15 20
REMARK H PARENT 18 19 15 21
ROOT
ATOM      1  O   UNL     1     -15.574  21.945 -21.456  1.00  0.00    -0.289 OA
ATOM      2  C   UNL     1     -16.628  22.067 -20.782  1.00  0.00     0.197 A 
ATOM      3  C   UNL     1     -17.462  20.981 -20.480  1.00  0.00     0.100 A 
ATOM      4  C   UNL     1     -18.610  21.138 -19.741  1.00  0.00     0.138 A 
ATOM      5  O   UNL     1     -18.886  22.354 -19.334  1.00  0.00    -0.456 OA
ATOM      6  C   UNL     1     -18.147  23.407 -19.584  1.00  0.00     0.146 A 
ATOM      7  C   UNL     1     -18.495  24.671 -19.123  1.00  0.00     0.094 A 
ATOM      8  C   UNL     1     -17.744  25.796 -19.366  1.00  0.00     0.123 A 
ATOM      9  C   UNL     1     -16.586  25.682 -20.102  1.00  0.00     0.093 A 
ATOM     10  C   UNL     1     -16.207  24.445 -20.577  1.00  0.00     0.134 A 
ATOM     11  C   UNL     1     -16.986  23.311 -20.319  1.00  0.00     0.107 A 
ENDROOT
BRANCH   4  12
ATOM     12  C   UNL     1     -19.487  20.008 -19.421  1.00  0.00     0.017 A 
ATOM     13  C   UNL     1     -19.407  18.780 -20.022  1.00  0.00     0.012 A 
ATOM     14  C   UNL     1     -20.464  20.169 -18.454  1.00  0.00     0.012 A 
ATOM     15  C   UNL     1     -20.266  17.732 -19.683  1.00  0.00     0.001 A 
ATOM     16  C   UNL     1     -21.331  19.148 -18.097  1.00  0.00     0.001 A 
ATOM     17  C   UNL     1     -21.234  17.910 -18.718  1.00  0.00     0.000 A 
ENDBRANCH   4  12
BRANCH  10  18
ATOM     18  O   UNL     1     -15.051  24.333 -21.312  1.00  0.00    -0.507 OA
ATOM     19  H   UNL     1     -14.413  23.576 -21.144  1.00  0.00     0.293 HD
ENDBRANCH  10  18
BRANCH   8  20
ATOM     20  O   UNL     1     -18.133  27.047 -18.882  1.00  0.00    -0.508 OA
ATOM     21  H   UNL     1     -17.570  27.879 -18.993  1.00  0.00     0.293 HD
ENDBRANCH   8  20
TORSDOF 3
ENDMDL
MODEL 3
REMARK VINA RESULT:     -10.7      1.065      1.677
REMARK SMILES O=c1cc(-c2ccccc2)oc2cc(O)cc(O)c12
REMARK SMILES IDX 1 1 2 2 3 3 4 4 11 5 12 6 13 7 14 8 16 9 17 10 19 11 5 12
REMARK SMILES IDX 6 13 10 14 7 15 9 16 8 17 18 18 15 20
REMARK H PARENT 18 19 15 21
ROOT
ATOM      1  O   UNL     1     -14.846  22.637 -22.168  1.00  0.00    -0.289 OA
ATOM      2  C   UNL     1     -15.857  22.427 -21.451  1.00  0.00     0.197 A 
ATOM      3  C   UNL     1     -16.418  21.152 -21.293  1.00  0.00     0.100 A 
ATOM      4  C   UNL     1     -17.524  20.945 -20.504  1.00  0.00     0.138 A 
ATOM      5  O   UNL     1     -18.027  22.000 -19.909  1.00  0.00    -0.456 OA
ATOM      6  C   UNL     1     -17.549  23.215 -20.018  1.00  0.00     0.146 A 
ATOM      7  C   UNL     1     -18.129  24.293 -19.360  1.00  0.00     0.094 A 
ATOM      8  C   UNL     1     -17.652  25.578 -19.452  1.00  0.00     0.123 A 
ATOM      9  C   UNL     1     -16.546  25.828 -20.232  1.00  0.00     0.093 A 
ATOM     10  C   UNL     1     -15.942  24.786 -20.901  1.00  0.00     0.134 A 
ATOM     11  C   UNL     1     -16.442  23.483 -20.794  1.00  0.00     0.107 A 
ENDROOT
BRANCH   4  12
ATOM     12  C   UNL     1     -18.118  19.616 -20.332  1.00  0.00     0.017 A 
ATOM     13  C   UNL     1     -17.413  18.445 -20.416  1.00  0.00     0.012 A 
ATOM     14  C   UNL     1     -19.472  19.514 -20.067  1.00  0.00     0.012 A 
ATOM     15  C   UNL     1     -18.022  17.199 -20.245  1.00  0.00     0.001 A 
ATOM     16  C   UNL     1     -20.105  18.293 -19.892  1.00  0.00     0.001 A 
ATOM     17  C   UNL     1     -19.373  17.116 -19.981  1.00  0.00     0.000 A 
ENDBRANCH   4  12
BRANCH  10  18
ATOM     18  O   UNL     1     -14.837  25.037 -21.679  1.00  0.00    -0.507 OA
ATOM     19  H   UNL     1     -14.287  25.864 -21.530  1.00  0.00     0.293 HD
ENDBRANCH  10  18
BRANCH   8  20
ATOM     20  O   UNL     1     -18.269  26.631 -18.772  1.00  0.00    -0.508 OA
ATOM     21  H   UNL     1     -17.809  27.512 -18.590  1.00  0.00     0.293 HD
ENDBRANCH   8  20
TORSDOF 3
ENDMDL
MODEL 4
REMARK VINA RESULT:     -10.7      1.180      1.591
REMARK SMILES O=c1cc(-c2ccccc2)oc2cc(O)cc(O)c12
REMARK SMILES IDX 1 1 2 2 3 3 4 4 11 5 12 6 13 7 14 8 16 9 17 10 19 11 5 12
REMARK SMILES IDX 6 13 10 14 7 15 9 16 8 17 18 18 15 20
REMARK H PARENT 18 19 15 21
ROOT
ATOM      1  O   UNL     1     -14.880  22.822 -22.269  1.00  0.00    -0.289 OA
ATOM      2  C   UNL     1     -15.854  22.551 -21.522  1.00  0.00     0.197 A 
ATOM      3  C   UNL     1     -16.333  21.244 -21.351  1.00  0.00     0.100 A 
ATOM      4  C   UNL     1     -17.400  20.971 -20.528  1.00  0.00     0.138 A 
ATOM      5  O   UNL     1     -17.945  21.994 -19.914  1.00  0.00    -0.456 OA
ATOM      6  C   UNL     1     -17.543  23.235 -20.033  1.00  0.00     0.146 A 
ATOM      7  C   UNL     1     -18.165  24.276 -19.354  1.00  0.00     0.094 A 
ATOM      8  C   UNL     1     -17.769  25.587 -19.456  1.00  0.00     0.123 A 
ATOM      9  C   UNL     1     -16.704  25.903 -20.270  1.00  0.00     0.093 A 
ATOM     10  C   UNL     1     -16.061  24.900 -20.961  1.00  0.00     0.134 A 
ATOM     11  C   UNL     1     -16.480  23.569 -20.843  1.00  0.00     0.107 A 
ENDROOT
BRANCH   4  12
ATOM     12  C   UNL     1     -17.908  19.609 -20.343  1.00  0.00     0.017 A 
ATOM     13  C   UNL     1     -19.212  19.311 -20.049  1.00  0.00     0.012 A 
ATOM     14  C   UNL     1     -17.035  18.543 -20.468  1.00  0.00     0.012 A 
ATOM     15  C   UNL     1     -19.652  17.996 -19.881  1.00  0.00     0.001 A 
ATOM     16  C   UNL     1     -17.441  17.227 -20.307  1.00  0.00     0.001 A 
ATOM     17  C   UNL     1     -18.768  16.945 -20.010  1.00  0.00     0.000 A 
ENDBRANCH   4  12
BRANCH  10  18
ATOM     18  O   UNL     1     -14.998  25.217 -21.773  1.00  0.00    -0.507 OA
ATOM     19  H   UNL     1     -14.427  26.019 -21.574  1.00  0.00     0.293 HD
ENDBRANCH  10  18
BRANCH   8  20
ATOM     20  O   UNL     1     -18.425  26.601 -18.754  1.00  0.00    -0.508 OA
ATOM     21  H   UNL     1     -19.150  27.172 -19.163  1.00  0.00     0.293 HD
ENDBRANCH   8  20
TORSDOF 3
ENDMDL
MODEL 5
REMARK VINA RESULT:     -10.6      1.133      2.853
REMARK SMILES O=c1cc(-c2ccccc2)oc2cc(O)cc(O)c12
REMARK SMILES IDX 1 1 2 2 3 3 4 4 11 5 12 6 13 7 14 8 16 9 17 10 19 11 5 12
REMARK SMILES IDX 6 13 10 14 7 15 9 16 8 17 18 18 15 20
REMARK H PARENT 18 19 15 21
ROOT
ATOM      1  O   UNL     1     -19.265  24.835 -18.347  1.00  0.00    -0.289 OA
ATOM      2  C   UNL     1     -18.749  23.888 -18.991  1.00  0.00     0.197 A 
ATOM      3  C   UNL     1     -19.227  22.572 -18.911  1.00  0.00     0.100 A 
ATOM      4  C   UNL     1     -18.647  21.550 -19.625  1.00  0.00     0.138 A 
ATOM      5  O   UNL     1     -17.625  21.870 -20.383  1.00  0.00    -0.456 OA
ATOM      6  C   UNL     1     -17.134  23.079 -20.500  1.00  0.00     0.146 A 
ATOM      7  C   UNL     1     -16.047  23.352 -21.322  1.00  0.00     0.094 A 
ATOM      8  C   UNL     1     -15.508  24.608 -21.468  1.00  0.00     0.123 A 
ATOM      9  C   UNL     1     -16.060  25.658 -20.769  1.00  0.00     0.093 A 
ATOM     10  C   UNL     1     -17.138  25.428 -19.943  1.00  0.00     0.134 A 
ATOM     11  C   UNL     1     -17.673  24.142 -19.809  1.00  0.00     0.107 A 
ENDROOT
BRANCH   4  12
ATOM     12  C   UNL     1     -19.138  20.172 -19.548  1.00  0.00     0.017 A 
ATOM     13  C   UNL     1     -18.610  19.128 -20.260  1.00  0.00     0.012 A 
ATOM     14  C   UNL     1     -20.201  19.884 -18.710  1.00  0.00     0.012 A 
ATOM     15  C   UNL     1     -19.112  17.829 -20.153  1.00  0.00     0.001 A 
ATOM     16  C   UNL     1     -20.721  18.605 -18.583  1.00  0.00     0.001 A 
ATOM     17  C   UNL     1     -20.171  17.560 -19.313  1.00  0.00     0.000 A 
ENDBRANCH   4  12
BRANCH  10  18
ATOM     18  O   UNL     1     -17.688  26.478 -19.247  1.00  0.00    -0.507 OA
ATOM     19  H   UNL     1     -17.137  27.289 -19.031  1.00  0.00     0.293 HD
ENDBRANCH  10  18
BRANCH   8  20
ATOM     20  O   UNL     1     -14.414  24.835 -22.306  1.00  0.00    -0.508 OA
ATOM     21  H   UNL     1     -14.073  25.760 -22.525  1.00  0.00     0.293 HD
ENDBRANCH   8  20
TORSDOF 3
ENDMDL
MODEL 6
REMARK VINA RESULT:     -10.6      1.143      2.668
REMARK SMILES O=c1cc(-c2ccccc2)oc2cc(O)cc(O)c12
REMARK SMILES IDX 1 1 2 2 3 3 4 4 11 5 12 6 13 7 14 8 16 9 17 10 19 11 5 12
REMARK SMILES IDX 6 13 10 14 7 15 9 16 8 17 18 18 15 20
REMARK H PARENT 18 19 15 21
ROOT
ATOM      1  O   UNL     1     -19.283  24.860 -18.390  1.00  0.00    -0.289 OA
ATOM      2  C   UNL     1     -18.755  23.908 -19.017  1.00  0.00     0.197 A 
ATOM      3  C   UNL     1     -19.228  22.590 -18.927  1.00  0.00     0.100 A 
ATOM      4  C   UNL     1     -18.635  21.564 -19.623  1.00  0.00     0.138 A 
ATOM      5  O   UNL     1     -17.606  21.879 -20.373  1.00  0.00    -0.456 OA
ATOM      6  C   UNL     1     -17.119  23.089 -20.498  1.00  0.00     0.146 A 
ATOM      7  C   UNL     1     -16.024  23.358 -21.311  1.00  0.00     0.094 A 
ATOM      8  C   UNL     1     -15.489  24.614 -21.464  1.00  0.00     0.123 A 
ATOM      9  C   UNL     1     -16.054  25.670 -20.785  1.00  0.00     0.093 A 
ATOM     10  C   UNL     1     -17.140  25.444 -19.969  1.00  0.00     0.134 A 
ATOM     11  C   UNL     1     -17.671  24.157 -19.825  1.00  0.00     0.107 A 
ENDROOT
BRANCH   4  12
ATOM     12  C   UNL     1     -19.121  20.184 -19.535  1.00  0.00     0.017 A 
ATOM     13  C   UNL     1     -20.174  19.790 -18.752  1.00  0.00     0.012 A 
ATOM     14  C   UNL     1     -18.494  19.201 -20.281  1.00  0.00     0.012 A 
ATOM     15  C   UNL     1     -20.603  18.462 -18.701  1.00  0.00     0.001 A 
ATOM     16  C   UNL     1     -18.897  17.875 -20.251  1.00  0.00     0.001 A 
ATOM     17  C   UNL     1     -19.967  17.496 -19.451  1.00  0.00     0.000 A 
ENDBRANCH   4  12
BRANCH  10  18
ATOM     18  O   UNL     1     -17.703  26.500 -19.292  1.00  0.00    -0.507 OA
ATOM     19  H   UNL     1     -17.141  27.284 -19.014  1.00  0.00     0.293 HD
ENDBRANCH  10  18
BRANCH   8  20
ATOM     20  O   UNL     1     -14.387  24.837 -22.293  1.00  0.00    -0.508 OA
ATOM     21  H   UNL     1     -13.528  25.254 -21.964  1.00  0.00     0.293 HD
ENDBRANCH   8  20
TORSDOF 3
ENDMDL
MODEL 7
REMARK VINA RESULT:     -10.5      1.386      2.989
REMARK SMILES O=c1cc(-c2ccccc2)oc2cc(O)cc(O)c12
REMARK SMILES IDX 1 1 2 2 3 3 4 4 11 5 12 6 13 7 14 8 16 9 17 10 19 11 5 12
REMARK SMILES IDX 6 13 10 14 7 15 9 16 8 17 18 18 15 20
REMARK H PARENT 18 19 15 21
ROOT
ATOM      1  O   UNL     1     -18.359  24.524 -19.102  1.00  0.00    -0.289 OA
ATOM      2  C   UNL     1     -18.221  23.326 -19.457  1.00  0.00     0.197 A 
ATOM      3  C   UNL     1     -19.142  22.326 -19.115  1.00  0.00     0.100 A 
ATOM      4  C   UNL     1     -18.971  21.022 -19.514  1.00  0.00     0.138 A 
ATOM      5  O   UNL     1     -17.903  20.762 -20.230  1.00  0.00    -0.456 OA
ATOM      6  C   UNL     1     -17.008  21.652 -20.581  1.00  0.00     0.146 A 
ATOM      7  C   UNL     1     -15.896  21.312 -21.342  1.00  0.00     0.094 A 
ATOM      8  C   UNL     1     -14.939  22.219 -21.728  1.00  0.00     0.123 A 
ATOM      9  C   UNL     1     -15.073  23.535 -21.349  1.00  0.00     0.093 A 
ATOM     10  C   UNL     1     -16.162  23.913 -20.593  1.00  0.00     0.134 A 
ATOM     11  C   UNL     1     -17.126  22.973 -20.210  1.00  0.00     0.107 A 
ENDROOT
BRANCH   4  12
ATOM     12  C   UNL     1     -19.928  19.970 -19.161  1.00  0.00     0.017 A 
ATOM     13  C   UNL     1     -20.866  20.088 -18.169  1.00  0.00     0.012 A 
ATOM     14  C   UNL     1     -19.902  18.776 -19.859  1.00  0.00     0.012 A 
ATOM     15  C   UNL     1     -21.759  19.057 -17.868  1.00  0.00     0.001 A 
ATOM     16  C   UNL     1     -20.775  17.735 -19.584  1.00  0.00     0.001 A 
ATOM     17  C   UNL     1     -21.719  17.874 -18.574  1.00  0.00     0.000 A 
ENDBRANCH   4  12
BRANCH  10  18
ATOM     18  O   UNL     1     -16.294  25.228 -20.216  1.00  0.00    -0.507 OA
ATOM     19  H   UNL     1     -17.182  25.582 -19.909  1.00  0.00     0.293 HD
ENDBRANCH  10  18
BRANCH   8  20
ATOM     20  O   UNL     1     -13.837  21.831 -22.493  1.00  0.00    -0.508 OA
ATOM     21  H   UNL     1     -13.740  22.057 -23.473  1.00  0.00     0.293 HD
ENDBRANCH   8  20
TORSDOF 3
ENDMDL
MODEL 8
REMARK VINA RESULT:     -10.5      1.408      3.191
REMARK SMILES O=c1cc(-c2ccccc2)oc2cc(O)cc(O)c12
REMARK SMILES IDX 1 1 2 2 3 3 4 4 11 5 12 6 13 7 14 8 16 9 17 10 19 11 5 12
REMARK SMILES IDX 6 13 10 14 7 15 9 16 8 17 18 18 15 20
REMARK H PARENT 18 19 15 21
ROOT
ATOM      1  O   UNL     1     -18.336  24.451 -19.123  1.00  0.00    -0.289 OA
ATOM      2  C   UNL     1     -18.186  23.260 -19.495  1.00  0.00     0.197 A 
ATOM      3  C   UNL     1     -19.101  22.247 -19.171  1.00  0.00     0.100 A 
ATOM      4  C   UNL     1     -18.917  20.951 -19.589  1.00  0.00     0.138 A 
ATOM      5  O   UNL     1     -17.844  20.710 -20.304  1.00  0.00    -0.456 OA
ATOM      6  C   UNL     1     -16.955  21.612 -20.638  1.00  0.00     0.146 A 
ATOM      7  C   UNL     1     -15.837  21.293 -21.400  1.00  0.00     0.094 A 
ATOM      8  C   UNL     1     -14.886  22.214 -21.768  1.00  0.00     0.123 A 
ATOM      9  C   UNL     1     -15.033  23.524 -21.370  1.00  0.00     0.093 A 
ATOM     10  C   UNL     1     -16.128  23.881 -20.614  1.00  0.00     0.134 A 
ATOM     11  C   UNL     1     -17.086  22.928 -20.249  1.00  0.00     0.107 A 
ENDROOT
BRANCH   4  12
ATOM     12  C   UNL     1     -19.866  19.886 -19.255  1.00  0.00     0.017 A 
ATOM     13  C   UNL     1     -19.911  18.672 -19.889  1.00  0.00     0.012 A 
ATOM     14  C   UNL     1     -20.783  20.096 -18.240  1.00  0.00     0.012 A 
ATOM     15  C   UNL     1     -20.835  17.686 -19.536  1.00  0.00     0.001 A 
ATOM     16  C   UNL     1     -21.711  19.136 -17.867  1.00  0.00     0.001 A 
ATOM     17  C   UNL     1     -21.741  17.912 -18.521  1.00  0.00     0.000 A 
ENDBRANCH   4  12
BRANCH  10  18
ATOM     18  O   UNL     1     -16.273  25.189 -20.218  1.00  0.00    -0.507 OA
ATOM     19  H   UNL     1     -16.583  25.887 -20.870  1.00  0.00     0.293 HD
ENDBRANCH  10  18
BRANCH   8  20
ATOM     20  O   UNL     1     -13.778  21.846 -22.535  1.00  0.00    -0.508 OA
ATOM     21  H   UNL     1     -12.826  21.969 -22.219  1.00  0.00     0.293 HD
ENDBRANCH   8  20
TORSDOF 3
ENDMDL
MODEL 9
REMARK VINA RESULT:     -10.4      2.180      6.244
REMARK SMILES O=c1cc(-c2ccccc2)oc2cc(O)cc(O)c12
REMARK SMILES IDX 1 1 2 2 3 3 4 4 11 5 12 6 13 7 14 8 16 9 17 10 19 11 5 12
REMARK SMILES IDX 6 13 10 14 7 15 9 16 8 17 18 18 15 20
REMARK H PARENT 18 19 15 21
ROOT
ATOM      1  O   UNL     1     -17.258  18.853 -20.833  1.00  0.00    -0.289 OA
ATOM      2  C   UNL     1     -18.000  19.693 -20.264  1.00  0.00     0.197 A 
ATOM      3  C   UNL     1     -17.691  21.060 -20.213  1.00  0.00     0.100 A 
ATOM      4  C   UNL     1     -18.516  21.962 -19.585  1.00  0.00     0.138 A 
ATOM      5  O   UNL     1     -19.605  21.479 -19.036  1.00  0.00    -0.456 OA
ATOM      6  C   UNL     1     -19.947  20.214 -19.050  1.00  0.00     0.146 A 
ATOM      7  C   UNL     1     -21.117  19.765 -18.449  1.00  0.00     0.094 A 
ATOM      8  C   UNL     1     -21.506  18.447 -18.446  1.00  0.00     0.123 A 
ATOM      9  C   UNL     1     -20.707  17.512 -19.064  1.00  0.00     0.093 A 
ATOM     10  C   UNL     1     -19.539  17.917 -19.671  1.00  0.00     0.134 A 
ATOM     11  C   UNL     1     -19.160  19.265 -19.664  1.00  0.00     0.107 A 
ENDROOT
BRANCH   4  12
ATOM     12  C   UNL     1     -18.202  23.392 -19.527  1.00  0.00     0.017 A 
ATOM     13  C   UNL     1     -18.973  24.321 -18.879  1.00  0.00     0.012 A 
ATOM     14  C   UNL     1     -17.061  23.856 -20.157  1.00  0.00     0.012 A 
ATOM     15  C   UNL     1     -18.633  25.675 -18.850  1.00  0.00     0.001 A 
ATOM     16  C   UNL     1     -16.697  25.194 -20.145  1.00  0.00     0.001 A 
ATOM     17  C   UNL     1     -17.492  26.120 -19.483  1.00  0.00     0.000 A 
ENDBRANCH   4  12
BRANCH  10  18
ATOM     18  O   UNL     1     -18.743  16.982 -20.289  1.00  0.00    -0.507 OA
ATOM     19  H   UNL     1     -19.143  16.304 -20.912  1.00  0.00     0.293 HD
ENDBRANCH  10  18
BRANCH   8  20
ATOM     20  O   UNL     1     -22.691  18.041 -17.828  1.00  0.00    -0.508 OA
ATOM     21  H   UNL     1     -23.503  17.735 -18.344  1.00  0.00     0.293 HD
ENDBRANCH   8  20
TORSDOF 3
ENDMDL
