MODEL 1
REMARK VINA RESULT:     -11.5      0.000      0.000
REMARK SMILES O=c1c([O-])c(-c2ccccc2)oc2cc([O-])cc([O-])c12
REMARK SMILES IDX 1 1 2 2 3 3 4 4 5 5 12 6 13 7 14 8 15 9 16 10 17 11 18 12
REMARK SMILES IDX 19 13 20 14 6 15 7 16 11 17 8 18 10 19 9 20
REMARK H PARENT
ROOT
ATOM      1  O   UNL     1     -14.971  21.947 -21.808  1.00  0.00    -0.290 OA
ATOM      2  C   UNL     1     -16.030  22.024 -21.151  1.00  0.00     0.184 A 
ATOM      3  C   UNL     1     -16.728  20.817 -20.939  1.00  0.00    -0.014 A 
ATOM      4  O   UNL     1     -16.230  19.649 -21.447  1.00  0.00    -0.867 OA
ATOM      5  C   UNL     1     -17.889  20.867 -20.223  1.00  0.00     0.130 A 
ATOM      6  O   UNL     1     -18.313  22.060 -19.757  1.00  0.00    -0.457 OA
ATOM      7  C   UNL     1     -17.686  23.160 -19.945  1.00  0.00     0.137 A 
ATOM      8  C   UNL     1     -18.169  24.338 -19.445  1.00  0.00     0.039 A 
ATOM      9  C   UNL     1     -17.520  25.540 -19.629  1.00  0.00    -0.106 A 
ATOM     10  O   UNL     1     -18.039  26.725 -19.105  1.00  0.00    -0.872 OA
ATOM     11  C   UNL     1     -16.326  25.553 -20.352  1.00  0.00    -0.016 A 
ATOM     12  C   UNL     1     -15.814  24.391 -20.868  1.00  0.00    -0.094 A 
ATOM     13  O   UNL     1     -14.635  24.414 -21.581  1.00  0.00    -0.872 OA
ATOM     14  C   UNL     1     -16.498  23.220 -20.656  1.00  0.00     0.056 A 
ENDROOT
BRANCH   5  15
ATOM     15  C   UNL     1     -18.695  19.694 -19.940  1.00  0.00     0.017 A 
ATOM     16  C   UNL     1     -18.469  18.413 -20.334  1.00  0.00     0.012 A 
ATOM     17  C   UNL     1     -19.854  19.872 -19.166  1.00  0.00     0.012 A 
ATOM     18  C   UNL     1     -19.305  17.356 -20.007  1.00  0.00     0.001 A 
ATOM     19  C   UNL     1     -20.694  18.834 -18.833  1.00  0.00     0.001 A 
ATOM     20  C   UNL     1     -20.429  17.552 -19.253  1.00  0.00     0.000 A 
ENDBRANCH   5  15
TORSDOF 1
ENDMDL
MODEL 2
REMARK VINA RESULT:     -11.3      0.735      1.273
REMARK SMILES O=c1c([O-])c(-c2ccccc2)oc2cc([O-])cc([O-])c12
REMARK SMILES IDX 1 1 2 2 3 3 4 4 5 5 12 6 13 7 14 8 15 9 16 10 17 11 18 12
REMARK SMILES IDX 19 13 20 14 6 15 7 16 11 17 8 18 10 19 9 20
REMARK H PARENT
ROOT
ATOM      1  O   UNL     1     -15.442  21.665 -21.270  1.00  0.00    -0.290 OA
ATOM      2  C   UNL     1     -16.505  21.942 -20.677  1.00  0.00     0.184 A 
ATOM      3  C   UNL     1     -17.359  20.860 -20.378  1.00  0.00    -0.014 A 
ATOM      4  O   UNL     1     -16.996  19.592 -20.740  1.00  0.00    -0.867 OA
ATOM      5  C   UNL     1     -18.529  21.129 -19.730  1.00  0.00     0.130 A 
ATOM      6  O   UNL     1     -18.814  22.408 -19.409  1.00  0.00    -0.457 OA
ATOM      7  C   UNL     1     -18.045  23.396 -19.677  1.00  0.00     0.137 A 
ATOM      8  C   UNL     1     -18.391  24.671 -19.322  1.00  0.00     0.039 A 
ATOM      9  C   UNL     1     -17.587  25.757 -19.595  1.00  0.00    -0.106 A 
ATOM     10  O   UNL     1     -17.968  27.046 -19.221  1.00  0.00    -0.872 OA
ATOM     11  C   UNL     1     -16.375  25.545 -20.256  1.00  0.00    -0.016 A 
ATOM     12  C   UNL     1     -15.998  24.280 -20.625  1.00  0.00    -0.094 A 
ATOM     13  O   UNL     1     -14.801  24.081 -21.278  1.00  0.00    -0.872 OA
ATOM     14  C   UNL     1     -16.834  23.232 -20.330  1.00  0.00     0.056 A 
ENDROOT
BRANCH   5  15
ATOM     15  C   UNL     1     -19.488  20.102 -19.370  1.00  0.00     0.017 A 
ATOM     16  C   UNL     1     -20.355  20.102 -18.323  1.00  0.00     0.012 A 
ATOM     17  C   UNL     1     -19.554  18.958 -20.183  1.00  0.00     0.012 A 
ATOM     18  C   UNL     1     -21.238  19.065 -18.063  1.00  0.00     0.001 A 
ATOM     19  C   UNL     1     -20.424  17.920 -19.940  1.00  0.00     0.001 A 
ATOM     20  C   UNL     1     -21.285  17.960 -18.868  1.00  0.00     0.000 A 
ENDBRANCH   5  15
TORSDOF 1
ENDMDL
MODEL 3
REMARK VINA RESULT:     -11.3      1.860      6.076
REMARK SMILES O=c1c([O-])c(-c2ccccc2)oc2cc([O-])cc([O-])c12
REMARK SMILES IDX 1 1 2 2 3 3 4 4 5 5 12 6 13 7 14 8 15 9 16 10 17 11 18 12
REMARK SMILES IDX 19 13 20 14 6 15 7 16 11 17 8 18 10 19 9 20
REMARK H PARENT
ROOT
ATOM      1  O   UNL     1     -17.167  18.931 -20.855  1.00  0.00    -0.290 OA
ATOM      2  C   UNL     1     -17.929  19.740 -20.287  1.00  0.00     0.184 A 
ATOM      3  C   UNL     1     -17.527  21.092 -20.288  1.00  0.00    -0.014 A 
ATOM      4  O   UNL     1     -16.353  21.447 -20.894  1.00  0.00    -0.867 OA
ATOM      5  C   UNL     1     -18.339  22.001 -19.675  1.00  0.00     0.130 A 
ATOM      6  O   UNL     1     -19.479  21.569 -19.099  1.00  0.00    -0.457 OA
ATOM      7  C   UNL     1     -19.852  20.344 -19.093  1.00  0.00     0.137 A 
ATOM      8  C   UNL     1     -21.022  19.969 -18.492  1.00  0.00     0.039 A 
ATOM      9  C   UNL     1     -21.454  18.660 -18.467  1.00  0.00    -0.106 A 
ATOM     10  O   UNL     1     -22.652  18.310 -17.845  1.00  0.00    -0.872 OA
ATOM     11  C   UNL     1     -20.666  17.683 -19.078  1.00  0.00    -0.016 A 
ATOM     12  C   UNL     1     -19.487  18.024 -19.690  1.00  0.00    -0.094 A 
ATOM     13  O   UNL     1     -18.716  17.053 -20.290  1.00  0.00    -0.872 OA
ATOM     14  C   UNL     1     -19.103  19.342 -19.687  1.00  0.00     0.056 A 
ENDROOT
BRANCH   5  15
ATOM     15  C   UNL     1     -18.032  23.418 -19.610  1.00  0.00     0.017 A 
ATOM     16  C   UNL     1     -16.979  24.069 -20.170  1.00  0.00     0.012 A 
ATOM     17  C   UNL     1     -18.913  24.242 -18.889  1.00  0.00     0.012 A 
ATOM     18  C   UNL     1     -16.775  25.435 -20.050  1.00  0.00     0.001 A 
ATOM     19  C   UNL     1     -18.725  25.599 -18.759  1.00  0.00     0.001 A 
ATOM     20  C   UNL     1     -17.644  26.219 -19.343  1.00  0.00     0.000 A 
ENDBRANCH   5  15
TORSDOF 1
ENDMDL
MODEL 4
REMARK VINA RESULT:     -11.1      1.263      3.060
REMARK SMILES O=c1c([O-])c(-c2ccccc2)oc2cc([O-])cc([O-])c12
REMARK SMILES IDX 1 1 2 2 3 3 4 4 5 5 12 6 13 7 14 8 15 9 16 10 17 11 18 12
REMARK SMILES IDX 19 13 20 14 6 15 7 16 11 17 8 18 10 19 9 20
REMARK H PARENT
ROOT
ATOM      1  O   UNL     1     -18.886  24.279 -18.727  1.00  0.00    -0.290 OA
ATOM      2  C   UNL     1     -18.223  23.495 -19.438  1.00  0.00     0.184 A 
ATOM      3  C   UNL     1     -18.591  22.134 -19.386  1.00  0.00    -0.014 A 
ATOM      4  O   UNL     1     -19.627  21.744 -18.583  1.00  0.00    -0.867 OA
ATOM      5  C   UNL     1     -17.885  21.253 -20.151  1.00  0.00     0.130 A 
ATOM      6  O   UNL     1     -16.876  21.718 -20.915  1.00  0.00    -0.457 OA
ATOM      7  C   UNL     1     -16.535  22.951 -20.968  1.00  0.00     0.137 A 
ATOM      8  C   UNL     1     -15.501  23.361 -21.765  1.00  0.00     0.039 A 
ATOM      9  C   UNL     1     -15.109  24.680 -21.845  1.00  0.00    -0.106 A 
ATOM     10  O   UNL     1     -14.050  25.066 -22.667  1.00  0.00    -0.872 OA
ATOM     11  C   UNL     1     -15.793  25.631 -21.086  1.00  0.00    -0.016 A 
ATOM     12  C   UNL     1     -16.834  25.254 -20.277  1.00  0.00    -0.094 A 
ATOM     13  O   UNL     1     -17.503  26.200 -19.530  1.00  0.00    -0.872 OA
ATOM     14  C   UNL     1     -17.186  23.929 -20.232  1.00  0.00     0.056 A 
ENDROOT
BRANCH   5  15
ATOM     15  C   UNL     1     -18.168  19.829 -20.182  1.00  0.00     0.017 A 
ATOM     16  C   UNL     1     -19.376  19.218 -20.073  1.00  0.00     0.012 A 
ATOM     17  C   UNL     1     -17.081  18.953 -20.345  1.00  0.00     0.012 A 
ATOM     18  C   UNL     1     -19.542  17.842 -20.116  1.00  0.00     0.001 A 
ATOM     19  C   UNL     1     -17.228  17.586 -20.390  1.00  0.00     0.001 A 
ATOM     20  C   UNL     1     -18.470  17.007 -20.275  1.00  0.00     0.000 A 
ENDBRANCH   5  15
TORSDOF 1
ENDMDL
MODEL 5
REMARK VINA RESULT:     -11.0      1.256      2.898
REMARK SMILES O=c1c([O-])c(-c2ccccc2)oc2cc([O-])cc([O-])c12
REMARK SMILES IDX 1 1 2 2 3 3 4 4 5 5 12 6 13 7 14 8 15 9 16 10 17 11 18 12
REMARK SMILES IDX 19 13 20 14 6 15 7 16 11 17 8 18 10 19 9 20
REMARK H PARENT
ROOT
ATOM      1  O   UNL     1     -18.717  24.295 -18.800  1.00  0.00    -0.290 OA
ATOM      2  C   UNL     1     -18.067  23.509 -19.520  1.00  0.00     0.184 A 
ATOM      3  C   UNL     1     -18.427  22.147 -19.450  1.00  0.00    -0.014 A 
ATOM      4  O   UNL     1     -19.443  21.758 -18.620  1.00  0.00    -0.867 OA
ATOM      5  C   UNL     1     -17.736  21.263 -20.225  1.00  0.00     0.130 A 
ATOM      6  O   UNL     1     -16.747  21.727 -21.016  1.00  0.00    -0.457 OA
ATOM      7  C   UNL     1     -16.414  22.961 -21.086  1.00  0.00     0.137 A 
ATOM      8  C   UNL     1     -15.401  23.370 -21.910  1.00  0.00     0.039 A 
ATOM      9  C   UNL     1     -15.016  24.690 -22.009  1.00  0.00    -0.106 A 
ATOM     10  O   UNL     1     -13.978  25.074 -22.858  1.00  0.00    -0.872 OA
ATOM     11  C   UNL     1     -15.687  25.643 -21.240  1.00  0.00    -0.016 A 
ATOM     12  C   UNL     1     -16.706  25.268 -20.404  1.00  0.00    -0.094 A 
ATOM     13  O   UNL     1     -17.362  26.216 -19.649  1.00  0.00    -0.872 OA
ATOM     14  C   UNL     1     -17.051  23.941 -20.342  1.00  0.00     0.056 A 
ENDROOT
BRANCH   5  15
ATOM     15  C   UNL     1     -18.013  19.838 -20.239  1.00  0.00     0.017 A 
ATOM     16  C   UNL     1     -17.120  18.817 -20.315  1.00  0.00     0.012 A 
ATOM     17  C   UNL     1     -19.358  19.436 -20.165  1.00  0.00     0.012 A 
ATOM     18  C   UNL     1     -17.489  17.480 -20.321  1.00  0.00     0.001 A 
ATOM     19  C   UNL     1     -19.740  18.114 -20.169  1.00  0.00     0.001 A 
ATOM     20  C   UNL     1     -18.803  17.110 -20.248  1.00  0.00     0.000 A 
ENDBRANCH   5  15
TORSDOF 1
ENDMDL
MODEL 6
REMARK VINA RESULT:     -10.9      1.920      6.213
REMARK SMILES O=c1c([O-])c(-c2ccccc2)oc2cc([O-])cc([O-])c12
REMARK SMILES IDX 1 1 2 2 3 3 4 4 5 5 12 6 13 7 14 8 15 9 16 10 17 11 18 12
REMARK SMILES IDX 19 13 20 14 6 15 7 16 11 17 8 18 10 19 9 20
REMARK H PARENT
ROOT
ATOM      1  O   UNL     1     -17.279  18.894 -20.804  1.00  0.00    -0.290 OA
ATOM      2  C   UNL     1     -18.058  19.679 -20.226  1.00  0.00     0.184 A 
ATOM      3  C   UNL     1     -17.685  21.039 -20.208  1.00  0.00    -0.014 A 
ATOM      4  O   UNL     1     -16.518  21.427 -20.807  1.00  0.00    -0.867 OA
ATOM      5  C   UNL     1     -18.516  21.922 -19.584  1.00  0.00     0.130 A 
ATOM      6  O   UNL     1     -19.648  21.458 -19.016  1.00  0.00    -0.457 OA
ATOM      7  C   UNL     1     -19.995  20.225 -19.027  1.00  0.00     0.137 A 
ATOM      8  C   UNL     1     -21.158  19.818 -18.433  1.00  0.00     0.039 A 
ATOM      9  C   UNL     1     -21.562  18.500 -18.426  1.00  0.00    -0.106 A 
ATOM     10  O   UNL     1     -22.754  18.116 -17.811  1.00  0.00    -0.872 OA
ATOM     11  C   UNL     1     -20.753  17.548 -19.050  1.00  0.00    -0.016 A 
ATOM     12  C   UNL     1     -19.581  17.922 -19.654  1.00  0.00    -0.094 A 
ATOM     13  O   UNL     1     -18.788  16.975 -20.267  1.00  0.00    -0.872 OA
ATOM     14  C   UNL     1     -19.224  19.247 -19.634  1.00  0.00     0.056 A 
ENDROOT
BRANCH   5  15
ATOM     15  C   UNL     1     -18.240  23.344 -19.499  1.00  0.00     0.017 A 
ATOM     16  C   UNL     1     -18.966  24.297 -18.858  1.00  0.00     0.012 A 
ATOM     17  C   UNL     1     -17.089  23.823 -20.148  1.00  0.00     0.012 A 
ATOM     18  C   UNL     1     -18.614  25.638 -18.835  1.00  0.00     0.001 A 
ATOM     19  C   UNL     1     -16.726  25.150 -20.135  1.00  0.00     0.001 A 
ATOM     20  C   UNL     1     -17.489  26.083 -19.473  1.00  0.00     0.000 A 
ENDBRANCH   5  15
TORSDOF 1
ENDMDL
MODEL 7
REMARK VINA RESULT:     -10.8      1.030      1.357
REMARK SMILES O=c1c([O-])c(-c2ccccc2)oc2cc([O-])cc([O-])c12
REMARK SMILES IDX 1 1 2 2 3 3 4 4 5 5 12 6 13 7 14 8 15 9 16 10 17 11 18 12
REMARK SMILES IDX 19 13 20 14 6 15 7 16 11 17 8 18 10 19 9 20
REMARK H PARENT
ROOT
ATOM      1  O   UNL     1     -15.948  20.819 -21.340  1.00  0.00    -0.290 OA
ATOM      2  C   UNL     1     -16.939  21.191 -20.678  1.00  0.00     0.184 A 
ATOM      3  C   UNL     1     -17.874  20.195 -20.329  1.00  0.00    -0.014 A 
ATOM      4  O   UNL     1     -17.661  18.901 -20.720  1.00  0.00    -0.867 OA
ATOM      5  C   UNL     1     -18.968  20.570 -19.606  1.00  0.00     0.130 A 
ATOM      6  O   UNL     1     -19.105  21.867 -19.261  1.00  0.00    -0.457 OA
ATOM      7  C   UNL     1     -18.261  22.778 -19.573  1.00  0.00     0.137 A 
ATOM      8  C   UNL     1     -18.457  24.077 -19.192  1.00  0.00     0.039 A 
ATOM      9  C   UNL     1     -17.570  25.082 -19.511  1.00  0.00    -0.106 A 
ATOM     10  O   UNL     1     -17.798  26.398 -19.107  1.00  0.00    -0.872 OA
ATOM     11  C   UNL     1     -16.429  24.761 -20.250  1.00  0.00    -0.016 A 
ATOM     12  C   UNL     1     -16.203  23.469 -20.648  1.00  0.00    -0.094 A 
ATOM     13  O   UNL     1     -15.075  23.161 -21.378  1.00  0.00    -0.872 OA
ATOM     14  C   UNL     1     -17.116  22.504 -20.305  1.00  0.00     0.056 A 
ENDROOT
BRANCH   5  15
ATOM     15  C   UNL     1     -19.998  19.637 -19.188  1.00  0.00     0.017 A 
ATOM     16  C   UNL     1     -20.160  18.346 -19.578  1.00  0.00     0.012 A 
ATOM     17  C   UNL     1     -20.958  20.096 -18.271  1.00  0.00     0.012 A 
ATOM     18  C   UNL     1     -21.183  17.532 -19.117  1.00  0.00     0.001 A 
ATOM     19  C   UNL     1     -21.981  19.302 -17.804  1.00  0.00     0.001 A 
ATOM     20  C   UNL     1     -22.108  17.998 -18.224  1.00  0.00     0.000 A 
ENDBRANCH   5  15
TORSDOF 1
ENDMDL
MODEL 8
REMARK VINA RESULT:     -10.5      1.535      5.810
REMARK SMILES O=c1c([O-])c(-c2ccccc2)oc2cc([O-])cc([O-])c12
REMARK SMILES IDX 1 1 2 2 3 3 4 4 5 5 12 6 13 7 14 8 15 9 16 10 17 11 18 12
REMARK SMILES IDX 19 13 20 14 6 15 7 16 11 17 8 18 10 19 9 20
REMARK H PARENT
ROOT
ATOM      1  O   UNL     1     -15.553  20.331 -21.255  1.00  0.00    -0.290 OA
ATOM      2  C   UNL     1     -16.584  20.793 -20.723  1.00  0.00     0.184 A 
ATOM      3  C   UNL     1     -16.621  22.189 -20.528  1.00  0.00    -0.014 A 
ATOM      4  O   UNL     1     -15.558  22.955 -20.918  1.00  0.00    -0.867 OA
ATOM      5  C   UNL     1     -17.735  22.723 -19.949  1.00  0.00     0.130 A 
ATOM      6  O   UNL     1     -18.741  21.899 -19.591  1.00  0.00    -0.457 OA
ATOM      7  C   UNL     1     -18.715  20.631 -19.765  1.00  0.00     0.137 A 
ATOM      8  C   UNL     1     -19.770  19.848 -19.381  1.00  0.00     0.039 A 
ATOM      9  C   UNL     1     -19.775  18.480 -19.552  1.00  0.00    -0.106 A 
ATOM     10  O   UNL     1     -20.866  17.710 -19.150  1.00  0.00    -0.872 OA
ATOM     11  C   UNL     1     -18.663  17.874 -20.141  1.00  0.00    -0.016 A 
ATOM     12  C   UNL     1     -17.590  18.629 -20.537  1.00  0.00    -0.094 A 
ATOM     13  O   UNL     1     -16.497  18.021 -21.116  1.00  0.00    -0.872 OA
ATOM     14  C   UNL     1     -17.634  19.987 -20.344  1.00  0.00     0.056 A 
ENDROOT
BRANCH   5  15
ATOM     15  C   UNL     1     -17.890  24.144 -19.696  1.00  0.00     0.017 A 
ATOM     16  C   UNL     1     -17.062  25.153 -20.074  1.00  0.00     0.012 A 
ATOM     17  C   UNL     1     -19.025  24.557 -18.976  1.00  0.00     0.012 A 
ATOM     18  C   UNL     1     -17.302  26.487 -19.782  1.00  0.00     0.001 A 
ATOM     19  C   UNL     1     -19.277  25.876 -18.678  1.00  0.00     0.001 A 
ATOM     20  C   UNL     1     -18.413  26.867 -19.079  1.00  0.00     0.000 A 
ENDBRANCH   5  15
TORSDOF 1
ENDMDL
MODEL 9
REMARK VINA RESULT:     -10.1      1.521      2.532
REMARK SMILES O=c1c([O-])c(-c2ccccc2)oc2cc([O-])cc([O-])c12
REMARK SMILES IDX 1 1 2 2 3 3 4 4 5 5 12 6 13 7 14 8 15 9 16 10 17 11 18 12
REMARK SMILES IDX 19 13 20 14 6 15 7 16 11 17 8 18 10 19 9 20
REMARK H PARENT
ROOT
ATOM      1  O   UNL     1     -16.609  19.378 -21.105  1.00  0.00    -0.290 OA
ATOM      2  C   UNL     1     -17.594  19.846 -20.499  1.00  0.00     0.184 A 
ATOM      3  C   UNL     1     -18.610  18.933 -20.148  1.00  0.00    -0.014 A 
ATOM      4  O   UNL     1     -18.475  17.612 -20.478  1.00  0.00    -0.867 OA
ATOM      5  C   UNL     1     -19.700  19.413 -19.483  1.00  0.00     0.130 A 
ATOM      6  O   UNL     1     -19.757  20.730 -19.196  1.00  0.00    -0.457 OA
ATOM      7  C   UNL     1     -18.840  21.566 -19.511  1.00  0.00     0.137 A 
ATOM      8  C   UNL     1     -18.957  22.891 -19.189  1.00  0.00     0.039 A 
ATOM      9  C   UNL     1     -17.990  23.818 -19.513  1.00  0.00    -0.106 A 
ATOM     10  O   UNL     1     -18.139  25.162 -19.171  1.00  0.00    -0.872 OA
ATOM     11  C   UNL     1     -16.849  23.387 -20.193  1.00  0.00    -0.016 A 
ATOM     12  C   UNL     1     -16.700  22.066 -20.530  1.00  0.00    -0.094 A 
ATOM     13  O   UNL     1     -15.571  21.650 -21.202  1.00  0.00    -0.872 OA
ATOM     14  C   UNL     1     -17.692  21.183 -20.185  1.00  0.00     0.056 A 
ENDROOT
BRANCH   5  15
ATOM     15  C   UNL     1     -20.809  18.573 -19.070  1.00  0.00     0.017 A 
ATOM     16  C   UNL     1     -21.061  17.289 -19.435  1.00  0.00     0.012 A 
ATOM     17  C   UNL     1     -21.750  19.125 -18.185  1.00  0.00     0.012 A 
ATOM     18  C   UNL     1     -22.155  16.567 -18.981  1.00  0.00     0.001 A 
ATOM     19  C   UNL     1     -22.840  18.423 -17.725  1.00  0.00     0.001 A 
ATOM     20  C   UNL     1     -23.060  17.124 -18.120  1.00  0.00     0.000 A 
ENDBRANCH   5  15
TORSDOF 1
ENDMDL
