MODEL 1
REMARK VINA RESULT:     -10.3      0.000      0.000
REMARK SMILES CC/C(=C(\c1ccccc1)c1ccc(OCC[NH+](C)C)cc1)c1ccccc1
REMARK SMILES IDX 15 1 14 2 11 3 12 4 22 5 13 6 21 7 4 8 3 9 2 10 1 11 23 12
REMARK SMILES IDX 24 13 28 14 25 15 27 16 26 17 5 18 6 19 10 20 7 21 9 22 8 23
REMARK SMILES IDX 16 24 17 25 18 26 19 27 20 28
REMARK H PARENT 18 29
ROOT
ATOM      1  O   UNL     1      32.529  -3.707  22.718  1.00  0.00    -0.488 OA
ENDROOT
BRANCH   1   2
ATOM      2  C   UNL     1      32.354  -2.939  23.855  1.00  0.00     0.119 A 
ATOM      3  C   UNL     1      31.943  -1.270  26.136  1.00  0.00    -0.017 A 
ATOM      4  C   UNL     1      32.477  -2.539  26.249  1.00  0.00     0.012 A 
ATOM      5  C   UNL     1      31.621  -0.859  24.847  1.00  0.00     0.012 A 
ATOM      6  C   UNL     1      32.671  -3.337  25.133  1.00  0.00     0.047 A 
ATOM      7  C   UNL     1      31.813  -1.650  23.745  1.00  0.00     0.047 A 
BRANCH   3   8
ATOM      8  C   UNL     1      31.752  -0.403  27.285  1.00  0.00    -0.007 C 
ATOM      9  C   UNL     1      30.628  -0.351  27.952  1.00  0.00    -0.033 C 
BRANCH   9  10
ATOM     10  C   UNL     1      30.362   0.552  29.105  1.00  0.00     0.033 C 
ATOM     11  C   UNL     1      29.615   1.758  28.616  1.00  0.00     0.009 C 
ENDBRANCH   9  10
BRANCH   9  12
ATOM     12  C   UNL     1      29.517  -1.269  27.640  1.00  0.00    -0.022 A 
ATOM     13  C   UNL     1      28.523  -0.933  26.756  1.00  0.00     0.008 A 
ATOM     14  C   UNL     1      29.486  -2.478  28.264  1.00  0.00     0.008 A 
ATOM     15  C   UNL     1      27.506  -1.819  26.507  1.00  0.00     0.001 A 
ATOM     16  C   UNL     1      28.468  -3.411  28.041  1.00  0.00     0.001 A 
ATOM     17  C   UNL     1      27.486  -3.046  27.149  1.00  0.00     0.000 A 
ENDBRANCH   9  12
BRANCH   8  18
ATOM     18  C   UNL     1      32.848   0.461  27.673  1.00  0.00    -0.018 A 
ATOM     19  C   UNL     1      33.063   1.690  27.082  1.00  0.00     0.009 A 
ATOM     20  C   UNL     1      33.752   0.028  28.639  1.00  0.00     0.009 A 
ATOM     21  C   UNL     1      34.148   2.437  27.462  1.00  0.00     0.001 A 
ATOM     22  C   UNL     1      34.845   0.765  29.033  1.00  0.00     0.001 A 
ATOM     23  C   UNL     1      35.039   2.001  28.423  1.00  0.00     0.000 A 
ENDBRANCH   8  18
ENDBRANCH   3   8
ENDBRANCH   1   2
BRANCH   1  24
ATOM     24  C   UNL     1      33.635  -3.792  21.892  1.00  0.00     0.290 C 
BRANCH  24  25
ATOM     25  C   UNL     1      33.521  -3.078  20.570  1.00  0.00     0.303 C 
BRANCH  25  26
ATOM     26  N   UNL     1      32.705  -3.780  19.626  1.00  0.00    -0.337 N 
ATOM     27  C   UNL     1      33.436  -4.246  18.468  1.00  0.00     0.332 C 
ATOM     28  C   UNL     1      31.597  -2.984  19.139  1.00  0.00     0.332 C 
ATOM     29  H   UNL     1      32.263  -4.643  20.063  1.00  0.00     0.347 HD
ENDBRANCH  25  26
ENDBRANCH  24  25
ENDBRANCH   1  24
TORSDOF 8
ENDMDL
MODEL 2
REMARK VINA RESULT:     -10.3      0.676      1.233
REMARK SMILES CC/C(=C(\c1ccccc1)c1ccc(OCC[NH+](C)C)cc1)c1ccccc1
REMARK SMILES IDX 15 1 14 2 11 3 12 4 22 5 13 6 21 7 4 8 3 9 2 10 1 11 23 12
REMARK SMILES IDX 24 13 28 14 25 15 27 16 26 17 5 18 6 19 10 20 7 21 9 22 8 23
REMARK SMILES IDX 16 24 17 25 18 26 19 27 20 28
REMARK H PARENT 18 29
ROOT
ATOM      1  O   UNL     1      32.508  -3.729  22.745  1.00  0.00    -0.488 OA
ENDROOT
BRANCH   1   2
ATOM      2  C   UNL     1      32.341  -2.954  23.878  1.00  0.00     0.119 A 
ATOM      3  C   UNL     1      31.943  -1.273  26.153  1.00  0.00    -0.017 A 
ATOM      4  C   UNL     1      32.495  -2.534  26.267  1.00  0.00     0.012 A 
ATOM      5  C   UNL     1      31.597  -0.876  24.865  1.00  0.00     0.012 A 
ATOM      6  C   UNL     1      32.681  -3.338  25.154  1.00  0.00     0.047 A 
ATOM      7  C   UNL     1      31.782  -1.672  23.766  1.00  0.00     0.047 A 
BRANCH   3   8
ATOM      8  C   UNL     1      31.758  -0.399  27.298  1.00  0.00    -0.007 C 
ATOM      9  C   UNL     1      30.641  -0.351  27.976  1.00  0.00    -0.033 C 
BRANCH   9  10
ATOM     10  C   UNL     1      30.381   0.558  29.126  1.00  0.00     0.033 C 
ATOM     11  C   UNL     1      29.693   1.794  28.623  1.00  0.00     0.009 C 
ENDBRANCH   9  10
BRANCH   9  12
ATOM     12  C   UNL     1      29.533  -1.278  27.682  1.00  0.00    -0.022 A 
ATOM     13  C   UNL     1      29.449  -2.517  28.262  1.00  0.00     0.008 A 
ATOM     14  C   UNL     1      28.578  -0.879  26.797  1.00  0.00     0.008 A 
ATOM     15  C   UNL     1      28.402  -3.346  27.946  1.00  0.00     0.001 A 
ATOM     16  C   UNL     1      27.495  -1.691  26.446  1.00  0.00     0.001 A 
ATOM     17  C   UNL     1      27.437  -2.929  27.045  1.00  0.00     0.000 A 
ENDBRANCH   9  12
BRANCH   8  18
ATOM     18  C   UNL     1      32.853   0.475  27.667  1.00  0.00    -0.018 A 
ATOM     19  C   UNL     1      33.084   1.677  27.030  1.00  0.00     0.009 A 
ATOM     20  C   UNL     1      33.737   0.079  28.666  1.00  0.00     0.009 A 
ATOM     21  C   UNL     1      34.167   2.434  27.397  1.00  0.00     0.001 A 
ATOM     22  C   UNL     1      34.827   0.827  29.048  1.00  0.00     0.001 A 
ATOM     23  C   UNL     1      35.039   2.035  28.390  1.00  0.00     0.000 A 
ENDBRANCH   8  18
ENDBRANCH   3   8
ENDBRANCH   1   2
BRANCH   1  24
ATOM     24  C   UNL     1      33.028  -3.364  21.515  1.00  0.00     0.290 C 
BRANCH  24  25
ATOM     25  C   UNL     1      34.253  -4.120  21.072  1.00  0.00     0.303 C 
BRANCH  25  26
ATOM     26  N   UNL     1      34.671  -3.776  19.747  1.00  0.00    -0.337 N 
ATOM     27  C   UNL     1      34.780  -2.350  19.530  1.00  0.00     0.332 C 
ATOM     28  C   UNL     1      33.787  -4.297  18.724  1.00  0.00     0.332 C 
ATOM     29  H   UNL     1      35.629  -4.181  19.526  1.00  0.00     0.347 HD
ENDBRANCH  25  26
ENDBRANCH  24  25
ENDBRANCH   1  24
TORSDOF 8
ENDMDL
MODEL 3
REMARK VINA RESULT:     -10.3      0.686      1.231
REMARK SMILES CC/C(=C(\c1ccccc1)c1ccc(OCC[NH+](C)C)cc1)c1ccccc1
REMARK SMILES IDX 15 1 14 2 11 3 12 4 22 5 13 6 21 7 4 8 3 9 2 10 1 11 23 12
REMARK SMILES IDX 24 13 28 14 25 15 27 16 26 17 5 18 6 19 10 20 7 21 9 22 8 23
REMARK SMILES IDX 16 24 17 25 18 26 19 27 20 28
REMARK H PARENT 18 29
ROOT
ATOM      1  O   UNL     1      32.610  -3.799  22.877  1.00  0.00    -0.488 OA
ENDROOT
BRANCH   1   2
ATOM      2  C   UNL     1      32.397  -2.926  23.927  1.00  0.00     0.119 A 
ATOM      3  C   UNL     1      32.010  -1.198  26.169  1.00  0.00    -0.017 A 
ATOM      4  C   UNL     1      31.641  -0.826  24.891  1.00  0.00     0.012 A 
ATOM      5  C   UNL     1      32.577  -2.462  26.293  1.00  0.00     0.012 A 
ATOM      6  C   UNL     1      31.835  -1.675  23.813  1.00  0.00     0.047 A 
ATOM      7  C   UNL     1      32.769  -3.300  25.227  1.00  0.00     0.047 A 
BRANCH   3   8
ATOM      8  C   UNL     1      31.796  -0.338  27.319  1.00  0.00    -0.007 C 
ATOM      9  C   UNL     1      30.664  -0.301  27.973  1.00  0.00    -0.033 C 
BRANCH   9  10
ATOM     10  C   UNL     1      30.375   0.593  29.128  1.00  0.00     0.033 C 
ATOM     11  C   UNL     1      29.652   1.810  28.630  1.00  0.00     0.009 C 
ENDBRANCH   9  10
BRANCH   9  12
ATOM     12  C   UNL     1      29.566  -1.228  27.643  1.00  0.00    -0.022 A 
ATOM     13  C   UNL     1      28.590  -0.905  26.736  1.00  0.00     0.008 A 
ATOM     14  C   UNL     1      29.530  -2.434  28.275  1.00  0.00     0.008 A 
ATOM     15  C   UNL     1      27.584  -1.800  26.472  1.00  0.00     0.001 A 
ATOM     16  C   UNL     1      28.523  -3.374  28.037  1.00  0.00     0.001 A 
ATOM     17  C   UNL     1      27.558  -3.023  27.121  1.00  0.00     0.000 A 
ENDBRANCH   9  12
BRANCH   8  18
ATOM     18  C   UNL     1      32.880   0.535  27.724  1.00  0.00    -0.018 A 
ATOM     19  C   UNL     1      33.101   1.760  27.129  1.00  0.00     0.009 A 
ATOM     20  C   UNL     1      33.764   0.115  28.713  1.00  0.00     0.009 A 
ATOM     21  C   UNL     1      34.173   2.517  27.527  1.00  0.00     0.001 A 
ATOM     22  C   UNL     1      34.844   0.861  29.125  1.00  0.00     0.001 A 
ATOM     23  C   UNL     1      35.045   2.093  28.510  1.00  0.00     0.000 A 
ENDBRANCH   8  18
ENDBRANCH   3   8
ENDBRANCH   1   2
BRANCH   1  24
ATOM     24  C   UNL     1      32.981  -3.512  21.574  1.00  0.00     0.290 C 
BRANCH  24  25
ATOM     25  C   UNL     1      34.034  -4.411  20.981  1.00  0.00     0.303 C 
BRANCH  25  26
ATOM     26  N   UNL     1      34.607  -3.882  19.780  1.00  0.00    -0.337 N 
ATOM     27  C   UNL     1      34.726  -2.440  19.787  1.00  0.00     0.332 C 
ATOM     28  C   UNL     1      33.860  -4.243  18.593  1.00  0.00     0.332 C 
ATOM     29  H   UNL     1      35.589  -4.258  19.622  1.00  0.00     0.347 HD
ENDBRANCH  25  26
ENDBRANCH  24  25
ENDBRANCH   1  24
TORSDOF 8
ENDMDL
MODEL 4
REMARK VINA RESULT:     -10.3      0.656      1.213
REMARK SMILES CC/C(=C(\c1ccccc1)c1ccc(OCC[NH+](C)C)cc1)c1ccccc1
REMARK SMILES IDX 15 1 14 2 11 3 12 4 22 5 13 6 21 7 4 8 3 9 2 10 1 11 23 12
REMARK SMILES IDX 24 13 28 14 25 15 27 16 26 17 5 18 6 19 10 20 7 21 9 22 8 23
REMARK SMILES IDX 16 24 17 25 18 26 19 27 20 28
REMARK H PARENT 18 29
ROOT
ATOM      1  O   UNL     1      32.634  -3.832  22.807  1.00  0.00    -0.488 OA
ENDROOT
BRANCH   1   2
ATOM      2  C   UNL     1      32.450  -3.046  23.930  1.00  0.00     0.119 A 
ATOM      3  C   UNL     1      32.020  -1.342  26.181  1.00  0.00    -0.017 A 
ATOM      4  C   UNL     1      32.555  -2.607  26.318  1.00  0.00     0.012 A 
ATOM      5  C   UNL     1      31.707  -0.952  24.883  1.00  0.00     0.012 A 
ATOM      6  C   UNL     1      32.758  -3.422  25.216  1.00  0.00     0.047 A 
ATOM      7  C   UNL     1      31.908  -1.759  23.795  1.00  0.00     0.047 A 
BRANCH   3   8
ATOM      8  C   UNL     1      31.818  -0.457  27.315  1.00  0.00    -0.007 C 
ATOM      9  C   UNL     1      30.678  -0.368  27.948  1.00  0.00    -0.033 C 
BRANCH   9  10
ATOM     10  C   UNL     1      30.403   0.555  29.084  1.00  0.00     0.033 C 
ATOM     11  C   UNL     1      29.711   1.779  28.558  1.00  0.00     0.009 C 
ENDBRANCH   9  10
BRANCH   9  12
ATOM     12  C   UNL     1      29.552  -1.260  27.614  1.00  0.00    -0.022 A 
ATOM     13  C   UNL     1      28.586  -0.903  26.709  1.00  0.00     0.008 A 
ATOM     14  C   UNL     1      29.480  -2.467  28.239  1.00  0.00     0.008 A 
ATOM     15  C   UNL     1      27.553  -1.765  26.441  1.00  0.00     0.001 A 
ATOM     16  C   UNL     1      28.446  -3.376  27.996  1.00  0.00     0.001 A 
ATOM     17  C   UNL     1      27.491  -2.990  27.083  1.00  0.00     0.000 A 
ENDBRANCH   9  12
BRANCH   8  18
ATOM     18  C   UNL     1      32.926   0.383  27.724  1.00  0.00    -0.018 A 
ATOM     19  C   UNL     1      33.772   0.035  28.758  1.00  0.00     0.009 A 
ATOM     20  C   UNL     1      33.127   1.608  27.094  1.00  0.00     0.009 A 
ATOM     21  C   UNL     1      34.772   0.897  29.127  1.00  0.00     0.001 A 
ATOM     22  C   UNL     1      34.125   2.484  27.451  1.00  0.00     0.001 A 
ATOM     23  C   UNL     1      34.965   2.110  28.495  1.00  0.00     0.000 A 
ENDBRANCH   8  18
ENDBRANCH   3   8
ENDBRANCH   1   2
BRANCH   1  24
ATOM     24  C   UNL     1      33.057  -3.453  21.545  1.00  0.00     0.290 C 
BRANCH  24  25
ATOM     25  C   UNL     1      34.333  -4.092  21.063  1.00  0.00     0.303 C 
BRANCH  25  26
ATOM     26  N   UNL     1      34.613  -3.812  19.687  1.00  0.00    -0.337 N 
ATOM     27  C   UNL     1      34.720  -2.398  19.398  1.00  0.00     0.332 C 
ATOM     28  C   UNL     1      33.617  -4.356  18.788  1.00  0.00     0.332 C 
ATOM     29  H   UNL     1      35.536  -4.245  19.383  1.00  0.00     0.347 HD
ENDBRANCH  25  26
ENDBRANCH  24  25
ENDBRANCH   1  24
TORSDOF 8
ENDMDL
MODEL 5
REMARK VINA RESULT:     -10.2      0.711      1.256
REMARK SMILES CC/C(=C(\c1ccccc1)c1ccc(OCC[NH+](C)C)cc1)c1ccccc1
REMARK SMILES IDX 15 1 14 2 11 3 12 4 22 5 13 6 21 7 4 8 3 9 2 10 1 11 23 12
REMARK SMILES IDX 24 13 28 14 25 15 27 16 26 17 5 18 6 19 10 20 7 21 9 22 8 23
REMARK SMILES IDX 16 24 17 25 18 26 19 27 20 28
REMARK H PARENT 18 29
ROOT
ATOM      1  O   UNL     1      32.633  -3.703  22.873  1.00  0.00    -0.488 OA
ENDROOT
BRANCH   1   2
ATOM      2  C   UNL     1      32.439  -2.928  24.002  1.00  0.00     0.119 A 
ATOM      3  C   UNL     1      31.988  -1.247  26.266  1.00  0.00    -0.017 A 
ATOM      4  C   UNL     1      32.526  -2.512  26.395  1.00  0.00     0.012 A 
ATOM      5  C   UNL     1      31.683  -0.846  24.969  1.00  0.00     0.012 A 
ATOM      6  C   UNL     1      32.739  -3.316  25.287  1.00  0.00     0.047 A 
ATOM      7  C   UNL     1      31.894  -1.642  23.876  1.00  0.00     0.047 A 
BRANCH   3   8
ATOM      8  C   UNL     1      31.776  -0.373  27.407  1.00  0.00    -0.007 C 
ATOM      9  C   UNL     1      30.644  -0.327  28.061  1.00  0.00    -0.033 C 
BRANCH   9  10
ATOM     10  C   UNL     1      30.357   0.582  29.205  1.00  0.00     0.033 C 
ATOM     11  C   UNL     1      29.670   1.812  28.687  1.00  0.00     0.009 C 
ENDBRANCH   9  10
BRANCH   9  12
ATOM     12  C   UNL     1      29.545  -1.256  27.743  1.00  0.00    -0.022 A 
ATOM     13  C   UNL     1      29.460  -2.502  28.309  1.00  0.00     0.008 A 
ATOM     14  C   UNL     1      28.599  -0.854  26.850  1.00  0.00     0.008 A 
ATOM     15  C   UNL     1      28.422  -3.334  27.972  1.00  0.00     0.001 A 
ATOM     16  C   UNL     1      27.525  -1.668  26.478  1.00  0.00     0.001 A 
ATOM     17  C   UNL     1      27.466  -2.912  27.063  1.00  0.00     0.000 A 
ENDBRANCH   9  12
BRANCH   8  18
ATOM     18  C   UNL     1      32.860   0.503  27.800  1.00  0.00    -0.018 A 
ATOM     19  C   UNL     1      33.103   1.707  27.167  1.00  0.00     0.009 A 
ATOM     20  C   UNL     1      33.725   0.110  28.817  1.00  0.00     0.009 A 
ATOM     21  C   UNL     1      34.175   2.466  27.557  1.00  0.00     0.001 A 
ATOM     22  C   UNL     1      34.805   0.860  29.221  1.00  0.00     0.001 A 
ATOM     23  C   UNL     1      35.027   2.069  28.569  1.00  0.00     0.000 A 
ENDBRANCH   8  18
ENDBRANCH   3   8
ENDBRANCH   1   2
BRANCH   1  24
ATOM     24  C   UNL     1      32.474  -3.351  21.544  1.00  0.00     0.290 C 
BRANCH  24  25
ATOM     25  C   UNL     1      31.051  -3.188  21.076  1.00  0.00     0.303 C 
BRANCH  25  26
ATOM     26  N   UNL     1      30.883  -3.492  19.687  1.00  0.00    -0.337 N 
ATOM     27  C   UNL     1      31.775  -2.750  18.824  1.00  0.00     0.332 C 
ATOM     28  C   UNL     1      29.534  -3.248  19.218  1.00  0.00     0.332 C 
ATOM     29  H   UNL     1      31.069  -4.520  19.490  1.00  0.00     0.347 HD
ENDBRANCH  25  26
ENDBRANCH  24  25
ENDBRANCH   1  24
TORSDOF 8
ENDMDL
MODEL 6
REMARK VINA RESULT:     -10.2      0.123      1.281
REMARK SMILES CC/C(=C(\c1ccccc1)c1ccc(OCC[NH+](C)C)cc1)c1ccccc1
REMARK SMILES IDX 15 1 14 2 11 3 12 4 22 5 13 6 21 7 4 8 3 9 2 10 1 11 23 12
REMARK SMILES IDX 24 13 28 14 25 15 27 16 26 17 5 18 6 19 10 20 7 21 9 22 8 23
REMARK SMILES IDX 16 24 17 25 18 26 19 27 20 28
REMARK H PARENT 18 29
ROOT
ATOM      1  O   UNL     1      32.410  -3.619  22.624  1.00  0.00    -0.488 OA
ENDROOT
BRANCH   1   2
ATOM      2  C   UNL     1      32.275  -2.884  23.787  1.00  0.00     0.119 A 
ATOM      3  C   UNL     1      31.944  -1.281  26.128  1.00  0.00    -0.017 A 
ATOM      4  C   UNL     1      32.465  -2.558  26.189  1.00  0.00     0.012 A 
ATOM      5  C   UNL     1      31.594  -0.827  24.860  1.00  0.00     0.012 A 
ATOM      6  C   UNL     1      32.619  -3.324  25.044  1.00  0.00     0.047 A 
ATOM      7  C   UNL     1      31.747  -1.586  23.730  1.00  0.00     0.047 A 
BRANCH   3   8
ATOM      8  C   UNL     1      31.794  -0.447  27.307  1.00  0.00    -0.007 C 
ATOM      9  C   UNL     1      30.686  -0.397  28.001  1.00  0.00    -0.033 C 
BRANCH   9  10
ATOM     10  C   UNL     1      30.462   0.474  29.187  1.00  0.00     0.033 C 
ATOM     11  C   UNL     1      29.780   1.735  28.742  1.00  0.00     0.009 C 
ENDBRANCH   9  10
BRANCH   9  12
ATOM     12  C   UNL     1      29.553  -1.285  27.686  1.00  0.00    -0.022 A 
ATOM     13  C   UNL     1      29.440  -2.539  28.228  1.00  0.00     0.008 A 
ATOM     14  C   UNL     1      28.603  -0.834  26.820  1.00  0.00     0.008 A 
ATOM     15  C   UNL     1      28.370  -3.331  27.894  1.00  0.00     0.001 A 
ATOM     16  C   UNL     1      27.497  -1.606  26.452  1.00  0.00     0.001 A 
ATOM     17  C   UNL     1      27.410  -2.860  27.012  1.00  0.00     0.000 A 
ENDBRANCH   9  12
BRANCH   8  18
ATOM     18  C   UNL     1      32.914   0.386  27.696  1.00  0.00    -0.018 A 
ATOM     19  C   UNL     1      33.792   0.021  28.697  1.00  0.00     0.009 A 
ATOM     20  C   UNL     1      33.095   1.621  27.080  1.00  0.00     0.009 A 
ATOM     21  C   UNL     1      34.803   0.877  29.048  1.00  0.00     0.001 A 
ATOM     22  C   UNL     1      34.105   2.492  27.419  1.00  0.00     0.001 A 
ATOM     23  C   UNL     1      34.977   2.101  28.431  1.00  0.00     0.000 A 
ENDBRANCH   8  18
ENDBRANCH   3   8
ENDBRANCH   1   2
BRANCH   1  24
ATOM     24  C   UNL     1      33.545  -3.833  21.862  1.00  0.00     0.290 C 
BRANCH  24  25
ATOM     25  C   UNL     1      33.561  -3.167  20.511  1.00  0.00     0.303 C 
BRANCH  25  26
ATOM     26  N   UNL     1      32.701  -3.808  19.563  1.00  0.00    -0.337 N 
ATOM     27  C   UNL     1      33.398  -4.299  18.394  1.00  0.00     0.332 C 
ATOM     28  C   UNL     1      31.639  -2.943  19.092  1.00  0.00     0.332 C 
ATOM     29  H   UNL     1      32.212  -4.650  19.990  1.00  0.00     0.347 HD
ENDBRANCH  25  26
ENDBRANCH  24  25
ENDBRANCH   1  24
TORSDOF 8
ENDMDL
MODEL 7
REMARK VINA RESULT:     -10.1      0.428      1.336
REMARK SMILES CC/C(=C(\c1ccccc1)c1ccc(OCC[NH+](C)C)cc1)c1ccccc1
REMARK SMILES IDX 15 1 14 2 11 3 12 4 22 5 13 6 21 7 4 8 3 9 2 10 1 11 23 12
REMARK SMILES IDX 24 13 28 14 25 15 27 16 26 17 5 18 6 19 10 20 7 21 9 22 8 23
REMARK SMILES IDX 16 24 17 25 18 26 19 27 20 28
REMARK H PARENT 18 29
ROOT
ATOM      1  O   UNL     1      32.481  -3.609  22.743  1.00  0.00    -0.488 OA
ENDROOT
BRANCH   1   2
ATOM      2  C   UNL     1      32.310  -2.799  23.851  1.00  0.00     0.119 A 
ATOM      3  C   UNL     1      32.011  -1.208  26.204  1.00  0.00    -0.017 A 
ATOM      4  C   UNL     1      31.639  -0.742  24.958  1.00  0.00     0.012 A 
ATOM      5  C   UNL     1      32.536  -2.496  26.238  1.00  0.00     0.012 A 
ATOM      6  C   UNL     1      31.790  -1.526  23.825  1.00  0.00     0.047 A 
ATOM      7  C   UNL     1      32.686  -3.269  25.118  1.00  0.00     0.047 A 
BRANCH   3   8
ATOM      8  C   UNL     1      31.841  -0.418  27.410  1.00  0.00    -0.007 C 
ATOM      9  C   UNL     1      30.717  -0.381  28.078  1.00  0.00    -0.033 C 
BRANCH   9  10
ATOM     10  C   UNL     1      30.473   0.446  29.292  1.00  0.00     0.033 C 
ATOM     11  C   UNL     1      29.806   1.726  28.881  1.00  0.00     0.009 C 
ENDBRANCH   9  10
BRANCH   9  12
ATOM     12  C   UNL     1      29.581  -1.242  27.701  1.00  0.00    -0.022 A 
ATOM     13  C   UNL     1      28.618  -0.829  26.817  1.00  0.00     0.008 A 
ATOM     14  C   UNL     1      29.495  -2.479  28.265  1.00  0.00     0.008 A 
ATOM     15  C   UNL     1      27.575  -1.666  26.507  1.00  0.00     0.001 A 
ATOM     16  C   UNL     1      28.451  -3.362  27.979  1.00  0.00     0.001 A 
ATOM     17  C   UNL     1      27.500  -2.921  27.088  1.00  0.00     0.000 A 
ENDBRANCH   9  12
BRANCH   8  18
ATOM     18  C   UNL     1      32.961   0.384  27.858  1.00  0.00    -0.018 A 
ATOM     19  C   UNL     1      33.801  -0.024  28.875  1.00  0.00     0.009 A 
ATOM     20  C   UNL     1      33.180   1.634  27.286  1.00  0.00     0.009 A 
ATOM     21  C   UNL     1      34.813   0.806  29.283  1.00  0.00     0.001 A 
ATOM     22  C   UNL     1      34.191   2.478  27.682  1.00  0.00     0.001 A 
ATOM     23  C   UNL     1      35.025   2.043  28.708  1.00  0.00     0.000 A 
ENDBRANCH   8  18
ENDBRANCH   3   8
ENDBRANCH   1   2
BRANCH   1  24
ATOM     24  C   UNL     1      32.017  -3.421  21.453  1.00  0.00     0.290 C 
BRANCH  24  25
ATOM     25  C   UNL     1      33.075  -3.318  20.385  1.00  0.00     0.303 C 
BRANCH  25  26
ATOM     26  N   UNL     1      32.619  -3.764  19.104  1.00  0.00    -0.337 N 
ATOM     27  C   UNL     1      33.688  -4.213  18.237  1.00  0.00     0.332 C 
ATOM     28  C   UNL     1      31.885  -2.745  18.382  1.00  0.00     0.332 C 
ATOM     29  H   UNL     1      31.949  -4.585  19.195  1.00  0.00     0.347 HD
ENDBRANCH  25  26
ENDBRANCH  24  25
ENDBRANCH   1  24
TORSDOF 8
ENDMDL
MODEL 8
REMARK VINA RESULT:      -9.9      0.806      1.879
REMARK SMILES CC/C(=C(\c1ccccc1)c1ccc(OCC[NH+](C)C)cc1)c1ccccc1
REMARK SMILES IDX 15 1 14 2 11 3 12 4 22 5 13 6 21 7 4 8 3 9 2 10 1 11 23 12
REMARK SMILES IDX 24 13 28 14 25 15 27 16 26 17 5 18 6 19 10 20 7 21 9 22 8 23
REMARK SMILES IDX 16 24 17 25 18 26 19 27 20 28
REMARK H PARENT 18 29
ROOT
ATOM      1  O   UNL     1      32.528  -3.882  22.925  1.00  0.00    -0.488 OA
ENDROOT
BRANCH   1   2
ATOM      2  C   UNL     1      32.348  -3.009  23.982  1.00  0.00     0.119 A 
ATOM      3  C   UNL     1      32.025  -1.284  26.236  1.00  0.00    -0.017 A 
ATOM      4  C   UNL     1      31.700  -0.878  24.957  1.00  0.00     0.012 A 
ATOM      5  C   UNL     1      32.516  -2.581  26.356  1.00  0.00     0.012 A 
ATOM      6  C   UNL     1      31.862  -1.727  23.873  1.00  0.00     0.047 A 
ATOM      7  C   UNL     1      32.676  -3.417  25.283  1.00  0.00     0.047 A 
BRANCH   3   8
ATOM      8  C   UNL     1      31.843  -0.426  27.393  1.00  0.00    -0.007 C 
ATOM      9  C   UNL     1      30.713  -0.353  28.048  1.00  0.00    -0.033 C 
BRANCH   9  10
ATOM     10  C   UNL     1      30.457   0.543  29.209  1.00  0.00     0.033 C 
ATOM     11  C   UNL     1      29.813   1.805  28.715  1.00  0.00     0.009 C 
ENDBRANCH   9  10
BRANCH   9  12
ATOM     12  C   UNL     1      29.583  -1.238  27.712  1.00  0.00    -0.022 A 
ATOM     13  C   UNL     1      29.460  -2.494  28.246  1.00  0.00     0.008 A 
ATOM     14  C   UNL     1      28.646  -0.781  26.835  1.00  0.00     0.008 A 
ATOM     15  C   UNL     1      28.393  -3.282  27.893  1.00  0.00     0.001 A 
ATOM     16  C   UNL     1      27.545  -1.550  26.447  1.00  0.00     0.001 A 
ATOM     17  C   UNL     1      27.448  -2.806  27.000  1.00  0.00     0.000 A 
ENDBRANCH   9  12
BRANCH   8  18
ATOM     18  C   UNL     1      32.957   0.405  27.803  1.00  0.00    -0.018 A 
ATOM     19  C   UNL     1      33.802   0.048  28.835  1.00  0.00     0.009 A 
ATOM     20  C   UNL     1      33.165   1.630  27.176  1.00  0.00     0.009 A 
ATOM     21  C   UNL     1      34.809   0.903  29.204  1.00  0.00     0.001 A 
ATOM     22  C   UNL     1      34.170   2.498  27.533  1.00  0.00     0.001 A 
ATOM     23  C   UNL     1      35.009   2.116  28.575  1.00  0.00     0.000 A 
ENDBRANCH   8  18
ENDBRANCH   3   8
ENDBRANCH   1   2
BRANCH   1  24
ATOM     24  C   UNL     1      32.807  -3.593  21.601  1.00  0.00     0.290 C 
BRANCH  24  25
ATOM     25  C   UNL     1      34.244  -3.263  21.293  1.00  0.00     0.303 C 
BRANCH  25  26
ATOM     26  N   UNL     1      34.382  -2.241  20.300  1.00  0.00    -0.337 N 
ATOM     27  C   UNL     1      34.122  -2.706  18.955  1.00  0.00     0.332 C 
ATOM     28  C   UNL     1      35.697  -1.634  20.295  1.00  0.00     0.332 C 
ATOM     29  H   UNL     1      33.702  -1.441  20.471  1.00  0.00     0.347 HD
ENDBRANCH  25  26
ENDBRANCH  24  25
ENDBRANCH   1  24
TORSDOF 8
ENDMDL
MODEL 9
REMARK VINA RESULT:      -9.9      0.942      4.698
REMARK SMILES CC/C(=C(\c1ccccc1)c1ccc(OCC[NH+](C)C)cc1)c1ccccc1
REMARK SMILES IDX 15 1 14 2 11 3 12 4 22 5 13 6 21 7 4 8 3 9 2 10 1 11 23 12
REMARK SMILES IDX 24 13 28 14 25 15 27 16 26 17 5 18 6 19 10 20 7 21 9 22 8 23
REMARK SMILES IDX 16 24 17 25 18 26 19 27 20 28
REMARK H PARENT 18 29
ROOT
ATOM      1  O   UNL     1      33.847  -3.066  23.029  1.00  0.00    -0.488 OA
ENDROOT
BRANCH   1   2
ATOM      2  C   UNL     1      33.019  -2.535  24.001  1.00  0.00     0.119 A 
ATOM      3  C   UNL     1      31.368  -1.500  26.089  1.00  0.00    -0.017 A 
ATOM      4  C   UNL     1      31.242  -1.072  24.782  1.00  0.00     0.012 A 
ATOM      5  C   UNL     1      32.344  -2.463  26.322  1.00  0.00     0.012 A 
ATOM      6  C   UNL     1      32.051  -1.584  23.780  1.00  0.00     0.047 A 
ATOM      7  C   UNL     1      33.143  -2.967  25.330  1.00  0.00     0.047 A 
BRANCH   3   8
ATOM      8  C   UNL     1      30.518  -0.999  27.155  1.00  0.00    -0.007 C 
ATOM      9  C   UNL     1      30.902  -0.063  27.984  1.00  0.00    -0.033 C 
BRANCH   9  10
ATOM     10  C   UNL     1      30.092   0.453  29.121  1.00  0.00     0.033 C 
ATOM     11  C   UNL     1      29.515   1.786  28.741  1.00  0.00     0.009 C 
ENDBRANCH   9  10
BRANCH   9  12
ATOM     12  C   UNL     1      32.193   0.626  27.805  1.00  0.00    -0.022 A 
ATOM     13  C   UNL     1      32.402   1.528  26.793  1.00  0.00     0.008 A 
ATOM     14  C   UNL     1      33.201   0.340  28.675  1.00  0.00     0.008 A 
ATOM     15  C   UNL     1      33.626   2.135  26.665  1.00  0.00     0.001 A 
ATOM     16  C   UNL     1      34.463   0.934  28.580  1.00  0.00     0.001 A 
ATOM     17  C   UNL     1      34.643   1.834  27.556  1.00  0.00     0.000 A 
ENDBRANCH   9  12
BRANCH   8  18
ATOM     18  C   UNL     1      29.209  -1.599  27.317  1.00  0.00    -0.018 A 
ATOM     19  C   UNL     1      29.023  -2.797  27.977  1.00  0.00     0.009 A 
ATOM     20  C   UNL     1      28.098  -0.980  26.752  1.00  0.00     0.009 A 
ATOM     21  C   UNL     1      27.764  -3.333  28.053  1.00  0.00     0.001 A 
ATOM     22  C   UNL     1      26.828  -1.503  26.819  1.00  0.00     0.001 A 
ATOM     23  C   UNL     1      26.666  -2.712  27.490  1.00  0.00     0.000 A 
ENDBRANCH   8  18
ENDBRANCH   3   8
ENDBRANCH   1   2
BRANCH   1  24
ATOM     24  C   UNL     1      33.767  -2.929  21.654  1.00  0.00     0.290 C 
BRANCH  24  25
ATOM     25  C   UNL     1      34.359  -4.056  20.849  1.00  0.00     0.303 C 
BRANCH  25  26
ATOM     26  N   UNL     1      34.678  -3.674  19.506  1.00  0.00    -0.337 N 
ATOM     27  C   UNL     1      34.640  -2.244  19.290  1.00  0.00     0.332 C 
ATOM     28  C   UNL     1      33.798  -4.276  18.526  1.00  0.00     0.332 C 
ATOM     29  H   UNL     1      35.658  -3.987  19.237  1.00  0.00     0.347 HD
ENDBRANCH  25  26
ENDBRANCH  24  25
ENDBRANCH   1  24
TORSDOF 8
ENDMDL
