MODEL 1
REMARK VINA RESULT:      -4.5      0.000      0.000
REMARK SMILES O=S(=O)([N-]CC[NH2+]C/C=C/c1ccc(Br)cc1)c1cccc2cnccc12
REMARK SMILES IDX 6 1 5 2 4 3 2 4 1 5 3 6 18 7 19 8 27 9 20 10 26 11 22 12
REMARK SMILES IDX 21 13 25 14 23 15 24 16 7 17 8 20 9 21 10 22 11 23 12 24
REMARK SMILES IDX 17 25 13 26 16 27 14 28 15 29
REMARK H PARENT 7 18 7 19
ROOT
ATOM      1  C   UNL     1      -8.690  11.677   2.581  1.00  0.00     0.238 C 
ENDROOT
BRANCH   1   2
ATOM      2  C   UNL     1      -7.399  11.120   3.136  1.00  0.00    -0.070 C 
BRANCH   2   3
ATOM      3  N   UNL     1      -6.498  10.757   2.064  1.00  0.00    -0.540 NA
BRANCH   3   4
ATOM      4  S   UNL     1      -5.124  11.853   2.032  1.00  0.00     0.102 S 
ATOM      5  O   UNL     1      -4.015  11.064   2.530  1.00  0.00    -0.244 OA
ATOM      6  O   UNL     1      -5.461  12.915   3.045  1.00  0.00    -0.244 OA
BRANCH   4   7
ATOM      7  C   UNL     1      -5.080  12.540   0.483  1.00  0.00     0.056 A 
ATOM      8  C   UNL     1      -5.946  12.101  -0.496  1.00  0.00     0.019 A 
ATOM      9  C   UNL     1      -4.194  13.541   0.149  1.00  0.00     0.002 A 
ATOM     10  C   UNL     1      -5.906  12.665  -1.762  1.00  0.00     0.002 A 
ATOM     11  C   UNL     1      -3.331  13.978   1.130  1.00  0.00     0.030 A 
ATOM     12  C   UNL     1      -4.133  14.125  -1.116  1.00  0.00     0.001 A 
ATOM     13  C   UNL     1      -5.012  13.667  -2.082  1.00  0.00     0.010 A 
ATOM     14  C   UNL     1      -2.442  14.970   0.833  1.00  0.00     0.111 A 
ATOM     15  C   UNL     1      -3.221  15.126  -1.386  1.00  0.00     0.119 A 
ATOM     16  N   UNL     1      -2.407  15.511  -0.393  1.00  0.00    -0.264 NA
ENDBRANCH   4   7
ENDBRANCH   3   4
ENDBRANCH   2   3
ENDBRANCH   1   2
BRANCH   1  17
ATOM     17  N   UNL     1      -8.619  13.082   2.306  1.00  0.00    -0.344 N 
ATOM     18  H   UNL     1      -8.561  13.615   3.179  1.00  0.00     0.346 HD
ATOM     19  H   UNL     1      -7.788  13.258   1.692  1.00  0.00     0.346 HD
BRANCH  17  20
ATOM     20  C   UNL     1      -9.785  13.444   1.529  1.00  0.00     0.289 C 
BRANCH  20  21
ATOM     21  C   UNL     1      -9.467  13.835   0.152  1.00  0.00     0.034 C 
ATOM     22  C   UNL     1      -9.562  12.945  -0.819  1.00  0.00     0.009 C 
BRANCH  22  23
ATOM     23  C   UNL     1      -9.274  13.213  -2.222  1.00  0.00    -0.026 A 
ATOM     24  C   UNL     1      -9.365  12.200  -3.150  1.00  0.00     0.009 A 
ATOM     25  C   UNL     1      -8.906  14.450  -2.693  1.00  0.00     0.009 A 
ATOM     26  C   UNL     1      -9.105  12.395  -4.494  1.00  0.00     0.016 A 
ATOM     27  C   UNL     1      -8.639  14.659  -4.052  1.00  0.00     0.016 A 
ATOM     28  C   UNL     1      -8.735  13.637  -4.963  1.00  0.00     0.018 A 
ATOM     29  Br  UNL     1      -8.366  13.945  -6.818  1.00  0.00    -0.051 Br
ENDBRANCH  22  23
ENDBRANCH  20  21
ENDBRANCH  17  20
ENDBRANCH   1  17
TORSDOF 8
ENDMDL
MODEL 2
REMARK VINA RESULT:      -4.3      2.684      4.138
REMARK SMILES O=S(=O)([N-]CC[NH2+]C/C=C/c1ccc(Br)cc1)c1cccc2cnccc12
REMARK SMILES IDX 6 1 5 2 4 3 2 4 1 5 3 6 18 7 19 8 27 9 20 10 26 11 22 12
REMARK SMILES IDX 21 13 25 14 23 15 24 16 7 17 8 20 9 21 10 22 11 23 12 24
REMARK SMILES IDX 17 25 13 26 16 27 14 28 15 29
REMARK H PARENT 7 18 7 19
ROOT
ATOM      1  C   UNL     1      -4.142  11.267   3.390  1.00  0.00     0.238 C 
ENDROOT
BRANCH   1   2
ATOM      2  C   UNL     1      -4.301  12.564   2.631  1.00  0.00    -0.070 C 
BRANCH   2   3
ATOM      3  N   UNL     1      -4.335  12.321   1.206  1.00  0.00    -0.540 NA
BRANCH   3   4
ATOM      4  S   UNL     1      -3.748  13.732   0.337  1.00  0.00     0.102 S 
ATOM      5  O   UNL     1      -2.463  13.326  -0.195  1.00  0.00    -0.244 OA
ATOM      6  O   UNL     1      -3.528  14.772   1.404  1.00  0.00    -0.244 OA
BRANCH   4   7
ATOM      7  C   UNL     1      -5.000  14.231  -0.691  1.00  0.00     0.056 A 
ATOM      8  C   UNL     1      -4.951  13.938  -2.037  1.00  0.00     0.019 A 
ATOM      9  C   UNL     1      -6.091  14.936  -0.231  1.00  0.00     0.002 A 
ATOM     10  C   UNL     1      -5.976  14.350  -2.875  1.00  0.00     0.002 A 
ATOM     11  C   UNL     1      -6.137  15.226   1.115  1.00  0.00     0.030 A 
ATOM     12  C   UNL     1      -7.135  15.362  -1.051  1.00  0.00     0.001 A 
ATOM     13  C   UNL     1      -7.063  15.056  -2.399  1.00  0.00     0.010 A 
ATOM     14  C   UNL     1      -7.205  15.921   1.605  1.00  0.00     0.111 A 
ATOM     15  C   UNL     1      -8.202  16.065  -0.526  1.00  0.00     0.119 A 
ATOM     16  N   UNL     1      -8.193  16.318   0.790  1.00  0.00    -0.264 NA
ENDBRANCH   4   7
ENDBRANCH   3   4
ENDBRANCH   2   3
ENDBRANCH   1   2
BRANCH   1  17
ATOM     17  N   UNL     1      -5.219  10.350   3.160  1.00  0.00    -0.344 N 
ATOM     18  H   UNL     1      -5.310  10.148   2.160  1.00  0.00     0.346 HD
ATOM     19  H   UNL     1      -5.037   9.479   3.713  1.00  0.00     0.346 HD
BRANCH  17  20
ATOM     20  C   UNL     1      -6.426  10.934   3.704  1.00  0.00     0.289 C 
BRANCH  20  21
ATOM     21  C   UNL     1      -7.544  10.946   2.755  1.00  0.00     0.034 C 
ATOM     22  C   UNL     1      -8.067  12.097   2.375  1.00  0.00     0.009 C 
BRANCH  22  23
ATOM     23  C   UNL     1      -9.176  12.237   1.440  1.00  0.00    -0.026 A 
ATOM     24  C   UNL     1      -8.930  12.531   0.117  1.00  0.00     0.009 A 
ATOM     25  C   UNL     1     -10.493  12.090   1.805  1.00  0.00     0.009 A 
ATOM     26  C   UNL     1      -9.941  12.675  -0.815  1.00  0.00     0.016 A 
ATOM     27  C   UNL     1     -11.525  12.235   0.869  1.00  0.00     0.016 A 
ATOM     28  C   UNL     1     -11.260  12.527  -0.446  1.00  0.00     0.018 A 
ATOM     29  Br  UNL     1     -12.688  12.720  -1.709  1.00  0.00    -0.051 Br
ENDBRANCH  22  23
ENDBRANCH  20  21
ENDBRANCH  17  20
ENDBRANCH   1  17
TORSDOF 8
ENDMDL
MODEL 3
REMARK VINA RESULT:      -4.3      2.574      3.659
REMARK SMILES O=S(=O)([N-]CC[NH2+]C/C=C/c1ccc(Br)cc1)c1cccc2cnccc12
REMARK SMILES IDX 6 1 5 2 4 3 2 4 1 5 3 6 18 7 19 8 27 9 20 10 26 11 22 12
REMARK SMILES IDX 21 13 25 14 23 15 24 16 7 17 8 20 9 21 10 22 11 23 12 24
REMARK SMILES IDX 17 25 13 26 16 27 14 28 15 29
REMARK H PARENT 7 18 7 19
ROOT
ATOM      1  C   UNL     1     -12.696  14.090   1.180  1.00  0.00     0.238 C 
ENDROOT
BRANCH   1   2
ATOM      2  C   UNL     1     -11.576  13.737   2.131  1.00  0.00    -0.070 C 
BRANCH   2   3
ATOM      3  N   UNL     1     -10.370  14.458   1.790  1.00  0.00    -0.540 NA
BRANCH   3   4
ATOM      4  S   UNL     1      -9.087  13.330   1.376  1.00  0.00     0.102 S 
ATOM      5  O   UNL     1      -9.750  12.045   1.270  1.00  0.00    -0.244 OA
ATOM      6  O   UNL     1      -8.187  13.316   2.583  1.00  0.00    -0.244 OA
BRANCH   4   7
ATOM      7  C   UNL     1      -8.256  13.994   0.056  1.00  0.00     0.056 A 
ATOM      8  C   UNL     1      -8.714  15.148  -0.544  1.00  0.00     0.019 A 
ATOM      9  C   UNL     1      -7.115  13.417  -0.458  1.00  0.00     0.002 A 
ATOM     10  C   UNL     1      -8.032  15.687  -1.624  1.00  0.00     0.002 A 
ATOM     11  C   UNL     1      -6.659  12.265   0.144  1.00  0.00     0.030 A 
ATOM     12  C   UNL     1      -6.410  13.938  -1.543  1.00  0.00     0.001 A 
ATOM     13  C   UNL     1      -6.891  15.097  -2.128  1.00  0.00     0.010 A 
ATOM     14  C   UNL     1      -5.531  11.670  -0.339  1.00  0.00     0.111 A 
ATOM     15  C   UNL     1      -5.272  13.312  -2.010  1.00  0.00     0.119 A 
ATOM     16  N   UNL     1      -4.875  12.195  -1.385  1.00  0.00    -0.264 NA
ENDBRANCH   4   7
ENDBRANCH   3   4
ENDBRANCH   2   3
ENDBRANCH   1   2
BRANCH   1  17
ATOM     17  N   UNL     1     -12.949  13.065   0.210  1.00  0.00    -0.344 N 
ATOM     18  H   UNL     1     -12.071  12.627  -0.085  1.00  0.00     0.346 HD
ATOM     19  H   UNL     1     -13.605  12.364   0.631  1.00  0.00     0.346 HD
BRANCH  17  20
ATOM     20  C   UNL     1     -13.653  13.666  -0.902  1.00  0.00     0.289 C 
BRANCH  20  21
ATOM     21  C   UNL     1     -12.862  13.705  -2.136  1.00  0.00     0.034 C 
ATOM     22  C   UNL     1     -11.552  13.548  -2.079  1.00  0.00     0.009 C 
BRANCH  22  23
ATOM     23  C   UNL     1     -10.663  13.567  -3.233  1.00  0.00    -0.026 A 
ATOM     24  C   UNL     1     -10.520  14.718  -3.975  1.00  0.00     0.009 A 
ATOM     25  C   UNL     1      -9.934  12.476  -3.640  1.00  0.00     0.009 A 
ATOM     26  C   UNL     1      -9.691  14.796  -5.079  1.00  0.00     0.016 A 
ATOM     27  C   UNL     1      -9.091  12.543  -4.757  1.00  0.00     0.016 A 
ATOM     28  C   UNL     1      -8.962  13.700  -5.485  1.00  0.00     0.018 A 
ATOM     29  Br  UNL     1      -7.802  13.769  -7.009  1.00  0.00    -0.051 Br
ENDBRANCH  22  23
ENDBRANCH  20  21
ENDBRANCH  17  20
ENDBRANCH   1  17
TORSDOF 8
ENDMDL
MODEL 4
REMARK VINA RESULT:      -4.2      2.934      5.189
REMARK SMILES O=S(=O)([N-]CC[NH2+]C/C=C/c1ccc(Br)cc1)c1cccc2cnccc12
REMARK SMILES IDX 6 1 5 2 4 3 2 4 1 5 3 6 18 7 19 8 27 9 20 10 26 11 22 12
REMARK SMILES IDX 21 13 25 14 23 15 24 16 7 17 8 20 9 21 10 22 11 23 12 24
REMARK SMILES IDX 17 25 13 26 16 27 14 28 15 29
REMARK H PARENT 7 18 7 19
ROOT
ATOM      1  C   UNL     1      -5.579  14.101  -2.649  1.00  0.00     0.238 C 
ENDROOT
BRANCH   1   2
ATOM      2  C   UNL     1      -5.799  12.803  -1.908  1.00  0.00    -0.070 C 
BRANCH   2   3
ATOM      3  N   UNL     1      -4.660  12.493  -1.072  1.00  0.00    -0.540 NA
BRANCH   3   4
ATOM      4  S   UNL     1      -4.792  13.335   0.465  1.00  0.00     0.102 S 
ATOM      5  O   UNL     1      -4.360  14.689   0.180  1.00  0.00    -0.244 OA
ATOM      6  O   UNL     1      -3.769  12.673   1.351  1.00  0.00    -0.244 OA
BRANCH   4   7
ATOM      7  C   UNL     1      -6.347  13.022   1.064  1.00  0.00     0.056 A 
ATOM      8  C   UNL     1      -7.324  13.992   0.996  1.00  0.00     0.019 A 
ATOM      9  C   UNL     1      -6.685  11.813   1.631  1.00  0.00     0.002 A 
ATOM     10  C   UNL     1      -8.594  13.733   1.488  1.00  0.00     0.002 A 
ATOM     11  C   UNL     1      -5.707  10.847   1.696  1.00  0.00     0.030 A 
ATOM     12  C   UNL     1      -7.955  11.527   2.134  1.00  0.00     0.001 A 
ATOM     13  C   UNL     1      -8.919  12.517   2.054  1.00  0.00     0.010 A 
ATOM     14  C   UNL     1      -6.010   9.637   2.251  1.00  0.00     0.111 A 
ATOM     15  C   UNL     1      -8.230  10.294   2.690  1.00  0.00     0.119 A 
ATOM     16  N   UNL     1      -7.239   9.392   2.726  1.00  0.00    -0.264 NA
ENDBRANCH   4   7
ENDBRANCH   3   4
ENDBRANCH   2   3
ENDBRANCH   1   2
BRANCH   1  17
ATOM     17  N   UNL     1      -6.306  14.170  -3.883  1.00  0.00    -0.344 N 
ATOM     18  H   UNL     1      -5.661  14.270  -4.673  1.00  0.00     0.346 HD
ATOM     19  H   UNL     1      -6.891  13.306  -3.973  1.00  0.00     0.346 HD
BRANCH  17  20
ATOM     20  C   UNL     1      -7.229  15.281  -3.796  1.00  0.00     0.289 C 
BRANCH  20  21
ATOM     21  C   UNL     1      -8.139  15.191  -2.651  1.00  0.00     0.034 C 
ATOM     22  C   UNL     1      -9.319  14.617  -2.797  1.00  0.00     0.009 C 
BRANCH  22  23
ATOM     23  C   UNL     1     -10.308  14.467  -1.737  1.00  0.00    -0.026 A 
ATOM     24  C   UNL     1     -10.786  13.217  -1.411  1.00  0.00     0.009 A 
ATOM     25  C   UNL     1     -10.808  15.526  -1.018  1.00  0.00     0.009 A 
ATOM     26  C   UNL     1     -11.723  13.014  -0.415  1.00  0.00     0.016 A 
ATOM     27  C   UNL     1     -11.757  15.332  -0.007  1.00  0.00     0.016 A 
ATOM     28  C   UNL     1     -12.223  14.079   0.303  1.00  0.00     0.018 A 
ATOM     29  Br  UNL     1     -13.522  13.836   1.691  1.00  0.00    -0.051 Br
ENDBRANCH  22  23
ENDBRANCH  20  21
ENDBRANCH  17  20
ENDBRANCH   1  17
TORSDOF 8
ENDMDL
MODEL 5
REMARK VINA RESULT:      -4.1      3.717      4.565
REMARK SMILES O=S(=O)([N-]CC[NH2+]C/C=C/c1ccc(Br)cc1)c1cccc2cnccc12
REMARK SMILES IDX 6 1 5 2 4 3 2 4 1 5 3 6 18 7 19 8 27 9 20 10 26 11 22 12
REMARK SMILES IDX 21 13 25 14 23 15 24 16 7 17 8 20 9 21 10 22 11 23 12 24
REMARK SMILES IDX 17 25 13 26 16 27 14 28 15 29
REMARK H PARENT 7 18 7 19
ROOT
ATOM      1  C   UNL     1      -4.427  11.531   3.833  1.00  0.00     0.238 C 
ENDROOT
BRANCH   1   2
ATOM      2  C   UNL     1      -3.439  12.624   3.497  1.00  0.00    -0.070 C 
BRANCH   2   3
ATOM      3  N   UNL     1      -2.684  12.282   2.311  1.00  0.00    -0.540 NA
BRANCH   3   4
ATOM      4  S   UNL     1      -1.610  13.604   1.877  1.00  0.00     0.102 S 
ATOM      5  O   UNL     1      -0.277  13.049   2.000  1.00  0.00    -0.244 OA
ATOM      6  O   UNL     1      -1.812  14.631   2.960  1.00  0.00    -0.244 OA
BRANCH   4   7
ATOM      7  C   UNL     1      -2.164  14.222   0.399  1.00  0.00     0.056 A 
ATOM      8  C   UNL     1      -3.418  13.888  -0.066  1.00  0.00     0.019 A 
ATOM      9  C   UNL     1      -1.398  15.063  -0.379  1.00  0.00     0.002 A 
ATOM     10  C   UNL     1      -3.868  14.394  -1.276  1.00  0.00     0.002 A 
ATOM     11  C   UNL     1      -0.147  15.396   0.090  1.00  0.00     0.030 A 
ATOM     12  C   UNL     1      -1.826  15.586  -1.599  1.00  0.00     0.001 A 
ATOM     13  C   UNL     1      -3.089  15.235  -2.045  1.00  0.00     0.010 A 
ATOM     14  C   UNL     1       0.637  16.228  -0.655  1.00  0.00     0.111 A 
ATOM     15  C   UNL     1      -1.009  16.425  -2.331  1.00  0.00     0.119 A 
ATOM     16  N   UNL     1       0.198  16.714  -1.825  1.00  0.00    -0.264 NA
ENDBRANCH   4   7
ENDBRANCH   3   4
ENDBRANCH   2   3
ENDBRANCH   1   2
BRANCH   1  17
ATOM     17  N   UNL     1      -4.460  10.486   2.852  1.00  0.00    -0.344 N 
ATOM     18  H   UNL     1      -4.065  10.816   1.965  1.00  0.00     0.346 HD
ATOM     19  H   UNL     1      -3.929   9.664   3.225  1.00  0.00     0.346 HD
BRANCH  17  20
ATOM     20  C   UNL     1      -5.833  10.054   2.705  1.00  0.00     0.289 C 
BRANCH  20  21
ATOM     21  C   UNL     1      -6.763  11.157   2.443  1.00  0.00     0.034 C 
ATOM     22  C   UNL     1      -8.043  10.901   2.245  1.00  0.00     0.009 C 
BRANCH  22  23
ATOM     23  C   UNL     1      -9.060  11.909   1.977  1.00  0.00    -0.026 A 
ATOM     24  C   UNL     1     -10.394  11.567   2.008  1.00  0.00     0.009 A 
ATOM     25  C   UNL     1      -8.766  13.219   1.687  1.00  0.00     0.009 A 
ATOM     26  C   UNL     1     -11.404  12.480   1.762  1.00  0.00     0.016 A 
ATOM     27  C   UNL     1      -9.780  14.151   1.436  1.00  0.00     0.016 A 
ATOM     28  C   UNL     1     -11.104  13.792   1.471  1.00  0.00     0.018 A 
ATOM     29  Br  UNL     1     -12.475  15.086   1.125  1.00  0.00    -0.051 Br
ENDBRANCH  22  23
ENDBRANCH  20  21
ENDBRANCH  17  20
ENDBRANCH   1  17
TORSDOF 8
ENDMDL
MODEL 6
REMARK VINA RESULT:      -4.1      3.850      7.094
REMARK SMILES O=S(=O)([N-]CC[NH2+]C/C=C/c1ccc(Br)cc1)c1cccc2cnccc12
REMARK SMILES IDX 6 1 5 2 4 3 2 4 1 5 3 6 18 7 19 8 27 9 20 10 26 11 22 12
REMARK SMILES IDX 21 13 25 14 23 15 24 16 7 17 8 20 9 21 10 22 11 23 12 24
REMARK SMILES IDX 17 25 13 26 16 27 14 28 15 29
REMARK H PARENT 7 18 7 19
ROOT
ATOM      1  C   UNL     1      -5.529  14.249  -2.370  1.00  0.00     0.238 C 
ENDROOT
BRANCH   1   2
ATOM      2  C   UNL     1      -6.771  14.759  -3.065  1.00  0.00    -0.070 C 
BRANCH   2   3
ATOM      3  N   UNL     1      -7.763  13.711  -3.169  1.00  0.00    -0.540 NA
BRANCH   3   4
ATOM      4  S   UNL     1      -9.363  14.360  -2.837  1.00  0.00     0.102 S 
ATOM      5  O   UNL     1      -9.850  14.810  -4.126  1.00  0.00    -0.244 OA
ATOM      6  O   UNL     1      -9.114  15.560  -1.963  1.00  0.00    -0.244 OA
BRANCH   4   7
ATOM      7  C   UNL     1     -10.198  13.178  -1.953  1.00  0.00     0.056 A 
ATOM      8  C   UNL     1     -10.694  12.059  -2.587  1.00  0.00     0.019 A 
ATOM      9  C   UNL     1     -10.409  13.289  -0.596  1.00  0.00     0.002 A 
ATOM     10  C   UNL     1     -11.378  11.096  -1.861  1.00  0.00     0.002 A 
ATOM     11  C   UNL     1      -9.911  14.408   0.034  1.00  0.00     0.030 A 
ATOM     12  C   UNL     1     -11.093  12.336   0.158  1.00  0.00     0.001 A 
ATOM     13  C   UNL     1     -11.582  11.221  -0.502  1.00  0.00     0.010 A 
ATOM     14  C   UNL     1     -10.101  14.549   1.378  1.00  0.00     0.111 A 
ATOM     15  C   UNL     1     -11.271  12.507   1.516  1.00  0.00     0.119 A 
ATOM     16  N   UNL     1     -10.764  13.614   2.075  1.00  0.00    -0.264 NA
ENDBRANCH   4   7
ENDBRANCH   3   4
ENDBRANCH   2   3
ENDBRANCH   1   2
BRANCH   1  17
ATOM     17  N   UNL     1      -4.960  15.208  -1.469  1.00  0.00    -0.344 N 
ATOM     18  H   UNL     1      -4.358  15.863  -1.977  1.00  0.00     0.346 HD
ATOM     19  H   UNL     1      -5.740  15.705  -0.977  1.00  0.00     0.346 HD
BRANCH  17  20
ATOM     20  C   UNL     1      -4.230  14.484  -0.450  1.00  0.00     0.289 C 
BRANCH  20  21
ATOM     21  C   UNL     1      -4.895  13.248  -0.027  1.00  0.00     0.034 C 
ATOM     22  C   UNL     1      -5.476  13.190   1.156  1.00  0.00     0.009 C 
BRANCH  22  23
ATOM     23  C   UNL     1      -6.167  12.021   1.686  1.00  0.00    -0.026 A 
ATOM     24  C   UNL     1      -5.531  10.800   1.718  1.00  0.00     0.009 A 
ATOM     25  C   UNL     1      -7.451  12.061   2.172  1.00  0.00     0.009 A 
ATOM     26  C   UNL     1      -6.135   9.657   2.210  1.00  0.00     0.016 A 
ATOM     27  C   UNL     1      -8.073  10.909   2.672  1.00  0.00     0.016 A 
ATOM     28  C   UNL     1      -7.423   9.701   2.695  1.00  0.00     0.018 A 
ATOM     29  Br  UNL     1      -8.294   8.138   3.385  1.00  0.00    -0.051 Br
ENDBRANCH  22  23
ENDBRANCH  20  21
ENDBRANCH  17  20
ENDBRANCH   1  17
TORSDOF 8
ENDMDL
MODEL 7
REMARK VINA RESULT:      -3.9      3.015      4.799
REMARK SMILES O=S(=O)([N-]CC[NH2+]C/C=C/c1ccc(Br)cc1)c1cccc2cnccc12
REMARK SMILES IDX 6 1 5 2 4 3 2 4 1 5 3 6 18 7 19 8 27 9 20 10 26 11 22 12
REMARK SMILES IDX 21 13 25 14 23 15 24 16 7 17 8 20 9 21 10 22 11 23 12 24
REMARK SMILES IDX 17 25 13 26 16 27 14 28 15 29
REMARK H PARENT 7 18 7 19
ROOT
ATOM      1  C   UNL     1      -5.498  10.932   0.900  1.00  0.00     0.238 C 
ENDROOT
BRANCH   1   2
ATOM      2  C   UNL     1      -5.549  11.893  -0.265  1.00  0.00    -0.070 C 
BRANCH   2   3
ATOM      3  N   UNL     1      -4.226  12.389  -0.576  1.00  0.00    -0.540 NA
BRANCH   3   4
ATOM      4  S   UNL     1      -4.274  14.129  -0.818  1.00  0.00     0.102 S 
ATOM      5  O   UNL     1      -3.690  14.333  -2.129  1.00  0.00    -0.244 OA
ATOM      6  O   UNL     1      -3.340  14.685   0.224  1.00  0.00    -0.244 OA
BRANCH   4   7
ATOM      7  C   UNL     1      -5.859  14.628  -0.482  1.00  0.00     0.056 A 
ATOM      8  C   UNL     1      -6.230  14.938   0.809  1.00  0.00     0.019 A 
ATOM      9  C   UNL     1      -6.818  14.737  -1.466  1.00  0.00     0.002 A 
ATOM     10  C   UNL     1      -7.528  15.344   1.080  1.00  0.00     0.002 A 
ATOM     11  C   UNL     1      -6.444  14.427  -2.754  1.00  0.00     0.030 A 
ATOM     12  C   UNL     1      -8.130  15.143  -1.221  1.00  0.00     0.001 A 
ATOM     13  C   UNL     1      -8.478  15.449   0.084  1.00  0.00     0.010 A 
ATOM     14  C   UNL     1      -7.369  14.527  -3.753  1.00  0.00     0.111 A 
ATOM     15  C   UNL     1      -9.044  15.233  -2.252  1.00  0.00     0.119 A 
ATOM     16  N   UNL     1      -8.623  14.919  -3.485  1.00  0.00    -0.264 NA
ENDBRANCH   4   7
ENDBRANCH   3   4
ENDBRANCH   2   3
ENDBRANCH   1   2
BRANCH   1  17
ATOM     17  N   UNL     1      -5.627  11.585   2.170  1.00  0.00    -0.344 N 
ATOM     18  H   UNL     1      -4.864  11.306   2.794  1.00  0.00     0.346 HD
ATOM     19  H   UNL     1      -5.633  12.621   2.011  1.00  0.00     0.346 HD
BRANCH  17  20
ATOM     20  C   UNL     1      -6.924  11.247   2.716  1.00  0.00     0.289 C 
BRANCH  20  21
ATOM     21  C   UNL     1      -8.031  11.528   1.798  1.00  0.00     0.034 C 
ATOM     22  C   UNL     1      -9.108  12.149   2.242  1.00  0.00     0.009 C 
BRANCH  22  23
ATOM     23  C   UNL     1     -10.270  12.483   1.428  1.00  0.00    -0.026 A 
ATOM     24  C   UNL     1     -11.420  12.948   2.027  1.00  0.00     0.009 A 
ATOM     25  C   UNL     1     -10.293  12.360   0.060  1.00  0.00     0.009 A 
ATOM     26  C   UNL     1     -12.553  13.281   1.307  1.00  0.00     0.016 A 
ATOM     27  C   UNL     1     -11.435  12.694  -0.679  1.00  0.00     0.016 A 
ATOM     28  C   UNL     1     -12.572  13.156  -0.065  1.00  0.00     0.018 A 
ATOM     29  Br  UNL     1     -14.123  13.608  -1.097  1.00  0.00    -0.051 Br
ENDBRANCH  22  23
ENDBRANCH  20  21
ENDBRANCH  17  20
ENDBRANCH   1  17
TORSDOF 8
ENDMDL
MODEL 8
REMARK VINA RESULT:      -3.8      3.508      5.814
REMARK SMILES O=S(=O)([N-]CC[NH2+]C/C=C/c1ccc(Br)cc1)c1cccc2cnccc12
REMARK SMILES IDX 6 1 5 2 4 3 2 4 1 5 3 6 18 7 19 8 27 9 20 10 26 11 22 12
REMARK SMILES IDX 21 13 25 14 23 15 24 16 7 17 8 20 9 21 10 22 11 23 12 24
REMARK SMILES IDX 17 25 13 26 16 27 14 28 15 29
REMARK H PARENT 7 18 7 19
ROOT
ATOM      1  C   UNL     1      -9.128  12.091   1.599  1.00  0.00     0.238 C 
ENDROOT
BRANCH   1   2
ATOM      2  C   UNL     1     -10.555  12.502   1.879  1.00  0.00    -0.070 C 
BRANCH   2   3
ATOM      3  N   UNL     1     -10.810  13.834   1.375  1.00  0.00    -0.540 NA
BRANCH   3   4
ATOM      4  S   UNL     1     -11.858  13.757  -0.034  1.00  0.00     0.102 S 
ATOM      5  O   UNL     1     -12.406  15.093  -0.157  1.00  0.00    -0.244 OA
ATOM      6  O   UNL     1     -12.961  12.811   0.363  1.00  0.00    -0.244 OA
BRANCH   4   7
ATOM      7  C   UNL     1     -10.946  13.069  -1.286  1.00  0.00     0.056 A 
ATOM      8  C   UNL     1     -11.221  11.791  -1.724  1.00  0.00     0.019 A 
ATOM      9  C   UNL     1      -9.914  13.745  -1.900  1.00  0.00     0.002 A 
ATOM     10  C   UNL     1     -10.472  11.231  -2.748  1.00  0.00     0.002 A 
ATOM     11  C   UNL     1      -9.643  15.022  -1.461  1.00  0.00     0.030 A 
ATOM     12  C   UNL     1      -9.145  13.206  -2.931  1.00  0.00     0.001 A 
ATOM     13  C   UNL     1      -9.441  11.921  -3.353  1.00  0.00     0.010 A 
ATOM     14  C   UNL     1      -8.629  15.721  -2.049  1.00  0.00     0.111 A 
ATOM     15  C   UNL     1      -8.125  13.938  -3.505  1.00  0.00     0.119 A 
ATOM     16  N   UNL     1      -7.906  15.174  -3.037  1.00  0.00    -0.264 NA
ENDBRANCH   4   7
ENDBRANCH   3   4
ENDBRANCH   2   3
ENDBRANCH   1   2
BRANCH   1  17
ATOM     17  N   UNL     1      -8.643  11.098   2.513  1.00  0.00    -0.344 N 
ATOM     18  H   UNL     1      -8.864  11.362   3.478  1.00  0.00     0.346 HD
ATOM     19  H   UNL     1      -9.073  10.176   2.260  1.00  0.00     0.346 HD
BRANCH  17  20
ATOM     20  C   UNL     1      -7.219  10.957   2.304  1.00  0.00     0.289 C 
BRANCH  20  21
ATOM     21  C   UNL     1      -6.631  12.064   1.543  1.00  0.00     0.034 C 
ATOM     22  C   UNL     1      -5.561  11.852   0.800  1.00  0.00     0.009 C 
BRANCH  22  23
ATOM     23  C   UNL     1      -4.889  12.870   0.002  1.00  0.00    -0.026 A 
ATOM     24  C   UNL     1      -3.843  13.587   0.539  1.00  0.00     0.009 A 
ATOM     25  C   UNL     1      -5.242  13.168  -1.292  1.00  0.00     0.009 A 
ATOM     26  C   UNL     1      -3.168  14.564  -0.170  1.00  0.00     0.016 A 
ATOM     27  C   UNL     1      -4.565  14.155  -2.019  1.00  0.00     0.016 A 
ATOM     28  C   UNL     1      -3.525  14.860  -1.467  1.00  0.00     0.018 A 
ATOM     29  Br  UNL     1      -2.613  16.207  -2.481  1.00  0.00    -0.051 Br
ENDBRANCH  22  23
ENDBRANCH  20  21
ENDBRANCH  17  20
ENDBRANCH   1  17
TORSDOF 8
ENDMDL
MODEL 9
REMARK VINA RESULT:      -3.7      2.785      3.404
REMARK SMILES O=S(=O)([N-]CC[NH2+]C/C=C/c1ccc(Br)cc1)c1cccc2cnccc12
REMARK SMILES IDX 6 1 5 2 4 3 2 4 1 5 3 6 18 7 19 8 27 9 20 10 26 11 22 12
REMARK SMILES IDX 21 13 25 14 23 15 24 16 7 17 8 20 9 21 10 22 11 23 12 24
REMARK SMILES IDX 17 25 13 26 16 27 14 28 15 29
REMARK H PARENT 7 18 7 19
ROOT
ATOM      1  C   UNL     1      -6.202  10.692   2.872  1.00  0.00     0.238 C 
ENDROOT
BRANCH   1   2
ATOM      2  C   UNL     1      -5.483  10.775   1.545  1.00  0.00    -0.070 C 
BRANCH   2   3
ATOM      3  N   UNL     1      -5.573  12.111   0.999  1.00  0.00    -0.540 NA
BRANCH   3   4
ATOM      4  S   UNL     1      -4.151  13.044   1.444  1.00  0.00     0.102 S 
ATOM      5  O   UNL     1      -3.246  12.075   2.029  1.00  0.00    -0.244 OA
ATOM      6  O   UNL     1      -4.631  13.978   2.523  1.00  0.00    -0.244 OA
BRANCH   4   7
ATOM      7  C   UNL     1      -3.704  13.940   0.076  1.00  0.00     0.056 A 
ATOM      8  C   UNL     1      -4.629  14.206  -0.912  1.00  0.00     0.019 A 
ATOM      9  C   UNL     1      -2.427  14.425  -0.099  1.00  0.00     0.002 A 
ATOM     10  C   UNL     1      -4.259  14.937  -2.030  1.00  0.00     0.002 A 
ATOM     11  C   UNL     1      -1.506  14.159   0.891  1.00  0.00     0.030 A 
ATOM     12  C   UNL     1      -2.028  15.164  -1.213  1.00  0.00     0.001 A 
ATOM     13  C   UNL     1      -2.974  15.417  -2.191  1.00  0.00     0.010 A 
ATOM     14  C   UNL     1      -0.232  14.627   0.751  1.00  0.00     0.111 A 
ATOM     15  C   UNL     1      -0.731  15.623  -1.327  1.00  0.00     0.119 A 
ATOM     16  N   UNL     1       0.121  15.334  -0.333  1.00  0.00    -0.264 NA
ENDBRANCH   4   7
ENDBRANCH   3   4
ENDBRANCH   2   3
ENDBRANCH   1   2
BRANCH   1  17
ATOM     17  N   UNL     1      -7.408   9.919   2.806  1.00  0.00    -0.344 N 
ATOM     18  H   UNL     1      -7.516   9.503   1.876  1.00  0.00     0.346 HD
ATOM     19  H   UNL     1      -7.373   9.185   3.553  1.00  0.00     0.346 HD
BRANCH  17  20
ATOM     20  C   UNL     1      -8.514  10.790   3.140  1.00  0.00     0.289 C 
BRANCH  20  21
ATOM     21  C   UNL     1      -9.436  11.012   2.021  1.00  0.00     0.034 C 
ATOM     22  C   UNL     1     -10.163  12.113   1.981  1.00  0.00     0.009 C 
BRANCH  22  23
ATOM     23  C   UNL     1     -11.112  12.444   0.925  1.00  0.00    -0.026 A 
ATOM     24  C   UNL     1     -10.955  11.910  -0.334  1.00  0.00     0.009 A 
ATOM     25  C   UNL     1     -12.185  13.281   1.112  1.00  0.00     0.009 A 
ATOM     26  C   UNL     1     -11.823  12.188  -1.375  1.00  0.00     0.016 A 
ATOM     27  C   UNL     1     -13.070  13.569   0.065  1.00  0.00     0.016 A 
ATOM     28  C   UNL     1     -12.898  13.027  -1.184  1.00  0.00     0.018 A 
ATOM     29  Br  UNL     1     -14.121  13.436  -2.601  1.00  0.00    -0.051 Br
ENDBRANCH  22  23
ENDBRANCH  20  21
ENDBRANCH  17  20
ENDBRANCH   1  17
TORSDOF 8
ENDMDL
