MODEL 1
REMARK VINA RESULT:      -5.7      0.000      0.000
REMARK SMILES CC/C(=C(\c1ccccc1)c1ccc(OCC[NH+](C)C)cc1)c1ccccc1
REMARK SMILES IDX 15 1 14 2 11 3 12 4 22 5 13 6 21 7 4 8 3 9 2 10 1 11 23 12
REMARK SMILES IDX 24 13 28 14 25 15 27 16 26 17 5 18 6 19 10 20 7 21 9 22 8 23
REMARK SMILES IDX 16 24 17 25 18 26 19 27 20 28
REMARK H PARENT 18 29
ROOT
ATOM      1  O   UNL     1      35.404  28.509  13.574  1.00  0.00    -0.488 OA
ENDROOT
BRANCH   1   2
ATOM      2  C   UNL     1      36.424  28.546  14.507  1.00  0.00     0.119 A 
ATOM      3  C   UNL     1      38.498  28.515  16.471  1.00  0.00    -0.017 A 
ATOM      4  C   UNL     1      38.363  29.554  15.572  1.00  0.00     0.012 A 
ATOM      5  C   UNL     1      37.563  27.490  16.360  1.00  0.00     0.012 A 
ATOM      6  C   UNL     1      37.351  29.555  14.625  1.00  0.00     0.047 A 
ATOM      7  C   UNL     1      36.564  27.493  15.423  1.00  0.00     0.047 A 
BRANCH   3   8
ATOM      8  C   UNL     1      39.533  28.499  17.490  1.00  0.00    -0.007 C 
ATOM      9  C   UNL     1      40.708  27.959  17.295  1.00  0.00    -0.033 C 
BRANCH   9  10
ATOM     10  C   UNL     1      41.787  27.873  18.317  1.00  0.00     0.033 C 
ATOM     11  C   UNL     1      42.769  28.983  18.082  1.00  0.00     0.009 C 
ENDBRANCH   9  10
BRANCH   9  12
ATOM     12  C   UNL     1      41.092  27.433  15.972  1.00  0.00    -0.022 A 
ATOM     13  C   UNL     1      40.994  26.100  15.664  1.00  0.00     0.008 A 
ATOM     14  C   UNL     1      41.565  28.309  15.043  1.00  0.00     0.008 A 
ATOM     15  C   UNL     1      41.374  25.660  14.421  1.00  0.00     0.001 A 
ATOM     16  C   UNL     1      41.964  27.904  13.766  1.00  0.00     0.001 A 
ATOM     17  C   UNL     1      41.854  26.561  13.485  1.00  0.00     0.000 A 
ENDBRANCH   9  12
BRANCH   8  18
ATOM     18  C   UNL     1      39.221  29.076  18.782  1.00  0.00    -0.018 A 
ATOM     19  C   UNL     1      39.419  30.414  19.059  1.00  0.00     0.009 A 
ATOM     20  C   UNL     1      38.750  28.255  19.803  1.00  0.00     0.009 A 
ATOM     21  C   UNL     1      39.149  30.886  20.318  1.00  0.00     0.001 A 
ATOM     22  C   UNL     1      38.472  28.712  21.070  1.00  0.00     0.001 A 
ATOM     23  C   UNL     1      38.680  30.065  21.325  1.00  0.00     0.000 A 
ENDBRANCH   8  18
ENDBRANCH   3   8
ENDBRANCH   1   2
BRANCH   1  24
ATOM     24  C   UNL     1      34.094  28.932  13.707  1.00  0.00     0.290 C 
BRANCH  24  25
ATOM     25  C   UNL     1      33.146  27.943  14.334  1.00  0.00     0.303 C 
BRANCH  25  26
ATOM     26  N   UNL     1      32.061  28.570  15.024  1.00  0.00    -0.337 N 
ATOM     27  C   UNL     1      30.850  28.655  14.235  1.00  0.00     0.332 C 
ATOM     28  C   UNL     1      32.376  29.913  15.467  1.00  0.00     0.332 C 
ATOM     29  H   UNL     1      31.801  28.035  15.905  1.00  0.00     0.347 HD
ENDBRANCH  25  26
ENDBRANCH  24  25
ENDBRANCH   1  24
TORSDOF 8
ENDMDL
MODEL 2
REMARK VINA RESULT:      -5.7      0.796      1.362
REMARK SMILES CC/C(=C(\c1ccccc1)c1ccc(OCC[NH+](C)C)cc1)c1ccccc1
REMARK SMILES IDX 15 1 14 2 11 3 12 4 22 5 13 6 21 7 4 8 3 9 2 10 1 11 23 12
REMARK SMILES IDX 24 13 28 14 25 15 27 16 26 17 5 18 6 19 10 20 7 21 9 22 8 23
REMARK SMILES IDX 16 24 17 25 18 26 19 27 20 28
REMARK H PARENT 18 29
ROOT
ATOM      1  O   UNL     1      35.462  27.757  13.766  1.00  0.00    -0.488 OA
ENDROOT
BRANCH   1   2
ATOM      2  C   UNL     1      36.498  27.937  14.664  1.00  0.00     0.119 A 
ATOM      3  C   UNL     1      38.618  28.201  16.560  1.00  0.00    -0.017 A 
ATOM      4  C   UNL     1      38.338  29.192  15.639  1.00  0.00     0.012 A 
ATOM      5  C   UNL     1      37.805  27.074  16.506  1.00  0.00     0.012 A 
ATOM      6  C   UNL     1      37.306  29.049  14.726  1.00  0.00     0.047 A 
ATOM      7  C   UNL     1      36.786  26.935  15.602  1.00  0.00     0.047 A 
BRANCH   3   8
ATOM      8  C   UNL     1      39.678  28.334  17.544  1.00  0.00    -0.007 C 
ATOM      9  C   UNL     1      40.896  27.908  17.333  1.00  0.00    -0.033 C 
BRANCH   9  10
ATOM     10  C   UNL     1      42.006  27.975  18.322  1.00  0.00     0.033 C 
ATOM     11  C   UNL     1      42.848  29.182  18.027  1.00  0.00     0.009 C 
ENDBRANCH   9  10
BRANCH   9  12
ATOM     12  C   UNL     1      41.295  27.368  16.020  1.00  0.00    -0.022 A 
ATOM     13  C   UNL     1      41.293  26.022  15.757  1.00  0.00     0.008 A 
ATOM     14  C   UNL     1      41.683  28.246  15.054  1.00  0.00     0.008 A 
ATOM     15  C   UNL     1      41.682  25.570  14.521  1.00  0.00     0.001 A 
ATOM     16  C   UNL     1      42.088  27.829  13.782  1.00  0.00     0.001 A 
ATOM     17  C   UNL     1      42.075  26.473  13.547  1.00  0.00     0.000 A 
ENDBRANCH   9  12
BRANCH   8  18
ATOM     18  C   UNL     1      39.345  28.930  18.822  1.00  0.00    -0.018 A 
ATOM     19  C   UNL     1      38.854  28.188  19.877  1.00  0.00     0.009 A 
ATOM     20  C   UNL     1      39.474  30.306  18.990  1.00  0.00     0.009 A 
ATOM     21  C   UNL     1      38.514  28.822  21.044  1.00  0.00     0.001 A 
ATOM     22  C   UNL     1      39.139  30.958  20.154  1.00  0.00     0.001 A 
ATOM     23  C   UNL     1      38.647  30.187  21.203  1.00  0.00     0.000 A 
ENDBRANCH   8  18
ENDBRANCH   3   8
ENDBRANCH   1   2
BRANCH   1  24
ATOM     24  C   UNL     1      34.750  28.713  13.063  1.00  0.00     0.290 C 
BRANCH  24  25
ATOM     25  C   UNL     1      33.359  28.995  13.568  1.00  0.00     0.303 C 
BRANCH  25  26
ATOM     26  N   UNL     1      33.308  30.108  14.466  1.00  0.00    -0.337 N 
ATOM     27  C   UNL     1      34.278  31.138  14.164  1.00  0.00     0.332 C 
ATOM     28  C   UNL     1      33.509  29.726  15.849  1.00  0.00     0.332 C 
ATOM     29  H   UNL     1      32.356  30.583  14.440  1.00  0.00     0.347 HD
ENDBRANCH  25  26
ENDBRANCH  24  25
ENDBRANCH   1  24
TORSDOF 8
ENDMDL
MODEL 3
REMARK VINA RESULT:      -5.7      3.434      6.920
REMARK SMILES CC/C(=C(\c1ccccc1)c1ccc(OCC[NH+](C)C)cc1)c1ccccc1
REMARK SMILES IDX 15 1 14 2 11 3 12 4 22 5 13 6 21 7 4 8 3 9 2 10 1 11 23 12
REMARK SMILES IDX 24 13 28 14 25 15 27 16 26 17 5 18 6 19 10 20 7 21 9 22 8 23
REMARK SMILES IDX 16 24 17 25 18 26 19 27 20 28
REMARK H PARENT 18 29
ROOT
ATOM      1  O   UNL     1      42.845  26.109  12.483  1.00  0.00    -0.488 OA
ENDROOT
BRANCH   1   2
ATOM      2  C   UNL     1      41.911  26.448  13.446  1.00  0.00     0.119 A 
ATOM      3  C   UNL     1      39.966  27.248  15.378  1.00  0.00    -0.017 A 
ATOM      4  C   UNL     1      40.560  26.002  15.417  1.00  0.00     0.012 A 
ATOM      5  C   UNL     1      40.375  28.084  14.344  1.00  0.00     0.012 A 
ATOM      6  C   UNL     1      41.503  25.628  14.472  1.00  0.00     0.047 A 
ATOM      7  C   UNL     1      41.306  27.713  13.411  1.00  0.00     0.047 A 
BRANCH   3   8
ATOM      8  C   UNL     1      38.994  27.676  16.368  1.00  0.00    -0.007 C 
ATOM      9  C   UNL     1      39.328  28.331  17.450  1.00  0.00    -0.033 C 
BRANCH   9  10
ATOM     10  C   UNL     1      38.381  28.751  18.519  1.00  0.00     0.033 C 
ATOM     11  C   UNL     1      38.953  28.368  19.853  1.00  0.00     0.009 C 
ENDBRANCH   9  10
BRANCH   9  12
ATOM     12  C   UNL     1      40.716  28.778  17.668  1.00  0.00    -0.022 A 
ATOM     13  C   UNL     1      41.085  30.092  17.539  1.00  0.00     0.008 A 
ATOM     14  C   UNL     1      41.649  27.843  17.997  1.00  0.00     0.008 A 
ATOM     15  C   UNL     1      42.392  30.455  17.743  1.00  0.00     0.001 A 
ATOM     16  C   UNL     1      42.992  28.168  18.213  1.00  0.00     0.001 A 
ATOM     17  C   UNL     1      43.332  29.494  18.077  1.00  0.00     0.000 A 
ENDBRANCH   9  12
BRANCH   8  18
ATOM     18  C   UNL     1      37.605  27.322  16.153  1.00  0.00    -0.018 A 
ATOM     19  C   UNL     1      37.137  26.035  16.325  1.00  0.00     0.009 A 
ATOM     20  C   UNL     1      36.712  28.293  15.710  1.00  0.00     0.009 A 
ATOM     21  C   UNL     1      35.821  25.757  16.057  1.00  0.00     0.001 A 
ATOM     22  C   UNL     1      35.389  28.032  15.438  1.00  0.00     0.001 A 
ATOM     23  C   UNL     1      34.941  26.727  15.620  1.00  0.00     0.000 A 
ENDBRANCH   8  18
ENDBRANCH   3   8
ENDBRANCH   1   2
BRANCH   1  24
ATOM     24  C   UNL     1      42.653  25.894  11.130  1.00  0.00     0.290 C 
BRANCH  24  25
ATOM     25  C   UNL     1      42.110  24.541  10.752  1.00  0.00     0.303 C 
BRANCH  25  26
ATOM     26  N   UNL     1      42.908  23.873   9.770  1.00  0.00    -0.337 N 
ATOM     27  C   UNL     1      43.294  22.533  10.155  1.00  0.00     0.332 C 
ATOM     28  C   UNL     1      44.125  24.592   9.450  1.00  0.00     0.332 C 
ATOM     29  H   UNL     1      42.386  23.776   8.848  1.00  0.00     0.347 HD
ENDBRANCH  25  26
ENDBRANCH  24  25
ENDBRANCH   1  24
TORSDOF 8
ENDMDL
MODEL 4
REMARK VINA RESULT:      -5.6      3.392      6.757
REMARK SMILES CC/C(=C(\c1ccccc1)c1ccc(OCC[NH+](C)C)cc1)c1ccccc1
REMARK SMILES IDX 15 1 14 2 11 3 12 4 22 5 13 6 21 7 4 8 3 9 2 10 1 11 23 12
REMARK SMILES IDX 24 13 28 14 25 15 27 16 26 17 5 18 6 19 10 20 7 21 9 22 8 23
REMARK SMILES IDX 16 24 17 25 18 26 19 27 20 28
REMARK H PARENT 18 29
ROOT
ATOM      1  O   UNL     1      42.516  25.912  12.339  1.00  0.00    -0.488 OA
ENDROOT
BRANCH   1   2
ATOM      2  C   UNL     1      41.639  26.385  13.298  1.00  0.00     0.119 A 
ATOM      3  C   UNL     1      39.841  27.262  15.337  1.00  0.00    -0.017 A 
ATOM      4  C   UNL     1      40.212  28.084  14.291  1.00  0.00     0.012 A 
ATOM      5  C   UNL     1      40.395  25.986  15.332  1.00  0.00     0.012 A 
ATOM      6  C   UNL     1      41.086  27.644  13.309  1.00  0.00     0.047 A 
ATOM      7  C   UNL     1      41.258  25.553  14.361  1.00  0.00     0.047 A 
BRANCH   3   8
ATOM      8  C   UNL     1      38.909  27.687  16.366  1.00  0.00    -0.007 C 
ATOM      9  C   UNL     1      39.291  28.303  17.455  1.00  0.00    -0.033 C 
BRANCH   9  10
ATOM     10  C   UNL     1      38.387  28.719  18.561  1.00  0.00     0.033 C 
ATOM     11  C   UNL     1      39.054  28.420  19.872  1.00  0.00     0.009 C 
ENDBRANCH   9  10
BRANCH   9  12
ATOM     12  C   UNL     1      40.696  28.708  17.645  1.00  0.00    -0.022 A 
ATOM     13  C   UNL     1      41.672  27.806  17.983  1.00  0.00     0.008 A 
ATOM     14  C   UNL     1      41.015  30.022  17.485  1.00  0.00     0.008 A 
ATOM     15  C   UNL     1      42.964  28.236  18.158  1.00  0.00     0.001 A 
ATOM     16  C   UNL     1      42.317  30.503  17.654  1.00  0.00     0.001 A 
ATOM     17  C   UNL     1      43.275  29.575  17.993  1.00  0.00     0.000 A 
ENDBRANCH   9  12
BRANCH   8  18
ATOM     18  C   UNL     1      37.506  27.376  16.181  1.00  0.00    -0.018 A 
ATOM     19  C   UNL     1      37.012  26.094  16.310  1.00  0.00     0.009 A 
ATOM     20  C   UNL     1      36.623  28.387  15.813  1.00  0.00     0.009 A 
ATOM     21  C   UNL     1      35.682  25.859  16.074  1.00  0.00     0.001 A 
ATOM     22  C   UNL     1      35.286  28.170  15.574  1.00  0.00     0.001 A 
ATOM     23  C   UNL     1      34.812  26.869  15.711  1.00  0.00     0.000 A 
ENDBRANCH   8  18
ENDBRANCH   3   8
ENDBRANCH   1   2
BRANCH   1  24
ATOM     24  C   UNL     1      42.716  26.368  11.048  1.00  0.00     0.290 C 
BRANCH  24  25
ATOM     25  C   UNL     1      42.834  25.303   9.989  1.00  0.00     0.303 C 
BRANCH  25  26
ATOM     26  N   UNL     1      43.025  23.993  10.534  1.00  0.00    -0.337 N 
ATOM     27  C   UNL     1      44.359  23.473  10.328  1.00  0.00     0.332 C 
ATOM     28  C   UNL     1      42.100  23.018   9.993  1.00  0.00     0.332 C 
ATOM     29  H   UNL     1      42.864  23.983  11.585  1.00  0.00     0.347 HD
ENDBRANCH  25  26
ENDBRANCH  24  25
ENDBRANCH   1  24
TORSDOF 8
ENDMDL
MODEL 5
REMARK VINA RESULT:      -5.6      3.742      7.167
REMARK SMILES CC/C(=C(\c1ccccc1)c1ccc(OCC[NH+](C)C)cc1)c1ccccc1
REMARK SMILES IDX 15 1 14 2 11 3 12 4 22 5 13 6 21 7 4 8 3 9 2 10 1 11 23 12
REMARK SMILES IDX 24 13 28 14 25 15 27 16 26 17 5 18 6 19 10 20 7 21 9 22 8 23
REMARK SMILES IDX 16 24 17 25 18 26 19 27 20 28
REMARK H PARENT 18 29
ROOT
ATOM      1  O   UNL     1      42.895  25.595  12.550  1.00  0.00    -0.488 OA
ENDROOT
BRANCH   1   2
ATOM      2  C   UNL     1      41.931  26.124  13.388  1.00  0.00     0.119 A 
ATOM      3  C   UNL     1      39.976  27.144  15.204  1.00  0.00    -0.017 A 
ATOM      4  C   UNL     1      40.160  27.692  13.950  1.00  0.00     0.012 A 
ATOM      5  C   UNL     1      40.799  26.068  15.524  1.00  0.00     0.012 A 
ATOM      6  C   UNL     1      41.114  27.186  13.080  1.00  0.00     0.047 A 
ATOM      7  C   UNL     1      41.740  25.570  14.663  1.00  0.00     0.047 A 
BRANCH   3   8
ATOM      8  C   UNL     1      38.970  27.637  16.127  1.00  0.00    -0.007 C 
ATOM      9  C   UNL     1      39.258  28.419  17.135  1.00  0.00    -0.033 C 
BRANCH   9  10
ATOM     10  C   UNL     1      38.275  28.914  18.138  1.00  0.00     0.033 C 
ATOM     11  C   UNL     1      38.622  28.345  19.482  1.00  0.00     0.009 C 
ENDBRANCH   9  10
BRANCH   9  12
ATOM     12  C   UNL     1      40.623  28.942  17.324  1.00  0.00    -0.022 A 
ATOM     13  C   UNL     1      41.000  30.174  16.856  1.00  0.00     0.008 A 
ATOM     14  C   UNL     1      41.527  28.160  17.978  1.00  0.00     0.008 A 
ATOM     15  C   UNL     1      42.287  30.610  17.049  1.00  0.00     0.001 A 
ATOM     16  C   UNL     1      42.847  28.565  18.196  1.00  0.00     0.001 A 
ATOM     17  C   UNL     1      43.197  29.806  17.715  1.00  0.00     0.000 A 
ENDBRANCH   9  12
BRANCH   8  18
ATOM     18  C   UNL     1      37.600  27.207  15.930  1.00  0.00    -0.018 A 
ATOM     19  C   UNL     1      36.591  28.087  15.595  1.00  0.00     0.009 A 
ATOM     20  C   UNL     1      37.267  25.870  16.129  1.00  0.00     0.009 A 
ATOM     21  C   UNL     1      35.307  27.622  15.470  1.00  0.00     0.001 A 
ATOM     22  C   UNL     1      35.985  25.386  16.007  1.00  0.00     0.001 A 
ATOM     23  C   UNL     1      34.986  26.294  15.668  1.00  0.00     0.000 A 
ENDBRANCH   8  18
ENDBRANCH   3   8
ENDBRANCH   1   2
BRANCH   1  24
ATOM     24  C   UNL     1      42.819  24.472  11.745  1.00  0.00     0.290 C 
BRANCH  24  25
ATOM     25  C   UNL     1      44.120  23.750  11.504  1.00  0.00     0.303 C 
BRANCH  25  26
ATOM     26  N   UNL     1      43.982  22.631  10.623  1.00  0.00    -0.337 N 
ATOM     27  C   UNL     1      44.922  22.645   9.523  1.00  0.00     0.332 C 
ATOM     28  C   UNL     1      42.656  22.526  10.049  1.00  0.00     0.332 C 
ATOM     29  H   UNL     1      44.142  21.712  11.135  1.00  0.00     0.347 HD
ENDBRANCH  25  26
ENDBRANCH  24  25
ENDBRANCH   1  24
TORSDOF 8
ENDMDL
MODEL 6
REMARK VINA RESULT:      -5.6      0.958      1.476
REMARK SMILES CC/C(=C(\c1ccccc1)c1ccc(OCC[NH+](C)C)cc1)c1ccccc1
REMARK SMILES IDX 15 1 14 2 11 3 12 4 22 5 13 6 21 7 4 8 3 9 2 10 1 11 23 12
REMARK SMILES IDX 24 13 28 14 25 15 27 16 26 17 5 18 6 19 10 20 7 21 9 22 8 23
REMARK SMILES IDX 16 24 17 25 18 26 19 27 20 28
REMARK H PARENT 18 29
ROOT
ATOM      1  O   UNL     1      34.777  27.611  14.356  1.00  0.00    -0.488 OA
ENDROOT
BRANCH   1   2
ATOM      2  C   UNL     1      35.882  27.832  15.157  1.00  0.00     0.119 A 
ATOM      3  C   UNL     1      38.168  28.173  16.836  1.00  0.00    -0.017 A 
ATOM      4  C   UNL     1      37.647  29.216  16.095  1.00  0.00     0.012 A 
ATOM      5  C   UNL     1      37.509  26.953  16.714  1.00  0.00     0.012 A 
ATOM      6  C   UNL     1      36.538  29.034  15.284  1.00  0.00     0.047 A 
ATOM      7  C   UNL     1      36.413  26.776  15.913  1.00  0.00     0.047 A 
BRANCH   3   8
ATOM      8  C   UNL     1      39.314  28.340  17.712  1.00  0.00    -0.007 C 
ATOM      9  C   UNL     1      40.521  27.967  17.374  1.00  0.00    -0.033 C 
BRANCH   9  10
ATOM     10  C   UNL     1      41.721  28.071  18.249  1.00  0.00     0.033 C 
ATOM     11  C   UNL     1      42.545  29.244  17.807  1.00  0.00     0.009 C 
ENDBRANCH   9  10
BRANCH   9  12
ATOM     12  C   UNL     1      40.808  27.457  16.021  1.00  0.00    -0.022 A 
ATOM     13  C   UNL     1      41.021  26.125  15.777  1.00  0.00     0.008 A 
ATOM     14  C   UNL     1      40.869  28.352  14.996  1.00  0.00     0.008 A 
ATOM     15  C   UNL     1      41.294  25.703  14.500  1.00  0.00     0.001 A 
ATOM     16  C   UNL     1      41.145  27.966  13.681  1.00  0.00     0.001 A 
ATOM     17  C   UNL     1      41.354  26.623  13.466  1.00  0.00     0.000 A 
ENDBRANCH   9  12
BRANCH   8  18
ATOM     18  C   UNL     1      39.087  28.909  19.025  1.00  0.00    -0.018 A 
ATOM     19  C   UNL     1      38.665  28.147  20.096  1.00  0.00     0.009 A 
ATOM     20  C   UNL     1      39.249  30.278  19.215  1.00  0.00     0.009 A 
ATOM     21  C   UNL     1      38.422  28.757  21.300  1.00  0.00     0.001 A 
ATOM     22  C   UNL     1      39.011  30.906  20.415  1.00  0.00     0.001 A 
ATOM     23  C   UNL     1      38.588  30.117  21.480  1.00  0.00     0.000 A 
ENDBRANCH   8  18
ENDBRANCH   3   8
ENDBRANCH   1   2
BRANCH   1  24
ATOM     24  C   UNL     1      33.840  28.524  13.904  1.00  0.00     0.290 C 
BRANCH  24  25
ATOM     25  C   UNL     1      32.404  28.072  13.964  1.00  0.00     0.303 C 
BRANCH  25  26
ATOM     26  N   UNL     1      31.685  28.338  12.755  1.00  0.00    -0.337 N 
ATOM     27  C   UNL     1      30.310  27.889  12.793  1.00  0.00     0.332 C 
ATOM     28  C   UNL     1      32.298  27.733  11.590  1.00  0.00     0.332 C 
ATOM     29  H   UNL     1      31.649  29.380  12.546  1.00  0.00     0.347 HD
ENDBRANCH  25  26
ENDBRANCH  24  25
ENDBRANCH   1  24
TORSDOF 8
ENDMDL
MODEL 7
REMARK VINA RESULT:      -5.6      3.240      6.510
REMARK SMILES CC/C(=C(\c1ccccc1)c1ccc(OCC[NH+](C)C)cc1)c1ccccc1
REMARK SMILES IDX 15 1 14 2 11 3 12 4 22 5 13 6 21 7 4 8 3 9 2 10 1 11 23 12
REMARK SMILES IDX 24 13 28 14 25 15 27 16 26 17 5 18 6 19 10 20 7 21 9 22 8 23
REMARK SMILES IDX 16 24 17 25 18 26 19 27 20 28
REMARK H PARENT 18 29
ROOT
ATOM      1  O   UNL     1      42.746  25.705  12.673  1.00  0.00    -0.488 OA
ENDROOT
BRANCH   1   2
ATOM      2  C   UNL     1      41.845  26.276  13.553  1.00  0.00     0.119 A 
ATOM      3  C   UNL     1      39.999  27.365  15.441  1.00  0.00    -0.017 A 
ATOM      4  C   UNL     1      40.383  28.064  14.313  1.00  0.00     0.012 A 
ATOM      5  C   UNL     1      40.564  26.103  15.596  1.00  0.00     0.012 A 
ATOM      6  C   UNL     1      41.281  27.522  13.406  1.00  0.00     0.047 A 
ATOM      7  C   UNL     1      41.451  25.570  14.698  1.00  0.00     0.047 A 
BRANCH   3   8
ATOM      8  C   UNL     1      39.042  27.897  16.395  1.00  0.00    -0.007 C 
ATOM      9  C   UNL     1      39.405  28.555  17.466  1.00  0.00    -0.033 C 
BRANCH   9  10
ATOM     10  C   UNL     1      38.471  29.080  18.500  1.00  0.00     0.033 C 
ATOM     11  C   UNL     1      38.664  28.303  19.769  1.00  0.00     0.009 C 
ENDBRANCH   9  10
BRANCH   9  12
ATOM     12  C   UNL     1      40.818  28.897  17.705  1.00  0.00    -0.022 A 
ATOM     13  C   UNL     1      41.290  30.177  17.565  1.00  0.00     0.008 A 
ATOM     14  C   UNL     1      41.670  27.898  18.066  1.00  0.00     0.008 A 
ATOM     15  C   UNL     1      42.618  30.440  17.789  1.00  0.00     0.001 A 
ATOM     16  C   UNL     1      43.030  28.121  18.304  1.00  0.00     0.001 A 
ATOM     17  C   UNL     1      43.474  29.415  18.156  1.00  0.00     0.000 A 
ENDBRANCH   9  12
BRANCH   8  18
ATOM     18  C   UNL     1      37.635  27.648  16.155  1.00  0.00    -0.018 A 
ATOM     19  C   UNL     1      36.743  28.665  15.881  1.00  0.00     0.009 A 
ATOM     20  C   UNL     1      37.144  26.350  16.249  1.00  0.00     0.009 A 
ATOM     21  C   UNL     1      35.415  28.366  15.712  1.00  0.00     0.001 A 
ATOM     22  C   UNL     1      35.816  26.032  16.081  1.00  0.00     0.001 A 
ATOM     23  C   UNL     1      34.937  27.074  15.805  1.00  0.00     0.000 A 
ENDBRANCH   8  18
ENDBRANCH   3   8
ENDBRANCH   1   2
BRANCH   1  24
ATOM     24  C   UNL     1      42.851  25.883  11.304  1.00  0.00     0.290 C 
BRANCH  24  25
ATOM     25  C   UNL     1      41.663  25.437  10.493  1.00  0.00     0.303 C 
BRANCH  25  26
ATOM     26  N   UNL     1      41.693  24.041  10.179  1.00  0.00    -0.337 N 
ATOM     27  C   UNL     1      43.033  23.510  10.045  1.00  0.00     0.332 C 
ATOM     28  C   UNL     1      40.984  23.723   8.957  1.00  0.00     0.332 C 
ATOM     29  H   UNL     1      41.223  23.463  10.938  1.00  0.00     0.347 HD
ENDBRANCH  25  26
ENDBRANCH  24  25
ENDBRANCH   1  24
TORSDOF 8
ENDMDL
MODEL 8
REMARK VINA RESULT:      -5.6      3.342      6.736
REMARK SMILES CC/C(=C(\c1ccccc1)c1ccc(OCC[NH+](C)C)cc1)c1ccccc1
REMARK SMILES IDX 15 1 14 2 11 3 12 4 22 5 13 6 21 7 4 8 3 9 2 10 1 11 23 12
REMARK SMILES IDX 24 13 28 14 25 15 27 16 26 17 5 18 6 19 10 20 7 21 9 22 8 23
REMARK SMILES IDX 16 24 17 25 18 26 19 27 20 28
REMARK H PARENT 18 29
ROOT
ATOM      1  O   UNL     1      43.010  25.949  12.653  1.00  0.00    -0.488 OA
ENDROOT
BRANCH   1   2
ATOM      2  C   UNL     1      42.059  26.365  13.566  1.00  0.00     0.119 A 
ATOM      3  C   UNL     1      40.085  27.325  15.394  1.00  0.00    -0.017 A 
ATOM      4  C   UNL     1      40.599  26.046  15.484  1.00  0.00     0.012 A 
ATOM      5  C   UNL     1      40.589  28.111  14.362  1.00  0.00     0.012 A 
ATOM      6  C   UNL     1      41.557  25.595  14.589  1.00  0.00     0.047 A 
ATOM      7  C   UNL     1      41.535  27.663  13.480  1.00  0.00     0.047 A 
BRANCH   3   8
ATOM      8  C   UNL     1      39.099  27.833  16.331  1.00  0.00    -0.007 C 
ATOM      9  C   UNL     1      39.426  28.486  17.416  1.00  0.00    -0.033 C 
BRANCH   9  10
ATOM     10  C   UNL     1      38.462  28.987  18.433  1.00  0.00     0.033 C 
ATOM     11  C   UNL     1      38.769  28.342  19.753  1.00  0.00     0.009 C 
ENDBRANCH   9  10
BRANCH   9  12
ATOM     12  C   UNL     1      40.829  28.848  17.690  1.00  0.00    -0.022 A 
ATOM     13  C   UNL     1      41.761  27.913  18.063  1.00  0.00     0.008 A 
ATOM     14  C   UNL     1      41.191  30.155  17.575  1.00  0.00     0.008 A 
ATOM     15  C   UNL     1      43.051  28.304  18.317  1.00  0.00     0.001 A 
ATOM     16  C   UNL     1      42.494  30.597  17.825  1.00  0.00     0.001 A 
ATOM     17  C   UNL     1      43.407  29.637  18.196  1.00  0.00     0.000 A 
ENDBRANCH   9  12
BRANCH   8  18
ATOM     18  C   UNL     1      37.702  27.565  16.057  1.00  0.00    -0.018 A 
ATOM     19  C   UNL     1      36.844  28.536  15.581  1.00  0.00     0.009 A 
ATOM     20  C   UNL     1      37.182  26.301  16.324  1.00  0.00     0.009 A 
ATOM     21  C   UNL     1      35.521  28.228  15.389  1.00  0.00     0.001 A 
ATOM     22  C   UNL     1      35.859  25.975  16.135  1.00  0.00     0.001 A 
ATOM     23  C   UNL     1      35.014  26.971  15.654  1.00  0.00     0.000 A 
ENDBRANCH   8  18
ENDBRANCH   3   8
ENDBRANCH   1   2
BRANCH   1  24
ATOM     24  C   UNL     1      42.928  25.915  11.272  1.00  0.00     0.290 C 
BRANCH  24  25
ATOM     25  C   UNL     1      41.877  24.999  10.701  1.00  0.00     0.303 C 
BRANCH  25  26
ATOM     26  N   UNL     1      42.425  23.969   9.872  1.00  0.00    -0.337 N 
ATOM     27  C   UNL     1      43.112  22.936  10.615  1.00  0.00     0.332 C 
ATOM     28  C   UNL     1      43.358  24.477   8.886  1.00  0.00     0.332 C 
ATOM     29  H   UNL     1      41.665  23.476   9.314  1.00  0.00     0.347 HD
ENDBRANCH  25  26
ENDBRANCH  24  25
ENDBRANCH   1  24
TORSDOF 8
ENDMDL
MODEL 9
REMARK VINA RESULT:      -5.6      1.111      1.572
REMARK SMILES CC/C(=C(\c1ccccc1)c1ccc(OCC[NH+](C)C)cc1)c1ccccc1
REMARK SMILES IDX 15 1 14 2 11 3 12 4 22 5 13 6 21 7 4 8 3 9 2 10 1 11 23 12
REMARK SMILES IDX 24 13 28 14 25 15 27 16 26 17 5 18 6 19 10 20 7 21 9 22 8 23
REMARK SMILES IDX 16 24 17 25 18 26 19 27 20 28
REMARK H PARENT 18 29
ROOT
ATOM      1  O   UNL     1      35.131  27.778  14.059  1.00  0.00    -0.488 OA
ENDROOT
BRANCH   1   2
ATOM      2  C   UNL     1      36.184  27.985  14.931  1.00  0.00     0.119 A 
ATOM      3  C   UNL     1      38.350  28.302  16.765  1.00  0.00    -0.017 A 
ATOM      4  C   UNL     1      37.965  29.317  15.912  1.00  0.00     0.012 A 
ATOM      5  C   UNL     1      37.618  27.122  16.675  1.00  0.00     0.012 A 
ATOM      6  C   UNL     1      36.912  29.148  15.028  1.00  0.00     0.047 A 
ATOM      7  C   UNL     1      36.578  26.957  15.800  1.00  0.00     0.047 A 
BRANCH   3   8
ATOM      8  C   UNL     1      39.434  28.459  17.719  1.00  0.00    -0.007 C 
ATOM      9  C   UNL     1      40.656  28.065  17.471  1.00  0.00    -0.033 C 
BRANCH   9  10
ATOM     10  C   UNL     1      41.793  28.158  18.428  1.00  0.00     0.033 C 
ATOM     11  C   UNL     1      42.653  29.327  18.049  1.00  0.00     0.009 C 
ENDBRANCH   9  10
BRANCH   9  12
ATOM     12  C   UNL     1      41.030  27.539  16.146  1.00  0.00    -0.022 A 
ATOM     13  C   UNL     1      41.217  28.360  15.064  1.00  0.00     0.008 A 
ATOM     14  C   UNL     1      41.180  26.193  16.006  1.00  0.00     0.008 A 
ATOM     15  C   UNL     1      41.554  27.819  13.849  1.00  0.00     0.001 A 
ATOM     16  C   UNL     1      41.522  25.599  14.788  1.00  0.00     0.001 A 
ATOM     17  C   UNL     1      41.704  26.448  13.721  1.00  0.00     0.000 A 
ENDBRANCH   9  12
BRANCH   8  18
ATOM     18  C   UNL     1      39.123  29.043  19.008  1.00  0.00    -0.018 A 
ATOM     19  C   UNL     1      39.274  30.391  19.262  1.00  0.00     0.009 A 
ATOM     20  C   UNL     1      38.703  28.221  20.050  1.00  0.00     0.009 A 
ATOM     21  C   UNL     1      39.008  30.872  20.518  1.00  0.00     0.001 A 
ATOM     22  C   UNL     1      38.431  28.686  21.315  1.00  0.00     0.001 A 
ATOM     23  C   UNL     1      38.590  30.049  21.546  1.00  0.00     0.000 A 
ENDBRANCH   8  18
ENDBRANCH   3   8
ENDBRANCH   1   2
BRANCH   1  24
ATOM     24  C   UNL     1      34.766  28.521  12.950  1.00  0.00     0.290 C 
BRANCH  24  25
ATOM     25  C   UNL     1      33.626  29.484  13.153  1.00  0.00     0.303 C 
BRANCH  25  26
ATOM     26  N   UNL     1      32.550  29.277  12.232  1.00  0.00    -0.337 N 
ATOM     27  C   UNL     1      32.556  27.963  11.626  1.00  0.00     0.332 C 
ATOM     28  C   UNL     1      32.538  30.243  11.153  1.00  0.00     0.332 C 
ATOM     29  H   UNL     1      31.605  29.375  12.711  1.00  0.00     0.347 HD
ENDBRANCH  25  26
ENDBRANCH  24  25
ENDBRANCH   1  24
TORSDOF 8
ENDMDL
