MODEL 1
REMARK VINA RESULT:      -6.1      0.000      0.000
REMARK SMILES Clc1ccccc1C(c1ccccc1)(c1ccccc1)n1ccnc1
REMARK SMILES IDX 1 1 2 2 3 3 4 4 5 5 6 6 7 7 8 8 9 9 10 10 14 11 11 12 13 13
REMARK SMILES IDX 12 14 15 15 16 16 20 17 17 18 19 19 18 20 21 21 22 22 25 23
REMARK SMILES IDX 23 24 24 25
REMARK H PARENT
ROOT
ATOM      1  Cl  UNL     1     111.384  79.165 108.691  1.00  0.00    -0.084 Cl
ATOM      2  C   UNL     1     110.764  77.546 108.461  1.00  0.00     0.047 A 
ATOM      3  C   UNL     1     109.417  77.303 108.317  1.00  0.00     0.021 A 
ATOM      4  C   UNL     1     108.928  76.033 108.102  1.00  0.00     0.002 A 
ATOM      5  C   UNL     1     109.828  74.999 108.035  1.00  0.00     0.001 A 
ATOM      6  C   UNL     1     111.199  75.247 108.182  1.00  0.00     0.008 A 
ATOM      7  C   UNL     1     111.675  76.504 108.394  1.00  0.00     0.006 A 
ENDROOT
BRANCH   7   8
ATOM      8  C   UNL     1     113.133  76.740 108.573  1.00  0.00     0.123 C 
BRANCH   8   9
ATOM      9  C   UNL     1     113.605  77.569 107.427  1.00  0.00    -0.013 A 
ATOM     10  C   UNL     1     112.901  77.836 106.299  1.00  0.00     0.007 A 
ATOM     11  C   UNL     1     114.894  78.113 107.584  1.00  0.00     0.007 A 
ATOM     12  C   UNL     1     113.463  78.639 105.322  1.00  0.00     0.000 A 
ATOM     13  C   UNL     1     115.443  78.908 106.612  1.00  0.00     0.000 A 
ATOM     14  C   UNL     1     114.739  79.185 105.465  1.00  0.00     0.000 A 
ENDBRANCH   8   9
BRANCH   8  15
ATOM     15  C   UNL     1     113.905  75.475 108.439  1.00  0.00    -0.013 A 
ATOM     16  C   UNL     1     114.197  74.894 107.233  1.00  0.00     0.007 A 
ATOM     17  C   UNL     1     114.372  74.870 109.578  1.00  0.00     0.007 A 
ATOM     18  C   UNL     1     114.940  73.724 107.137  1.00  0.00     0.000 A 
ATOM     19  C   UNL     1     115.126  73.686 109.506  1.00  0.00     0.000 A 
ATOM     20  C   UNL     1     115.400  73.130 108.287  1.00  0.00     0.000 A 
ENDBRANCH   8  15
BRANCH   8  21
ATOM     21  N   UNL     1     113.385  77.325 109.856  1.00  0.00    -0.319 N 
ATOM     22  C   UNL     1     112.753  77.002 111.019  1.00  0.00     0.109 A 
ATOM     23  C   UNL     1     114.285  78.262 110.153  1.00  0.00     0.200 A 
ATOM     24  C   UNL     1     113.279  77.760 112.041  1.00  0.00     0.131 A 
ATOM     25  N   UNL     1     114.213  78.522 111.485  1.00  0.00    -0.245 NA
ENDBRANCH   8  21
ENDBRANCH   7   8
TORSDOF 4
ENDMDL
MODEL 2
REMARK VINA RESULT:      -6.0      0.404      1.201
REMARK SMILES Clc1ccccc1C(c1ccccc1)(c1ccccc1)n1ccnc1
REMARK SMILES IDX 1 1 2 2 3 3 4 4 5 5 6 6 7 7 8 8 9 9 10 10 14 11 11 12 13 13
REMARK SMILES IDX 12 14 15 15 16 16 20 17 17 18 19 19 18 20 21 21 22 22 25 23
REMARK SMILES IDX 23 24 24 25
REMARK H PARENT
ROOT
ATOM      1  Cl  UNL     1     111.550  79.119 108.664  1.00  0.00    -0.084 Cl
ATOM      2  C   UNL     1     110.924  77.502 108.435  1.00  0.00     0.047 A 
ATOM      3  C   UNL     1     109.576  77.265 108.291  1.00  0.00     0.021 A 
ATOM      4  C   UNL     1     109.081  75.997 108.077  1.00  0.00     0.002 A 
ATOM      5  C   UNL     1     109.978  74.959 108.011  1.00  0.00     0.001 A 
ATOM      6  C   UNL     1     111.350  75.201 108.157  1.00  0.00     0.008 A 
ATOM      7  C   UNL     1     111.830  76.456 108.369  1.00  0.00     0.006 A 
ENDROOT
BRANCH   7   8
ATOM      8  C   UNL     1     113.290  76.686 108.547  1.00  0.00     0.123 C 
BRANCH   8   9
ATOM      9  C   UNL     1     113.762  77.523 107.407  1.00  0.00    -0.013 A 
ATOM     10  C   UNL     1     113.034  77.856 106.312  1.00  0.00     0.007 A 
ATOM     11  C   UNL     1     115.081  78.000 107.532  1.00  0.00     0.007 A 
ATOM     12  C   UNL     1     113.602  78.657 105.337  1.00  0.00     0.000 A 
ATOM     13  C   UNL     1     115.635  78.794 106.562  1.00  0.00     0.000 A 
ATOM     14  C   UNL     1     114.907  79.137 105.448  1.00  0.00     0.000 A 
ENDBRANCH   8   9
BRANCH   8  15
ATOM     15  C   UNL     1     114.058  75.421 108.402  1.00  0.00    -0.013 A 
ATOM     16  C   UNL     1     114.492  74.677 109.468  1.00  0.00     0.007 A 
ATOM     17  C   UNL     1     114.325  74.958 107.139  1.00  0.00     0.007 A 
ATOM     18  C   UNL     1     115.188  73.486 109.302  1.00  0.00     0.000 A 
ATOM     19  C   UNL     1     115.027  73.756 106.947  1.00  0.00     0.000 A 
ATOM     20  C   UNL     1     115.449  73.037 108.030  1.00  0.00     0.000 A 
ENDBRANCH   8  15
BRANCH   8  21
ATOM     21  N   UNL     1     113.545  77.261 109.835  1.00  0.00    -0.319 N 
ATOM     22  C   UNL     1     114.459  78.232 110.108  1.00  0.00     0.109 A 
ATOM     23  C   UNL     1     112.932  76.972 110.982  1.00  0.00     0.200 A 
ATOM     24  C   UNL     1     114.401  78.539 111.449  1.00  0.00     0.131 A 
ATOM     25  N   UNL     1     113.459  77.755 111.961  1.00  0.00    -0.245 NA
ENDBRANCH   8  21
ENDBRANCH   7   8
TORSDOF 4
ENDMDL
MODEL 3
REMARK VINA RESULT:      -6.0      0.615      1.286
REMARK SMILES Clc1ccccc1C(c1ccccc1)(c1ccccc1)n1ccnc1
REMARK SMILES IDX 1 1 2 2 3 3 4 4 5 5 6 6 7 7 8 8 9 9 10 10 14 11 11 12 13 13
REMARK SMILES IDX 12 14 15 15 16 16 20 17 17 18 19 19 18 20 21 21 22 22 25 23
REMARK SMILES IDX 23 24 24 25
REMARK H PARENT
ROOT
ATOM      1  Cl  UNL     1     111.715  78.881 109.363  1.00  0.00    -0.084 Cl
ATOM      2  C   UNL     1     111.033  77.351 108.861  1.00  0.00     0.047 A 
ATOM      3  C   UNL     1     109.676  77.183 108.703  1.00  0.00     0.021 A 
ATOM      4  C   UNL     1     109.138  75.988 108.276  1.00  0.00     0.002 A 
ATOM      5  C   UNL     1     109.999  74.953 108.007  1.00  0.00     0.001 A 
ATOM      6  C   UNL     1     111.380  75.125 108.168  1.00  0.00     0.008 A 
ATOM      7  C   UNL     1     111.904  76.307 108.592  1.00  0.00     0.006 A 
ENDROOT
BRANCH   7   8
ATOM      8  C   UNL     1     113.372  76.458 108.780  1.00  0.00     0.123 C 
BRANCH   8   9
ATOM      9  C   UNL     1     113.867  77.418 107.752  1.00  0.00    -0.013 A 
ATOM     10  C   UNL     1     115.034  78.107 107.807  1.00  0.00     0.007 A 
ATOM     11  C   UNL     1     113.021  77.579 106.639  1.00  0.00     0.007 A 
ATOM     12  C   UNL     1     115.372  78.956 106.767  1.00  0.00     0.000 A 
ATOM     13  C   UNL     1     113.363  78.421 105.613  1.00  0.00     0.000 A 
ATOM     14  C   UNL     1     114.543  79.124 105.658  1.00  0.00     0.000 A 
ENDBRANCH   8   9
BRANCH   8  15
ATOM     15  C   UNL     1     114.091  75.195 108.463  1.00  0.00    -0.013 A 
ATOM     16  C   UNL     1     114.353  74.778 107.184  1.00  0.00     0.007 A 
ATOM     17  C   UNL     1     114.536  74.417 109.501  1.00  0.00     0.007 A 
ATOM     18  C   UNL     1     115.047  73.603 106.918  1.00  0.00     0.000 A 
ATOM     19  C   UNL     1     115.239  73.225 109.257  1.00  0.00     0.000 A 
ATOM     20  C   UNL     1     115.485  72.835 107.970  1.00  0.00     0.000 A 
ENDBRANCH   8  15
BRANCH   8  21
ATOM     21  N   UNL     1     113.659  76.851 110.128  1.00  0.00    -0.319 N 
ATOM     22  C   UNL     1     114.636  77.717 110.516  1.00  0.00     0.109 A 
ATOM     23  C   UNL     1     113.022  76.466 111.232  1.00  0.00     0.200 A 
ATOM     24  C   UNL     1     114.591  77.859 111.885  1.00  0.00     0.131 A 
ATOM     25  N   UNL     1     113.595  77.084 112.298  1.00  0.00    -0.245 NA
ENDBRANCH   8  21
ENDBRANCH   7   8
TORSDOF 4
ENDMDL
MODEL 4
REMARK VINA RESULT:      -6.0      1.307      4.283
REMARK SMILES Clc1ccccc1C(c1ccccc1)(c1ccccc1)n1ccnc1
REMARK SMILES IDX 1 1 2 2 3 3 4 4 5 5 6 6 7 7 8 8 9 9 10 10 14 11 11 12 13 13
REMARK SMILES IDX 12 14 15 15 16 16 20 17 17 18 19 19 18 20 21 21 22 22 25 23
REMARK SMILES IDX 23 24 24 25
REMARK H PARENT
ROOT
ATOM      1  Cl  UNL     1     115.769  77.705 108.806  1.00  0.00    -0.084 Cl
ATOM      2  C   UNL     1     114.559  77.951 107.567  1.00  0.00     0.047 A 
ATOM      3  C   UNL     1     114.794  78.765 106.482  1.00  0.00     0.021 A 
ATOM      4  C   UNL     1     113.855  78.936 105.487  1.00  0.00     0.002 A 
ATOM      5  C   UNL     1     112.663  78.265 105.605  1.00  0.00     0.001 A 
ATOM      6  C   UNL     1     112.425  77.437 106.709  1.00  0.00     0.008 A 
ATOM      7  C   UNL     1     113.356  77.274 107.688  1.00  0.00     0.006 A 
ENDROOT
BRANCH   7   8
ATOM      8  C   UNL     1     113.072  76.409 108.865  1.00  0.00     0.123 C 
BRANCH   8   9
ATOM      9  C   UNL     1     113.928  75.194 108.755  1.00  0.00    -0.013 A 
ATOM     10  C   UNL     1     114.411  74.467 109.793  1.00  0.00     0.007 A 
ATOM     11  C   UNL     1     114.222  74.796 107.437  1.00  0.00     0.007 A 
ATOM     12  C   UNL     1     115.184  73.348 109.538  1.00  0.00     0.000 A 
ATOM     13  C   UNL     1     114.987  73.685 107.193  1.00  0.00     0.000 A 
ATOM     14  C   UNL     1     115.482  72.942 108.237  1.00  0.00     0.000 A 
ENDBRANCH   8   9
BRANCH   8  15
ATOM     15  C   UNL     1     111.685  75.873 108.819  1.00  0.00    -0.013 A 
ATOM     16  C   UNL     1     111.193  75.146 107.767  1.00  0.00     0.007 A 
ATOM     17  C   UNL     1     110.861  76.096 109.893  1.00  0.00     0.007 A 
ATOM     18  C   UNL     1     109.899  74.638 107.762  1.00  0.00     0.000 A 
ATOM     19  C   UNL     1     109.549  75.593 109.910  1.00  0.00     0.000 A 
ATOM     20  C   UNL     1     109.086  74.871 108.845  1.00  0.00     0.000 A 
ENDBRANCH   8  15
BRANCH   8  21
ATOM     21  N   UNL     1     113.264  77.147 110.078  1.00  0.00    -0.319 N 
ATOM     22  C   UNL     1     112.868  78.430 110.302  1.00  0.00     0.109 A 
ATOM     23  C   UNL     1     113.835  76.716 111.202  1.00  0.00     0.200 A 
ATOM     24  C   UNL     1     113.207  78.786 111.589  1.00  0.00     0.131 A 
ATOM     25  N   UNL     1     113.797  77.720 112.117  1.00  0.00    -0.245 NA
ENDBRANCH   8  21
ENDBRANCH   7   8
TORSDOF 4
ENDMDL
MODEL 5
REMARK VINA RESULT:      -5.9      1.518      4.567
REMARK SMILES Clc1ccccc1C(c1ccccc1)(c1ccccc1)n1ccnc1
REMARK SMILES IDX 1 1 2 2 3 3 4 4 5 5 6 6 7 7 8 8 9 9 10 10 14 11 11 12 13 13
REMARK SMILES IDX 12 14 15 15 16 16 20 17 17 18 19 19 18 20 21 21 22 22 25 23
REMARK SMILES IDX 23 24 24 25
REMARK H PARENT
ROOT
ATOM      1  Cl  UNL     1     112.187  78.798 109.267  1.00  0.00    -0.084 Cl
ATOM      2  C   UNL     1     113.462  78.099 110.239  1.00  0.00     0.047 A 
ATOM      3  C   UNL     1     113.946  78.735 111.359  1.00  0.00     0.021 A 
ATOM      4  C   UNL     1     114.927  78.172 112.146  1.00  0.00     0.002 A 
ATOM      5  C   UNL     1     115.419  76.943 111.782  1.00  0.00     0.001 A 
ATOM      6  C   UNL     1     114.925  76.296 110.641  1.00  0.00     0.008 A 
ATOM      7  C   UNL     1     113.957  76.859 109.869  1.00  0.00     0.006 A 
ENDROOT
BRANCH   7   8
ATOM      8  C   UNL     1     113.466  76.164 108.648  1.00  0.00     0.123 C 
BRANCH   8   9
ATOM      9  C   UNL     1     112.071  75.711 108.910  1.00  0.00    -0.013 A 
ATOM     10  C   UNL     1     111.462  75.679 110.122  1.00  0.00     0.007 A 
ATOM     11  C   UNL     1     111.357  75.305 107.766  1.00  0.00     0.007 A 
ATOM     12  C   UNL     1     110.150  75.248 110.211  1.00  0.00     0.000 A 
ATOM     13  C   UNL     1     110.058  74.880 107.864  1.00  0.00     0.000 A 
ATOM     14  C   UNL     1     109.431  74.843 109.087  1.00  0.00     0.000 A 
ENDBRANCH   8   9
BRANCH   8  15
ATOM     15  C   UNL     1     114.213  74.900 108.409  1.00  0.00    -0.013 A 
ATOM     16  C   UNL     1     114.569  74.035 109.410  1.00  0.00     0.007 A 
ATOM     17  C   UNL     1     114.541  74.567 107.119  1.00  0.00     0.007 A 
ATOM     18  C   UNL     1     115.246  72.848 109.155  1.00  0.00     0.000 A 
ATOM     19  C   UNL     1     115.226  73.373 106.837  1.00  0.00     0.000 A 
ATOM     20  C   UNL     1     115.569  72.530 107.857  1.00  0.00     0.000 A 
ENDBRANCH   8  15
BRANCH   8  21
ATOM     21  N   UNL     1     113.594  77.022 107.507  1.00  0.00    -0.319 N 
ATOM     22  C   UNL     1     114.724  77.680 107.126  1.00  0.00     0.109 A 
ATOM     23  C   UNL     1     112.654  77.313 106.608  1.00  0.00     0.200 A 
ATOM     24  C   UNL     1     114.464  78.387 105.973  1.00  0.00     0.131 A 
ATOM     25  N   UNL     1     113.192  78.145 105.678  1.00  0.00    -0.245 NA
ENDBRANCH   8  21
ENDBRANCH   7   8
TORSDOF 4
ENDMDL
MODEL 6
REMARK VINA RESULT:      -5.8      1.065      4.427
REMARK SMILES Clc1ccccc1C(c1ccccc1)(c1ccccc1)n1ccnc1
REMARK SMILES IDX 1 1 2 2 3 3 4 4 5 5 6 6 7 7 8 8 9 9 10 10 14 11 11 12 13 13
REMARK SMILES IDX 12 14 15 15 16 16 20 17 17 18 19 19 18 20 21 21 22 22 25 23
REMARK SMILES IDX 23 24 24 25
REMARK H PARENT
ROOT
ATOM      1  Cl  UNL     1     115.832  77.922 108.840  1.00  0.00    -0.084 Cl
ATOM      2  C   UNL     1     114.776  78.247 107.484  1.00  0.00     0.047 A 
ATOM      3  C   UNL     1     115.198  78.989 106.404  1.00  0.00     0.021 A 
ATOM      4  C   UNL     1     114.380  79.220 105.319  1.00  0.00     0.002 A 
ATOM      5  C   UNL     1     113.115  78.685 105.341  1.00  0.00     0.001 A 
ATOM      6  C   UNL     1     112.687  77.930 106.441  1.00  0.00     0.008 A 
ATOM      7  C   UNL     1     113.500  77.708 107.509  1.00  0.00     0.006 A 
ENDROOT
BRANCH   7   8
ATOM      8  C   UNL     1     113.015  76.924 108.677  1.00  0.00     0.123 C 
BRANCH   8   9
ATOM      9  C   UNL     1     113.805  75.662 108.740  1.00  0.00    -0.013 A 
ATOM     10  C   UNL     1     114.192  75.024 109.872  1.00  0.00     0.007 A 
ATOM     11  C   UNL     1     114.141  75.114 107.487  1.00  0.00     0.007 A 
ATOM     12  C   UNL     1     114.912  73.846 109.775  1.00  0.00     0.000 A 
ATOM     13  C   UNL     1     114.853  73.946 107.401  1.00  0.00     0.000 A 
ATOM     14  C   UNL     1     115.252  73.292 108.541  1.00  0.00     0.000 A 
ENDBRANCH   8   9
BRANCH   8  15
ATOM     15  C   UNL     1     111.616  76.461 108.473  1.00  0.00    -0.013 A 
ATOM     16  C   UNL     1     111.295  75.199 108.046  1.00  0.00     0.007 A 
ATOM     17  C   UNL     1     110.592  77.330 108.749  1.00  0.00     0.007 A 
ATOM     18  C   UNL     1     109.978  74.786 107.887  1.00  0.00     0.000 A 
ATOM     19  C   UNL     1     109.252  76.935 108.595  1.00  0.00     0.000 A 
ATOM     20  C   UNL     1     108.963  75.669 108.167  1.00  0.00     0.000 A 
ENDBRANCH   8  15
BRANCH   8  21
ATOM     21  N   UNL     1     113.091  77.717 109.869  1.00  0.00    -0.319 N 
ATOM     22  C   UNL     1     113.254  77.242 111.134  1.00  0.00     0.109 A 
ATOM     23  C   UNL     1     113.039  79.045 109.958  1.00  0.00     0.200 A 
ATOM     24  C   UNL     1     113.301  78.304 112.010  1.00  0.00     0.131 A 
ATOM     25  N   UNL     1     113.168  79.395 111.265  1.00  0.00    -0.245 NA
ENDBRANCH   8  21
ENDBRANCH   7   8
TORSDOF 4
ENDMDL
MODEL 7
REMARK VINA RESULT:      -5.8      1.473      4.367
REMARK SMILES Clc1ccccc1C(c1ccccc1)(c1ccccc1)n1ccnc1
REMARK SMILES IDX 1 1 2 2 3 3 4 4 5 5 6 6 7 7 8 8 9 9 10 10 14 11 11 12 13 13
REMARK SMILES IDX 12 14 15 15 16 16 20 17 17 18 19 19 18 20 21 21 22 22 25 23
REMARK SMILES IDX 23 24 24 25
REMARK H PARENT
ROOT
ATOM      1  Cl  UNL     1     111.189  78.690 109.018  1.00  0.00    -0.084 Cl
ATOM      2  C   UNL     1     112.510  78.235 110.070  1.00  0.00     0.047 A 
ATOM      3  C   UNL     1     112.824  78.969 111.191  1.00  0.00     0.021 A 
ATOM      4  C   UNL     1     113.843  78.595 112.041  1.00  0.00     0.002 A 
ATOM      5  C   UNL     1     114.550  77.458 111.738  1.00  0.00     0.001 A 
ATOM      6  C   UNL     1     114.230  76.712 110.596  1.00  0.00     0.008 A 
ATOM      7  C   UNL     1     113.223  77.087 109.762  1.00  0.00     0.006 A 
ENDROOT
BRANCH   7   8
ATOM      8  C   UNL     1     112.917  76.293 108.541  1.00  0.00     0.123 C 
BRANCH   8   9
ATOM      9  C   UNL     1     111.557  75.707 108.706  1.00  0.00    -0.013 A 
ATOM     10  C   UNL     1     110.758  75.261 107.705  1.00  0.00     0.007 A 
ATOM     11  C   UNL     1     111.111  75.618 110.039  1.00  0.00     0.007 A 
ATOM     12  C   UNL     1     109.520  74.724 108.012  1.00  0.00     0.000 A 
ATOM     13  C   UNL     1     109.883  75.084 110.334  1.00  0.00     0.000 A 
ATOM     14  C   UNL     1     109.066  74.629 109.328  1.00  0.00     0.000 A 
ENDBRANCH   8   9
BRANCH   8  15
ATOM     15  C   UNL     1     113.806  75.105 108.432  1.00  0.00    -0.013 A 
ATOM     16  C   UNL     1     114.310  74.648 107.244  1.00  0.00     0.007 A 
ATOM     17  C   UNL     1     114.162  74.447 109.582  1.00  0.00     0.007 A 
ATOM     18  C   UNL     1     115.158  73.549 107.175  1.00  0.00     0.000 A 
ATOM     19  C   UNL     1     115.017  73.333 109.537  1.00  0.00     0.000 A 
ATOM     20  C   UNL     1     115.504  72.899 108.336  1.00  0.00     0.000 A 
ENDBRANCH   8  15
BRANCH   8  21
ATOM     21  N   UNL     1     113.060  77.110 107.372  1.00  0.00    -0.319 N 
ATOM     22  C   UNL     1     114.107  77.936 107.099  1.00  0.00     0.109 A 
ATOM     23  C   UNL     1     112.220  77.196 106.341  1.00  0.00     0.200 A 
ATOM     24  C   UNL     1     113.898  78.537 105.878  1.00  0.00     0.131 A 
ATOM     25  N   UNL     1     112.737  78.068 105.436  1.00  0.00    -0.245 NA
ENDBRANCH   8  21
ENDBRANCH   7   8
TORSDOF 4
ENDMDL
MODEL 8
REMARK VINA RESULT:      -5.7      1.675      4.817
REMARK SMILES Clc1ccccc1C(c1ccccc1)(c1ccccc1)n1ccnc1
REMARK SMILES IDX 1 1 2 2 3 3 4 4 5 5 6 6 7 7 8 8 9 9 10 10 14 11 11 12 13 13
REMARK SMILES IDX 12 14 15 15 16 16 20 17 17 18 19 19 18 20 21 21 22 22 25 23
REMARK SMILES IDX 23 24 24 25
REMARK H PARENT
ROOT
ATOM      1  Cl  UNL     1     114.210  74.377 111.150  1.00  0.00    -0.084 Cl
ATOM      2  C   UNL     1     114.656  73.973 109.507  1.00  0.00     0.047 A 
ATOM      3  C   UNL     1     115.209  72.753 109.190  1.00  0.00     0.021 A 
ATOM      4  C   UNL     1     115.532  72.419 107.893  1.00  0.00     0.002 A 
ATOM      5  C   UNL     1     115.285  73.344 106.909  1.00  0.00     0.001 A 
ATOM      6  C   UNL     1     114.722  74.585 107.233  1.00  0.00     0.008 A 
ATOM      7  C   UNL     1     114.407  74.909 108.516  1.00  0.00     0.006 A 
ENDROOT
BRANCH   7   8
ATOM      8  C   UNL     1     113.833  76.243 108.840  1.00  0.00     0.123 C 
BRANCH   8   9
ATOM      9  C   UNL     1     112.402  76.046 109.208  1.00  0.00    -0.013 A 
ATOM     10  C   UNL     1     111.771  76.611 110.268  1.00  0.00     0.007 A 
ATOM     11  C   UNL     1     111.680  75.204 108.342  1.00  0.00     0.007 A 
ATOM     12  C   UNL     1     110.429  76.349 110.478  1.00  0.00     0.000 A 
ATOM     13  C   UNL     1     110.350  74.950 108.557  1.00  0.00     0.000 A 
ATOM     14  C   UNL     1     109.701  75.517 109.627  1.00  0.00     0.000 A 
ENDBRANCH   8   9
BRANCH   8  15
ATOM     15  C   UNL     1     113.775  77.113 107.634  1.00  0.00    -0.013 A 
ATOM     16  C   UNL     1     112.637  77.298 106.893  1.00  0.00     0.007 A 
ATOM     17  C   UNL     1     114.909  77.784 107.257  1.00  0.00     0.007 A 
ATOM     18  C   UNL     1     112.606  78.135 105.784  1.00  0.00     0.000 A 
ATOM     19  C   UNL     1     114.902  78.636 106.139  1.00  0.00     0.000 A 
ATOM     20  C   UNL     1     113.752  78.800 105.419  1.00  0.00     0.000 A 
ENDBRANCH   8  15
BRANCH   8  21
ATOM     21  N   UNL     1     114.613  76.882 109.858  1.00  0.00    -0.319 N 
ATOM     22  C   UNL     1     115.943  76.694 110.080  1.00  0.00     0.109 A 
ATOM     23  C   UNL     1     114.195  77.780 110.749  1.00  0.00     0.200 A 
ATOM     24  C   UNL     1     116.341  77.494 111.128  1.00  0.00     0.131 A 
ATOM     25  N   UNL     1     115.253  78.148 111.519  1.00  0.00    -0.245 NA
ENDBRANCH   8  21
ENDBRANCH   7   8
TORSDOF 4
ENDMDL
MODEL 9
REMARK VINA RESULT:      -5.7      1.057      4.076
REMARK SMILES Clc1ccccc1C(c1ccccc1)(c1ccccc1)n1ccnc1
REMARK SMILES IDX 1 1 2 2 3 3 4 4 5 5 6 6 7 7 8 8 9 9 10 10 14 11 11 12 13 13
REMARK SMILES IDX 12 14 15 15 16 16 20 17 17 18 19 19 18 20 21 21 22 22 25 23
REMARK SMILES IDX 23 24 24 25
REMARK H PARENT
ROOT
ATOM      1  Cl  UNL     1     111.118  78.493 109.261  1.00  0.00    -0.084 Cl
ATOM      2  C   UNL     1     112.312  78.390 107.987  1.00  0.00     0.047 A 
ATOM      3  C   UNL     1     112.416  79.360 107.017  1.00  0.00     0.021 A 
ATOM      4  C   UNL     1     113.377  79.299 106.030  1.00  0.00     0.002 A 
ATOM      5  C   UNL     1     114.240  78.231 106.037  1.00  0.00     0.001 A 
ATOM      6  C   UNL     1     114.133  77.244 107.025  1.00  0.00     0.008 A 
ATOM      7  C   UNL     1     113.181  77.311 107.996  1.00  0.00     0.006 A 
ENDROOT
BRANCH   7   8
ATOM      8  C   UNL     1     113.070  76.237 109.020  1.00  0.00     0.123 C 
BRANCH   8   9
ATOM      9  C   UNL     1     113.909  75.089 108.570  1.00  0.00    -0.013 A 
ATOM     10  C   UNL     1     114.154  74.742 107.282  1.00  0.00     0.007 A 
ATOM     11  C   UNL     1     114.487  74.338 109.611  1.00  0.00     0.007 A 
ATOM     12  C   UNL     1     114.968  73.657 107.014  1.00  0.00     0.000 A 
ATOM     13  C   UNL     1     115.294  73.264 109.337  1.00  0.00     0.000 A 
ATOM     14  C   UNL     1     115.549  72.904 108.035  1.00  0.00     0.000 A 
ENDBRANCH   8   9
BRANCH   8  15
ATOM     15  C   UNL     1     111.694  75.676 109.068  1.00  0.00    -0.013 A 
ATOM     16  C   UNL     1     110.976  75.538 110.227  1.00  0.00     0.007 A 
ATOM     17  C   UNL     1     111.099  75.299 107.890  1.00  0.00     0.007 A 
ATOM     18  C   UNL     1     109.682  75.032 110.238  1.00  0.00     0.000 A 
ATOM     19  C   UNL     1     109.792  74.784 107.877  1.00  0.00     0.000 A 
ATOM     20  C   UNL     1     109.101  74.658 109.050  1.00  0.00     0.000 A 
ENDBRANCH   8  15
BRANCH   8  21
ATOM     21  N   UNL     1     113.428  76.747 110.310  1.00  0.00    -0.319 N 
ATOM     22  C   UNL     1     112.892  76.356 111.500  1.00  0.00     0.109 A 
ATOM     23  C   UNL     1     114.351  77.668 110.586  1.00  0.00     0.200 A 
ATOM     24  C   UNL     1     113.501  77.055 112.518  1.00  0.00     0.131 A 
ATOM     25  N   UNL     1     114.390  77.850 111.932  1.00  0.00    -0.245 NA
ENDBRANCH   8  21
ENDBRANCH   7   8
TORSDOF 4
ENDMDL
