MODEL 1
REMARK VINA RESULT:      -7.5      0.000      0.000
REMARK SMILES CCCCCCc1ccccc1CCCCC(=O)N[C@H](CO)COP(=O)([O-])[O-]
REMARK SMILES IDX 14 1 15 2 16 3 17 4 19 5 18 6 20 8 23 9 24 10 25 11 26 12
REMARK SMILES IDX 27 13 28 14 21 15 22 16 13 18 12 19 7 20 11 21 8 22 10 23
REMARK SMILES IDX 9 24 6 25 5 26 4 27 3 28 2 29 1 30
REMARK H PARENT 19 7 22 17
REMARK INDEX MAP 18 1 9 2 19 3 10 4 1 5 20 6 29 7 21 8 11 9 24 10 25 11 26 12
REMARK INDEX MAP 27 13 28 14 22 15 23 16 60 17 8 18 17 19 5 20 16 21 6 22 7 23
REMARK INDEX MAP 15 24 4 25 3 26 2 27 14 28 13 29 12 30
ROOT
ATOM      1  C   UNL     1      -1.816 -26.689  48.790  1.00  0.00     0.005 C 
ENDROOT
BRANCH   1   2
ATOM      2  C   UNL     1      -2.604 -27.944  49.157  1.00  0.00     0.010 C 
BRANCH   2   3
ATOM      3  C   UNL     1      -1.966 -28.864  50.156  1.00  0.00     0.100 C 
BRANCH   3   4
ATOM      4  C   UNL     1      -2.236 -28.562  51.612  1.00  0.00     0.220 C 
ATOM      5  N   UNL     1      -1.989 -27.340  52.075  1.00  0.00    -0.349 N 
ATOM      6  O   UNL     1      -2.681 -29.438  52.353  1.00  0.00    -0.275 OA
ATOM      7  H   UNL     1      -1.702 -26.631  51.456  1.00  0.00     0.163 HD
BRANCH   5   8
ATOM      8  C   UNL     1      -2.139 -27.043  53.489  1.00  0.00     0.133 C 
BRANCH   8   9
ATOM      9  C   UNL     1      -1.068 -26.008  53.749  1.00  0.00     0.193 C 
BRANCH   9  10
ATOM     10  O   UNL     1       0.034 -26.134  52.831  1.00  0.00    -0.349 OA
BRANCH  10  11
ATOM     11  P   UNL     1       0.669 -24.749  52.335  1.00  0.00     0.060 P 
ATOM     12  O   UNL     1       2.136 -25.102  52.127  1.00  0.00    -0.326 OA
ATOM     13  O   UNL     1      -0.051 -24.388  51.038  1.00  0.00    -0.790 OA
ATOM     14  O   UNL     1       0.441 -23.718  53.427  1.00  0.00    -0.790 OA
ENDBRANCH  10  11
ENDBRANCH   9  10
ENDBRANCH   8   9
BRANCH   8  15
ATOM     15  C   UNL     1      -3.537 -26.536  53.813  1.00  0.00     0.183 C 
BRANCH  15  16
ATOM     16  O   UNL     1      -4.461 -27.551  54.138  1.00  0.00    -0.394 OA
ATOM     17  H   UNL     1      -4.628 -28.099  53.356  1.00  0.00     0.210 HD
ENDBRANCH  15  16
ENDBRANCH   8  15
ENDBRANCH   5   8
ENDBRANCH   3   4
ENDBRANCH   2   3
ENDBRANCH   1   2
BRANCH   1  18
ATOM     18  C   UNL     1      -2.239 -26.100  47.471  1.00  0.00     0.036 C 
BRANCH  18  19
ATOM     19  C   UNL     1      -1.972 -24.623  47.260  1.00  0.00    -0.045 A 
ATOM     20  C   UNL     1      -3.030 -23.704  47.197  1.00  0.00    -0.045 A 
ATOM     21  C   UNL     1      -0.674 -24.133  47.183  1.00  0.00     0.004 A 
ATOM     22  C   UNL     1      -2.752 -22.347  47.040  1.00  0.00     0.004 A 
ATOM     23  C   UNL     1      -0.422 -22.791  46.995  1.00  0.00     0.000 A 
ATOM     24  C   UNL     1      -1.460 -21.898  46.918  1.00  0.00     0.000 A 
BRANCH  20  25
ATOM     25  C   UNL     1      -4.481 -24.151  47.270  1.00  0.00     0.036 C 
BRANCH  25  26
ATOM     26  C   UNL     1      -5.346 -23.163  48.012  1.00  0.00     0.005 C 
BRANCH  26  27
ATOM     27  C   UNL     1      -5.591 -23.524  49.466  1.00  0.00     0.000 C 
BRANCH  27  28
ATOM     28  C   UNL     1      -4.745 -24.650  49.969  1.00  0.00    -0.000 C 
BRANCH  28  29
ATOM     29  C   UNL     1      -3.719 -24.214  50.971  1.00  0.00    -0.003 C 
ATOM     30  C   UNL     1      -3.140 -22.836  50.754  1.00  0.00     0.004 C 
ENDBRANCH  28  29
ENDBRANCH  27  28
ENDBRANCH  26  27
ENDBRANCH  25  26
ENDBRANCH  20  25
ENDBRANCH  18  19
ENDBRANCH   1  18
TORSDOF 16
ENDMDL
MODEL 2
REMARK VINA RESULT:      -7.4      2.607      4.270
REMARK SMILES CCCCCCc1ccccc1CCCCC(=O)N[C@H](CO)COP(=O)([O-])[O-]
REMARK SMILES IDX 14 1 15 2 16 3 17 4 19 5 18 6 20 8 23 9 24 10 25 11 26 12
REMARK SMILES IDX 27 13 28 14 21 15 22 16 13 18 12 19 7 20 11 21 8 22 10 23
REMARK SMILES IDX 9 24 6 25 5 26 4 27 3 28 2 29 1 30
REMARK H PARENT 19 7 22 17
REMARK INDEX MAP 18 1 9 2 19 3 10 4 1 5 20 6 29 7 21 8 11 9 24 10 25 11 26 12
REMARK INDEX MAP 27 13 28 14 22 15 23 16 60 17 8 18 17 19 5 20 16 21 6 22 7 23
REMARK INDEX MAP 15 24 4 25 3 26 2 27 14 28 13 29 12 30
ROOT
ATOM      1  C   UNL     1      -1.343 -26.325  48.955  1.00  0.00     0.005 C 
ENDROOT
BRANCH   1   2
ATOM      2  C   UNL     1      -2.132 -27.408  49.688  1.00  0.00     0.010 C 
BRANCH   2   3
ATOM      3  C   UNL     1      -3.406 -26.973  50.352  1.00  0.00     0.100 C 
BRANCH   3   4
ATOM      4  C   UNL     1      -3.535 -27.289  51.823  1.00  0.00     0.220 C 
ATOM      5  N   UNL     1      -2.771 -28.242  52.350  1.00  0.00    -0.349 N 
ATOM      6  O   UNL     1      -4.338 -26.669  52.520  1.00  0.00    -0.275 OA
ATOM      7  H   UNL     1      -2.084 -28.679  51.796  1.00  0.00     0.163 HD
BRANCH   5   8
ATOM      8  C   UNL     1      -2.941 -28.643  53.736  1.00  0.00     0.133 C 
BRANCH   8   9
ATOM      9  C   UNL     1      -3.695 -29.950  53.634  1.00  0.00     0.193 C 
BRANCH   9  10
ATOM     10  O   UNL     1      -4.737 -30.047  54.623  1.00  0.00    -0.349 OA
BRANCH  10  11
ATOM     11  P   UNL     1      -4.820 -31.452  55.389  1.00  0.00     0.060 P 
ATOM     12  O   UNL     1      -4.001 -31.202  56.650  1.00  0.00    -0.326 OA
ATOM     13  O   UNL     1      -6.300 -31.697  55.674  1.00  0.00    -0.790 OA
ATOM     14  O   UNL     1      -4.226 -32.513  54.479  1.00  0.00    -0.790 OA
ENDBRANCH  10  11
ENDBRANCH   9  10
ENDBRANCH   8   9
BRANCH   8  15
ATOM     15  C   UNL     1      -1.604 -28.789  54.448  1.00  0.00     0.183 C 
BRANCH  15  16
ATOM     16  O   UNL     1      -0.758 -27.667  54.327  1.00  0.00    -0.394 OA
ATOM     17  H   UNL     1       0.151 -27.965  54.166  1.00  0.00     0.210 HD
ENDBRANCH  15  16
ENDBRANCH   8  15
ENDBRANCH   5   8
ENDBRANCH   3   4
ENDBRANCH   2   3
ENDBRANCH   1   2
BRANCH   1  18
ATOM     18  C   UNL     1      -2.020 -25.867  47.692  1.00  0.00     0.036 C 
BRANCH  18  19
ATOM     19  C   UNL     1      -1.889 -24.399  47.335  1.00  0.00    -0.045 A 
ATOM     20  C   UNL     1      -3.026 -23.586  47.211  1.00  0.00    -0.045 A 
ATOM     21  C   UNL     1      -0.641 -23.807  47.182  1.00  0.00     0.004 A 
ATOM     22  C   UNL     1      -2.873 -22.232  46.919  1.00  0.00     0.004 A 
ATOM     23  C   UNL     1      -0.513 -22.472  46.862  1.00  0.00     0.000 A 
ATOM     24  C   UNL     1      -1.628 -21.685  46.725  1.00  0.00     0.000 A 
BRANCH  20  25
ATOM     25  C   UNL     1      -4.429 -24.150  47.359  1.00  0.00     0.036 C 
BRANCH  25  26
ATOM     26  C   UNL     1      -5.273 -23.336  48.309  1.00  0.00     0.005 C 
BRANCH  26  27
ATOM     27  C   UNL     1      -5.557 -24.025  49.631  1.00  0.00     0.000 C 
BRANCH  27  28
ATOM     28  C   UNL     1      -4.960 -23.341  50.819  1.00  0.00    -0.000 C 
BRANCH  28  29
ATOM     29  C   UNL     1      -3.493 -23.610  50.977  1.00  0.00    -0.003 C 
ATOM     30  C   UNL     1      -2.575 -22.484  50.562  1.00  0.00     0.004 C 
ENDBRANCH  28  29
ENDBRANCH  27  28
ENDBRANCH  26  27
ENDBRANCH  25  26
ENDBRANCH  20  25
ENDBRANCH  18  19
ENDBRANCH   1  18
TORSDOF 16
ENDMDL
MODEL 3
REMARK VINA RESULT:      -7.2      3.001      4.182
REMARK SMILES CCCCCCc1ccccc1CCCCC(=O)N[C@H](CO)COP(=O)([O-])[O-]
REMARK SMILES IDX 14 1 15 2 16 3 17 4 19 5 18 6 20 8 23 9 24 10 25 11 26 12
REMARK SMILES IDX 27 13 28 14 21 15 22 16 13 18 12 19 7 20 11 21 8 22 10 23
REMARK SMILES IDX 9 24 6 25 5 26 4 27 3 28 2 29 1 30
REMARK H PARENT 19 7 22 17
REMARK INDEX MAP 18 1 9 2 19 3 10 4 1 5 20 6 29 7 21 8 11 9 24 10 25 11 26 12
REMARK INDEX MAP 27 13 28 14 22 15 23 16 60 17 8 18 17 19 5 20 16 21 6 22 7 23
REMARK INDEX MAP 15 24 4 25 3 26 2 27 14 28 13 29 12 30
ROOT
ATOM      1  C   UNL     1      -1.765 -26.518  49.044  1.00  0.00     0.005 C 
ENDROOT
BRANCH   1   2
ATOM      2  C   UNL     1      -1.778 -28.042  49.144  1.00  0.00     0.010 C 
BRANCH   2   3
ATOM      3  C   UNL     1      -3.027 -28.664  49.696  1.00  0.00     0.100 C 
BRANCH   3   4
ATOM      4  C   UNL     1      -3.355 -28.341  51.135  1.00  0.00     0.220 C 
ATOM      5  N   UNL     1      -2.670 -28.942  52.105  1.00  0.00    -0.349 N 
ATOM      6  O   UNL     1      -4.243 -27.532  51.401  1.00  0.00    -0.275 OA
ATOM      7  H   UNL     1      -1.915 -29.532  51.877  1.00  0.00     0.163 HD
BRANCH   5   8
ATOM      8  C   UNL     1      -3.027 -28.735  53.498  1.00  0.00     0.133 C 
BRANCH   8   9
ATOM      9  C   UNL     1      -3.818 -29.975  53.847  1.00  0.00     0.193 C 
BRANCH   9  10
ATOM     10  O   UNL     1      -4.937 -29.674  54.702  1.00  0.00    -0.349 OA
BRANCH  10  11
ATOM     11  P   UNL     1      -6.377 -29.990  54.075  1.00  0.00     0.060 P 
ATOM     12  O   UNL     1      -7.139 -30.585  55.252  1.00  0.00    -0.326 OA
ATOM     13  O   UNL     1      -6.944 -28.650  53.609  1.00  0.00    -0.790 OA
ATOM     14  O   UNL     1      -6.179 -30.961  52.925  1.00  0.00    -0.790 OA
ENDBRANCH  10  11
ENDBRANCH   9  10
ENDBRANCH   8   9
BRANCH   8  15
ATOM     15  C   UNL     1      -1.795 -28.557  54.374  1.00  0.00     0.183 C 
BRANCH  15  16
ATOM     16  O   UNL     1      -1.537 -29.642  55.239  1.00  0.00    -0.394 OA
ATOM     17  H   UNL     1      -1.053 -29.326  56.017  1.00  0.00     0.210 HD
ENDBRANCH  15  16
ENDBRANCH   8  15
ENDBRANCH   5   8
ENDBRANCH   3   4
ENDBRANCH   2   3
ENDBRANCH   1   2
BRANCH   1  18
ATOM     18  C   UNL     1      -2.338 -26.014  47.747  1.00  0.00     0.036 C 
BRANCH  18  19
ATOM     19  C   UNL     1      -2.081 -24.561  47.400  1.00  0.00    -0.045 A 
ATOM     20  C   UNL     1      -3.147 -23.672  47.194  1.00  0.00    -0.045 A 
ATOM     21  C   UNL     1      -0.787 -24.058  47.336  1.00  0.00     0.004 A 
ATOM     22  C   UNL     1      -2.880 -22.334  46.913  1.00  0.00     0.004 A 
ATOM     23  C   UNL     1      -0.544 -22.737  47.024  1.00  0.00     0.000 A 
ATOM     24  C   UNL     1      -1.589 -21.875  46.808  1.00  0.00     0.000 A 
BRANCH  20  25
ATOM     25  C   UNL     1      -4.593 -24.137  47.243  1.00  0.00     0.036 C 
BRANCH  25  26
ATOM     26  C   UNL     1      -5.374 -23.457  48.340  1.00  0.00     0.005 C 
BRANCH  26  27
ATOM     27  C   UNL     1      -4.829 -23.708  49.735  1.00  0.00     0.000 C 
BRANCH  27  28
ATOM     28  C   UNL     1      -4.358 -22.478  50.441  1.00  0.00    -0.000 C 
BRANCH  28  29
ATOM     29  C   UNL     1      -2.871 -22.434  50.619  1.00  0.00    -0.003 C 
ATOM     30  C   UNL     1      -2.244 -23.691  51.177  1.00  0.00     0.004 C 
ENDBRANCH  28  29
ENDBRANCH  27  28
ENDBRANCH  26  27
ENDBRANCH  25  26
ENDBRANCH  20  25
ENDBRANCH  18  19
ENDBRANCH   1  18
TORSDOF 16
ENDMDL
MODEL 4
REMARK VINA RESULT:      -7.2      2.783      4.040
REMARK SMILES CCCCCCc1ccccc1CCCCC(=O)N[C@H](CO)COP(=O)([O-])[O-]
REMARK SMILES IDX 14 1 15 2 16 3 17 4 19 5 18 6 20 8 23 9 24 10 25 11 26 12
REMARK SMILES IDX 27 13 28 14 21 15 22 16 13 18 12 19 7 20 11 21 8 22 10 23
REMARK SMILES IDX 9 24 6 25 5 26 4 27 3 28 2 29 1 30
REMARK H PARENT 19 7 22 17
REMARK INDEX MAP 18 1 9 2 19 3 10 4 1 5 20 6 29 7 21 8 11 9 24 10 25 11 26 12
REMARK INDEX MAP 27 13 28 14 22 15 23 16 60 17 8 18 17 19 5 20 16 21 6 22 7 23
REMARK INDEX MAP 15 24 4 25 3 26 2 27 14 28 13 29 12 30
ROOT
ATOM      1  C   UNL     1      -2.011 -26.655  48.628  1.00  0.00     0.005 C 
ENDROOT
BRANCH   1   2
ATOM      2  C   UNL     1      -2.248 -28.163  48.652  1.00  0.00     0.010 C 
BRANCH   2   3
ATOM      3  C   UNL     1      -1.815 -28.887  49.894  1.00  0.00     0.100 C 
BRANCH   3   4
ATOM      4  C   UNL     1      -2.498 -28.480  51.178  1.00  0.00     0.220 C 
ATOM      5  N   UNL     1      -1.861 -28.654  52.333  1.00  0.00    -0.349 N 
ATOM      6  O   UNL     1      -3.628 -27.992  51.149  1.00  0.00    -0.275 OA
ATOM      7  H   UNL     1      -0.932 -28.977  52.335  1.00  0.00     0.163 HD
BRANCH   5   8
ATOM      8  C   UNL     1      -2.527 -28.370  53.593  1.00  0.00     0.133 C 
BRANCH   8   9
ATOM      9  C   UNL     1      -3.055 -29.719  54.024  1.00  0.00     0.193 C 
BRANCH   9  10
ATOM     10  O   UNL     1      -4.370 -29.622  54.602  1.00  0.00    -0.349 OA
BRANCH  10  11
ATOM     11  P   UNL     1      -5.297 -30.914  54.408  1.00  0.00     0.060 P 
ATOM     12  O   UNL     1      -4.343 -32.065  54.699  1.00  0.00    -0.326 OA
ATOM     13  O   UNL     1      -6.421 -30.792  55.436  1.00  0.00    -0.790 OA
ATOM     14  O   UNL     1      -5.818 -30.902  52.982  1.00  0.00    -0.790 OA
ENDBRANCH  10  11
ENDBRANCH   9  10
ENDBRANCH   8   9
BRANCH   8  15
ATOM     15  C   UNL     1      -1.573 -27.759  54.609  1.00  0.00     0.183 C 
BRANCH  15  16
ATOM     16  O   UNL     1      -1.720 -28.263  55.918  1.00  0.00    -0.394 OA
ATOM     17  H   UNL     1      -1.286 -29.128  55.981  1.00  0.00     0.210 HD
ENDBRANCH  15  16
ENDBRANCH   8  15
ENDBRANCH   5   8
ENDBRANCH   3   4
ENDBRANCH   2   3
ENDBRANCH   1   2
BRANCH   1  18
ATOM     18  C   UNL     1      -2.231 -26.052  47.267  1.00  0.00     0.036 C 
BRANCH  18  19
ATOM     19  C   UNL     1      -2.003 -24.560  47.130  1.00  0.00    -0.045 A 
ATOM     20  C   UNL     1      -3.080 -23.662  47.181  1.00  0.00    -0.045 A 
ATOM     21  C   UNL     1      -0.720 -24.038  47.013  1.00  0.00     0.004 A 
ATOM     22  C   UNL     1      -2.835 -22.293  47.091  1.00  0.00     0.004 A 
ATOM     23  C   UNL     1      -0.503 -22.682  46.892  1.00  0.00     0.000 A 
ATOM     24  C   UNL     1      -1.560 -21.809  46.926  1.00  0.00     0.000 A 
BRANCH  20  25
ATOM     25  C   UNL     1      -4.515 -24.144  47.305  1.00  0.00     0.036 C 
BRANCH  25  26
ATOM     26  C   UNL     1      -5.175 -23.652  48.570  1.00  0.00     0.005 C 
BRANCH  26  27
ATOM     27  C   UNL     1      -4.772 -24.418  49.817  1.00  0.00     0.000 C 
BRANCH  27  28
ATOM     28  C   UNL     1      -4.074 -23.589  50.847  1.00  0.00    -0.000 C 
BRANCH  28  29
ATOM     29  C   UNL     1      -2.581 -23.617  50.713  1.00  0.00    -0.003 C 
ATOM     30  C   UNL     1      -1.841 -24.337  51.817  1.00  0.00     0.004 C 
ENDBRANCH  28  29
ENDBRANCH  27  28
ENDBRANCH  26  27
ENDBRANCH  25  26
ENDBRANCH  20  25
ENDBRANCH  18  19
ENDBRANCH   1  18
TORSDOF 16
ENDMDL
MODEL 5
REMARK VINA RESULT:      -7.1      2.673      4.276
REMARK SMILES CCCCCCc1ccccc1CCCCC(=O)N[C@H](CO)COP(=O)([O-])[O-]
REMARK SMILES IDX 14 1 15 2 16 3 17 4 19 5 18 6 20 8 23 9 24 10 25 11 26 12
REMARK SMILES IDX 27 13 28 14 21 15 22 16 13 18 12 19 7 20 11 21 8 22 10 23
REMARK SMILES IDX 9 24 6 25 5 26 4 27 3 28 2 29 1 30
REMARK H PARENT 19 7 22 17
REMARK INDEX MAP 18 1 9 2 19 3 10 4 1 5 20 6 29 7 21 8 11 9 24 10 25 11 26 12
REMARK INDEX MAP 27 13 28 14 22 15 23 16 60 17 8 18 17 19 5 20 16 21 6 22 7 23
REMARK INDEX MAP 15 24 4 25 3 26 2 27 14 28 13 29 12 30
ROOT
ATOM      1  C   UNL     1      -2.188 -26.999  48.202  1.00  0.00     0.005 C 
ENDROOT
BRANCH   1   2
ATOM      2  C   UNL     1      -2.714 -28.202  48.980  1.00  0.00     0.010 C 
BRANCH   2   3
ATOM      3  C   UNL     1      -1.794 -28.781  50.016  1.00  0.00     0.100 C 
BRANCH   3   4
ATOM      4  C   UNL     1      -1.982 -28.283  51.430  1.00  0.00     0.220 C 
ATOM      5  N   UNL     1      -2.575 -29.074  52.321  1.00  0.00    -0.349 N 
ATOM      6  O   UNL     1      -1.590 -27.161  51.748  1.00  0.00    -0.275 OA
ATOM      7  H   UNL     1      -2.818 -29.995  52.072  1.00  0.00     0.163 HD
BRANCH   5   8
ATOM      8  C   UNL     1      -2.865 -28.590  53.660  1.00  0.00     0.133 C 
BRANCH   8   9
ATOM      9  C   UNL     1      -4.074 -29.398  54.073  1.00  0.00     0.193 C 
BRANCH   9  10
ATOM     10  O   UNL     1      -3.804 -30.812  54.065  1.00  0.00    -0.349 OA
BRANCH  10  11
ATOM     11  P   UNL     1      -4.595 -31.663  55.168  1.00  0.00     0.060 P 
ATOM     12  O   UNL     1      -6.040 -31.230  54.961  1.00  0.00    -0.326 OA
ATOM     13  O   UNL     1      -4.354 -33.132  54.828  1.00  0.00    -0.790 OA
ATOM     14  O   UNL     1      -4.037 -31.289  56.530  1.00  0.00    -0.790 OA
ENDBRANCH  10  11
ENDBRANCH   9  10
ENDBRANCH   8   9
BRANCH   8  15
ATOM     15  C   UNL     1      -1.681 -28.782  54.597  1.00  0.00     0.183 C 
BRANCH  15  16
ATOM     16  O   UNL     1      -2.016 -29.340  55.848  1.00  0.00    -0.394 OA
ATOM     17  H   UNL     1      -2.401 -28.654  56.415  1.00  0.00     0.210 HD
ENDBRANCH  15  16
ENDBRANCH   8  15
ENDBRANCH   5   8
ENDBRANCH   3   4
ENDBRANCH   2   3
ENDBRANCH   1   2
BRANCH   1  18
ATOM     18  C   UNL     1      -2.451 -25.692  48.901  1.00  0.00     0.036 C 
BRANCH  18  19
ATOM     19  C   UNL     1      -2.096 -24.425  48.148  1.00  0.00    -0.045 A 
ATOM     20  C   UNL     1      -3.100 -23.595  47.627  1.00  0.00    -0.045 A 
ATOM     21  C   UNL     1      -0.774 -24.022  48.006  1.00  0.00     0.004 A 
ATOM     22  C   UNL     1      -2.744 -22.417  46.973  1.00  0.00     0.004 A 
ATOM     23  C   UNL     1      -0.442 -22.870  47.327  1.00  0.00     0.000 A 
ATOM     24  C   UNL     1      -1.426 -22.069  46.805  1.00  0.00     0.000 A 
BRANCH  20  25
ATOM     25  C   UNL     1      -4.571 -23.959  47.734  1.00  0.00     0.036 C 
BRANCH  25  26
ATOM     26  C   UNL     1      -5.353 -22.945  48.533  1.00  0.00     0.005 C 
BRANCH  26  27
ATOM     27  C   UNL     1      -5.887 -23.475  49.852  1.00  0.00     0.000 C 
BRANCH  27  28
ATOM     28  C   UNL     1      -4.835 -23.725  50.884  1.00  0.00    -0.000 C 
BRANCH  28  29
ATOM     29  C   UNL     1      -5.246 -24.735  51.912  1.00  0.00    -0.003 C 
ATOM     30  C   UNL     1      -5.062 -26.182  51.517  1.00  0.00     0.004 C 
ENDBRANCH  28  29
ENDBRANCH  27  28
ENDBRANCH  26  27
ENDBRANCH  25  26
ENDBRANCH  20  25
ENDBRANCH  18  19
ENDBRANCH   1  18
TORSDOF 16
ENDMDL
MODEL 6
REMARK VINA RESULT:      -7.1      3.731      5.234
REMARK SMILES CCCCCCc1ccccc1CCCCC(=O)N[C@H](CO)COP(=O)([O-])[O-]
REMARK SMILES IDX 14 1 15 2 16 3 17 4 19 5 18 6 20 8 23 9 24 10 25 11 26 12
REMARK SMILES IDX 27 13 28 14 21 15 22 16 13 18 12 19 7 20 11 21 8 22 10 23
REMARK SMILES IDX 9 24 6 25 5 26 4 27 3 28 2 29 1 30
REMARK H PARENT 19 7 22 17
REMARK INDEX MAP 18 1 9 2 19 3 10 4 1 5 20 6 29 7 21 8 11 9 24 10 25 11 26 12
REMARK INDEX MAP 27 13 28 14 22 15 23 16 60 17 8 18 17 19 5 20 16 21 6 22 7 23
REMARK INDEX MAP 15 24 4 25 3 26 2 27 14 28 13 29 12 30
ROOT
ATOM      1  C   UNL     1      -3.595 -27.198  50.651  1.00  0.00     0.005 C 
ENDROOT
BRANCH   1   2
ATOM      2  C   UNL     1      -4.379 -27.677  51.871  1.00  0.00     0.010 C 
BRANCH   2   3
ATOM      3  C   UNL     1      -5.686 -26.988  52.137  1.00  0.00     0.100 C 
BRANCH   3   4
ATOM      4  C   UNL     1      -6.803 -27.855  52.669  1.00  0.00     0.220 C 
ATOM      5  N   UNL     1      -6.698 -28.366  53.893  1.00  0.00    -0.349 N 
ATOM      6  O   UNL     1      -7.795 -28.081  51.975  1.00  0.00    -0.275 OA
ATOM      7  H   UNL     1      -5.934 -28.118  54.462  1.00  0.00     0.163 HD
BRANCH   5   8
ATOM      8  C   UNL     1      -7.703 -29.286  54.397  1.00  0.00     0.133 C 
BRANCH   8   9
ATOM      9  C   UNL     1      -6.909 -30.531  54.724  1.00  0.00     0.193 C 
BRANCH   9  10
ATOM     10  O   UNL     1      -5.669 -30.218  55.385  1.00  0.00    -0.349 OA
BRANCH  10  11
ATOM     11  P   UNL     1      -4.444 -31.187  55.026  1.00  0.00     0.060 P 
ATOM     12  O   UNL     1      -3.945 -31.627  56.396  1.00  0.00    -0.326 OA
ATOM     13  O   UNL     1      -5.031 -32.333  54.205  1.00  0.00    -0.790 OA
ATOM     14  O   UNL     1      -3.427 -30.377  54.240  1.00  0.00    -0.790 OA
ENDBRANCH  10  11
ENDBRANCH   9  10
ENDBRANCH   8   9
BRANCH   8  15
ATOM     15  C   UNL     1      -8.431 -28.718  55.607  1.00  0.00     0.183 C 
BRANCH  15  16
ATOM     16  O   UNL     1      -9.095 -29.685  56.391  1.00  0.00    -0.394 OA
ATOM     17  H   UNL     1      -8.652 -29.762  57.250  1.00  0.00     0.210 HD
ENDBRANCH  15  16
ENDBRANCH   8  15
ENDBRANCH   5   8
ENDBRANCH   3   4
ENDBRANCH   2   3
ENDBRANCH   1   2
BRANCH   1  18
ATOM     18  C   UNL     1      -2.630 -26.090  50.978  1.00  0.00     0.036 C 
BRANCH  18  19
ATOM     19  C   UNL     1      -2.067 -25.303  49.811  1.00  0.00    -0.045 A 
ATOM     20  C   UNL     1      -2.030 -23.901  49.842  1.00  0.00    -0.045 A 
ATOM     21  C   UNL     1      -1.517 -25.949  48.709  1.00  0.00     0.004 A 
ATOM     22  C   UNL     1      -1.472 -23.206  48.771  1.00  0.00     0.004 A 
ATOM     23  C   UNL     1      -0.999 -25.241  47.646  1.00  0.00     0.000 A 
ATOM     24  C   UNL     1      -0.981 -23.870  47.673  1.00  0.00     0.000 A 
BRANCH  20  25
ATOM     25  C   UNL     1      -2.610 -23.114  51.004  1.00  0.00     0.036 C 
BRANCH  25  26
ATOM     26  C   UNL     1      -3.894 -22.413  50.635  1.00  0.00     0.005 C 
BRANCH  26  27
ATOM     27  C   UNL     1      -5.137 -23.269  50.798  1.00  0.00     0.000 C 
BRANCH  27  28
ATOM     28  C   UNL     1      -5.530 -24.020  49.567  1.00  0.00    -0.000 C 
BRANCH  28  29
ATOM     29  C   UNL     1      -5.344 -23.227  48.309  1.00  0.00    -0.003 C 
ATOM     30  C   UNL     1      -4.745 -23.983  47.145  1.00  0.00     0.004 C 
ENDBRANCH  28  29
ENDBRANCH  27  28
ENDBRANCH  26  27
ENDBRANCH  25  26
ENDBRANCH  20  25
ENDBRANCH  18  19
ENDBRANCH   1  18
TORSDOF 16
ENDMDL
MODEL 7
REMARK VINA RESULT:      -6.8      2.891      4.542
REMARK SMILES CCCCCCc1ccccc1CCCCC(=O)N[C@H](CO)COP(=O)([O-])[O-]
REMARK SMILES IDX 14 1 15 2 16 3 17 4 19 5 18 6 20 8 23 9 24 10 25 11 26 12
REMARK SMILES IDX 27 13 28 14 21 15 22 16 13 18 12 19 7 20 11 21 8 22 10 23
REMARK SMILES IDX 9 24 6 25 5 26 4 27 3 28 2 29 1 30
REMARK H PARENT 19 7 22 17
REMARK INDEX MAP 18 1 9 2 19 3 10 4 1 5 20 6 29 7 21 8 11 9 24 10 25 11 26 12
REMARK INDEX MAP 27 13 28 14 22 15 23 16 60 17 8 18 17 19 5 20 16 21 6 22 7 23
REMARK INDEX MAP 15 24 4 25 3 26 2 27 14 28 13 29 12 30
ROOT
ATOM      1  C   UNL     1      -2.736 -26.415  48.708  1.00  0.00     0.005 C 
ENDROOT
BRANCH   1   2
ATOM      2  C   UNL     1      -1.631 -27.131  49.482  1.00  0.00     0.010 C 
BRANCH   2   3
ATOM      3  C   UNL     1      -2.007 -28.432  50.131  1.00  0.00     0.100 C 
BRANCH   3   4
ATOM      4  C   UNL     1      -2.527 -28.347  51.547  1.00  0.00     0.220 C 
ATOM      5  N   UNL     1      -3.607 -29.048  51.882  1.00  0.00    -0.349 N 
ATOM      6  O   UNL     1      -1.954 -27.638  52.374  1.00  0.00    -0.275 OA
ATOM      7  H   UNL     1      -4.011 -29.665  51.230  1.00  0.00     0.163 HD
BRANCH   5   8
ATOM      8  C   UNL     1      -4.194 -28.910  53.204  1.00  0.00     0.133 C 
BRANCH   8   9
ATOM      9  C   UNL     1      -5.650 -28.624  52.915  1.00  0.00     0.193 C 
BRANCH   9  10
ATOM     10  O   UNL     1      -6.177 -29.494  51.896  1.00  0.00    -0.349 OA
BRANCH  10  11
ATOM     11  P   UNL     1      -7.594 -30.161  52.236  1.00  0.00     0.060 P 
ATOM     12  O   UNL     1      -7.532 -30.342  53.747  1.00  0.00    -0.326 OA
ATOM     13  O   UNL     1      -8.656 -29.156  51.795  1.00  0.00    -0.790 OA
ATOM     14  O   UNL     1      -7.686 -31.469  51.470  1.00  0.00    -0.790 OA
ENDBRANCH  10  11
ENDBRANCH   9  10
ENDBRANCH   8   9
BRANCH   8  15
ATOM     15  C   UNL     1      -3.997 -30.166  54.041  1.00  0.00     0.183 C 
BRANCH  15  16
ATOM     16  O   UNL     1      -3.114 -30.004  55.129  1.00  0.00    -0.394 OA
ATOM     17  H   UNL     1      -2.216 -29.856  54.797  1.00  0.00     0.210 HD
ENDBRANCH  15  16
ENDBRANCH   8  15
ENDBRANCH   5   8
ENDBRANCH   3   4
ENDBRANCH   2   3
ENDBRANCH   1   2
BRANCH   1  18
ATOM     18  C   UNL     1      -2.287 -25.948  47.350  1.00  0.00     0.036 C 
BRANCH  18  19
ATOM     19  C   UNL     1      -2.059 -24.460  47.175  1.00  0.00    -0.045 A 
ATOM     20  C   UNL     1      -3.139 -23.565  47.157  1.00  0.00    -0.045 A 
ATOM     21  C   UNL     1      -0.774 -23.937  47.089  1.00  0.00     0.004 A 
ATOM     22  C   UNL     1      -2.896 -22.198  47.033  1.00  0.00     0.004 A 
ATOM     23  C   UNL     1      -0.556 -22.585  46.934  1.00  0.00     0.000 A 
ATOM     24  C   UNL     1      -1.617 -21.715  46.900  1.00  0.00     0.000 A 
BRANCH  20  25
ATOM     25  C   UNL     1      -4.577 -24.048  47.242  1.00  0.00     0.036 C 
BRANCH  25  26
ATOM     26  C   UNL     1      -5.343 -23.368  48.350  1.00  0.00     0.005 C 
BRANCH  26  27
ATOM     27  C   UNL     1      -5.290 -24.098  49.679  1.00  0.00     0.000 C 
BRANCH  27  28
ATOM     28  C   UNL     1      -4.943 -23.228  50.844  1.00  0.00    -0.000 C 
BRANCH  28  29
ATOM     29  C   UNL     1      -3.632 -22.520  50.680  1.00  0.00    -0.003 C 
ATOM     30  C   UNL     1      -2.400 -23.377  50.858  1.00  0.00     0.004 C 
ENDBRANCH  28  29
ENDBRANCH  27  28
ENDBRANCH  26  27
ENDBRANCH  25  26
ENDBRANCH  20  25
ENDBRANCH  18  19
ENDBRANCH   1  18
TORSDOF 16
ENDMDL
MODEL 8
REMARK VINA RESULT:      -6.8      2.326      3.051
REMARK SMILES CCCCCCc1ccccc1CCCCC(=O)N[C@H](CO)COP(=O)([O-])[O-]
REMARK SMILES IDX 14 1 15 2 16 3 17 4 19 5 18 6 20 8 23 9 24 10 25 11 26 12
REMARK SMILES IDX 27 13 28 14 21 15 22 16 13 18 12 19 7 20 11 21 8 22 10 23
REMARK SMILES IDX 9 24 6 25 5 26 4 27 3 28 2 29 1 30
REMARK H PARENT 19 7 22 17
REMARK INDEX MAP 18 1 9 2 19 3 10 4 1 5 20 6 29 7 21 8 11 9 24 10 25 11 26 12
REMARK INDEX MAP 27 13 28 14 22 15 23 16 60 17 8 18 17 19 5 20 16 21 6 22 7 23
REMARK INDEX MAP 15 24 4 25 3 26 2 27 14 28 13 29 12 30
ROOT
ATOM      1  C   UNL     1      -1.759 -26.468  48.528  1.00  0.00     0.005 C 
ENDROOT
BRANCH   1   2
ATOM      2  C   UNL     1      -2.829 -27.260  49.275  1.00  0.00     0.010 C 
BRANCH   2   3
ATOM      3  C   UNL     1      -2.697 -27.314  50.769  1.00  0.00     0.100 C 
BRANCH   3   4
ATOM      4  C   UNL     1      -2.825 -28.680  51.403  1.00  0.00     0.220 C 
ATOM      5  N   UNL     1      -3.876 -28.938  52.177  1.00  0.00    -0.349 N 
ATOM      6  O   UNL     1      -1.966 -29.538  51.201  1.00  0.00    -0.275 OA
ATOM      7  H   UNL     1      -4.590 -28.267  52.271  1.00  0.00     0.163 HD
BRANCH   5   8
ATOM      8  C   UNL     1      -3.978 -30.203  52.885  1.00  0.00     0.133 C 
BRANCH   8   9
ATOM      9  C   UNL     1      -3.581 -29.849  54.300  1.00  0.00     0.193 C 
BRANCH   9  10
ATOM     10  O   UNL     1      -2.159 -29.666  54.429  1.00  0.00    -0.349 OA
BRANCH  10  11
ATOM     11  P   UNL     1      -1.710 -28.327  55.185  1.00  0.00     0.060 P 
ATOM     12  O   UNL     1      -2.841 -27.358  54.864  1.00  0.00    -0.326 OA
ATOM     13  O   UNL     1      -1.626 -28.681  56.669  1.00  0.00    -0.790 OA
ATOM     14  O   UNL     1      -0.366 -27.903  54.618  1.00  0.00    -0.790 OA
ENDBRANCH  10  11
ENDBRANCH   9  10
ENDBRANCH   8   9
BRANCH   8  15
ATOM     15  C   UNL     1      -5.381 -30.786  52.796  1.00  0.00     0.183 C 
BRANCH  15  16
ATOM     16  O   UNL     1      -5.452 -32.169  53.066  1.00  0.00    -0.394 OA
ATOM     17  H   UNL     1      -5.687 -32.304  53.997  1.00  0.00     0.210 HD
ENDBRANCH  15  16
ENDBRANCH   8  15
ENDBRANCH   5   8
ENDBRANCH   3   4
ENDBRANCH   2   3
ENDBRANCH   1   2
BRANCH   1  18
ATOM     18  C   UNL     1      -2.280 -25.829  47.269  1.00  0.00     0.036 C 
BRANCH  18  19
ATOM     19  C   UNL     1      -2.023 -24.345  47.093  1.00  0.00    -0.045 A 
ATOM     20  C   UNL     1      -3.088 -23.433  47.043  1.00  0.00    -0.045 A 
ATOM     21  C   UNL     1      -0.728 -23.843  47.038  1.00  0.00     0.004 A 
ATOM     22  C   UNL     1      -2.819 -22.071  46.919  1.00  0.00     0.004 A 
ATOM     23  C   UNL     1      -0.485 -22.495  46.883  1.00  0.00     0.000 A 
ATOM     24  C   UNL     1      -1.530 -21.609  46.818  1.00  0.00     0.000 A 
BRANCH  20  25
ATOM     25  C   UNL     1      -4.535 -23.893  47.093  1.00  0.00     0.036 C 
BRANCH  25  26
ATOM     26  C   UNL     1      -4.983 -24.215  48.498  1.00  0.00     0.005 C 
BRANCH  26  27
ATOM     27  C   UNL     1      -5.227 -22.993  49.365  1.00  0.00     0.000 C 
BRANCH  27  28
ATOM     28  C   UNL     1      -4.477 -22.998  50.657  1.00  0.00    -0.000 C 
BRANCH  28  29
ATOM     29  C   UNL     1      -3.057 -22.537  50.517  1.00  0.00    -0.003 C 
ATOM     30  C   UNL     1      -2.002 -23.571  50.833  1.00  0.00     0.004 C 
ENDBRANCH  28  29
ENDBRANCH  27  28
ENDBRANCH  26  27
ENDBRANCH  25  26
ENDBRANCH  20  25
ENDBRANCH  18  19
ENDBRANCH   1  18
TORSDOF 16
ENDMDL
MODEL 9
REMARK VINA RESULT:      -6.8      4.368      5.913
REMARK SMILES CCCCCCc1ccccc1CCCCC(=O)N[C@H](CO)COP(=O)([O-])[O-]
REMARK SMILES IDX 14 1 15 2 16 3 17 4 19 5 18 6 20 8 23 9 24 10 25 11 26 12
REMARK SMILES IDX 27 13 28 14 21 15 22 16 13 18 12 19 7 20 11 21 8 22 10 23
REMARK SMILES IDX 9 24 6 25 5 26 4 27 3 28 2 29 1 30
REMARK H PARENT 19 7 22 17
REMARK INDEX MAP 18 1 9 2 19 3 10 4 1 5 20 6 29 7 21 8 11 9 24 10 25 11 26 12
REMARK INDEX MAP 27 13 28 14 22 15 23 16 60 17 8 18 17 19 5 20 16 21 6 22 7 23
REMARK INDEX MAP 15 24 4 25 3 26 2 27 14 28 13 29 12 30
ROOT
ATOM      1  C   UNL     1      -5.383 -25.104  50.672  1.00  0.00     0.005 C 
ENDROOT
BRANCH   1   2
ATOM      2  C   UNL     1      -5.325 -25.497  52.147  1.00  0.00     0.010 C 
BRANCH   2   3
ATOM      3  C   UNL     1      -5.128 -26.955  52.442  1.00  0.00     0.100 C 
BRANCH   3   4
ATOM      4  C   UNL     1      -6.374 -27.749  52.756  1.00  0.00     0.220 C 
ATOM      5  N   UNL     1      -6.422 -28.460  53.879  1.00  0.00    -0.349 N 
ATOM      6  O   UNL     1      -7.329 -27.733  51.979  1.00  0.00    -0.275 OA
ATOM      7  H   UNL     1      -5.680 -28.406  54.524  1.00  0.00     0.163 HD
BRANCH   5   8
ATOM      8  C   UNL     1      -7.562 -29.316  54.163  1.00  0.00     0.133 C 
BRANCH   8   9
ATOM      9  C   UNL     1      -6.938 -30.530  54.813  1.00  0.00     0.193 C 
BRANCH   9  10
ATOM     10  O   UNL     1      -5.617 -30.253  55.311  1.00  0.00    -0.349 OA
BRANCH  10  11
ATOM     11  P   UNL     1      -4.694 -31.541  55.547  1.00  0.00     0.060 P 
ATOM     12  O   UNL     1      -5.693 -32.599  55.997  1.00  0.00    -0.326 OA
ATOM     13  O   UNL     1      -4.051 -31.859  54.198  1.00  0.00    -0.790 OA
ATOM     14  O   UNL     1      -3.664 -31.187  56.605  1.00  0.00    -0.790 OA
ENDBRANCH  10  11
ENDBRANCH   9  10
ENDBRANCH   8   9
BRANCH   8  15
ATOM     15  C   UNL     1      -8.576 -28.623  55.061  1.00  0.00     0.183 C 
BRANCH  15  16
ATOM     16  O   UNL     1      -9.175 -27.482  54.488  1.00  0.00    -0.394 OA
ATOM     17  H   UNL     1      -8.730 -26.685  54.815  1.00  0.00     0.210 HD
ENDBRANCH  15  16
ENDBRANCH   8  15
ENDBRANCH   5   8
ENDBRANCH   3   4
ENDBRANCH   2   3
ENDBRANCH   1   2
BRANCH   1  18
ATOM     18  C   UNL     1      -5.199 -23.626  50.456  1.00  0.00     0.036 C 
BRANCH  18  19
ATOM     19  C   UNL     1      -4.502 -23.199  49.179  1.00  0.00    -0.045 A 
ATOM     20  C   UNL     1      -3.106 -23.062  49.134  1.00  0.00    -0.045 A 
ATOM     21  C   UNL     1      -5.219 -22.992  48.006  1.00  0.00     0.004 A 
ATOM     22  C   UNL     1      -2.491 -22.705  47.936  1.00  0.00     0.004 A 
ATOM     23  C   UNL     1      -4.593 -22.608  46.840  1.00  0.00     0.000 A 
ATOM     24  C   UNL     1      -3.230 -22.459  46.804  1.00  0.00     0.000 A 
BRANCH  20  25
ATOM     25  C   UNL     1      -2.245 -23.267  50.369  1.00  0.00     0.036 C 
BRANCH  25  26
ATOM     26  C   UNL     1      -1.305 -24.438  50.221  1.00  0.00     0.005 C 
BRANCH  26  27
ATOM     27  C   UNL     1       0.053 -24.228  50.866  1.00  0.00     0.000 C 
BRANCH  27  28
ATOM     28  C   UNL     1       1.192 -24.191  49.899  1.00  0.00    -0.000 C 
BRANCH  28  29
ATOM     29  C   UNL     1       2.507 -24.545  50.525  1.00  0.00    -0.003 C 
ATOM     30  C   UNL     1       2.443 -25.003  51.964  1.00  0.00     0.004 C 
ENDBRANCH  28  29
ENDBRANCH  27  28
ENDBRANCH  26  27
ENDBRANCH  25  26
ENDBRANCH  20  25
ENDBRANCH  18  19
ENDBRANCH   1  18
TORSDOF 16
ENDMDL
