MODEL 1
REMARK VINA RESULT:      -9.8      0.000      0.000
REMARK SMILES COC(=O)c1cn(C[C@H](CC2Cc3ccccc3C2)[C@H](O)c2cc(OC)c(C)c(OC)c2)cc1CC(=O)[O-]
REMARK SMILES IDX 8 1 7 2 5 3 34 4 6 5 33 6 3 7 4 8 2 9 1 10 35 11 36 12 37 13
REMARK SMILES IDX 38 14 9 15 20 16 21 17 22 19 32 20 23 21 29 22 24 23 27 24
REMARK SMILES IDX 28 25 30 26 31 27 25 28 26 29 10 30 11 31 12 32 19 33 13 34
REMARK SMILES IDX 18 35 14 36 17 37 15 38 16 39
REMARK H PARENT 21 18
REMARK INDEX MAP 14 1 13 2 5 3 6 4 12 5 11 6 2 7 1 8 3 9 4 10 7 11 8 12 9 13
REMARK INDEX MAP 10 14 15 15 16 16 17 17 50 18 18 19 19 20 20 21 26 22 21 23
REMARK INDEX MAP 24 24 25 25 27 26 28 27 22 28 23 29 29 30 30 31 31 32 38 33
REMARK INDEX MAP 32 34 37 35 33 36 36 37 34 38 35 39
ROOT
ATOM      1  C   UNL     1      -3.827 -26.512  53.406  1.00  0.00     0.128 C 
ENDROOT
BRANCH   1   2
ATOM      2  N   UNL     1      -4.412 -27.847  53.422  1.00  0.00    -0.353 N 
ATOM      3  C   UNL     1      -5.941 -29.464  53.317  1.00  0.00     0.081 A 
ATOM      4  C   UNL     1      -4.701 -30.062  53.747  1.00  0.00    -0.010 A 
ATOM      5  C   UNL     1      -5.728 -28.112  53.123  1.00  0.00     0.101 A 
ATOM      6  C   UNL     1      -3.775 -29.032  53.797  1.00  0.00     0.090 A 
BRANCH   3   7
ATOM      7  C   UNL     1      -7.232 -30.071  53.086  1.00  0.00     0.339 C 
ATOM      8  O   UNL     1      -8.138 -30.283  53.898  1.00  0.00    -0.246 OA
BRANCH   7   9
ATOM      9  O   UNL     1      -7.377 -30.377  51.742  1.00  0.00    -0.465 OA
ATOM     10  C   UNL     1      -7.003 -31.628  51.233  1.00  0.00     0.282 C 
ENDBRANCH   7   9
ENDBRANCH   3   7
BRANCH   4  11
ATOM     11  C   UNL     1      -4.407 -31.478  54.079  1.00  0.00     0.090 C 
BRANCH  11  12
ATOM     12  C   UNL     1      -4.648 -31.846  55.598  1.00  0.00     0.046 C 
ATOM     13  O   UNL     1      -5.429 -32.802  55.815  1.00  0.00    -0.550 OA
ATOM     14  O   UNL     1      -4.050 -31.185  56.490  1.00  0.00    -0.550 OA
ENDBRANCH  11  12
ENDBRANCH   4  11
ENDBRANCH   1   2
BRANCH   1  15
ATOM     15  C   UNL     1      -3.382 -25.928  52.037  1.00  0.00     0.042 C 
BRANCH  15  16
ATOM     16  C   UNL     1      -2.363 -26.862  51.236  1.00  0.00     0.149 C 
BRANCH  16  17
ATOM     17  O   UNL     1      -1.386 -27.416  52.086  1.00  0.00    -0.388 OA
ATOM     18  H   UNL     1      -1.799 -27.682  52.923  1.00  0.00     0.211 HD
ENDBRANCH  16  17
BRANCH  16  19
ATOM     19  C   UNL     1      -1.641 -26.082  50.148  1.00  0.00    -0.012 A 
ATOM     20  C   UNL     1      -0.617 -25.204  50.536  1.00  0.00     0.053 A 
ATOM     21  C   UNL     1      -1.979 -26.236  48.797  1.00  0.00     0.053 A 
ATOM     22  C   UNL     1       0.094 -24.482  49.558  1.00  0.00     0.125 A 
ATOM     23  C   UNL     1      -1.281 -25.498  47.815  1.00  0.00     0.125 A 
ATOM     24  C   UNL     1      -0.226 -24.604  48.159  1.00  0.00     0.033 A 
ATOM     25  C   UNL     1       0.519 -23.846  47.119  1.00  0.00     0.052 C 
BRANCH  22  26
ATOM     26  O   UNL     1       1.138 -23.616  49.869  1.00  0.00    -0.496 OA
ATOM     27  C   UNL     1       2.425 -24.120  50.084  1.00  0.00     0.278 C 
ENDBRANCH  22  26
BRANCH  23  28
ATOM     28  O   UNL     1      -1.595 -25.645  46.471  1.00  0.00    -0.496 OA
ATOM     29  C   UNL     1      -2.837 -26.292  46.164  1.00  0.00     0.278 C 
ENDBRANCH  23  28
ENDBRANCH  16  19
ENDBRANCH  15  16
BRANCH  15  30
ATOM     30  C   UNL     1      -4.580 -25.510  51.146  1.00  0.00     0.012 C 
BRANCH  30  31
ATOM     31  C   UNL     1      -4.978 -24.006  51.125  1.00  0.00    -0.002 C 
ATOM     32  C   UNL     1      -3.788 -23.020  50.896  1.00  0.00     0.039 C 
ATOM     33  C   UNL     1      -5.868 -23.774  49.877  1.00  0.00     0.039 C 
ATOM     34  C   UNL     1      -3.732 -22.834  49.417  1.00  0.00    -0.045 A 
ATOM     35  C   UNL     1      -4.896 -23.352  48.822  1.00  0.00    -0.045 A 
ATOM     36  C   UNL     1      -2.701 -22.307  48.639  1.00  0.00     0.004 A 
ATOM     37  C   UNL     1      -5.027 -23.391  47.425  1.00  0.00     0.004 A 
ATOM     38  C   UNL     1      -2.826 -22.323  47.231  1.00  0.00     0.000 A 
ATOM     39  C   UNL     1      -3.968 -22.862  46.630  1.00  0.00     0.000 A 
ENDBRANCH  30  31
ENDBRANCH  15  30
ENDBRANCH   1  15
TORSDOF 13
ENDMDL
MODEL 2
REMARK VINA RESULT:      -9.6      0.389      2.128
REMARK SMILES COC(=O)c1cn(C[C@H](CC2Cc3ccccc3C2)[C@H](O)c2cc(OC)c(C)c(OC)c2)cc1CC(=O)[O-]
REMARK SMILES IDX 8 1 7 2 5 3 34 4 6 5 33 6 3 7 4 8 2 9 1 10 35 11 36 12 37 13
REMARK SMILES IDX 38 14 9 15 20 16 21 17 22 19 32 20 23 21 29 22 24 23 27 24
REMARK SMILES IDX 28 25 30 26 31 27 25 28 26 29 10 30 11 31 12 32 19 33 13 34
REMARK SMILES IDX 18 35 14 36 17 37 15 38 16 39
REMARK H PARENT 21 18
REMARK INDEX MAP 14 1 13 2 5 3 6 4 12 5 11 6 2 7 1 8 3 9 4 10 7 11 8 12 9 13
REMARK INDEX MAP 10 14 15 15 16 16 17 17 50 18 18 19 19 20 20 21 26 22 21 23
REMARK INDEX MAP 24 24 25 25 27 26 28 27 22 28 23 29 29 30 30 31 31 32 38 33
REMARK INDEX MAP 32 34 37 35 33 36 36 37 34 38 35 39
ROOT
ATOM      1  C   UNL     1      -3.770 -26.465  53.416  1.00  0.00     0.128 C 
ENDROOT
BRANCH   1   2
ATOM      2  N   UNL     1      -4.392 -27.782  53.477  1.00  0.00    -0.353 N 
ATOM      3  C   UNL     1      -5.974 -29.350  53.520  1.00  0.00     0.081 A 
ATOM      4  C   UNL     1      -4.713 -29.993  53.798  1.00  0.00    -0.010 A 
ATOM      5  C   UNL     1      -5.741 -28.001  53.324  1.00  0.00     0.101 A 
ATOM      6  C   UNL     1      -3.755 -28.992  53.759  1.00  0.00     0.090 A 
BRANCH   3   7
ATOM      7  C   UNL     1      -7.302 -29.914  53.426  1.00  0.00     0.339 C 
ATOM      8  O   UNL     1      -8.172 -29.977  54.299  1.00  0.00    -0.246 OA
BRANCH   7   9
ATOM      9  O   UNL     1      -7.530 -30.374  52.139  1.00  0.00    -0.465 OA
ATOM     10  C   UNL     1      -8.821 -30.401  51.592  1.00  0.00     0.282 C 
ENDBRANCH   7   9
ENDBRANCH   3   7
BRANCH   4  11
ATOM     11  C   UNL     1      -4.429 -31.424  54.073  1.00  0.00     0.090 C 
BRANCH  11  12
ATOM     12  C   UNL     1      -4.649 -31.845  55.581  1.00  0.00     0.046 C 
ATOM     13  O   UNL     1      -5.432 -32.804  55.774  1.00  0.00    -0.550 OA
ATOM     14  O   UNL     1      -4.035 -31.219  56.487  1.00  0.00    -0.550 OA
ENDBRANCH  11  12
ENDBRANCH   4  11
ENDBRANCH   1   2
BRANCH   1  15
ATOM     15  C   UNL     1      -3.364 -25.914  52.021  1.00  0.00     0.042 C 
BRANCH  15  16
ATOM     16  C   UNL     1      -2.360 -26.863  51.220  1.00  0.00     0.149 C 
BRANCH  16  17
ATOM     17  O   UNL     1      -1.412 -27.460  52.075  1.00  0.00    -0.388 OA
ATOM     18  H   UNL     1      -1.849 -28.130  52.623  1.00  0.00     0.211 HD
ENDBRANCH  16  17
BRANCH  16  19
ATOM     19  C   UNL     1      -1.598 -26.085  50.158  1.00  0.00    -0.012 A 
ATOM     20  C   UNL     1      -1.967 -26.268  48.816  1.00  0.00     0.053 A 
ATOM     21  C   UNL     1      -0.564 -25.206  50.503  1.00  0.00     0.053 A 
ATOM     22  C   UNL     1      -1.305 -25.548  47.802  1.00  0.00     0.125 A 
ATOM     23  C   UNL     1       0.116 -24.496  49.487  1.00  0.00     0.125 A 
ATOM     24  C   UNL     1      -0.230 -24.640  48.113  1.00  0.00     0.033 A 
ATOM     25  C   UNL     1       0.475 -23.875  47.050  1.00  0.00     0.052 C 
BRANCH  22  26
ATOM     26  O   UNL     1      -1.637 -25.660  46.456  1.00  0.00    -0.496 OA
ATOM     27  C   UNL     1      -2.808 -26.323  46.077  1.00  0.00     0.278 C 
ENDBRANCH  22  26
BRANCH  23  28
ATOM     28  O   UNL     1       1.138 -23.613  49.810  1.00  0.00    -0.496 OA
ATOM     29  C   UNL     1       2.396 -24.189  50.185  1.00  0.00     0.278 C 
ENDBRANCH  23  28
ENDBRANCH  16  19
ENDBRANCH  15  16
BRANCH  15  30
ATOM     30  C   UNL     1      -4.588 -25.528  51.151  1.00  0.00     0.012 C 
BRANCH  30  31
ATOM     31  C   UNL     1      -5.012 -24.031  51.119  1.00  0.00    -0.002 C 
ATOM     32  C   UNL     1      -3.834 -23.025  50.915  1.00  0.00     0.039 C 
ATOM     33  C   UNL     1      -5.878 -23.817  49.852  1.00  0.00     0.039 C 
ATOM     34  C   UNL     1      -3.749 -22.839  49.438  1.00  0.00    -0.045 A 
ATOM     35  C   UNL     1      -4.891 -23.378  48.818  1.00  0.00    -0.045 A 
ATOM     36  C   UNL     1      -2.710 -22.294  48.682  1.00  0.00     0.004 A 
ATOM     37  C   UNL     1      -4.990 -23.420  47.418  1.00  0.00     0.004 A 
ATOM     38  C   UNL     1      -2.805 -22.314  47.271  1.00  0.00     0.000 A 
ATOM     39  C   UNL     1      -3.923 -22.873  46.647  1.00  0.00     0.000 A 
ENDBRANCH  30  31
ENDBRANCH  15  30
ENDBRANCH   1  15
TORSDOF 13
ENDMDL
MODEL 3
REMARK VINA RESULT:      -9.5      0.717      1.060
REMARK SMILES COC(=O)c1cn(C[C@H](CC2Cc3ccccc3C2)[C@H](O)c2cc(OC)c(C)c(OC)c2)cc1CC(=O)[O-]
REMARK SMILES IDX 8 1 7 2 5 3 34 4 6 5 33 6 3 7 4 8 2 9 1 10 35 11 36 12 37 13
REMARK SMILES IDX 38 14 9 15 20 16 21 17 22 19 32 20 23 21 29 22 24 23 27 24
REMARK SMILES IDX 28 25 30 26 31 27 25 28 26 29 10 30 11 31 12 32 19 33 13 34
REMARK SMILES IDX 18 35 14 36 17 37 15 38 16 39
REMARK H PARENT 21 18
REMARK INDEX MAP 14 1 13 2 5 3 6 4 12 5 11 6 2 7 1 8 3 9 4 10 7 11 8 12 9 13
REMARK INDEX MAP 10 14 15 15 16 16 17 17 50 18 18 19 19 20 20 21 26 22 21 23
REMARK INDEX MAP 24 24 25 25 27 26 28 27 22 28 23 29 29 30 30 31 31 32 38 33
REMARK INDEX MAP 32 34 37 35 33 36 36 37 34 38 35 39
ROOT
ATOM      1  C   UNL     1      -4.080 -26.599  53.266  1.00  0.00     0.128 C 
ENDROOT
BRANCH   1   2
ATOM      2  N   UNL     1      -4.814 -27.852  53.144  1.00  0.00    -0.353 N 
ATOM      3  C   UNL     1      -6.525 -29.265  52.936  1.00  0.00     0.081 A 
ATOM      4  C   UNL     1      -5.339 -30.047  53.181  1.00  0.00    -0.010 A 
ATOM      5  C   UNL     1      -6.168 -27.929  52.914  1.00  0.00     0.101 A 
ATOM      6  C   UNL     1      -4.298 -29.140  53.301  1.00  0.00     0.090 A 
BRANCH   3   7
ATOM      7  C   UNL     1      -7.890 -29.690  52.723  1.00  0.00     0.339 C 
ATOM      8  O   UNL     1      -8.587 -29.559  51.713  1.00  0.00    -0.246 OA
BRANCH   7   9
ATOM      9  O   UNL     1      -8.359 -30.352  53.847  1.00  0.00    -0.465 OA
ATOM     10  C   UNL     1      -8.677 -29.659  55.023  1.00  0.00     0.282 C 
ENDBRANCH   7   9
ENDBRANCH   3   7
BRANCH   4  11
ATOM     11  C   UNL     1      -5.192 -31.520  53.291  1.00  0.00     0.090 C 
BRANCH  11  12
ATOM     12  C   UNL     1      -5.014 -32.040  54.774  1.00  0.00     0.046 C 
ATOM     13  O   UNL     1      -4.319 -33.074  54.913  1.00  0.00    -0.550 OA
ATOM     14  O   UNL     1      -5.554 -31.400  55.716  1.00  0.00    -0.550 OA
ENDBRANCH  11  12
ENDBRANCH   4  11
ENDBRANCH   1   2
BRANCH   1  15
ATOM     15  C   UNL     1      -3.499 -25.964  51.972  1.00  0.00     0.042 C 
BRANCH  15  16
ATOM     16  C   UNL     1      -2.474 -26.910  51.193  1.00  0.00     0.149 C 
BRANCH  16  17
ATOM     17  O   UNL     1      -1.536 -27.493  52.067  1.00  0.00    -0.388 OA
ATOM     18  H   UNL     1      -1.908 -27.533  52.962  1.00  0.00     0.211 HD
ENDBRANCH  16  17
BRANCH  16  19
ATOM     19  C   UNL     1      -1.703 -26.132  50.138  1.00  0.00    -0.012 A 
ATOM     20  C   UNL     1      -0.663 -25.293  50.566  1.00  0.00     0.053 A 
ATOM     21  C   UNL     1      -2.012 -26.251  48.777  1.00  0.00     0.053 A 
ATOM     22  C   UNL     1       0.094 -24.575  49.620  1.00  0.00     0.125 A 
ATOM     23  C   UNL     1      -1.269 -25.517  47.826  1.00  0.00     0.125 A 
ATOM     24  C   UNL     1      -0.196 -24.662  48.212  1.00  0.00     0.033 A 
ATOM     25  C   UNL     1       0.597 -23.907  47.205  1.00  0.00     0.052 C 
BRANCH  22  26
ATOM     26  O   UNL     1       1.155 -23.747  49.973  1.00  0.00    -0.496 OA
ATOM     27  C   UNL     1       2.371 -24.304  50.382  1.00  0.00     0.278 C 
ENDBRANCH  22  26
BRANCH  23  28
ATOM     28  O   UNL     1      -1.554 -25.629  46.472  1.00  0.00    -0.496 OA
ATOM     29  C   UNL     1      -2.801 -26.243  46.123  1.00  0.00     0.278 C 
ENDBRANCH  23  28
ENDBRANCH  16  19
ENDBRANCH  15  16
BRANCH  15  30
ATOM     30  C   UNL     1      -4.601 -25.426  51.023  1.00  0.00     0.012 C 
BRANCH  30  31
ATOM     31  C   UNL     1      -4.900 -23.900  51.052  1.00  0.00    -0.002 C 
ATOM     32  C   UNL     1      -3.657 -22.987  50.803  1.00  0.00     0.039 C 
ATOM     33  C   UNL     1      -5.815 -23.579  49.843  1.00  0.00     0.039 C 
ATOM     34  C   UNL     1      -3.640 -22.767  49.328  1.00  0.00    -0.045 A 
ATOM     35  C   UNL     1      -4.855 -23.193  48.763  1.00  0.00    -0.045 A 
ATOM     36  C   UNL     1      -2.604 -22.287  48.526  1.00  0.00     0.004 A 
ATOM     37  C   UNL     1      -5.035 -23.187  47.371  1.00  0.00     0.004 A 
ATOM     38  C   UNL     1      -2.778 -22.259  47.124  1.00  0.00     0.000 A 
ATOM     39  C   UNL     1      -3.973 -22.707  46.552  1.00  0.00     0.000 A 
ENDBRANCH  30  31
ENDBRANCH  15  30
ENDBRANCH   1  15
TORSDOF 13
ENDMDL
MODEL 4
REMARK VINA RESULT:      -9.4      0.864      2.339
REMARK SMILES COC(=O)c1cn(C[C@H](CC2Cc3ccccc3C2)[C@H](O)c2cc(OC)c(C)c(OC)c2)cc1CC(=O)[O-]
REMARK SMILES IDX 8 1 7 2 5 3 34 4 6 5 33 6 3 7 4 8 2 9 1 10 35 11 36 12 37 13
REMARK SMILES IDX 38 14 9 15 20 16 21 17 22 19 32 20 23 21 29 22 24 23 27 24
REMARK SMILES IDX 28 25 30 26 31 27 25 28 26 29 10 30 11 31 12 32 19 33 13 34
REMARK SMILES IDX 18 35 14 36 17 37 15 38 16 39
REMARK H PARENT 21 18
REMARK INDEX MAP 14 1 13 2 5 3 6 4 12 5 11 6 2 7 1 8 3 9 4 10 7 11 8 12 9 13
REMARK INDEX MAP 10 14 15 15 16 16 17 17 50 18 18 19 19 20 20 21 26 22 21 23
REMARK INDEX MAP 24 24 25 25 27 26 28 27 22 28 23 29 29 30 30 31 31 32 38 33
REMARK INDEX MAP 32 34 37 35 33 36 36 37 34 38 35 39
ROOT
ATOM      1  C   UNL     1      -4.920 -26.920  53.100  1.00  0.00     0.128 C 
ENDROOT
BRANCH   1   2
ATOM      2  N   UNL     1      -5.159 -28.353  52.979  1.00  0.00    -0.353 N 
ATOM      3  C   UNL     1      -6.090 -30.273  52.340  1.00  0.00     0.081 A 
ATOM      4  C   UNL     1      -5.117 -30.577  53.359  1.00  0.00    -0.010 A 
ATOM      5  C   UNL     1      -6.086 -28.906  52.128  1.00  0.00     0.101 A 
ATOM      6  C   UNL     1      -4.557 -29.365  53.730  1.00  0.00     0.090 A 
BRANCH   3   7
ATOM      7  C   UNL     1      -6.961 -31.155  51.595  1.00  0.00     0.339 C 
ATOM      8  O   UNL     1      -6.701 -32.260  51.110  1.00  0.00    -0.246 OA
BRANCH   7   9
ATOM      9  O   UNL     1      -8.231 -30.606  51.511  1.00  0.00    -0.465 OA
ATOM     10  C   UNL     1      -9.145 -30.716  52.569  1.00  0.00     0.282 C 
ENDBRANCH   7   9
ENDBRANCH   3   7
BRANCH   4  11
ATOM     11  C   UNL     1      -4.742 -31.892  53.936  1.00  0.00     0.090 C 
BRANCH  11  12
ATOM     12  C   UNL     1      -4.764 -31.932  55.516  1.00  0.00     0.046 C 
ATOM     13  O   UNL     1      -5.743 -32.516  56.037  1.00  0.00    -0.550 OA
ATOM     14  O   UNL     1      -3.817 -31.399  56.155  1.00  0.00    -0.550 OA
ENDBRANCH  11  12
ENDBRANCH   4  11
ENDBRANCH   1   2
BRANCH   1  15
ATOM     15  C   UNL     1      -4.089 -26.223  51.987  1.00  0.00     0.042 C 
BRANCH  15  16
ATOM     16  C   UNL     1      -3.009 -27.175  51.295  1.00  0.00     0.149 C 
BRANCH  16  17
ATOM     17  O   UNL     1      -2.245 -27.877  52.249  1.00  0.00    -0.388 OA
ATOM     18  H   UNL     1      -2.757 -27.970  53.068  1.00  0.00     0.211 HD
ENDBRANCH  16  17
BRANCH  16  19
ATOM     19  C   UNL     1      -2.047 -26.376  50.429  1.00  0.00    -0.012 A 
ATOM     20  C   UNL     1      -2.184 -26.468  49.035  1.00  0.00     0.053 A 
ATOM     21  C   UNL     1      -1.056 -25.567  51.000  1.00  0.00     0.053 A 
ATOM     22  C   UNL     1      -1.330 -25.725  48.197  1.00  0.00     0.125 A 
ATOM     23  C   UNL     1      -0.185 -24.836  50.161  1.00  0.00     0.125 A 
ATOM     24  C   UNL     1      -0.293 -24.887  48.742  1.00  0.00     0.033 A 
ATOM     25  C   UNL     1       0.613 -24.099  47.864  1.00  0.00     0.052 C 
BRANCH  22  26
ATOM     26  O   UNL     1      -1.428 -25.747  46.809  1.00  0.00    -0.496 OA
ATOM     27  C   UNL     1      -2.644 -26.071  46.198  1.00  0.00     0.278 C 
ENDBRANCH  22  26
BRANCH  23  28
ATOM     28  O   UNL     1       0.797 -24.021  50.708  1.00  0.00    -0.496 OA
ATOM     29  C   UNL     1       1.527 -24.548  51.824  1.00  0.00     0.278 C 
ENDBRANCH  23  28
ENDBRANCH  16  19
ENDBRANCH  15  16
BRANCH  15  30
ATOM     30  C   UNL     1      -4.977 -25.518  50.930  1.00  0.00     0.012 C 
BRANCH  30  31
ATOM     31  C   UNL     1      -5.144 -23.975  51.035  1.00  0.00    -0.002 C 
ATOM     32  C   UNL     1      -3.815 -23.165  50.898  1.00  0.00     0.039 C 
ATOM     33  C   UNL     1      -5.965 -23.508  49.806  1.00  0.00     0.039 C 
ATOM     34  C   UNL     1      -3.704 -22.867  49.441  1.00  0.00    -0.045 A 
ATOM     35  C   UNL     1      -4.921 -23.151  48.797  1.00  0.00    -0.045 A 
ATOM     36  C   UNL     1      -2.590 -22.439  48.717  1.00  0.00     0.004 A 
ATOM     37  C   UNL     1      -5.029 -23.052  47.401  1.00  0.00     0.004 A 
ATOM     38  C   UNL     1      -2.690 -22.318  47.313  1.00  0.00     0.000 A 
ATOM     39  C   UNL     1      -3.888 -22.626  46.661  1.00  0.00     0.000 A 
ENDBRANCH  30  31
ENDBRANCH  15  30
ENDBRANCH   1  15
TORSDOF 13
ENDMDL
MODEL 5
REMARK VINA RESULT:      -9.3      1.040      2.280
REMARK SMILES COC(=O)c1cn(C[C@H](CC2Cc3ccccc3C2)[C@H](O)c2cc(OC)c(C)c(OC)c2)cc1CC(=O)[O-]
REMARK SMILES IDX 8 1 7 2 5 3 34 4 6 5 33 6 3 7 4 8 2 9 1 10 35 11 36 12 37 13
REMARK SMILES IDX 38 14 9 15 20 16 21 17 22 19 32 20 23 21 29 22 24 23 27 24
REMARK SMILES IDX 28 25 30 26 31 27 25 28 26 29 10 30 11 31 12 32 19 33 13 34
REMARK SMILES IDX 18 35 14 36 17 37 15 38 16 39
REMARK H PARENT 21 18
REMARK INDEX MAP 14 1 13 2 5 3 6 4 12 5 11 6 2 7 1 8 3 9 4 10 7 11 8 12 9 13
REMARK INDEX MAP 10 14 15 15 16 16 17 17 50 18 18 19 19 20 20 21 26 22 21 23
REMARK INDEX MAP 24 24 25 25 27 26 28 27 22 28 23 29 29 30 30 31 31 32 38 33
REMARK INDEX MAP 32 34 37 35 33 36 36 37 34 38 35 39
ROOT
ATOM      1  C   UNL     1      -4.175 -26.606  53.114  1.00  0.00     0.128 C 
ENDROOT
BRANCH   1   2
ATOM      2  N   UNL     1      -5.141 -27.680  52.920  1.00  0.00    -0.353 N 
ATOM      3  C   UNL     1      -5.965 -29.734  52.668  1.00  0.00     0.081 A 
ATOM      4  C   UNL     1      -7.036 -28.800  52.421  1.00  0.00    -0.010 A 
ATOM      5  C   UNL     1      -4.824 -29.017  52.975  1.00  0.00     0.101 A 
ATOM      6  C   UNL     1      -6.490 -27.538  52.590  1.00  0.00     0.090 A 
BRANCH   3   7
ATOM      7  C   UNL     1      -5.970 -31.180  52.640  1.00  0.00     0.339 C 
ATOM      8  O   UNL     1      -6.349 -31.929  51.736  1.00  0.00    -0.246 OA
BRANCH   7   9
ATOM      9  O   UNL     1      -5.420 -31.677  53.811  1.00  0.00    -0.465 OA
ATOM     10  C   UNL     1      -4.530 -32.760  53.798  1.00  0.00     0.282 C 
ENDBRANCH   7   9
ENDBRANCH   3   7
BRANCH   4  11
ATOM     11  C   UNL     1      -8.450 -29.068  52.060  1.00  0.00     0.090 C 
BRANCH  11  12
ATOM     12  C   UNL     1      -9.288 -29.760  53.210  1.00  0.00     0.046 C 
ATOM     13  O   UNL     1      -9.504 -29.062  54.228  1.00  0.00    -0.550 OA
ATOM     14  O   UNL     1      -9.694 -30.943  53.044  1.00  0.00    -0.550 OA
ENDBRANCH  11  12
ENDBRANCH   4  11
ENDBRANCH   1   2
BRANCH   1  15
ATOM     15  C   UNL     1      -3.535 -25.964  51.852  1.00  0.00     0.042 C 
BRANCH  15  16
ATOM     16  C   UNL     1      -2.514 -26.923  51.085  1.00  0.00     0.149 C 
BRANCH  16  17
ATOM     17  O   UNL     1      -1.582 -27.504  51.968  1.00  0.00    -0.388 OA
ATOM     18  H   UNL     1      -1.115 -26.805  52.452  1.00  0.00     0.211 HD
ENDBRANCH  16  17
BRANCH  16  19
ATOM     19  C   UNL     1      -1.733 -26.160  50.026  1.00  0.00    -0.012 A 
ATOM     20  C   UNL     1      -0.634 -25.393  50.441  1.00  0.00     0.053 A 
ATOM     21  C   UNL     1      -2.092 -26.224  48.673  1.00  0.00     0.053 A 
ATOM     22  C   UNL     1       0.131 -24.692  49.489  1.00  0.00     0.125 A 
ATOM     23  C   UNL     1      -1.339 -25.505  47.717  1.00  0.00     0.125 A 
ATOM     24  C   UNL     1      -0.208 -24.723  48.089  1.00  0.00     0.033 A 
ATOM     25  C   UNL     1       0.594 -23.986  47.076  1.00  0.00     0.052 C 
BRANCH  22  26
ATOM     26  O   UNL     1       1.248 -23.935  49.827  1.00  0.00    -0.496 OA
ATOM     27  C   UNL     1       1.999 -24.262  50.962  1.00  0.00     0.278 C 
ENDBRANCH  22  26
BRANCH  23  28
ATOM     28  O   UNL     1      -1.674 -25.564  46.371  1.00  0.00    -0.496 OA
ATOM     29  C   UNL     1      -2.820 -26.350  46.023  1.00  0.00     0.278 C 
ENDBRANCH  23  28
ENDBRANCH  16  19
ENDBRANCH  15  16
BRANCH  15  30
ATOM     30  C   UNL     1      -4.591 -25.375  50.880  1.00  0.00     0.012 C 
BRANCH  30  31
ATOM     31  C   UNL     1      -4.853 -23.843  50.935  1.00  0.00    -0.002 C 
ATOM     32  C   UNL     1      -3.589 -22.957  50.689  1.00  0.00     0.039 C 
ATOM     33  C   UNL     1      -5.771 -23.481  49.740  1.00  0.00     0.039 C 
ATOM     34  C   UNL     1      -3.580 -22.714  49.217  1.00  0.00    -0.045 A 
ATOM     35  C   UNL     1      -4.811 -23.102  48.658  1.00  0.00    -0.045 A 
ATOM     36  C   UNL     1      -2.540 -22.247  48.413  1.00  0.00     0.004 A 
ATOM     37  C   UNL     1      -5.004 -23.069  47.268  1.00  0.00     0.004 A 
ATOM     38  C   UNL     1      -2.727 -22.192  47.013  1.00  0.00     0.000 A 
ATOM     39  C   UNL     1      -3.937 -22.603  46.446  1.00  0.00     0.000 A 
ENDBRANCH  30  31
ENDBRANCH  15  30
ENDBRANCH   1  15
TORSDOF 13
ENDMDL
MODEL 6
REMARK VINA RESULT:      -9.1      1.443      2.933
REMARK SMILES COC(=O)c1cn(C[C@H](CC2Cc3ccccc3C2)[C@H](O)c2cc(OC)c(C)c(OC)c2)cc1CC(=O)[O-]
REMARK SMILES IDX 8 1 7 2 5 3 34 4 6 5 33 6 3 7 4 8 2 9 1 10 35 11 36 12 37 13
REMARK SMILES IDX 38 14 9 15 20 16 21 17 22 19 32 20 23 21 29 22 24 23 27 24
REMARK SMILES IDX 28 25 30 26 31 27 25 28 26 29 10 30 11 31 12 32 19 33 13 34
REMARK SMILES IDX 18 35 14 36 17 37 15 38 16 39
REMARK H PARENT 21 18
REMARK INDEX MAP 14 1 13 2 5 3 6 4 12 5 11 6 2 7 1 8 3 9 4 10 7 11 8 12 9 13
REMARK INDEX MAP 10 14 15 15 16 16 17 17 50 18 18 19 19 20 20 21 26 22 21 23
REMARK INDEX MAP 24 24 25 25 27 26 28 27 22 28 23 29 29 30 30 31 31 32 38 33
REMARK INDEX MAP 32 34 37 35 33 36 36 37 34 38 35 39
ROOT
ATOM      1  C   UNL     1      -2.343 -28.980  51.712  1.00  0.00     0.128 C 
ENDROOT
BRANCH   1   2
ATOM      2  N   UNL     1      -3.509 -29.654  52.269  1.00  0.00    -0.353 N 
ATOM      3  C   UNL     1      -5.541 -30.559  52.397  1.00  0.00     0.081 A 
ATOM      4  C   UNL     1      -4.990 -30.531  53.730  1.00  0.00    -0.010 A 
ATOM      5  C   UNL     1      -4.608 -30.021  51.529  1.00  0.00     0.101 A 
ATOM      6  C   UNL     1      -3.729 -29.967  53.612  1.00  0.00     0.090 A 
BRANCH   3   7
ATOM      7  C   UNL     1      -6.819 -31.049  51.932  1.00  0.00     0.339 C 
ATOM      8  O   UNL     1      -7.051 -32.018  51.204  1.00  0.00    -0.246 OA
BRANCH   7   9
ATOM      9  O   UNL     1      -7.842 -30.281  52.465  1.00  0.00    -0.465 OA
ATOM     10  C   UNL     1      -9.013 -30.019  51.740  1.00  0.00     0.282 C 
ENDBRANCH   7   9
ENDBRANCH   3   7
BRANCH   4  11
ATOM     11  C   UNL     1      -5.592 -30.995  55.004  1.00  0.00     0.090 C 
BRANCH  11  12
ATOM     12  C   UNL     1      -4.617 -31.861  55.899  1.00  0.00     0.046 C 
ATOM     13  O   UNL     1      -4.156 -31.292  56.916  1.00  0.00    -0.550 OA
ATOM     14  O   UNL     1      -4.369 -33.050  55.560  1.00  0.00    -0.550 OA
ENDBRANCH  11  12
ENDBRANCH   4  11
ENDBRANCH   1   2
BRANCH   1  15
ATOM     15  C   UNL     1      -2.568 -27.654  50.935  1.00  0.00     0.042 C 
BRANCH  15  16
ATOM     16  C   UNL     1      -2.209 -27.747  49.381  1.00  0.00     0.149 C 
BRANCH  16  17
ATOM     17  O   UNL     1      -1.113 -28.601  49.150  1.00  0.00    -0.388 OA
ATOM     18  H   UNL     1      -0.368 -28.329  49.708  1.00  0.00     0.211 HD
ENDBRANCH  16  17
BRANCH  16  19
ATOM     19  C   UNL     1      -1.858 -26.379  48.816  1.00  0.00    -0.012 A 
ATOM     20  C   UNL     1      -2.802 -25.744  47.993  1.00  0.00     0.053 A 
ATOM     21  C   UNL     1      -0.634 -25.765  49.108  1.00  0.00     0.053 A 
ATOM     22  C   UNL     1      -2.527 -24.466  47.469  1.00  0.00     0.125 A 
ATOM     23  C   UNL     1      -0.347 -24.491  48.567  1.00  0.00     0.125 A 
ATOM     24  C   UNL     1      -1.278 -23.802  47.738  1.00  0.00     0.033 A 
ATOM     25  C   UNL     1      -0.979 -22.452  47.189  1.00  0.00     0.052 C 
BRANCH  22  26
ATOM     26  O   UNL     1      -3.428 -23.768  46.671  1.00  0.00    -0.496 OA
ATOM     27  C   UNL     1      -4.752 -24.204  46.562  1.00  0.00     0.278 C 
ENDBRANCH  22  26
BRANCH  23  28
ATOM     28  O   UNL     1       0.857 -23.862  48.854  1.00  0.00    -0.496 OA
ATOM     29  C   UNL     1       1.357 -24.000  50.190  1.00  0.00     0.278 C 
ENDBRANCH  23  28
ENDBRANCH  16  19
ENDBRANCH  15  16
BRANCH  15  30
ATOM     30  C   UNL     1      -3.988 -27.068  51.150  1.00  0.00     0.012 C 
BRANCH  30  31
ATOM     31  C   UNL     1      -4.164 -25.979  52.247  1.00  0.00    -0.002 C 
ATOM     32  C   UNL     1      -3.061 -24.873  52.251  1.00  0.00     0.039 C 
ATOM     33  C   UNL     1      -5.453 -25.185  51.916  1.00  0.00     0.039 C 
ATOM     34  C   UNL     1      -3.598 -23.801  51.364  1.00  0.00    -0.045 A 
ATOM     35  C   UNL     1      -4.960 -24.033  51.099  1.00  0.00    -0.045 A 
ATOM     36  C   UNL     1      -2.923 -22.732  50.775  1.00  0.00     0.004 A 
ATOM     37  C   UNL     1      -5.660 -23.217  50.197  1.00  0.00     0.004 A 
ATOM     38  C   UNL     1      -3.621 -21.891  49.878  1.00  0.00     0.000 A 
ATOM     39  C   UNL     1      -4.967 -22.131  49.587  1.00  0.00     0.000 A 
ENDBRANCH  30  31
ENDBRANCH  15  30
ENDBRANCH   1  15
TORSDOF 13
ENDMDL
MODEL 7
REMARK VINA RESULT:      -9.1      1.463      2.165
REMARK SMILES COC(=O)c1cn(C[C@H](CC2Cc3ccccc3C2)[C@H](O)c2cc(OC)c(C)c(OC)c2)cc1CC(=O)[O-]
REMARK SMILES IDX 8 1 7 2 5 3 34 4 6 5 33 6 3 7 4 8 2 9 1 10 35 11 36 12 37 13
REMARK SMILES IDX 38 14 9 15 20 16 21 17 22 19 32 20 23 21 29 22 24 23 27 24
REMARK SMILES IDX 28 25 30 26 31 27 25 28 26 29 10 30 11 31 12 32 19 33 13 34
REMARK SMILES IDX 18 35 14 36 17 37 15 38 16 39
REMARK H PARENT 21 18
REMARK INDEX MAP 14 1 13 2 5 3 6 4 12 5 11 6 2 7 1 8 3 9 4 10 7 11 8 12 9 13
REMARK INDEX MAP 10 14 15 15 16 16 17 17 50 18 18 19 19 20 20 21 26 22 21 23
REMARK INDEX MAP 24 24 25 25 27 26 28 27 22 28 23 29 29 30 30 31 31 32 38 33
REMARK INDEX MAP 32 34 37 35 33 36 36 37 34 38 35 39
ROOT
ATOM      1  C   UNL     1      -2.380 -29.001  51.660  1.00  0.00     0.128 C 
ENDROOT
BRANCH   1   2
ATOM      2  N   UNL     1      -3.558 -29.661  52.208  1.00  0.00    -0.353 N 
ATOM      3  C   UNL     1      -5.613 -30.512  52.333  1.00  0.00     0.081 A 
ATOM      4  C   UNL     1      -5.043 -30.550  53.657  1.00  0.00    -0.010 A 
ATOM      5  C   UNL     1      -4.677 -29.968  51.472  1.00  0.00     0.101 A 
ATOM      6  C   UNL     1      -3.768 -30.019  53.541  1.00  0.00     0.090 A 
BRANCH   3   7
ATOM      7  C   UNL     1      -6.912 -30.946  51.869  1.00  0.00     0.339 C 
ATOM      8  O   UNL     1      -7.203 -31.980  51.261  1.00  0.00    -0.246 OA
BRANCH   7   9
ATOM      9  O   UNL     1      -7.880 -30.029  52.245  1.00  0.00    -0.465 OA
ATOM     10  C   UNL     1      -9.112 -30.441  52.771  1.00  0.00     0.282 C 
ENDBRANCH   7   9
ENDBRANCH   3   7
BRANCH   4  11
ATOM     11  C   UNL     1      -5.641 -31.045  54.922  1.00  0.00     0.090 C 
BRANCH  11  12
ATOM     12  C   UNL     1      -4.639 -31.865  55.830  1.00  0.00     0.046 C 
ATOM     13  O   UNL     1      -4.182 -31.259  56.828  1.00  0.00    -0.550 OA
ATOM     14  O   UNL     1      -4.365 -33.056  55.519  1.00  0.00    -0.550 OA
ENDBRANCH  11  12
ENDBRANCH   4  11
ENDBRANCH   1   2
BRANCH   1  15
ATOM     15  C   UNL     1      -2.584 -27.669  50.886  1.00  0.00     0.042 C 
BRANCH  15  16
ATOM     16  C   UNL     1      -2.214 -27.759  49.335  1.00  0.00     0.149 C 
BRANCH  16  17
ATOM     17  O   UNL     1      -1.093 -28.584  49.114  1.00  0.00    -0.388 OA
ATOM     18  H   UNL     1      -0.345 -28.261  49.641  1.00  0.00     0.211 HD
ENDBRANCH  16  17
BRANCH  16  19
ATOM     19  C   UNL     1      -1.897 -26.385  48.765  1.00  0.00    -0.012 A 
ATOM     20  C   UNL     1      -0.607 -25.870  48.963  1.00  0.00     0.053 A 
ATOM     21  C   UNL     1      -2.859 -25.654  48.056  1.00  0.00     0.053 A 
ATOM     22  C   UNL     1      -0.264 -24.613  48.430  1.00  0.00     0.125 A 
ATOM     23  C   UNL     1      -2.525 -24.383  47.536  1.00  0.00     0.125 A 
ATOM     24  C   UNL     1      -1.225 -23.824  47.701  1.00  0.00     0.033 A 
ATOM     25  C   UNL     1      -0.872 -22.495  47.134  1.00  0.00     0.052 C 
BRANCH  22  26
ATOM     26  O   UNL     1       1.003 -24.055  48.565  1.00  0.00    -0.496 OA
ATOM     27  C   UNL     1       1.533 -23.820  49.838  1.00  0.00     0.278 C 
ENDBRANCH  22  26
BRANCH  23  28
ATOM     28  O   UNL     1      -3.461 -23.647  46.822  1.00  0.00    -0.496 OA
ATOM     29  C   UNL     1      -4.707 -24.295  46.532  1.00  0.00     0.278 C 
ENDBRANCH  23  28
ENDBRANCH  16  19
ENDBRANCH  15  16
BRANCH  15  30
ATOM     30  C   UNL     1      -3.999 -27.069  51.092  1.00  0.00     0.012 C 
BRANCH  30  31
ATOM     31  C   UNL     1      -4.176 -25.996  52.206  1.00  0.00    -0.002 C 
ATOM     32  C   UNL     1      -3.069 -24.895  52.232  1.00  0.00     0.039 C 
ATOM     33  C   UNL     1      -5.461 -25.192  51.881  1.00  0.00     0.039 C 
ATOM     34  C   UNL     1      -3.599 -23.807  51.359  1.00  0.00    -0.045 A 
ATOM     35  C   UNL     1      -4.960 -24.030  51.085  1.00  0.00    -0.045 A 
ATOM     36  C   UNL     1      -2.917 -22.731  50.790  1.00  0.00     0.004 A 
ATOM     37  C   UNL     1      -5.653 -23.196  50.193  1.00  0.00     0.004 A 
ATOM     38  C   UNL     1      -3.608 -21.873  49.904  1.00  0.00     0.000 A 
ATOM     39  C   UNL     1      -4.954 -22.104  49.603  1.00  0.00     0.000 A 
ENDBRANCH  30  31
ENDBRANCH  15  30
ENDBRANCH   1  15
TORSDOF 13
ENDMDL
MODEL 8
REMARK VINA RESULT:      -9.0      0.856      2.238
REMARK SMILES COC(=O)c1cn(C[C@H](CC2Cc3ccccc3C2)[C@H](O)c2cc(OC)c(C)c(OC)c2)cc1CC(=O)[O-]
REMARK SMILES IDX 8 1 7 2 5 3 34 4 6 5 33 6 3 7 4 8 2 9 1 10 35 11 36 12 37 13
REMARK SMILES IDX 38 14 9 15 20 16 21 17 22 19 32 20 23 21 29 22 24 23 27 24
REMARK SMILES IDX 28 25 30 26 31 27 25 28 26 29 10 30 11 31 12 32 19 33 13 34
REMARK SMILES IDX 18 35 14 36 17 37 15 38 16 39
REMARK H PARENT 21 18
REMARK INDEX MAP 14 1 13 2 5 3 6 4 12 5 11 6 2 7 1 8 3 9 4 10 7 11 8 12 9 13
REMARK INDEX MAP 10 14 15 15 16 16 17 17 50 18 18 19 19 20 20 21 26 22 21 23
REMARK INDEX MAP 24 24 25 25 27 26 28 27 22 28 23 29 29 30 30 31 31 32 38 33
REMARK INDEX MAP 32 34 37 35 33 36 36 37 34 38 35 39
ROOT
ATOM      1  C   UNL     1      -4.103 -26.641  53.261  1.00  0.00     0.128 C 
ENDROOT
BRANCH   1   2
ATOM      2  N   UNL     1      -4.827 -27.903  53.182  1.00  0.00    -0.353 N 
ATOM      3  C   UNL     1      -5.421 -30.006  53.614  1.00  0.00     0.081 A 
ATOM      4  C   UNL     1      -6.162 -29.572  52.456  1.00  0.00    -0.010 A 
ATOM      5  C   UNL     1      -4.620 -28.961  54.036  1.00  0.00     0.101 A 
ATOM      6  C   UNL     1      -5.772 -28.263  52.219  1.00  0.00     0.090 A 
BRANCH   3   7
ATOM      7  C   UNL     1      -5.440 -31.276  54.305  1.00  0.00     0.339 C 
ATOM      8  O   UNL     1      -5.697 -31.500  55.492  1.00  0.00    -0.246 OA
BRANCH   7   9
ATOM      9  O   UNL     1      -5.161 -32.303  53.417  1.00  0.00    -0.465 OA
ATOM     10  C   UNL     1      -4.268 -33.331  53.748  1.00  0.00     0.282 C 
ENDBRANCH   7   9
ENDBRANCH   3   7
BRANCH   4  11
ATOM     11  C   UNL     1      -7.154 -30.318  51.642  1.00  0.00     0.090 C 
BRANCH  11  12
ATOM     12  C   UNL     1      -8.654 -30.093  52.089  1.00  0.00     0.046 C 
ATOM     13  O   UNL     1      -8.903 -30.308  53.299  1.00  0.00    -0.550 OA
ATOM     14  O   UNL     1      -9.497 -29.710  51.234  1.00  0.00    -0.550 OA
ENDBRANCH  11  12
ENDBRANCH   4  11
ENDBRANCH   1   2
BRANCH   1  15
ATOM     15  C   UNL     1      -3.568 -26.023  51.940  1.00  0.00     0.042 C 
BRANCH  15  16
ATOM     16  C   UNL     1      -2.564 -26.974  51.141  1.00  0.00     0.149 C 
BRANCH  16  17
ATOM     17  O   UNL     1      -1.646 -27.605  52.004  1.00  0.00    -0.388 OA
ATOM     18  H   UNL     1      -2.117 -27.955  52.777  1.00  0.00     0.211 HD
ENDBRANCH  16  17
BRANCH  16  19
ATOM     19  C   UNL     1      -1.766 -26.190  50.111  1.00  0.00    -0.012 A 
ATOM     20  C   UNL     1      -0.725 -25.369  50.569  1.00  0.00     0.053 A 
ATOM     21  C   UNL     1      -2.054 -26.285  48.743  1.00  0.00     0.053 A 
ATOM     22  C   UNL     1       0.056 -24.645  49.646  1.00  0.00     0.125 A 
ATOM     23  C   UNL     1      -1.286 -25.545  47.815  1.00  0.00     0.125 A 
ATOM     24  C   UNL     1      -0.211 -24.708  48.232  1.00  0.00     0.033 A 
ATOM     25  C   UNL     1       0.607 -23.948  47.250  1.00  0.00     0.052 C 
BRANCH  22  26
ATOM     26  O   UNL     1       1.120 -23.835  50.028  1.00  0.00    -0.496 OA
ATOM     27  C   UNL     1       2.337 -24.410  50.409  1.00  0.00     0.278 C 
ENDBRANCH  22  26
BRANCH  23  28
ATOM     28  O   UNL     1      -1.550 -25.635  46.456  1.00  0.00    -0.496 OA
ATOM     29  C   UNL     1      -2.768 -26.288  46.075  1.00  0.00     0.278 C 
ENDBRANCH  23  28
ENDBRANCH  16  19
ENDBRANCH  15  16
BRANCH  15  30
ATOM     30  C   UNL     1      -4.704 -25.505  51.020  1.00  0.00     0.012 C 
BRANCH  30  31
ATOM     31  C   UNL     1      -5.025 -23.982  51.050  1.00  0.00    -0.002 C 
ATOM     32  C   UNL     1      -3.783 -23.051  50.873  1.00  0.00     0.039 C 
ATOM     33  C   UNL     1      -5.884 -23.660  49.802  1.00  0.00     0.039 C 
ATOM     34  C   UNL     1      -3.697 -22.813  49.403  1.00  0.00    -0.045 A 
ATOM     35  C   UNL     1      -4.878 -23.249  48.775  1.00  0.00    -0.045 A 
ATOM     36  C   UNL     1      -2.630 -22.311  48.658  1.00  0.00     0.004 A 
ATOM     37  C   UNL     1      -4.990 -23.228  47.376  1.00  0.00     0.004 A 
ATOM     38  C   UNL     1      -2.736 -22.268  47.249  1.00  0.00     0.000 A 
ATOM     39  C   UNL     1      -3.895 -22.725  46.615  1.00  0.00     0.000 A 
ENDBRANCH  30  31
ENDBRANCH  15  30
ENDBRANCH   1  15
TORSDOF 13
ENDMDL
MODEL 9
REMARK VINA RESULT:      -9.0      0.926      2.487
REMARK SMILES COC(=O)c1cn(C[C@H](CC2Cc3ccccc3C2)[C@H](O)c2cc(OC)c(C)c(OC)c2)cc1CC(=O)[O-]
REMARK SMILES IDX 8 1 7 2 5 3 34 4 6 5 33 6 3 7 4 8 2 9 1 10 35 11 36 12 37 13
REMARK SMILES IDX 38 14 9 15 20 16 21 17 22 19 32 20 23 21 29 22 24 23 27 24
REMARK SMILES IDX 28 25 30 26 31 27 25 28 26 29 10 30 11 31 12 32 19 33 13 34
REMARK SMILES IDX 18 35 14 36 17 37 15 38 16 39
REMARK H PARENT 21 18
REMARK INDEX MAP 14 1 13 2 5 3 6 4 12 5 11 6 2 7 1 8 3 9 4 10 7 11 8 12 9 13
REMARK INDEX MAP 10 14 15 15 16 16 17 17 50 18 18 19 19 20 20 21 26 22 21 23
REMARK INDEX MAP 24 24 25 25 27 26 28 27 22 28 23 29 29 30 30 31 31 32 38 33
REMARK INDEX MAP 32 34 37 35 33 36 36 37 34 38 35 39
ROOT
ATOM      1  C   UNL     1      -3.893 -26.671  53.313  1.00  0.00     0.128 C 
ENDROOT
BRANCH   1   2
ATOM      2  N   UNL     1      -4.737 -27.858  53.262  1.00  0.00    -0.353 N 
ATOM      3  C   UNL     1      -6.501 -29.187  53.557  1.00  0.00     0.081 A 
ATOM      4  C   UNL     1      -5.428 -29.995  53.033  1.00  0.00    -0.010 A 
ATOM      5  C   UNL     1      -6.047 -27.886  53.680  1.00  0.00     0.101 A 
ATOM      6  C   UNL     1      -4.352 -29.138  52.858  1.00  0.00     0.090 A 
BRANCH   3   7
ATOM      7  C   UNL     1      -7.852 -29.558  53.916  1.00  0.00     0.339 C 
ATOM      8  O   UNL     1      -8.810 -29.777  53.170  1.00  0.00    -0.246 OA
BRANCH   7   9
ATOM      9  O   UNL     1      -7.956 -29.694  55.291  1.00  0.00    -0.465 OA
ATOM     10  C   UNL     1      -9.054 -29.180  55.995  1.00  0.00     0.282 C 
ENDBRANCH   7   9
ENDBRANCH   3   7
BRANCH   4  11
ATOM     11  C   UNL     1      -5.412 -31.445  52.719  1.00  0.00     0.090 C 
BRANCH  11  12
ATOM     12  C   UNL     1      -4.886 -32.354  53.901  1.00  0.00     0.046 C 
ATOM     13  O   UNL     1      -4.384 -33.453  53.568  1.00  0.00    -0.550 OA
ATOM     14  O   UNL     1      -4.984 -31.934  55.086  1.00  0.00    -0.550 OA
ENDBRANCH  11  12
ENDBRANCH   4  11
ENDBRANCH   1   2
BRANCH   1  15
ATOM     15  C   UNL     1      -3.423 -26.052  51.967  1.00  0.00     0.042 C 
BRANCH  15  16
ATOM     16  C   UNL     1      -2.392 -26.967  51.161  1.00  0.00     0.149 C 
BRANCH  16  17
ATOM     17  O   UNL     1      -1.451 -27.572  52.018  1.00  0.00    -0.388 OA
ATOM     18  H   UNL     1      -1.149 -28.407  51.627  1.00  0.00     0.211 HD
ENDBRANCH  16  17
BRANCH  16  19
ATOM     19  C   UNL     1      -1.623 -26.153  50.131  1.00  0.00    -0.012 A 
ATOM     20  C   UNL     1      -1.980 -26.293  48.781  1.00  0.00     0.053 A 
ATOM     21  C   UNL     1      -0.593 -25.284  50.514  1.00  0.00     0.053 A 
ATOM     22  C   UNL     1      -1.311 -25.538  47.798  1.00  0.00     0.125 A 
ATOM     23  C   UNL     1       0.094 -24.540  49.528  1.00  0.00     0.125 A 
ATOM     24  C   UNL     1      -0.241 -24.639  48.147  1.00  0.00     0.033 A 
ATOM     25  C   UNL     1       0.472 -23.838  47.115  1.00  0.00     0.052 C 
BRANCH  22  26
ATOM     26  O   UNL     1      -1.631 -25.607  46.446  1.00  0.00    -0.496 OA
ATOM     27  C   UNL     1      -2.757 -26.324  46.028  1.00  0.00     0.278 C 
ENDBRANCH  22  26
BRANCH  23  28
ATOM     28  O   UNL     1       1.110 -23.666  49.889  1.00  0.00    -0.496 OA
ATOM     29  C   UNL     1       2.338 -24.254  50.339  1.00  0.00     0.278 C 
ENDBRANCH  23  28
ENDBRANCH  16  19
ENDBRANCH  15  16
BRANCH  15  30
ATOM     30  C   UNL     1      -4.605 -25.609  51.067  1.00  0.00     0.012 C 
BRANCH  30  31
ATOM     31  C   UNL     1      -5.014 -24.108  51.092  1.00  0.00    -0.002 C 
ATOM     32  C   UNL     1      -3.828 -23.107  50.909  1.00  0.00     0.039 C 
ATOM     33  C   UNL     1      -5.892 -23.840  49.844  1.00  0.00     0.039 C 
ATOM     34  C   UNL     1      -3.758 -22.871  49.437  1.00  0.00    -0.045 A 
ATOM     35  C   UNL     1      -4.913 -23.377  48.813  1.00  0.00    -0.045 A 
ATOM     36  C   UNL     1      -2.723 -22.311  48.688  1.00  0.00     0.004 A 
ATOM     37  C   UNL     1      -5.029 -23.369  47.414  1.00  0.00     0.004 A 
ATOM     38  C   UNL     1      -2.834 -22.281  47.279  1.00  0.00     0.000 A 
ATOM     39  C   UNL     1      -3.966 -22.807  46.649  1.00  0.00     0.000 A 
ENDBRANCH  30  31
ENDBRANCH  15  30
ENDBRANCH   1  15
TORSDOF 13
ENDMDL
