MODEL 1
REMARK VINA RESULT:      -7.2      0.000      0.000
REMARK SMILES O=C(CCCN1CCC(O)(c2ccc(Cl)cc2)CC1)c1ccc(F)cc1
REMARK SMILES IDX 4 1 3 2 2 3 1 4 20 5 21 6 26 7 22 8 25 9 23 10 24 11 5 12
REMARK SMILES IDX 6 13 7 14 19 15 8 16 18 17 9 18 10 19 11 21 12 22 17 23
REMARK SMILES IDX 13 24 16 25 14 26 15 27
REMARK H PARENT 10 20
ROOT
ATOM      1  C   UNL     1      15.839   0.810 -12.079  1.00  0.00     0.024 C 
ENDROOT
BRANCH   1   2
ATOM      2  C   UNL     1      14.426   1.219 -12.416  1.00  0.00     0.082 C 
BRANCH   2   3
ATOM      3  C   UNL     1      14.184   2.675 -12.296  1.00  0.00     0.162 C 
ATOM      4  O   UNL     1      13.382   3.255 -13.069  1.00  0.00    -0.294 OA
BRANCH   3   5
ATOM      5  C   UNL     1      14.857   3.490 -11.288  1.00  0.00     0.018 A 
ATOM      6  C   UNL     1      15.941   4.280 -11.664  1.00  0.00     0.015 A 
ATOM      7  C   UNL     1      14.445   3.488  -9.995  1.00  0.00     0.015 A 
ATOM      8  C   UNL     1      16.564   5.043 -10.701  1.00  0.00     0.040 A 
ATOM      9  C   UNL     1      15.089   4.262  -9.048  1.00  0.00     0.040 A 
ATOM     10  C   UNL     1      16.165   5.061  -9.375  1.00  0.00     0.123 A 
ATOM     11  F   UNL     1      16.807   5.826  -8.456  1.00  0.00    -0.207 F 
ENDBRANCH   3   5
ENDBRANCH   2   3
ENDBRANCH   1   2
BRANCH   1  12
ATOM     12  C   UNL     1      16.776   0.745 -13.208  1.00  0.00     0.085 C 
BRANCH  12  13
ATOM     13  N   UNL     1      17.918  -0.054 -13.057  1.00  0.00    -0.303 NA
ATOM     14  C   UNL     1      18.558  -0.464 -14.248  1.00  0.00     0.088 C 
ATOM     15  C   UNL     1      17.983  -0.993 -12.013  1.00  0.00     0.088 C 
ATOM     16  C   UNL     1      19.657  -1.459 -13.945  1.00  0.00     0.056 C 
ATOM     17  C   UNL     1      19.427  -1.098 -11.529  1.00  0.00     0.056 C 
ATOM     18  C   UNL     1      20.362  -0.974 -12.693  1.00  0.00     0.092 C 
BRANCH  18  19
ATOM     19  O   UNL     1      20.551   0.418 -12.915  1.00  0.00    -0.385 OA
ATOM     20  H   UNL     1      21.079   0.731 -12.143  1.00  0.00     0.211 HD
ENDBRANCH  18  19
BRANCH  18  21
ATOM     21  C   UNL     1      21.674  -1.638 -12.507  1.00  0.00    -0.016 A 
ATOM     22  C   UNL     1      22.341  -1.500 -11.283  1.00  0.00     0.008 A 
ATOM     23  C   UNL     1      22.311  -2.388 -13.461  1.00  0.00     0.008 A 
ATOM     24  C   UNL     1      23.566  -2.084 -11.044  1.00  0.00     0.021 A 
ATOM     25  C   UNL     1      23.557  -2.982 -13.220  1.00  0.00     0.021 A 
ATOM     26  C   UNL     1      24.195  -2.835 -12.011  1.00  0.00     0.041 A 
ATOM     27  Cl  UNL     1      25.768  -3.585 -11.704  1.00  0.00    -0.084 Cl
ENDBRANCH  18  21
ENDBRANCH  12  13
ENDBRANCH   1  12
TORSDOF 7
ENDMDL
MODEL 2
REMARK VINA RESULT:      -7.1      2.779      3.946
REMARK SMILES O=C(CCCN1CCC(O)(c2ccc(Cl)cc2)CC1)c1ccc(F)cc1
REMARK SMILES IDX 4 1 3 2 2 3 1 4 20 5 21 6 26 7 22 8 25 9 23 10 24 11 5 12
REMARK SMILES IDX 6 13 7 14 19 15 8 16 18 17 9 18 10 19 11 21 12 22 17 23
REMARK SMILES IDX 13 24 16 25 14 26 15 27
REMARK H PARENT 10 20
ROOT
ATOM      1  C   UNL     1      18.427  -0.511 -12.115  1.00  0.00     0.024 C 
ENDROOT
BRANCH   1   2
ATOM      2  C   UNL     1      17.278  -1.194 -11.418  1.00  0.00     0.082 C 
BRANCH   2   3
ATOM      3  C   UNL     1      16.059  -1.310 -12.253  1.00  0.00     0.162 C 
ATOM      4  O   UNL     1      15.680  -2.429 -12.677  1.00  0.00    -0.294 OA
BRANCH   3   5
ATOM      5  C   UNL     1      15.257  -0.144 -12.615  1.00  0.00     0.018 A 
ATOM      6  C   UNL     1      14.551  -0.150 -13.815  1.00  0.00     0.015 A 
ATOM      7  C   UNL     1      15.190   0.941 -11.802  1.00  0.00     0.015 A 
ATOM      8  C   UNL     1      13.798   0.958 -14.141  1.00  0.00     0.040 A 
ATOM      9  C   UNL     1      14.429   2.039 -12.154  1.00  0.00     0.040 A 
ATOM     10  C   UNL     1      13.712   2.078 -13.331  1.00  0.00     0.123 A 
ATOM     11  F   UNL     1      12.961   3.149 -13.689  1.00  0.00    -0.207 F 
ENDBRANCH   3   5
ENDBRANCH   2   3
ENDBRANCH   1   2
BRANCH   1  12
ATOM     12  C   UNL     1      19.130  -1.309 -13.129  1.00  0.00     0.085 C 
BRANCH  12  13
ATOM     13  N   UNL     1      20.449  -1.693 -12.850  1.00  0.00    -0.303 NA
ATOM     14  C   UNL     1      21.074  -2.526 -13.806  1.00  0.00     0.088 C 
ATOM     15  C   UNL     1      20.842  -1.940 -11.523  1.00  0.00     0.088 C 
ATOM     16  C   UNL     1      22.415  -3.006 -13.296  1.00  0.00     0.056 C 
ATOM     17  C   UNL     1      22.298  -1.517 -11.350  1.00  0.00     0.056 C 
ATOM     18  C   UNL     1      23.069  -1.832 -12.594  1.00  0.00     0.092 C 
BRANCH  18  19
ATOM     19  O   UNL     1      22.871  -0.739 -13.482  1.00  0.00    -0.385 OA
ATOM     20  H   UNL     1      22.063  -0.281 -13.148  1.00  0.00     0.211 HD
ENDBRANCH  18  19
BRANCH  18  21
ATOM     21  C   UNL     1      24.520  -2.054 -12.384  1.00  0.00    -0.016 A 
ATOM     22  C   UNL     1      24.943  -2.795 -11.273  1.00  0.00     0.008 A 
ATOM     23  C   UNL     1      25.509  -1.575 -13.203  1.00  0.00     0.008 A 
ATOM     24  C   UNL     1      26.275  -3.033 -11.014  1.00  0.00     0.021 A 
ATOM     25  C   UNL     1      26.864  -1.816 -12.940  1.00  0.00     0.021 A 
ATOM     26  C   UNL     1      27.259  -2.546 -11.845  1.00  0.00     0.041 A 
ATOM     27  Cl  UNL     1      28.969  -2.852 -11.512  1.00  0.00    -0.084 Cl
ENDBRANCH  18  21
ENDBRANCH  12  13
ENDBRANCH   1  12
TORSDOF 7
ENDMDL
MODEL 3
REMARK VINA RESULT:      -7.1      4.872      7.462
REMARK SMILES O=C(CCCN1CCC(O)(c2ccc(Cl)cc2)CC1)c1ccc(F)cc1
REMARK SMILES IDX 4 1 3 2 2 3 1 4 20 5 21 6 26 7 22 8 25 9 23 10 24 11 5 12
REMARK SMILES IDX 6 13 7 14 19 15 8 16 18 17 9 18 10 19 11 21 12 22 17 23
REMARK SMILES IDX 13 24 16 25 14 26 15 27
REMARK H PARENT 10 20
ROOT
ATOM      1  C   UNL     1      15.426   3.960  -9.599  1.00  0.00     0.024 C 
ENDROOT
BRANCH   1   2
ATOM      2  C   UNL     1      14.174   3.456 -10.274  1.00  0.00     0.082 C 
BRANCH   2   3
ATOM      3  C   UNL     1      14.390   3.007 -11.669  1.00  0.00     0.162 C 
ATOM      4  O   UNL     1      13.737   3.517 -12.612  1.00  0.00    -0.294 OA
BRANCH   3   5
ATOM      5  C   UNL     1      15.359   1.965 -12.004  1.00  0.00     0.018 A 
ATOM      6  C   UNL     1      16.494   2.302 -12.736  1.00  0.00     0.015 A 
ATOM      7  C   UNL     1      15.169   0.680 -11.614  1.00  0.00     0.015 A 
ATOM      8  C   UNL     1      17.398   1.308 -13.043  1.00  0.00     0.040 A 
ATOM      9  C   UNL     1      16.090  -0.298 -11.937  1.00  0.00     0.040 A 
ATOM     10  C   UNL     1      17.229  -0.011 -12.659  1.00  0.00     0.123 A 
ATOM     11  F   UNL     1      18.142  -0.961 -12.983  1.00  0.00    -0.207 F 
ENDBRANCH   3   5
ENDBRANCH   2   3
ENDBRANCH   1   2
BRANCH   1  12
ATOM     12  C   UNL     1      15.734   5.382  -9.797  1.00  0.00     0.085 C 
BRANCH  12  13
ATOM     13  N   UNL     1      17.053   5.718 -10.135  1.00  0.00    -0.303 NA
ATOM     14  C   UNL     1      17.405   5.578 -11.497  1.00  0.00     0.088 C 
ATOM     15  C   UNL     1      18.099   5.443  -9.237  1.00  0.00     0.088 C 
ATOM     16  C   UNL     1      18.890   5.797 -11.687  1.00  0.00     0.056 C 
ATOM     17  C   UNL     1      19.159   6.534  -9.362  1.00  0.00     0.056 C 
ATOM     18  C   UNL     1      19.285   6.957 -10.793  1.00  0.00     0.092 C 
BRANCH  18  19
ATOM     19  O   UNL     1      18.274   7.932 -11.018  1.00  0.00    -0.385 OA
ATOM     20  H   UNL     1      17.482   7.596 -10.536  1.00  0.00     0.211 HD
ENDBRANCH  18  19
BRANCH  18  21
ATOM     21  C   UNL     1      20.610   7.510 -11.161  1.00  0.00    -0.016 A 
ATOM     22  C   UNL     1      21.450   7.998 -10.152  1.00  0.00     0.008 A 
ATOM     23  C   UNL     1      21.092   7.594 -12.442  1.00  0.00     0.008 A 
ATOM     24  C   UNL     1      22.691   8.532 -10.423  1.00  0.00     0.021 A 
ATOM     25  C   UNL     1      22.353   8.138 -12.719  1.00  0.00     0.021 A 
ATOM     26  C   UNL     1      23.163   8.611 -11.714  1.00  0.00     0.041 A 
ATOM     27  Cl  UNL     1      24.757   9.296 -12.063  1.00  0.00    -0.084 Cl
ENDBRANCH  18  21
ENDBRANCH  12  13
ENDBRANCH   1  12
TORSDOF 7
ENDMDL
MODEL 4
REMARK VINA RESULT:      -7.0      1.906      2.894
REMARK SMILES O=C(CCCN1CCC(O)(c2ccc(Cl)cc2)CC1)c1ccc(F)cc1
REMARK SMILES IDX 4 1 3 2 2 3 1 4 20 5 21 6 26 7 22 8 25 9 23 10 24 11 5 12
REMARK SMILES IDX 6 13 7 14 19 15 8 16 18 17 9 18 10 19 11 21 12 22 17 23
REMARK SMILES IDX 13 24 16 25 14 26 15 27
REMARK H PARENT 10 20
ROOT
ATOM      1  C   UNL     1      13.754   2.864 -13.339  1.00  0.00     0.024 C 
ENDROOT
BRANCH   1   2
ATOM      2  C   UNL     1      14.977   3.599 -12.847  1.00  0.00     0.082 C 
BRANCH   2   3
ATOM      3  C   UNL     1      15.157   3.536 -11.378  1.00  0.00     0.162 C 
ATOM      4  O   UNL     1      14.502   2.716 -10.688  1.00  0.00    -0.294 OA
BRANCH   3   5
ATOM      5  C   UNL     1      16.091   4.413 -10.676  1.00  0.00     0.018 A 
ATOM      6  C   UNL     1      15.811   4.797  -9.367  1.00  0.00     0.015 A 
ATOM      7  C   UNL     1      17.222   4.859 -11.278  1.00  0.00     0.015 A 
ATOM      8  C   UNL     1      16.703   5.624  -8.719  1.00  0.00     0.040 A 
ATOM      9  C   UNL     1      18.099   5.689 -10.606  1.00  0.00     0.040 A 
ATOM     10  C   UNL     1      17.864   6.093  -9.309  1.00  0.00     0.123 A 
ATOM     11  F   UNL     1      18.716   6.908  -8.637  1.00  0.00    -0.207 F 
ENDBRANCH   3   5
ENDBRANCH   2   3
ENDBRANCH   1   2
BRANCH   1  12
ATOM     12  C   UNL     1      13.999   1.568 -13.984  1.00  0.00     0.085 C 
BRANCH  12  13
ATOM     13  N   UNL     1      15.200   0.911 -13.681  1.00  0.00    -0.303 NA
ATOM     14  C   UNL     1      16.150   0.830 -14.724  1.00  0.00     0.088 C 
ATOM     15  C   UNL     1      15.193  -0.198 -12.817  1.00  0.00     0.088 C 
ATOM     16  C   UNL     1      17.310  -0.054 -14.318  1.00  0.00     0.056 C 
ATOM     17  C   UNL     1      16.489  -0.208 -12.011  1.00  0.00     0.056 C 
ATOM     18  C   UNL     1      17.623   0.263 -12.869  1.00  0.00     0.092 C 
BRANCH  18  19
ATOM     19  O   UNL     1      17.612   1.684 -12.811  1.00  0.00    -0.385 OA
ATOM     20  H   UNL     1      17.738   1.903 -11.857  1.00  0.00     0.211 HD
ENDBRANCH  18  19
BRANCH  18  21
ATOM     21  C   UNL     1      18.956  -0.248 -12.468  1.00  0.00    -0.016 A 
ATOM     22  C   UNL     1      19.063  -1.052 -11.325  1.00  0.00     0.008 A 
ATOM     23  C   UNL     1      20.124   0.014 -13.135  1.00  0.00     0.008 A 
ATOM     24  C   UNL     1      20.271  -1.554 -10.892  1.00  0.00     0.021 A 
ATOM     25  C   UNL     1      21.353  -0.496 -12.695  1.00  0.00     0.021 A 
ATOM     26  C   UNL     1      21.437  -1.283 -11.571  1.00  0.00     0.041 A 
ATOM     27  Cl  UNL     1      22.988  -1.929 -11.015  1.00  0.00    -0.084 Cl
ENDBRANCH  18  21
ENDBRANCH  12  13
ENDBRANCH   1  12
TORSDOF 7
ENDMDL
MODEL 5
REMARK VINA RESULT:      -7.0      1.565      2.317
REMARK SMILES O=C(CCCN1CCC(O)(c2ccc(Cl)cc2)CC1)c1ccc(F)cc1
REMARK SMILES IDX 4 1 3 2 2 3 1 4 20 5 21 6 26 7 22 8 25 9 23 10 24 11 5 12
REMARK SMILES IDX 6 13 7 14 19 15 8 16 18 17 9 18 10 19 11 21 12 22 17 23
REMARK SMILES IDX 13 24 16 25 14 26 15 27
REMARK H PARENT 10 20
ROOT
ATOM      1  C   UNL     1      14.158   1.919 -13.195  1.00  0.00     0.024 C 
ENDROOT
BRANCH   1   2
ATOM      2  C   UNL     1      14.930   2.463 -12.019  1.00  0.00     0.082 C 
BRANCH   2   3
ATOM      3  C   UNL     1      15.564   3.776 -12.279  1.00  0.00     0.162 C 
ATOM      4  O   UNL     1      15.435   4.337 -13.395  1.00  0.00    -0.294 OA
BRANCH   3   5
ATOM      5  C   UNL     1      16.357   4.466 -11.264  1.00  0.00     0.018 A 
ATOM      6  C   UNL     1      17.674   4.815 -11.551  1.00  0.00     0.015 A 
ATOM      7  C   UNL     1      15.831   4.771 -10.051  1.00  0.00     0.015 A 
ATOM      8  C   UNL     1      18.408   5.467 -10.583  1.00  0.00     0.040 A 
ATOM      9  C   UNL     1      16.589   5.424  -9.098  1.00  0.00     0.040 A 
ATOM     10  C   UNL     1      17.896   5.789  -9.337  1.00  0.00     0.123 A 
ATOM     11  F   UNL     1      18.653   6.431  -8.411  1.00  0.00    -0.207 F 
ENDBRANCH   3   5
ENDBRANCH   2   3
ENDBRANCH   1   2
BRANCH   1  12
ATOM     12  C   UNL     1      14.402   0.510 -13.528  1.00  0.00     0.085 C 
BRANCH  12  13
ATOM     13  N   UNL     1      15.691   0.005 -13.302  1.00  0.00    -0.303 NA
ATOM     14  C   UNL     1      16.610   0.135 -14.368  1.00  0.00     0.088 C 
ATOM     15  C   UNL     1      15.863  -1.155 -12.528  1.00  0.00     0.088 C 
ATOM     16  C   UNL     1      17.892  -0.606 -14.056  1.00  0.00     0.056 C 
ATOM     17  C   UNL     1      17.172  -1.044 -11.752  1.00  0.00     0.056 C 
ATOM     18  C   UNL     1      18.204  -0.358 -12.593  1.00  0.00     0.092 C 
BRANCH  18  19
ATOM     19  O   UNL     1      18.000   1.040 -12.424  1.00  0.00    -0.385 OA
ATOM     20  H   UNL     1      17.753   1.150 -11.476  1.00  0.00     0.211 HD
ENDBRANCH  18  19
BRANCH  18  21
ATOM     21  C   UNL     1      19.606  -0.707 -12.262  1.00  0.00    -0.016 A 
ATOM     22  C   UNL     1      20.142  -1.908 -12.742  1.00  0.00     0.008 A 
ATOM     23  C   UNL     1      20.441   0.065 -11.497  1.00  0.00     0.008 A 
ATOM     24  C   UNL     1      21.434  -2.297 -12.467  1.00  0.00     0.021 A 
ATOM     25  C   UNL     1      21.756  -0.330 -11.215  1.00  0.00     0.021 A 
ATOM     26  C   UNL     1      22.263  -1.513 -11.696  1.00  0.00     0.041 A 
ATOM     27  Cl  UNL     1      23.923  -2.013 -11.343  1.00  0.00    -0.084 Cl
ENDBRANCH  18  21
ENDBRANCH  12  13
ENDBRANCH   1  12
TORSDOF 7
ENDMDL
MODEL 6
REMARK VINA RESULT:      -6.9      4.960      6.884
REMARK SMILES O=C(CCCN1CCC(O)(c2ccc(Cl)cc2)CC1)c1ccc(F)cc1
REMARK SMILES IDX 4 1 3 2 2 3 1 4 20 5 21 6 26 7 22 8 25 9 23 10 24 11 5 12
REMARK SMILES IDX 6 13 7 14 19 15 8 16 18 17 9 18 10 19 11 21 12 22 17 23
REMARK SMILES IDX 13 24 16 25 14 26 15 27
REMARK H PARENT 10 20
ROOT
ATOM      1  C   UNL     1      14.923   4.432  -9.888  1.00  0.00     0.024 C 
ENDROOT
BRANCH   1   2
ATOM      2  C   UNL     1      14.739   2.952 -10.110  1.00  0.00     0.082 C 
BRANCH   2   3
ATOM      3  C   UNL     1      14.451   2.593 -11.518  1.00  0.00     0.162 C 
ATOM      4  O   UNL     1      13.667   3.290 -12.208  1.00  0.00    -0.294 OA
BRANCH   3   5
ATOM      5  C   UNL     1      15.058   1.429 -12.159  1.00  0.00     0.018 A 
ATOM      6  C   UNL     1      15.279   1.446 -13.534  1.00  0.00     0.015 A 
ATOM      7  C   UNL     1      15.409   0.335 -11.437  1.00  0.00     0.015 A 
ATOM      8  C   UNL     1      15.854   0.340 -14.122  1.00  0.00     0.040 A 
ATOM      9  C   UNL     1      15.983  -0.762 -12.052  1.00  0.00     0.040 A 
ATOM     10  C   UNL     1      16.221  -0.789 -13.409  1.00  0.00     0.123 A 
ATOM     11  F   UNL     1      16.783  -1.859 -14.027  1.00  0.00    -0.207 F 
ENDBRANCH   3   5
ENDBRANCH   2   3
ENDBRANCH   1   2
BRANCH   1  12
ATOM     12  C   UNL     1      16.016   4.815  -8.985  1.00  0.00     0.085 C 
BRANCH  12  13
ATOM     13  N   UNL     1      17.200   5.292  -9.566  1.00  0.00    -0.303 NA
ATOM     14  C   UNL     1      18.007   6.120  -8.754  1.00  0.00     0.088 C 
ATOM     15  C   UNL     1      17.227   5.619 -10.933  1.00  0.00     0.088 C 
ATOM     16  C   UNL     1      19.148   6.703  -9.559  1.00  0.00     0.056 C 
ATOM     17  C   UNL     1      18.609   5.294 -11.493  1.00  0.00     0.056 C 
ATOM     18  C   UNL     1      19.657   5.603 -10.469  1.00  0.00     0.092 C 
BRANCH  18  19
ATOM     19  O   UNL     1      19.746   4.462  -9.624  1.00  0.00    -0.385 OA
ATOM     20  H   UNL     1      18.948   3.923  -9.836  1.00  0.00     0.211 HD
ENDBRANCH  18  19
BRANCH  18  21
ATOM     21  C   UNL     1      20.993   5.923 -11.027  1.00  0.00    -0.016 A 
ATOM     22  C   UNL     1      21.739   6.963 -10.457  1.00  0.00     0.008 A 
ATOM     23  C   UNL     1      21.571   5.274 -12.086  1.00  0.00     0.008 A 
ATOM     24  C   UNL     1      22.984   7.317 -10.930  1.00  0.00     0.021 A 
ATOM     25  C   UNL     1      22.837   5.634 -12.568  1.00  0.00     0.021 A 
ATOM     26  C   UNL     1      23.553   6.658 -11.995  1.00  0.00     0.041 A 
ATOM     27  Cl  UNL     1      25.152   7.113 -12.602  1.00  0.00    -0.084 Cl
ENDBRANCH  18  21
ENDBRANCH  12  13
ENDBRANCH   1  12
TORSDOF 7
ENDMDL
MODEL 7
REMARK VINA RESULT:      -6.9      2.745      3.824
REMARK SMILES O=C(CCCN1CCC(O)(c2ccc(Cl)cc2)CC1)c1ccc(F)cc1
REMARK SMILES IDX 4 1 3 2 2 3 1 4 20 5 21 6 26 7 22 8 25 9 23 10 24 11 5 12
REMARK SMILES IDX 6 13 7 14 19 15 8 16 18 17 9 18 10 19 11 21 12 22 17 23
REMARK SMILES IDX 13 24 16 25 14 26 15 27
REMARK H PARENT 10 20
ROOT
ATOM      1  C   UNL     1      16.454   4.335 -13.501  1.00  0.00     0.024 C 
ENDROOT
BRANCH   1   2
ATOM      2  C   UNL     1      15.242   3.987 -14.329  1.00  0.00     0.082 C 
BRANCH   2   3
ATOM      3  C   UNL     1      14.291   3.083 -13.642  1.00  0.00     0.162 C 
ATOM      4  O   UNL     1      13.125   3.466 -13.377  1.00  0.00    -0.294 OA
BRANCH   3   5
ATOM      5  C   UNL     1      14.662   1.726 -13.248  1.00  0.00     0.018 A 
ATOM      6  C   UNL     1      15.068   1.485 -11.938  1.00  0.00     0.015 A 
ATOM      7  C   UNL     1      14.617   0.701 -14.136  1.00  0.00     0.015 A 
ATOM      8  C   UNL     1      15.413   0.200 -11.582  1.00  0.00     0.040 A 
ATOM      9  C   UNL     1      14.970  -0.579 -13.753  1.00  0.00     0.040 A 
ATOM     10  C   UNL     1      15.377  -0.865 -12.468  1.00  0.00     0.123 A 
ATOM     11  F   UNL     1      15.727  -2.117 -12.078  1.00  0.00    -0.207 F 
ENDBRANCH   3   5
ENDBRANCH   2   3
ENDBRANCH   1   2
BRANCH   1  12
ATOM     12  C   UNL     1      17.757   4.050 -14.116  1.00  0.00     0.085 C 
BRANCH  12  13
ATOM     13  N   UNL     1      18.571   3.093 -13.494  1.00  0.00    -0.303 NA
ATOM     14  C   UNL     1      18.172   1.745 -13.634  1.00  0.00     0.088 C 
ATOM     15  C   UNL     1      19.187   3.389 -12.266  1.00  0.00     0.088 C 
ATOM     16  C   UNL     1      19.029   0.844 -12.771  1.00  0.00     0.056 C 
ATOM     17  C   UNL     1      20.544   2.691 -12.211  1.00  0.00     0.056 C 
ATOM     18  C   UNL     1      20.453   1.353 -12.877  1.00  0.00     0.092 C 
BRANCH  18  19
ATOM     19  O   UNL     1      20.641   1.580 -14.269  1.00  0.00    -0.385 OA
ATOM     20  H   UNL     1      21.502   2.057 -14.337  1.00  0.00     0.211 HD
ENDBRANCH  18  19
BRANCH  18  21
ATOM     21  C   UNL     1      21.434   0.352 -12.393  1.00  0.00    -0.016 A 
ATOM     22  C   UNL     1      22.780   0.485 -12.755  1.00  0.00     0.008 A 
ATOM     23  C   UNL     1      21.123  -0.726 -11.605  1.00  0.00     0.008 A 
ATOM     24  C   UNL     1      23.743  -0.412 -12.347  1.00  0.00     0.021 A 
ATOM     25  C   UNL     1      22.101  -1.639 -11.190  1.00  0.00     0.021 A 
ATOM     26  C   UNL     1      23.417  -1.491 -11.556  1.00  0.00     0.041 A 
ATOM     27  Cl  UNL     1      24.654  -2.643 -11.031  1.00  0.00    -0.084 Cl
ENDBRANCH  18  21
ENDBRANCH  12  13
ENDBRANCH   1  12
TORSDOF 7
ENDMDL
MODEL 8
REMARK VINA RESULT:      -6.9      4.260      6.788
REMARK SMILES O=C(CCCN1CCC(O)(c2ccc(Cl)cc2)CC1)c1ccc(F)cc1
REMARK SMILES IDX 4 1 3 2 2 3 1 4 20 5 21 6 26 7 22 8 25 9 23 10 24 11 5 12
REMARK SMILES IDX 6 13 7 14 19 15 8 16 18 17 9 18 10 19 11 21 12 22 17 23
REMARK SMILES IDX 13 24 16 25 14 26 15 27
REMARK H PARENT 10 20
ROOT
ATOM      1  C   UNL     1      14.927   2.742 -10.817  1.00  0.00     0.024 C 
ENDROOT
BRANCH   1   2
ATOM      2  C   UNL     1      14.069   2.548 -12.042  1.00  0.00     0.082 C 
BRANCH   2   3
ATOM      3  C   UNL     1      14.477   1.396 -12.878  1.00  0.00     0.162 C 
ATOM      4  O   UNL     1      13.789   1.051 -13.870  1.00  0.00    -0.294 OA
BRANCH   3   5
ATOM      5  C   UNL     1      15.681   0.621 -12.590  1.00  0.00     0.018 A 
ATOM      6  C   UNL     1      15.572  -0.559 -11.858  1.00  0.00     0.015 A 
ATOM      7  C   UNL     1      16.900   1.031 -13.024  1.00  0.00     0.015 A 
ATOM      8  C   UNL     1      16.717  -1.279 -11.596  1.00  0.00     0.040 A 
ATOM      9  C   UNL     1      18.033   0.290 -12.746  1.00  0.00     0.040 A 
ATOM     10  C   UNL     1      17.973  -0.884 -12.026  1.00  0.00     0.123 A 
ATOM     11  F   UNL     1      19.077  -1.621 -11.745  1.00  0.00    -0.207 F 
ENDBRANCH   3   5
ENDBRANCH   2   3
ENDBRANCH   1   2
BRANCH   1  12
ATOM     12  C   UNL     1      15.162   4.134 -10.410  1.00  0.00     0.085 C 
BRANCH  12  13
ATOM     13  N   UNL     1      16.402   4.703 -10.735  1.00  0.00    -0.303 NA
ATOM     14  C   UNL     1      16.666   5.980 -10.190  1.00  0.00     0.088 C 
ATOM     15  C   UNL     1      16.958   4.491 -12.009  1.00  0.00     0.088 C 
ATOM     16  C   UNL     1      17.947   6.547 -10.763  1.00  0.00     0.056 C 
ATOM     17  C   UNL     1      18.477   4.428 -11.882  1.00  0.00     0.056 C 
ATOM     18  C   UNL     1      18.940   5.404 -10.844  1.00  0.00     0.092 C 
BRANCH  18  19
ATOM     19  O   UNL     1      18.821   4.747  -9.588  1.00  0.00    -0.385 OA
ATOM     20  H   UNL     1      18.672   5.469  -8.934  1.00  0.00     0.211 HD
ENDBRANCH  18  19
BRANCH  18  21
ATOM     21  C   UNL     1      20.328   5.892 -11.028  1.00  0.00    -0.016 A 
ATOM     22  C   UNL     1      20.803   6.923 -10.208  1.00  0.00     0.008 A 
ATOM     23  C   UNL     1      21.206   5.412 -11.964  1.00  0.00     0.008 A 
ATOM     24  C   UNL     1      22.079   7.429 -10.329  1.00  0.00     0.021 A 
ATOM     25  C   UNL     1      22.503   5.926 -12.089  1.00  0.00     0.021 A 
ATOM     26  C   UNL     1      22.951   6.938 -11.274  1.00  0.00     0.041 A 
ATOM     27  Cl  UNL     1      24.589   7.587 -11.429  1.00  0.00    -0.084 Cl
ENDBRANCH  18  21
ENDBRANCH  12  13
ENDBRANCH   1  12
TORSDOF 7
ENDMDL
MODEL 9
REMARK VINA RESULT:      -6.9      5.826      7.372
REMARK SMILES O=C(CCCN1CCC(O)(c2ccc(Cl)cc2)CC1)c1ccc(F)cc1
REMARK SMILES IDX 4 1 3 2 2 3 1 4 20 5 21 6 26 7 22 8 25 9 23 10 24 11 5 12
REMARK SMILES IDX 6 13 7 14 19 15 8 16 18 17 9 18 10 19 11 21 12 22 17 23
REMARK SMILES IDX 13 24 16 25 14 26 15 27
REMARK H PARENT 10 20
ROOT
ATOM      1  C   UNL     1      15.294   4.795  -8.368  1.00  0.00     0.024 C 
ENDROOT
BRANCH   1   2
ATOM      2  C   UNL     1      15.171   3.463  -9.065  1.00  0.00     0.082 C 
BRANCH   2   3
ATOM      3  C   UNL     1      14.155   3.448 -10.143  1.00  0.00     0.162 C 
ATOM      4  O   UNL     1      13.091   4.105 -10.027  1.00  0.00    -0.294 OA
BRANCH   3   5
ATOM      5  C   UNL     1      14.342   2.680 -11.371  1.00  0.00     0.018 A 
ATOM      6  C   UNL     1      13.796   3.155 -12.561  1.00  0.00     0.015 A 
ATOM      7  C   UNL     1      15.038   1.515 -11.370  1.00  0.00     0.015 A 
ATOM      8  C   UNL     1      13.983   2.418 -13.711  1.00  0.00     0.040 A 
ATOM      9  C   UNL     1      15.210   0.795 -12.537  1.00  0.00     0.040 A 
ATOM     10  C   UNL     1      14.688   1.226 -13.738  1.00  0.00     0.123 A 
ATOM     11  F   UNL     1      14.849   0.530 -14.892  1.00  0.00    -0.207 F 
ENDBRANCH   3   5
ENDBRANCH   2   3
ENDBRANCH   1   2
BRANCH   1  12
ATOM     12  C   UNL     1      15.610   5.944  -9.227  1.00  0.00     0.085 C 
BRANCH  12  13
ATOM     13  N   UNL     1      16.924   6.052  -9.705  1.00  0.00    -0.303 NA
ATOM     14  C   UNL     1      17.121   5.736 -11.069  1.00  0.00     0.088 C 
ATOM     15  C   UNL     1      18.003   5.716  -8.871  1.00  0.00     0.088 C 
ATOM     16  C   UNL     1      18.597   5.720 -11.402  1.00  0.00     0.056 C 
ATOM     17  C   UNL     1      19.185   6.625  -9.198  1.00  0.00     0.056 C 
ATOM     18  C   UNL     1      19.229   6.889 -10.672  1.00  0.00     0.092 C 
BRANCH  18  19
ATOM     19  O   UNL     1      18.342   7.974 -10.916  1.00  0.00    -0.385 OA
ATOM     20  H   UNL     1      18.923   8.724 -11.187  1.00  0.00     0.211 HD
ENDBRANCH  18  19
BRANCH  18  21
ATOM     21  C   UNL     1      20.575   7.208 -11.204  1.00  0.00    -0.016 A 
ATOM     22  C   UNL     1      21.690   7.075 -10.366  1.00  0.00     0.008 A 
ATOM     23  C   UNL     1      20.827   7.643 -12.479  1.00  0.00     0.008 A 
ATOM     24  C   UNL     1      22.968   7.361 -10.792  1.00  0.00     0.021 A 
ATOM     25  C   UNL     1      22.126   7.935 -12.915  1.00  0.00     0.021 A 
ATOM     26  C   UNL     1      23.207   7.797 -12.076  1.00  0.00     0.041 A 
ATOM     27  Cl  UNL     1      24.849   8.164 -12.625  1.00  0.00    -0.084 Cl
ENDBRANCH  18  21
ENDBRANCH  12  13
ENDBRANCH   1  12
TORSDOF 7
ENDMDL
