MODEL 1
REMARK VINA RESULT:      -6.3      0.000      0.000
REMARK SMILES COc1cc2ccc(=O)oc2cc1[O-]
REMARK SMILES IDX 3 1 4 2 5 3 6 4 7 5 8 6 9 7 10 8 11 9 12 10 13 11 14 12 2 13
REMARK SMILES IDX 1 14
REMARK H PARENT
ROOT
ATOM      1  C   UNL     1      -2.420  19.798  11.083  1.00  0.00     0.111 A 
ATOM      2  C   UNL     1      -3.597  19.208  10.701  1.00  0.00     0.057 A 
ATOM      3  C   UNL     1      -4.709  19.990  10.458  1.00  0.00     0.021 A 
ATOM      4  C   UNL     1      -5.878  19.366  10.075  1.00  0.00     0.019 A 
ATOM      5  C   UNL     1      -6.971  20.181   9.840  1.00  0.00     0.094 A 
ATOM      6  C   UNL     1      -6.835  21.538   9.996  1.00  0.00     0.336 A 
ATOM      7  O   UNL     1      -7.841  22.258   9.777  1.00  0.00    -0.246 OA
ATOM      8  O   UNL     1      -5.690  22.072  10.364  1.00  0.00    -0.423 OA
ATOM      9  C   UNL     1      -4.617  21.352  10.602  1.00  0.00     0.138 A 
ATOM     10  C   UNL     1      -3.448  21.971  10.984  1.00  0.00     0.043 A 
ATOM     11  C   UNL     1      -2.347  21.187  11.224  1.00  0.00    -0.062 A 
ATOM     12  O   UNL     1      -1.150  21.781  11.611  1.00  0.00    -0.870 OA
ENDROOT
BRANCH   1  13
ATOM     13  O   UNL     1      -1.282  19.069  11.338  1.00  0.00    -0.497 OA
ATOM     14  C   UNL     1      -1.147  17.702  11.086  1.00  0.00     0.278 C 
ENDBRANCH   1  13
TORSDOF 1
ENDMDL
MODEL 2
REMARK VINA RESULT:      -6.2      1.089      4.641
REMARK SMILES COc1cc2ccc(=O)oc2cc1[O-]
REMARK SMILES IDX 3 1 4 2 5 3 6 4 7 5 8 6 9 7 10 8 11 9 12 10 13 11 14 12 2 13
REMARK SMILES IDX 1 14
REMARK H PARENT
ROOT
ATOM      1  C   UNL     1      -5.010  21.469  10.580  1.00  0.00     0.111 A 
ATOM      2  C   UNL     1      -5.057  20.101  10.506  1.00  0.00     0.057 A 
ATOM      3  C   UNL     1      -3.912  19.362  10.732  1.00  0.00     0.021 A 
ATOM      4  C   UNL     1      -3.993  17.987  10.650  1.00  0.00     0.019 A 
ATOM      5  C   UNL     1      -2.827  17.280  10.883  1.00  0.00     0.094 A 
ATOM      6  C   UNL     1      -1.678  17.970  11.178  1.00  0.00     0.336 A 
ATOM      7  O   UNL     1      -0.631  17.307  11.386  1.00  0.00    -0.246 OA
ATOM      8  O   UNL     1      -1.668  19.284  11.243  1.00  0.00    -0.423 OA
ATOM      9  C   UNL     1      -2.741  20.012  11.032  1.00  0.00     0.138 A 
ATOM     10  C   UNL     1      -2.666  21.384  11.113  1.00  0.00     0.043 A 
ATOM     11  C   UNL     1      -3.807  22.112  10.886  1.00  0.00    -0.062 A 
ATOM     12  O   UNL     1      -3.765  23.500  10.961  1.00  0.00    -0.870 OA
ENDROOT
BRANCH   1  13
ATOM     13  O   UNL     1      -6.117  22.255  10.364  1.00  0.00    -0.497 OA
ATOM     14  C   UNL     1      -7.183  21.905   9.533  1.00  0.00     0.278 C 
ENDBRANCH   1  13
TORSDOF 1
ENDMDL
MODEL 3
REMARK VINA RESULT:      -6.1      2.026      4.638
REMARK SMILES COc1cc2ccc(=O)oc2cc1[O-]
REMARK SMILES IDX 3 1 4 2 5 3 6 4 7 5 8 6 9 7 10 8 11 9 12 10 13 11 14 12 2 13
REMARK SMILES IDX 1 14
REMARK H PARENT
ROOT
ATOM      1  C   UNL     1      -4.009  21.311  10.209  1.00  0.00     0.111 A 
ATOM      2  C   UNL     1      -2.958  20.468  10.462  1.00  0.00     0.057 A 
ATOM      3  C   UNL     1      -3.202  19.154  10.811  1.00  0.00     0.021 A 
ATOM      4  C   UNL     1      -2.122  18.331  11.059  1.00  0.00     0.019 A 
ATOM      5  C   UNL     1      -2.405  17.022  11.407  1.00  0.00     0.094 A 
ATOM      6  C   UNL     1      -3.715  16.621  11.483  1.00  0.00     0.336 A 
ATOM      7  O   UNL     1      -3.947  15.428  11.800  1.00  0.00    -0.246 OA
ATOM      8  O   UNL     1      -4.700  17.456  11.233  1.00  0.00    -0.423 OA
ATOM      9  C   UNL     1      -4.498  18.711  10.899  1.00  0.00     0.138 A 
ATOM     10  C   UNL     1      -5.572  19.535  10.650  1.00  0.00     0.043 A 
ATOM     11  C   UNL     1      -5.323  20.840  10.304  1.00  0.00    -0.062 A 
ATOM     12  O   UNL     1      -6.385  21.699  10.045  1.00  0.00    -0.870 OA
ENDROOT
BRANCH   1  13
ATOM     13  O   UNL     1      -3.827  22.627   9.857  1.00  0.00    -0.497 OA
ATOM     14  C   UNL     1      -2.961  23.506  10.513  1.00  0.00     0.278 C 
ENDBRANCH   1  13
TORSDOF 1
ENDMDL
MODEL 4
REMARK VINA RESULT:      -6.1      1.501      2.668
REMARK SMILES COc1cc2ccc(=O)oc2cc1[O-]
REMARK SMILES IDX 3 1 4 2 5 3 6 4 7 5 8 6 9 7 10 8 11 9 12 10 13 11 14 12 2 13
REMARK SMILES IDX 1 14
REMARK H PARENT
ROOT
ATOM      1  C   UNL     1      -2.453  18.472  11.136  1.00  0.00     0.111 A 
ATOM      2  C   UNL     1      -2.493  19.832  10.967  1.00  0.00     0.057 A 
ATOM      3  C   UNL     1      -3.688  20.448  10.648  1.00  0.00     0.021 A 
ATOM      4  C   UNL     1      -3.695  21.818  10.484  1.00  0.00     0.019 A 
ATOM      5  C   UNL     1      -4.909  22.400  10.165  1.00  0.00     0.094 A 
ATOM      6  C   UNL     1      -6.016  21.600  10.033  1.00  0.00     0.336 A 
ATOM      7  O   UNL     1      -7.108  22.151   9.744  1.00  0.00    -0.246 OA
ATOM      8  O   UNL     1      -5.943  20.298  10.203  1.00  0.00    -0.423 OA
ATOM      9  C   UNL     1      -4.821  19.686  10.507  1.00  0.00     0.138 A 
ATOM     10  C   UNL     1      -4.808  18.319  10.671  1.00  0.00     0.043 A 
ATOM     11  C   UNL     1      -3.618  17.713  10.987  1.00  0.00    -0.062 A 
ATOM     12  O   UNL     1      -3.571  16.334  11.161  1.00  0.00    -0.870 OA
ENDROOT
BRANCH   1  13
ATOM     13  O   UNL     1      -1.293  17.806  11.453  1.00  0.00    -0.497 OA
ATOM     14  C   UNL     1      -0.334  17.402  10.521  1.00  0.00     0.278 C 
ENDBRANCH   1  13
TORSDOF 1
ENDMDL
MODEL 5
REMARK VINA RESULT:      -5.9      1.885      2.932
REMARK SMILES COc1cc2ccc(=O)oc2cc1[O-]
REMARK SMILES IDX 3 1 4 2 5 3 6 4 7 5 8 6 9 7 10 8 11 9 12 10 13 11 14 12 2 13
REMARK SMILES IDX 1 14
REMARK H PARENT
ROOT
ATOM      1  C   UNL     1      -3.494  17.742  10.980  1.00  0.00     0.111 A 
ATOM      2  C   UNL     1      -4.558  18.582  10.778  1.00  0.00     0.057 A 
ATOM      3  C   UNL     1      -4.353  19.947  10.716  1.00  0.00     0.021 A 
ATOM      4  C   UNL     1      -5.445  20.765  10.512  1.00  0.00     0.019 A 
ATOM      5  C   UNL     1      -5.201  22.126  10.457  1.00  0.00     0.094 A 
ATOM      6  C   UNL     1      -3.914  22.578  10.603  1.00  0.00     0.336 A 
ATOM      7  O   UNL     1      -3.716  23.818  10.549  1.00  0.00    -0.246 OA
ATOM      8  O   UNL     1      -2.915  21.744  10.795  1.00  0.00    -0.423 OA
ATOM      9  C   UNL     1      -3.081  20.442  10.858  1.00  0.00     0.138 A 
ATOM     10  C   UNL     1      -1.994  19.621  11.062  1.00  0.00     0.043 A 
ATOM     11  C   UNL     1      -2.206  18.266  11.122  1.00  0.00    -0.062 A 
ATOM     12  O   UNL     1      -1.129  17.410  11.326  1.00  0.00    -0.870 OA
ENDROOT
BRANCH   1  13
ATOM     13  O   UNL     1      -3.639  16.377  11.049  1.00  0.00    -0.497 OA
ATOM     14  C   UNL     1      -4.166  15.694  12.148  1.00  0.00     0.278 C 
ENDBRANCH   1  13
TORSDOF 1
ENDMDL
MODEL 6
REMARK VINA RESULT:      -5.6      1.191      1.432
REMARK SMILES COc1cc2ccc(=O)oc2cc1[O-]
REMARK SMILES IDX 3 1 4 2 5 3 6 4 7 5 8 6 9 7 10 8 11 9 12 10 13 11 14 12 2 13
REMARK SMILES IDX 1 14
REMARK H PARENT
ROOT
ATOM      1  C   UNL     1      -3.411  18.490  10.995  1.00  0.00     0.111 A 
ATOM      2  C   UNL     1      -4.751  18.465  10.710  1.00  0.00     0.057 A 
ATOM      3  C   UNL     1      -5.411  19.642  10.411  1.00  0.00     0.021 A 
ATOM      4  C   UNL     1      -6.760  19.583  10.128  1.00  0.00     0.019 A 
ATOM      5  C   UNL     1      -7.387  20.780   9.833  1.00  0.00     0.094 A 
ATOM      6  C   UNL     1      -6.648  21.937   9.836  1.00  0.00     0.336 A 
ATOM      7  O   UNL     1      -7.239  23.012   9.565  1.00  0.00    -0.246 OA
ATOM      8  O   UNL     1      -5.362  21.925  10.114  1.00  0.00    -0.423 OA
ATOM      9  C   UNL     1      -4.710  20.822  10.402  1.00  0.00     0.138 A 
ATOM     10  C   UNL     1      -3.363  20.875  10.684  1.00  0.00     0.043 A 
ATOM     11  C   UNL     1      -2.715  19.702  10.981  1.00  0.00    -0.062 A 
ATOM     12  O   UNL     1      -1.354  19.722  11.271  1.00  0.00    -0.870 OA
ENDROOT
BRANCH   1  13
ATOM     13  O   UNL     1      -2.704  17.351  11.300  1.00  0.00    -0.497 OA
ATOM     14  C   UNL     1      -3.285  16.140  11.684  1.00  0.00     0.278 C 
ENDBRANCH   1  13
TORSDOF 1
ENDMDL
MODEL 7
REMARK VINA RESULT:      -5.3      2.060      3.790
REMARK SMILES COc1cc2ccc(=O)oc2cc1[O-]
REMARK SMILES IDX 3 1 4 2 5 3 6 4 7 5 8 6 9 7 10 8 11 9 12 10 13 11 14 12 2 13
REMARK SMILES IDX 1 14
REMARK H PARENT
ROOT
ATOM      1  C   UNL     1      -4.116  19.593  10.725  1.00  0.00     0.111 A 
ATOM      2  C   UNL     1      -3.005  20.326  11.053  1.00  0.00     0.057 A 
ATOM      3  C   UNL     1      -3.081  21.705  11.099  1.00  0.00     0.021 A 
ATOM      4  C   UNL     1      -1.945  22.414  11.432  1.00  0.00     0.019 A 
ATOM      5  C   UNL     1      -2.060  23.792  11.469  1.00  0.00     0.094 A 
ATOM      6  C   UNL     1      -3.272  24.367  11.179  1.00  0.00     0.336 A 
ATOM      7  O   UNL     1      -3.352  25.620  11.218  1.00  0.00    -0.246 OA
ATOM      8  O   UNL     1      -4.319  23.633  10.869  1.00  0.00    -0.423 OA
ATOM      9  C   UNL     1      -4.275  22.321  10.817  1.00  0.00     0.138 A 
ATOM     10  C   UNL     1      -5.406  21.610  10.485  1.00  0.00     0.043 A 
ATOM     11  C   UNL     1      -5.322  20.241  10.440  1.00  0.00    -0.062 A 
ATOM     12  O   UNL     1      -6.446  19.492  10.109  1.00  0.00    -0.870 OA
ENDROOT
BRANCH   1  13
ATOM     13  O   UNL     1      -4.097  18.220  10.664  1.00  0.00    -0.497 OA
ATOM     14  C   UNL     1      -2.977  17.433  10.936  1.00  0.00     0.278 C 
ENDBRANCH   1  13
TORSDOF 1
ENDMDL
MODEL 8
REMARK VINA RESULT:      -5.3      2.189      4.182
REMARK SMILES COc1cc2ccc(=O)oc2cc1[O-]
REMARK SMILES IDX 3 1 4 2 5 3 6 4 7 5 8 6 9 7 10 8 11 9 12 10 13 11 14 12 2 13
REMARK SMILES IDX 1 14
REMARK H PARENT
ROOT
ATOM      1  C   UNL     1      -3.572  23.524  11.527  1.00  0.00     0.111 A 
ATOM      2  C   UNL     1      -4.534  22.649  11.093  1.00  0.00     0.057 A 
ATOM      3  C   UNL     1      -4.219  21.314  10.923  1.00  0.00     0.021 A 
ATOM      4  C   UNL     1      -5.209  20.459  10.485  1.00  0.00     0.019 A 
ATOM      5  C   UNL     1      -4.858  19.130  10.326  1.00  0.00     0.094 A 
ATOM      6  C   UNL     1      -3.572  18.743  10.607  1.00  0.00     0.336 A 
ATOM      7  O   UNL     1      -3.276  17.532  10.455  1.00  0.00    -0.246 OA
ATOM      8  O   UNL     1      -2.673  19.610  11.022  1.00  0.00    -0.423 OA
ATOM      9  C   UNL     1      -2.944  20.884  11.193  1.00  0.00     0.138 A 
ATOM     10  C   UNL     1      -1.960  21.742  11.629  1.00  0.00     0.043 A 
ATOM     11  C   UNL     1      -2.279  23.066  11.796  1.00  0.00    -0.062 A 
ATOM     12  O   UNL     1      -1.307  23.959  12.236  1.00  0.00    -0.870 OA
ENDROOT
BRANCH   1  13
ATOM     13  O   UNL     1      -3.828  24.862  11.713  1.00  0.00    -0.497 OA
ATOM     14  C   UNL     1      -4.506  25.390  12.815  1.00  0.00     0.278 C 
ENDBRANCH   1  13
TORSDOF 1
ENDMDL
MODEL 9
REMARK VINA RESULT:      -5.2      2.263      3.792
REMARK SMILES COc1cc2ccc(=O)oc2cc1[O-]
REMARK SMILES IDX 3 1 4 2 5 3 6 4 7 5 8 6 9 7 10 8 11 9 12 10 13 11 14 12 2 13
REMARK SMILES IDX 1 14
REMARK H PARENT
ROOT
ATOM      1  C   UNL     1      -2.853  23.477  10.809  1.00  0.00     0.111 A 
ATOM      2  C   UNL     1      -4.056  22.924  10.454  1.00  0.00     0.057 A 
ATOM      3  C   UNL     1      -4.248  21.561  10.580  1.00  0.00     0.021 A 
ATOM      4  C   UNL     1      -5.469  21.035  10.214  1.00  0.00     0.019 A 
ATOM      5  C   UNL     1      -5.625  19.667  10.354  1.00  0.00     0.094 A 
ATOM      6  C   UNL     1      -4.578  18.925  10.840  1.00  0.00     0.336 A 
ATOM      7  O   UNL     1      -4.743  17.685  10.959  1.00  0.00    -0.246 OA
ATOM      8  O   UNL     1      -3.437  19.489  11.173  1.00  0.00    -0.423 OA
ATOM      9  C   UNL     1      -3.227  20.781  11.063  1.00  0.00     0.138 A 
ATOM     10  C   UNL     1      -2.010  21.311  11.427  1.00  0.00     0.043 A 
ATOM     11  C   UNL     1      -1.826  22.665  11.299  1.00  0.00    -0.062 A 
ATOM     12  O   UNL     1      -0.608  23.232  11.658  1.00  0.00    -0.870 OA
ENDROOT
BRANCH   1  13
ATOM     13  O   UNL     1      -2.607  24.826  10.705  1.00  0.00    -0.497 OA
ATOM     14  C   UNL     1      -2.087  25.447   9.567  1.00  0.00     0.278 C 
ENDBRANCH   1  13
TORSDOF 1
ENDMDL
