MODEL 1
REMARK VINA RESULT:      -5.9      0.000      0.000
REMARK SMILES CC/C(=C(\c1ccccc1)c1ccc(OCC[NH+](C)C)cc1)c1ccccc1
REMARK SMILES IDX 15 1 14 2 11 3 12 4 22 5 13 6 21 7 4 8 3 9 2 10 1 11 23 12
REMARK SMILES IDX 24 13 28 14 25 15 27 16 26 17 5 18 6 19 10 20 7 21 9 22 8 23
REMARK SMILES IDX 16 24 17 25 18 26 19 27 20 28
REMARK H PARENT 18 29
ROOT
ATOM      1  O   UNL     1      -6.767  -3.389   7.674  1.00  0.00    -0.488 OA
ENDROOT
BRANCH   1   2
ATOM      2  C   UNL     1      -7.788  -4.317   7.765  1.00  0.00     0.119 A 
ATOM      3  C   UNL     1      -9.839  -6.302   7.879  1.00  0.00    -0.017 A 
ATOM      4  C   UNL     1      -9.875  -5.173   8.673  1.00  0.00     0.012 A 
ATOM      5  C   UNL     1      -8.747  -6.409   7.024  1.00  0.00     0.012 A 
ATOM      6  C   UNL     1      -8.872  -4.219   8.607  1.00  0.00     0.047 A 
ATOM      7  C   UNL     1      -7.757  -5.465   6.960  1.00  0.00     0.047 A 
BRANCH   3   8
ATOM      8  C   UNL     1     -10.888  -7.306   7.910  1.00  0.00    -0.007 C 
ATOM      9  C   UNL     1     -10.940  -8.245   8.819  1.00  0.00    -0.033 C 
BRANCH   9  10
ATOM     10  C   UNL     1     -11.963  -9.326   8.871  1.00  0.00     0.033 C 
ATOM     11  C   UNL     1     -13.160  -8.826   9.625  1.00  0.00     0.009 C 
ENDBRANCH   9  10
BRANCH   9  12
ATOM     12  C   UNL     1      -9.990  -8.265   9.946  1.00  0.00    -0.022 A 
ATOM     13  C   UNL     1      -8.713  -8.747   9.811  1.00  0.00     0.008 A 
ATOM     14  C   UNL     1     -10.411  -7.797  11.153  1.00  0.00     0.008 A 
ATOM     15  C   UNL     1      -7.870  -8.753  10.894  1.00  0.00     0.001 A 
ATOM     16  C   UNL     1      -9.587  -7.785  12.282  1.00  0.00     0.001 A 
ATOM     17  C   UNL     1      -8.311  -8.274  12.116  1.00  0.00     0.000 A 
ENDBRANCH   9  12
BRANCH   8  18
ATOM     18  C   UNL     1     -11.888  -7.275   6.862  1.00  0.00    -0.018 A 
ATOM     19  C   UNL     1     -11.871  -8.157   5.800  1.00  0.00     0.009 A 
ATOM     20  C   UNL     1     -12.877  -6.297   6.889  1.00  0.00     0.009 A 
ATOM     21  C   UNL     1     -12.819  -8.042   4.817  1.00  0.00     0.001 A 
ATOM     22  C   UNL     1     -13.837  -6.168   5.912  1.00  0.00     0.001 A 
ATOM     23  C   UNL     1     -13.799  -7.069   4.852  1.00  0.00     0.000 A 
ENDBRANCH   8  18
ENDBRANCH   3   8
ENDBRANCH   1   2
BRANCH   1  24
ATOM     24  C   UNL     1      -5.614  -3.293   8.433  1.00  0.00     0.290 C 
BRANCH  24  25
ATOM     25  C   UNL     1      -4.342  -3.722   7.750  1.00  0.00     0.303 C 
BRANCH  25  26
ATOM     26  N   UNL     1      -4.253  -5.140   7.578  1.00  0.00    -0.337 N 
ATOM     27  C   UNL     1      -4.542  -5.886   8.784  1.00  0.00     0.332 C 
ATOM     28  C   UNL     1      -2.950  -5.570   7.113  1.00  0.00     0.332 C 
ATOM     29  H   UNL     1      -4.943  -5.486   6.846  1.00  0.00     0.347 HD
ENDBRANCH  25  26
ENDBRANCH  24  25
ENDBRANCH   1  24
TORSDOF 8
ENDMDL
MODEL 2
REMARK VINA RESULT:      -5.8      0.803      1.864
REMARK SMILES CC/C(=C(\c1ccccc1)c1ccc(OCC[NH+](C)C)cc1)c1ccccc1
REMARK SMILES IDX 15 1 14 2 11 3 12 4 22 5 13 6 21 7 4 8 3 9 2 10 1 11 23 12
REMARK SMILES IDX 24 13 28 14 25 15 27 16 26 17 5 18 6 19 10 20 7 21 9 22 8 23
REMARK SMILES IDX 16 24 17 25 18 26 19 27 20 28
REMARK H PARENT 18 29
ROOT
ATOM      1  O   UNL     1      -6.749  -3.070   8.392  1.00  0.00    -0.488 OA
ENDROOT
BRANCH   1   2
ATOM      2  C   UNL     1      -7.685  -4.081   8.270  1.00  0.00     0.119 A 
ATOM      3  C   UNL     1      -9.691  -6.106   8.085  1.00  0.00    -0.017 A 
ATOM      4  C   UNL     1      -8.500  -6.196   7.392  1.00  0.00     0.012 A 
ATOM      5  C   UNL     1      -9.850  -4.972   8.875  1.00  0.00     0.012 A 
ATOM      6  C   UNL     1      -7.536  -5.205   7.492  1.00  0.00     0.047 A 
ATOM      7  C   UNL     1      -8.896  -3.994   8.972  1.00  0.00     0.047 A 
BRANCH   3   8
ATOM      8  C   UNL     1     -10.708  -7.140   8.018  1.00  0.00    -0.007 C 
ATOM      9  C   UNL     1     -10.775  -8.122   8.879  1.00  0.00    -0.033 C 
BRANCH   9  10
ATOM     10  C   UNL     1     -11.765  -9.232   8.830  1.00  0.00     0.033 C 
ATOM     11  C   UNL     1     -12.954  -8.860   9.667  1.00  0.00     0.009 C 
ENDBRANCH   9  10
BRANCH   9  12
ATOM     12  C   UNL     1      -9.879  -8.168  10.048  1.00  0.00    -0.022 A 
ATOM     13  C   UNL     1     -10.258  -7.685  11.274  1.00  0.00     0.008 A 
ATOM     14  C   UNL     1      -8.636  -8.701   9.886  1.00  0.00     0.008 A 
ATOM     15  C   UNL     1      -9.381  -7.743  12.329  1.00  0.00     0.001 A 
ATOM     16  C   UNL     1      -7.712  -8.780  10.932  1.00  0.00     0.001 A 
ATOM     17  C   UNL     1      -8.121  -8.287  12.151  1.00  0.00     0.000 A 
ENDBRANCH   9  12
BRANCH   8  18
ATOM     18  C   UNL     1     -11.658  -7.087   6.925  1.00  0.00    -0.018 A 
ATOM     19  C   UNL     1     -12.796  -6.307   6.973  1.00  0.00     0.009 A 
ATOM     20  C   UNL     1     -11.453  -7.882   5.801  1.00  0.00     0.009 A 
ATOM     21  C   UNL     1     -13.678  -6.340   5.924  1.00  0.00     0.001 A 
ATOM     22  C   UNL     1     -12.327  -7.926   4.739  1.00  0.00     0.001 A 
ATOM     23  C   UNL     1     -13.466  -7.130   4.812  1.00  0.00     0.000 A 
ENDBRANCH   8  18
ENDBRANCH   3   8
ENDBRANCH   1   2
BRANCH   1  24
ATOM     24  C   UNL     1      -5.374  -3.172   8.498  1.00  0.00     0.290 C 
BRANCH  24  25
ATOM     25  C   UNL     1      -4.846  -3.520   9.866  1.00  0.00     0.303 C 
BRANCH  25  26
ATOM     26  N   UNL     1      -3.785  -4.480   9.827  1.00  0.00    -0.337 N 
ATOM     27  C   UNL     1      -3.766  -5.269   8.614  1.00  0.00     0.332 C 
ATOM     28  C   UNL     1      -3.825  -5.408  10.939  1.00  0.00     0.332 C 
ATOM     29  H   UNL     1      -2.834  -4.008   9.886  1.00  0.00     0.347 HD
ENDBRANCH  25  26
ENDBRANCH  24  25
ENDBRANCH   1  24
TORSDOF 8
ENDMDL
MODEL 3
REMARK VINA RESULT:      -5.6      3.110      6.676
REMARK SMILES CC/C(=C(\c1ccccc1)c1ccc(OCC[NH+](C)C)cc1)c1ccccc1
REMARK SMILES IDX 15 1 14 2 11 3 12 4 22 5 13 6 21 7 4 8 3 9 2 10 1 11 23 12
REMARK SMILES IDX 24 13 28 14 25 15 27 16 26 17 5 18 6 19 10 20 7 21 9 22 8 23
REMARK SMILES IDX 16 24 17 25 18 26 19 27 20 28
REMARK H PARENT 18 29
ROOT
ATOM      1  O   UNL     1     -13.008  -4.997   4.469  1.00  0.00    -0.488 OA
ENDROOT
BRANCH   1   2
ATOM      2  C   UNL     1     -12.061  -5.302   5.429  1.00  0.00     0.119 A 
ATOM      3  C   UNL     1     -10.173  -5.881   7.494  1.00  0.00    -0.017 A 
ATOM      4  C   UNL     1      -9.991  -6.321   6.197  1.00  0.00     0.012 A 
ATOM      5  C   UNL     1     -11.328  -5.141   7.728  1.00  0.00     0.012 A 
ATOM      6  C   UNL     1     -10.917  -6.032   5.207  1.00  0.00     0.047 A 
ATOM      7  C   UNL     1     -12.241  -4.857   6.747  1.00  0.00     0.047 A 
BRANCH   3   8
ATOM      8  C   UNL     1      -9.210  -6.148   8.547  1.00  0.00    -0.007 C 
ATOM      9  C   UNL     1      -9.432  -7.007   9.507  1.00  0.00    -0.033 C 
BRANCH   9  10
ATOM     10  C   UNL     1      -8.501  -7.284  10.635  1.00  0.00     0.033 C 
ATOM     11  C   UNL     1      -7.939  -8.666  10.473  1.00  0.00     0.009 C 
ENDBRANCH   9  10
BRANCH   9  12
ATOM     12  C   UNL     1     -10.643  -7.848   9.508  1.00  0.00    -0.022 A 
ATOM     13  C   UNL     1     -10.853  -8.821   8.566  1.00  0.00     0.008 A 
ATOM     14  C   UNL     1     -11.577  -7.631  10.476  1.00  0.00     0.008 A 
ATOM     15  C   UNL     1     -12.002  -9.570   8.605  1.00  0.00     0.001 A 
ATOM     16  C   UNL     1     -12.761  -8.370  10.553  1.00  0.00     0.001 A 
ATOM     17  C   UNL     1     -12.944  -9.340   9.594  1.00  0.00     0.000 A 
ENDBRANCH   9  12
BRANCH   8  18
ATOM     18  C   UNL     1      -7.971  -5.396   8.538  1.00  0.00    -0.018 A 
ATOM     19  C   UNL     1      -7.892  -4.100   9.008  1.00  0.00     0.009 A 
ATOM     20  C   UNL     1      -6.825  -5.970   7.997  1.00  0.00     0.009 A 
ATOM     21  C   UNL     1      -6.700  -3.428   8.928  1.00  0.00     0.001 A 
ATOM     22  C   UNL     1      -5.621  -5.311   7.909  1.00  0.00     0.001 A 
ATOM     23  C   UNL     1      -5.566  -4.006   8.390  1.00  0.00     0.000 A 
ENDBRANCH   8  18
ENDBRANCH   3   8
ENDBRANCH   1   2
BRANCH   1  24
ATOM     24  C   UNL     1     -12.895  -4.151   3.380  1.00  0.00     0.290 C 
BRANCH  24  25
ATOM     25  C   UNL     1     -13.089  -4.792   2.030  1.00  0.00     0.303 C 
BRANCH  25  26
ATOM     26  N   UNL     1     -14.082  -5.822   2.040  1.00  0.00    -0.337 N 
ATOM     27  C   UNL     1     -13.732  -6.967   1.227  1.00  0.00     0.332 C 
ATOM     28  C   UNL     1     -15.378  -5.359   1.587  1.00  0.00     0.332 C 
ATOM     29  H   UNL     1     -14.243  -6.197   3.022  1.00  0.00     0.347 HD
ENDBRANCH  25  26
ENDBRANCH  24  25
ENDBRANCH   1  24
TORSDOF 8
ENDMDL
MODEL 4
REMARK VINA RESULT:      -5.4      0.861      1.902
REMARK SMILES CC/C(=C(\c1ccccc1)c1ccc(OCC[NH+](C)C)cc1)c1ccccc1
REMARK SMILES IDX 15 1 14 2 11 3 12 4 22 5 13 6 21 7 4 8 3 9 2 10 1 11 23 12
REMARK SMILES IDX 24 13 28 14 25 15 27 16 26 17 5 18 6 19 10 20 7 21 9 22 8 23
REMARK SMILES IDX 16 24 17 25 18 26 19 27 20 28
REMARK H PARENT 18 29
ROOT
ATOM      1  O   UNL     1      -6.692  -3.639   7.461  1.00  0.00    -0.488 OA
ENDROOT
BRANCH   1   2
ATOM      2  C   UNL     1      -7.827  -4.424   7.560  1.00  0.00     0.119 A 
ATOM      3  C   UNL     1     -10.233  -5.947   7.777  1.00  0.00    -0.017 A 
ATOM      4  C   UNL     1      -9.019  -6.541   7.495  1.00  0.00     0.012 A 
ATOM      5  C   UNL     1     -10.208  -4.566   7.949  1.00  0.00     0.012 A 
ATOM      6  C   UNL     1      -7.860  -5.788   7.393  1.00  0.00     0.047 A 
ATOM      7  C   UNL     1      -9.062  -3.824   7.847  1.00  0.00     0.047 A 
BRANCH   3   8
ATOM      8  C   UNL     1     -11.459  -6.712   7.914  1.00  0.00    -0.007 C 
ATOM      9  C   UNL     1     -11.799  -7.310   9.027  1.00  0.00    -0.033 C 
BRANCH   9  10
ATOM     10  C   UNL     1     -13.017  -8.145   9.209  1.00  0.00     0.033 C 
ATOM     11  C   UNL     1     -12.638  -9.592   9.085  1.00  0.00     0.009 C 
ENDBRANCH   9  10
BRANCH   9  12
ATOM     12  C   UNL     1     -11.000  -7.139  10.254  1.00  0.00    -0.022 A 
ATOM     13  C   UNL     1     -11.238  -6.119  11.140  1.00  0.00     0.008 A 
ATOM     14  C   UNL     1      -9.993  -8.023  10.496  1.00  0.00     0.008 A 
ATOM     15  C   UNL     1     -10.459  -5.998  12.263  1.00  0.00     0.001 A 
ATOM     16  C   UNL     1      -9.175  -7.937  11.626  1.00  0.00     0.001 A 
ATOM     17  C   UNL     1      -9.438  -6.904  12.497  1.00  0.00     0.000 A 
ENDBRANCH   9  12
BRANCH   8  18
ATOM     18  C   UNL     1     -12.312  -6.841   6.750  1.00  0.00    -0.018 A 
ATOM     19  C   UNL     1     -13.281  -5.909   6.438  1.00  0.00     0.009 A 
ATOM     20  C   UNL     1     -12.193  -7.963   5.935  1.00  0.00     0.009 A 
ATOM     21  C   UNL     1     -14.086  -6.115   5.348  1.00  0.00     0.001 A 
ATOM     22  C   UNL     1     -12.992  -8.186   4.837  1.00  0.00     0.001 A 
ATOM     23  C   UNL     1     -13.961  -7.231   4.544  1.00  0.00     0.000 A 
ENDBRANCH   8  18
ENDBRANCH   3   8
ENDBRANCH   1   2
BRANCH   1  24
ATOM     24  C   UNL     1      -5.653  -3.502   8.365  1.00  0.00     0.290 C 
BRANCH  24  25
ATOM     25  C   UNL     1      -4.267  -3.660   7.798  1.00  0.00     0.303 C 
BRANCH  25  26
ATOM     26  N   UNL     1      -3.551  -4.758   8.374  1.00  0.00    -0.337 N 
ATOM     27  C   UNL     1      -3.028  -5.683   7.392  1.00  0.00     0.332 C 
ATOM     28  C   UNL     1      -4.353  -5.530   9.301  1.00  0.00     0.332 C 
ATOM     29  H   UNL     1      -2.713  -4.421   8.937  1.00  0.00     0.347 HD
ENDBRANCH  25  26
ENDBRANCH  24  25
ENDBRANCH   1  24
TORSDOF 8
ENDMDL
MODEL 5
REMARK VINA RESULT:      -5.3      1.002      1.267
REMARK SMILES CC/C(=C(\c1ccccc1)c1ccc(OCC[NH+](C)C)cc1)c1ccccc1
REMARK SMILES IDX 15 1 14 2 11 3 12 4 22 5 13 6 21 7 4 8 3 9 2 10 1 11 23 12
REMARK SMILES IDX 24 13 28 14 25 15 27 16 26 17 5 18 6 19 10 20 7 21 9 22 8 23
REMARK SMILES IDX 16 24 17 25 18 26 19 27 20 28
REMARK H PARENT 18 29
ROOT
ATOM      1  O   UNL     1      -6.660  -3.501   7.768  1.00  0.00    -0.488 OA
ENDROOT
BRANCH   1   2
ATOM      2  C   UNL     1      -7.692  -4.416   7.866  1.00  0.00     0.119 A 
ATOM      3  C   UNL     1      -9.769  -6.373   7.989  1.00  0.00    -0.017 A 
ATOM      4  C   UNL     1      -9.751  -5.277   8.829  1.00  0.00     0.012 A 
ATOM      5  C   UNL     1      -8.716  -6.461   7.083  1.00  0.00     0.012 A 
ATOM      6  C   UNL     1      -8.736  -4.336   8.757  1.00  0.00     0.047 A 
ATOM      7  C   UNL     1      -7.714  -5.530   7.014  1.00  0.00     0.047 A 
BRANCH   3   8
ATOM      8  C   UNL     1     -10.832  -7.362   8.025  1.00  0.00    -0.007 C 
ATOM      9  C   UNL     1     -10.905  -8.287   8.947  1.00  0.00    -0.033 C 
BRANCH   9  10
ATOM     10  C   UNL     1     -11.944  -9.352   9.004  1.00  0.00     0.033 C 
ATOM     11  C   UNL     1     -13.155  -8.812   9.707  1.00  0.00     0.009 C 
ENDBRANCH   9  10
BRANCH   9  12
ATOM     12  C   UNL     1      -9.965  -8.305  10.081  1.00  0.00    -0.022 A 
ATOM     13  C   UNL     1      -8.695  -8.811   9.966  1.00  0.00     0.008 A 
ATOM     14  C   UNL     1     -10.388  -7.809  11.277  1.00  0.00     0.008 A 
ATOM     15  C   UNL     1      -7.862  -8.813  11.056  1.00  0.00     0.001 A 
ATOM     16  C   UNL     1      -9.573  -7.792  12.412  1.00  0.00     0.001 A 
ATOM     17  C   UNL     1      -8.305  -8.306  12.266  1.00  0.00     0.000 A 
ENDBRANCH   9  12
BRANCH   8  18
ATOM     18  C   UNL     1     -11.822  -7.331   6.968  1.00  0.00    -0.018 A 
ATOM     19  C   UNL     1     -11.941  -8.345   6.038  1.00  0.00     0.009 A 
ATOM     20  C   UNL     1     -12.658  -6.225   6.845  1.00  0.00     0.009 A 
ATOM     21  C   UNL     1     -12.867  -8.231   5.035  1.00  0.00     0.001 A 
ATOM     22  C   UNL     1     -13.594  -6.095   5.845  1.00  0.00     0.001 A 
ATOM     23  C   UNL     1     -13.694  -7.131   4.921  1.00  0.00     0.000 A 
ENDBRANCH   8  18
ENDBRANCH   3   8
ENDBRANCH   1   2
BRANCH   1  24
ATOM     24  C   UNL     1      -5.554  -3.352   8.585  1.00  0.00     0.290 C 
BRANCH  24  25
ATOM     25  C   UNL     1      -5.080  -4.602   9.280  1.00  0.00     0.303 C 
BRANCH  25  26
ATOM     26  N   UNL     1      -4.813  -4.400  10.671  1.00  0.00    -0.337 N 
ATOM     27  C   UNL     1      -4.745  -3.005  11.048  1.00  0.00     0.332 C 
ATOM     28  C   UNL     1      -3.575  -5.018  11.102  1.00  0.00     0.332 C 
ATOM     29  H   UNL     1      -5.571  -4.833  11.278  1.00  0.00     0.347 HD
ENDBRANCH  25  26
ENDBRANCH  24  25
ENDBRANCH   1  24
TORSDOF 8
ENDMDL
MODEL 6
REMARK VINA RESULT:      -5.3      3.101      6.764
REMARK SMILES CC/C(=C(\c1ccccc1)c1ccc(OCC[NH+](C)C)cc1)c1ccccc1
REMARK SMILES IDX 15 1 14 2 11 3 12 4 22 5 13 6 21 7 4 8 3 9 2 10 1 11 23 12
REMARK SMILES IDX 24 13 28 14 25 15 27 16 26 17 5 18 6 19 10 20 7 21 9 22 8 23
REMARK SMILES IDX 16 24 17 25 18 26 19 27 20 28
REMARK H PARENT 18 29
ROOT
ATOM      1  O   UNL     1     -12.305  -5.645   4.163  1.00  0.00    -0.488 OA
ENDROOT
BRANCH   1   2
ATOM      2  C   UNL     1     -11.496  -5.751   5.280  1.00  0.00     0.119 A 
ATOM      3  C   UNL     1      -9.765  -6.053   7.531  1.00  0.00    -0.017 A 
ATOM      4  C   UNL     1     -10.745  -5.080   7.492  1.00  0.00     0.012 A 
ATOM      5  C   UNL     1      -9.677  -6.872   6.411  1.00  0.00     0.012 A 
ATOM      6  C   UNL     1     -11.577  -4.946   6.392  1.00  0.00     0.047 A 
ATOM      7  C   UNL     1     -10.501  -6.738   5.324  1.00  0.00     0.047 A 
BRANCH   3   8
ATOM      8  C   UNL     1      -8.895  -6.232   8.680  1.00  0.00    -0.007 C 
ATOM      9  C   UNL     1      -9.247  -6.927   9.731  1.00  0.00    -0.033 C 
BRANCH   9  10
ATOM     10  C   UNL     1      -8.415  -7.104  10.953  1.00  0.00     0.033 C 
ATOM     11  C   UNL     1      -7.843  -8.491  10.955  1.00  0.00     0.009 C 
ENDBRANCH   9  10
BRANCH   9  12
ATOM     12  C   UNL     1     -10.518  -7.673   9.758  1.00  0.00    -0.022 A 
ATOM     13  C   UNL     1     -11.553  -7.316  10.584  1.00  0.00     0.008 A 
ATOM     14  C   UNL     1     -10.649  -8.752   8.938  1.00  0.00     0.008 A 
ATOM     15  C   UNL     1     -12.712  -8.050  10.577  1.00  0.00     0.001 A 
ATOM     16  C   UNL     1     -11.811  -9.528   8.900  1.00  0.00     0.001 A 
ATOM     17  C   UNL     1     -12.832  -9.145   9.739  1.00  0.00     0.000 A 
ENDBRANCH   9  12
BRANCH   8  18
ATOM     18  C   UNL     1      -7.603  -5.577   8.661  1.00  0.00    -0.018 A 
ATOM     19  C   UNL     1      -6.447  -6.238   8.297  1.00  0.00     0.009 A 
ATOM     20  C   UNL     1      -7.502  -4.250   9.066  1.00  0.00     0.009 A 
ATOM     21  C   UNL     1      -5.249  -5.573   8.347  1.00  0.00     0.001 A 
ATOM     22  C   UNL     1      -6.309  -3.567   9.120  1.00  0.00     0.001 A 
ATOM     23  C   UNL     1      -5.158  -4.254   8.749  1.00  0.00     0.000 A 
ENDBRANCH   8  18
ENDBRANCH   3   8
ENDBRANCH   1   2
BRANCH   1  24
ATOM     24  C   UNL     1     -13.120  -6.606   3.590  1.00  0.00     0.290 C 
BRANCH  24  25
ATOM     25  C   UNL     1     -14.551  -6.195   3.357  1.00  0.00     0.303 C 
BRANCH  25  26
ATOM     26  N   UNL     1     -14.841  -5.946   1.978  1.00  0.00    -0.337 N 
ATOM     27  C   UNL     1     -14.108  -6.802   1.071  1.00  0.00     0.332 C 
ATOM     28  C   UNL     1     -14.571  -4.578   1.584  1.00  0.00     0.332 C 
ATOM     29  H   UNL     1     -15.871  -6.103   1.764  1.00  0.00     0.347 HD
ENDBRANCH  25  26
ENDBRANCH  24  25
ENDBRANCH   1  24
TORSDOF 8
ENDMDL
MODEL 7
REMARK VINA RESULT:      -5.3      1.061      1.802
REMARK SMILES CC/C(=C(\c1ccccc1)c1ccc(OCC[NH+](C)C)cc1)c1ccccc1
REMARK SMILES IDX 15 1 14 2 11 3 12 4 22 5 13 6 21 7 4 8 3 9 2 10 1 11 23 12
REMARK SMILES IDX 24 13 28 14 25 15 27 16 26 17 5 18 6 19 10 20 7 21 9 22 8 23
REMARK SMILES IDX 16 24 17 25 18 26 19 27 20 28
REMARK H PARENT 18 29
ROOT
ATOM      1  O   UNL     1      -6.470  -2.912   8.339  1.00  0.00    -0.488 OA
ENDROOT
BRANCH   1   2
ATOM      2  C   UNL     1      -7.502  -3.825   8.220  1.00  0.00     0.119 A 
ATOM      3  C   UNL     1      -9.692  -5.651   8.053  1.00  0.00    -0.017 A 
ATOM      4  C   UNL     1      -8.594  -5.755   7.222  1.00  0.00     0.012 A 
ATOM      5  C   UNL     1      -9.662  -4.607   8.972  1.00  0.00     0.012 A 
ATOM      6  C   UNL     1      -7.539  -4.861   7.315  1.00  0.00     0.047 A 
ATOM      7  C   UNL     1      -8.619  -3.725   9.062  1.00  0.00     0.047 A 
BRANCH   3   8
ATOM      8  C   UNL     1     -10.801  -6.587   7.995  1.00  0.00    -0.007 C 
ATOM      9  C   UNL     1     -10.891  -7.626   8.785  1.00  0.00    -0.033 C 
BRANCH   9  10
ATOM     10  C   UNL     1     -11.978  -8.641   8.737  1.00  0.00     0.033 C 
ATOM     11  C   UNL     1     -11.563  -9.754   7.819  1.00  0.00     0.009 C 
ENDBRANCH   9  10
BRANCH   9  12
ATOM     12  C   UNL     1      -9.917  -7.840   9.871  1.00  0.00    -0.022 A 
ATOM     13  C   UNL     1      -8.680  -8.384   9.640  1.00  0.00     0.008 A 
ATOM     14  C   UNL     1     -10.277  -7.492  11.137  1.00  0.00     0.008 A 
ATOM     15  C   UNL     1      -7.814  -8.572  10.688  1.00  0.00     0.001 A 
ATOM     16  C   UNL     1      -9.427  -7.666  12.233  1.00  0.00     0.001 A 
ATOM     17  C   UNL     1      -8.192  -8.214  11.971  1.00  0.00     0.000 A 
ENDBRANCH   9  12
BRANCH   8  18
ATOM     18  C   UNL     1     -11.821  -6.368   6.990  1.00  0.00    -0.018 A 
ATOM     19  C   UNL     1     -13.015  -5.736   7.276  1.00  0.00     0.009 A 
ATOM     20  C   UNL     1     -11.625  -6.848   5.698  1.00  0.00     0.009 A 
ATOM     21  C   UNL     1     -13.958  -5.604   6.290  1.00  0.00     0.001 A 
ATOM     22  C   UNL     1     -12.559  -6.723   4.697  1.00  0.00     0.001 A 
ATOM     23  C   UNL     1     -13.754  -6.082   5.010  1.00  0.00     0.000 A 
ENDBRANCH   8  18
ENDBRANCH   3   8
ENDBRANCH   1   2
BRANCH   1  24
ATOM     24  C   UNL     1      -5.172  -3.124   8.770  1.00  0.00     0.290 C 
BRANCH  24  25
ATOM     25  C   UNL     1      -4.988  -4.235   9.771  1.00  0.00     0.303 C 
BRANCH  25  26
ATOM     26  N   UNL     1      -3.626  -4.660   9.888  1.00  0.00    -0.337 N 
ATOM     27  C   UNL     1      -3.181  -5.474   8.778  1.00  0.00     0.332 C 
ATOM     28  C   UNL     1      -3.375  -5.416  11.098  1.00  0.00     0.332 C 
ATOM     29  H   UNL     1      -2.963  -3.830   9.930  1.00  0.00     0.347 HD
ENDBRANCH  25  26
ENDBRANCH  24  25
ENDBRANCH   1  24
TORSDOF 8
ENDMDL
MODEL 8
REMARK VINA RESULT:      -5.2      3.340      6.727
REMARK SMILES CC/C(=C(\c1ccccc1)c1ccc(OCC[NH+](C)C)cc1)c1ccccc1
REMARK SMILES IDX 15 1 14 2 11 3 12 4 22 5 13 6 21 7 4 8 3 9 2 10 1 11 23 12
REMARK SMILES IDX 24 13 28 14 25 15 27 16 26 17 5 18 6 19 10 20 7 21 9 22 8 23
REMARK SMILES IDX 16 24 17 25 18 26 19 27 20 28
REMARK H PARENT 18 29
ROOT
ATOM      1  O   UNL     1     -12.962  -4.620   4.367  1.00  0.00    -0.488 OA
ENDROOT
BRANCH   1   2
ATOM      2  C   UNL     1     -12.054  -4.885   5.376  1.00  0.00     0.119 A 
ATOM      3  C   UNL     1     -10.121  -5.503   7.385  1.00  0.00    -0.017 A 
ATOM      4  C   UNL     1     -11.130  -4.585   7.604  1.00  0.00     0.012 A 
ATOM      5  C   UNL     1     -10.108  -6.104   6.131  1.00  0.00     0.012 A 
ATOM      6  C   UNL     1     -12.061  -4.296   6.618  1.00  0.00     0.047 A 
ATOM      7  C   UNL     1     -11.029  -5.817   5.159  1.00  0.00     0.047 A 
BRANCH   3   8
ATOM      8  C   UNL     1      -9.146  -5.843   8.407  1.00  0.00    -0.007 C 
ATOM      9  C   UNL     1      -9.354  -6.778   9.297  1.00  0.00    -0.033 C 
BRANCH   9  10
ATOM     10  C   UNL     1      -8.412  -7.135  10.393  1.00  0.00     0.033 C 
ATOM     11  C   UNL     1      -8.018  -8.576  10.245  1.00  0.00     0.009 C 
ENDBRANCH   9  10
BRANCH   9  12
ATOM     12  C   UNL     1     -10.557  -7.628   9.240  1.00  0.00    -0.022 A 
ATOM     13  C   UNL     1     -10.640  -8.715   8.408  1.00  0.00     0.008 A 
ATOM     14  C   UNL     1     -11.613  -7.303  10.035  1.00  0.00     0.008 A 
ATOM     15  C   UNL     1     -11.787  -9.468   8.385  1.00  0.00     0.001 A 
ATOM     16  C   UNL     1     -12.800  -8.041  10.043  1.00  0.00     0.001 A 
ATOM     17  C   UNL     1     -12.854  -9.127   9.200  1.00  0.00     0.000 A 
ENDBRANCH   9  12
BRANCH   8  18
ATOM     18  C   UNL     1      -7.915  -5.081   8.450  1.00  0.00    -0.018 A 
ATOM     19  C   UNL     1      -6.783  -5.468   7.759  1.00  0.00     0.009 A 
ATOM     20  C   UNL     1      -7.841  -3.944   9.249  1.00  0.00     0.009 A 
ATOM     21  C   UNL     1      -5.636  -4.727   7.882  1.00  0.00     0.001 A 
ATOM     22  C   UNL     1      -6.699  -3.189   9.382  1.00  0.00     0.001 A 
ATOM     23  C   UNL     1      -5.572  -3.599   8.675  1.00  0.00     0.000 A 
ENDBRANCH   8  18
ENDBRANCH   3   8
ENDBRANCH   1   2
BRANCH   1  24
ATOM     24  C   UNL     1     -12.750  -4.576   3.000  1.00  0.00     0.290 C 
BRANCH  24  25
ATOM     25  C   UNL     1     -13.556  -5.550   2.181  1.00  0.00     0.303 C 
BRANCH  25  26
ATOM     26  N   UNL     1     -14.434  -4.904   1.252  1.00  0.00    -0.337 N 
ATOM     27  C   UNL     1     -14.663  -5.673   0.048  1.00  0.00     0.332 C 
ATOM     28  C   UNL     1     -13.958  -3.599   0.841  1.00  0.00     0.332 C 
ATOM     29  H   UNL     1     -15.392  -4.734   1.680  1.00  0.00     0.347 HD
ENDBRANCH  25  26
ENDBRANCH  24  25
ENDBRANCH   1  24
TORSDOF 8
ENDMDL
MODEL 9
REMARK VINA RESULT:      -5.2      3.156      6.841
REMARK SMILES CC/C(=C(\c1ccccc1)c1ccc(OCC[NH+](C)C)cc1)c1ccccc1
REMARK SMILES IDX 15 1 14 2 11 3 12 4 22 5 13 6 21 7 4 8 3 9 2 10 1 11 23 12
REMARK SMILES IDX 24 13 28 14 25 15 27 16 26 17 5 18 6 19 10 20 7 21 9 22 8 23
REMARK SMILES IDX 16 24 17 25 18 26 19 27 20 28
REMARK H PARENT 18 29
ROOT
ATOM      1  O   UNL     1     -12.380  -4.945   4.313  1.00  0.00    -0.488 OA
ENDROOT
BRANCH   1   2
ATOM      2  C   UNL     1     -11.544  -5.274   5.364  1.00  0.00     0.119 A 
ATOM      3  C   UNL     1      -9.885  -5.892   7.606  1.00  0.00    -0.017 A 
ATOM      4  C   UNL     1      -9.650  -6.431   6.356  1.00  0.00     0.012 A 
ATOM      5  C   UNL     1     -10.974  -5.032   7.701  1.00  0.00     0.012 A 
ATOM      6  C   UNL     1     -10.464  -6.122   5.278  1.00  0.00     0.047 A 
ATOM      7  C   UNL     1     -11.778  -4.728   6.635  1.00  0.00     0.047 A 
BRANCH   3   8
ATOM      8  C   UNL     1      -9.035  -6.179   8.747  1.00  0.00    -0.007 C 
ATOM      9  C   UNL     1      -9.396  -6.984   9.713  1.00  0.00    -0.033 C 
BRANCH   9  10
ATOM     10  C   UNL     1      -8.586  -7.277  10.927  1.00  0.00     0.033 C 
ATOM     11  C   UNL     1      -7.868  -8.579  10.730  1.00  0.00     0.009 C 
ENDBRANCH   9  10
BRANCH   9  12
ATOM     12  C   UNL     1     -10.657  -7.745   9.635  1.00  0.00    -0.022 A 
ATOM     13  C   UNL     1     -11.736  -7.446  10.426  1.00  0.00     0.008 A 
ATOM     14  C   UNL     1     -10.731  -8.779   8.752  1.00  0.00     0.008 A 
ATOM     15  C   UNL     1     -12.883  -8.192  10.322  1.00  0.00     0.001 A 
ATOM     16  C   UNL     1     -11.879  -9.565   8.614  1.00  0.00     0.001 A 
ATOM     17  C   UNL     1     -12.946  -9.241   9.420  1.00  0.00     0.000 A 
ENDBRANCH   9  12
BRANCH   8  18
ATOM     18  C   UNL     1      -7.753  -5.509   8.823  1.00  0.00    -0.018 A 
ATOM     19  C   UNL     1      -6.594  -6.075   8.329  1.00  0.00     0.009 A 
ATOM     20  C   UNL     1      -7.662  -4.273   9.456  1.00  0.00     0.009 A 
ATOM     21  C   UNL     1      -5.405  -5.409   8.476  1.00  0.00     0.001 A 
ATOM     22  C   UNL     1      -6.478  -3.590   9.611  1.00  0.00     0.001 A 
ATOM     23  C   UNL     1      -5.325  -4.181   9.104  1.00  0.00     0.000 A 
ENDBRANCH   8  18
ENDBRANCH   3   8
ENDBRANCH   1   2
BRANCH   1  24
ATOM     24  C   UNL     1     -13.016  -5.786   3.417  1.00  0.00     0.290 C 
BRANCH  24  25
ATOM     25  C   UNL     1     -14.097  -5.153   2.580  1.00  0.00     0.303 C 
BRANCH  25  26
ATOM     26  N   UNL     1     -13.984  -5.472   1.189  1.00  0.00    -0.337 N 
ATOM     27  C   UNL     1     -14.927  -4.757   0.356  1.00  0.00     0.332 C 
ATOM     28  C   UNL     1     -14.162  -6.884   0.919  1.00  0.00     0.332 C 
ATOM     29  H   UNL     1     -13.019  -5.231   0.814  1.00  0.00     0.347 HD
ENDBRANCH  25  26
ENDBRANCH  24  25
ENDBRANCH   1  24
TORSDOF 8
ENDMDL
