MODEL 1
REMARK VINA RESULT:      -5.1      0.000      0.000
REMARK SMILES CCOC(=O)C1=C(C)[NH2+]C(C)=C(C(=O)OC)C1c1cccc(Cl)c1Cl
REMARK SMILES IDX 6 1 7 2 8 3 9 4 10 5 11 6 12 7 17 8 4 11 5 12 3 13 2 14 1 15
REMARK SMILES IDX 18 16 19 17 24 18 20 19 22 20 21 21 25 22 23 23 13 24 14 25
REMARK SMILES IDX 15 26 16 27
REMARK H PARENT 9 9 9 10
ROOT
ATOM      1  C   UNL     1      70.401 113.356 122.147  1.00  0.00     0.106 C 
ATOM      2  C   UNL     1      70.835 113.268 123.385  1.00  0.00     0.119 C 
ATOM      3  C   UNL     1      72.121 113.864 123.800  1.00  0.00     0.112 C 
ATOM      4  N   UNL     1      70.051 112.583 124.351  1.00  0.00    -0.288 N 
ATOM      5  C   UNL     1      69.656 111.341 123.753  1.00  0.00     0.119 C 
ATOM      6  C   UNL     1      69.803 110.090 124.499  1.00  0.00     0.112 C 
ATOM      7  C   UNL     1      69.168 111.386 122.530  1.00  0.00     0.106 C 
ATOM      8  C   UNL     1      69.051 112.702 121.838  1.00  0.00     0.107 C 
ATOM      9  H   UNL     1      69.182 113.118 124.514  1.00  0.00     0.357 HD
ATOM     10  H   UNL     1      70.588 112.409 125.236  1.00  0.00     0.357 HD
ENDROOT
BRANCH   1  11
ATOM     11  C   UNL     1      71.127 114.030 121.103  1.00  0.00     0.340 C 
ATOM     12  O   UNL     1      71.366 113.401 120.035  1.00  0.00    -0.246 OA
BRANCH  11  13
ATOM     13  O   UNL     1      71.580 115.332 121.208  1.00  0.00    -0.462 OA
BRANCH  13  14
ATOM     14  C   UNL     1      72.398 115.870 120.166  1.00  0.00     0.230 C 
ATOM     15  C   UNL     1      73.842 115.912 120.554  1.00  0.00     0.049 C 
ENDBRANCH  13  14
ENDBRANCH  11  13
ENDBRANCH   1  11
BRANCH   8  16
ATOM     16  C   UNL     1      68.010 113.589 122.397  1.00  0.00    -0.015 A 
ATOM     17  C   UNL     1      67.483 113.228 123.631  1.00  0.00     0.006 A 
ATOM     18  C   UNL     1      67.533 114.737 121.848  1.00  0.00     0.063 A 
ATOM     19  C   UNL     1      66.533 113.999 124.252  1.00  0.00     0.002 A 
ATOM     20  C   UNL     1      66.564 115.534 122.470  1.00  0.00     0.059 A 
ATOM     21  C   UNL     1      66.056 115.159 123.690  1.00  0.00     0.022 A 
ATOM     22  Cl  UNL     1      68.125 115.241 120.308  1.00  0.00    -0.082 Cl
ATOM     23  Cl  UNL     1      66.021 116.994 121.672  1.00  0.00    -0.083 Cl
ENDBRANCH   8  16
BRANCH   7  24
ATOM     24  C   UNL     1      68.746 110.175 121.844  1.00  0.00     0.340 C 
ATOM     25  O   UNL     1      69.494 109.612 120.991  1.00  0.00    -0.246 OA
BRANCH  24  26
ATOM     26  O   UNL     1      67.524 109.555 122.057  1.00  0.00    -0.465 OA
ATOM     27  C   UNL     1      67.125 108.388 121.368  1.00  0.00     0.282 C 
ENDBRANCH  24  26
ENDBRANCH   7  24
TORSDOF 6
ENDMDL
MODEL 2
REMARK VINA RESULT:      -4.9     20.797     22.261
REMARK SMILES CCOC(=O)C1=C(C)[NH2+]C(C)=C(C(=O)OC)C1c1cccc(Cl)c1Cl
REMARK SMILES IDX 6 1 7 2 8 3 9 4 10 5 11 6 12 7 17 8 4 11 5 12 3 13 2 14 1 15
REMARK SMILES IDX 18 16 19 17 24 18 20 19 22 20 21 21 25 22 23 23 13 24 14 25
REMARK SMILES IDX 15 26 16 27
REMARK H PARENT 9 9 9 10
ROOT
ATOM      1  C   UNL     1      85.942 109.947 109.261  1.00  0.00     0.106 C 
ATOM      2  C   UNL     1      86.918 110.296 108.453  1.00  0.00     0.119 C 
ATOM      3  C   UNL     1      88.002 111.200 108.890  1.00  0.00     0.112 C 
ATOM      4  N   UNL     1      86.936 109.793 107.124  1.00  0.00    -0.288 N 
ATOM      5  C   UNL     1      85.614 109.975 106.599  1.00  0.00     0.119 C 
ATOM      6  C   UNL     1      85.429 110.564 105.272  1.00  0.00     0.112 C 
ATOM      7  C   UNL     1      84.605 109.593 107.355  1.00  0.00     0.106 C 
ATOM      8  C   UNL     1      84.879 109.001 108.695  1.00  0.00     0.107 C 
ATOM      9  H   UNL     1      87.100 108.773 107.158  1.00  0.00     0.357 HD
ATOM     10  H   UNL     1      87.639 110.294 106.528  1.00  0.00     0.357 HD
ENDROOT
BRANCH   1  11
ATOM     11  C   UNL     1      85.843 110.407 110.621  1.00  0.00     0.340 C 
ATOM     12  O   UNL     1      85.534 111.614 110.826  1.00  0.00    -0.246 OA
BRANCH  11  13
ATOM     13  O   UNL     1      86.070 109.597 111.718  1.00  0.00    -0.462 OA
BRANCH  13  14
ATOM     14  C   UNL     1      87.413 109.235 112.049  1.00  0.00     0.230 C 
ATOM     15  C   UNL     1      87.511 107.814 112.510  1.00  0.00     0.049 C 
ENDBRANCH  13  14
ENDBRANCH  11  13
ENDBRANCH   1  11
BRANCH   8  16
ATOM     16  C   UNL     1      85.487 107.655 108.649  1.00  0.00    -0.015 A 
ATOM     17  C   UNL     1      86.858 107.585 108.866  1.00  0.00     0.006 A 
ATOM     18  C   UNL     1      84.845 106.474 108.448  1.00  0.00     0.063 A 
ATOM     19  C   UNL     1      87.516 106.381 108.873  1.00  0.00     0.002 A 
ATOM     20  C   UNL     1      85.504 105.238 108.453  1.00  0.00     0.059 A 
ATOM     21  C   UNL     1      86.859 105.191 108.669  1.00  0.00     0.022 A 
ATOM     22  Cl  UNL     1      83.146 106.481 108.153  1.00  0.00    -0.082 Cl
ATOM     23  Cl  UNL     1      84.578 103.778 108.184  1.00  0.00    -0.083 Cl
ENDBRANCH   8  16
BRANCH   7  24
ATOM     24  C   UNL     1      83.230 109.744 106.905  1.00  0.00     0.340 C 
ATOM     25  O   UNL     1      82.494 110.674 107.349  1.00  0.00    -0.246 OA
BRANCH  24  26
ATOM     26  O   UNL     1      82.625 108.904 105.981  1.00  0.00    -0.465 OA
ATOM     27  C   UNL     1      81.227 108.705 105.925  1.00  0.00     0.282 C 
ENDBRANCH  24  26
ENDBRANCH   7  24
TORSDOF 6
ENDMDL
MODEL 3
REMARK VINA RESULT:      -4.8     19.491     21.326
REMARK SMILES CCOC(=O)C1=C(C)[NH2+]C(C)=C(C(=O)OC)C1c1cccc(Cl)c1Cl
REMARK SMILES IDX 6 1 7 2 8 3 9 4 10 5 11 6 12 7 17 8 4 11 5 12 3 13 2 14 1 15
REMARK SMILES IDX 18 16 19 17 24 18 20 19 22 20 21 21 25 22 23 23 13 24 14 25
REMARK SMILES IDX 15 26 16 27
REMARK H PARENT 9 9 9 10
ROOT
ATOM      1  C   UNL     1      81.885 108.128 107.268  1.00  0.00     0.106 C 
ATOM      2  C   UNL     1      82.151 108.160 105.981  1.00  0.00     0.119 C 
ATOM      3  C   UNL     1      81.080 108.109 104.965  1.00  0.00     0.112 C 
ATOM      4  N   UNL     1      83.503 108.245 105.551  1.00  0.00    -0.288 N 
ATOM      5  C   UNL     1      84.234 107.266 106.302  1.00  0.00     0.119 C 
ATOM      6  C   UNL     1      85.157 106.358 105.619  1.00  0.00     0.112 C 
ATOM      7  C   UNL     1      84.036 107.230 107.604  1.00  0.00     0.106 C 
ATOM      8  C   UNL     1      83.079 108.191 108.224  1.00  0.00     0.107 C 
ATOM      9  H   UNL     1      83.881 109.166 105.826  1.00  0.00     0.357 HD
ATOM     10  H   UNL     1      83.597 108.062 104.522  1.00  0.00     0.357 HD
ENDROOT
BRANCH   1  11
ATOM     11  C   UNL     1      80.548 108.042 107.793  1.00  0.00     0.340 C 
ATOM     12  O   UNL     1      79.957 109.113 108.109  1.00  0.00    -0.246 OA
BRANCH  11  13
ATOM     13  O   UNL     1      79.873 106.849 107.973  1.00  0.00    -0.462 OA
BRANCH  13  14
ATOM     14  C   UNL     1      80.625 105.648 108.168  1.00  0.00     0.230 C 
ATOM     15  C   UNL     1      79.758 104.514 108.619  1.00  0.00     0.049 C 
ENDBRANCH  13  14
ENDBRANCH  11  13
ENDBRANCH   1  11
BRANCH   8  16
ATOM     16  C   UNL     1      83.547 109.592 108.230  1.00  0.00    -0.015 A 
ATOM     17  C   UNL     1      82.861 110.479 107.409  1.00  0.00     0.006 A 
ATOM     18  C   UNL     1      84.556 110.114 108.976  1.00  0.00     0.063 A 
ATOM     19  C   UNL     1      83.197 111.809 107.364  1.00  0.00     0.002 A 
ATOM     20  C   UNL     1      84.909 111.468 108.939  1.00  0.00     0.059 A 
ATOM     21  C   UNL     1      84.219 112.329 108.120  1.00  0.00     0.022 A 
ATOM     22  Cl  UNL     1      85.466 109.071 110.005  1.00  0.00    -0.082 Cl
ATOM     23  Cl  UNL     1      86.227 112.034 109.943  1.00  0.00    -0.083 Cl
ENDBRANCH   8  16
BRANCH   7  24
ATOM     24  C   UNL     1      84.732 106.268 108.444  1.00  0.00     0.340 C 
ATOM     25  O   UNL     1      84.094 105.411 109.125  1.00  0.00    -0.246 OA
BRANCH  24  26
ATOM     26  O   UNL     1      86.112 106.211 108.570  1.00  0.00    -0.465 OA
ATOM     27  C   UNL     1      86.758 105.614 109.676  1.00  0.00     0.282 C 
ENDBRANCH  24  26
ENDBRANCH   7  24
TORSDOF 6
ENDMDL
MODEL 4
REMARK VINA RESULT:      -4.7      2.433      5.671
REMARK SMILES CCOC(=O)C1=C(C)[NH2+]C(C)=C(C(=O)OC)C1c1cccc(Cl)c1Cl
REMARK SMILES IDX 6 1 7 2 8 3 9 4 10 5 11 6 12 7 17 8 4 11 5 12 3 13 2 14 1 15
REMARK SMILES IDX 18 16 19 17 24 18 20 19 22 20 21 21 25 22 23 23 13 24 14 25
REMARK SMILES IDX 15 26 16 27
REMARK H PARENT 9 9 9 10
ROOT
ATOM      1  C   UNL     1      67.814 111.006 121.300  1.00  0.00     0.106 C 
ATOM      2  C   UNL     1      67.006 111.091 122.333  1.00  0.00     0.119 C 
ATOM      3  C   UNL     1      66.131 109.969 122.729  1.00  0.00     0.112 C 
ATOM      4  N   UNL     1      66.969 112.292 123.091  1.00  0.00    -0.288 N 
ATOM      5  C   UNL     1      66.872 113.369 122.149  1.00  0.00     0.119 C 
ATOM      6  C   UNL     1      65.884 114.430 122.350  1.00  0.00     0.112 C 
ATOM      7  C   UNL     1      67.697 113.351 121.122  1.00  0.00     0.106 C 
ATOM      8  C   UNL     1      68.676 112.233 120.991  1.00  0.00     0.107 C 
ATOM      9  H   UNL     1      67.875 112.407 123.575  1.00  0.00     0.357 HD
ATOM     10  H   UNL     1      66.155 112.310 123.753  1.00  0.00     0.357 HD
ENDROOT
BRANCH   1  11
ATOM     11  C   UNL     1      67.917 109.830 120.476  1.00  0.00     0.340 C 
ATOM     12  O   UNL     1      67.269 109.797 119.392  1.00  0.00    -0.246 OA
BRANCH  11  13
ATOM     13  O   UNL     1      68.688 108.731 120.808  1.00  0.00    -0.462 OA
BRANCH  13  14
ATOM     14  C   UNL     1      68.106 107.428 120.740  1.00  0.00     0.230 C 
ATOM     15  C   UNL     1      67.802 106.880 122.099  1.00  0.00     0.049 C 
ENDBRANCH  13  14
ENDBRANCH  11  13
ENDBRANCH   1  11
BRANCH   8  16
ATOM     16  C   UNL     1      69.760 112.257 121.994  1.00  0.00    -0.015 A 
ATOM     17  C   UNL     1      69.679 111.321 123.018  1.00  0.00     0.006 A 
ATOM     18  C   UNL     1      70.845 113.075 122.006  1.00  0.00     0.063 A 
ATOM     19  C   UNL     1      70.651 111.239 123.984  1.00  0.00     0.002 A 
ATOM     20  C   UNL     1      71.843 113.002 122.985  1.00  0.00     0.059 A 
ATOM     21  C   UNL     1      71.744 112.071 123.989  1.00  0.00     0.022 A 
ATOM     22  Cl  UNL     1      71.006 114.276 120.778  1.00  0.00    -0.082 Cl
ATOM     23  Cl  UNL     1      73.199 114.106 122.904  1.00  0.00    -0.083 Cl
ENDBRANCH   8  16
BRANCH   7  24
ATOM     24  C   UNL     1      67.667 114.400 120.116  1.00  0.00     0.340 C 
ATOM     25  O   UNL     1      68.297 115.487 120.284  1.00  0.00    -0.246 OA
BRANCH  24  26
ATOM     26  O   UNL     1      66.964 114.305 118.924  1.00  0.00    -0.465 OA
ATOM     27  C   UNL     1      66.952 113.135 118.132  1.00  0.00     0.282 C 
ENDBRANCH  24  26
ENDBRANCH   7  24
TORSDOF 6
ENDMDL
MODEL 5
REMARK VINA RESULT:      -4.7     20.864     22.191
REMARK SMILES CCOC(=O)C1=C(C)[NH2+]C(C)=C(C(=O)OC)C1c1cccc(Cl)c1Cl
REMARK SMILES IDX 6 1 7 2 8 3 9 4 10 5 11 6 12 7 17 8 4 11 5 12 3 13 2 14 1 15
REMARK SMILES IDX 18 16 19 17 24 18 20 19 22 20 21 21 25 22 23 23 13 24 14 25
REMARK SMILES IDX 15 26 16 27
REMARK H PARENT 9 9 9 10
ROOT
ATOM      1  C   UNL     1      85.421 108.987 107.889  1.00  0.00     0.106 C 
ATOM      2  C   UNL     1      86.417 108.985 107.031  1.00  0.00     0.119 C 
ATOM      3  C   UNL     1      87.401 107.883 106.986  1.00  0.00     0.112 C 
ATOM      4  N   UNL     1      86.556 110.068 106.122  1.00  0.00    -0.288 N 
ATOM      5  C   UNL     1      86.415 111.270 106.893  1.00  0.00     0.119 C 
ATOM      6  C   UNL     1      87.377 112.360 106.729  1.00  0.00     0.112 C 
ATOM      7  C   UNL     1      85.401 111.336 107.731  1.00  0.00     0.106 C 
ATOM      8  C   UNL     1      84.464 110.181 107.838  1.00  0.00     0.107 C 
ATOM      9  H   UNL     1      85.762 110.050 105.461  1.00  0.00     0.357 HD
ATOM     10  H   UNL     1      87.485 110.052 105.636  1.00  0.00     0.357 HD
ENDROOT
BRANCH   1  11
ATOM     11  C   UNL     1      85.203 107.932 108.845  1.00  0.00     0.340 C 
ATOM     12  O   UNL     1      84.366 107.030 108.563  1.00  0.00    -0.246 OA
BRANCH  11  13
ATOM     13  O   UNL     1      85.861 107.855 110.058  1.00  0.00    -0.462 OA
BRANCH  13  14
ATOM     14  C   UNL     1      86.075 109.051 110.811  1.00  0.00     0.230 C 
ATOM     15  C   UNL     1      86.756 108.776 112.115  1.00  0.00     0.049 C 
ENDBRANCH  13  14
ENDBRANCH  11  13
ENDBRANCH   1  11
BRANCH   8  16
ATOM     16  C   UNL     1      83.605 109.987 106.652  1.00  0.00    -0.015 A 
ATOM     17  C   UNL     1      84.084 110.490 105.448  1.00  0.00     0.006 A 
ATOM     18  C   UNL     1      82.409 109.343 106.605  1.00  0.00     0.063 A 
ATOM     19  C   UNL     1      83.377 110.337 104.282  1.00  0.00     0.002 A 
ATOM     20  C   UNL     1      81.677 109.179 105.423  1.00  0.00     0.059 A 
ATOM     21  C   UNL     1      82.168 109.684 104.244  1.00  0.00     0.022 A 
ATOM     22  Cl  UNL     1      81.739 108.708 108.062  1.00  0.00    -0.082 Cl
ATOM     23  Cl  UNL     1      80.147 108.331 105.477  1.00  0.00    -0.083 Cl
ENDBRANCH   8  16
BRANCH   7  24
ATOM     24  C   UNL     1      85.183 112.514 108.555  1.00  0.00     0.340 C 
ATOM     25  O   UNL     1      84.207 113.292 108.339  1.00  0.00    -0.246 OA
BRANCH  24  26
ATOM     26  O   UNL     1      86.004 112.878 109.612  1.00  0.00    -0.465 OA
ATOM     27  C   UNL     1      87.159 112.148 109.973  1.00  0.00     0.282 C 
ENDBRANCH  24  26
ENDBRANCH   7  24
TORSDOF 6
ENDMDL
MODEL 6
REMARK VINA RESULT:      -4.7      7.351      9.796
REMARK SMILES CCOC(=O)C1=C(C)[NH2+]C(C)=C(C(=O)OC)C1c1cccc(Cl)c1Cl
REMARK SMILES IDX 6 1 7 2 8 3 9 4 10 5 11 6 12 7 17 8 4 11 5 12 3 13 2 14 1 15
REMARK SMILES IDX 18 16 19 17 24 18 20 19 22 20 21 21 25 22 23 23 13 24 14 25
REMARK SMILES IDX 15 26 16 27
REMARK H PARENT 9 9 9 10
ROOT
ATOM      1  C   UNL     1      69.860 122.664 119.022  1.00  0.00     0.106 C 
ATOM      2  C   UNL     1      70.983 123.298 119.277  1.00  0.00     0.119 C 
ATOM      3  C   UNL     1      71.516 124.330 118.366  1.00  0.00     0.112 C 
ATOM      4  N   UNL     1      71.707 122.984 120.459  1.00  0.00    -0.288 N 
ATOM      5  C   UNL     1      71.783 121.553 120.526  1.00  0.00     0.119 C 
ATOM      6  C   UNL     1      73.062 120.901 120.807  1.00  0.00     0.112 C 
ATOM      7  C   UNL     1      70.670 120.877 120.325  1.00  0.00     0.106 C 
ATOM      8  C   UNL     1      69.406 121.618 120.044  1.00  0.00     0.107 C 
ATOM      9  H   UNL     1      71.152 123.285 121.277  1.00  0.00     0.357 HD
ATOM     10  H   UNL     1      72.669 123.402 120.449  1.00  0.00     0.357 HD
ENDROOT
BRANCH   1  11
ATOM     11  C   UNL     1      69.062 122.917 117.851  1.00  0.00     0.340 C 
ATOM     12  O   UNL     1      69.575 122.702 116.717  1.00  0.00    -0.246 OA
BRANCH  11  13
ATOM     13  O   UNL     1      67.762 123.384 117.900  1.00  0.00    -0.462 OA
BRANCH  13  14
ATOM     14  C   UNL     1      67.487 124.605 118.591  1.00  0.00     0.230 C 
ATOM     15  C   UNL     1      66.022 124.905 118.634  1.00  0.00     0.049 C 
ENDBRANCH  13  14
ENDBRANCH  11  13
ENDBRANCH   1  11
BRANCH   8  16
ATOM     16  C   UNL     1      68.868 122.360 121.203  1.00  0.00    -0.015 A 
ATOM     17  C   UNL     1      69.149 123.720 121.255  1.00  0.00     0.006 A 
ATOM     18  C   UNL     1      68.103 121.861 122.209  1.00  0.00     0.063 A 
ATOM     19  C   UNL     1      68.672 124.505 122.274  1.00  0.00     0.002 A 
ATOM     20  C   UNL     1      67.609 122.651 123.255  1.00  0.00     0.059 A 
ATOM     21  C   UNL     1      67.899 123.993 123.288  1.00  0.00     0.022 A 
ATOM     22  Cl  UNL     1      67.728 120.177 122.224  1.00  0.00    -0.082 Cl
ATOM     23  Cl  UNL     1      66.631 121.904 124.499  1.00  0.00    -0.083 Cl
ENDBRANCH   8  16
BRANCH   7  24
ATOM     24  C   UNL     1      70.654 119.424 120.370  1.00  0.00     0.340 C 
ATOM     25  O   UNL     1      69.570 118.778 120.267  1.00  0.00    -0.246 OA
BRANCH  24  26
ATOM     26  O   UNL     1      71.792 118.646 120.528  1.00  0.00    -0.465 OA
ATOM     27  C   UNL     1      71.881 117.314 120.064  1.00  0.00     0.282 C 
ENDBRANCH  24  26
ENDBRANCH   7  24
TORSDOF 6
ENDMDL
MODEL 7
REMARK VINA RESULT:      -4.7     19.620     21.418
REMARK SMILES CCOC(=O)C1=C(C)[NH2+]C(C)=C(C(=O)OC)C1c1cccc(Cl)c1Cl
REMARK SMILES IDX 6 1 7 2 8 3 9 4 10 5 11 6 12 7 17 8 4 11 5 12 3 13 2 14 1 15
REMARK SMILES IDX 18 16 19 17 24 18 20 19 22 20 21 21 25 22 23 23 13 24 14 25
REMARK SMILES IDX 15 26 16 27
REMARK H PARENT 9 9 9 10
ROOT
ATOM      1  C   UNL     1      84.010 109.920 106.842  1.00  0.00     0.106 C 
ATOM      2  C   UNL     1      83.813 110.824 107.776  1.00  0.00     0.119 C 
ATOM      3  C   UNL     1      83.796 112.268 107.467  1.00  0.00     0.112 C 
ATOM      4  N   UNL     1      83.613 110.405 109.119  1.00  0.00    -0.288 N 
ATOM      5  C   UNL     1      84.637 109.442 109.405  1.00  0.00     0.119 C 
ATOM      6  C   UNL     1      85.412 109.545 110.642  1.00  0.00     0.112 C 
ATOM      7  C   UNL     1      84.835 108.488 108.519  1.00  0.00     0.106 C 
ATOM      8  C   UNL     1      84.002 108.454 107.283  1.00  0.00     0.107 C 
ATOM      9  H   UNL     1      82.713 109.901 109.178  1.00  0.00     0.357 HD
ATOM     10  H   UNL     1      83.669 111.210 109.790  1.00  0.00     0.357 HD
ENDROOT
BRANCH   1  11
ATOM     11  C   UNL     1      84.221 110.252 105.457  1.00  0.00     0.340 C 
ATOM     12  O   UNL     1      83.233 110.206 104.671  1.00  0.00    -0.246 OA
BRANCH  11  13
ATOM     13  O   UNL     1      85.449 110.619 104.939  1.00  0.00    -0.462 OA
BRANCH  13  14
ATOM     14  C   UNL     1      86.632 109.999 105.449  1.00  0.00     0.230 C 
ATOM     15  C   UNL     1      87.398 110.914 106.352  1.00  0.00     0.049 C 
ENDBRANCH  13  14
ENDBRANCH  11  13
ENDBRANCH   1  11
BRANCH   8  16
ATOM     16  C   UNL     1      82.589 108.086 107.515  1.00  0.00    -0.015 A 
ATOM     17  C   UNL     1      81.669 109.127 107.516  1.00  0.00     0.006 A 
ATOM     18  C   UNL     1      82.090 106.836 107.698  1.00  0.00     0.063 A 
ATOM     19  C   UNL     1      80.329 108.890 107.693  1.00  0.00     0.002 A 
ATOM     20  C   UNL     1      80.725 106.580 107.879  1.00  0.00     0.059 A 
ATOM     21  C   UNL     1      79.832 107.623 107.877  1.00  0.00     0.022 A 
ATOM     22  Cl  UNL     1      83.173 105.494 107.728  1.00  0.00    -0.082 Cl
ATOM     23  Cl  UNL     1      80.190 104.928 108.106  1.00  0.00    -0.083 Cl
ENDBRANCH   8  16
BRANCH   7  24
ATOM     24  C   UNL     1      85.854 107.472 108.725  1.00  0.00     0.340 C 
ATOM     25  O   UNL     1      86.952 107.508 108.093  1.00  0.00    -0.246 OA
BRANCH  24  26
ATOM     26  O   UNL     1      85.714 106.406 109.601  1.00  0.00    -0.465 OA
ATOM     27  C   UNL     1      86.721 106.027 110.517  1.00  0.00     0.282 C 
ENDBRANCH  24  26
ENDBRANCH   7  24
TORSDOF 6
ENDMDL
MODEL 8
REMARK VINA RESULT:      -4.6     20.523     22.641
REMARK SMILES CCOC(=O)C1=C(C)[NH2+]C(C)=C(C(=O)OC)C1c1cccc(Cl)c1Cl
REMARK SMILES IDX 6 1 7 2 8 3 9 4 10 5 11 6 12 7 17 8 4 11 5 12 3 13 2 14 1 15
REMARK SMILES IDX 18 16 19 17 24 18 20 19 22 20 21 21 25 22 23 23 13 24 14 25
REMARK SMILES IDX 15 26 16 27
REMARK H PARENT 9 9 9 10
ROOT
ATOM      1  C   UNL     1      84.741 111.009 107.926  1.00  0.00     0.106 C 
ATOM      2  C   UNL     1      84.903 109.962 108.704  1.00  0.00     0.119 C 
ATOM      3  C   UNL     1      84.823 110.070 110.175  1.00  0.00     0.112 C 
ATOM      4  N   UNL     1      85.162 108.693 108.120  1.00  0.00    -0.288 N 
ATOM      5  C   UNL     1      86.193 108.894 107.144  1.00  0.00     0.119 C 
ATOM      6  C   UNL     1      87.347 107.995 107.104  1.00  0.00     0.112 C 
ATOM      7  C   UNL     1      86.049 109.903 106.309  1.00  0.00     0.106 C 
ATOM      8  C   UNL     1      84.842 110.773 106.416  1.00  0.00     0.107 C 
ATOM      9  H   UNL     1      84.322 108.390 107.600  1.00  0.00     0.357 HD
ATOM     10  H   UNL     1      85.467 107.990 108.836  1.00  0.00     0.357 HD
ENDROOT
BRANCH   1  11
ATOM     11  C   UNL     1      84.476 112.331 108.429  1.00  0.00     0.340 C 
ATOM     12  O   UNL     1      83.305 112.791 108.321  1.00  0.00    -0.246 OA
BRANCH  11  13
ATOM     13  O   UNL     1      85.437 113.128 109.025  1.00  0.00    -0.462 OA
BRANCH  13  14
ATOM     14  C   UNL     1      86.752 113.167 108.466  1.00  0.00     0.230 C 
ATOM     15  C   UNL     1      87.731 112.389 109.287  1.00  0.00     0.049 C 
ENDBRANCH  13  14
ENDBRANCH  11  13
ENDBRANCH   1  11
BRANCH   8  16
ATOM     16  C   UNL     1      83.584 110.117 106.003  1.00  0.00    -0.015 A 
ATOM     17  C   UNL     1      82.762 109.653 107.022  1.00  0.00     0.006 A 
ATOM     18  C   UNL     1      83.131 109.946 104.733  1.00  0.00     0.063 A 
ATOM     19  C   UNL     1      81.557 109.055 106.747  1.00  0.00     0.002 A 
ATOM     20  C   UNL     1      81.904 109.338 104.438  1.00  0.00     0.059 A 
ATOM     21  C   UNL     1      81.106 108.885 105.460  1.00  0.00     0.022 A 
ATOM     22  Cl  UNL     1      84.105 110.479 103.414  1.00  0.00    -0.082 Cl
ATOM     23  Cl  UNL     1      81.417 109.169 102.765  1.00  0.00    -0.083 Cl
ENDBRANCH   8  16
BRANCH   7  24
ATOM     24  C   UNL     1      87.047 110.183 105.290  1.00  0.00     0.340 C 
ATOM     25  O   UNL     1      87.906 111.100 105.450  1.00  0.00    -0.246 OA
BRANCH  24  26
ATOM     26  O   UNL     1      87.137 109.494 104.089  1.00  0.00    -0.465 OA
ATOM     27  C   UNL     1      87.910 109.951 102.998  1.00  0.00     0.282 C 
ENDBRANCH  24  26
ENDBRANCH   7  24
TORSDOF 6
ENDMDL
MODEL 9
REMARK VINA RESULT:      -4.5     20.409     21.841
REMARK SMILES CCOC(=O)C1=C(C)[NH2+]C(C)=C(C(=O)OC)C1c1cccc(Cl)c1Cl
REMARK SMILES IDX 6 1 7 2 8 3 9 4 10 5 11 6 12 7 17 8 4 11 5 12 3 13 2 14 1 15
REMARK SMILES IDX 18 16 19 17 24 18 20 19 22 20 21 21 25 22 23 23 13 24 14 25
REMARK SMILES IDX 15 26 16 27
REMARK H PARENT 9 9 9 10
ROOT
ATOM      1  C   UNL     1      84.180 108.056 107.249  1.00  0.00     0.106 C 
ATOM      2  C   UNL     1      85.117 108.139 106.330  1.00  0.00     0.119 C 
ATOM      3  C   UNL     1      86.080 107.042 106.102  1.00  0.00     0.112 C 
ATOM      4  N   UNL     1      85.210 109.313 105.533  1.00  0.00    -0.288 N 
ATOM      5  C   UNL     1      85.137 110.426 106.434  1.00  0.00     0.119 C 
ATOM      6  C   UNL     1      86.101 111.521 106.323  1.00  0.00     0.112 C 
ATOM      7  C   UNL     1      84.182 110.410 107.342  1.00  0.00     0.106 C 
ATOM      8  C   UNL     1      83.239 109.256 107.389  1.00  0.00     0.107 C 
ATOM      9  H   UNL     1      84.373 109.370 104.929  1.00  0.00     0.357 HD
ATOM     10  H   UNL     1      86.104 109.342 104.986  1.00  0.00     0.357 HD
ENDROOT
BRANCH   1  11
ATOM     11  C   UNL     1      84.012 106.908 108.100  1.00  0.00     0.340 C 
ATOM     12  O   UNL     1      84.647 106.871 109.191  1.00  0.00    -0.246 OA
BRANCH  11  13
ATOM     13  O   UNL     1      83.193 105.840 107.786  1.00  0.00    -0.462 OA
BRANCH  13  14
ATOM     14  C   UNL     1      82.755 104.968 108.832  1.00  0.00     0.230 C 
ATOM     15  C   UNL     1      81.458 104.302 108.497  1.00  0.00     0.049 C 
ENDBRANCH  13  14
ENDBRANCH  11  13
ENDBRANCH   1  11
BRANCH   8  16
ATOM     16  C   UNL     1      82.299 109.195 106.250  1.00  0.00    -0.015 A 
ATOM     17  C   UNL     1      82.695 109.839 105.084  1.00  0.00     0.006 A 
ATOM     18  C   UNL     1      81.103 108.551 106.210  1.00  0.00     0.063 A 
ATOM     19  C   UNL     1      81.908 109.818 103.959  1.00  0.00     0.002 A 
ATOM     20  C   UNL     1      80.292 108.521 105.069  1.00  0.00     0.059 A 
ATOM     21  C   UNL     1      80.700 109.165 103.927  1.00  0.00     0.022 A 
ATOM     22  Cl  UNL     1      80.536 107.744 107.625  1.00  0.00    -0.082 Cl
ATOM     23  Cl  UNL     1      78.769 107.659 105.129  1.00  0.00    -0.083 Cl
ENDBRANCH   8  16
BRANCH   7  24
ATOM     24  C   UNL     1      84.036 111.495 108.298  1.00  0.00     0.340 C 
ATOM     25  O   UNL     1      83.304 112.497 108.044  1.00  0.00    -0.246 OA
BRANCH  24  26
ATOM     26  O   UNL     1      84.670 111.526 109.532  1.00  0.00    -0.465 OA
ATOM     27  C   UNL     1      85.236 110.379 110.133  1.00  0.00     0.282 C 
ENDBRANCH  24  26
ENDBRANCH   7  24
TORSDOF 6
ENDMDL
