MODEL 1
REMARK VINA RESULT:      -6.8      0.000      0.000
REMARK SMILES O=C(/C=C/c1ccccc1)c1ccc(O)cc1
REMARK SMILES IDX 11 1 12 2 13 3 14 4 16 5 17 6 2 7 1 8 3 9 4 10 5 11 6 12
REMARK SMILES IDX 10 13 7 14 9 15 8 16 15 17
REMARK H PARENT 15 18
ROOT
ATOM      1  C   UNL     1      23.449  31.084  43.630  1.00  0.00     0.022 A 
ATOM      2  C   UNL     1      22.889  32.368  43.714  1.00  0.00     0.016 A 
ATOM      3  C   UNL     1      21.585  32.616  44.062  1.00  0.00     0.047 A 
ATOM      4  C   UNL     1      20.758  31.572  44.350  1.00  0.00     0.115 A 
ATOM      5  C   UNL     1      21.245  30.291  44.286  1.00  0.00     0.047 A 
ATOM      6  C   UNL     1      22.591  30.067  43.923  1.00  0.00     0.016 A 
ENDROOT
BRANCH   1   7
ATOM      7  C   UNL     1      24.810  30.958  43.202  1.00  0.00     0.185 C 
ATOM      8  O   UNL     1      24.969  30.307  42.052  1.00  0.00    -0.289 OA
BRANCH   7   9
ATOM      9  C   UNL     1      26.057  31.384  43.742  1.00  0.00     0.053 C 
ATOM     10  C   UNL     1      27.219  30.821  43.768  1.00  0.00     0.012 C 
BRANCH  10  11
ATOM     11  C   UNL     1      28.444  31.400  44.373  1.00  0.00    -0.026 A 
ATOM     12  C   UNL     1      29.019  30.808  45.443  1.00  0.00     0.008 A 
ATOM     13  C   UNL     1      28.990  32.540  43.839  1.00  0.00     0.008 A 
ATOM     14  C   UNL     1      30.171  31.372  45.993  1.00  0.00     0.001 A 
ATOM     15  C   UNL     1      30.124  33.083  44.392  1.00  0.00     0.001 A 
ATOM     16  C   UNL     1      30.736  32.508  45.480  1.00  0.00     0.000 A 
ENDBRANCH  10  11
ENDBRANCH   7   9
ENDBRANCH   1   7
BRANCH   4  17
ATOM     17  O   UNL     1      19.427  31.803  44.708  1.00  0.00    -0.508 OA
ATOM     18  H   UNL     1      19.168  32.393  45.492  1.00  0.00     0.293 HD
ENDBRANCH   4  17
TORSDOF 4
ENDMDL
MODEL 2
REMARK VINA RESULT:      -6.8      0.194      1.156
REMARK SMILES O=C(/C=C/c1ccccc1)c1ccc(O)cc1
REMARK SMILES IDX 11 1 12 2 13 3 14 4 16 5 17 6 2 7 1 8 3 9 4 10 5 11 6 12
REMARK SMILES IDX 10 13 7 14 9 15 8 16 15 17
REMARK H PARENT 15 18
ROOT
ATOM      1  C   UNL     1      23.585  30.983  43.595  1.00  0.00     0.022 A 
ATOM      2  C   UNL     1      23.088  32.285  43.760  1.00  0.00     0.016 A 
ATOM      3  C   UNL     1      21.785  32.575  44.078  1.00  0.00     0.047 A 
ATOM      4  C   UNL     1      20.895  31.557  44.251  1.00  0.00     0.115 A 
ATOM      5  C   UNL     1      21.320  30.261  44.103  1.00  0.00     0.047 A 
ATOM      6  C   UNL     1      22.667  29.994  43.773  1.00  0.00     0.016 A 
ENDROOT
BRANCH   1   7
ATOM      7  C   UNL     1      24.955  30.819  43.209  1.00  0.00     0.185 C 
ATOM      8  O   UNL     1      25.140  30.024  42.157  1.00  0.00    -0.289 OA
BRANCH   7   9
ATOM      9  C   UNL     1      26.188  31.327  43.707  1.00  0.00     0.053 C 
ATOM     10  C   UNL     1      27.349  30.781  43.847  1.00  0.00     0.012 C 
BRANCH  10  11
ATOM     11  C   UNL     1      28.559  31.450  44.385  1.00  0.00    -0.026 A 
ATOM     12  C   UNL     1      29.031  32.574  43.802  1.00  0.00     0.008 A 
ATOM     13  C   UNL     1      29.196  30.921  45.480  1.00  0.00     0.008 A 
ATOM     14  C   UNL     1      30.171  33.184  44.328  1.00  0.00     0.001 A 
ATOM     15  C   UNL     1      30.317  31.534  45.986  1.00  0.00     0.001 A 
ATOM     16  C   UNL     1      30.825  32.678  45.418  1.00  0.00     0.000 A 
ENDBRANCH  10  11
ENDBRANCH   7   9
ENDBRANCH   1   7
BRANCH   4  17
ATOM     17  O   UNL     1      19.564  31.830  44.577  1.00  0.00    -0.508 OA
ATOM     18  H   UNL     1      19.062  31.319  45.295  1.00  0.00     0.293 HD
ENDBRANCH   4  17
TORSDOF 4
ENDMDL
MODEL 3
REMARK VINA RESULT:      -6.7      0.231      1.158
REMARK SMILES O=C(/C=C/c1ccccc1)c1ccc(O)cc1
REMARK SMILES IDX 11 1 12 2 13 3 14 4 16 5 17 6 2 7 1 8 3 9 4 10 5 11 6 12
REMARK SMILES IDX 10 13 7 14 9 15 8 16 15 17
REMARK H PARENT 15 18
ROOT
ATOM      1  C   UNL     1      23.302  31.202  43.564  1.00  0.00     0.022 A 
ATOM      2  C   UNL     1      22.434  30.116  43.753  1.00  0.00     0.016 A 
ATOM      3  C   UNL     1      21.116  30.240  44.119  1.00  0.00     0.047 A 
ATOM      4  C   UNL     1      20.591  31.482  44.318  1.00  0.00     0.115 A 
ATOM      5  C   UNL     1      21.389  32.585  44.149  1.00  0.00     0.047 A 
ATOM      6  C   UNL     1      22.741  32.426  43.774  1.00  0.00     0.016 A 
ENDROOT
BRANCH   1   7
ATOM      7  C   UNL     1      24.670  30.934  43.235  1.00  0.00     0.185 C 
ATOM      8  O   UNL     1      24.841  30.225  42.121  1.00  0.00    -0.289 OA
BRANCH   7   9
ATOM      9  C   UNL     1      25.914  31.266  43.843  1.00  0.00     0.053 C 
ATOM     10  C   UNL     1      27.133  31.034  43.488  1.00  0.00     0.012 C 
BRANCH  10  11
ATOM     11  C   UNL     1      28.344  31.452  44.235  1.00  0.00    -0.026 A 
ATOM     12  C   UNL     1      28.756  30.749  45.313  1.00  0.00     0.008 A 
ATOM     13  C   UNL     1      29.046  32.559  43.824  1.00  0.00     0.008 A 
ATOM     14  C   UNL     1      29.898  31.164  45.999  1.00  0.00     0.001 A 
ATOM     15  C   UNL     1      30.168  32.954  44.510  1.00  0.00     0.001 A 
ATOM     16  C   UNL     1      30.615  32.263  45.611  1.00  0.00     0.000 A 
ENDBRANCH  10  11
ENDBRANCH   7   9
ENDBRANCH   1   7
BRANCH   4  17
ATOM     17  O   UNL     1      19.252  31.631  44.690  1.00  0.00    -0.508 OA
ATOM     18  H   UNL     1      18.522  31.010  44.357  1.00  0.00     0.293 HD
ENDBRANCH   4  17
TORSDOF 4
ENDMDL
MODEL 4
REMARK VINA RESULT:      -6.7      0.239      1.627
REMARK SMILES O=C(/C=C/c1ccccc1)c1ccc(O)cc1
REMARK SMILES IDX 11 1 12 2 13 3 14 4 16 5 17 6 2 7 1 8 3 9 4 10 5 11 6 12
REMARK SMILES IDX 10 13 7 14 9 15 8 16 15 17
REMARK H PARENT 15 18
ROOT
ATOM      1  C   UNL     1      23.246  31.269  43.587  1.00  0.00     0.022 A 
ATOM      2  C   UNL     1      22.416  30.205  43.974  1.00  0.00     0.016 A 
ATOM      3  C   UNL     1      21.109  30.354  44.367  1.00  0.00     0.047 A 
ATOM      4  C   UNL     1      20.555  31.599  44.393  1.00  0.00     0.115 A 
ATOM      5  C   UNL     1      21.316  32.681  44.027  1.00  0.00     0.047 A 
ATOM      6  C   UNL     1      22.658  32.497  43.629  1.00  0.00     0.016 A 
ENDROOT
BRANCH   1   7
ATOM      7  C   UNL     1      24.609  30.985  43.251  1.00  0.00     0.185 C 
ATOM      8  O   UNL     1      24.763  30.221  42.172  1.00  0.00    -0.289 OA
BRANCH   7   9
ATOM      9  C   UNL     1      25.861  31.347  43.822  1.00  0.00     0.053 C 
ATOM     10  C   UNL     1      27.058  30.903  43.622  1.00  0.00     0.012 C 
BRANCH  10  11
ATOM     11  C   UNL     1      28.283  31.390  44.301  1.00  0.00    -0.026 A 
ATOM     12  C   UNL     1      28.911  32.501  43.856  1.00  0.00     0.008 A 
ATOM     13  C   UNL     1      28.776  30.706  45.384  1.00  0.00     0.008 A 
ATOM     14  C   UNL     1      30.063  32.939  44.512  1.00  0.00     0.001 A 
ATOM     15  C   UNL     1      29.911  31.150  46.019  1.00  0.00     0.001 A 
ATOM     16  C   UNL     1      30.575  32.276  45.594  1.00  0.00     0.000 A 
ENDBRANCH  10  11
ENDBRANCH   7   9
ENDBRANCH   1   7
BRANCH   4  17
ATOM     17  O   UNL     1      19.226  31.772  44.789  1.00  0.00    -0.508 OA
ATOM     18  H   UNL     1      18.556  31.011  44.796  1.00  0.00     0.293 HD
ENDBRANCH   4  17
TORSDOF 4
ENDMDL
MODEL 5
REMARK VINA RESULT:      -6.6      2.935      7.662
REMARK SMILES O=C(/C=C/c1ccccc1)c1ccc(O)cc1
REMARK SMILES IDX 11 1 12 2 13 3 14 4 16 5 17 6 2 7 1 8 3 9 4 10 5 11 6 12
REMARK SMILES IDX 10 13 7 14 9 15 8 16 15 17
REMARK H PARENT 15 18
ROOT
ATOM      1  C   UNL     1      29.668  31.389  45.646  1.00  0.00     0.022 A 
ATOM      2  C   UNL     1      29.361  30.398  46.591  1.00  0.00     0.016 A 
ATOM      3  C   UNL     1      30.192  30.036  47.622  1.00  0.00     0.047 A 
ATOM      4  C   UNL     1      31.396  30.659  47.763  1.00  0.00     0.115 A 
ATOM      5  C   UNL     1      31.755  31.637  46.870  1.00  0.00     0.047 A 
ATOM      6  C   UNL     1      30.880  31.987  45.818  1.00  0.00     0.016 A 
ENDROOT
BRANCH   1   7
ATOM      7  C   UNL     1      28.737  31.636  44.586  1.00  0.00     0.185 C 
ATOM      8  O   UNL     1      29.219  32.374  43.589  1.00  0.00    -0.289 OA
BRANCH   7   9
ATOM      9  C   UNL     1      27.384  31.257  44.354  1.00  0.00     0.053 C 
ATOM     10  C   UNL     1      26.472  31.754  43.587  1.00  0.00     0.012 C 
BRANCH  10  11
ATOM     11  C   UNL     1      25.088  31.240  43.447  1.00  0.00    -0.026 A 
ATOM     12  C   UNL     1      24.822  30.224  42.596  1.00  0.00     0.008 A 
ATOM     13  C   UNL     1      24.077  31.802  44.187  1.00  0.00     0.008 A 
ATOM     14  C   UNL     1      23.511  29.758  42.483  1.00  0.00     0.001 A 
ATOM     15  C   UNL     1      22.792  31.332  44.064  1.00  0.00     0.001 A 
ATOM     16  C   UNL     1      22.486  30.301  43.209  1.00  0.00     0.000 A 
ENDBRANCH  10  11
ENDBRANCH   7   9
ENDBRANCH   1   7
BRANCH   4  17
ATOM     17  O   UNL     1      32.256  30.305  48.806  1.00  0.00    -0.508 OA
ATOM     18  H   UNL     1      32.084  30.573  49.769  1.00  0.00     0.293 HD
ENDBRANCH   4  17
TORSDOF 4
ENDMDL
MODEL 6
REMARK VINA RESULT:      -6.5      2.913      7.627
REMARK SMILES O=C(/C=C/c1ccccc1)c1ccc(O)cc1
REMARK SMILES IDX 11 1 12 2 13 3 14 4 16 5 17 6 2 7 1 8 3 9 4 10 5 11 6 12
REMARK SMILES IDX 10 13 7 14 9 15 8 16 15 17
REMARK H PARENT 15 18
ROOT
ATOM      1  C   UNL     1      29.540  31.298  45.640  1.00  0.00     0.022 A 
ATOM      2  C   UNL     1      30.734  32.033  45.683  1.00  0.00     0.016 A 
ATOM      3  C   UNL     1      31.696  31.881  46.650  1.00  0.00     0.047 A 
ATOM      4  C   UNL     1      31.509  30.966  47.643  1.00  0.00     0.115 A 
ATOM      5  C   UNL     1      30.360  30.215  47.657  1.00  0.00     0.047 A 
ATOM      6  C   UNL     1      29.388  30.396  46.649  1.00  0.00     0.016 A 
ENDROOT
BRANCH   1   7
ATOM      7  C   UNL     1      28.593  31.592  44.606  1.00  0.00     0.185 C 
ATOM      8  O   UNL     1      29.105  32.223  43.552  1.00  0.00    -0.289 OA
BRANCH   7   9
ATOM      9  C   UNL     1      27.198  31.353  44.450  1.00  0.00     0.053 C 
ATOM     10  C   UNL     1      26.419  31.450  43.424  1.00  0.00     0.012 C 
BRANCH  10  11
ATOM     11  C   UNL     1      24.965  31.158  43.415  1.00  0.00    -0.026 A 
ATOM     12  C   UNL     1      24.119  31.891  44.173  1.00  0.00     0.008 A 
ATOM     13  C   UNL     1      24.482  30.139  42.632  1.00  0.00     0.008 A 
ATOM     14  C   UNL     1      22.755  31.596  44.147  1.00  0.00     0.001 A 
ATOM     15  C   UNL     1      23.137  29.861  42.617  1.00  0.00     0.001 A 
ATOM     16  C   UNL     1      22.248  30.586  43.375  1.00  0.00     0.000 A 
ENDBRANCH  10  11
ENDBRANCH   7   9
ENDBRANCH   1   7
BRANCH   4  17
ATOM     17  O   UNL     1      32.476  30.794  48.637  1.00  0.00    -0.508 OA
ATOM     18  H   UNL     1      33.089  29.986  48.667  1.00  0.00     0.293 HD
ENDBRANCH   4  17
TORSDOF 4
ENDMDL
MODEL 7
REMARK VINA RESULT:      -6.5      2.933      7.602
REMARK SMILES O=C(/C=C/c1ccccc1)c1ccc(O)cc1
REMARK SMILES IDX 11 1 12 2 13 3 14 4 16 5 17 6 2 7 1 8 3 9 4 10 5 11 6 12
REMARK SMILES IDX 10 13 7 14 9 15 8 16 15 17
REMARK H PARENT 15 18
ROOT
ATOM      1  C   UNL     1      29.562  31.359  45.653  1.00  0.00     0.022 A 
ATOM      2  C   UNL     1      30.781  32.049  45.734  1.00  0.00     0.016 A 
ATOM      3  C   UNL     1      31.723  31.833  46.710  1.00  0.00     0.047 A 
ATOM      4  C   UNL     1      31.487  30.897  47.672  1.00  0.00     0.115 A 
ATOM      5  C   UNL     1      30.312  30.189  47.648  1.00  0.00     0.047 A 
ATOM      6  C   UNL     1      29.362  30.434  46.633  1.00  0.00     0.016 A 
ENDROOT
BRANCH   1   7
ATOM      7  C   UNL     1      28.642  31.717  44.615  1.00  0.00     0.185 C 
ATOM      8  O   UNL     1      29.197  32.332  43.573  1.00  0.00    -0.289 OA
BRANCH   7   9
ATOM      9  C   UNL     1      27.237  31.557  44.445  1.00  0.00     0.053 C 
ATOM     10  C   UNL     1      26.531  31.193  43.427  1.00  0.00     0.012 C 
BRANCH  10  11
ATOM     11  C   UNL     1      25.054  31.067  43.403  1.00  0.00    -0.026 A 
ATOM     12  C   UNL     1      24.463  30.135  42.623  1.00  0.00     0.008 A 
ATOM     13  C   UNL     1      24.289  31.904  44.177  1.00  0.00     0.008 A 
ATOM     14  C   UNL     1      23.070  30.037  42.618  1.00  0.00     0.001 A 
ATOM     15  C   UNL     1      22.919  31.795  44.161  1.00  0.00     0.001 A 
ATOM     16  C   UNL     1      22.285  30.858  43.380  1.00  0.00     0.000 A 
ENDBRANCH  10  11
ENDBRANCH   7   9
ENDBRANCH   1   7
BRANCH   4  17
ATOM     17  O   UNL     1      32.433  30.662  48.674  1.00  0.00    -0.508 OA
ATOM     18  H   UNL     1      32.993  31.404  49.080  1.00  0.00     0.293 HD
ENDBRANCH   4  17
TORSDOF 4
ENDMDL
MODEL 8
REMARK VINA RESULT:      -6.4      2.894      7.611
REMARK SMILES O=C(/C=C/c1ccccc1)c1ccc(O)cc1
REMARK SMILES IDX 11 1 12 2 13 3 14 4 16 5 17 6 2 7 1 8 3 9 4 10 5 11 6 12
REMARK SMILES IDX 10 13 7 14 9 15 8 16 15 17
REMARK H PARENT 15 18
ROOT
ATOM      1  C   UNL     1      29.783  32.111  44.753  1.00  0.00     0.022 A 
ATOM      2  C   UNL     1      29.748  33.078  43.737  1.00  0.00     0.016 A 
ATOM      3  C   UNL     1      30.662  34.095  43.613  1.00  0.00     0.047 A 
ATOM      4  C   UNL     1      31.677  34.198  44.517  1.00  0.00     0.115 A 
ATOM      5  C   UNL     1      31.765  33.282  45.536  1.00  0.00     0.047 A 
ATOM      6  C   UNL     1      30.809  32.248  45.638  1.00  0.00     0.016 A 
ENDROOT
BRANCH   1   7
ATOM      7  C   UNL     1      28.738  31.132  44.801  1.00  0.00     0.185 C 
ATOM      8  O   UNL     1      29.149  29.899  45.086  1.00  0.00    -0.289 OA
BRANCH   7   9
ATOM      9  C   UNL     1      27.327  31.186  44.612  1.00  0.00     0.053 C 
ATOM     10  C   UNL     1      26.599  31.096  43.549  1.00  0.00     0.012 C 
BRANCH  10  11
ATOM     11  C   UNL     1      25.118  31.167  43.510  1.00  0.00    -0.026 A 
ATOM     12  C   UNL     1      24.460  32.080  44.259  1.00  0.00     0.008 A 
ATOM     13  C   UNL     1      24.418  30.300  42.708  1.00  0.00     0.008 A 
ATOM     14  C   UNL     1      23.066  32.126  44.204  1.00  0.00     0.001 A 
ATOM     15  C   UNL     1      23.046  30.358  42.665  1.00  0.00     0.001 A 
ATOM     16  C   UNL     1      22.345  31.274  43.413  1.00  0.00     0.000 A 
ENDBRANCH  10  11
ENDBRANCH   7   9
ENDBRANCH   1   7
BRANCH   4  17
ATOM     17  O   UNL     1      32.617  35.225  44.409  1.00  0.00    -0.508 OA
ATOM     18  H   UNL     1      33.499  35.213  44.911  1.00  0.00     0.293 HD
ENDBRANCH   4  17
TORSDOF 4
ENDMDL
MODEL 9
REMARK VINA RESULT:      -6.3      2.982      7.674
REMARK SMILES O=C(/C=C/c1ccccc1)c1ccc(O)cc1
REMARK SMILES IDX 11 1 12 2 13 3 14 4 16 5 17 6 2 7 1 8 3 9 4 10 5 11 6 12
REMARK SMILES IDX 10 13 7 14 9 15 8 16 15 17
REMARK H PARENT 15 18
ROOT
ATOM      1  C   UNL     1      29.771  32.204  44.666  1.00  0.00     0.022 A 
ATOM      2  C   UNL     1      30.814  32.338  45.595  1.00  0.00     0.016 A 
ATOM      3  C   UNL     1      31.791  33.299  45.519  1.00  0.00     0.047 A 
ATOM      4  C   UNL     1      31.773  34.193  44.490  1.00  0.00     0.115 A 
ATOM      5  C   UNL     1      30.779  34.114  43.548  1.00  0.00     0.047 A 
ATOM      6  C   UNL     1      29.788  33.113  43.651  1.00  0.00     0.016 A 
ENDROOT
BRANCH   1   7
ATOM      7  C   UNL     1      28.844  31.123  44.829  1.00  0.00     0.185 C 
ATOM      8  O   UNL     1      29.369  30.024  45.365  1.00  0.00    -0.289 OA
BRANCH   7   9
ATOM      9  C   UNL     1      27.459  30.960  44.543  1.00  0.00     0.053 C 
ATOM     10  C   UNL     1      26.618  31.710  43.912  1.00  0.00     0.012 C 
BRANCH  10  11
ATOM     11  C   UNL     1      25.185  31.398  43.687  1.00  0.00    -0.026 A 
ATOM     12  C   UNL     1      24.228  32.076  44.360  1.00  0.00     0.008 A 
ATOM     13  C   UNL     1      24.836  30.418  42.792  1.00  0.00     0.008 A 
ATOM     14  C   UNL     1      22.887  31.764  44.130  1.00  0.00     0.001 A 
ATOM     15  C   UNL     1      23.512  30.123  42.578  1.00  0.00     0.001 A 
ATOM     16  C   UNL     1      22.512  30.791  43.244  1.00  0.00     0.000 A 
ENDBRANCH  10  11
ENDBRANCH   7   9
ENDBRANCH   1   7
BRANCH   4  17
ATOM     17  O   UNL     1      32.758  35.179  44.395  1.00  0.00    -0.508 OA
ATOM     18  H   UNL     1      33.625  35.137  44.921  1.00  0.00     0.293 HD
ENDBRANCH   4  17
TORSDOF 4
ENDMDL
