MODEL 1
REMARK VINA RESULT:      -9.1      0.000      0.000
REMARK SMILES COc1ccc(/C=C/c2cc([O-])cc(O)c2)cc1
REMARK SMILES IDX 7 1 8 2 6 3 3 4 4 5 18 6 5 7 17 8 2 9 1 10 9 11 10 12 16 13
REMARK SMILES IDX 11 14 14 15 13 16 12 17 15 18
REMARK H PARENT 15 19
ROOT
ATOM      1  C   UNL     1     -16.799  37.629 -28.381  1.00  0.00     0.009 C 
ATOM      2  C   UNL     1     -16.685  36.518 -29.059  1.00  0.00     0.009 C 
ENDROOT
BRANCH   1   3
ATOM      3  C   UNL     1     -17.489  38.831 -28.834  1.00  0.00    -0.025 A 
ATOM      4  C   UNL     1     -18.885  41.120 -29.740  1.00  0.00     0.118 A 
ATOM      5  C   UNL     1     -19.406  39.854 -29.905  1.00  0.00     0.047 A 
ATOM      6  C   UNL     1     -17.660  41.226 -29.117  1.00  0.00     0.047 A 
ATOM      7  C   UNL     1     -18.717  38.742 -29.459  1.00  0.00     0.012 A 
ATOM      8  C   UNL     1     -16.986  40.104 -28.679  1.00  0.00     0.012 A 
BRANCH   4   9
ATOM      9  O   UNL     1     -19.585  42.240 -30.192  1.00  0.00    -0.497 OA
ATOM     10  C   UNL     1     -18.846  43.268 -30.822  1.00  0.00     0.278 C 
ENDBRANCH   4   9
ENDBRANCH   1   3
BRANCH   2  11
ATOM     11  C   UNL     1     -15.999  35.311 -28.617  1.00  0.00    -0.023 A 
ATOM     12  C   UNL     1     -15.155  35.270 -27.534  1.00  0.00    -0.000 A 
ATOM     13  C   UNL     1     -16.177  34.123 -29.294  1.00  0.00     0.054 A 
ATOM     14  C   UNL     1     -14.518  34.091 -27.145  1.00  0.00    -0.105 A 
ATOM     15  C   UNL     1     -15.558  32.950 -28.926  1.00  0.00     0.115 A 
ATOM     16  C   UNL     1     -14.713  32.923 -27.837  1.00  0.00     0.037 A 
ATOM     17  O   UNL     1     -13.667  34.057 -26.050  1.00  0.00    -0.872 OA
BRANCH  15  18
ATOM     18  O   UNL     1     -15.746  31.761 -29.617  1.00  0.00    -0.508 OA
ATOM     19  H   UNL     1     -16.654  31.631 -30.050  1.00  0.00     0.293 HD
ENDBRANCH  15  18
ENDBRANCH   2  11
TORSDOF 4
ENDMDL
MODEL 2
REMARK VINA RESULT:      -9.1      0.373      2.246
REMARK SMILES COc1ccc(/C=C/c2cc([O-])cc(O)c2)cc1
REMARK SMILES IDX 7 1 8 2 6 3 3 4 4 5 18 6 5 7 17 8 2 9 1 10 9 11 10 12 16 13
REMARK SMILES IDX 11 14 14 15 13 16 12 17 15 18
REMARK H PARENT 15 19
ROOT
ATOM      1  C   UNL     1     -16.688  37.758 -28.529  1.00  0.00     0.009 C 
ATOM      2  C   UNL     1     -16.773  36.566 -29.057  1.00  0.00     0.009 C 
ENDROOT
BRANCH   1   3
ATOM      3  C   UNL     1     -17.431  38.934 -28.967  1.00  0.00    -0.025 A 
ATOM      4  C   UNL     1     -18.818  41.262 -29.785  1.00  0.00     0.118 A 
ATOM      5  C   UNL     1     -17.640  41.346 -29.073  1.00  0.00     0.047 A 
ATOM      6  C   UNL     1     -19.291  40.001 -30.083  1.00  0.00     0.047 A 
ATOM      7  C   UNL     1     -16.969  40.204 -28.678  1.00  0.00     0.012 A 
ATOM      8  C   UNL     1     -18.608  38.872 -29.679  1.00  0.00     0.012 A 
BRANCH   4   9
ATOM      9  O   UNL     1     -19.491  42.418 -30.182  1.00  0.00    -0.497 OA
ATOM     10  C   UNL     1     -19.084  43.646 -29.612  1.00  0.00     0.278 C 
ENDBRANCH   4   9
ENDBRANCH   1   3
BRANCH   2  11
ATOM     11  C   UNL     1     -16.037  35.384 -28.629  1.00  0.00    -0.023 A 
ATOM     12  C   UNL     1     -16.124  34.166 -29.256  1.00  0.00    -0.000 A 
ATOM     13  C   UNL     1     -15.196  35.447 -27.538  1.00  0.00     0.054 A 
ATOM     14  C   UNL     1     -15.401  33.059 -28.812  1.00  0.00    -0.105 A 
ATOM     15  C   UNL     1     -14.474  34.366 -27.084  1.00  0.00     0.115 A 
ATOM     16  C   UNL     1     -14.571  33.149 -27.724  1.00  0.00     0.037 A 
ATOM     17  O   UNL     1     -15.494  31.831 -29.451  1.00  0.00    -0.872 OA
BRANCH  15  18
ATOM     18  O   UNL     1     -13.630  34.444 -25.985  1.00  0.00    -0.508 OA
ATOM     19  H   UNL     1     -14.077  34.565 -25.083  1.00  0.00     0.293 HD
ENDBRANCH  15  18
ENDBRANCH   2  11
TORSDOF 4
ENDMDL
MODEL 3
REMARK VINA RESULT:      -9.1      9.979     12.080
REMARK SMILES COc1ccc(/C=C/c2cc([O-])cc(O)c2)cc1
REMARK SMILES IDX 7 1 8 2 6 3 3 4 4 5 18 6 5 7 17 8 2 9 1 10 9 11 10 12 16 13
REMARK SMILES IDX 11 14 14 15 13 16 12 17 15 18
REMARK H PARENT 15 19
ROOT
ATOM      1  C   UNL     1     -22.761  41.716 -36.209  1.00  0.00     0.009 C 
ATOM      2  C   UNL     1     -22.196  42.567 -35.395  1.00  0.00     0.009 C 
ENDROOT
BRANCH   1   3
ATOM      3  C   UNL     1     -22.238  41.310 -37.508  1.00  0.00    -0.025 A 
ATOM      4  C   UNL     1     -21.153  40.512 -39.996  1.00  0.00     0.118 A 
ATOM      5  C   UNL     1     -20.378  40.539 -38.856  1.00  0.00     0.047 A 
ATOM      6  C   UNL     1     -22.474  40.887 -39.876  1.00  0.00     0.047 A 
ATOM      7  C   UNL     1     -20.917  40.930 -37.645  1.00  0.00     0.012 A 
ATOM      8  C   UNL     1     -22.994  41.276 -38.658  1.00  0.00     0.012 A 
BRANCH   4   9
ATOM      9  O   UNL     1     -20.604  40.115 -41.218  1.00  0.00    -0.497 OA
ATOM     10  C   UNL     1     -19.283  39.612 -41.213  1.00  0.00     0.278 C 
ENDBRANCH   4   9
ENDBRANCH   1   3
BRANCH   2  11
ATOM     11  C   UNL     1     -22.709  42.980 -34.095  1.00  0.00    -0.023 A 
ATOM     12  C   UNL     1     -23.272  42.114 -33.190  1.00  0.00    -0.000 A 
ATOM     13  C   UNL     1     -22.647  44.303 -33.711  1.00  0.00     0.054 A 
ATOM     14  C   UNL     1     -23.751  42.552 -31.955  1.00  0.00    -0.105 A 
ATOM     15  C   UNL     1     -23.113  44.755 -32.498  1.00  0.00     0.115 A 
ATOM     16  C   UNL     1     -23.677  43.874 -31.599  1.00  0.00     0.037 A 
ATOM     17  O   UNL     1     -24.318  41.670 -31.046  1.00  0.00    -0.872 OA
BRANCH  15  18
ATOM     18  O   UNL     1     -23.044  46.090 -32.124  1.00  0.00    -0.508 OA
ATOM     19  H   UNL     1     -22.230  46.365 -31.588  1.00  0.00     0.293 HD
ENDBRANCH  15  18
ENDBRANCH   2  11
TORSDOF 4
ENDMDL
MODEL 4
REMARK VINA RESULT:      -9.1      0.512      1.218
REMARK SMILES COc1ccc(/C=C/c2cc([O-])cc(O)c2)cc1
REMARK SMILES IDX 7 1 8 2 6 3 3 4 4 5 18 6 5 7 17 8 2 9 1 10 9 11 10 12 16 13
REMARK SMILES IDX 11 14 14 15 13 16 12 17 15 18
REMARK H PARENT 15 19
ROOT
ATOM      1  C   UNL     1     -16.700  37.854 -28.544  1.00  0.00     0.009 C 
ATOM      2  C   UNL     1     -16.838  36.645 -29.020  1.00  0.00     0.009 C 
ENDROOT
BRANCH   1   3
ATOM      3  C   UNL     1     -17.470  39.020 -28.959  1.00  0.00    -0.025 A 
ATOM      4  C   UNL     1     -18.911  41.330 -29.733  1.00  0.00     0.118 A 
ATOM      5  C   UNL     1     -17.710  41.429 -29.062  1.00  0.00     0.047 A 
ATOM      6  C   UNL     1     -19.380  40.064 -30.012  1.00  0.00     0.047 A 
ATOM      7  C   UNL     1     -17.014  40.295 -28.688  1.00  0.00     0.012 A 
ATOM      8  C   UNL     1     -18.671  38.943 -29.630  1.00  0.00     0.012 A 
BRANCH   4   9
ATOM      9  O   UNL     1     -19.611  42.478 -30.109  1.00  0.00    -0.497 OA
ATOM     10  C   UNL     1     -20.549  42.361 -31.160  1.00  0.00     0.278 C 
ENDBRANCH   4   9
ENDBRANCH   1   3
BRANCH   2  11
ATOM     11  C   UNL     1     -16.075  35.472 -28.613  1.00  0.00    -0.023 A 
ATOM     12  C   UNL     1     -15.188  35.468 -27.564  1.00  0.00    -0.000 A 
ATOM     13  C   UNL     1     -16.219  34.280 -29.291  1.00  0.00     0.054 A 
ATOM     14  C   UNL     1     -14.477  34.321 -27.209  1.00  0.00    -0.105 A 
ATOM     15  C   UNL     1     -15.527  33.138 -28.956  1.00  0.00     0.115 A 
ATOM     16  C   UNL     1     -14.639  33.149 -27.901  1.00  0.00     0.037 A 
ATOM     17  O   UNL     1     -13.584  34.325 -26.148  1.00  0.00    -0.872 OA
BRANCH  15  18
ATOM     18  O   UNL     1     -15.682  31.944 -29.647  1.00  0.00    -0.508 OA
ATOM     19  H   UNL     1     -16.421  31.330 -29.324  1.00  0.00     0.293 HD
ENDBRANCH  15  18
ENDBRANCH   2  11
TORSDOF 4
ENDMDL
MODEL 5
REMARK VINA RESULT:      -9.0      1.173      1.380
REMARK SMILES COc1ccc(/C=C/c2cc([O-])cc(O)c2)cc1
REMARK SMILES IDX 7 1 8 2 6 3 3 4 4 5 18 6 5 7 17 8 2 9 1 10 9 11 10 12 16 13
REMARK SMILES IDX 11 14 14 15 13 16 12 17 15 18
REMARK H PARENT 15 19
ROOT
ATOM      1  C   UNL     1     -17.514  37.320 -29.186  1.00  0.00     0.009 C 
ATOM      2  C   UNL     1     -17.285  36.125 -29.662  1.00  0.00     0.009 C 
ENDROOT
BRANCH   1   3
ATOM      3  C   UNL     1     -18.410  38.309 -29.773  1.00  0.00    -0.025 A 
ATOM      4  C   UNL     1     -20.174  40.175 -30.963  1.00  0.00     0.118 A 
ATOM      5  C   UNL     1     -20.106  38.872 -31.409  1.00  0.00     0.047 A 
ATOM      6  C   UNL     1     -19.351  40.531 -29.916  1.00  0.00     0.047 A 
ATOM      7  C   UNL     1     -19.241  37.967 -30.822  1.00  0.00     0.012 A 
ATOM      8  C   UNL     1     -18.493  39.614 -29.342  1.00  0.00     0.012 A 
BRANCH   4   9
ATOM      9  O   UNL     1     -21.049  41.085 -31.559  1.00  0.00    -0.497 OA
ATOM     10  C   UNL     1     -20.502  42.280 -32.079  1.00  0.00     0.278 C 
ENDBRANCH   4   9
ENDBRANCH   1   3
BRANCH   2  11
ATOM     11  C   UNL     1     -16.392  35.129 -29.085  1.00  0.00    -0.023 A 
ATOM     12  C   UNL     1     -15.532  35.390 -28.047  1.00  0.00    -0.000 A 
ATOM     13  C   UNL     1     -16.378  33.840 -29.575  1.00  0.00     0.054 A 
ATOM     14  C   UNL     1     -14.694  34.405 -27.523  1.00  0.00    -0.105 A 
ATOM     15  C   UNL     1     -15.559  32.855 -29.073  1.00  0.00     0.115 A 
ATOM     16  C   UNL     1     -14.699  33.132 -28.031  1.00  0.00     0.037 A 
ATOM     17  O   UNL     1     -13.827  34.677 -26.474  1.00  0.00    -0.872 OA
BRANCH  15  18
ATOM     18  O   UNL     1     -15.555  31.562 -29.577  1.00  0.00    -0.508 OA
ATOM     19  H   UNL     1     -16.198  31.374 -30.339  1.00  0.00     0.293 HD
ENDBRANCH  15  18
ENDBRANCH   2  11
TORSDOF 4
ENDMDL
MODEL 6
REMARK VINA RESULT:      -9.0      1.071      1.642
REMARK SMILES COc1ccc(/C=C/c2cc([O-])cc(O)c2)cc1
REMARK SMILES IDX 7 1 8 2 6 3 3 4 4 5 18 6 5 7 17 8 2 9 1 10 9 11 10 12 16 13
REMARK SMILES IDX 11 14 14 15 13 16 12 17 15 18
REMARK H PARENT 15 19
ROOT
ATOM      1  C   UNL     1     -17.511  37.299 -29.155  1.00  0.00     0.009 C 
ATOM      2  C   UNL     1     -17.210  36.139 -29.674  1.00  0.00     0.009 C 
ENDROOT
BRANCH   1   3
ATOM      3  C   UNL     1     -18.385  38.297 -29.761  1.00  0.00    -0.025 A 
ATOM      4  C   UNL     1     -20.048  40.288 -30.893  1.00  0.00     0.118 A 
ATOM      5  C   UNL     1     -19.118  40.600 -29.924  1.00  0.00     0.047 A 
ATOM      6  C   UNL     1     -20.134  38.970 -31.289  1.00  0.00     0.047 A 
ATOM      7  C   UNL     1     -18.310  39.621 -29.377  1.00  0.00     0.012 A 
ATOM      8  C   UNL     1     -19.319  38.005 -30.731  1.00  0.00     0.012 A 
BRANCH   4   9
ATOM      9  O   UNL     1     -20.862  41.280 -31.443  1.00  0.00    -0.497 OA
ATOM     10  C   UNL     1     -20.245  42.484 -31.853  1.00  0.00     0.278 C 
ENDBRANCH   4   9
ENDBRANCH   1   3
BRANCH   2  11
ATOM     11  C   UNL     1     -16.338  35.134 -29.079  1.00  0.00    -0.023 A 
ATOM     12  C   UNL     1     -15.481  35.392 -28.037  1.00  0.00    -0.000 A 
ATOM     13  C   UNL     1     -16.341  33.840 -29.555  1.00  0.00     0.054 A 
ATOM     14  C   UNL     1     -14.664  34.400 -27.496  1.00  0.00    -0.105 A 
ATOM     15  C   UNL     1     -15.543  32.847 -29.036  1.00  0.00     0.115 A 
ATOM     16  C   UNL     1     -14.686  33.121 -27.990  1.00  0.00     0.037 A 
ATOM     17  O   UNL     1     -13.800  34.669 -26.444  1.00  0.00    -0.872 OA
BRANCH  15  18
ATOM     18  O   UNL     1     -15.556  31.549 -29.526  1.00  0.00    -0.508 OA
ATOM     19  H   UNL     1     -15.178  31.415 -30.457  1.00  0.00     0.293 HD
ENDBRANCH  15  18
ENDBRANCH   2  11
TORSDOF 4
ENDMDL
MODEL 7
REMARK VINA RESULT:      -9.0      2.232      3.510
REMARK SMILES COc1ccc(/C=C/c2cc([O-])cc(O)c2)cc1
REMARK SMILES IDX 7 1 8 2 6 3 3 4 4 5 18 6 5 7 17 8 2 9 1 10 9 11 10 12 16 13
REMARK SMILES IDX 11 14 14 15 13 16 12 17 15 18
REMARK H PARENT 15 19
ROOT
ATOM      1  C   UNL     1     -17.562  37.466 -29.389  1.00  0.00     0.009 C 
ATOM      2  C   UNL     1     -16.923  37.872 -28.324  1.00  0.00     0.009 C 
ENDROOT
BRANCH   1   3
ATOM      3  C   UNL     1     -18.663  38.170 -30.036  1.00  0.00    -0.025 A 
ATOM      4  C   UNL     1     -20.810  39.475 -31.338  1.00  0.00     0.118 A 
ATOM      5  C   UNL     1     -20.411  38.210 -31.713  1.00  0.00     0.047 A 
ATOM      6  C   UNL     1     -20.124  40.077 -30.305  1.00  0.00     0.047 A 
ATOM      7  C   UNL     1     -19.361  37.580 -31.071  1.00  0.00     0.012 A 
ATOM      8  C   UNL     1     -19.078  39.433 -29.676  1.00  0.00     0.012 A 
BRANCH   4   9
ATOM      9  O   UNL     1     -21.871  40.107 -31.989  1.00  0.00    -0.497 OA
ATOM     10  C   UNL     1     -22.300  39.568 -33.223  1.00  0.00     0.278 C 
ENDBRANCH   4   9
ENDBRANCH   1   3
BRANCH   2  11
ATOM     11  C   UNL     1     -15.822  37.178 -27.669  1.00  0.00    -0.023 A 
ATOM     12  C   UNL     1     -15.548  35.845 -27.852  1.00  0.00    -0.000 A 
ATOM     13  C   UNL     1     -14.985  37.857 -26.810  1.00  0.00     0.054 A 
ATOM     14  C   UNL     1     -14.482  35.219 -27.204  1.00  0.00    -0.105 A 
ATOM     15  C   UNL     1     -13.929  37.258 -26.161  1.00  0.00     0.115 A 
ATOM     16  C   UNL     1     -13.665  35.919 -26.354  1.00  0.00     0.037 A 
ATOM     17  O   UNL     1     -14.211  33.872 -27.395  1.00  0.00    -0.872 OA
BRANCH  15  18
ATOM     18  O   UNL     1     -13.094  37.955 -25.298  1.00  0.00    -0.508 OA
ATOM     19  H   UNL     1     -13.256  38.953 -25.224  1.00  0.00     0.293 HD
ENDBRANCH  15  18
ENDBRANCH   2  11
TORSDOF 4
ENDMDL
MODEL 8
REMARK VINA RESULT:      -8.9      2.069      3.321
REMARK SMILES COc1ccc(/C=C/c2cc([O-])cc(O)c2)cc1
REMARK SMILES IDX 7 1 8 2 6 3 3 4 4 5 18 6 5 7 17 8 2 9 1 10 9 11 10 12 16 13
REMARK SMILES IDX 11 14 14 15 13 16 12 17 15 18
REMARK H PARENT 15 19
ROOT
ATOM      1  C   UNL     1     -17.481  38.197 -28.755  1.00  0.00     0.009 C 
ATOM      2  C   UNL     1     -16.860  37.048 -28.806  1.00  0.00     0.009 C 
ENDROOT
BRANCH   1   3
ATOM      3  C   UNL     1     -18.540  38.628 -29.660  1.00  0.00    -0.025 A 
ATOM      4  C   UNL     1     -20.596  39.533 -31.381  1.00  0.00     0.118 A 
ATOM      5  C   UNL     1     -20.070  40.352 -30.405  1.00  0.00     0.047 A 
ATOM      6  C   UNL     1     -20.081  38.259 -31.485  1.00  0.00     0.047 A 
ATOM      7  C   UNL     1     -19.066  39.902 -29.569  1.00  0.00     0.012 A 
ATOM      8  C   UNL     1     -19.079  37.825 -30.641  1.00  0.00     0.012 A 
BRANCH   4   9
ATOM      9  O   UNL     1     -21.610  39.993 -32.223  1.00  0.00    -0.497 OA
ATOM     10  C   UNL     1     -21.443  41.264 -32.821  1.00  0.00     0.278 C 
ENDBRANCH   4   9
ENDBRANCH   1   3
BRANCH   2  11
ATOM     11  C   UNL     1     -15.801  36.606 -27.908  1.00  0.00    -0.023 A 
ATOM     12  C   UNL     1     -15.418  35.295 -27.771  1.00  0.00    -0.000 A 
ATOM     13  C   UNL     1     -15.118  37.521 -27.134  1.00  0.00     0.054 A 
ATOM     14  C   UNL     1     -14.398  34.915 -26.899  1.00  0.00    -0.105 A 
ATOM     15  C   UNL     1     -14.109  37.167 -26.268  1.00  0.00     0.115 A 
ATOM     16  C   UNL     1     -13.736  35.846 -26.141  1.00  0.00     0.037 A 
ATOM     17  O   UNL     1     -14.017  33.587 -26.767  1.00  0.00    -0.872 OA
BRANCH  15  18
ATOM     18  O   UNL     1     -13.431  38.099 -25.495  1.00  0.00    -0.508 OA
ATOM     19  H   UNL     1     -13.930  38.466 -24.692  1.00  0.00     0.293 HD
ENDBRANCH  15  18
ENDBRANCH   2  11
TORSDOF 4
ENDMDL
MODEL 9
REMARK VINA RESULT:      -8.8      1.376      2.728
REMARK SMILES COc1ccc(/C=C/c2cc([O-])cc(O)c2)cc1
REMARK SMILES IDX 7 1 8 2 6 3 3 4 4 5 18 6 5 7 17 8 2 9 1 10 9 11 10 12 16 13
REMARK SMILES IDX 11 14 14 15 13 16 12 17 15 18
REMARK H PARENT 15 19
ROOT
ATOM      1  C   UNL     1     -17.839  37.060 -29.680  1.00  0.00     0.009 C 
ATOM      2  C   UNL     1     -16.865  37.071 -28.808  1.00  0.00     0.009 C 
ENDROOT
BRANCH   1   3
ATOM      3  C   UNL     1     -18.651  38.210 -30.057  1.00  0.00    -0.025 A 
ATOM      4  C   UNL     1     -20.190  40.486 -30.737  1.00  0.00     0.118 A 
ATOM      5  C   UNL     1     -19.206  40.551 -29.774  1.00  0.00     0.047 A 
ATOM      6  C   UNL     1     -20.393  39.270 -31.355  1.00  0.00     0.047 A 
ATOM      7  C   UNL     1     -18.459  39.435 -29.448  1.00  0.00     0.012 A 
ATOM      8  C   UNL     1     -19.638  38.166 -31.017  1.00  0.00     0.012 A 
BRANCH   4   9
ATOM      9  O   UNL     1     -20.941  41.617 -31.063  1.00  0.00    -0.497 OA
ATOM     10  C   UNL     1     -22.293  41.425 -31.430  1.00  0.00     0.278 C 
ENDBRANCH   4   9
ENDBRANCH   1   3
BRANCH   2  11
ATOM     11  C   UNL     1     -16.047  35.929 -28.423  1.00  0.00    -0.023 A 
ATOM     12  C   UNL     1     -16.153  34.688 -29.003  1.00  0.00    -0.000 A 
ATOM     13  C   UNL     1     -15.102  36.055 -27.427  1.00  0.00     0.054 A 
ATOM     14  C   UNL     1     -15.348  33.621 -28.603  1.00  0.00    -0.105 A 
ATOM     15  C   UNL     1     -14.298  35.014 -27.019  1.00  0.00     0.115 A 
ATOM     16  C   UNL     1     -14.416  33.774 -27.609  1.00  0.00     0.037 A 
ATOM     17  O   UNL     1     -15.461  32.370 -29.193  1.00  0.00    -0.872 OA
BRANCH  15  18
ATOM     18  O   UNL     1     -13.351  35.156 -26.014  1.00  0.00    -0.508 OA
ATOM     19  H   UNL     1     -12.388  34.972 -26.275  1.00  0.00     0.293 HD
ENDBRANCH  15  18
ENDBRANCH   2  11
TORSDOF 4
ENDMDL
