MODEL 1
REMARK VINA RESULT:     -10.6      0.000      0.000
REMARK SMILES O=c1cc(-c2ccccc2)oc2cc(O)cc(O)c12
REMARK SMILES IDX 1 1 2 2 3 3 4 4 11 5 12 6 13 7 14 8 16 9 17 10 19 11 5 12
REMARK SMILES IDX 6 13 10 14 7 15 9 16 8 17 18 18 15 20
REMARK H PARENT 18 19 15 21
ROOT
ATOM      1  O   UNL     1     -14.181  36.582 -25.992  1.00  0.00    -0.289 OA
ATOM      2  C   UNL     1     -14.994  36.536 -26.949  1.00  0.00     0.197 A 
ATOM      3  C   UNL     1     -15.732  37.653 -27.367  1.00  0.00     0.100 A 
ATOM      4  C   UNL     1     -16.617  37.579 -28.417  1.00  0.00     0.138 A 
ATOM      5  O   UNL     1     -16.736  36.412 -29.004  1.00  0.00    -0.456 OA
ATOM      6  C   UNL     1     -16.076  35.335 -28.660  1.00  0.00     0.146 A 
ATOM      7  C   UNL     1     -16.247  34.126 -29.324  1.00  0.00     0.094 A 
ATOM      8  C   UNL     1     -15.571  32.978 -28.989  1.00  0.00     0.123 A 
ATOM      9  C   UNL     1     -14.676  33.009 -27.944  1.00  0.00     0.093 A 
ATOM     10  C   UNL     1     -14.477  34.188 -27.260  1.00  0.00     0.134 A 
ATOM     11  C   UNL     1     -15.176  35.348 -27.616  1.00  0.00     0.107 A 
ENDROOT
BRANCH   4  12
ATOM     12  C   UNL     1     -17.392  38.740 -28.861  1.00  0.00     0.017 A 
ATOM     13  C   UNL     1     -17.029  40.040 -28.626  1.00  0.00     0.012 A 
ATOM     14  C   UNL     1     -18.566  38.536 -29.564  1.00  0.00     0.012 A 
ATOM     15  C   UNL     1     -17.801  41.117 -29.070  1.00  0.00     0.001 A 
ATOM     16  C   UNL     1     -19.353  39.583 -30.017  1.00  0.00     0.001 A 
ATOM     17  C   UNL     1     -18.968  40.894 -29.769  1.00  0.00     0.000 A 
ENDBRANCH   4  12
BRANCH  10  18
ATOM     18  O   UNL     1     -13.582  34.218 -26.217  1.00  0.00    -0.507 OA
ATOM     19  H   UNL     1     -12.909  33.482 -26.103  1.00  0.00     0.293 HD
ENDBRANCH  10  18
BRANCH   8  20
ATOM     20  O   UNL     1     -15.776  31.785 -29.686  1.00  0.00    -0.508 OA
ATOM     21  H   UNL     1     -16.205  30.971 -29.268  1.00  0.00     0.293 HD
ENDBRANCH   8  20
TORSDOF 3
ENDMDL
MODEL 2
REMARK VINA RESULT:     -10.5      0.207      1.102
REMARK SMILES O=c1cc(-c2ccccc2)oc2cc(O)cc(O)c12
REMARK SMILES IDX 1 1 2 2 3 3 4 4 11 5 12 6 13 7 14 8 16 9 17 10 19 11 5 12
REMARK SMILES IDX 6 13 10 14 7 15 9 16 8 17 18 18 15 20
REMARK H PARENT 18 19 15 21
ROOT
ATOM      1  O   UNL     1     -14.321  36.731 -26.109  1.00  0.00    -0.289 OA
ATOM      2  C   UNL     1     -15.128  36.614 -27.065  1.00  0.00     0.197 A 
ATOM      3  C   UNL     1     -15.916  37.679 -27.523  1.00  0.00     0.100 A 
ATOM      4  C   UNL     1     -16.793  37.528 -28.571  1.00  0.00     0.138 A 
ATOM      5  O   UNL     1     -16.855  36.338 -29.118  1.00  0.00    -0.456 OA
ATOM      6  C   UNL     1     -16.145  35.305 -28.735  1.00  0.00     0.146 A 
ATOM      7  C   UNL     1     -16.257  34.067 -29.357  1.00  0.00     0.094 A 
ATOM      8  C   UNL     1     -15.529  32.965 -28.982  1.00  0.00     0.123 A 
ATOM      9  C   UNL     1     -14.640  33.074 -27.936  1.00  0.00     0.093 A 
ATOM     10  C   UNL     1     -14.500  34.284 -27.293  1.00  0.00     0.134 A 
ATOM     11  C   UNL     1     -15.251  35.396 -27.691  1.00  0.00     0.107 A 
ENDROOT
BRANCH   4  12
ATOM     12  C   UNL     1     -17.620  38.635 -29.057  1.00  0.00     0.017 A 
ATOM     13  C   UNL     1     -18.740  38.474 -29.829  1.00  0.00     0.012 A 
ATOM     14  C   UNL     1     -17.269  39.932 -28.726  1.00  0.00     0.012 A 
ATOM     15  C   UNL     1     -19.499  39.561 -30.270  1.00  0.00     0.001 A 
ATOM     16  C   UNL     1     -18.002  41.031 -29.148  1.00  0.00     0.001 A 
ATOM     17  C   UNL     1     -19.134  40.847 -29.931  1.00  0.00     0.000 A 
ENDBRANCH   4  12
BRANCH  10  18
ATOM     18  O   UNL     1     -13.611  34.392 -26.250  1.00  0.00    -0.507 OA
ATOM     19  H   UNL     1     -12.704  33.965 -26.308  1.00  0.00     0.293 HD
ENDBRANCH  10  18
BRANCH   8  20
ATOM     20  O   UNL     1     -15.675  31.740 -29.637  1.00  0.00    -0.508 OA
ATOM     21  H   UNL     1     -15.805  30.866 -29.147  1.00  0.00     0.293 HD
ENDBRANCH   8  20
TORSDOF 3
ENDMDL
MODEL 3
REMARK VINA RESULT:     -10.4      2.246      6.356
REMARK SMILES O=c1cc(-c2ccccc2)oc2cc(O)cc(O)c12
REMARK SMILES IDX 1 1 2 2 3 3 4 4 11 5 12 6 13 7 14 8 16 9 17 10 19 11 5 12
REMARK SMILES IDX 6 13 10 14 7 15 9 16 8 17 18 18 15 20
REMARK H PARENT 18 19 15 21
ROOT
ATOM      1  O   UNL     1     -16.256  40.415 -27.788  1.00  0.00    -0.289 OA
ATOM      2  C   UNL     1     -16.670  39.342 -28.295  1.00  0.00     0.197 A 
ATOM      3  C   UNL     1     -16.052  38.106 -28.054  1.00  0.00     0.100 A 
ATOM      4  C   UNL     1     -16.521  36.945 -28.620  1.00  0.00     0.138 A 
ATOM      5  O   UNL     1     -17.574  37.052 -29.395  1.00  0.00    -0.456 OA
ATOM      6  C   UNL     1     -18.194  38.176 -29.657  1.00  0.00     0.146 A 
ATOM      7  C   UNL     1     -19.307  38.223 -30.488  1.00  0.00     0.094 A 
ATOM      8  C   UNL     1     -19.980  39.383 -30.783  1.00  0.00     0.123 A 
ATOM      9  C   UNL     1     -19.542  40.569 -30.237  1.00  0.00     0.093 A 
ATOM     10  C   UNL     1     -18.441  40.565 -29.408  1.00  0.00     0.134 A 
ATOM     11  C   UNL     1     -17.769  39.371 -29.119  1.00  0.00     0.107 A 
ENDROOT
BRANCH   4  12
ATOM     12  C   UNL     1     -15.883  35.649 -28.374  1.00  0.00     0.017 A 
ATOM     13  C   UNL     1     -16.092  34.533 -29.142  1.00  0.00     0.012 A 
ATOM     14  C   UNL     1     -15.010  35.520 -27.309  1.00  0.00     0.012 A 
ATOM     15  C   UNL     1     -15.460  33.318 -28.870  1.00  0.00     0.001 A 
ATOM     16  C   UNL     1     -14.367  34.328 -27.014  1.00  0.00     0.001 A 
ATOM     17  C   UNL     1     -14.593  33.208 -27.803  1.00  0.00     0.000 A 
ENDBRANCH   4  12
BRANCH  10  18
ATOM     18  O   UNL     1     -18.006  41.749 -28.864  1.00  0.00    -0.507 OA
ATOM     19  H   UNL     1     -18.109  41.926 -27.881  1.00  0.00     0.293 HD
ENDBRANCH  10  18
BRANCH   8  20
ATOM     20  O   UNL     1     -21.095  39.382 -31.625  1.00  0.00    -0.508 OA
ATOM     21  H   UNL     1     -21.245  38.683 -32.338  1.00  0.00     0.293 HD
ENDBRANCH   8  20
TORSDOF 3
ENDMDL
MODEL 4
REMARK VINA RESULT:     -10.4      2.260      6.276
REMARK SMILES O=c1cc(-c2ccccc2)oc2cc(O)cc(O)c12
REMARK SMILES IDX 1 1 2 2 3 3 4 4 11 5 12 6 13 7 14 8 16 9 17 10 19 11 5 12
REMARK SMILES IDX 6 13 10 14 7 15 9 16 8 17 18 18 15 20
REMARK H PARENT 18 19 15 21
ROOT
ATOM      1  O   UNL     1     -16.258  40.572 -27.883  1.00  0.00    -0.289 OA
ATOM      2  C   UNL     1     -16.661  39.472 -28.337  1.00  0.00     0.197 A 
ATOM      3  C   UNL     1     -16.021  38.257 -28.051  1.00  0.00     0.100 A 
ATOM      4  C   UNL     1     -16.479  37.065 -28.559  1.00  0.00     0.138 A 
ATOM      5  O   UNL     1     -17.542  37.122 -29.326  1.00  0.00    -0.456 OA
ATOM      6  C   UNL     1     -18.183  38.225 -29.629  1.00  0.00     0.146 A 
ATOM      7  C   UNL     1     -19.306  38.219 -30.447  1.00  0.00     0.094 A 
ATOM      8  C   UNL     1     -20.000  39.355 -30.785  1.00  0.00     0.123 A 
ATOM      9  C   UNL     1     -19.574  40.570 -30.296  1.00  0.00     0.093 A 
ATOM     10  C   UNL     1     -18.464  40.618 -29.481  1.00  0.00     0.134 A 
ATOM     11  C   UNL     1     -17.770  39.449 -29.149  1.00  0.00     0.107 A 
ENDROOT
BRANCH   4  12
ATOM     12  C   UNL     1     -15.818  35.791 -28.266  1.00  0.00     0.017 A 
ATOM     13  C   UNL     1     -14.913  35.612 -27.253  1.00  0.00     0.012 A 
ATOM     14  C   UNL     1     -16.111  34.686 -29.046  1.00  0.00     0.012 A 
ATOM     15  C   UNL     1     -14.307  34.376 -27.011  1.00  0.00     0.001 A 
ATOM     16  C   UNL     1     -15.526  33.448 -28.830  1.00  0.00     0.001 A 
ATOM     17  C   UNL     1     -14.611  33.286 -27.798  1.00  0.00     0.000 A 
ENDBRANCH   4  12
BRANCH  10  18
ATOM     18  O   UNL     1     -18.040  41.831 -28.994  1.00  0.00    -0.507 OA
ATOM     19  H   UNL     1     -18.392  42.180 -28.121  1.00  0.00     0.293 HD
ENDBRANCH  10  18
BRANCH   8  20
ATOM     20  O   UNL     1     -21.124  39.300 -31.612  1.00  0.00    -0.508 OA
ATOM     21  H   UNL     1     -21.176  38.711 -32.430  1.00  0.00     0.293 HD
ENDBRANCH   8  20
TORSDOF 3
ENDMDL
MODEL 5
REMARK VINA RESULT:     -10.3      0.953      1.607
REMARK SMILES O=c1cc(-c2ccccc2)oc2cc(O)cc(O)c12
REMARK SMILES IDX 1 1 2 2 3 3 4 4 11 5 12 6 13 7 14 8 16 9 17 10 19 11 5 12
REMARK SMILES IDX 6 13 10 14 7 15 9 16 8 17 18 18 15 20
REMARK H PARENT 18 19 15 21
ROOT
ATOM      1  O   UNL     1     -14.835  37.107 -26.810  1.00  0.00    -0.289 OA
ATOM      2  C   UNL     1     -15.627  36.750 -27.719  1.00  0.00     0.197 A 
ATOM      3  C   UNL     1     -16.555  37.627 -28.299  1.00  0.00     0.100 A 
ATOM      4  C   UNL     1     -17.411  37.214 -29.292  1.00  0.00     0.138 A 
ATOM      5  O   UNL     1     -17.316  35.961 -29.667  1.00  0.00    -0.456 OA
ATOM      6  C   UNL     1     -16.471  35.095 -29.164  1.00  0.00     0.146 A 
ATOM      7  C   UNL     1     -16.419  33.779 -29.606  1.00  0.00     0.094 A 
ATOM      8  C   UNL     1     -15.546  32.847 -29.101  1.00  0.00     0.123 A 
ATOM      9  C   UNL     1     -14.671  33.219 -28.105  1.00  0.00     0.093 A 
ATOM     10  C   UNL     1     -14.691  34.516 -27.639  1.00  0.00     0.134 A 
ATOM     11  C   UNL     1     -15.589  35.451 -28.167  1.00  0.00     0.107 A 
ENDROOT
BRANCH   4  12
ATOM     12  C   UNL     1     -18.385  38.122 -29.904  1.00  0.00     0.017 A 
ATOM     13  C   UNL     1     -19.206  37.778 -30.945  1.00  0.00     0.012 A 
ATOM     14  C   UNL     1     -18.500  39.412 -29.417  1.00  0.00     0.012 A 
ATOM     15  C   UNL     1     -20.120  38.678 -31.497  1.00  0.00     0.001 A 
ATOM     16  C   UNL     1     -19.397  40.328 -29.944  1.00  0.00     0.001 A 
ATOM     17  C   UNL     1     -20.221  39.960 -30.999  1.00  0.00     0.000 A 
ENDBRANCH   4  12
BRANCH  10  18
ATOM     18  O   UNL     1     -13.817  34.886 -26.645  1.00  0.00    -0.507 OA
ATOM     19  H   UNL     1     -14.042  35.644 -26.025  1.00  0.00     0.293 HD
ENDBRANCH  10  18
BRANCH   8  20
ATOM     20  O   UNL     1     -15.530  31.533 -29.576  1.00  0.00    -0.508 OA
ATOM     21  H   UNL     1     -16.281  31.138 -30.124  1.00  0.00     0.293 HD
ENDBRANCH   8  20
TORSDOF 3
ENDMDL
MODEL 6
REMARK VINA RESULT:     -10.1      2.338      6.971
REMARK SMILES O=c1cc(-c2ccccc2)oc2cc(O)cc(O)c12
REMARK SMILES IDX 1 1 2 2 3 3 4 4 11 5 12 6 13 7 14 8 16 9 17 10 19 11 5 12
REMARK SMILES IDX 6 13 10 14 7 15 9 16 8 17 18 18 15 20
REMARK H PARENT 18 19 15 21
ROOT
ATOM      1  O   UNL     1     -19.845  36.770 -31.889  1.00  0.00    -0.289 OA
ATOM      2  C   UNL     1     -18.977  36.965 -31.002  1.00  0.00     0.197 A 
ATOM      3  C   UNL     1     -18.143  35.945 -30.523  1.00  0.00     0.100 A 
ATOM      4  C   UNL     1     -17.199  36.182 -29.552  1.00  0.00     0.138 A 
ATOM      5  O   UNL     1     -17.121  37.409 -29.096  1.00  0.00    -0.456 OA
ATOM      6  C   UNL     1     -17.871  38.403 -29.502  1.00  0.00     0.146 A 
ATOM      7  C   UNL     1     -17.738  39.684 -28.978  1.00  0.00     0.094 A 
ATOM      8  C   UNL     1     -18.507  40.748 -29.382  1.00  0.00     0.123 A 
ATOM      9  C   UNL     1     -19.464  40.553 -30.353  1.00  0.00     0.093 A 
ATOM     10  C   UNL     1     -19.627  39.298 -30.898  1.00  0.00     0.134 A 
ATOM     11  C   UNL     1     -18.833  38.226 -30.473  1.00  0.00     0.107 A 
ENDROOT
BRANCH   4  12
ATOM     12  C   UNL     1     -16.323  35.122 -29.045  1.00  0.00     0.017 A 
ATOM     13  C   UNL     1     -16.242  33.868 -29.591  1.00  0.00     0.012 A 
ATOM     14  C   UNL     1     -15.518  35.381 -27.950  1.00  0.00     0.012 A 
ATOM     15  C   UNL     1     -15.391  32.889 -29.073  1.00  0.00     0.001 A 
ATOM     16  C   UNL     1     -14.664  34.430 -27.414  1.00  0.00     0.001 A 
ATOM     17  C   UNL     1     -14.596  33.164 -27.981  1.00  0.00     0.000 A 
ENDBRANCH   4  12
BRANCH  10  18
ATOM     18  O   UNL     1     -20.581  39.105 -31.867  1.00  0.00    -0.507 OA
ATOM     19  H   UNL     1     -20.541  38.302 -32.468  1.00  0.00     0.293 HD
ENDBRANCH  10  18
BRANCH   8  20
ATOM     20  O   UNL     1     -18.338  42.018 -28.826  1.00  0.00    -0.508 OA
ATOM     21  H   UNL     1     -19.104  42.661 -28.681  1.00  0.00     0.293 HD
ENDBRANCH   8  20
TORSDOF 3
ENDMDL
MODEL 7
REMARK VINA RESULT:     -10.1      2.391      6.931
REMARK SMILES O=c1cc(-c2ccccc2)oc2cc(O)cc(O)c12
REMARK SMILES IDX 1 1 2 2 3 3 4 4 11 5 12 6 13 7 14 8 16 9 17 10 19 11 5 12
REMARK SMILES IDX 6 13 10 14 7 15 9 16 8 17 18 18 15 20
REMARK H PARENT 18 19 15 21
ROOT
ATOM      1  O   UNL     1     -19.932  36.626 -31.931  1.00  0.00    -0.289 OA
ATOM      2  C   UNL     1     -19.071  36.874 -31.051  1.00  0.00     0.197 A 
ATOM      3  C   UNL     1     -18.201  35.895 -30.548  1.00  0.00     0.100 A 
ATOM      4  C   UNL     1     -17.266  36.190 -29.585  1.00  0.00     0.138 A 
ATOM      5  O   UNL     1     -17.230  37.430 -29.159  1.00  0.00    -0.456 OA
ATOM      6  C   UNL     1     -18.016  38.387 -29.589  1.00  0.00     0.146 A 
ATOM      7  C   UNL     1     -17.927  39.684 -29.097  1.00  0.00     0.094 A 
ATOM      8  C   UNL     1     -18.734  40.710 -29.526  1.00  0.00     0.123 A 
ATOM      9  C   UNL     1     -19.684  40.457 -30.490  1.00  0.00     0.093 A 
ATOM     10  C   UNL     1     -19.803  39.184 -31.003  1.00  0.00     0.134 A 
ATOM     11  C   UNL     1     -18.971  38.152 -30.553  1.00  0.00     0.107 A 
ENDROOT
BRANCH   4  12
ATOM     12  C   UNL     1     -16.353  35.174 -29.053  1.00  0.00     0.017 A 
ATOM     13  C   UNL     1     -15.519  35.376 -27.986  1.00  0.00     0.012 A 
ATOM     14  C   UNL     1     -16.314  33.927 -29.650  1.00  0.00     0.012 A 
ATOM     15  C   UNL     1     -14.664  34.377 -27.514  1.00  0.00     0.001 A 
ATOM     16  C   UNL     1     -15.477  32.915 -29.205  1.00  0.00     0.001 A 
ATOM     17  C   UNL     1     -14.639  33.139 -28.121  1.00  0.00     0.000 A 
ENDBRANCH   4  12
BRANCH  10  18
ATOM     18  O   UNL     1     -20.751  38.934 -31.966  1.00  0.00    -0.507 OA
ATOM     19  H   UNL     1     -20.601  39.223 -32.916  1.00  0.00     0.293 HD
ENDBRANCH  10  18
BRANCH   8  20
ATOM     20  O   UNL     1     -18.609  41.999 -29.002  1.00  0.00    -0.508 OA
ATOM     21  H   UNL     1     -17.749  42.526 -29.038  1.00  0.00     0.293 HD
ENDBRANCH   8  20
TORSDOF 3
ENDMDL
MODEL 8
REMARK VINA RESULT:     -10.1      1.201      3.206
REMARK SMILES O=c1cc(-c2ccccc2)oc2cc(O)cc(O)c12
REMARK SMILES IDX 1 1 2 2 3 3 4 4 11 5 12 6 13 7 14 8 16 9 17 10 19 11 5 12
REMARK SMILES IDX 6 13 10 14 7 15 9 16 8 17 18 18 15 20
REMARK H PARENT 18 19 15 21
ROOT
ATOM      1  O   UNL     1     -17.061  33.123 -30.640  1.00  0.00    -0.289 OA
ATOM      2  C   UNL     1     -16.969  34.237 -30.065  1.00  0.00     0.197 A 
ATOM      3  C   UNL     1     -17.760  35.338 -30.422  1.00  0.00     0.100 A 
ATOM      4  C   UNL     1     -17.642  36.548 -29.779  1.00  0.00     0.138 A 
ATOM      5  O   UNL     1     -16.753  36.618 -28.818  1.00  0.00    -0.456 OA
ATOM      6  C   UNL     1     -15.986  35.626 -28.439  1.00  0.00     0.146 A 
ATOM      7  C   UNL     1     -15.061  35.765 -27.411  1.00  0.00     0.094 A 
ATOM      8  C   UNL     1     -14.243  34.746 -26.989  1.00  0.00     0.123 A 
ATOM      9  C   UNL     1     -14.329  33.518 -27.606  1.00  0.00     0.093 A 
ATOM     10  C   UNL     1     -15.233  33.340 -28.631  1.00  0.00     0.134 A 
ATOM     11  C   UNL     1     -16.059  34.391 -29.046  1.00  0.00     0.107 A 
ENDROOT
BRANCH   4  12
ATOM     12  C   UNL     1     -18.464  37.704 -30.146  1.00  0.00     0.017 A 
ATOM     13  C   UNL     1     -19.348  37.716 -31.191  1.00  0.00     0.012 A 
ATOM     14  C   UNL     1     -18.358  38.867 -29.403  1.00  0.00     0.012 A 
ATOM     15  C   UNL     1     -20.112  38.844 -31.503  1.00  0.00     0.001 A 
ATOM     16  C   UNL     1     -19.102  40.001 -29.687  1.00  0.00     0.001 A 
ATOM     17  C   UNL     1     -19.993  39.993 -30.752  1.00  0.00     0.000 A 
ENDBRANCH   4  12
BRANCH  10  18
ATOM     18  O   UNL     1     -15.318  32.114 -29.246  1.00  0.00    -0.507 OA
ATOM     19  H   UNL     1     -14.823  31.938 -30.102  1.00  0.00     0.293 HD
ENDBRANCH  10  18
BRANCH   8  20
ATOM     20  O   UNL     1     -13.327  34.932 -25.950  1.00  0.00    -0.508 OA
ATOM     21  H   UNL     1     -13.269  35.787 -25.416  1.00  0.00     0.293 HD
ENDBRANCH   8  20
TORSDOF 3
ENDMDL
MODEL 9
REMARK VINA RESULT:     -10.0      1.543      3.487
REMARK SMILES O=c1cc(-c2ccccc2)oc2cc(O)cc(O)c12
REMARK SMILES IDX 1 1 2 2 3 3 4 4 11 5 12 6 13 7 14 8 16 9 17 10 19 11 5 12
REMARK SMILES IDX 6 13 10 14 7 15 9 16 8 17 18 18 15 20
REMARK H PARENT 18 19 15 21
ROOT
ATOM      1  O   UNL     1     -16.005  33.885 -29.159  1.00  0.00    -0.289 OA
ATOM      2  C   UNL     1     -16.264  35.097 -28.951  1.00  0.00     0.197 A 
ATOM      3  C   UNL     1     -17.283  35.779 -29.632  1.00  0.00     0.100 A 
ATOM      4  C   UNL     1     -17.549  37.105 -29.388  1.00  0.00     0.138 A 
ATOM      5  O   UNL     1     -16.802  37.699 -28.488  1.00  0.00    -0.456 OA
ATOM      6  C   UNL     1     -15.837  37.116 -27.820  1.00  0.00     0.146 A 
ATOM      7  C   UNL     1     -15.080  37.801 -26.877  1.00  0.00     0.094 A 
ATOM      8  C   UNL     1     -14.063  37.221 -26.160  1.00  0.00     0.123 A 
ATOM      9  C   UNL     1     -13.764  35.894 -26.374  1.00  0.00     0.093 A 
ATOM     10  C   UNL     1     -14.491  35.180 -27.301  1.00  0.00     0.134 A 
ATOM     11  C   UNL     1     -15.525  35.789 -28.022  1.00  0.00     0.107 A 
ENDROOT
BRANCH   4  12
ATOM     12  C   UNL     1     -18.611  37.826 -30.094  1.00  0.00     0.017 A 
ATOM     13  C   UNL     1     -19.396  37.272 -31.071  1.00  0.00     0.012 A 
ATOM     14  C   UNL     1     -18.856  39.149 -29.770  1.00  0.00     0.012 A 
ATOM     15  C   UNL     1     -20.398  38.000 -31.718  1.00  0.00     0.001 A 
ATOM     16  C   UNL     1     -19.843  39.896 -30.394  1.00  0.00     0.001 A 
ATOM     17  C   UNL     1     -20.628  39.317 -31.382  1.00  0.00     0.000 A 
ENDBRANCH   4  12
BRANCH  10  18
ATOM     18  O   UNL     1     -14.192  33.855 -27.513  1.00  0.00    -0.507 OA
ATOM     19  H   UNL     1     -13.264  33.510 -27.347  1.00  0.00     0.293 HD
ENDBRANCH  10  18
BRANCH   8  20
ATOM     20  O   UNL     1     -13.328  37.950 -25.221  1.00  0.00    -0.508 OA
ATOM     21  H   UNL     1     -12.400  37.685 -24.924  1.00  0.00     0.293 HD
ENDBRANCH   8  20
TORSDOF 3
ENDMDL
