MODEL 1
REMARK VINA RESULT:     -11.2      0.000      0.000
REMARK SMILES O=c1c([O-])c(-c2ccccc2)oc2cc([O-])cc([O-])c12
REMARK SMILES IDX 1 1 2 2 3 3 4 4 5 5 12 6 13 7 14 8 15 9 16 10 17 11 18 12
REMARK SMILES IDX 19 13 20 14 6 15 7 16 11 17 8 18 10 19 9 20
REMARK H PARENT
ROOT
ATOM      1  O   UNL     1     -14.272  36.659 -25.766  1.00  0.00    -0.290 OA
ATOM      2  C   UNL     1     -15.012  36.549 -26.766  1.00  0.00     0.184 A 
ATOM      3  C   UNL     1     -15.721  37.705 -27.154  1.00  0.00    -0.014 A 
ATOM      4  O   UNL     1     -15.571  38.862 -26.441  1.00  0.00    -0.867 OA
ATOM      5  C   UNL     1     -16.538  37.617 -28.243  1.00  0.00     0.130 A 
ATOM      6  O   UNL     1     -16.631  36.438 -28.892  1.00  0.00    -0.457 OA
ATOM      7  C   UNL     1     -15.992  35.384 -28.546  1.00  0.00     0.137 A 
ATOM      8  C   UNL     1     -16.128  34.218 -29.248  1.00  0.00     0.039 A 
ATOM      9  C   UNL     1     -15.455  33.066 -28.903  1.00  0.00    -0.106 A 
ATOM     10  O   UNL     1     -15.616  31.891 -29.639  1.00  0.00    -0.872 OA
ATOM     11  C   UNL     1     -14.602  33.093 -27.797  1.00  0.00    -0.016 A 
ATOM     12  C   UNL     1     -14.443  34.245 -27.072  1.00  0.00    -0.094 A 
ATOM     13  O   UNL     1     -13.599  34.262 -25.982  1.00  0.00    -0.872 OA
ATOM     14  C   UNL     1     -15.135  35.366 -27.457  1.00  0.00     0.056 A 
ENDROOT
BRANCH   5  15
ATOM     15  C   UNL     1     -17.319  38.736 -28.739  1.00  0.00     0.017 A 
ATOM     16  C   UNL     1     -17.012  40.058 -28.676  1.00  0.00     0.012 A 
ATOM     17  C   UNL     1     -18.543  38.448 -29.366  1.00  0.00     0.012 A 
ATOM     18  C   UNL     1     -17.830  41.056 -29.184  1.00  0.00     0.001 A 
ATOM     19  C   UNL     1     -19.366  39.427 -29.875  1.00  0.00     0.001 A 
ATOM     20  C   UNL     1     -19.018  40.755 -29.790  1.00  0.00     0.000 A 
ENDBRANCH   5  15
TORSDOF 1
ENDMDL
MODEL 2
REMARK VINA RESULT:     -11.1      1.927      6.093
REMARK SMILES O=c1c([O-])c(-c2ccccc2)oc2cc([O-])cc([O-])c12
REMARK SMILES IDX 1 1 2 2 3 3 4 4 5 5 12 6 13 7 14 8 15 9 16 10 17 11 18 12
REMARK SMILES IDX 19 13 20 14 6 15 7 16 11 17 8 18 10 19 9 20
REMARK H PARENT
ROOT
ATOM      1  O   UNL     1     -16.203  39.557 -27.775  1.00  0.00    -0.290 OA
ATOM      2  C   UNL     1     -16.715  38.625 -28.430  1.00  0.00     0.184 A 
ATOM      3  C   UNL     1     -16.124  37.353 -28.282  1.00  0.00    -0.014 A 
ATOM      4  O   UNL     1     -15.048  37.200 -27.452  1.00  0.00    -0.867 OA
ATOM      5  C   UNL     1     -16.660  36.314 -28.985  1.00  0.00     0.130 A 
ATOM      6  O   UNL     1     -17.722  36.549 -29.784  1.00  0.00    -0.457 OA
ATOM      7  C   UNL     1     -18.264  37.701 -29.924  1.00  0.00     0.137 A 
ATOM      8  C   UNL     1     -19.341  37.874 -30.750  1.00  0.00     0.039 A 
ATOM      9  C   UNL     1     -19.948  39.099 -30.924  1.00  0.00    -0.106 A 
ATOM     10  O   UNL     1     -21.045  39.243 -31.774  1.00  0.00    -0.872 OA
ATOM     11  C   UNL     1     -19.445  40.202 -30.231  1.00  0.00    -0.016 A 
ATOM     12  C   UNL     1     -18.367  40.063 -29.395  1.00  0.00    -0.094 A 
ATOM     13  O   UNL     1     -17.878  41.157 -28.715  1.00  0.00    -0.872 OA
ATOM     14  C   UNL     1     -17.799  38.822 -29.256  1.00  0.00     0.056 A 
ENDROOT
BRANCH   5  15
ATOM     15  C   UNL     1     -16.141  34.961 -28.917  1.00  0.00     0.017 A 
ATOM     16  C   UNL     1     -15.245  34.457 -28.028  1.00  0.00     0.012 A 
ATOM     17  C   UNL     1     -16.601  34.038 -29.871  1.00  0.00     0.012 A 
ATOM     18  C   UNL     1     -14.810  33.140 -28.046  1.00  0.00     0.001 A 
ATOM     19  C   UNL     1     -16.180  32.728 -29.903  1.00  0.00     0.001 A 
ATOM     20  C   UNL     1     -15.271  32.257 -28.984  1.00  0.00     0.000 A 
ENDBRANCH   5  15
TORSDOF 1
ENDMDL
MODEL 3
REMARK VINA RESULT:     -11.0      0.150      1.050
REMARK SMILES O=c1c([O-])c(-c2ccccc2)oc2cc([O-])cc([O-])c12
REMARK SMILES IDX 1 1 2 2 3 3 4 4 5 5 12 6 13 7 14 8 15 9 16 10 17 11 18 12
REMARK SMILES IDX 19 13 20 14 6 15 7 16 11 17 8 18 10 19 9 20
REMARK H PARENT
ROOT
ATOM      1  O   UNL     1     -14.249  36.712 -25.813  1.00  0.00    -0.290 OA
ATOM      2  C   UNL     1     -15.000  36.569 -26.800  1.00  0.00     0.184 A 
ATOM      3  C   UNL     1     -15.730  37.705 -27.207  1.00  0.00    -0.014 A 
ATOM      4  O   UNL     1     -15.589  38.880 -26.521  1.00  0.00    -0.867 OA
ATOM      5  C   UNL     1     -16.560  37.580 -28.282  1.00  0.00     0.130 A 
ATOM      6  O   UNL     1     -16.644  36.385 -28.903  1.00  0.00    -0.457 OA
ATOM      7  C   UNL     1     -15.984  35.349 -28.541  1.00  0.00     0.137 A 
ATOM      8  C   UNL     1     -16.113  34.165 -29.214  1.00  0.00     0.039 A 
ATOM      9  C   UNL     1     -15.418  33.030 -28.851  1.00  0.00    -0.106 A 
ATOM     10  O   UNL     1     -15.572  31.837 -29.558  1.00  0.00    -0.872 OA
ATOM     11  C   UNL     1     -14.552  33.095 -27.758  1.00  0.00    -0.016 A 
ATOM     12  C   UNL     1     -14.400  34.266 -27.061  1.00  0.00    -0.094 A 
ATOM     13  O   UNL     1     -13.544  34.320 -25.983  1.00  0.00    -0.872 OA
ATOM     14  C   UNL     1     -15.114  35.367 -27.463  1.00  0.00     0.056 A 
ENDROOT
BRANCH   5  15
ATOM     15  C   UNL     1     -17.362  38.676 -28.794  1.00  0.00     0.017 A 
ATOM     16  C   UNL     1     -18.550  38.603 -29.450  1.00  0.00     0.012 A 
ATOM     17  C   UNL     1     -16.880  39.981 -28.600  1.00  0.00     0.012 A 
ATOM     18  C   UNL     1     -19.243  39.716 -29.900  1.00  0.00     0.001 A 
ATOM     19  C   UNL     1     -17.555  41.097 -29.040  1.00  0.00     0.001 A 
ATOM     20  C   UNL     1     -18.756  40.979 -29.701  1.00  0.00     0.000 A 
ENDBRANCH   5  15
TORSDOF 1
ENDMDL
MODEL 4
REMARK VINA RESULT:     -10.8      1.586      5.917
REMARK SMILES O=c1c([O-])c(-c2ccccc2)oc2cc([O-])cc([O-])c12
REMARK SMILES IDX 1 1 2 2 3 3 4 4 5 5 12 6 13 7 14 8 15 9 16 10 17 11 18 12
REMARK SMILES IDX 19 13 20 14 6 15 7 16 11 17 8 18 10 19 9 20
REMARK H PARENT
ROOT
ATOM      1  O   UNL     1     -15.062  38.797 -27.062  1.00  0.00    -0.290 OA
ATOM      2  C   UNL     1     -15.775  38.092 -27.805  1.00  0.00     0.184 A 
ATOM      3  C   UNL     1     -15.445  36.723 -27.881  1.00  0.00    -0.014 A 
ATOM      4  O   UNL     1     -14.389  36.241 -27.157  1.00  0.00    -0.867 OA
ATOM      5  C   UNL     1     -16.206  35.925 -28.684  1.00  0.00     0.130 A 
ATOM      6  O   UNL     1     -17.230  36.478 -29.366  1.00  0.00    -0.457 OA
ATOM      7  C   UNL     1     -17.537  37.720 -29.304  1.00  0.00     0.137 A 
ATOM      8  C   UNL     1     -18.590  38.220 -30.020  1.00  0.00     0.039 A 
ATOM      9  C   UNL     1     -18.947  39.551 -29.976  1.00  0.00    -0.106 A 
ATOM     10  O   UNL     1     -20.026  40.030 -30.719  1.00  0.00    -0.872 OA
ATOM     11  C   UNL     1     -18.206  40.418 -29.170  1.00  0.00    -0.016 A 
ATOM     12  C   UNL     1     -17.145  39.949 -28.440  1.00  0.00    -0.094 A 
ATOM     13  O   UNL     1     -16.419  40.813 -27.648  1.00  0.00    -0.872 OA
ATOM     14  C   UNL     1     -16.830  38.616 -28.517  1.00  0.00     0.056 A 
ENDROOT
BRANCH   5  15
ATOM     15  C   UNL     1     -15.965  34.503 -28.844  1.00  0.00     0.017 A 
ATOM     16  C   UNL     1     -15.218  33.691 -28.052  1.00  0.00     0.012 A 
ATOM     17  C   UNL     1     -16.564  33.861 -29.941  1.00  0.00     0.012 A 
ATOM     18  C   UNL     1     -15.050  32.335 -28.291  1.00  0.00     0.001 A 
ATOM     19  C   UNL     1     -16.407  32.517 -30.193  1.00  0.00     0.001 A 
ATOM     20  C   UNL     1     -15.642  31.729 -29.365  1.00  0.00     0.000 A 
ENDBRANCH   5  15
TORSDOF 1
ENDMDL
MODEL 5
REMARK VINA RESULT:     -10.8      1.213      3.105
REMARK SMILES O=c1c([O-])c(-c2ccccc2)oc2cc([O-])cc([O-])c12
REMARK SMILES IDX 1 1 2 2 3 3 4 4 5 5 12 6 13 7 14 8 15 9 16 10 17 11 18 12
REMARK SMILES IDX 19 13 20 14 6 15 7 16 11 17 8 18 10 19 9 20
REMARK H PARENT
ROOT
ATOM      1  O   UNL     1     -16.349  34.012 -29.664  1.00  0.00    -0.290 OA
ATOM      2  C   UNL     1     -16.213  35.031 -28.956  1.00  0.00     0.184 A 
ATOM      3  C   UNL     1     -16.931  36.177 -29.356  1.00  0.00    -0.014 A 
ATOM      4  O   UNL     1     -17.721  36.124 -30.472  1.00  0.00    -0.867 OA
ATOM      5  C   UNL     1     -16.804  37.307 -28.602  1.00  0.00     0.130 A 
ATOM      6  O   UNL     1     -16.003  37.277 -27.517  1.00  0.00    -0.457 OA
ATOM      7  C   UNL     1     -15.348  36.241 -27.146  1.00  0.00     0.137 A 
ATOM      8  C   UNL     1     -14.553  36.275 -26.034  1.00  0.00     0.039 A 
ATOM      9  C   UNL     1     -13.834  35.179 -25.606  1.00  0.00    -0.106 A 
ATOM     10  O   UNL     1     -13.031  35.245 -24.467  1.00  0.00    -0.872 OA
ATOM     11  C   UNL     1     -13.924  33.992 -26.336  1.00  0.00    -0.016 A 
ATOM     12  C   UNL     1     -14.711  33.924 -27.456  1.00  0.00    -0.094 A 
ATOM     13  O   UNL     1     -14.793  32.748 -28.171  1.00  0.00    -0.872 OA
ATOM     14  C   UNL     1     -15.407  35.043 -27.840  1.00  0.00     0.056 A 
ENDROOT
BRANCH   5  15
ATOM     15  C   UNL     1     -17.491  38.547 -28.914  1.00  0.00     0.017 A 
ATOM     16  C   UNL     1     -18.722  38.701 -29.467  1.00  0.00     0.012 A 
ATOM     17  C   UNL     1     -16.828  39.750 -28.617  1.00  0.00     0.012 A 
ATOM     18  C   UNL     1     -19.293  39.938 -29.725  1.00  0.00     0.001 A 
ATOM     19  C   UNL     1     -17.380  40.985 -28.866  1.00  0.00     0.001 A 
ATOM     20  C   UNL     1     -18.631  41.097 -29.429  1.00  0.00     0.000 A 
ENDBRANCH   5  15
TORSDOF 1
ENDMDL
MODEL 6
REMARK VINA RESULT:     -10.7      1.874      6.165
REMARK SMILES O=c1c([O-])c(-c2ccccc2)oc2cc([O-])cc([O-])c12
REMARK SMILES IDX 1 1 2 2 3 3 4 4 5 5 12 6 13 7 14 8 15 9 16 10 17 11 18 12
REMARK SMILES IDX 19 13 20 14 6 15 7 16 11 17 8 18 10 19 9 20
REMARK H PARENT
ROOT
ATOM      1  O   UNL     1     -16.257  40.326 -27.708  1.00  0.00    -0.290 OA
ATOM      2  C   UNL     1     -16.700  39.310 -28.282  1.00  0.00     0.184 A 
ATOM      3  C   UNL     1     -16.040  38.094 -28.007  1.00  0.00    -0.014 A 
ATOM      4  O   UNL     1     -14.975  38.081 -27.149  1.00  0.00    -0.867 OA
ATOM      5  C   UNL     1     -16.501  36.965 -28.619  1.00  0.00     0.130 A 
ATOM      6  O   UNL     1     -17.556  37.062 -29.453  1.00  0.00    -0.457 OA
ATOM      7  C   UNL     1     -18.161  38.161 -29.708  1.00  0.00     0.137 A 
ATOM      8  C   UNL     1     -19.228  38.194 -30.564  1.00  0.00     0.039 A 
ATOM      9  C   UNL     1     -19.901  39.359 -30.861  1.00  0.00    -0.106 A 
ATOM     10  O   UNL     1     -20.986  39.359 -31.738  1.00  0.00    -0.872 OA
ATOM     11  C   UNL     1     -19.477  40.549 -30.265  1.00  0.00    -0.016 A 
ATOM     12  C   UNL     1     -18.411  40.552 -29.403  1.00  0.00    -0.094 A 
ATOM     13  O   UNL     1     -18.000  41.731 -28.820  1.00  0.00    -0.872 OA
ATOM     14  C   UNL     1     -17.775  39.365 -29.140  1.00  0.00     0.056 A 
ENDROOT
BRANCH   5  15
ATOM     15  C   UNL     1     -15.905  35.656 -28.416  1.00  0.00     0.017 A 
ATOM     16  C   UNL     1     -16.080  34.537 -29.166  1.00  0.00     0.012 A 
ATOM     17  C   UNL     1     -15.038  35.498 -27.322  1.00  0.00     0.012 A 
ATOM     18  C   UNL     1     -15.460  33.328 -28.888  1.00  0.00     0.001 A 
ATOM     19  C   UNL     1     -14.416  34.306 -27.032  1.00  0.00     0.001 A 
ATOM     20  C   UNL     1     -14.620  33.195 -27.817  1.00  0.00     0.000 A 
ENDBRANCH   5  15
TORSDOF 1
ENDMDL
MODEL 7
REMARK VINA RESULT:     -10.6      1.258      3.287
REMARK SMILES O=c1c([O-])c(-c2ccccc2)oc2cc([O-])cc([O-])c12
REMARK SMILES IDX 1 1 2 2 3 3 4 4 5 5 12 6 13 7 14 8 15 9 16 10 17 11 18 12
REMARK SMILES IDX 19 13 20 14 6 15 7 16 11 17 8 18 10 19 9 20
REMARK H PARENT
ROOT
ATOM      1  O   UNL     1     -17.157  33.567 -30.552  1.00  0.00    -0.290 OA
ATOM      2  C   UNL     1     -16.918  34.582 -29.865  1.00  0.00     0.184 A 
ATOM      3  C   UNL     1     -17.662  35.740 -30.172  1.00  0.00    -0.014 A 
ATOM      4  O   UNL     1     -18.586  35.702 -31.179  1.00  0.00    -0.867 OA
ATOM      5  C   UNL     1     -17.424  36.865 -29.439  1.00  0.00     0.130 A 
ATOM      6  O   UNL     1     -16.495  36.820 -28.462  1.00  0.00    -0.457 OA
ATOM      7  C   UNL     1     -15.815  35.773 -28.177  1.00  0.00     0.137 A 
ATOM      8  C   UNL     1     -14.886  35.792 -27.172  1.00  0.00     0.039 A 
ATOM      9  C   UNL     1     -14.137  34.684 -26.839  1.00  0.00    -0.106 A 
ATOM     10  O   UNL     1     -13.197  34.735 -25.809  1.00  0.00    -0.872 OA
ATOM     11  C   UNL     1     -14.335  33.500 -27.553  1.00  0.00    -0.016 A 
ATOM     12  C   UNL     1     -15.257  33.448 -28.566  1.00  0.00    -0.094 A 
ATOM     13  O   UNL     1     -15.446  32.275 -29.266  1.00  0.00    -0.872 OA
ATOM     14  C   UNL     1     -15.978  34.578 -28.858  1.00  0.00     0.056 A 
ENDROOT
BRANCH   5  15
ATOM     15  C   UNL     1     -18.125  38.117 -29.661  1.00  0.00     0.017 A 
ATOM     16  C   UNL     1     -19.226  38.330 -30.428  1.00  0.00     0.012 A 
ATOM     17  C   UNL     1     -17.630  39.263 -29.017  1.00  0.00     0.012 A 
ATOM     18  C   UNL     1     -19.825  39.572 -30.575  1.00  0.00     0.001 A 
ATOM     19  C   UNL     1     -18.212  40.503 -29.152  1.00  0.00     0.001 A 
ATOM     20  C   UNL     1     -19.326  40.675 -29.939  1.00  0.00     0.000 A 
ENDBRANCH   5  15
TORSDOF 1
ENDMDL
MODEL 8
REMARK VINA RESULT:     -10.6      1.185      2.900
REMARK SMILES O=c1c([O-])c(-c2ccccc2)oc2cc([O-])cc([O-])c12
REMARK SMILES IDX 1 1 2 2 3 3 4 4 5 5 12 6 13 7 14 8 15 9 16 10 17 11 18 12
REMARK SMILES IDX 19 13 20 14 6 15 7 16 11 17 8 18 10 19 9 20
REMARK H PARENT
ROOT
ATOM      1  O   UNL     1     -16.429  34.032 -29.723  1.00  0.00    -0.290 OA
ATOM      2  C   UNL     1     -16.243  35.028 -28.993  1.00  0.00     0.184 A 
ATOM      3  C   UNL     1     -16.921  36.210 -29.355  1.00  0.00    -0.014 A 
ATOM      4  O   UNL     1     -17.730  36.215 -30.458  1.00  0.00    -0.867 OA
ATOM      5  C   UNL     1     -16.738  37.315 -28.577  1.00  0.00     0.130 A 
ATOM      6  O   UNL     1     -15.922  37.229 -27.507  1.00  0.00    -0.457 OA
ATOM      7  C   UNL     1     -15.302  36.160 -27.171  1.00  0.00     0.137 A 
ATOM      8  C   UNL     1     -14.489  36.136 -26.071  1.00  0.00     0.039 A 
ATOM      9  C   UNL     1     -13.807  35.003 -25.682  1.00  0.00    -0.106 A 
ATOM     10  O   UNL     1     -12.984  35.011 -24.555  1.00  0.00    -0.872 OA
ATOM     11  C   UNL     1     -13.954  33.838 -26.438  1.00  0.00    -0.016 A 
ATOM     12  C   UNL     1     -14.762  33.828 -27.546  1.00  0.00    -0.094 A 
ATOM     13  O   UNL     1     -14.901  32.674 -28.286  1.00  0.00    -0.872 OA
ATOM     14  C   UNL     1     -15.419  34.982 -27.891  1.00  0.00     0.056 A 
ENDROOT
BRANCH   5  15
ATOM     15  C   UNL     1     -17.380  38.589 -28.848  1.00  0.00     0.017 A 
ATOM     16  C   UNL     1     -16.878  39.835 -28.645  1.00  0.00     0.012 A 
ATOM     17  C   UNL     1     -18.678  38.561 -29.386  1.00  0.00     0.012 A 
ATOM     18  C   UNL     1     -17.576  40.996 -28.940  1.00  0.00     0.001 A 
ATOM     19  C   UNL     1     -19.384  39.704 -29.684  1.00  0.00     0.001 A 
ATOM     20  C   UNL     1     -18.839  40.947 -29.463  1.00  0.00     0.000 A 
ENDBRANCH   5  15
TORSDOF 1
ENDMDL
MODEL 9
REMARK VINA RESULT:     -10.5      1.489      3.518
REMARK SMILES O=c1c([O-])c(-c2ccccc2)oc2cc([O-])cc([O-])c12
REMARK SMILES IDX 1 1 2 2 3 3 4 4 5 5 12 6 13 7 14 8 15 9 16 10 17 11 18 12
REMARK SMILES IDX 19 13 20 14 6 15 7 16 11 17 8 18 10 19 9 20
REMARK H PARENT
ROOT
ATOM      1  O   UNL     1     -16.196  33.871 -29.452  1.00  0.00    -0.290 OA
ATOM      2  C   UNL     1     -16.342  35.057 -29.089  1.00  0.00     0.184 A 
ATOM      3  C   UNL     1     -17.336  35.802 -29.757  1.00  0.00    -0.014 A 
ATOM      4  O   UNL     1     -18.076  35.210 -30.744  1.00  0.00    -0.867 OA
ATOM      5  C   UNL     1     -17.520  37.100 -29.383  1.00  0.00     0.130 A 
ATOM      6  O   UNL     1     -16.749  37.609 -28.400  1.00  0.00    -0.457 OA
ATOM      7  C   UNL     1     -15.844  36.940 -27.789  1.00  0.00     0.137 A 
ATOM      8  C   UNL     1     -15.095  37.514 -26.799  1.00  0.00     0.039 A 
ATOM      9  C   UNL     1     -14.113  36.824 -26.121  1.00  0.00    -0.106 A 
ATOM     10  O   UNL     1     -13.366  37.438 -25.116  1.00  0.00    -0.872 OA
ATOM     11  C   UNL     1     -13.878  35.489 -26.458  1.00  0.00    -0.016 A 
ATOM     12  C   UNL     1     -14.611  34.884 -27.445  1.00  0.00    -0.094 A 
ATOM     13  O   UNL     1     -14.371  33.566 -27.771  1.00  0.00    -0.872 OA
ATOM     14  C   UNL     1     -15.577  35.615 -28.090  1.00  0.00     0.056 A 
ENDROOT
BRANCH   5  15
ATOM     15  C   UNL     1     -18.510  37.967 -29.995  1.00  0.00     0.017 A 
ATOM     16  C   UNL     1     -19.345  37.679 -31.028  1.00  0.00     0.012 A 
ATOM     17  C   UNL     1     -18.646  39.267 -29.478  1.00  0.00     0.012 A 
ATOM     18  C   UNL     1     -20.262  38.582 -31.543  1.00  0.00     0.001 A 
ATOM     19  C   UNL     1     -19.551  40.175 -29.978  1.00  0.00     0.001 A 
ATOM     20  C   UNL     1     -20.378  39.843 -31.026  1.00  0.00     0.000 A 
ENDBRANCH   5  15
TORSDOF 1
ENDMDL
