MODEL 1
REMARK VINA RESULT:      -5.2      0.000      0.000
REMARK SMILES C[NH+](Cc1ccc(C(C)(C)C)cc1)Cc1cccc2ccccc12
REMARK SMILES IDX 3 1 2 2 1 3 14 5 15 6 16 7 24 8 17 9 23 10 19 11 18 12 22 13
REMARK SMILES IDX 20 14 21 15 4 16 5 17 13 18 6 19 12 20 7 21 8 22 9 23 10 24
REMARK SMILES IDX 11 25
REMARK H PARENT 2 4
ROOT
ATOM      1  C   UNL     1      20.388  24.531  54.770  1.00  0.00     0.299 C 
ENDROOT
BRANCH   1   2
ATOM      2  N   UNL     1      19.232  25.257  55.255  1.00  0.00    -0.330 N 
ATOM      3  C   UNL     1      18.946  26.378  54.356  1.00  0.00     0.333 C 
ATOM      4  H   UNL     1      18.432  24.611  55.128  1.00  0.00     0.348 HD
BRANCH   2   5
ATOM      5  C   UNL     1      19.329  25.670  56.610  1.00  0.00     0.299 C 
BRANCH   5   6
ATOM      6  C   UNL     1      18.132  25.452  57.452  1.00  0.00     0.014 A 
ATOM      7  C   UNL     1      17.712  24.160  57.766  1.00  0.00     0.010 A 
ATOM      8  C   UNL     1      17.365  26.479  57.935  1.00  0.00    -0.010 A 
ATOM      9  C   UNL     1      16.596  23.928  58.513  1.00  0.00     0.001 A 
ATOM     10  C   UNL     1      17.701  27.790  57.690  1.00  0.00     0.009 A 
ATOM     11  C   UNL     1      16.212  26.276  58.705  1.00  0.00    -0.018 A 
ATOM     12  C   UNL     1      15.850  24.977  58.980  1.00  0.00     0.009 A 
ATOM     13  C   UNL     1      16.934  28.857  58.183  1.00  0.00     0.001 A 
ATOM     14  C   UNL     1      15.439  27.291  59.202  1.00  0.00     0.009 A 
ATOM     15  C   UNL     1      15.809  28.602  58.934  1.00  0.00     0.001 A 
ENDBRANCH   5   6
ENDBRANCH   2   5
ENDBRANCH   1   2
BRANCH   1  16
ATOM     16  C   UNL     1      20.120  23.061  54.639  1.00  0.00     0.006 A 
ATOM     17  C   UNL     1      18.973  22.494  55.153  1.00  0.00     0.010 A 
ATOM     18  C   UNL     1      21.008  22.219  54.000  1.00  0.00     0.010 A 
ATOM     19  C   UNL     1      18.719  21.143  55.032  1.00  0.00     0.005 A 
ATOM     20  C   UNL     1      20.760  20.859  53.875  1.00  0.00     0.005 A 
ATOM     21  C   UNL     1      19.613  20.299  54.389  1.00  0.00    -0.043 A 
BRANCH  21  22
ATOM     22  C   UNL     1      19.301  18.845  54.280  1.00  0.00    -0.013 C 
ATOM     23  C   UNL     1      20.598  18.077  54.279  1.00  0.00     0.016 C 
ATOM     24  C   UNL     1      18.491  18.391  55.475  1.00  0.00     0.016 C 
ATOM     25  C   UNL     1      18.510  18.526  53.044  1.00  0.00     0.016 C 
ENDBRANCH  21  22
ENDBRANCH   1  16
TORSDOF 5
ENDMDL
MODEL 2
REMARK VINA RESULT:      -5.0      0.672      2.659
REMARK SMILES C[NH+](Cc1ccc(C(C)(C)C)cc1)Cc1cccc2ccccc12
REMARK SMILES IDX 3 1 2 2 1 3 14 5 15 6 16 7 24 8 17 9 23 10 19 11 18 12 22 13
REMARK SMILES IDX 20 14 21 15 4 16 5 17 13 18 6 19 12 20 7 21 8 22 9 23 10 24
REMARK SMILES IDX 11 25
REMARK H PARENT 2 4
ROOT
ATOM      1  C   UNL     1      20.333  24.480  54.680  1.00  0.00     0.299 C 
ENDROOT
BRANCH   1   2
ATOM      2  N   UNL     1      19.253  25.220  55.299  1.00  0.00    -0.330 N 
ATOM      3  C   UNL     1      18.974  26.426  54.514  1.00  0.00     0.333 C 
ATOM      4  H   UNL     1      18.411  24.629  55.175  1.00  0.00     0.348 HD
BRANCH   2   5
ATOM      5  C   UNL     1      19.458  25.512  56.673  1.00  0.00     0.299 C 
BRANCH   5   6
ATOM      6  C   UNL     1      18.248  25.801  57.473  1.00  0.00     0.014 A 
ATOM      7  C   UNL     1      17.975  27.099  57.902  1.00  0.00     0.010 A 
ATOM      8  C   UNL     1      17.362  24.830  57.860  1.00  0.00    -0.010 A 
ATOM      9  C   UNL     1      16.885  27.390  58.667  1.00  0.00     0.001 A 
ATOM     10  C   UNL     1      17.536  23.520  57.479  1.00  0.00     0.009 A 
ATOM     11  C   UNL     1      16.233  25.095  58.646  1.00  0.00    -0.018 A 
ATOM     12  C   UNL     1      16.019  26.396  59.038  1.00  0.00     0.009 A 
ATOM     13  C   UNL     1      16.636  22.511  57.857  1.00  0.00     0.001 A 
ATOM     14  C   UNL     1      15.333  24.137  59.034  1.00  0.00     0.009 A 
ATOM     15  C   UNL     1      15.542  22.825  58.631  1.00  0.00     0.001 A 
ENDBRANCH   5   6
ENDBRANCH   2   5
ENDBRANCH   1   2
BRANCH   1  16
ATOM     16  C   UNL     1      20.033  23.013  54.585  1.00  0.00     0.006 A 
ATOM     17  C   UNL     1      21.013  22.102  54.249  1.00  0.00     0.010 A 
ATOM     18  C   UNL     1      18.770  22.516  54.833  1.00  0.00     0.010 A 
ATOM     19  C   UNL     1      20.745  20.752  54.164  1.00  0.00     0.005 A 
ATOM     20  C   UNL     1      18.492  21.159  54.749  1.00  0.00     0.005 A 
ATOM     21  C   UNL     1      19.472  20.255  54.414  1.00  0.00    -0.043 A 
BRANCH  21  22
ATOM     22  C   UNL     1      19.225  18.788  54.311  1.00  0.00    -0.013 C 
ATOM     23  C   UNL     1      18.461  18.522  53.039  1.00  0.00     0.016 C 
ATOM     24  C   UNL     1      20.537  18.038  54.234  1.00  0.00     0.016 C 
ATOM     25  C   UNL     1      18.465  18.259  55.493  1.00  0.00     0.016 C 
ENDBRANCH  21  22
ENDBRANCH   1  16
TORSDOF 5
ENDMDL
MODEL 3
REMARK VINA RESULT:      -4.7      0.806      1.558
REMARK SMILES C[NH+](Cc1ccc(C(C)(C)C)cc1)Cc1cccc2ccccc12
REMARK SMILES IDX 3 1 2 2 1 3 14 5 15 6 16 7 24 8 17 9 23 10 19 11 18 12 22 13
REMARK SMILES IDX 20 14 21 15 4 16 5 17 13 18 6 19 12 20 7 21 8 22 9 23 10 24
REMARK SMILES IDX 11 25
REMARK H PARENT 2 4
ROOT
ATOM      1  C   UNL     1      20.118  23.977  54.388  1.00  0.00     0.299 C 
ENDROOT
BRANCH   1   2
ATOM      2  N   UNL     1      19.130  24.708  55.156  1.00  0.00    -0.330 N 
ATOM      3  C   UNL     1      19.259  26.142  54.880  1.00  0.00     0.333 C 
ATOM      4  H   UNL     1      18.216  24.445  54.743  1.00  0.00     0.348 HD
BRANCH   2   5
ATOM      5  C   UNL     1      19.147  24.427  56.547  1.00  0.00     0.299 C 
BRANCH   5   6
ATOM      6  C   UNL     1      17.834  24.377  57.225  1.00  0.00     0.014 A 
ATOM      7  C   UNL     1      17.113  23.185  57.288  1.00  0.00     0.010 A 
ATOM      8  C   UNL     1      17.245  25.477  57.791  1.00  0.00    -0.010 A 
ATOM      9  C   UNL     1      15.887  23.115  57.877  1.00  0.00     0.001 A 
ATOM     10  C   UNL     1      17.879  26.698  57.793  1.00  0.00     0.009 A 
ATOM     11  C   UNL     1      15.986  25.440  58.405  1.00  0.00    -0.018 A 
ATOM     12  C   UNL     1      15.325  24.234  58.434  1.00  0.00     0.009 A 
ATOM     13  C   UNL     1      17.298  27.835  58.374  1.00  0.00     0.001 A 
ATOM     14  C   UNL     1      15.387  26.529  58.982  1.00  0.00     0.009 A 
ATOM     15  C   UNL     1      16.058  27.745  58.964  1.00  0.00     0.001 A 
ENDBRANCH   5   6
ENDBRANCH   2   5
ENDBRANCH   1   2
BRANCH   1  16
ATOM     16  C   UNL     1      19.842  22.503  54.366  1.00  0.00     0.006 A 
ATOM     17  C   UNL     1      20.830  21.595  54.048  1.00  0.00     0.010 A 
ATOM     18  C   UNL     1      18.593  21.998  54.663  1.00  0.00     0.010 A 
ATOM     19  C   UNL     1      20.583  20.238  54.029  1.00  0.00     0.005 A 
ATOM     20  C   UNL     1      18.336  20.633  54.647  1.00  0.00     0.005 A 
ATOM     21  C   UNL     1      19.325  19.732  54.329  1.00  0.00    -0.043 A 
BRANCH  21  22
ATOM     22  C   UNL     1      19.100  18.258  54.298  1.00  0.00    -0.013 C 
ATOM     23  C   UNL     1      18.346  17.918  53.038  1.00  0.00     0.016 C 
ATOM     24  C   UNL     1      20.424  17.525  54.262  1.00  0.00     0.016 C 
ATOM     25  C   UNL     1      18.344  17.775  55.501  1.00  0.00     0.016 C 
ENDBRANCH  21  22
ENDBRANCH   1  16
TORSDOF 5
ENDMDL
MODEL 4
REMARK VINA RESULT:      -4.6      0.603      1.101
REMARK SMILES C[NH+](Cc1ccc(C(C)(C)C)cc1)Cc1cccc2ccccc12
REMARK SMILES IDX 3 1 2 2 1 3 14 5 15 6 16 7 24 8 17 9 23 10 19 11 18 12 22 13
REMARK SMILES IDX 20 14 21 15 4 16 5 17 13 18 6 19 12 20 7 21 8 22 9 23 10 24
REMARK SMILES IDX 11 25
REMARK H PARENT 2 4
ROOT
ATOM      1  C   UNL     1      20.243  24.035  54.725  1.00  0.00     0.299 C 
ENDROOT
BRANCH   1   2
ATOM      2  N   UNL     1      19.141  24.797  55.276  1.00  0.00    -0.330 N 
ATOM      3  C   UNL     1      19.079  26.108  54.624  1.00  0.00     0.333 C 
ATOM      4  H   UNL     1      18.285  24.307  54.957  1.00  0.00     0.348 HD
BRANCH   2   5
ATOM      5  C   UNL     1      19.154  24.904  56.691  1.00  0.00     0.299 C 
BRANCH   5   6
ATOM      6  C   UNL     1      17.838  24.887  57.366  1.00  0.00     0.014 A 
ATOM      7  C   UNL     1      17.123  23.697  57.495  1.00  0.00     0.010 A 
ATOM      8  C   UNL     1      17.242  26.015  57.864  1.00  0.00    -0.010 A 
ATOM      9  C   UNL     1      15.894  23.655  58.083  1.00  0.00     0.001 A 
ATOM     10  C   UNL     1      17.871  27.237  57.797  1.00  0.00     0.009 A 
ATOM     11  C   UNL     1      15.981  26.008  58.475  1.00  0.00    -0.018 A 
ATOM     12  C   UNL     1      15.325  24.802  58.570  1.00  0.00     0.009 A 
ATOM     13  C   UNL     1      17.282  28.403  58.309  1.00  0.00     0.001 A 
ATOM     14  C   UNL     1      15.374  27.125  58.985  1.00  0.00     0.009 A 
ATOM     15  C   UNL     1      16.039  28.341  58.899  1.00  0.00     0.001 A 
ENDBRANCH   5   6
ENDBRANCH   2   5
ENDBRANCH   1   2
BRANCH   1  16
ATOM     16  C   UNL     1      19.931  22.571  54.635  1.00  0.00     0.006 A 
ATOM     17  C   UNL     1      20.487  21.781  53.651  1.00  0.00     0.010 A 
ATOM     18  C   UNL     1      19.081  21.957  55.531  1.00  0.00     0.010 A 
ATOM     19  C   UNL     1      20.207  20.432  53.565  1.00  0.00     0.005 A 
ATOM     20  C   UNL     1      18.794  20.601  55.452  1.00  0.00     0.005 A 
ATOM     21  C   UNL     1      19.351  19.817  54.468  1.00  0.00    -0.043 A 
BRANCH  21  22
ATOM     22  C   UNL     1      19.075  18.357  54.340  1.00  0.00    -0.013 C 
ATOM     23  C   UNL     1      20.382  17.614  54.448  1.00  0.00     0.016 C 
ATOM     24  C   UNL     1      18.178  17.891  55.466  1.00  0.00     0.016 C 
ATOM     25  C   UNL     1      18.394  18.021  53.045  1.00  0.00     0.016 C 
ENDBRANCH  21  22
ENDBRANCH   1  16
TORSDOF 5
ENDMDL
MODEL 5
REMARK VINA RESULT:      -4.2      1.354      2.590
REMARK SMILES C[NH+](Cc1ccc(C(C)(C)C)cc1)Cc1cccc2ccccc12
REMARK SMILES IDX 3 1 2 2 1 3 14 5 15 6 16 7 24 8 17 9 23 10 19 11 18 12 22 13
REMARK SMILES IDX 20 14 21 15 4 16 5 17 13 18 6 19 12 20 7 21 8 22 9 23 10 24
REMARK SMILES IDX 11 25
REMARK H PARENT 2 4
ROOT
ATOM      1  C   UNL     1      18.345  23.977  56.241  1.00  0.00     0.299 C 
ENDROOT
BRANCH   1   2
ATOM      2  N   UNL     1      17.454  23.992  57.383  1.00  0.00    -0.330 N 
ATOM      3  C   UNL     1      16.091  24.295  56.935  1.00  0.00     0.333 C 
ATOM      4  H   UNL     1      17.408  23.008  57.705  1.00  0.00     0.348 HD
BRANCH   2   5
ATOM      5  C   UNL     1      17.871  24.844  58.438  1.00  0.00     0.299 C 
BRANCH   5   6
ATOM      6  C   UNL     1      17.224  26.172  58.508  1.00  0.00     0.014 A 
ATOM      7  C   UNL     1      16.017  26.338  59.186  1.00  0.00     0.010 A 
ATOM      8  C   UNL     1      17.741  27.286  57.899  1.00  0.00    -0.010 A 
ATOM      9  C   UNL     1      15.381  27.542  59.240  1.00  0.00     0.001 A 
ATOM     10  C   UNL     1      18.933  27.230  57.216  1.00  0.00     0.009 A 
ATOM     11  C   UNL     1      17.113  28.538  57.936  1.00  0.00    -0.018 A 
ATOM     12  C   UNL     1      15.924  28.636  58.620  1.00  0.00     0.009 A 
ATOM     13  C   UNL     1      19.485  28.360  56.593  1.00  0.00     0.001 A 
ATOM     14  C   UNL     1      17.621  29.662  57.340  1.00  0.00     0.009 A 
ATOM     15  C   UNL     1      18.827  29.567  56.658  1.00  0.00     0.001 A 
ENDBRANCH   5   6
ENDBRANCH   2   5
ENDBRANCH   1   2
BRANCH   1  16
ATOM     16  C   UNL     1      18.572  22.590  55.717  1.00  0.00     0.006 A 
ATOM     17  C   UNL     1      17.967  21.497  56.301  1.00  0.00     0.010 A 
ATOM     18  C   UNL     1      19.391  22.353  54.632  1.00  0.00     0.010 A 
ATOM     19  C   UNL     1      18.170  20.219  55.821  1.00  0.00     0.005 A 
ATOM     20  C   UNL     1      19.600  21.071  54.144  1.00  0.00     0.005 A 
ATOM     21  C   UNL     1      18.994  19.984  54.729  1.00  0.00    -0.043 A 
BRANCH  21  22
ATOM     22  C   UNL     1      19.186  18.588  54.242  1.00  0.00    -0.013 C 
ATOM     23  C   UNL     1      18.578  17.644  55.249  1.00  0.00     0.016 C 
ATOM     24  C   UNL     1      18.470  18.388  52.924  1.00  0.00     0.016 C 
ATOM     25  C   UNL     1      20.635  18.255  54.031  1.00  0.00     0.016 C 
ENDBRANCH  21  22
ENDBRANCH   1  16
TORSDOF 5
ENDMDL
MODEL 6
REMARK VINA RESULT:      -4.0      1.246      2.550
REMARK SMILES C[NH+](Cc1ccc(C(C)(C)C)cc1)Cc1cccc2ccccc12
REMARK SMILES IDX 3 1 2 2 1 3 14 5 15 6 16 7 24 8 17 9 23 10 19 11 18 12 22 13
REMARK SMILES IDX 20 14 21 15 4 16 5 17 13 18 6 19 12 20 7 21 8 22 9 23 10 24
REMARK SMILES IDX 11 25
REMARK H PARENT 2 4
ROOT
ATOM      1  C   UNL     1      18.782  24.039  55.999  1.00  0.00     0.299 C 
ENDROOT
BRANCH   1   2
ATOM      2  N   UNL     1      17.910  24.103  57.153  1.00  0.00    -0.330 N 
ATOM      3  C   UNL     1      16.541  24.393  56.716  1.00  0.00     0.333 C 
ATOM      4  H   UNL     1      17.867  23.134  57.517  1.00  0.00     0.348 HD
BRANCH   2   5
ATOM      5  C   UNL     1      18.346  24.996  58.166  1.00  0.00     0.299 C 
BRANCH   5   6
ATOM      6  C   UNL     1      17.546  26.226  58.350  1.00  0.00     0.014 A 
ATOM      7  C   UNL     1      16.354  26.195  59.074  1.00  0.00     0.010 A 
ATOM      8  C   UNL     1      17.899  27.434  57.808  1.00  0.00    -0.010 A 
ATOM      9  C   UNL     1      15.579  27.304  59.234  1.00  0.00     0.001 A 
ATOM     10  C   UNL     1      19.062  27.573  57.086  1.00  0.00     0.009 A 
ATOM     11  C   UNL     1      17.126  28.593  57.953  1.00  0.00    -0.018 A 
ATOM     12  C   UNL     1      15.960  28.497  58.678  1.00  0.00     0.009 A 
ATOM     13  C   UNL     1      19.447  28.802  56.530  1.00  0.00     0.001 A 
ATOM     14  C   UNL     1      17.469  29.809  57.424  1.00  0.00     0.009 A 
ATOM     15  C   UNL     1      18.650  29.911  56.701  1.00  0.00     0.001 A 
ENDBRANCH   5   6
ENDBRANCH   2   5
ENDBRANCH   1   2
BRANCH   1  16
ATOM     16  C   UNL     1      18.992  22.631  55.525  1.00  0.00     0.006 A 
ATOM     17  C   UNL     1      19.861  22.346  54.492  1.00  0.00     0.010 A 
ATOM     18  C   UNL     1      18.329  21.568  56.103  1.00  0.00     0.010 A 
ATOM     19  C   UNL     1      20.061  21.053  54.054  1.00  0.00     0.005 A 
ATOM     20  C   UNL     1      18.525  20.264  55.668  1.00  0.00     0.005 A 
ATOM     21  C   UNL     1      19.393  19.985  54.638  1.00  0.00    -0.043 A 
BRANCH  21  22
ATOM     22  C   UNL     1      19.638  18.604  54.135  1.00  0.00    -0.013 C 
ATOM     23  C   UNL     1      19.305  17.629  55.236  1.00  0.00     0.016 C 
ATOM     24  C   UNL     1      18.735  18.305  52.958  1.00  0.00     0.016 C 
ATOM     25  C   UNL     1      21.057  18.409  53.683  1.00  0.00     0.016 C 
ENDBRANCH  21  22
ENDBRANCH   1  16
TORSDOF 5
ENDMDL
MODEL 7
REMARK VINA RESULT:      -4.0      1.016      2.688
REMARK SMILES C[NH+](Cc1ccc(C(C)(C)C)cc1)Cc1cccc2ccccc12
REMARK SMILES IDX 3 1 2 2 1 3 14 5 15 6 16 7 24 8 17 9 23 10 19 11 18 12 22 13
REMARK SMILES IDX 20 14 21 15 4 16 5 17 13 18 6 19 12 20 7 21 8 22 9 23 10 24
REMARK SMILES IDX 11 25
REMARK H PARENT 2 4
ROOT
ATOM      1  C   UNL     1      20.888  25.014  54.705  1.00  0.00     0.299 C 
ENDROOT
BRANCH   1   2
ATOM      2  N   UNL     1      19.837  25.892  55.177  1.00  0.00    -0.330 N 
ATOM      3  C   UNL     1      19.158  26.502  54.030  1.00  0.00     0.333 C 
ATOM      4  H   UNL     1      19.126  25.265  55.596  1.00  0.00     0.348 HD
BRANCH   2   5
ATOM      5  C   UNL     1      20.265  26.860  56.122  1.00  0.00     0.299 C 
BRANCH   5   6
ATOM      6  C   UNL     1      19.207  27.682  56.749  1.00  0.00     0.014 A 
ATOM      7  C   UNL     1      19.198  29.067  56.590  1.00  0.00     0.010 A 
ATOM      8  C   UNL     1      18.216  27.150  57.531  1.00  0.00    -0.010 A 
ATOM      9  C   UNL     1      18.255  29.854  57.181  1.00  0.00     0.001 A 
ATOM     10  C   UNL     1      18.130  25.794  57.740  1.00  0.00     0.009 A 
ATOM     11  C   UNL     1      17.232  27.930  58.153  1.00  0.00    -0.018 A 
ATOM     12  C   UNL     1      17.277  29.291  57.958  1.00  0.00     0.009 A 
ATOM     13  C   UNL     1      17.118  25.227  58.530  1.00  0.00     0.001 A 
ATOM     14  C   UNL     1      16.229  27.413  58.931  1.00  0.00     0.009 A 
ATOM     15  C   UNL     1      16.175  26.038  59.120  1.00  0.00     0.001 A 
ENDBRANCH   5   6
ENDBRANCH   2   5
ENDBRANCH   1   2
BRANCH   1  16
ATOM     16  C   UNL     1      20.447  23.581  54.649  1.00  0.00     0.006 A 
ATOM     17  C   UNL     1      21.023  22.689  53.769  1.00  0.00     0.010 A 
ATOM     18  C   UNL     1      19.453  23.099  55.475  1.00  0.00     0.010 A 
ATOM     19  C   UNL     1      20.625  21.369  53.716  1.00  0.00     0.005 A 
ATOM     20  C   UNL     1      19.047  21.772  55.428  1.00  0.00     0.005 A 
ATOM     21  C   UNL     1      19.625  20.886  54.548  1.00  0.00    -0.043 A 
BRANCH  21  22
ATOM     22  C   UNL     1      19.224  19.453  54.458  1.00  0.00    -0.013 C 
ATOM     23  C   UNL     1      18.449  19.253  53.181  1.00  0.00     0.016 C 
ATOM     24  C   UNL     1      20.450  18.567  54.404  1.00  0.00     0.016 C 
ATOM     25  C   UNL     1      18.401  19.020  55.637  1.00  0.00     0.016 C 
ENDBRANCH  21  22
ENDBRANCH   1  16
TORSDOF 5
ENDMDL
MODEL 8
REMARK VINA RESULT:      -3.8      1.412      2.782
REMARK SMILES C[NH+](Cc1ccc(C(C)(C)C)cc1)Cc1cccc2ccccc12
REMARK SMILES IDX 3 1 2 2 1 3 14 5 15 6 16 7 24 8 17 9 23 10 19 11 18 12 22 13
REMARK SMILES IDX 20 14 21 15 4 16 5 17 13 18 6 19 12 20 7 21 8 22 9 23 10 24
REMARK SMILES IDX 11 25
REMARK H PARENT 2 4
ROOT
ATOM      1  C   UNL     1      18.767  24.240  56.064  1.00  0.00     0.299 C 
ENDROOT
BRANCH   1   2
ATOM      2  N   UNL     1      17.874  24.338  57.200  1.00  0.00    -0.330 N 
ATOM      3  C   UNL     1      16.531  24.701  56.736  1.00  0.00     0.333 C 
ATOM      4  H   UNL     1      17.774  23.369  57.553  1.00  0.00     0.348 HD
BRANCH   2   5
ATOM      5  C   UNL     1      18.333  25.199  58.231  1.00  0.00     0.299 C 
BRANCH   5   6
ATOM      6  C   UNL     1      17.799  26.579  58.224  1.00  0.00     0.014 A 
ATOM      7  C   UNL     1      16.651  26.899  58.948  1.00  0.00     0.010 A 
ATOM      8  C   UNL     1      18.366  27.593  57.498  1.00  0.00    -0.010 A 
ATOM      9  C   UNL     1      16.118  28.153  58.935  1.00  0.00     0.001 A 
ATOM     10  C   UNL     1      19.507  27.383  56.759  1.00  0.00     0.009 A 
ATOM     11  C   UNL     1      17.844  28.893  57.463  1.00  0.00    -0.018 A 
ATOM     12  C   UNL     1      16.709  29.145  58.199  1.00  0.00     0.009 A 
ATOM     13  C   UNL     1      20.109  28.410  56.016  1.00  0.00     0.001 A 
ATOM     14  C   UNL     1      18.403  29.920  56.749  1.00  0.00     0.009 A 
ATOM     15  C   UNL     1      19.555  29.670  56.015  1.00  0.00     0.001 A 
ENDBRANCH   5   6
ENDBRANCH   2   5
ENDBRANCH   1   2
BRANCH   1  16
ATOM     16  C   UNL     1      18.921  22.827  55.585  1.00  0.00     0.006 A 
ATOM     17  C   UNL     1      19.892  22.484  54.667  1.00  0.00     0.010 A 
ATOM     18  C   UNL     1      18.101  21.816  56.043  1.00  0.00     0.010 A 
ATOM     19  C   UNL     1      20.041  21.186  54.226  1.00  0.00     0.005 A 
ATOM     20  C   UNL     1      18.245  20.507  55.603  1.00  0.00     0.005 A 
ATOM     21  C   UNL     1      19.215  20.170  54.688  1.00  0.00    -0.043 A 
BRANCH  21  22
ATOM     22  C   UNL     1      19.409  18.780  54.186  1.00  0.00    -0.013 C 
ATOM     23  C   UNL     1      20.874  18.581  53.889  1.00  0.00     0.016 C 
ATOM     24  C   UNL     1      19.007  17.777  55.245  1.00  0.00     0.016 C 
ATOM     25  C   UNL     1      18.590  18.502  52.958  1.00  0.00     0.016 C 
ENDBRANCH  21  22
ENDBRANCH   1  16
TORSDOF 5
ENDMDL
MODEL 9
REMARK VINA RESULT:      -3.5      0.820      2.386
REMARK SMILES C[NH+](Cc1ccc(C(C)(C)C)cc1)Cc1cccc2ccccc12
REMARK SMILES IDX 3 1 2 2 1 3 14 5 15 6 16 7 24 8 17 9 23 10 19 11 18 12 22 13
REMARK SMILES IDX 20 14 21 15 4 16 5 17 13 18 6 19 12 20 7 21 8 22 9 23 10 24
REMARK SMILES IDX 11 25
REMARK H PARENT 2 4
ROOT
ATOM      1  C   UNL     1      20.933  24.682  54.236  1.00  0.00     0.299 C 
ENDROOT
BRANCH   1   2
ATOM      2  N   UNL     1      19.983  25.523  54.935  1.00  0.00    -0.330 N 
ATOM      3  C   UNL     1      20.416  26.922  54.852  1.00  0.00     0.333 C 
ATOM      4  H   UNL     1      19.117  25.485  54.367  1.00  0.00     0.348 HD
BRANCH   2   5
ATOM      5  C   UNL     1      19.721  25.123  56.271  1.00  0.00     0.299 C 
BRANCH   5   6
ATOM      6  C   UNL     1      18.746  25.941  57.025  1.00  0.00     0.014 A 
ATOM      7  C   UNL     1      18.822  27.333  57.004  1.00  0.00     0.010 A 
ATOM      8  C   UNL     1      17.754  25.395  57.795  1.00  0.00    -0.010 A 
ATOM      9  C   UNL     1      17.958  28.112  57.714  1.00  0.00     0.001 A 
ATOM     10  C   UNL     1      17.587  24.032  57.873  1.00  0.00     0.009 A 
ATOM     11  C   UNL     1      16.849  26.166  58.537  1.00  0.00    -0.018 A 
ATOM     12  C   UNL     1      16.977  27.535  58.475  1.00  0.00     0.009 A 
ATOM     13  C   UNL     1      16.571  23.452  58.649  1.00  0.00     0.001 A 
ATOM     14  C   UNL     1      15.846  25.636  59.305  1.00  0.00     0.009 A 
ATOM     15  C   UNL     1      15.709  24.255  59.360  1.00  0.00     0.001 A 
ENDBRANCH   5   6
ENDBRANCH   2   5
ENDBRANCH   1   2
BRANCH   1  16
ATOM     16  C   UNL     1      20.524  23.239  54.241  1.00  0.00     0.006 A 
ATOM     17  C   UNL     1      21.273  22.281  53.591  1.00  0.00     0.010 A 
ATOM     18  C   UNL     1      19.386  22.814  54.896  1.00  0.00     0.010 A 
ATOM     19  C   UNL     1      20.903  20.951  53.595  1.00  0.00     0.005 A 
ATOM     20  C   UNL     1      19.008  21.478  54.905  1.00  0.00     0.005 A 
ATOM     21  C   UNL     1      19.758  20.526  54.255  1.00  0.00    -0.043 A 
BRANCH  21  22
ATOM     22  C   UNL     1      19.395  19.080  54.235  1.00  0.00    -0.013 C 
ATOM     23  C   UNL     1      20.664  18.270  54.163  1.00  0.00     0.016 C 
ATOM     24  C   UNL     1      18.671  18.702  55.510  1.00  0.00     0.016 C 
ATOM     25  C   UNL     1      18.496  18.738  53.082  1.00  0.00     0.016 C 
ENDBRANCH  21  22
ENDBRANCH   1  16
TORSDOF 5
ENDMDL
