MODEL 1
REMARK VINA RESULT:      -6.8      0.000      0.000
REMARK SMILES CNCC[C@H](Oc1cccc2ccccc12)c1cccs1
REMARK SMILES IDX 4 1 3 2 2 3 1 4 5 6 6 7 7 8 8 9 16 10 9 11 15 12 11 13 10 14
REMARK SMILES IDX 14 15 12 16 13 17 17 18 18 19 21 20 19 21 20 22
REMARK H PARENT 2 5
ROOT
ATOM      1  C   UNL     1      20.483  22.019  55.069  1.00  0.00     0.066 C 
ENDROOT
BRANCH   1   2
ATOM      2  C   UNL     1      21.568  22.465  54.193  1.00  0.00     0.085 C 
BRANCH   2   3
ATOM      3  N   UNL     1      21.511  22.354  52.806  1.00  0.00    -0.320 NA
ATOM      4  C   UNL     1      21.229  23.463  51.989  1.00  0.00     0.101 C 
ATOM      5  H   UNL     1      22.009  21.599  52.332  1.00  0.00     0.122 HD
ENDBRANCH   2   3
ENDBRANCH   1   2
BRANCH   1   6
ATOM      6  C   UNL     1      19.118  21.763  54.559  1.00  0.00     0.215 C 
BRANCH   6   7
ATOM      7  O   UNL     1      18.062  22.461  55.133  1.00  0.00    -0.484 OA
BRANCH   7   8
ATOM      8  C   UNL     1      18.233  23.586  55.901  1.00  0.00     0.128 A 
ATOM      9  C   UNL     1      19.105  24.590  55.615  1.00  0.00     0.047 A 
ATOM     10  C   UNL     1      17.438  23.688  57.060  1.00  0.00     0.024 A 
ATOM     11  C   UNL     1      19.192  25.688  56.471  1.00  0.00     0.004 A 
ATOM     12  C   UNL     1      16.541  22.674  57.358  1.00  0.00     0.012 A 
ATOM     13  C   UNL     1      17.510  24.768  57.919  1.00  0.00    -0.015 A 
ATOM     14  C   UNL     1      18.416  25.784  57.599  1.00  0.00     0.009 A 
ATOM     15  C   UNL     1      15.761  22.779  58.489  1.00  0.00     0.001 A 
ATOM     16  C   UNL     1      16.726  24.863  59.049  1.00  0.00     0.009 A 
ATOM     17  C   UNL     1      15.841  23.859  59.341  1.00  0.00     0.001 A 
ENDBRANCH   7   8
ENDBRANCH   6   7
BRANCH   6  18
ATOM     18  C   UNL     1      18.887  20.275  54.773  1.00  0.00     0.045 A 
ATOM     19  C   UNL     1      18.037  19.628  55.596  1.00  0.00     0.019 A 
ATOM     20  S   UNL     1      19.729  18.947  53.944  1.00  0.00    -0.145 S 
ATOM     21  C   UNL     1      17.999  18.301  55.622  1.00  0.00     0.012 A 
ATOM     22  C   UNL     1      18.855  17.632  54.782  1.00  0.00     0.065 A 
ENDBRANCH   6  18
ENDBRANCH   1   6
TORSDOF 6
ENDMDL
MODEL 2
REMARK VINA RESULT:      -6.7      2.921      4.543
REMARK SMILES CNCC[C@H](Oc1cccc2ccccc12)c1cccs1
REMARK SMILES IDX 4 1 3 2 2 3 1 4 5 6 6 7 7 8 8 9 16 10 9 11 15 12 11 13 10 14
REMARK SMILES IDX 14 15 12 16 13 17 17 18 18 19 21 20 19 21 20 22
REMARK H PARENT 2 5
ROOT
ATOM      1  C   UNL     1      20.124  26.651  54.784  1.00  0.00     0.066 C 
ENDROOT
BRANCH   1   2
ATOM      2  C   UNL     1      20.501  27.656  55.781  1.00  0.00     0.085 C 
BRANCH   2   3
ATOM      3  N   UNL     1      20.201  29.009  55.637  1.00  0.00    -0.320 NA
ATOM      4  C   UNL     1      19.276  29.651  56.479  1.00  0.00     0.101 C 
ATOM      5  H   UNL     1      20.872  29.637  55.193  1.00  0.00     0.122 HD
ENDBRANCH   2   3
ENDBRANCH   1   2
BRANCH   1   6
ATOM      6  C   UNL     1      19.447  25.389  55.159  1.00  0.00     0.215 C 
BRANCH   6   7
ATOM      7  O   UNL     1      19.284  25.109  56.511  1.00  0.00    -0.484 OA
BRANCH   7   8
ATOM      8  C   UNL     1      18.128  24.587  57.036  1.00  0.00     0.128 A 
ATOM      9  C   UNL     1      17.732  23.294  56.897  1.00  0.00     0.047 A 
ATOM     10  C   UNL     1      17.312  25.471  57.769  1.00  0.00     0.024 A 
ATOM     11  C   UNL     1      16.534  22.876  57.477  1.00  0.00     0.004 A 
ATOM     12  C   UNL     1      17.707  26.790  57.924  1.00  0.00     0.012 A 
ATOM     13  C   UNL     1      16.123  25.076  58.352  1.00  0.00    -0.015 A 
ATOM     14  C   UNL     1      15.741  23.740  58.190  1.00  0.00     0.009 A 
ATOM     15  C   UNL     1      16.911  27.651  58.645  1.00  0.00     0.001 A 
ATOM     16  C   UNL     1      15.331  25.945  59.072  1.00  0.00     0.009 A 
ATOM     17  C   UNL     1      15.725  27.248  59.222  1.00  0.00     0.001 A 
ENDBRANCH   7   8
ENDBRANCH   6   7
BRANCH   6  18
ATOM     18  C   UNL     1      20.290  24.287  54.536  1.00  0.00     0.045 A 
ATOM     19  C   UNL     1      21.446  24.350  53.846  1.00  0.00     0.019 A 
ATOM     20  S   UNL     1      19.935  22.545  54.565  1.00  0.00    -0.145 S 
ATOM     21  C   UNL     1      22.021  23.245  53.386  1.00  0.00     0.012 A 
ATOM     22  C   UNL     1      21.386  22.054  53.643  1.00  0.00     0.065 A 
ENDBRANCH   6  18
ENDBRANCH   1   6
TORSDOF 6
ENDMDL
MODEL 3
REMARK VINA RESULT:      -6.7      1.884      4.007
REMARK SMILES CNCC[C@H](Oc1cccc2ccccc12)c1cccs1
REMARK SMILES IDX 4 1 3 2 2 3 1 4 5 6 6 7 7 8 8 9 16 10 9 11 15 12 11 13 10 14
REMARK SMILES IDX 14 15 12 16 13 17 17 18 18 19 21 20 19 21 20 22
REMARK H PARENT 2 5
ROOT
ATOM      1  C   UNL     1      18.525  21.503  54.768  1.00  0.00     0.066 C 
ENDROOT
BRANCH   1   2
ATOM      2  C   UNL     1      18.831  20.075  54.873  1.00  0.00     0.085 C 
BRANCH   2   3
ATOM      3  N   UNL     1      19.300  19.325  53.797  1.00  0.00    -0.320 NA
ATOM      4  C   UNL     1      20.309  18.358  53.959  1.00  0.00     0.101 C 
ATOM      5  H   UNL     1      18.712  19.184  52.975  1.00  0.00     0.122 HD
ENDBRANCH   2   3
ENDBRANCH   1   2
BRANCH   1   6
ATOM      6  C   UNL     1      19.295  22.526  55.511  1.00  0.00     0.215 C 
BRANCH   6   7
ATOM      7  O   UNL     1      18.615  23.642  55.985  1.00  0.00    -0.484 OA
BRANCH   7   8
ATOM      8  C   UNL     1      17.573  23.565  56.877  1.00  0.00     0.128 A 
ATOM      9  C   UNL     1      16.805  22.461  57.072  1.00  0.00     0.047 A 
ATOM     10  C   UNL     1      17.301  24.723  57.632  1.00  0.00     0.024 A 
ATOM     11  C   UNL     1      15.771  22.500  58.009  1.00  0.00     0.004 A 
ATOM     12  C   UNL     1      18.081  25.853  57.446  1.00  0.00     0.012 A 
ATOM     13  C   UNL     1      16.282  24.781  58.564  1.00  0.00    -0.015 A 
ATOM     14  C   UNL     1      15.509  23.629  58.742  1.00  0.00     0.009 A 
ATOM     15  C   UNL     1      17.816  26.982  58.190  1.00  0.00     0.001 A 
ATOM     16  C   UNL     1      16.024  25.916  59.303  1.00  0.00     0.009 A 
ATOM     17  C   UNL     1      16.797  27.031  59.117  1.00  0.00     0.001 A 
ENDBRANCH   7   8
ENDBRANCH   6   7
BRANCH   6  18
ATOM     18  C   UNL     1      20.372  22.992  54.544  1.00  0.00     0.045 A 
ATOM     19  C   UNL     1      21.129  22.297  53.672  1.00  0.00     0.019 A 
ATOM     20  S   UNL     1      20.928  24.665  54.312  1.00  0.00    -0.145 S 
ATOM     21  C   UNL     1      22.024  22.915  52.910  1.00  0.00     0.012 A 
ATOM     22  C   UNL     1      22.137  24.277  53.053  1.00  0.00     0.065 A 
ENDBRANCH   6  18
ENDBRANCH   1   6
TORSDOF 6
ENDMDL
MODEL 4
REMARK VINA RESULT:      -6.6      2.914      4.662
REMARK SMILES CNCC[C@H](Oc1cccc2ccccc12)c1cccs1
REMARK SMILES IDX 4 1 3 2 2 3 1 4 5 6 6 7 7 8 8 9 16 10 9 11 15 12 11 13 10 14
REMARK SMILES IDX 14 15 12 16 13 17 17 18 18 19 21 20 19 21 20 22
REMARK H PARENT 2 5
ROOT
ATOM      1  C   UNL     1      20.128  26.695  54.691  1.00  0.00     0.066 C 
ENDROOT
BRANCH   1   2
ATOM      2  C   UNL     1      20.378  28.052  55.182  1.00  0.00     0.085 C 
BRANCH   2   3
ATOM      3  N   UNL     1      21.561  28.741  54.923  1.00  0.00    -0.320 NA
ATOM      4  C   UNL     1      21.725  29.511  53.758  1.00  0.00     0.101 C 
ATOM      5  H   UNL     1      22.178  29.007  55.693  1.00  0.00     0.122 HD
ENDBRANCH   2   3
ENDBRANCH   1   2
BRANCH   1   6
ATOM      6  C   UNL     1      19.328  25.718  55.462  1.00  0.00     0.215 C 
BRANCH   6   7
ATOM      7  O   UNL     1      19.358  25.794  56.850  1.00  0.00    -0.484 OA
BRANCH   7   8
ATOM      8  C   UNL     1      18.244  25.625  57.636  1.00  0.00     0.128 A 
ATOM      9  C   UNL     1      17.791  24.423  58.082  1.00  0.00     0.047 A 
ATOM     10  C   UNL     1      17.541  26.791  57.995  1.00  0.00     0.024 A 
ATOM     11  C   UNL     1      16.646  24.374  58.878  1.00  0.00     0.004 A 
ATOM     12  C   UNL     1      17.998  28.023  57.553  1.00  0.00     0.012 A 
ATOM     13  C   UNL     1      16.406  26.763  58.783  1.00  0.00    -0.015 A 
ATOM     14  C   UNL     1      15.963  25.512  59.226  1.00  0.00     0.009 A 
ATOM     15  C   UNL     1      17.311  29.162  57.910  1.00  0.00     0.001 A 
ATOM     16  C   UNL     1      15.725  27.908  59.136  1.00  0.00     0.009 A 
ATOM     17  C   UNL     1      16.179  29.124  58.696  1.00  0.00     0.001 A 
ENDBRANCH   7   8
ENDBRANCH   6   7
BRANCH   6  18
ATOM     18  C   UNL     1      19.856  24.355  55.043  1.00  0.00     0.045 A 
ATOM     19  C   UNL     1      20.998  24.011  54.414  1.00  0.00     0.019 A 
ATOM     20  S   UNL     1      19.051  22.789  55.293  1.00  0.00    -0.145 S 
ATOM     21  C   UNL     1      21.265  22.739  54.142  1.00  0.00     0.012 A 
ATOM     22  C   UNL     1      20.332  21.806  54.526  1.00  0.00     0.065 A 
ENDBRANCH   6  18
ENDBRANCH   1   6
TORSDOF 6
ENDMDL
MODEL 5
REMARK VINA RESULT:      -6.4      2.858      4.429
REMARK SMILES CNCC[C@H](Oc1cccc2ccccc12)c1cccs1
REMARK SMILES IDX 4 1 3 2 2 3 1 4 5 6 6 7 7 8 8 9 16 10 9 11 15 12 11 13 10 14
REMARK SMILES IDX 14 15 12 16 13 17 17 18 18 19 21 20 19 21 20 22
REMARK H PARENT 2 5
ROOT
ATOM      1  C   UNL     1      20.394  26.321  55.103  1.00  0.00     0.066 C 
ENDROOT
BRANCH   1   2
ATOM      2  C   UNL     1      20.220  27.621  54.452  1.00  0.00     0.085 C 
BRANCH   2   3
ATOM      3  N   UNL     1      21.292  28.439  54.104  1.00  0.00    -0.320 NA
ATOM      4  C   UNL     1      21.254  29.830  54.310  1.00  0.00     0.101 C 
ATOM      5  H   UNL     1      22.234  28.050  54.042  1.00  0.00     0.122 HD
ENDBRANCH   2   3
ENDBRANCH   1   2
BRANCH   1   6
ATOM      6  C   UNL     1      19.264  25.600  55.731  1.00  0.00     0.215 C 
BRANCH   6   7
ATOM      7  O   UNL     1      19.131  25.665  57.113  1.00  0.00    -0.484 OA
BRANCH   7   8
ATOM      8  C   UNL     1      17.935  25.479  57.763  1.00  0.00     0.128 A 
ATOM      9  C   UNL     1      17.405  24.266  58.071  1.00  0.00     0.047 A 
ATOM     10  C   UNL     1      17.227  26.641  58.128  1.00  0.00     0.024 A 
ATOM     11  C   UNL     1      16.181  24.200  58.736  1.00  0.00     0.004 A 
ATOM     12  C   UNL     1      17.760  27.884  57.824  1.00  0.00     0.012 A 
ATOM     13  C   UNL     1      16.014  26.596  58.787  1.00  0.00    -0.015 A 
ATOM     14  C   UNL     1      15.494  25.334  59.090  1.00  0.00     0.009 A 
ATOM     15  C   UNL     1      17.069  29.018  58.187  1.00  0.00     0.001 A 
ATOM     16  C   UNL     1      15.328  27.737  59.145  1.00  0.00     0.009 A 
ATOM     17  C   UNL     1      15.858  28.964  58.844  1.00  0.00     0.001 A 
ENDBRANCH   7   8
ENDBRANCH   6   7
BRANCH   6  18
ATOM     18  C   UNL     1      19.451  24.145  55.331  1.00  0.00     0.045 A 
ATOM     19  C   UNL     1      18.738  23.047  55.653  1.00  0.00     0.019 A 
ATOM     20  S   UNL     1      20.731  23.497  54.280  1.00  0.00    -0.145 S 
ATOM     21  C   UNL     1      19.083  21.854  55.184  1.00  0.00     0.012 A 
ATOM     22  C   UNL     1      20.186  21.795  54.367  1.00  0.00     0.065 A 
ENDBRANCH   6  18
ENDBRANCH   1   6
TORSDOF 6
ENDMDL
MODEL 6
REMARK VINA RESULT:      -6.4      3.577      7.422
REMARK SMILES CNCC[C@H](Oc1cccc2ccccc12)c1cccs1
REMARK SMILES IDX 4 1 3 2 2 3 1 4 5 6 6 7 7 8 8 9 16 10 9 11 15 12 11 13 10 14
REMARK SMILES IDX 14 15 12 16 13 17 17 18 18 19 21 20 19 21 20 22
REMARK H PARENT 2 5
ROOT
ATOM      1  C   UNL     1      17.916  26.024  58.078  1.00  0.00     0.066 C 
ENDROOT
BRANCH   1   2
ATOM      2  C   UNL     1      16.470  26.119  58.289  1.00  0.00     0.085 C 
BRANCH   2   3
ATOM      3  N   UNL     1      15.896  27.031  59.172  1.00  0.00    -0.320 NA
ATOM      4  C   UNL     1      15.325  28.234  58.719  1.00  0.00     0.101 C 
ATOM      5  H   UNL     1      15.549  26.716  60.079  1.00  0.00     0.122 HD
ENDBRANCH   2   3
ENDBRANCH   1   2
BRANCH   1   6
ATOM      6  C   UNL     1      18.514  26.046  56.724  1.00  0.00     0.215 C 
BRANCH   6   7
ATOM      7  O   UNL     1      19.551  25.161  56.451  1.00  0.00    -0.484 OA
BRANCH   7   8
ATOM      8  C   UNL     1      19.355  23.921  55.895  1.00  0.00     0.128 A 
ATOM      9  C   UNL     1      18.414  23.030  56.308  1.00  0.00     0.047 A 
ATOM     10  C   UNL     1      20.197  23.570  54.821  1.00  0.00     0.024 A 
ATOM     11  C   UNL     1      18.307  21.797  55.664  1.00  0.00     0.004 A 
ATOM     12  C   UNL     1      21.155  24.472  54.387  1.00  0.00     0.012 A 
ATOM     13  C   UNL     1      20.105  22.354  54.171  1.00  0.00    -0.015 A 
ATOM     14  C   UNL     1      19.128  21.458  54.619  1.00  0.00     0.009 A 
ATOM     15  C   UNL     1      21.973  24.128  53.334  1.00  0.00     0.001 A 
ATOM     16  C   UNL     1      20.929  22.018  53.118  1.00  0.00     0.009 A 
ATOM     17  C   UNL     1      21.875  22.912  52.692  1.00  0.00     0.001 A 
ENDBRANCH   7   8
ENDBRANCH   6   7
BRANCH   6  18
ATOM     18  C   UNL     1      19.029  27.465  56.541  1.00  0.00     0.045 A 
ATOM     19  C   UNL     1      18.725  28.601  57.200  1.00  0.00     0.019 A 
ATOM     20  S   UNL     1      20.227  28.005  55.343  1.00  0.00    -0.145 S 
ATOM     21  C   UNL     1      19.305  29.750  56.871  1.00  0.00     0.012 A 
ATOM     22  C   UNL     1      20.213  29.722  55.841  1.00  0.00     0.065 A 
ENDBRANCH   6  18
ENDBRANCH   1   6
TORSDOF 6
ENDMDL
MODEL 7
REMARK VINA RESULT:      -6.3      2.870      6.053
REMARK SMILES CNCC[C@H](Oc1cccc2ccccc12)c1cccs1
REMARK SMILES IDX 4 1 3 2 2 3 1 4 5 6 6 7 7 8 8 9 16 10 9 11 15 12 11 13 10 14
REMARK SMILES IDX 14 15 12 16 13 17 17 18 18 19 21 20 19 21 20 22
REMARK H PARENT 2 5
ROOT
ATOM      1  C   UNL     1      20.088  27.139  56.175  1.00  0.00     0.066 C 
ENDROOT
BRANCH   1   2
ATOM      2  C   UNL     1      20.055  27.705  54.825  1.00  0.00     0.085 C 
BRANCH   2   3
ATOM      3  N   UNL     1      20.541  28.977  54.529  1.00  0.00    -0.320 NA
ATOM      4  C   UNL     1      20.801  29.919  55.540  1.00  0.00     0.101 C 
ATOM      5  H   UNL     1      21.053  29.140  53.661  1.00  0.00     0.122 HD
ENDBRANCH   2   3
ENDBRANCH   1   2
BRANCH   1   6
ATOM      6  C   UNL     1      19.503  25.816  56.486  1.00  0.00     0.215 C 
BRANCH   6   7
ATOM      7  O   UNL     1      19.070  25.026  55.427  1.00  0.00    -0.484 OA
BRANCH   7   8
ATOM      8  C   UNL     1      19.891  24.155  54.754  1.00  0.00     0.128 A 
ATOM      9  C   UNL     1      20.991  24.524  54.045  1.00  0.00     0.047 A 
ATOM     10  C   UNL     1      19.553  22.789  54.818  1.00  0.00     0.024 A 
ATOM     11  C   UNL     1      21.753  23.549  53.401  1.00  0.00     0.004 A 
ATOM     12  C   UNL     1      18.438  22.400  55.543  1.00  0.00     0.012 A 
ATOM     13  C   UNL     1      20.295  21.809  54.188  1.00  0.00    -0.015 A 
ATOM     14  C   UNL     1      21.420  22.219  53.465  1.00  0.00     0.009 A 
ATOM     15  C   UNL     1      18.113  21.063  55.609  1.00  0.00     0.001 A 
ATOM     16  C   UNL     1      19.961  20.473  54.258  1.00  0.00     0.009 A 
ATOM     17  C   UNL     1      18.858  20.092  54.975  1.00  0.00     0.001 A 
ENDBRANCH   7   8
ENDBRANCH   6   7
BRANCH   6  18
ATOM     18  C   UNL     1      18.313  26.110  57.386  1.00  0.00     0.045 A 
ATOM     19  C   UNL     1      17.869  27.274  57.902  1.00  0.00     0.019 A 
ATOM     20  S   UNL     1      17.149  24.923  58.016  1.00  0.00    -0.145 S 
ATOM     21  C   UNL     1      16.790  27.303  58.676  1.00  0.00     0.012 A 
ATOM     22  C   UNL     1      16.161  26.107  58.921  1.00  0.00     0.065 A 
ENDBRANCH   6  18
ENDBRANCH   1   6
TORSDOF 6
ENDMDL
MODEL 8
REMARK VINA RESULT:      -6.3      1.078      2.397
REMARK SMILES CNCC[C@H](Oc1cccc2ccccc12)c1cccs1
REMARK SMILES IDX 4 1 3 2 2 3 1 4 5 6 6 7 7 8 8 9 16 10 9 11 15 12 11 13 10 14
REMARK SMILES IDX 14 15 12 16 13 17 17 18 18 19 21 20 19 21 20 22
REMARK H PARENT 2 5
ROOT
ATOM      1  C   UNL     1      19.759  22.535  54.201  1.00  0.00     0.066 C 
ENDROOT
BRANCH   1   2
ATOM      2  C   UNL     1      20.516  23.756  54.486  1.00  0.00     0.085 C 
BRANCH   2   3
ATOM      3  N   UNL     1      21.832  23.941  54.069  1.00  0.00    -0.320 NA
ATOM      4  C   UNL     1      22.242  23.626  52.761  1.00  0.00     0.101 C 
ATOM      5  H   UNL     1      22.429  24.621  54.544  1.00  0.00     0.122 HD
ENDBRANCH   2   3
ENDBRANCH   1   2
BRANCH   1   6
ATOM      6  C   UNL     1      18.648  22.081  55.066  1.00  0.00     0.215 C 
BRANCH   6   7
ATOM      7  O   UNL     1      18.640  22.493  56.393  1.00  0.00    -0.484 OA
BRANCH   7   8
ATOM      8  C   UNL     1      17.515  22.959  57.029  1.00  0.00     0.128 A 
ATOM      9  C   UNL     1      16.411  22.210  57.291  1.00  0.00     0.047 A 
ATOM     10  C   UNL     1      17.530  24.309  57.430  1.00  0.00     0.024 A 
ATOM     11  C   UNL     1      15.326  22.793  57.946  1.00  0.00     0.004 A 
ATOM     12  C   UNL     1      18.652  25.081  57.174  1.00  0.00     0.012 A 
ATOM     13  C   UNL     1      16.465  24.904  58.080  1.00  0.00    -0.015 A 
ATOM     14  C   UNL     1      15.343  24.109  58.335  1.00  0.00     0.009 A 
ATOM     15  C   UNL     1      18.667  26.399  57.573  1.00  0.00     0.001 A 
ATOM     16  C   UNL     1      16.488  26.225  58.474  1.00  0.00     0.009 A 
ATOM     17  C   UNL     1      17.599  26.985  58.219  1.00  0.00     0.001 A 
ENDBRANCH   7   8
ENDBRANCH   6   7
BRANCH   6  18
ATOM     18  C   UNL     1      18.714  20.562  55.032  1.00  0.00     0.045 A 
ATOM     19  C   UNL     1      18.024  19.637  55.728  1.00  0.00     0.019 A 
ATOM     20  S   UNL     1      19.781  19.577  54.005  1.00  0.00    -0.145 S 
ATOM     21  C   UNL     1      18.244  18.342  55.536  1.00  0.00     0.012 A 
ATOM     22  C   UNL     1      19.196  17.997  54.608  1.00  0.00     0.065 A 
ENDBRANCH   6  18
ENDBRANCH   1   6
TORSDOF 6
ENDMDL
MODEL 9
REMARK VINA RESULT:      -6.3      2.806      4.121
REMARK SMILES CNCC[C@H](Oc1cccc2ccccc12)c1cccs1
REMARK SMILES IDX 4 1 3 2 2 3 1 4 5 6 6 7 7 8 8 9 16 10 9 11 15 12 11 13 10 14
REMARK SMILES IDX 14 15 12 16 13 17 17 18 18 19 21 20 19 21 20 22
REMARK H PARENT 2 5
ROOT
ATOM      1  C   UNL     1      19.609  26.685  54.483  1.00  0.00     0.066 C 
ENDROOT
BRANCH   1   2
ATOM      2  C   UNL     1      20.730  27.516  54.927  1.00  0.00     0.085 C 
BRANCH   2   3
ATOM      3  N   UNL     1      20.948  28.806  54.447  1.00  0.00    -0.320 NA
ATOM      4  C   UNL     1      22.246  29.325  54.295  1.00  0.00     0.101 C 
ATOM      5  H   UNL     1      20.242  29.262  53.867  1.00  0.00     0.122 HD
ENDBRANCH   2   3
ENDBRANCH   1   2
BRANCH   1   6
ATOM      6  C   UNL     1      19.230  25.438  55.185  1.00  0.00     0.215 C 
BRANCH   6   7
ATOM      7  O   UNL     1      19.327  25.411  56.571  1.00  0.00    -0.484 OA
BRANCH   7   8
ATOM      8  C   UNL     1      18.294  25.766  57.404  1.00  0.00     0.128 A 
ATOM      9  C   UNL     1      18.135  26.999  57.954  1.00  0.00     0.047 A 
ATOM     10  C   UNL     1      17.343  24.768  57.692  1.00  0.00     0.024 A 
ATOM     11  C   UNL     1      17.043  27.245  58.787  1.00  0.00     0.004 A 
ATOM     12  C   UNL     1      17.490  23.509  57.132  1.00  0.00     0.012 A 
ATOM     13  C   UNL     1      16.254  24.992  58.514  1.00  0.00    -0.015 A 
ATOM     14  C   UNL     1      16.119  26.270  59.066  1.00  0.00     0.009 A 
ATOM     15  C   UNL     1      16.555  22.536  57.411  1.00  0.00     0.001 A 
ATOM     16  C   UNL     1      15.325  24.012  58.788  1.00  0.00     0.009 A 
ATOM     17  C   UNL     1      15.473  22.768  58.233  1.00  0.00     0.001 A 
ENDBRANCH   7   8
ENDBRANCH   6   7
BRANCH   6  18
ATOM     18  C   UNL     1      20.149  24.368  54.616  1.00  0.00     0.045 A 
ATOM     19  C   UNL     1      21.165  24.461  53.736  1.00  0.00     0.019 A 
ATOM     20  S   UNL     1      20.105  22.631  54.995  1.00  0.00    -0.145 S 
ATOM     21  C   UNL     1      21.847  23.381  53.372  1.00  0.00     0.012 A 
ATOM     22  C   UNL     1      21.469  22.183  53.929  1.00  0.00     0.065 A 
ENDBRANCH   6  18
ENDBRANCH   1   6
TORSDOF 6
ENDMDL
