MODEL 1
REMARK VINA RESULT:      -5.3      0.000      0.000
REMARK SMILES CC/C(=C(\c1ccccc1)c1ccc(OCC[NH+](C)C)cc1)c1ccccc1
REMARK SMILES IDX 15 1 14 2 11 3 12 4 22 5 13 6 21 7 4 8 3 9 2 10 1 11 23 12
REMARK SMILES IDX 24 13 28 14 25 15 27 16 26 17 5 18 6 19 10 20 7 21 9 22 8 23
REMARK SMILES IDX 16 24 17 25 18 26 19 27 20 28
REMARK H PARENT 18 29
ROOT
ATOM      1  O   UNL     1      -8.901  17.593  11.948  1.00  0.00    -0.488 OA
ENDROOT
BRANCH   1   2
ATOM      2  C   UNL     1     -10.177  17.680  12.473  1.00  0.00     0.119 A 
ATOM      3  C   UNL     1     -12.851  17.795  13.471  1.00  0.00    -0.017 A 
ATOM      4  C   UNL     1     -11.793  18.356  14.159  1.00  0.00     0.012 A 
ATOM      5  C   UNL     1     -12.532  17.176  12.267  1.00  0.00     0.012 A 
ATOM      6  C   UNL     1     -10.501  18.292  13.662  1.00  0.00     0.047 A 
ATOM      7  C   UNL     1     -11.255  17.113  11.778  1.00  0.00     0.047 A 
BRANCH   3   8
ATOM      8  C   UNL     1     -14.218  17.868  13.956  1.00  0.00    -0.007 C 
ATOM      9  C   UNL     1     -15.018  18.862  13.667  1.00  0.00    -0.033 C 
BRANCH   9  10
ATOM     10  C   UNL     1     -16.410  19.010  14.174  1.00  0.00     0.033 C 
ATOM     11  C   UNL     1     -16.385  19.840  15.424  1.00  0.00     0.009 C 
ENDBRANCH   9  10
BRANCH   9  12
ATOM     12  C   UNL     1     -14.606  19.919  12.725  1.00  0.00    -0.022 A 
ATOM     13  C   UNL     1     -14.884  19.847  11.385  1.00  0.00     0.008 A 
ATOM     14  C   UNL     1     -13.920  20.988  13.217  1.00  0.00     0.008 A 
ATOM     15  C   UNL     1     -14.470  20.853  10.549  1.00  0.00     0.001 A 
ATOM     16  C   UNL     1     -13.479  22.034  12.402  1.00  0.00     0.001 A 
ATOM     17  C   UNL     1     -13.773  21.935  11.062  1.00  0.00     0.000 A 
ENDBRANCH   9  12
BRANCH   8  18
ATOM     18  C   UNL     1     -14.687  16.807  14.823  1.00  0.00    -0.018 A 
ATOM     19  C   UNL     1     -14.370  16.758  16.166  1.00  0.00     0.009 A 
ATOM     20  C   UNL     1     -15.445  15.769  14.289  1.00  0.00     0.009 A 
ATOM     21  C   UNL     1     -14.806  15.700  16.921  1.00  0.00     0.001 A 
ATOM     22  C   UNL     1     -15.892  14.702  15.032  1.00  0.00     0.001 A 
ATOM     23  C   UNL     1     -15.559  14.675  16.383  1.00  0.00     0.000 A 
ENDBRANCH   8  18
ENDBRANCH   3   8
ENDBRANCH   1   2
BRANCH   1  24
ATOM     24  C   UNL     1      -8.377  16.631  11.102  1.00  0.00     0.290 C 
BRANCH  24  25
ATOM     25  C   UNL     1      -7.425  17.133  10.048  1.00  0.00     0.303 C 
BRANCH  25  26
ATOM     26  N   UNL     1      -8.085  17.516   8.837  1.00  0.00    -0.337 N 
ATOM     27  C   UNL     1      -8.473  18.909   8.808  1.00  0.00     0.332 C 
ATOM     28  C   UNL     1      -9.278  16.737   8.575  1.00  0.00     0.332 C 
ATOM     29  H   UNL     1      -7.459  17.366   7.991  1.00  0.00     0.347 HD
ENDBRANCH  25  26
ENDBRANCH  24  25
ENDBRANCH   1  24
TORSDOF 8
ENDMDL
MODEL 2
REMARK VINA RESULT:      -5.3      0.480      1.020
REMARK SMILES CC/C(=C(\c1ccccc1)c1ccc(OCC[NH+](C)C)cc1)c1ccccc1
REMARK SMILES IDX 15 1 14 2 11 3 12 4 22 5 13 6 21 7 4 8 3 9 2 10 1 11 23 12
REMARK SMILES IDX 24 13 28 14 25 15 27 16 26 17 5 18 6 19 10 20 7 21 9 22 8 23
REMARK SMILES IDX 16 24 17 25 18 26 19 27 20 28
REMARK H PARENT 18 29
ROOT
ATOM      1  O   UNL     1      -8.765  17.498  11.909  1.00  0.00    -0.488 OA
ENDROOT
BRANCH   1   2
ATOM      2  C   UNL     1     -10.036  17.632  12.438  1.00  0.00     0.119 A 
ATOM      3  C   UNL     1     -12.702  17.840  13.442  1.00  0.00    -0.017 A 
ATOM      4  C   UNL     1     -11.626  18.386  14.114  1.00  0.00     0.012 A 
ATOM      5  C   UNL     1     -12.405  17.187  12.249  1.00  0.00     0.012 A 
ATOM      6  C   UNL     1     -10.338  18.276  13.614  1.00  0.00     0.047 A 
ATOM      7  C   UNL     1     -11.131  17.080  11.757  1.00  0.00     0.047 A 
BRANCH   3   8
ATOM      8  C   UNL     1     -14.065  17.960  13.929  1.00  0.00    -0.007 C 
ATOM      9  C   UNL     1     -14.825  18.988  13.655  1.00  0.00    -0.033 C 
BRANCH   9  10
ATOM     10  C   UNL     1     -16.209  19.185  14.166  1.00  0.00     0.033 C 
ATOM     11  C   UNL     1     -16.160  20.075  15.373  1.00  0.00     0.009 C 
ENDBRANCH   9  10
BRANCH   9  12
ATOM     12  C   UNL     1     -14.373  20.041  12.727  1.00  0.00    -0.022 A 
ATOM     13  C   UNL     1     -13.594  21.090  13.142  1.00  0.00     0.008 A 
ATOM     14  C   UNL     1     -14.758  19.959  11.423  1.00  0.00     0.008 A 
ATOM     15  C   UNL     1     -13.208  22.049  12.240  1.00  0.00     0.001 A 
ATOM     16  C   UNL     1     -14.389  20.914  10.472  1.00  0.00     0.001 A 
ATOM     17  C   UNL     1     -13.607  21.955  10.917  1.00  0.00     0.000 A 
ENDBRANCH   9  12
BRANCH   8  18
ATOM     18  C   UNL     1     -14.574  16.907  14.783  1.00  0.00    -0.018 A 
ATOM     19  C   UNL     1     -14.255  16.825  16.124  1.00  0.00     0.009 A 
ATOM     20  C   UNL     1     -15.375  15.909  14.236  1.00  0.00     0.009 A 
ATOM     21  C   UNL     1     -14.733  15.775  16.866  1.00  0.00     0.001 A 
ATOM     22  C   UNL     1     -15.864  14.850  14.966  1.00  0.00     0.001 A 
ATOM     23  C   UNL     1     -15.529  14.790  16.315  1.00  0.00     0.000 A 
ENDBRANCH   8  18
ENDBRANCH   3   8
ENDBRANCH   1   2
BRANCH   1  24
ATOM     24  C   UNL     1      -8.085  18.357  11.063  1.00  0.00     0.290 C 
BRANCH  24  25
ATOM     25  C   UNL     1      -7.669  17.775   9.737  1.00  0.00     0.303 C 
BRANCH  25  26
ATOM     26  N   UNL     1      -8.673  17.915   8.727  1.00  0.00    -0.337 N 
ATOM     27  C   UNL     1      -9.596  19.000   8.979  1.00  0.00     0.332 C 
ATOM     28  C   UNL     1      -9.465  16.714   8.550  1.00  0.00     0.332 C 
ATOM     29  H   UNL     1      -8.241  18.111   7.775  1.00  0.00     0.347 HD
ENDBRANCH  25  26
ENDBRANCH  24  25
ENDBRANCH   1  24
TORSDOF 8
ENDMDL
MODEL 3
REMARK VINA RESULT:      -5.2      0.552      1.121
REMARK SMILES CC/C(=C(\c1ccccc1)c1ccc(OCC[NH+](C)C)cc1)c1ccccc1
REMARK SMILES IDX 15 1 14 2 11 3 12 4 22 5 13 6 21 7 4 8 3 9 2 10 1 11 23 12
REMARK SMILES IDX 24 13 28 14 25 15 27 16 26 17 5 18 6 19 10 20 7 21 9 22 8 23
REMARK SMILES IDX 16 24 17 25 18 26 19 27 20 28
REMARK H PARENT 18 29
ROOT
ATOM      1  O   UNL     1      -8.825  17.582  11.964  1.00  0.00    -0.488 OA
ENDROOT
BRANCH   1   2
ATOM      2  C   UNL     1     -10.130  17.652  12.415  1.00  0.00     0.119 A 
ATOM      3  C   UNL     1     -12.789  17.868  13.435  1.00  0.00    -0.017 A 
ATOM      4  C   UNL     1     -12.511  17.186  12.267  1.00  0.00     0.012 A 
ATOM      5  C   UNL     1     -11.697  18.438  14.080  1.00  0.00     0.012 A 
ATOM      6  C   UNL     1     -11.215  17.090  11.785  1.00  0.00     0.047 A 
ATOM      7  C   UNL     1     -10.417  18.343  13.602  1.00  0.00     0.047 A 
BRANCH   3   8
ATOM      8  C   UNL     1     -14.133  17.964  13.976  1.00  0.00    -0.007 C 
ATOM      9  C   UNL     1     -14.905  19.000  13.772  1.00  0.00    -0.033 C 
BRANCH   9  10
ATOM     10  C   UNL     1     -16.270  19.171  14.341  1.00  0.00     0.033 C 
ATOM     11  C   UNL     1     -17.280  18.968  13.250  1.00  0.00     0.009 C 
ENDBRANCH   9  10
BRANCH   9  12
ATOM     12  C   UNL     1     -14.489  20.090  12.872  1.00  0.00    -0.022 A 
ATOM     13  C   UNL     1     -14.562  19.974  11.507  1.00  0.00     0.008 A 
ATOM     14  C   UNL     1     -14.011  21.237  13.428  1.00  0.00     0.008 A 
ATOM     15  C   UNL     1     -14.152  21.016  10.713  1.00  0.00     0.001 A 
ATOM     16  C   UNL     1     -13.582  22.322  12.658  1.00  0.00     0.001 A 
ATOM     17  C   UNL     1     -13.668  22.177  11.292  1.00  0.00     0.000 A 
ENDBRANCH   9  12
BRANCH   8  18
ATOM     18  C   UNL     1     -14.609  16.875  14.806  1.00  0.00    -0.018 A 
ATOM     19  C   UNL     1     -14.281  16.768  16.142  1.00  0.00     0.009 A 
ATOM     20  C   UNL     1     -15.386  15.870  14.237  1.00  0.00     0.009 A 
ATOM     21  C   UNL     1     -14.725  15.687  16.858  1.00  0.00     0.001 A 
ATOM     22  C   UNL     1     -15.842  14.780  14.941  1.00  0.00     0.001 A 
ATOM     23  C   UNL     1     -15.497  14.695  16.286  1.00  0.00     0.000 A 
ENDBRANCH   8  18
ENDBRANCH   3   8
ENDBRANCH   1   2
BRANCH   1  24
ATOM     24  C   UNL     1      -8.186  18.384  11.035  1.00  0.00     0.290 C 
BRANCH  24  25
ATOM     25  C   UNL     1      -7.799  17.711   9.744  1.00  0.00     0.303 C 
BRANCH  25  26
ATOM     26  N   UNL     1      -8.782  17.872   8.715  1.00  0.00    -0.337 N 
ATOM     27  C   UNL     1      -9.662  19.000   8.931  1.00  0.00     0.332 C 
ATOM     28  C   UNL     1      -9.620  16.703   8.549  1.00  0.00     0.332 C 
ATOM     29  H   UNL     1      -8.327  18.031   7.767  1.00  0.00     0.347 HD
ENDBRANCH  25  26
ENDBRANCH  24  25
ENDBRANCH   1  24
TORSDOF 8
ENDMDL
MODEL 4
REMARK VINA RESULT:      -5.1      1.341      2.084
REMARK SMILES CC/C(=C(\c1ccccc1)c1ccc(OCC[NH+](C)C)cc1)c1ccccc1
REMARK SMILES IDX 15 1 14 2 11 3 12 4 22 5 13 6 21 7 4 8 3 9 2 10 1 11 23 12
REMARK SMILES IDX 24 13 28 14 25 15 27 16 26 17 5 18 6 19 10 20 7 21 9 22 8 23
REMARK SMILES IDX 16 24 17 25 18 26 19 27 20 28
REMARK H PARENT 18 29
ROOT
ATOM      1  O   UNL     1      -8.587  16.678  10.944  1.00  0.00    -0.488 OA
ENDROOT
BRANCH   1   2
ATOM      2  C   UNL     1      -9.739  17.063  11.605  1.00  0.00     0.119 A 
ATOM      3  C   UNL     1     -12.181  17.802  12.890  1.00  0.00    -0.017 A 
ATOM      4  C   UNL     1     -10.950  18.113  13.434  1.00  0.00     0.012 A 
ATOM      5  C   UNL     1     -12.155  17.112  11.682  1.00  0.00     0.012 A 
ATOM      6  C   UNL     1      -9.773  17.747  12.798  1.00  0.00     0.047 A 
ATOM      7  C   UNL     1     -10.991  16.751  11.056  1.00  0.00     0.047 A 
BRANCH   3   8
ATOM      8  C   UNL     1     -13.429  18.194  13.521  1.00  0.00    -0.007 C 
ATOM      9  C   UNL     1     -13.982  19.363  13.328  1.00  0.00    -0.033 C 
BRANCH   9  10
ATOM     10  C   UNL     1     -15.232  19.833  13.984  1.00  0.00     0.033 C 
ATOM     11  C   UNL     1     -14.870  20.697  15.157  1.00  0.00     0.009 C 
ENDBRANCH   9  10
BRANCH   9  12
ATOM     12  C   UNL     1     -13.420  20.317  12.355  1.00  0.00    -0.022 A 
ATOM     13  C   UNL     1     -12.426  21.200  12.693  1.00  0.00     0.008 A 
ATOM     14  C   UNL     1     -13.921  20.316  11.089  1.00  0.00     0.008 A 
ATOM     15  C   UNL     1     -11.944  22.075  11.752  1.00  0.00     0.001 A 
ATOM     16  C   UNL     1     -13.460  21.190  10.100  1.00  0.00     0.001 A 
ATOM     17  C   UNL     1     -12.463  22.064  10.468  1.00  0.00     0.000 A 
ENDBRANCH   9  12
BRANCH   8  18
ATOM     18  C   UNL     1     -14.055  17.252  14.427  1.00  0.00    -0.018 A 
ATOM     19  C   UNL     1     -15.018  16.355  14.009  1.00  0.00     0.009 A 
ATOM     20  C   UNL     1     -13.718  17.274  15.777  1.00  0.00     0.009 A 
ATOM     21  C   UNL     1     -15.605  15.524  14.928  1.00  0.00     0.001 A 
ATOM     22  C   UNL     1     -14.296  16.447  16.712  1.00  0.00     0.001 A 
ATOM     23  C   UNL     1     -15.263  15.551  16.266  1.00  0.00     0.000 A 
ENDBRANCH   8  18
ENDBRANCH   3   8
ENDBRANCH   1   2
BRANCH   1  24
ATOM     24  C   UNL     1      -8.181  16.991   9.658  1.00  0.00     0.290 C 
BRANCH  24  25
ATOM     25  C   UNL     1      -7.198  18.126   9.540  1.00  0.00     0.303 C 
BRANCH  25  26
ATOM     26  N   UNL     1      -6.449  18.342  10.740  1.00  0.00    -0.337 N 
ATOM     27  C   UNL     1      -6.690  19.634  11.345  1.00  0.00     0.332 C 
ATOM     28  C   UNL     1      -5.019  18.227  10.539  1.00  0.00     0.332 C 
ATOM     29  H   UNL     1      -6.689  17.620  11.483  1.00  0.00     0.347 HD
ENDBRANCH  25  26
ENDBRANCH  24  25
ENDBRANCH   1  24
TORSDOF 8
ENDMDL
MODEL 5
REMARK VINA RESULT:      -5.0      0.613      1.304
REMARK SMILES CC/C(=C(\c1ccccc1)c1ccc(OCC[NH+](C)C)cc1)c1ccccc1
REMARK SMILES IDX 15 1 14 2 11 3 12 4 22 5 13 6 21 7 4 8 3 9 2 10 1 11 23 12
REMARK SMILES IDX 24 13 28 14 25 15 27 16 26 17 5 18 6 19 10 20 7 21 9 22 8 23
REMARK SMILES IDX 16 24 17 25 18 26 19 27 20 28
REMARK H PARENT 18 29
ROOT
ATOM      1  O   UNL     1      -8.927  17.598  11.739  1.00  0.00    -0.488 OA
ENDROOT
BRANCH   1   2
ATOM      2  C   UNL     1     -10.190  17.681  12.296  1.00  0.00     0.119 A 
ATOM      3  C   UNL     1     -12.839  17.786  13.359  1.00  0.00    -0.017 A 
ATOM      4  C   UNL     1     -11.767  18.351  14.021  1.00  0.00     0.012 A 
ATOM      5  C   UNL     1     -12.548  17.167  12.148  1.00  0.00     0.012 A 
ATOM      6  C   UNL     1     -10.487  18.292  13.492  1.00  0.00     0.047 A 
ATOM      7  C   UNL     1     -11.282  17.110  11.627  1.00  0.00     0.047 A 
BRANCH   3   8
ATOM      8  C   UNL     1     -14.194  17.853  13.877  1.00  0.00    -0.007 C 
ATOM      9  C   UNL     1     -14.987  18.869  13.652  1.00  0.00    -0.033 C 
BRANCH   9  10
ATOM     10  C   UNL     1     -16.365  19.012  14.196  1.00  0.00     0.033 C 
ATOM     11  C   UNL     1     -16.306  19.816  15.462  1.00  0.00     0.009 C 
ENDBRANCH   9  10
BRANCH   9  12
ATOM     12  C   UNL     1     -14.582  19.963  12.750  1.00  0.00    -0.022 A 
ATOM     13  C   UNL     1     -14.850  19.934  11.406  1.00  0.00     0.008 A 
ATOM     14  C   UNL     1     -13.912  21.022  13.283  1.00  0.00     0.008 A 
ATOM     15  C   UNL     1     -14.442  20.973  10.608  1.00  0.00     0.001 A 
ATOM     16  C   UNL     1     -13.478  22.101  12.508  1.00  0.00     0.001 A 
ATOM     17  C   UNL     1     -13.762  22.045  11.163  1.00  0.00     0.000 A 
ENDBRANCH   9  12
BRANCH   8  18
ATOM     18  C   UNL     1     -14.658  16.760  14.706  1.00  0.00    -0.018 A 
ATOM     19  C   UNL     1     -15.481  15.764  14.220  1.00  0.00     0.009 A 
ATOM     20  C   UNL     1     -14.309  16.726  16.053  1.00  0.00     0.009 A 
ATOM     21  C   UNL     1     -15.924  14.783  15.071  1.00  0.00     0.001 A 
ATOM     22  C   UNL     1     -14.743  15.750  16.920  1.00  0.00     0.001 A 
ATOM     23  C   UNL     1     -15.571  14.756  16.406  1.00  0.00     0.000 A 
ENDBRANCH   8  18
ENDBRANCH   3   8
ENDBRANCH   1   2
BRANCH   1  24
ATOM     24  C   UNL     1      -8.375  16.571  10.994  1.00  0.00     0.290 C 
BRANCH  24  25
ATOM     25  C   UNL     1      -7.660  16.987   9.735  1.00  0.00     0.303 C 
BRANCH  25  26
ATOM     26  N   UNL     1      -6.930  18.209   9.886  1.00  0.00    -0.337 N 
ATOM     27  C   UNL     1      -6.793  18.953   8.652  1.00  0.00     0.332 C 
ATOM     28  C   UNL     1      -5.596  18.006  10.411  1.00  0.00     0.332 C 
ATOM     29  H   UNL     1      -7.409  18.864  10.573  1.00  0.00     0.347 HD
ENDBRANCH  25  26
ENDBRANCH  24  25
ENDBRANCH   1  24
TORSDOF 8
ENDMDL
MODEL 6
REMARK VINA RESULT:      -5.0      1.179      1.911
REMARK SMILES CC/C(=C(\c1ccccc1)c1ccc(OCC[NH+](C)C)cc1)c1ccccc1
REMARK SMILES IDX 15 1 14 2 11 3 12 4 22 5 13 6 21 7 4 8 3 9 2 10 1 11 23 12
REMARK SMILES IDX 24 13 28 14 25 15 27 16 26 17 5 18 6 19 10 20 7 21 9 22 8 23
REMARK SMILES IDX 16 24 17 25 18 26 19 27 20 28
REMARK H PARENT 18 29
ROOT
ATOM      1  O   UNL     1      -8.374  16.663  11.116  1.00  0.00    -0.488 OA
ENDROOT
BRANCH   1   2
ATOM      2  C   UNL     1      -9.558  17.064  11.707  1.00  0.00     0.119 A 
ATOM      3  C   UNL     1     -12.061  17.834  12.848  1.00  0.00    -0.017 A 
ATOM      4  C   UNL     1     -10.859  18.173  13.436  1.00  0.00     0.012 A 
ATOM      5  C   UNL     1     -11.975  17.099  11.669  1.00  0.00     0.012 A 
ATOM      6  C   UNL     1      -9.652  17.792  12.871  1.00  0.00     0.047 A 
ATOM      7  C   UNL     1     -10.781  16.724  11.113  1.00  0.00     0.047 A 
BRANCH   3   8
ATOM      8  C   UNL     1     -13.339  18.240  13.404  1.00  0.00    -0.007 C 
ATOM      9  C   UNL     1     -13.882  19.403  13.153  1.00  0.00    -0.033 C 
BRANCH   9  10
ATOM     10  C   UNL     1     -15.164  19.889  13.732  1.00  0.00     0.033 C 
ATOM     11  C   UNL     1     -14.862  20.820  14.870  1.00  0.00     0.009 C 
ENDBRANCH   9  10
BRANCH   9  12
ATOM     12  C   UNL     1     -13.272  20.333  12.184  1.00  0.00    -0.022 A 
ATOM     13  C   UNL     1     -12.282  21.211  12.545  1.00  0.00     0.008 A 
ATOM     14  C   UNL     1     -13.723  20.312  10.900  1.00  0.00     0.008 A 
ATOM     15  C   UNL     1     -11.754  22.062  11.607  1.00  0.00     0.001 A 
ATOM     16  C   UNL     1     -13.214  21.162   9.913  1.00  0.00     0.001 A 
ATOM     17  C   UNL     1     -12.222  22.031  10.304  1.00  0.00     0.000 A 
ENDBRANCH   9  12
BRANCH   8  18
ATOM     18  C   UNL     1     -14.010  17.322  14.302  1.00  0.00    -0.018 A 
ATOM     19  C   UNL     1     -14.946  16.409  13.859  1.00  0.00     0.009 A 
ATOM     20  C   UNL     1     -13.747  17.384  15.667  1.00  0.00     0.009 A 
ATOM     21  C   UNL     1     -15.580  15.601  14.768  1.00  0.00     0.001 A 
ATOM     22  C   UNL     1     -14.372  16.581  16.593  1.00  0.00     0.001 A 
ATOM     23  C   UNL     1     -15.311  15.669  16.121  1.00  0.00     0.000 A 
ENDBRANCH   8  18
ENDBRANCH   3   8
ENDBRANCH   1   2
BRANCH   1  24
ATOM     24  C   UNL     1      -7.872  16.996   9.870  1.00  0.00     0.290 C 
BRANCH  24  25
ATOM     25  C   UNL     1      -7.487  18.441   9.685  1.00  0.00     0.303 C 
BRANCH  25  26
ATOM     26  N   UNL     1      -8.166  19.064   8.590  1.00  0.00    -0.337 N 
ATOM     27  C   UNL     1      -7.451  20.193   8.037  1.00  0.00     0.332 C 
ATOM     28  C   UNL     1      -9.492  19.530   8.943  1.00  0.00     0.332 C 
ATOM     29  H   UNL     1      -8.310  18.383   7.786  1.00  0.00     0.347 HD
ENDBRANCH  25  26
ENDBRANCH  24  25
ENDBRANCH   1  24
TORSDOF 8
ENDMDL
MODEL 7
REMARK VINA RESULT:      -5.0      1.653      2.417
REMARK SMILES CC/C(=C(\c1ccccc1)c1ccc(OCC[NH+](C)C)cc1)c1ccccc1
REMARK SMILES IDX 15 1 14 2 11 3 12 4 22 5 13 6 21 7 4 8 3 9 2 10 1 11 23 12
REMARK SMILES IDX 24 13 28 14 25 15 27 16 26 17 5 18 6 19 10 20 7 21 9 22 8 23
REMARK SMILES IDX 16 24 17 25 18 26 19 27 20 28
REMARK H PARENT 18 29
ROOT
ATOM      1  O   UNL     1      -9.148  16.231  10.373  1.00  0.00    -0.488 OA
ENDROOT
BRANCH   1   2
ATOM      2  C   UNL     1      -9.958  16.846  11.310  1.00  0.00     0.119 A 
ATOM      3  C   UNL     1     -11.535  18.156  13.299  1.00  0.00    -0.017 A 
ATOM      4  C   UNL     1     -12.110  17.532  12.209  1.00  0.00     0.012 A 
ATOM      5  C   UNL     1     -10.146  18.104  13.366  1.00  0.00     0.012 A 
ATOM      6  C   UNL     1     -11.331  16.900  11.252  1.00  0.00     0.047 A 
ATOM      7  C   UNL     1      -9.379  17.481  12.419  1.00  0.00     0.047 A 
BRANCH   3   8
ATOM      8  C   UNL     1     -12.327  18.804  14.330  1.00  0.00    -0.007 C 
ATOM      9  C   UNL     1     -12.567  20.089  14.332  1.00  0.00    -0.033 C 
BRANCH   9  10
ATOM     10  C   UNL     1     -13.331  20.812  15.387  1.00  0.00     0.033 C 
ATOM     11  C   UNL     1     -14.748  20.988  14.925  1.00  0.00     0.009 C 
ENDBRANCH   9  10
BRANCH   9  12
ATOM     12  C   UNL     1     -12.138  20.944  13.211  1.00  0.00    -0.022 A 
ATOM     13  C   UNL     1     -12.833  20.997  12.030  1.00  0.00     0.008 A 
ATOM     14  C   UNL     1     -11.009  21.690  13.365  1.00  0.00     0.008 A 
ATOM     15  C   UNL     1     -12.386  21.802  11.013  1.00  0.00     0.001 A 
ATOM     16  C   UNL     1     -10.517  22.522  12.355  1.00  0.00     0.001 A 
ATOM     17  C   UNL     1     -11.236  22.555  11.182  1.00  0.00     0.000 A 
ENDBRANCH   9  12
BRANCH   8  18
ATOM     18  C   UNL     1     -12.833  17.984  15.412  1.00  0.00    -0.018 A 
ATOM     19  C   UNL     1     -12.126  17.788  16.581  1.00  0.00     0.009 A 
ATOM     20  C   UNL     1     -14.050  17.326  15.261  1.00  0.00     0.009 A 
ATOM     21  C   UNL     1     -12.640  16.961  17.546  1.00  0.00     0.001 A 
ATOM     22  C   UNL     1     -14.581  16.495  16.219  1.00  0.00     0.001 A 
ATOM     23  C   UNL     1     -13.850  16.314  17.390  1.00  0.00     0.000 A 
ENDBRANCH   8  18
ENDBRANCH   3   8
ENDBRANCH   1   2
BRANCH   1  24
ATOM     24  C   UNL     1      -8.790  16.675   9.113  1.00  0.00     0.290 C 
BRANCH  24  25
ATOM     25  C   UNL     1      -7.778  17.790   9.075  1.00  0.00     0.303 C 
BRANCH  25  26
ATOM     26  N   UNL     1      -8.240  18.939   8.356  1.00  0.00    -0.337 N 
ATOM     27  C   UNL     1      -7.213  19.935   8.143  1.00  0.00     0.332 C 
ATOM     28  C   UNL     1      -9.349  19.603   9.009  1.00  0.00     0.332 C 
ATOM     29  H   UNL     1      -8.598  18.673   7.390  1.00  0.00     0.347 HD
ENDBRANCH  25  26
ENDBRANCH  24  25
ENDBRANCH   1  24
TORSDOF 8
ENDMDL
MODEL 8
REMARK VINA RESULT:      -4.9      0.597      1.553
REMARK SMILES CC/C(=C(\c1ccccc1)c1ccc(OCC[NH+](C)C)cc1)c1ccccc1
REMARK SMILES IDX 15 1 14 2 11 3 12 4 22 5 13 6 21 7 4 8 3 9 2 10 1 11 23 12
REMARK SMILES IDX 24 13 28 14 25 15 27 16 26 17 5 18 6 19 10 20 7 21 9 22 8 23
REMARK SMILES IDX 16 24 17 25 18 26 19 27 20 28
REMARK H PARENT 18 29
ROOT
ATOM      1  O   UNL     1      -8.986  17.676  11.985  1.00  0.00    -0.488 OA
ENDROOT
BRANCH   1   2
ATOM      2  C   UNL     1     -10.292  17.703  12.439  1.00  0.00     0.119 A 
ATOM      3  C   UNL     1     -12.954  17.826  13.466  1.00  0.00    -0.017 A 
ATOM      4  C   UNL     1     -12.665  17.207  12.265  1.00  0.00     0.012 A 
ATOM      5  C   UNL     1     -11.871  18.380  14.140  1.00  0.00     0.012 A 
ATOM      6  C   UNL     1     -11.368  17.156  11.780  1.00  0.00     0.047 A 
ATOM      7  C   UNL     1     -10.590  18.329  13.658  1.00  0.00     0.047 A 
BRANCH   3   8
ATOM      8  C   UNL     1     -14.299  17.874  14.010  1.00  0.00    -0.007 C 
ATOM      9  C   UNL     1     -15.116  18.871  13.790  1.00  0.00    -0.033 C 
BRANCH   9  10
ATOM     10  C   UNL     1     -16.485  18.994  14.361  1.00  0.00     0.033 C 
ATOM     11  C   UNL     1     -16.418  19.822  15.610  1.00  0.00     0.009 C 
ENDBRANCH   9  10
BRANCH   9  12
ATOM     12  C   UNL     1     -14.750  19.962  12.868  1.00  0.00    -0.022 A 
ATOM     13  C   UNL     1     -14.028  21.052  13.282  1.00  0.00     0.008 A 
ATOM     14  C   UNL     1     -15.159  19.874  11.572  1.00  0.00     0.008 A 
ATOM     15  C   UNL     1     -13.722  22.045  12.386  1.00  0.00     0.001 A 
ATOM     16  C   UNL     1     -14.871  20.863  10.627  1.00  0.00     0.001 A 
ATOM     17  C   UNL     1     -14.144  21.943  11.071  1.00  0.00     0.000 A 
ENDBRANCH   9  12
BRANCH   8  18
ATOM     18  C   UNL     1     -14.726  16.781  14.861  1.00  0.00    -0.018 A 
ATOM     19  C   UNL     1     -14.384  16.710  16.197  1.00  0.00     0.009 A 
ATOM     20  C   UNL     1     -15.465  15.736  14.315  1.00  0.00     0.009 A 
ATOM     21  C   UNL     1     -14.780  15.624  16.934  1.00  0.00     0.001 A 
ATOM     22  C   UNL     1     -15.871  14.640  15.040  1.00  0.00     0.001 A 
ATOM     23  C   UNL     1     -15.515  14.592  16.385  1.00  0.00     0.000 A 
ENDBRANCH   8  18
ENDBRANCH   3   8
ENDBRANCH   1   2
BRANCH   1  24
ATOM     24  C   UNL     1      -8.415  18.389  10.945  1.00  0.00     0.290 C 
BRANCH  24  25
ATOM     25  C   UNL     1      -9.244  18.493   9.691  1.00  0.00     0.303 C 
BRANCH  25  26
ATOM     26  N   UNL     1      -8.547  18.044   8.524  1.00  0.00    -0.337 N 
ATOM     27  C   UNL     1      -8.554  16.606   8.366  1.00  0.00     0.332 C 
ATOM     28  C   UNL     1      -7.162  18.469   8.496  1.00  0.00     0.332 C 
ATOM     29  H   UNL     1      -8.982  18.440   7.637  1.00  0.00     0.347 HD
ENDBRANCH  25  26
ENDBRANCH  24  25
ENDBRANCH   1  24
TORSDOF 8
ENDMDL
MODEL 9
REMARK VINA RESULT:      -4.9      1.914      3.473
REMARK SMILES CC/C(=C(\c1ccccc1)c1ccc(OCC[NH+](C)C)cc1)c1ccccc1
REMARK SMILES IDX 15 1 14 2 11 3 12 4 22 5 13 6 21 7 4 8 3 9 2 10 1 11 23 12
REMARK SMILES IDX 24 13 28 14 25 15 27 16 26 17 5 18 6 19 10 20 7 21 9 22 8 23
REMARK SMILES IDX 16 24 17 25 18 26 19 27 20 28
REMARK H PARENT 18 29
ROOT
ATOM      1  O   UNL     1     -12.842  18.435   9.285  1.00  0.00    -0.488 OA
ENDROOT
BRANCH   1   2
ATOM      2  C   UNL     1     -13.163  18.284  10.621  1.00  0.00     0.119 A 
ATOM      3  C   UNL     1     -13.752  17.881  13.387  1.00  0.00    -0.017 A 
ATOM      4  C   UNL     1     -14.277  18.944  12.678  1.00  0.00     0.012 A 
ATOM      5  C   UNL     1     -12.924  17.023  12.670  1.00  0.00     0.012 A 
ATOM      6  C   UNL     1     -13.981  19.126  11.336  1.00  0.00     0.047 A 
ATOM      7  C   UNL     1     -12.633  17.205  11.345  1.00  0.00     0.047 A 
BRANCH   3   8
ATOM      8  C   UNL     1     -14.063  17.652  14.787  1.00  0.00    -0.007 C 
ATOM      9  C   UNL     1     -13.283  18.050  15.758  1.00  0.00    -0.033 C 
BRANCH   9  10
ATOM     10  C   UNL     1     -13.530  17.800  17.205  1.00  0.00     0.033 C 
ATOM     11  C   UNL     1     -12.776  16.571  17.621  1.00  0.00     0.009 C 
ENDBRANCH   9  10
BRANCH   9  12
ATOM     12  C   UNL     1     -12.087  18.866  15.485  1.00  0.00    -0.022 A 
ATOM     13  C   UNL     1     -10.854  18.302  15.280  1.00  0.00     0.008 A 
ATOM     14  C   UNL     1     -12.225  20.220  15.450  1.00  0.00     0.008 A 
ATOM     15  C   UNL     1      -9.769  19.107  15.039  1.00  0.00     0.001 A 
ATOM     16  C   UNL     1     -11.148  21.078  15.210  1.00  0.00     0.001 A 
ATOM     17  C   UNL     1      -9.924  20.483  15.006  1.00  0.00     0.000 A 
ENDBRANCH   9  12
BRANCH   8  18
ATOM     18  C   UNL     1     -15.273  16.918  15.101  1.00  0.00    -0.018 A 
ATOM     19  C   UNL     1     -16.434  17.548  15.500  1.00  0.00     0.009 A 
ATOM     20  C   UNL     1     -15.263  15.527  15.048  1.00  0.00     0.009 A 
ATOM     21  C   UNL     1     -17.530  16.791  15.829  1.00  0.00     0.001 A 
ATOM     22  C   UNL     1     -16.352  14.753  15.373  1.00  0.00     0.001 A 
ATOM     23  C   UNL     1     -17.512  15.411  15.773  1.00  0.00     0.000 A 
ENDBRANCH   8  18
ENDBRANCH   3   8
ENDBRANCH   1   2
BRANCH   1  24
ATOM     24  C   UNL     1     -11.687  18.054   8.623  1.00  0.00     0.290 C 
BRANCH  24  25
ATOM     25  C   UNL     1     -10.427  18.766   9.043  1.00  0.00     0.303 C 
BRANCH  25  26
ATOM     26  N   UNL     1      -9.241  18.026   8.739  1.00  0.00    -0.337 N 
ATOM     27  C   UNL     1      -9.082  16.836   9.547  1.00  0.00     0.332 C 
ATOM     28  C   UNL     1      -8.033  18.810   8.894  1.00  0.00     0.332 C 
ATOM     29  H   UNL     1      -9.237  17.698   7.727  1.00  0.00     0.347 HD
ENDBRANCH  25  26
ENDBRANCH  24  25
ENDBRANCH   1  24
TORSDOF 8
ENDMDL
