MODEL 1
REMARK VINA RESULT:      -7.3      0.000      0.000
REMARK SMILES O=C(CCC[NH+]1CCC(O)(c2ccc(Cl)cc2)CC1)c1ccc(F)cc1
REMARK SMILES IDX 4 1 3 2 2 3 1 4 20 5 21 6 26 7 22 8 25 9 23 10 24 11 5 12
REMARK SMILES IDX 6 13 7 14 19 15 8 16 18 17 9 18 10 20 11 22 12 23 17 24
REMARK SMILES IDX 13 25 16 26 14 27 15 28
REMARK H PARENT 6 19 10 21
ROOT
ATOM      1  C   UNL     1      -9.871  16.209 -44.413  1.00  0.00     0.070 C 
ENDROOT
BRANCH   1   2
ATOM      2  C   UNL     1     -11.201  16.765 -44.873  1.00  0.00     0.087 C 
BRANCH   2   3
ATOM      3  C   UNL     1     -11.311  18.222 -44.779  1.00  0.00     0.163 C 
ATOM      4  O   UNL     1     -10.630  18.981 -45.517  1.00  0.00    -0.294 OA
BRANCH   3   5
ATOM      5  C   UNL     1     -12.219  18.888 -43.822  1.00  0.00     0.018 A 
ATOM      6  C   UNL     1     -12.565  18.269 -42.635  1.00  0.00     0.015 A 
ATOM      7  C   UNL     1     -12.738  20.130 -44.088  1.00  0.00     0.015 A 
ATOM      8  C   UNL     1     -13.411  18.894 -41.750  1.00  0.00     0.040 A 
ATOM      9  C   UNL     1     -13.581  20.758 -43.211  1.00  0.00     0.040 A 
ATOM     10  C   UNL     1     -13.915  20.136 -42.039  1.00  0.00     0.123 A 
ATOM     11  F   UNL     1     -14.764  20.795 -41.188  1.00  0.00    -0.207 F 
ENDBRANCH   3   5
ENDBRANCH   2   3
ENDBRANCH   1   2
BRANCH   1  12
ATOM     12  C   UNL     1     -10.131  15.112 -43.439  1.00  0.00     0.262 C 
BRANCH  12  13
ATOM     13  N   UNL     1      -8.998  14.862 -42.557  1.00  0.00    -0.335 N 
ATOM     14  C   UNL     1      -8.733  15.963 -41.682  1.00  0.00     0.265 C 
ATOM     15  C   UNL     1      -9.210  13.663 -41.813  1.00  0.00     0.265 C 
ATOM     16  C   UNL     1      -9.914  16.267 -40.802  1.00  0.00     0.102 C 
ATOM     17  C   UNL     1      -9.561  13.809 -40.393  1.00  0.00     0.102 C 
ATOM     18  C   UNL     1     -10.228  15.063 -39.964  1.00  0.00     0.100 C 
ATOM     19  H   UNL     1      -8.162  14.790 -43.210  1.00  0.00     0.348 HD
BRANCH  18  20
ATOM     20  O   UNL     1      -9.751  15.360 -38.664  1.00  0.00    -0.385 OA
ATOM     21  H   UNL     1      -9.893  16.329 -38.525  1.00  0.00     0.211 HD
ENDBRANCH  18  20
BRANCH  18  22
ATOM     22  C   UNL     1     -11.714  14.896 -39.779  1.00  0.00    -0.016 A 
ATOM     23  C   UNL     1     -12.556  15.976 -39.609  1.00  0.00     0.008 A 
ATOM     24  C   UNL     1     -12.324  13.662 -39.767  1.00  0.00     0.008 A 
ATOM     25  C   UNL     1     -13.917  15.867 -39.437  1.00  0.00     0.021 A 
ATOM     26  C   UNL     1     -13.688  13.528 -39.595  1.00  0.00     0.021 A 
ATOM     27  C   UNL     1     -14.482  14.630 -39.431  1.00  0.00     0.041 A 
ATOM     28  Cl  UNL     1     -16.209  14.469 -39.215  1.00  0.00    -0.084 Cl
ENDBRANCH  18  22
ENDBRANCH  12  13
ENDBRANCH   1  12
TORSDOF 7
ENDMDL
MODEL 2
REMARK VINA RESULT:      -7.3      1.349      1.887
REMARK SMILES O=C(CCC[NH+]1CCC(O)(c2ccc(Cl)cc2)CC1)c1ccc(F)cc1
REMARK SMILES IDX 4 1 3 2 2 3 1 4 20 5 21 6 26 7 22 8 25 9 23 10 24 11 5 12
REMARK SMILES IDX 6 13 7 14 19 15 8 16 18 17 9 18 10 20 11 22 12 23 17 24
REMARK SMILES IDX 13 25 16 26 14 27 15 28
REMARK H PARENT 6 19 10 21
ROOT
ATOM      1  C   UNL     1     -10.150  15.651 -43.702  1.00  0.00     0.070 C 
ENDROOT
BRANCH   1   2
ATOM      2  C   UNL     1     -11.201  16.439 -44.452  1.00  0.00     0.087 C 
BRANCH   2   3
ATOM      3  C   UNL     1     -12.372  16.799 -43.649  1.00  0.00     0.163 C 
ATOM      4  O   UNL     1     -13.103  15.920 -43.123  1.00  0.00    -0.294 OA
BRANCH   3   5
ATOM      5  C   UNL     1     -12.766  18.203 -43.407  1.00  0.00     0.018 A 
ATOM      6  C   UNL     1     -12.656  19.146 -44.412  1.00  0.00     0.015 A 
ATOM      7  C   UNL     1     -13.247  18.601 -42.186  1.00  0.00     0.015 A 
ATOM      8  C   UNL     1     -13.024  20.450 -44.180  1.00  0.00     0.040 A 
ATOM      9  C   UNL     1     -13.615  19.898 -41.947  1.00  0.00     0.040 A 
ATOM     10  C   UNL     1     -13.502  20.822 -42.949  1.00  0.00     0.123 A 
ATOM     11  F   UNL     1     -13.878  22.111 -42.672  1.00  0.00    -0.207 F 
ENDBRANCH   3   5
ENDBRANCH   2   3
ENDBRANCH   1   2
BRANCH   1  12
ATOM     12  C   UNL     1      -9.298  16.608 -42.941  1.00  0.00     0.262 C 
BRANCH  12  13
ATOM     13  N   UNL     1      -8.204  15.951 -42.237  1.00  0.00    -0.335 N 
ATOM     14  C   UNL     1      -7.861  16.615 -41.017  1.00  0.00     0.265 C 
ATOM     15  C   UNL     1      -8.526  14.582 -41.996  1.00  0.00     0.265 C 
ATOM     16  C   UNL     1      -9.026  16.663 -40.067  1.00  0.00     0.102 C 
ATOM     17  C   UNL     1      -8.885  14.212 -40.620  1.00  0.00     0.102 C 
ATOM     18  C   UNL     1      -9.452  15.263 -39.738  1.00  0.00     0.100 C 
ATOM     19  H   UNL     1      -7.366  16.061 -42.884  1.00  0.00     0.348 HD
BRANCH  18  20
ATOM     20  O   UNL     1      -8.972  15.008 -38.430  1.00  0.00    -0.385 OA
ATOM     21  H   UNL     1      -8.452  15.805 -38.160  1.00  0.00     0.211 HD
ENDBRANCH  18  20
BRANCH  18  22
ATOM     22  C   UNL     1     -10.949  15.163 -39.604  1.00  0.00    -0.016 A 
ATOM     23  C   UNL     1     -11.572  14.000 -39.202  1.00  0.00     0.008 A 
ATOM     24  C   UNL     1     -11.788  16.222 -39.872  1.00  0.00     0.008 A 
ATOM     25  C   UNL     1     -12.935  13.867 -39.067  1.00  0.00     0.021 A 
ATOM     26  C   UNL     1     -13.159  16.112 -39.744  1.00  0.00     0.021 A 
ATOM     27  C   UNL     1     -13.731  14.936 -39.341  1.00  0.00     0.041 A 
ATOM     28  Cl  UNL     1     -15.464  14.789 -39.175  1.00  0.00    -0.084 Cl
ENDBRANCH  18  22
ENDBRANCH  12  13
ENDBRANCH   1  12
TORSDOF 7
ENDMDL
MODEL 3
REMARK VINA RESULT:      -7.0      1.282      1.937
REMARK SMILES O=C(CCC[NH+]1CCC(O)(c2ccc(Cl)cc2)CC1)c1ccc(F)cc1
REMARK SMILES IDX 4 1 3 2 2 3 1 4 20 5 21 6 26 7 22 8 25 9 23 10 24 11 5 12
REMARK SMILES IDX 6 13 7 14 19 15 8 16 18 17 9 18 10 20 11 22 12 23 17 24
REMARK SMILES IDX 13 25 16 26 14 27 15 28
REMARK H PARENT 6 19 10 21
ROOT
ATOM      1  C   UNL     1      -9.832  16.207 -44.085  1.00  0.00     0.070 C 
ENDROOT
BRANCH   1   2
ATOM      2  C   UNL     1     -11.222  16.660 -44.474  1.00  0.00     0.087 C 
BRANCH   2   3
ATOM      3  C   UNL     1     -11.394  18.114 -44.513  1.00  0.00     0.163 C 
ATOM      4  O   UNL     1     -10.753  18.829 -45.325  1.00  0.00    -0.294 OA
BRANCH   3   5
ATOM      5  C   UNL     1     -12.322  18.826 -43.610  1.00  0.00     0.018 A 
ATOM      6  C   UNL     1     -12.773  20.095 -43.925  1.00  0.00     0.015 A 
ATOM      7  C   UNL     1     -12.758  18.248 -42.445  1.00  0.00     0.015 A 
ATOM      8  C   UNL     1     -13.636  20.752 -43.081  1.00  0.00     0.040 A 
ATOM      9  C   UNL     1     -13.618  18.895 -41.600  1.00  0.00     0.040 A 
ATOM     10  C   UNL     1     -14.057  20.151 -41.922  1.00  0.00     0.123 A 
ATOM     11  F   UNL     1     -14.915  20.768 -41.049  1.00  0.00    -0.207 F 
ENDBRANCH   3   5
ENDBRANCH   2   3
ENDBRANCH   1   2
BRANCH   1  12
ATOM     12  C   UNL     1      -9.665  16.408 -42.618  1.00  0.00     0.262 C 
BRANCH  12  13
ATOM     13  N   UNL     1      -8.326  16.070 -42.151  1.00  0.00    -0.335 N 
ATOM     14  C   UNL     1      -8.025  16.657 -40.881  1.00  0.00     0.265 C 
ATOM     15  C   UNL     1      -8.165  14.653 -42.106  1.00  0.00     0.265 C 
ATOM     16  C   UNL     1      -8.987  16.201 -39.819  1.00  0.00     0.102 C 
ATOM     17  C   UNL     1      -8.175  14.021 -40.779  1.00  0.00     0.102 C 
ATOM     18  C   UNL     1      -8.899  14.710 -39.682  1.00  0.00     0.100 C 
ATOM     19  H   UNL     1      -7.674  16.528 -42.856  1.00  0.00     0.348 HD
BRANCH  18  20
ATOM     20  O   UNL     1      -8.169  14.472 -38.492  1.00  0.00    -0.385 OA
ATOM     21  H   UNL     1      -8.475  15.144 -37.833  1.00  0.00     0.211 HD
ENDBRANCH  18  20
BRANCH  18  22
ATOM     22  C   UNL     1     -10.251  14.105 -39.408  1.00  0.00    -0.016 A 
ATOM     23  C   UNL     1     -10.531  12.783 -39.687  1.00  0.00     0.008 A 
ATOM     24  C   UNL     1     -11.290  14.828 -38.865  1.00  0.00     0.008 A 
ATOM     25  C   UNL     1     -11.752  12.192 -39.453  1.00  0.00     0.021 A 
ATOM     26  C   UNL     1     -12.524  14.257 -38.622  1.00  0.00     0.021 A 
ATOM     27  C   UNL     1     -12.753  12.940 -38.915  1.00  0.00     0.041 A 
ATOM     28  Cl  UNL     1     -14.310  12.209 -38.609  1.00  0.00    -0.084 Cl
ENDBRANCH  18  22
ENDBRANCH  12  13
ENDBRANCH   1  12
TORSDOF 7
ENDMDL
MODEL 4
REMARK VINA RESULT:      -7.0      1.498      1.958
REMARK SMILES O=C(CCC[NH+]1CCC(O)(c2ccc(Cl)cc2)CC1)c1ccc(F)cc1
REMARK SMILES IDX 4 1 3 2 2 3 1 4 20 5 21 6 26 7 22 8 25 9 23 10 24 11 5 12
REMARK SMILES IDX 6 13 7 14 19 15 8 16 18 17 9 18 10 20 11 22 12 23 17 24
REMARK SMILES IDX 13 25 16 26 14 27 15 28
REMARK H PARENT 6 19 10 21
ROOT
ATOM      1  C   UNL     1     -11.703  15.508 -43.912  1.00  0.00     0.070 C 
ENDROOT
BRANCH   1   2
ATOM      2  C   UNL     1     -11.067  16.881 -43.914  1.00  0.00     0.087 C 
BRANCH   2   3
ATOM      3  C   UNL     1     -11.887  17.924 -44.533  1.00  0.00     0.163 C 
ATOM      4  O   UNL     1     -12.042  17.984 -45.781  1.00  0.00    -0.294 OA
BRANCH   3   5
ATOM      5  C   UNL     1     -12.579  18.963 -43.741  1.00  0.00     0.018 A 
ATOM      6  C   UNL     1     -13.007  18.695 -42.453  1.00  0.00     0.015 A 
ATOM      7  C   UNL     1     -12.811  20.211 -44.261  1.00  0.00     0.015 A 
ATOM      8  C   UNL     1     -13.650  19.665 -41.722  1.00  0.00     0.040 A 
ATOM      9  C   UNL     1     -13.450  21.182 -43.539  1.00  0.00     0.040 A 
ATOM     10  C   UNL     1     -13.869  20.905 -42.266  1.00  0.00     0.123 A 
ATOM     11  F   UNL     1     -14.508  21.902 -41.575  1.00  0.00    -0.207 F 
ENDBRANCH   3   5
ENDBRANCH   2   3
ENDBRANCH   1   2
BRANCH   1  12
ATOM     12  C   UNL     1     -12.098  15.174 -42.514  1.00  0.00     0.262 C 
BRANCH  12  13
ATOM     13  N   UNL     1     -10.974  15.208 -41.588  1.00  0.00    -0.335 N 
ATOM     14  C   UNL     1     -11.142  16.190 -40.560  1.00  0.00     0.265 C 
ATOM     15  C   UNL     1     -10.763  13.915 -41.024  1.00  0.00     0.265 C 
ATOM     16  C   UNL     1     -12.377  15.927 -39.741  1.00  0.00     0.102 C 
ATOM     17  C   UNL     1     -11.180  13.717 -39.628  1.00  0.00     0.102 C 
ATOM     18  C   UNL     1     -12.261  14.580 -39.093  1.00  0.00     0.100 C 
ATOM     19  H   UNL     1     -10.150  15.531 -42.178  1.00  0.00     0.348 HD
BRANCH  18  20
ATOM     20  O   UNL     1     -11.956  14.829 -37.732  1.00  0.00    -0.385 OA
ATOM     21  H   UNL     1     -12.821  14.897 -37.256  1.00  0.00     0.211 HD
ENDBRANCH  18  20
BRANCH  18  22
ATOM     22  C   UNL     1     -13.594  13.879 -39.045  1.00  0.00    -0.016 A 
ATOM     23  C   UNL     1     -14.767  14.514 -39.397  1.00  0.00     0.008 A 
ATOM     24  C   UNL     1     -13.726  12.566 -38.650  1.00  0.00     0.008 A 
ATOM     25  C   UNL     1     -16.004  13.910 -39.367  1.00  0.00     0.021 A 
ATOM     26  C   UNL     1     -14.956  11.940 -38.612  1.00  0.00     0.021 A 
ATOM     27  C   UNL     1     -16.093  12.612 -38.971  1.00  0.00     0.041 A 
ATOM     28  Cl  UNL     1     -17.653  11.826 -38.928  1.00  0.00    -0.084 Cl
ENDBRANCH  18  22
ENDBRANCH  12  13
ENDBRANCH   1  12
TORSDOF 7
ENDMDL
MODEL 5
REMARK VINA RESULT:      -6.9      2.903      4.224
REMARK SMILES O=C(CCC[NH+]1CCC(O)(c2ccc(Cl)cc2)CC1)c1ccc(F)cc1
REMARK SMILES IDX 4 1 3 2 2 3 1 4 20 5 21 6 26 7 22 8 25 9 23 10 24 11 5 12
REMARK SMILES IDX 6 13 7 14 19 15 8 16 18 17 9 18 10 20 11 22 12 23 17 24
REMARK SMILES IDX 13 25 16 26 14 27 15 28
REMARK H PARENT 6 19 10 21
ROOT
ATOM      1  C   UNL     1     -11.817  16.547 -41.024  1.00  0.00     0.070 C 
ENDROOT
BRANCH   1   2
ATOM      2  C   UNL     1     -11.227  16.911 -42.368  1.00  0.00     0.087 C 
BRANCH   2   3
ATOM      3  C   UNL     1     -12.180  17.522 -43.298  1.00  0.00     0.163 C 
ATOM      4  O   UNL     1     -12.508  16.952 -44.371  1.00  0.00    -0.294 OA
BRANCH   3   5
ATOM      5  C   UNL     1     -12.811  18.833 -43.038  1.00  0.00     0.018 A 
ATOM      6  C   UNL     1     -13.542  19.043 -41.883  1.00  0.00     0.015 A 
ATOM      7  C   UNL     1     -12.687  19.866 -43.931  1.00  0.00     0.015 A 
ATOM      8  C   UNL     1     -14.127  20.265 -41.647  1.00  0.00     0.040 A 
ATOM      9  C   UNL     1     -13.266  21.086 -43.703  1.00  0.00     0.040 A 
ATOM     10  C   UNL     1     -13.987  21.282 -42.556  1.00  0.00     0.123 A 
ATOM     11  F   UNL     1     -14.554  22.515 -42.364  1.00  0.00    -0.207 F 
ENDBRANCH   3   5
ENDBRANCH   2   3
ENDBRANCH   1   2
BRANCH   1  12
ATOM     12  C   UNL     1     -12.807  15.451 -41.225  1.00  0.00     0.262 C 
BRANCH  12  13
ATOM     13  N   UNL     1     -13.395  14.987 -39.975  1.00  0.00    -0.335 N 
ATOM     14  C   UNL     1     -13.699  13.589 -40.000  1.00  0.00     0.265 C 
ATOM     15  C   UNL     1     -12.533  15.299 -38.881  1.00  0.00     0.265 C 
ATOM     16  C   UNL     1     -12.467  12.759 -40.240  1.00  0.00     0.102 C 
ATOM     17  C   UNL     1     -11.779  14.187 -38.285  1.00  0.00     0.102 C 
ATOM     18  C   UNL     1     -11.483  13.008 -39.136  1.00  0.00     0.100 C 
ATOM     19  H   UNL     1     -14.327  15.495 -39.913  1.00  0.00     0.348 HD
BRANCH  18  20
ATOM     20  O   UNL     1     -11.543  11.868 -38.298  1.00  0.00    -0.385 OA
ATOM     21  H   UNL     1     -12.043  11.175 -38.797  1.00  0.00     0.211 HD
ENDBRANCH  18  20
BRANCH  18  22
ATOM     22  C   UNL     1     -10.068  13.006 -39.654  1.00  0.00    -0.016 A 
ATOM     23  C   UNL     1      -9.198  14.048 -39.409  1.00  0.00     0.008 A 
ATOM     24  C   UNL     1      -9.554  11.970 -40.402  1.00  0.00     0.008 A 
ATOM     25  C   UNL     1      -7.900  14.086 -39.863  1.00  0.00     0.021 A 
ATOM     26  C   UNL     1      -8.255  11.986 -40.869  1.00  0.00     0.021 A 
ATOM     27  C   UNL     1      -7.429  13.043 -40.599  1.00  0.00     0.041 A 
ATOM     28  Cl  UNL     1      -5.783  13.070 -41.185  1.00  0.00    -0.084 Cl
ENDBRANCH  18  22
ENDBRANCH  12  13
ENDBRANCH   1  12
TORSDOF 7
ENDMDL
MODEL 6
REMARK VINA RESULT:      -6.9      2.894      4.382
REMARK SMILES O=C(CCC[NH+]1CCC(O)(c2ccc(Cl)cc2)CC1)c1ccc(F)cc1
REMARK SMILES IDX 4 1 3 2 2 3 1 4 20 5 21 6 26 7 22 8 25 9 23 10 24 11 5 12
REMARK SMILES IDX 6 13 7 14 19 15 8 16 18 17 9 18 10 20 11 22 12 23 17 24
REMARK SMILES IDX 13 25 16 26 14 27 15 28
REMARK H PARENT 6 19 10 21
ROOT
ATOM      1  C   UNL     1     -11.194  15.419 -42.539  1.00  0.00     0.070 C 
ENDROOT
BRANCH   1   2
ATOM      2  C   UNL     1     -12.183  16.211 -43.365  1.00  0.00     0.087 C 
BRANCH   2   3
ATOM      3  C   UNL     1     -11.734  17.560 -43.714  1.00  0.00     0.163 C 
ATOM      4  O   UNL     1     -10.677  17.751 -44.370  1.00  0.00    -0.294 OA
BRANCH   3   5
ATOM      5  C   UNL     1     -12.485  18.772 -43.324  1.00  0.00     0.018 A 
ATOM      6  C   UNL     1     -13.128  18.836 -42.101  1.00  0.00     0.015 A 
ATOM      7  C   UNL     1     -12.563  19.856 -44.161  1.00  0.00     0.015 A 
ATOM      8  C   UNL     1     -13.826  19.965 -41.744  1.00  0.00     0.040 A 
ATOM      9  C   UNL     1     -13.255  20.984 -43.812  1.00  0.00     0.040 A 
ATOM     10  C   UNL     1     -13.887  21.035 -42.600  1.00  0.00     0.123 A 
ATOM     11  F   UNL     1     -14.573  22.181 -42.287  1.00  0.00    -0.207 F 
ENDBRANCH   3   5
ENDBRANCH   2   3
ENDBRANCH   1   2
BRANCH   1  12
ATOM     12  C   UNL     1     -11.872  14.978 -41.288  1.00  0.00     0.262 C 
BRANCH  12  13
ATOM     13  N   UNL     1     -11.413  15.704 -40.111  1.00  0.00    -0.335 N 
ATOM     14  C   UNL     1     -11.203  14.845 -38.985  1.00  0.00     0.265 C 
ATOM     15  C   UNL     1     -10.226  16.435 -40.418  1.00  0.00     0.265 C 
ATOM     16  C   UNL     1     -10.173  13.789 -39.279  1.00  0.00     0.102 C 
ATOM     17  C   UNL     1      -8.960  15.907 -39.891  1.00  0.00     0.102 C 
ATOM     18  C   UNL     1      -8.870  14.451 -39.615  1.00  0.00     0.100 C 
ATOM     19  H   UNL     1     -12.225  16.340 -39.855  1.00  0.00     0.348 HD
BRANCH  18  20
ATOM     20  O   UNL     1      -8.050  14.298 -38.471  1.00  0.00    -0.385 OA
ATOM     21  H   UNL     1      -7.597  15.167 -38.330  1.00  0.00     0.211 HD
ENDBRANCH  18  20
BRANCH  18  22
ATOM     22  C   UNL     1      -8.136  13.700 -40.694  1.00  0.00    -0.016 A 
ATOM     23  C   UNL     1      -8.217  12.328 -40.815  1.00  0.00     0.008 A 
ATOM     24  C   UNL     1      -7.339  14.330 -41.624  1.00  0.00     0.008 A 
ATOM     25  C   UNL     1      -7.562  11.604 -41.786  1.00  0.00     0.021 A 
ATOM     26  C   UNL     1      -6.672  13.625 -42.607  1.00  0.00     0.021 A 
ATOM     27  C   UNL     1      -6.785  12.263 -42.686  1.00  0.00     0.041 A 
ATOM     28  Cl  UNL     1      -5.946  11.363 -43.927  1.00  0.00    -0.084 Cl
ENDBRANCH  18  22
ENDBRANCH  12  13
ENDBRANCH   1  12
TORSDOF 7
ENDMDL
MODEL 7
REMARK VINA RESULT:      -6.9      2.863      4.257
REMARK SMILES O=C(CCC[NH+]1CCC(O)(c2ccc(Cl)cc2)CC1)c1ccc(F)cc1
REMARK SMILES IDX 4 1 3 2 2 3 1 4 20 5 21 6 26 7 22 8 25 9 23 10 24 11 5 12
REMARK SMILES IDX 6 13 7 14 19 15 8 16 18 17 9 18 10 20 11 22 12 23 17 24
REMARK SMILES IDX 13 25 16 26 14 27 15 28
REMARK H PARENT 6 19 10 21
ROOT
ATOM      1  C   UNL     1     -13.216  15.991 -41.323  1.00  0.00     0.070 C 
ENDROOT
BRANCH   1   2
ATOM      2  C   UNL     1     -12.021  16.612 -42.013  1.00  0.00     0.087 C 
BRANCH   2   3
ATOM      3  C   UNL     1     -12.363  17.498 -43.127  1.00  0.00     0.163 C 
ATOM      4  O   UNL     1     -12.188  17.148 -44.323  1.00  0.00    -0.294 OA
BRANCH   3   5
ATOM      5  C   UNL     1     -12.929  18.848 -42.921  1.00  0.00     0.018 A 
ATOM      6  C   UNL     1     -13.588  19.161 -41.745  1.00  0.00     0.015 A 
ATOM      7  C   UNL     1     -12.817  19.817 -43.885  1.00  0.00     0.015 A 
ATOM      8  C   UNL     1     -14.113  20.417 -41.560  1.00  0.00     0.040 A 
ATOM      9  C   UNL     1     -13.337  21.071 -43.707  1.00  0.00     0.040 A 
ATOM     10  C   UNL     1     -13.986  21.368 -42.540  1.00  0.00     0.123 A 
ATOM     11  F   UNL     1     -14.495  22.633 -42.400  1.00  0.00    -0.207 F 
ENDBRANCH   3   5
ENDBRANCH   2   3
ENDBRANCH   1   2
BRANCH   1  12
ATOM     12  C   UNL     1     -13.061  14.509 -41.355  1.00  0.00     0.262 C 
BRANCH  12  13
ATOM     13  N   UNL     1     -12.955  13.924 -40.025  1.00  0.00    -0.335 N 
ATOM     14  C   UNL     1     -12.351  12.627 -40.044  1.00  0.00     0.265 C 
ATOM     15  C   UNL     1     -12.240  14.803 -39.158  1.00  0.00     0.265 C 
ATOM     16  C   UNL     1     -10.960  12.672 -40.615  1.00  0.00     0.102 C 
ATOM     17  C   UNL     1     -10.860  14.429 -38.816  1.00  0.00     0.102 C 
ATOM     18  C   UNL     1     -10.110  13.574 -39.771  1.00  0.00     0.100 C 
ATOM     19  H   UNL     1     -13.962  13.782 -39.715  1.00  0.00     0.348 HD
BRANCH  18  20
ATOM     20  O   UNL     1      -9.284  12.721 -39.000  1.00  0.00    -0.385 OA
ATOM     21  H   UNL     1      -9.009  13.239 -38.203  1.00  0.00     0.211 HD
ENDBRANCH  18  20
BRANCH  18  22
ATOM     22  C   UNL     1      -9.140  14.359 -40.614  1.00  0.00    -0.016 A 
ATOM     23  C   UNL     1      -8.652  15.587 -40.218  1.00  0.00     0.008 A 
ATOM     24  C   UNL     1      -8.678  13.902 -41.829  1.00  0.00     0.008 A 
ATOM     25  C   UNL     1      -7.765  16.335 -40.959  1.00  0.00     0.021 A 
ATOM     26  C   UNL     1      -7.788  14.635 -42.590  1.00  0.00     0.021 A 
ATOM     27  C   UNL     1      -7.333  15.850 -42.154  1.00  0.00     0.041 A 
ATOM     28  Cl  UNL     1      -6.205  16.783 -43.108  1.00  0.00    -0.084 Cl
ENDBRANCH  18  22
ENDBRANCH  12  13
ENDBRANCH   1  12
TORSDOF 7
ENDMDL
MODEL 8
REMARK VINA RESULT:      -6.8      2.922      4.496
REMARK SMILES O=C(CCC[NH+]1CCC(O)(c2ccc(Cl)cc2)CC1)c1ccc(F)cc1
REMARK SMILES IDX 4 1 3 2 2 3 1 4 20 5 21 6 26 7 22 8 25 9 23 10 24 11 5 12
REMARK SMILES IDX 6 13 7 14 19 15 8 16 18 17 9 18 10 20 11 22 12 23 17 24
REMARK SMILES IDX 13 25 16 26 14 27 15 28
REMARK H PARENT 6 19 10 21
ROOT
ATOM      1  C   UNL     1     -13.029  15.649 -41.981  1.00  0.00     0.070 C 
ENDROOT
BRANCH   1   2
ATOM      2  C   UNL     1     -11.918  16.637 -42.260  1.00  0.00     0.087 C 
BRANCH   2   3
ATOM      3  C   UNL     1     -12.213  17.587 -43.334  1.00  0.00     0.163 C 
ATOM      4  O   UNL     1     -11.961  17.319 -44.537  1.00  0.00    -0.294 OA
BRANCH   3   5
ATOM      5  C   UNL     1     -12.822  18.910 -43.077  1.00  0.00     0.018 A 
ATOM      6  C   UNL     1     -12.771  19.905 -44.036  1.00  0.00     0.015 A 
ATOM      7  C   UNL     1     -13.448  19.180 -41.887  1.00  0.00     0.015 A 
ATOM      8  C   UNL     1     -13.338  21.133 -43.789  1.00  0.00     0.040 A 
ATOM      9  C   UNL     1     -14.016  20.400 -41.634  1.00  0.00     0.040 A 
ATOM     10  C   UNL     1     -13.959  21.376 -42.591  1.00  0.00     0.123 A 
ATOM     11  F   UNL     1     -14.536  22.585 -42.301  1.00  0.00    -0.207 F 
ENDBRANCH   3   5
ENDBRANCH   2   3
ENDBRANCH   1   2
BRANCH   1  12
ATOM     12  C   UNL     1     -12.427  14.294 -41.829  1.00  0.00     0.262 C 
BRANCH  12  13
ATOM     13  N   UNL     1     -12.540  13.776 -40.471  1.00  0.00    -0.335 N 
ATOM     14  C   UNL     1     -11.952  12.479 -40.330  1.00  0.00     0.265 C 
ATOM     15  C   UNL     1     -11.964  14.697 -39.545  1.00  0.00     0.265 C 
ATOM     16  C   UNL     1     -10.488  12.495 -40.672  1.00  0.00     0.102 C 
ATOM     17  C   UNL     1     -10.660  14.340 -38.970  1.00  0.00     0.102 C 
ATOM     18  C   UNL     1      -9.775  13.438 -39.749  1.00  0.00     0.100 C 
ATOM     19  H   UNL     1     -13.585  13.651 -40.319  1.00  0.00     0.348 HD
BRANCH  18  20
ATOM     20  O   UNL     1      -9.090  12.624 -38.814  1.00  0.00    -0.385 OA
ATOM     21  H   UNL     1      -9.783  12.183 -38.262  1.00  0.00     0.211 HD
ENDBRANCH  18  20
BRANCH  18  22
ATOM     22  C   UNL     1      -8.676  14.178 -40.464  1.00  0.00    -0.016 A 
ATOM     23  C   UNL     1      -7.387  13.690 -40.529  1.00  0.00     0.008 A 
ATOM     24  C   UNL     1      -8.884  15.384 -41.096  1.00  0.00     0.008 A 
ATOM     25  C   UNL     1      -6.355  14.335 -41.171  1.00  0.00     0.021 A 
ATOM     26  C   UNL     1      -7.864  16.050 -41.746  1.00  0.00     0.021 A 
ATOM     27  C   UNL     1      -6.601  15.524 -41.783  1.00  0.00     0.041 A 
ATOM     28  Cl  UNL     1      -5.304  16.358 -42.606  1.00  0.00    -0.084 Cl
ENDBRANCH  18  22
ENDBRANCH  12  13
ENDBRANCH   1  12
TORSDOF 7
ENDMDL
MODEL 9
REMARK VINA RESULT:      -6.8      2.175      2.691
REMARK SMILES O=C(CCC[NH+]1CCC(O)(c2ccc(Cl)cc2)CC1)c1ccc(F)cc1
REMARK SMILES IDX 4 1 3 2 2 3 1 4 20 5 21 6 26 7 22 8 25 9 23 10 24 11 5 12
REMARK SMILES IDX 6 13 7 14 19 15 8 16 18 17 9 18 10 20 11 22 12 23 17 24
REMARK SMILES IDX 13 25 16 26 14 27 15 28
REMARK H PARENT 6 19 10 21
ROOT
ATOM      1  C   UNL     1     -11.061  15.613 -43.003  1.00  0.00     0.070 C 
ENDROOT
BRANCH   1   2
ATOM      2  C   UNL     1     -12.128  16.573 -43.479  1.00  0.00     0.087 C 
BRANCH   2   3
ATOM      3  C   UNL     1     -12.901  17.198 -42.403  1.00  0.00     0.163 C 
ATOM      4  O   UNL     1     -13.260  16.546 -41.388  1.00  0.00    -0.294 OA
BRANCH   3   5
ATOM      5  C   UNL     1     -13.304  18.619 -42.440  1.00  0.00     0.018 A 
ATOM      6  C   UNL     1     -12.841  19.455 -43.441  1.00  0.00     0.015 A 
ATOM      7  C   UNL     1     -14.141  19.141 -41.488  1.00  0.00     0.015 A 
ATOM      8  C   UNL     1     -13.220  20.776 -43.469  1.00  0.00     0.040 A 
ATOM      9  C   UNL     1     -14.522  20.456 -41.509  1.00  0.00     0.040 A 
ATOM     10  C   UNL     1     -14.059  21.273 -42.504  1.00  0.00     0.123 A 
ATOM     11  F   UNL     1     -14.460  22.583 -42.491  1.00  0.00    -0.207 F 
ENDBRANCH   3   5
ENDBRANCH   2   3
ENDBRANCH   1   2
BRANCH   1  12
ATOM     12  C   UNL     1      -9.916  16.406 -42.473  1.00  0.00     0.262 C 
BRANCH  12  13
ATOM     13  N   UNL     1      -8.624  15.807 -42.783  1.00  0.00    -0.335 N 
ATOM     14  C   UNL     1      -7.677  15.971 -41.723  1.00  0.00     0.265 C 
ATOM     15  C   UNL     1      -8.788  14.428 -43.108  1.00  0.00     0.265 C 
ATOM     16  C   UNL     1      -8.159  15.337 -40.447  1.00  0.00     0.102 C 
ATOM     17  C   UNL     1      -8.366  13.448 -42.096  1.00  0.00     0.102 C 
ATOM     18  C   UNL     1      -8.364  13.869 -40.673  1.00  0.00     0.100 C 
ATOM     19  H   UNL     1      -8.257  16.375 -43.604  1.00  0.00     0.348 HD
BRANCH  18  20
ATOM     20  O   UNL     1      -7.266  13.223 -40.054  1.00  0.00    -0.385 OA
ATOM     21  H   UNL     1      -6.705  13.936 -39.659  1.00  0.00     0.211 HD
ENDBRANCH  18  20
BRANCH  18  22
ATOM     22  C   UNL     1      -9.562  13.360 -39.916  1.00  0.00    -0.016 A 
ATOM     23  C   UNL     1     -10.573  14.199 -39.495  1.00  0.00     0.008 A 
ATOM     24  C   UNL     1      -9.726  12.030 -39.596  1.00  0.00     0.008 A 
ATOM     25  C   UNL     1     -11.683  13.775 -38.800  1.00  0.00     0.021 A 
ATOM     26  C   UNL     1     -10.831  11.581 -38.899  1.00  0.00     0.021 A 
ATOM     27  C   UNL     1     -11.808  12.453 -38.503  1.00  0.00     0.041 A 
ATOM     28  Cl  UNL     1     -13.210  11.894 -37.624  1.00  0.00    -0.084 Cl
ENDBRANCH  18  22
ENDBRANCH  12  13
ENDBRANCH   1  12
TORSDOF 7
ENDMDL
