MODEL 1
REMARK VINA RESULT:      -8.8      0.000      0.000
REMARK SMILES O=C1NCN(c2ccccc2)C12CC[NH+](CCCC(c1ccc(F)cc1)c1ccc(F)cc1)CC2
REMARK SMILES IDX 17 1 16 2 15 3 1 4 2 5 3 6 12 7 4 8 5 9 13 10 35 11 14 12
REMARK SMILES IDX 34 13 6 16 7 17 11 18 8 19 10 20 9 21 18 22 19 23 20 24
REMARK SMILES IDX 21 25 26 26 22 27 25 28 23 29 24 30 27 31 28 32 33 33 29 34
REMARK SMILES IDX 32 35 30 36 31 37
REMARK H PARENT 3 14 15 15
ROOT
ATOM      1  C   UNL     1     -13.335  14.905 -39.512  1.00  0.00     0.062 C 
ENDROOT
BRANCH   1   2
ATOM      2  C   UNL     1     -13.894  13.887 -40.463  1.00  0.00     0.262 C 
BRANCH   2   3
ATOM      3  N   UNL     1     -14.945  13.115 -39.812  1.00  0.00    -0.335 N 
ATOM      4  O   UNL     1     -17.545  11.236 -40.186  1.00  0.00    -0.272 OA
ATOM      5  C   UNL     1     -17.782  11.402 -38.972  1.00  0.00     0.247 C 
ATOM      6  N   UNL     1     -18.882  10.846 -38.295  1.00  0.00    -0.336 N 
ATOM      7  C   UNL     1     -16.942  12.221 -38.019  1.00  0.00     0.131 C 
ATOM      8  C   UNL     1     -18.550  10.870 -36.906  1.00  0.00     0.238 C 
ATOM      9  N   UNL     1     -17.678  12.047 -36.769  1.00  0.00    -0.339 N 
ATOM     10  C   UNL     1     -16.941  13.662 -38.488  1.00  0.00     0.100 C 
ATOM     11  C   UNL     1     -15.575  11.636 -38.004  1.00  0.00     0.100 C 
ATOM     12  C   UNL     1     -16.215  13.811 -39.805  1.00  0.00     0.265 C 
ATOM     13  C   UNL     1     -14.582  12.632 -38.505  1.00  0.00     0.265 C 
ATOM     14  H   UNL     1     -19.765  10.487 -38.749  1.00  0.00     0.165 HD
ATOM     15  H   UNL     1     -15.063  12.279 -40.426  1.00  0.00     0.348 HD
BRANCH   9  16
ATOM     16  C   UNL     1     -17.662  12.812 -35.575  1.00  0.00     0.039 A 
ATOM     17  C   UNL     1     -18.400  13.966 -35.462  1.00  0.00     0.026 A 
ATOM     18  C   UNL     1     -16.922  12.391 -34.513  1.00  0.00     0.026 A 
ATOM     19  C   UNL     1     -18.408  14.718 -34.283  1.00  0.00     0.002 A 
ATOM     20  C   UNL     1     -16.915  13.111 -33.351  1.00  0.00     0.002 A 
ATOM     21  C   UNL     1     -17.647  14.263 -33.226  1.00  0.00     0.000 A 
ENDBRANCH   9  16
ENDBRANCH   2   3
ENDBRANCH   1   2
BRANCH   1  22
ATOM     22  C   UNL     1     -13.051  16.239 -40.052  1.00  0.00     0.019 C 
BRANCH  22  23
ATOM     23  C   UNL     1     -12.295  16.450 -41.279  1.00  0.00     0.049 C 
BRANCH  23  24
ATOM     24  C   UNL     1     -12.561  17.749 -41.993  1.00  0.00    -0.040 A 
ATOM     25  C   UNL     1     -13.322  18.679 -41.319  1.00  0.00     0.007 A 
ATOM     26  C   UNL     1     -12.103  18.005 -43.257  1.00  0.00     0.007 A 
ATOM     27  C   UNL     1     -13.628  19.878 -41.911  1.00  0.00     0.039 A 
ATOM     28  C   UNL     1     -12.410  19.203 -43.844  1.00  0.00     0.039 A 
ATOM     29  C   UNL     1     -13.181  20.165 -43.180  1.00  0.00     0.123 A 
ATOM     30  F   UNL     1     -13.491  21.354 -43.755  1.00  0.00    -0.207 F 
ENDBRANCH  23  24
BRANCH  23  31
ATOM     31  C   UNL     1     -10.886  16.102 -41.355  1.00  0.00    -0.040 A 
ATOM     32  C   UNL     1     -10.327  15.111 -42.113  1.00  0.00     0.007 A 
ATOM     33  C   UNL     1     -10.036  16.866 -40.545  1.00  0.00     0.007 A 
ATOM     34  C   UNL     1      -8.944  14.906 -42.045  1.00  0.00     0.039 A 
ATOM     35  C   UNL     1      -8.693  16.677 -40.472  1.00  0.00     0.039 A 
ATOM     36  C   UNL     1      -8.144  15.676 -41.238  1.00  0.00     0.123 A 
ATOM     37  F   UNL     1      -6.798  15.498 -41.155  1.00  0.00    -0.207 F 
ENDBRANCH  23  31
ENDBRANCH  22  23
ENDBRANCH   1  22
TORSDOF 7
ENDMDL
MODEL 2
REMARK VINA RESULT:      -8.8      3.842      5.836
REMARK SMILES O=C1NCN(c2ccccc2)C12CC[NH+](CCCC(c1ccc(F)cc1)c1ccc(F)cc1)CC2
REMARK SMILES IDX 17 1 16 2 15 3 1 4 2 5 3 6 12 7 4 8 5 9 13 10 35 11 14 12
REMARK SMILES IDX 34 13 6 16 7 17 11 18 8 19 10 20 9 21 18 22 19 23 20 24
REMARK SMILES IDX 21 25 26 26 22 27 25 28 23 29 24 30 27 31 28 32 33 33 29 34
REMARK SMILES IDX 32 35 30 36 31 37
REMARK H PARENT 3 14 15 15
ROOT
ATOM      1  C   UNL     1      -9.266  15.816 -43.662  1.00  0.00     0.062 C 
ENDROOT
BRANCH   1   2
ATOM      2  C   UNL     1      -8.471  15.894 -42.392  1.00  0.00     0.262 C 
BRANCH   2   3
ATOM      3  N   UNL     1      -9.016  14.975 -41.399  1.00  0.00    -0.335 N 
ATOM      4  O   UNL     1      -8.703  12.143 -39.879  1.00  0.00    -0.272 OA
ATOM      5  C   UNL     1      -9.874  12.285 -39.472  1.00  0.00     0.247 C 
ATOM      6  N   UNL     1     -10.550  11.357 -38.660  1.00  0.00    -0.336 N 
ATOM      7  C   UNL     1     -10.769  13.466 -39.772  1.00  0.00     0.131 C 
ATOM      8  C   UNL     1     -11.628  12.069 -38.051  1.00  0.00     0.238 C 
ATOM      9  N   UNL     1     -11.980  13.097 -39.042  1.00  0.00    -0.339 N 
ATOM     10  C   UNL     1     -10.999  13.532 -41.268  1.00  0.00     0.100 C 
ATOM     11  C   UNL     1     -10.097  14.687 -39.255  1.00  0.00     0.100 C 
ATOM     12  C   UNL     1      -9.724  13.867 -42.007  1.00  0.00     0.265 C 
ATOM     13  C   UNL     1      -9.794  15.624 -40.377  1.00  0.00     0.265 C 
ATOM     14  H   UNL     1     -10.289  10.340 -38.542  1.00  0.00     0.165 HD
ATOM     15  H   UNL     1      -8.172  14.574 -40.935  1.00  0.00     0.348 HD
BRANCH   9  16
ATOM     16  C   UNL     1     -13.315  13.557 -39.180  1.00  0.00     0.039 A 
ATOM     17  C   UNL     1     -13.594  14.895 -39.320  1.00  0.00     0.026 A 
ATOM     18  C   UNL     1     -14.339  12.660 -39.195  1.00  0.00     0.026 A 
ATOM     19  C   UNL     1     -14.904  15.358 -39.476  1.00  0.00     0.002 A 
ATOM     20  C   UNL     1     -15.628  13.091 -39.346  1.00  0.00     0.002 A 
ATOM     21  C   UNL     1     -15.918  14.423 -39.487  1.00  0.00     0.000 A 
ENDBRANCH   9  16
ENDBRANCH   2   3
ENDBRANCH   1   2
BRANCH   1  22
ATOM     22  C   UNL     1     -10.322  16.816 -43.852  1.00  0.00     0.019 C 
BRANCH  22  23
ATOM     23  C   UNL     1     -11.678  16.638 -43.349  1.00  0.00     0.049 C 
BRANCH  23  24
ATOM     24  C   UNL     1     -12.412  17.904 -42.993  1.00  0.00    -0.040 A 
ATOM     25  C   UNL     1     -12.305  18.950 -43.882  1.00  0.00     0.007 A 
ATOM     26  C   UNL     1     -13.132  18.039 -41.836  1.00  0.00     0.007 A 
ATOM     27  C   UNL     1     -12.925  20.146 -43.617  1.00  0.00     0.039 A 
ATOM     28  C   UNL     1     -13.750  19.233 -41.576  1.00  0.00     0.039 A 
ATOM     29  C   UNL     1     -13.658  20.312 -42.464  1.00  0.00     0.123 A 
ATOM     30  F   UNL     1     -14.266  21.499 -42.213  1.00  0.00    -0.207 F 
ENDBRANCH  23  24
BRANCH  23  31
ATOM     31  C   UNL     1     -12.580  15.678 -43.965  1.00  0.00    -0.040 A 
ATOM     32  C   UNL     1     -13.345  14.747 -43.321  1.00  0.00     0.007 A 
ATOM     33  C   UNL     1     -12.639  15.723 -45.364  1.00  0.00     0.007 A 
ATOM     34  C   UNL     1     -14.146  13.886 -44.082  1.00  0.00     0.039 A 
ATOM     35  C   UNL     1     -13.412  14.895 -46.112  1.00  0.00     0.039 A 
ATOM     36  C   UNL     1     -14.177  13.961 -45.452  1.00  0.00     0.123 A 
ATOM     37  F   UNL     1     -14.946  13.138 -46.214  1.00  0.00    -0.207 F 
ENDBRANCH  23  31
ENDBRANCH  22  23
ENDBRANCH   1  22
TORSDOF 7
ENDMDL
MODEL 3
REMARK VINA RESULT:      -8.8      3.961      5.564
REMARK SMILES O=C1NCN(c2ccccc2)C12CC[NH+](CCCC(c1ccc(F)cc1)c1ccc(F)cc1)CC2
REMARK SMILES IDX 17 1 16 2 15 3 1 4 2 5 3 6 12 7 4 8 5 9 13 10 35 11 14 12
REMARK SMILES IDX 34 13 6 16 7 17 11 18 8 19 10 20 9 21 18 22 19 23 20 24
REMARK SMILES IDX 21 25 26 26 22 27 25 28 23 29 24 30 27 31 28 32 33 33 29 34
REMARK SMILES IDX 32 35 30 36 31 37
REMARK H PARENT 3 14 15 15
ROOT
ATOM      1  C   UNL     1      -9.348  16.113 -42.094  1.00  0.00     0.062 C 
ENDROOT
BRANCH   1   2
ATOM      2  C   UNL     1      -9.625  16.315 -40.634  1.00  0.00     0.262 C 
BRANCH   2   3
ATOM      3  N   UNL     1     -10.145  15.086 -40.046  1.00  0.00    -0.335 N 
ATOM      4  O   UNL     1      -9.459  12.242 -38.678  1.00  0.00    -0.272 OA
ATOM      5  C   UNL     1     -10.653  11.923 -38.852  1.00  0.00     0.247 C 
ATOM      6  N   UNL     1     -11.204  10.682 -38.485  1.00  0.00    -0.336 N 
ATOM      7  C   UNL     1     -11.712  12.799 -39.480  1.00  0.00     0.131 C 
ATOM      8  C   UNL     1     -12.617  10.878 -38.413  1.00  0.00     0.238 C 
ATOM      9  N   UNL     1     -12.882  11.927 -39.409  1.00  0.00    -0.339 N 
ATOM     10  C   UNL     1     -11.307  13.101 -40.909  1.00  0.00     0.100 C 
ATOM     11  C   UNL     1     -11.824  14.033 -38.658  1.00  0.00     0.100 C 
ATOM     12  C   UNL     1     -10.068  13.964 -40.959  1.00  0.00     0.265 C 
ATOM     13  C   UNL     1     -11.457  15.231 -39.472  1.00  0.00     0.265 C 
ATOM     14  H   UNL     1     -10.657   9.797 -38.304  1.00  0.00     0.165 HD
ATOM     15  H   UNL     1      -9.488  14.882 -39.262  1.00  0.00     0.348 HD
BRANCH   9  16
ATOM     16  C   UNL     1     -14.104  11.964 -40.128  1.00  0.00     0.039 A 
ATOM     17  C   UNL     1     -14.410  10.999 -41.057  1.00  0.00     0.026 A 
ATOM     18  C   UNL     1     -15.002  12.957 -39.881  1.00  0.00     0.026 A 
ATOM     19  C   UNL     1     -15.621  11.014 -41.756  1.00  0.00     0.002 A 
ATOM     20  C   UNL     1     -16.192  12.990 -40.554  1.00  0.00     0.002 A 
ATOM     21  C   UNL     1     -16.508  12.033 -41.483  1.00  0.00     0.000 A 
ENDBRANCH   9  16
ENDBRANCH   2   3
ENDBRANCH   1   2
BRANCH   1  22
ATOM     22  C   UNL     1     -10.234  16.796 -43.043  1.00  0.00     0.019 C 
BRANCH  22  23
ATOM     23  C   UNL     1     -11.686  16.763 -42.933  1.00  0.00     0.049 C 
BRANCH  23  24
ATOM     24  C   UNL     1     -12.366  18.106 -42.882  1.00  0.00    -0.040 A 
ATOM     25  C   UNL     1     -13.128  18.370 -41.766  1.00  0.00     0.007 A 
ATOM     26  C   UNL     1     -12.267  19.023 -43.895  1.00  0.00     0.007 A 
ATOM     27  C   UNL     1     -13.799  19.562 -41.655  1.00  0.00     0.039 A 
ATOM     28  C   UNL     1     -12.937  20.211 -43.781  1.00  0.00     0.039 A 
ATOM     29  C   UNL     1     -13.717  20.504 -42.656  1.00  0.00     0.123 A 
ATOM     30  F   UNL     1     -14.386  21.679 -42.536  1.00  0.00    -0.207 F 
ENDBRANCH  23  24
BRANCH  23  31
ATOM     31  C   UNL     1     -12.470  15.820 -43.712  1.00  0.00    -0.040 A 
ATOM     32  C   UNL     1     -12.545  15.747 -45.074  1.00  0.00     0.007 A 
ATOM     33  C   UNL     1     -13.232  14.912 -42.964  1.00  0.00     0.007 A 
ATOM     34  C   UNL     1     -13.373  14.779 -45.656  1.00  0.00     0.039 A 
ATOM     35  C   UNL     1     -14.037  13.969 -43.516  1.00  0.00     0.039 A 
ATOM     36  C   UNL     1     -14.105  13.908 -44.889  1.00  0.00     0.123 A 
ATOM     37  F   UNL     1     -14.915  12.958 -45.429  1.00  0.00    -0.207 F 
ENDBRANCH  23  31
ENDBRANCH  22  23
ENDBRANCH   1  22
TORSDOF 7
ENDMDL
MODEL 4
REMARK VINA RESULT:      -8.6      0.316      1.179
REMARK SMILES O=C1NCN(c2ccccc2)C12CC[NH+](CCCC(c1ccc(F)cc1)c1ccc(F)cc1)CC2
REMARK SMILES IDX 17 1 16 2 15 3 1 4 2 5 3 6 12 7 4 8 5 9 13 10 35 11 14 12
REMARK SMILES IDX 34 13 6 16 7 17 11 18 8 19 10 20 9 21 18 22 19 23 20 24
REMARK SMILES IDX 21 25 26 26 22 27 25 28 23 29 24 30 27 31 28 32 33 33 29 34
REMARK SMILES IDX 32 35 30 36 31 37
REMARK H PARENT 3 14 15 15
ROOT
ATOM      1  C   UNL     1     -14.066  15.262 -40.195  1.00  0.00     0.062 C 
ENDROOT
BRANCH   1   2
ATOM      2  C   UNL     1     -13.915  13.796 -40.476  1.00  0.00     0.262 C 
BRANCH   2   3
ATOM      3  N   UNL     1     -14.970  13.044 -39.806  1.00  0.00    -0.335 N 
ATOM      4  O   UNL     1     -17.581  11.173 -40.137  1.00  0.00    -0.272 OA
ATOM      5  C   UNL     1     -17.816  11.368 -38.926  1.00  0.00     0.247 C 
ATOM      6  N   UNL     1     -18.919  10.833 -38.237  1.00  0.00    -0.336 N 
ATOM      7  C   UNL     1     -16.970  12.202 -37.992  1.00  0.00     0.131 C 
ATOM      8  C   UNL     1     -18.585  10.886 -36.848  1.00  0.00     0.238 C 
ATOM      9  N   UNL     1     -17.707  12.061 -36.738  1.00  0.00    -0.339 N 
ATOM     10  C   UNL     1     -16.961  13.632 -38.494  1.00  0.00     0.100 C 
ATOM     11  C   UNL     1     -15.607  11.610 -37.965  1.00  0.00     0.100 C 
ATOM     12  C   UNL     1     -16.236  13.748 -39.814  1.00  0.00     0.265 C 
ATOM     13  C   UNL     1     -14.608  12.589 -38.490  1.00  0.00     0.265 C 
ATOM     14  H   UNL     1     -19.805  10.470 -38.682  1.00  0.00     0.165 HD
ATOM     15  H   UNL     1     -15.093  12.196 -40.402  1.00  0.00     0.348 HD
BRANCH   9  16
ATOM     16  C   UNL     1     -17.685  12.852 -35.562  1.00  0.00     0.039 A 
ATOM     17  C   UNL     1     -16.972  12.458 -34.455  1.00  0.00     0.026 A 
ATOM     18  C   UNL     1     -18.361  14.033 -35.530  1.00  0.00     0.026 A 
ATOM     19  C   UNL     1     -16.926  13.240 -33.297  1.00  0.00     0.002 A 
ATOM     20  C   UNL     1     -18.330  14.813 -34.407  1.00  0.00     0.002 A 
ATOM     21  C   UNL     1     -17.623  14.430 -33.298  1.00  0.00     0.000 A 
ENDBRANCH   9  16
ENDBRANCH   2   3
ENDBRANCH   1   2
BRANCH   1  22
ATOM     22  C   UNL     1     -12.843  16.072 -40.190  1.00  0.00     0.019 C 
BRANCH  22  23
ATOM     23  C   UNL     1     -12.162  16.481 -41.411  1.00  0.00     0.049 C 
BRANCH  23  24
ATOM     24  C   UNL     1     -12.585  17.811 -41.978  1.00  0.00    -0.040 A 
ATOM     25  C   UNL     1     -12.188  18.086 -43.268  1.00  0.00     0.007 A 
ATOM     26  C   UNL     1     -13.305  18.725 -41.258  1.00  0.00     0.007 A 
ATOM     27  C   UNL     1     -12.513  19.286 -43.848  1.00  0.00     0.039 A 
ATOM     28  C   UNL     1     -13.628  19.921 -41.840  1.00  0.00     0.039 A 
ATOM     29  C   UNL     1     -13.237  20.225 -43.150  1.00  0.00     0.123 A 
ATOM     30  F   UNL     1     -13.553  21.409 -43.733  1.00  0.00    -0.207 F 
ENDBRANCH  23  24
BRANCH  23  31
ATOM     31  C   UNL     1     -10.729  16.290 -41.564  1.00  0.00    -0.040 A 
ATOM     32  C   UNL     1     -10.097  15.613 -42.569  1.00  0.00     0.007 A 
ATOM     33  C   UNL     1      -9.938  16.855 -40.556  1.00  0.00     0.007 A 
ATOM     34  C   UNL     1      -8.700  15.513 -42.544  1.00  0.00     0.039 A 
ATOM     35  C   UNL     1      -8.584  16.767 -40.521  1.00  0.00     0.039 A 
ATOM     36  C   UNL     1      -7.960  16.081 -41.538  1.00  0.00     0.123 A 
ATOM     37  F   UNL     1      -6.603  16.000 -41.491  1.00  0.00    -0.207 F 
ENDBRANCH  23  31
ENDBRANCH  22  23
ENDBRANCH   1  22
TORSDOF 7
ENDMDL
MODEL 5
REMARK VINA RESULT:      -8.5      3.850      6.025
REMARK SMILES O=C1NCN(c2ccccc2)C12CC[NH+](CCCC(c1ccc(F)cc1)c1ccc(F)cc1)CC2
REMARK SMILES IDX 17 1 16 2 15 3 1 4 2 5 3 6 12 7 4 8 5 9 13 10 35 11 14 12
REMARK SMILES IDX 34 13 6 16 7 17 11 18 8 19 10 20 9 21 18 22 19 23 20 24
REMARK SMILES IDX 21 25 26 26 22 27 25 28 23 29 24 30 27 31 28 32 33 33 29 34
REMARK SMILES IDX 32 35 30 36 31 37
REMARK H PARENT 3 14 15 15
ROOT
ATOM      1  C   UNL     1      -9.836  16.133 -41.271  1.00  0.00     0.062 C 
ENDROOT
BRANCH   1   2
ATOM      2  C   UNL     1      -9.268  15.665 -39.964  1.00  0.00     0.262 C 
BRANCH   2   3
ATOM      3  N   UNL     1      -9.945  14.449 -39.528  1.00  0.00    -0.335 N 
ATOM      4  O   UNL     1      -9.635  11.416 -38.461  1.00  0.00    -0.272 OA
ATOM      5  C   UNL     1     -10.850  11.258 -38.700  1.00  0.00     0.247 C 
ATOM      6  N   UNL     1     -11.550  10.057 -38.486  1.00  0.00    -0.336 N 
ATOM      7  C   UNL     1     -11.779  12.312 -39.256  1.00  0.00     0.131 C 
ATOM      8  C   UNL     1     -12.934  10.407 -38.429  1.00  0.00     0.238 C 
ATOM      9  N   UNL     1     -13.041  11.579 -39.311  1.00  0.00    -0.339 N 
ATOM     10  C   UNL     1     -11.288  12.714 -40.633  1.00  0.00     0.100 C 
ATOM     11  C   UNL     1     -11.783  13.457 -38.308  1.00  0.00     0.100 C 
ATOM     12  C   UNL     1      -9.959  13.429 -40.556  1.00  0.00     0.265 C 
ATOM     13  C   UNL     1     -11.253  14.684 -38.976  1.00  0.00     0.265 C 
ATOM     14  H   UNL     1     -11.114   9.101 -38.388  1.00  0.00     0.165 HD
ATOM     15  H   UNL     1      -9.345  14.088 -38.755  1.00  0.00     0.348 HD
BRANCH   9  16
ATOM     16  C   UNL     1     -14.223  11.833 -40.052  1.00  0.00     0.039 A 
ATOM     17  C   UNL     1     -15.067  12.864 -39.712  1.00  0.00     0.026 A 
ATOM     18  C   UNL     1     -14.522  11.060 -41.132  1.00  0.00     0.026 A 
ATOM     19  C   UNL     1     -16.224  13.136 -40.448  1.00  0.00     0.002 A 
ATOM     20  C   UNL     1     -15.649  11.309 -41.865  1.00  0.00     0.002 A 
ATOM     21  C   UNL     1     -16.497  12.334 -41.536  1.00  0.00     0.000 A 
ENDBRANCH   9  16
ENDBRANCH   2   3
ENDBRANCH   1   2
BRANCH   1  22
ATOM     22  C   UNL     1     -11.069  16.926 -41.218  1.00  0.00     0.019 C 
BRANCH  22  23
ATOM     23  C   UNL     1     -11.793  17.342 -42.412  1.00  0.00     0.049 C 
BRANCH  23  24
ATOM     24  C   UNL     1     -12.461  16.236 -43.187  1.00  0.00    -0.040 A 
ATOM     25  C   UNL     1     -13.127  15.282 -42.450  1.00  0.00     0.007 A 
ATOM     26  C   UNL     1     -12.401  16.150 -44.552  1.00  0.00     0.007 A 
ATOM     27  C   UNL     1     -13.741  14.229 -43.081  1.00  0.00     0.039 A 
ATOM     28  C   UNL     1     -13.015  15.099 -45.177  1.00  0.00     0.039 A 
ATOM     29  C   UNL     1     -13.699  14.116 -44.452  1.00  0.00     0.123 A 
ATOM     30  F   UNL     1     -14.310  13.070 -45.064  1.00  0.00    -0.207 F 
ENDBRANCH  23  24
BRANCH  23  31
ATOM     31  C   UNL     1     -12.623  18.535 -42.402  1.00  0.00    -0.040 A 
ATOM     32  C   UNL     1     -13.554  18.875 -41.461  1.00  0.00     0.007 A 
ATOM     33  C   UNL     1     -12.441  19.401 -43.488  1.00  0.00     0.007 A 
ATOM     34  C   UNL     1     -14.279  20.062 -41.625  1.00  0.00     0.039 A 
ATOM     35  C   UNL     1     -13.136  20.555 -43.657  1.00  0.00     0.039 A 
ATOM     36  C   UNL     1     -14.072  20.885 -42.704  1.00  0.00     0.123 A 
ATOM     37  F   UNL     1     -14.761  22.043 -42.885  1.00  0.00    -0.207 F 
ENDBRANCH  23  31
ENDBRANCH  22  23
ENDBRANCH   1  22
TORSDOF 7
ENDMDL
MODEL 6
REMARK VINA RESULT:      -8.5      0.379      1.187
REMARK SMILES O=C1NCN(c2ccccc2)C12CC[NH+](CCCC(c1ccc(F)cc1)c1ccc(F)cc1)CC2
REMARK SMILES IDX 17 1 16 2 15 3 1 4 2 5 3 6 12 7 4 8 5 9 13 10 35 11 14 12
REMARK SMILES IDX 34 13 6 16 7 17 11 18 8 19 10 20 9 21 18 22 19 23 20 24
REMARK SMILES IDX 21 25 26 26 22 27 25 28 23 29 24 30 27 31 28 32 33 33 29 34
REMARK SMILES IDX 32 35 30 36 31 37
REMARK H PARENT 3 14 15 15
ROOT
ATOM      1  C   UNL     1     -13.972  15.142 -40.404  1.00  0.00     0.062 C 
ENDROOT
BRANCH   1   2
ATOM      2  C   UNL     1     -13.723  13.664 -40.449  1.00  0.00     0.262 C 
BRANCH   2   3
ATOM      3  N   UNL     1     -14.824  12.948 -39.815  1.00  0.00    -0.335 N 
ATOM      4  O   UNL     1     -17.505  11.196 -40.231  1.00  0.00    -0.272 OA
ATOM      5  C   UNL     1     -17.758  11.383 -39.023  1.00  0.00     0.247 C 
ATOM      6  N   UNL     1     -18.898  10.886 -38.366  1.00  0.00    -0.336 N 
ATOM      7  C   UNL     1     -16.899  12.167 -38.058  1.00  0.00     0.131 C 
ATOM      8  C   UNL     1     -18.593  10.905 -36.970  1.00  0.00     0.238 C 
ATOM      9  N   UNL     1     -17.668  12.039 -36.823  1.00  0.00    -0.339 N 
ATOM     10  C   UNL     1     -16.817  13.602 -38.537  1.00  0.00     0.100 C 
ATOM     11  C   UNL     1     -15.562  11.516 -38.010  1.00  0.00     0.100 C 
ATOM     12  C   UNL     1     -16.058  13.705 -39.839  1.00  0.00     0.265 C 
ATOM     13  C   UNL     1     -14.512  12.459 -38.498  1.00  0.00     0.265 C 
ATOM     14  H   UNL     1     -19.788  10.568 -38.836  1.00  0.00     0.165 HD
ATOM     15  H   UNL     1     -14.970  12.115 -40.426  1.00  0.00     0.348 HD
BRANCH   9  16
ATOM     16  C   UNL     1     -17.639  12.812 -35.634  1.00  0.00     0.039 A 
ATOM     17  C   UNL     1     -18.384  13.962 -35.517  1.00  0.00     0.026 A 
ATOM     18  C   UNL     1     -16.880  12.402 -34.581  1.00  0.00     0.026 A 
ATOM     19  C   UNL     1     -18.379  14.720 -34.342  1.00  0.00     0.002 A 
ATOM     20  C   UNL     1     -16.861  13.130 -33.423  1.00  0.00     0.002 A 
ATOM     21  C   UNL     1     -17.599  14.278 -33.295  1.00  0.00     0.000 A 
ENDBRANCH   9  16
ENDBRANCH   2   3
ENDBRANCH   1   2
BRANCH   1  22
ATOM     22  C   UNL     1     -12.803  16.012 -40.230  1.00  0.00     0.019 C 
BRANCH  22  23
ATOM     23  C   UNL     1     -12.005  16.494 -41.348  1.00  0.00     0.049 C 
BRANCH  23  24
ATOM     24  C   UNL     1     -12.467  17.786 -41.970  1.00  0.00    -0.040 A 
ATOM     25  C   UNL     1     -12.049  18.035 -43.258  1.00  0.00     0.007 A 
ATOM     26  C   UNL     1     -13.241  18.694 -41.297  1.00  0.00     0.007 A 
ATOM     27  C   UNL     1     -12.408  19.202 -43.885  1.00  0.00     0.039 A 
ATOM     28  C   UNL     1     -13.597  19.856 -41.927  1.00  0.00     0.039 A 
ATOM     29  C   UNL     1     -13.187  20.132 -43.236  1.00  0.00     0.123 A 
ATOM     30  F   UNL     1     -13.535  21.283 -43.867  1.00  0.00    -0.207 F 
ENDBRANCH  23  24
BRANCH  23  31
ATOM     31  C   UNL     1     -10.553  16.436 -41.306  1.00  0.00    -0.040 A 
ATOM     32  C   UNL     1      -9.740  16.969 -40.345  1.00  0.00     0.007 A 
ATOM     33  C   UNL     1      -9.948  15.773 -42.382  1.00  0.00     0.007 A 
ATOM     34  C   UNL     1      -8.353  16.831 -40.479  1.00  0.00     0.039 A 
ATOM     35  C   UNL     1      -8.605  15.632 -42.522  1.00  0.00     0.039 A 
ATOM     36  C   UNL     1      -7.799  16.175 -41.548  1.00  0.00     0.123 A 
ATOM     37  F   UNL     1      -6.455  16.026 -41.701  1.00  0.00    -0.207 F 
ENDBRANCH  23  31
ENDBRANCH  22  23
ENDBRANCH   1  22
TORSDOF 7
ENDMDL
MODEL 7
REMARK VINA RESULT:      -8.4      0.439      3.808
REMARK SMILES O=C1NCN(c2ccccc2)C12CC[NH+](CCCC(c1ccc(F)cc1)c1ccc(F)cc1)CC2
REMARK SMILES IDX 17 1 16 2 15 3 1 4 2 5 3 6 12 7 4 8 5 9 13 10 35 11 14 12
REMARK SMILES IDX 34 13 6 16 7 17 11 18 8 19 10 20 9 21 18 22 19 23 20 24
REMARK SMILES IDX 21 25 26 26 22 27 25 28 23 29 24 30 27 31 28 32 33 33 29 34
REMARK SMILES IDX 32 35 30 36 31 37
REMARK H PARENT 3 14 15 15
ROOT
ATOM      1  C   UNL     1     -13.807  14.619 -40.429  1.00  0.00     0.062 C 
ENDROOT
BRANCH   1   2
ATOM      2  C   UNL     1     -13.600  13.139 -40.301  1.00  0.00     0.262 C 
BRANCH   2   3
ATOM      3  N   UNL     1     -14.752  12.524 -39.651  1.00  0.00    -0.335 N 
ATOM      4  O   UNL     1     -17.510  10.887 -40.025  1.00  0.00    -0.272 OA
ATOM      5  C   UNL     1     -17.782  11.166 -38.839  1.00  0.00     0.247 C 
ATOM      6  N   UNL     1     -18.961  10.773 -38.182  1.00  0.00    -0.336 N 
ATOM      7  C   UNL     1     -16.906  11.968 -37.904  1.00  0.00     0.131 C 
ATOM      8  C   UNL     1     -18.690  10.869 -36.782  1.00  0.00     0.238 C 
ATOM      9  N   UNL     1     -17.710  11.962 -36.684  1.00  0.00    -0.339 N 
ATOM     10  C   UNL     1     -16.737  13.362 -38.473  1.00  0.00     0.100 C 
ATOM     11  C   UNL     1     -15.607  11.255 -37.778  1.00  0.00     0.100 C 
ATOM     12  C   UNL     1     -15.943  13.340 -39.758  1.00  0.00     0.265 C 
ATOM     13  C   UNL     1     -14.497  12.109 -38.297  1.00  0.00     0.265 C 
ATOM     14  H   UNL     1     -19.855  10.469 -38.654  1.00  0.00     0.165 HD
ATOM     15  H   UNL     1     -14.926  11.661 -40.210  1.00  0.00     0.348 HD
BRANCH   9  16
ATOM     16  C   UNL     1     -17.669  12.810 -35.548  1.00  0.00     0.039 A 
ATOM     17  C   UNL     1     -18.426  13.955 -35.490  1.00  0.00     0.026 A 
ATOM     18  C   UNL     1     -16.884  12.478 -34.487  1.00  0.00     0.026 A 
ATOM     19  C   UNL     1     -18.409  14.788 -34.366  1.00  0.00     0.002 A 
ATOM     20  C   UNL     1     -16.852  13.278 -33.378  1.00  0.00     0.002 A 
ATOM     21  C   UNL     1     -17.604  14.423 -33.309  1.00  0.00     0.000 A 
ENDBRANCH   9  16
ENDBRANCH   2   3
ENDBRANCH   1   2
BRANCH   1  22
ATOM     22  C   UNL     1     -13.117  15.298 -41.532  1.00  0.00     0.019 C 
BRANCH  22  23
ATOM     23  C   UNL     1     -12.274  16.468 -41.335  1.00  0.00     0.049 C 
BRANCH  23  24
ATOM     24  C   UNL     1     -10.802  16.191 -41.175  1.00  0.00    -0.040 A 
ATOM     25  C   UNL     1     -10.319  15.052 -41.780  1.00  0.00     0.007 A 
ATOM     26  C   UNL     1      -9.973  17.003 -40.449  1.00  0.00     0.007 A 
ATOM     27  C   UNL     1      -8.994  14.717 -41.661  1.00  0.00     0.039 A 
ATOM     28  C   UNL     1      -8.651  16.666 -40.333  1.00  0.00     0.039 A 
ATOM     29  C   UNL     1      -8.135  15.514 -40.938  1.00  0.00     0.123 A 
ATOM     30  F   UNL     1      -6.827  15.172 -40.827  1.00  0.00    -0.207 F 
ENDBRANCH  23  24
BRANCH  23  31
ATOM     31  C   UNL     1     -12.487  17.679 -42.112  1.00  0.00    -0.040 A 
ATOM     32  C   UNL     1     -11.991  17.950 -43.356  1.00  0.00     0.007 A 
ATOM     33  C   UNL     1     -13.272  18.659 -41.491  1.00  0.00     0.007 A 
ATOM     34  C   UNL     1     -12.285  19.184 -43.948  1.00  0.00     0.039 A 
ATOM     35  C   UNL     1     -13.565  19.859 -42.055  1.00  0.00     0.039 A 
ATOM     36  C   UNL     1     -13.058  20.119 -43.307  1.00  0.00     0.123 A 
ATOM     37  F   UNL     1     -13.360  21.325 -43.860  1.00  0.00    -0.207 F 
ENDBRANCH  23  31
ENDBRANCH  22  23
ENDBRANCH   1  22
TORSDOF 7
ENDMDL
MODEL 8
REMARK VINA RESULT:      -8.4      3.716      6.321
REMARK SMILES O=C1NCN(c2ccccc2)C12CC[NH+](CCCC(c1ccc(F)cc1)c1ccc(F)cc1)CC2
REMARK SMILES IDX 17 1 16 2 15 3 1 4 2 5 3 6 12 7 4 8 5 9 13 10 35 11 14 12
REMARK SMILES IDX 34 13 6 16 7 17 11 18 8 19 10 20 9 21 18 22 19 23 20 24
REMARK SMILES IDX 21 25 26 26 22 27 25 28 23 29 24 30 27 31 28 32 33 33 29 34
REMARK SMILES IDX 32 35 30 36 31 37
REMARK H PARENT 3 14 15 15
ROOT
ATOM      1  C   UNL     1     -11.374  15.938 -44.804  1.00  0.00     0.062 C 
ENDROOT
BRANCH   1   2
ATOM      2  C   UNL     1     -12.434  15.283 -45.641  1.00  0.00     0.262 C 
BRANCH   2   3
ATOM      3  N   UNL     1     -12.775  13.978 -45.088  1.00  0.00    -0.335 N 
ATOM      4  O   UNL     1     -14.472  11.253 -45.442  1.00  0.00    -0.272 OA
ATOM      5  C   UNL     1     -14.213  10.992 -44.249  1.00  0.00     0.247 C 
ATOM      6  N   UNL     1     -14.659   9.842 -43.574  1.00  0.00    -0.336 N 
ATOM      7  C   UNL     1     -13.385  11.853 -43.323  1.00  0.00     0.131 C 
ATOM      8  C   UNL     1     -13.800   9.685 -42.443  1.00  0.00     0.238 C 
ATOM      9  N   UNL     1     -13.414  11.061 -42.096  1.00  0.00    -0.339 N 
ATOM     10  C   UNL     1     -14.075  13.192 -43.158  1.00  0.00     0.100 C 
ATOM     11  C   UNL     1     -12.032  11.992 -43.924  1.00  0.00     0.100 C 
ATOM     12  C   UNL     1     -14.076  13.974 -44.451  1.00  0.00     0.265 C 
ATOM     13  C   UNL     1     -11.752  13.424 -44.240  1.00  0.00     0.265 C 
ATOM     14  H   UNL     1     -15.470   9.233 -43.868  1.00  0.00     0.165 HD
ATOM     15  H   UNL     1     -12.848  13.360 -45.925  1.00  0.00     0.348 HD
BRANCH   9  16
ATOM     16  C   UNL     1     -13.156  11.433 -40.752  1.00  0.00     0.039 A 
ATOM     17  C   UNL     1     -14.180  11.787 -39.905  1.00  0.00     0.026 A 
ATOM     18  C   UNL     1     -11.879  11.420 -40.281  1.00  0.00     0.026 A 
ATOM     19  C   UNL     1     -13.939  12.136 -38.572  1.00  0.00     0.002 A 
ATOM     20  C   UNL     1     -11.622  11.758 -38.981  1.00  0.00     0.002 A 
ATOM     21  C   UNL     1     -12.635  12.113 -38.128  1.00  0.00     0.000 A 
ENDBRANCH   9  16
ENDBRANCH   2   3
ENDBRANCH   1   2
BRANCH   1  22
ATOM     22  C   UNL     1     -11.687  17.257 -44.242  1.00  0.00     0.019 C 
BRANCH  22  23
ATOM     23  C   UNL     1     -12.554  17.438 -43.086  1.00  0.00     0.049 C 
BRANCH  23  24
ATOM     24  C   UNL     1     -12.130  16.716 -41.834  1.00  0.00    -0.040 A 
ATOM     25  C   UNL     1     -10.827  16.899 -41.428  1.00  0.00     0.007 A 
ATOM     26  C   UNL     1     -12.972  15.895 -41.133  1.00  0.00     0.007 A 
ATOM     27  C   UNL     1     -10.356  16.257 -40.311  1.00  0.00     0.039 A 
ATOM     28  C   UNL     1     -12.500  15.257 -40.019  1.00  0.00     0.039 A 
ATOM     29  C   UNL     1     -11.180  15.427 -39.585  1.00  0.00     0.123 A 
ATOM     30  F   UNL     1     -10.703  14.797 -38.481  1.00  0.00    -0.207 F 
ENDBRANCH  23  24
BRANCH  23  31
ATOM     31  C   UNL     1     -13.103  18.745 -42.765  1.00  0.00    -0.040 A 
ATOM     32  C   UNL     1     -13.833  19.075 -41.657  1.00  0.00     0.007 A 
ATOM     33  C   UNL     1     -12.858  19.748 -43.711  1.00  0.00     0.007 A 
ATOM     34  C   UNL     1     -14.300  20.389 -41.522  1.00  0.00     0.039 A 
ATOM     35  C   UNL     1     -13.304  21.024 -43.591  1.00  0.00     0.039 A 
ATOM     36  C   UNL     1     -14.039  21.343 -42.472  1.00  0.00     0.123 A 
ATOM     37  F   UNL     1     -14.479  22.626 -42.364  1.00  0.00    -0.207 F 
ENDBRANCH  23  31
ENDBRANCH  22  23
ENDBRANCH   1  22
TORSDOF 7
ENDMDL
MODEL 9
REMARK VINA RESULT:      -8.4      3.893      6.120
REMARK SMILES O=C1NCN(c2ccccc2)C12CC[NH+](CCCC(c1ccc(F)cc1)c1ccc(F)cc1)CC2
REMARK SMILES IDX 17 1 16 2 15 3 1 4 2 5 3 6 12 7 4 8 5 9 13 10 35 11 14 12
REMARK SMILES IDX 34 13 6 16 7 17 11 18 8 19 10 20 9 21 18 22 19 23 20 24
REMARK SMILES IDX 21 25 26 26 22 27 25 28 23 29 24 30 27 31 28 32 33 33 29 34
REMARK SMILES IDX 32 35 30 36 31 37
REMARK H PARENT 3 14 15 15
ROOT
ATOM      1  C   UNL     1      -9.911  16.522 -42.003  1.00  0.00     0.062 C 
ENDROOT
BRANCH   1   2
ATOM      2  C   UNL     1      -8.909  15.508 -41.536  1.00  0.00     0.262 C 
BRANCH   2   3
ATOM      3  N   UNL     1      -9.558  14.515 -40.687  1.00  0.00    -0.335 N 
ATOM      4  O   UNL     1      -9.234  11.792 -38.981  1.00  0.00    -0.272 OA
ATOM      5  C   UNL     1     -10.480  11.732 -38.929  1.00  0.00     0.247 C 
ATOM      6  N   UNL     1     -11.198  10.707 -38.288  1.00  0.00    -0.336 N 
ATOM      7  C   UNL     1     -11.432  12.737 -39.535  1.00  0.00     0.131 C 
ATOM      8  C   UNL     1     -12.507  11.226 -38.049  1.00  0.00     0.238 C 
ATOM      9  N   UNL     1     -12.724  12.170 -39.156  1.00  0.00    -0.339 N 
ATOM     10  C   UNL     1     -11.230  12.751 -41.037  1.00  0.00     0.100 C 
ATOM     11  C   UNL     1     -11.146  14.060 -38.920  1.00  0.00     0.100 C 
ATOM     12  C   UNL     1      -9.870  13.297 -41.405  1.00  0.00     0.265 C 
ATOM     13  C   UNL     1     -10.692  15.027 -39.964  1.00  0.00     0.265 C 
ATOM     14  H   UNL     1     -10.819   9.752 -38.044  1.00  0.00     0.165 HD
ATOM     15  H   UNL     1      -8.829  14.271 -39.982  1.00  0.00     0.348 HD
BRANCH   9  16
ATOM     16  C   UNL     1     -14.019  12.389 -39.690  1.00  0.00     0.039 A 
ATOM     17  C   UNL     1     -14.683  13.574 -39.475  1.00  0.00     0.026 A 
ATOM     18  C   UNL     1     -14.611  11.423 -40.444  1.00  0.00     0.026 A 
ATOM     19  C   UNL     1     -15.952  13.809 -40.014  1.00  0.00     0.002 A 
ATOM     20  C   UNL     1     -15.852  11.633 -40.980  1.00  0.00     0.002 A 
ATOM     21  C   UNL     1     -16.523  12.810 -40.773  1.00  0.00     0.000 A 
ENDBRANCH   9  16
ENDBRANCH   2   3
ENDBRANCH   1   2
BRANCH   1  22
ATOM     22  C   UNL     1     -10.325  16.455 -43.410  1.00  0.00     0.019 C 
BRANCH  22  23
ATOM     23  C   UNL     1     -11.663  16.816 -43.857  1.00  0.00     0.049 C 
BRANCH  23  24
ATOM     24  C   UNL     1     -12.609  15.665 -44.076  1.00  0.00    -0.040 A 
ATOM     25  C   UNL     1     -12.946  15.382 -45.381  1.00  0.00     0.007 A 
ATOM     26  C   UNL     1     -13.140  14.939 -43.043  1.00  0.00     0.007 A 
ATOM     27  C   UNL     1     -13.821  14.364 -45.662  1.00  0.00     0.039 A 
ATOM     28  C   UNL     1     -14.013  13.923 -43.328  1.00  0.00     0.039 A 
ATOM     29  C   UNL     1     -14.371  13.615 -44.645  1.00  0.00     0.123 A 
ATOM     30  F   UNL     1     -15.236  12.611 -44.935  1.00  0.00    -0.207 F 
ENDBRANCH  23  24
BRANCH  23  31
ATOM     31  C   UNL     1     -12.361  17.951 -43.277  1.00  0.00    -0.040 A 
ATOM     32  C   UNL     1     -13.002  17.987 -42.070  1.00  0.00     0.007 A 
ATOM     33  C   UNL     1     -12.378  19.111 -44.063  1.00  0.00     0.007 A 
ATOM     34  C   UNL     1     -13.642  19.169 -41.679  1.00  0.00     0.039 A 
ATOM     35  C   UNL     1     -12.993  20.263 -43.694  1.00  0.00     0.039 A 
ATOM     36  C   UNL     1     -13.636  20.285 -42.478  1.00  0.00     0.123 A 
ATOM     37  F   UNL     1     -14.248  21.446 -42.121  1.00  0.00    -0.207 F 
ENDBRANCH  23  31
ENDBRANCH  22  23
ENDBRANCH   1  22
TORSDOF 7
ENDMDL
