MODEL 1
REMARK VINA RESULT:      -7.3      0.000      0.000
REMARK SMILES O=c1c([O-])c(-c2ccccc2)oc2cc([O-])cc([O-])c12
REMARK SMILES IDX 1 1 2 2 3 3 4 4 5 5 12 6 13 7 14 8 15 9 16 10 17 11 18 12
REMARK SMILES IDX 19 13 20 14 6 15 7 16 11 17 8 18 10 19 9 20
REMARK H PARENT
ROOT
ATOM      1  O   UNL     1     135.065 179.379 117.352  1.00  0.00    -0.290 OA
ATOM      2  C   UNL     1     134.013 179.530 118.008  1.00  0.00     0.184 A 
ATOM      3  C   UNL     1     134.157 179.984 119.335  1.00  0.00    -0.014 A 
ATOM      4  O   UNL     1     135.407 180.233 119.833  1.00  0.00    -0.867 OA
ATOM      5  C   UNL     1     133.026 180.158 120.077  1.00  0.00     0.130 A 
ATOM      6  O   UNL     1     131.831 179.889 119.513  1.00  0.00    -0.457 OA
ATOM      7  C   UNL     1     131.691 179.476 118.309  1.00  0.00     0.137 A 
ATOM      8  C   UNL     1     130.449 179.222 117.794  1.00  0.00     0.039 A 
ATOM      9  C   UNL     1     130.262 178.777 116.503  1.00  0.00    -0.106 A 
ATOM     10  O   UNL     1     128.982 178.526 116.007  1.00  0.00    -0.872 OA
ATOM     11  C   UNL     1     131.382 178.580 115.693  1.00  0.00    -0.016 A 
ATOM     12  C   UNL     1     132.641 178.825 116.178  1.00  0.00    -0.094 A 
ATOM     13  O   UNL     1     133.741 178.627 115.371  1.00  0.00    -0.872 OA
ATOM     14  C   UNL     1     132.773 179.268 117.470  1.00  0.00     0.056 A 
ENDROOT
BRANCH   5  15
ATOM     15  C   UNL     1     133.046 180.620 121.453  1.00  0.00     0.017 A 
ATOM     16  C   UNL     1     133.179 179.873 122.580  1.00  0.00     0.012 A 
ATOM     17  C   UNL     1     132.916 182.001 121.679  1.00  0.00     0.012 A 
ATOM     18  C   UNL     1     133.187 180.413 123.858  1.00  0.00     0.001 A 
ATOM     19  C   UNL     1     132.921 182.553 122.939  1.00  0.00     0.001 A 
ATOM     20  C   UNL     1     133.058 181.760 124.055  1.00  0.00     0.000 A 
ENDBRANCH   5  15
TORSDOF 1
ENDMDL
MODEL 2
REMARK VINA RESULT:      -7.0      0.141      1.048
REMARK SMILES O=c1c([O-])c(-c2ccccc2)oc2cc([O-])cc([O-])c12
REMARK SMILES IDX 1 1 2 2 3 3 4 4 5 5 12 6 13 7 14 8 15 9 16 10 17 11 18 12
REMARK SMILES IDX 19 13 20 14 6 15 7 16 11 17 8 18 10 19 9 20
REMARK H PARENT
ROOT
ATOM      1  O   UNL     1     134.988 179.365 117.313  1.00  0.00    -0.290 OA
ATOM      2  C   UNL     1     133.941 179.542 117.970  1.00  0.00     0.184 A 
ATOM      3  C   UNL     1     134.097 180.046 119.278  1.00  0.00    -0.014 A 
ATOM      4  O   UNL     1     135.351 180.313 119.755  1.00  0.00    -0.867 OA
ATOM      5  C   UNL     1     132.972 180.251 120.022  1.00  0.00     0.130 A 
ATOM      6  O   UNL     1     131.772 179.961 119.478  1.00  0.00    -0.457 OA
ATOM      7  C   UNL     1     131.622 179.503 118.292  1.00  0.00     0.137 A 
ATOM      8  C   UNL     1     130.376 179.231 117.797  1.00  0.00     0.039 A 
ATOM      9  C   UNL     1     130.178 178.736 116.526  1.00  0.00    -0.106 A 
ATOM     10  O   UNL     1     128.894 178.468 116.050  1.00  0.00    -0.872 OA
ATOM     11  C   UNL     1     131.291 178.507 115.714  1.00  0.00    -0.016 A 
ATOM     12  C   UNL     1     132.554 178.769 116.179  1.00  0.00    -0.094 A 
ATOM     13  O   UNL     1     133.647 178.539 115.372  1.00  0.00    -0.872 OA
ATOM     14  C   UNL     1     132.697 179.261 117.453  1.00  0.00     0.056 A 
ENDROOT
BRANCH   5  15
ATOM     15  C   UNL     1     133.003 180.765 121.379  1.00  0.00     0.017 A 
ATOM     16  C   UNL     1     132.980 182.063 121.778  1.00  0.00     0.012 A 
ATOM     17  C   UNL     1     133.064 179.831 122.427  1.00  0.00     0.012 A 
ATOM     18  C   UNL     1     133.012 182.453 123.109  1.00  0.00     0.001 A 
ATOM     19  C   UNL     1     133.098 180.201 123.752  1.00  0.00     0.001 A 
ATOM     20  C   UNL     1     133.072 181.528 124.114  1.00  0.00     0.000 A 
ENDBRANCH   5  15
TORSDOF 1
ENDMDL
MODEL 3
REMARK VINA RESULT:      -6.9      1.796      5.777
REMARK SMILES O=c1c([O-])c(-c2ccccc2)oc2cc([O-])cc([O-])c12
REMARK SMILES IDX 1 1 2 2 3 3 4 4 5 5 12 6 13 7 14 8 15 9 16 10 17 11 18 12
REMARK SMILES IDX 19 13 20 14 6 15 7 16 11 17 8 18 10 19 9 20
REMARK H PARENT
ROOT
ATOM      1  O   UNL     1     134.374 178.956 116.307  1.00  0.00    -0.290 OA
ATOM      2  C   UNL     1     133.408 179.143 117.076  1.00  0.00     0.184 A 
ATOM      3  C   UNL     1     132.121 179.038 116.508  1.00  0.00    -0.014 A 
ATOM      4  O   UNL     1     131.991 178.745 115.178  1.00  0.00    -0.867 OA
ATOM      5  C   UNL     1     131.045 179.237 117.322  1.00  0.00     0.130 A 
ATOM      6  O   UNL     1     131.259 179.523 118.623  1.00  0.00    -0.457 OA
ATOM      7  C   UNL     1     132.423 179.621 119.147  1.00  0.00     0.137 A 
ATOM      8  C   UNL     1     132.574 179.913 120.475  1.00  0.00     0.039 A 
ATOM      9  C   UNL     1     133.812 180.025 121.071  1.00  0.00    -0.106 A 
ATOM     10  O   UNL     1     133.931 180.325 122.428  1.00  0.00    -0.872 OA
ATOM     11  C   UNL     1     134.952 179.832 120.289  1.00  0.00    -0.016 A 
ATOM     12  C   UNL     1     134.837 179.538 118.955  1.00  0.00    -0.094 A 
ATOM     13  O   UNL     1     135.969 179.349 118.191  1.00  0.00    -0.872 OA
ATOM     14  C   UNL     1     133.582 179.436 118.409  1.00  0.00     0.056 A 
ENDROOT
BRANCH   5  15
ATOM     15  C   UNL     1     129.674 179.157 116.854  1.00  0.00     0.017 A 
ATOM     16  C   UNL     1     128.777 178.159 117.070  1.00  0.00     0.012 A 
ATOM     17  C   UNL     1     129.185 180.225 116.085  1.00  0.00     0.012 A 
ATOM     18  C   UNL     1     127.481 178.177 116.578  1.00  0.00     0.001 A 
ATOM     19  C   UNL     1     127.902 180.260 115.588  1.00  0.00     0.001 A 
ATOM     20  C   UNL     1     127.025 179.228 115.830  1.00  0.00     0.000 A 
ENDBRANCH   5  15
TORSDOF 1
ENDMDL
MODEL 4
REMARK VINA RESULT:      -6.9      1.797      5.866
REMARK SMILES O=c1c([O-])c(-c2ccccc2)oc2cc([O-])cc([O-])c12
REMARK SMILES IDX 1 1 2 2 3 3 4 4 5 5 12 6 13 7 14 8 15 9 16 10 17 11 18 12
REMARK SMILES IDX 19 13 20 14 6 15 7 16 11 17 8 18 10 19 9 20
REMARK H PARENT
ROOT
ATOM      1  O   UNL     1     134.405 178.960 116.370  1.00  0.00    -0.290 OA
ATOM      2  C   UNL     1     133.423 179.154 117.116  1.00  0.00     0.184 A 
ATOM      3  C   UNL     1     132.150 179.097 116.511  1.00  0.00    -0.014 A 
ATOM      4  O   UNL     1     132.050 178.838 115.172  1.00  0.00    -0.867 OA
ATOM      5  C   UNL     1     131.058 179.306 117.300  1.00  0.00     0.130 A 
ATOM      6  O   UNL     1     131.243 179.556 118.613  1.00  0.00    -0.457 OA
ATOM      7  C   UNL     1     132.394 179.610 119.171  1.00  0.00     0.137 A 
ATOM      8  C   UNL     1     132.515 179.868 120.509  1.00  0.00     0.039 A 
ATOM      9  C   UNL     1     133.738 179.933 121.141  1.00  0.00    -0.106 A 
ATOM     10  O   UNL     1     133.827 180.198 122.508  1.00  0.00    -0.872 OA
ATOM     11  C   UNL     1     134.894 179.727 120.386  1.00  0.00    -0.016 A 
ATOM     12  C   UNL     1     134.809 179.467 119.043  1.00  0.00    -0.094 A 
ATOM     13  O   UNL     1     135.956 179.266 118.306  1.00  0.00    -0.872 OA
ATOM     14  C   UNL     1     133.567 179.412 118.461  1.00  0.00     0.056 A 
ENDROOT
BRANCH   5  15
ATOM     15  C   UNL     1     129.698 179.273 116.794  1.00  0.00     0.017 A 
ATOM     16  C   UNL     1     129.068 180.210 116.038  1.00  0.00     0.012 A 
ATOM     17  C   UNL     1     128.915 178.148 117.105  1.00  0.00     0.012 A 
ATOM     18  C   UNL     1     127.758 180.083 115.600  1.00  0.00     0.001 A 
ATOM     19  C   UNL     1     127.614 178.007 116.679  1.00  0.00     0.001 A 
ATOM     20  C   UNL     1     127.013 178.980 115.914  1.00  0.00     0.000 A 
ENDBRANCH   5  15
TORSDOF 1
ENDMDL
MODEL 5
REMARK VINA RESULT:      -6.6      1.960      6.107
REMARK SMILES O=c1c([O-])c(-c2ccccc2)oc2cc([O-])cc([O-])c12
REMARK SMILES IDX 1 1 2 2 3 3 4 4 5 5 12 6 13 7 14 8 15 9 16 10 17 11 18 12
REMARK SMILES IDX 19 13 20 14 6 15 7 16 11 17 8 18 10 19 9 20
REMARK H PARENT
ROOT
ATOM      1  O   UNL     1     135.505 178.138 121.379  1.00  0.00    -0.290 OA
ATOM      2  C   UNL     1     134.654 178.842 120.796  1.00  0.00     0.184 A 
ATOM      3  C   UNL     1     134.427 178.556 119.433  1.00  0.00    -0.014 A 
ATOM      4  O   UNL     1     135.127 177.549 118.828  1.00  0.00    -0.867 OA
ATOM      5  C   UNL     1     133.503 179.308 118.768  1.00  0.00     0.130 A 
ATOM      6  O   UNL     1     132.856 180.283 119.438  1.00  0.00    -0.457 OA
ATOM      7  C   UNL     1     133.056 180.550 120.674  1.00  0.00     0.137 A 
ATOM      8  C   UNL     1     132.366 181.553 121.297  1.00  0.00     0.039 A 
ATOM      9  C   UNL     1     132.557 181.867 122.625  1.00  0.00    -0.106 A 
ATOM     10  O   UNL     1     131.837 182.897 123.232  1.00  0.00    -0.872 OA
ATOM     11  C   UNL     1     133.489 181.132 123.361  1.00  0.00    -0.016 A 
ATOM     12  C   UNL     1     134.198 180.120 122.767  1.00  0.00    -0.094 A 
ATOM     13  O   UNL     1     135.117 179.401 123.501  1.00  0.00    -0.872 OA
ATOM     14  C   UNL     1     133.971 179.847 121.442  1.00  0.00     0.056 A 
ENDROOT
BRANCH   5  15
ATOM     15  C   UNL     1     133.182 179.109 117.367  1.00  0.00     0.017 A 
ATOM     16  C   UNL     1     132.002 178.698 116.833  1.00  0.00     0.012 A 
ATOM     17  C   UNL     1     134.193 179.366 116.425  1.00  0.00     0.012 A 
ATOM     18  C   UNL     1     131.795 178.540 115.470  1.00  0.00     0.001 A 
ATOM     19  C   UNL     1     134.004 179.213 115.071  1.00  0.00     0.001 A 
ATOM     20  C   UNL     1     132.793 178.795 114.571  1.00  0.00     0.000 A 
ENDBRANCH   5  15
TORSDOF 1
ENDMDL
MODEL 6
REMARK VINA RESULT:      -6.6      1.903      6.094
REMARK SMILES O=c1c([O-])c(-c2ccccc2)oc2cc([O-])cc([O-])c12
REMARK SMILES IDX 1 1 2 2 3 3 4 4 5 5 12 6 13 7 14 8 15 9 16 10 17 11 18 12
REMARK SMILES IDX 19 13 20 14 6 15 7 16 11 17 8 18 10 19 9 20
REMARK H PARENT
ROOT
ATOM      1  O   UNL     1     135.640 178.287 121.345  1.00  0.00    -0.290 OA
ATOM      2  C   UNL     1     134.724 178.937 120.801  1.00  0.00     0.184 A 
ATOM      3  C   UNL     1     134.483 178.667 119.438  1.00  0.00    -0.014 A 
ATOM      4  O   UNL     1     135.242 177.732 118.790  1.00  0.00    -0.867 OA
ATOM      5  C   UNL     1     133.488 179.362 118.815  1.00  0.00     0.130 A 
ATOM      6  O   UNL     1     132.786 180.268 119.525  1.00  0.00    -0.457 OA
ATOM      7  C   UNL     1     132.997 180.520 120.763  1.00  0.00     0.137 A 
ATOM      8  C   UNL     1     132.248 181.452 121.428  1.00  0.00     0.039 A 
ATOM      9  C   UNL     1     132.449 181.747 122.759  1.00  0.00    -0.106 A 
ATOM     10  O   UNL     1     131.669 182.703 123.409  1.00  0.00    -0.872 OA
ATOM     11  C   UNL     1     133.454 181.068 123.452  1.00  0.00    -0.016 A 
ATOM     12  C   UNL     1     134.222 180.129 122.816  1.00  0.00    -0.094 A 
ATOM     13  O   UNL     1     135.212 179.464 123.508  1.00  0.00    -0.872 OA
ATOM     14  C   UNL     1     133.982 179.871 121.489  1.00  0.00     0.056 A 
ENDROOT
BRANCH   5  15
ATOM     15  C   UNL     1     133.147 179.173 117.417  1.00  0.00     0.017 A 
ATOM     16  C   UNL     1     133.950 179.344 116.334  1.00  0.00     0.012 A 
ATOM     17  C   UNL     1     131.838 178.762 117.116  1.00  0.00     0.012 A 
ATOM     18  C   UNL     1     133.526 179.136 115.030  1.00  0.00     0.001 A 
ATOM     19  C   UNL     1     131.402 178.551 115.828  1.00  0.00     0.001 A 
ATOM     20  C   UNL     1     132.247 178.736 114.759  1.00  0.00     0.000 A 
ENDBRANCH   5  15
TORSDOF 1
ENDMDL
MODEL 7
REMARK VINA RESULT:      -6.3      2.613      6.355
REMARK SMILES O=c1c([O-])c(-c2ccccc2)oc2cc([O-])cc([O-])c12
REMARK SMILES IDX 1 1 2 2 3 3 4 4 5 5 12 6 13 7 14 8 15 9 16 10 17 11 18 12
REMARK SMILES IDX 19 13 20 14 6 15 7 16 11 17 8 18 10 19 9 20
REMARK H PARENT
ROOT
ATOM      1  O   UNL     1     134.189 180.397 123.755  1.00  0.00    -0.290 OA
ATOM      2  C   UNL     1     133.380 180.710 122.858  1.00  0.00     0.184 A 
ATOM      3  C   UNL     1     133.618 180.170 121.577  1.00  0.00    -0.014 A 
ATOM      4  O   UNL     1     134.695 179.349 121.379  1.00  0.00    -0.867 OA
ATOM      5  C   UNL     1     132.751 180.493 120.575  1.00  0.00     0.130 A 
ATOM      6  O   UNL     1     131.714 181.311 120.852  1.00  0.00    -0.457 OA
ATOM      7  C   UNL     1     131.490 181.806 122.011  1.00  0.00     0.137 A 
ATOM      8  C   UNL     1     130.419 182.628 122.228  1.00  0.00     0.039 A 
ATOM      9  C   UNL     1     130.148 183.179 123.463  1.00  0.00    -0.106 A 
ATOM     10  O   UNL     1     129.047 184.014 123.652  1.00  0.00    -0.872 OA
ATOM     11  C   UNL     1     131.000 182.884 124.529  1.00  0.00    -0.016 A 
ATOM     12  C   UNL     1     132.082 182.063 124.346  1.00  0.00    -0.094 A 
ATOM     13  O   UNL     1     132.918 181.778 125.405  1.00  0.00    -0.872 OA
ATOM     14  C   UNL     1     132.308 181.540 123.098  1.00  0.00     0.056 A 
ENDROOT
BRANCH   5  15
ATOM     15  C   UNL     1     132.892 180.001 119.217  1.00  0.00     0.017 A 
ATOM     16  C   UNL     1     134.006 180.008 118.440  1.00  0.00     0.012 A 
ATOM     17  C   UNL     1     131.757 179.441 118.607  1.00  0.00     0.012 A 
ATOM     18  C   UNL     1     134.038 179.509 117.146  1.00  0.00     0.001 A 
ATOM     19  C   UNL     1     131.771 178.942 117.325  1.00  0.00     0.001 A 
ATOM     20  C   UNL     1     132.921 178.969 116.571  1.00  0.00     0.000 A 
ENDBRANCH   5  15
TORSDOF 1
ENDMDL
MODEL 8
REMARK VINA RESULT:      -6.0      2.615      6.374
REMARK SMILES O=c1c([O-])c(-c2ccccc2)oc2cc([O-])cc([O-])c12
REMARK SMILES IDX 1 1 2 2 3 3 4 4 5 5 12 6 13 7 14 8 15 9 16 10 17 11 18 12
REMARK SMILES IDX 19 13 20 14 6 15 7 16 11 17 8 18 10 19 9 20
REMARK H PARENT
ROOT
ATOM      1  O   UNL     1     134.236 180.348 123.810  1.00  0.00    -0.290 OA
ATOM      2  C   UNL     1     133.420 180.673 122.923  1.00  0.00     0.184 A 
ATOM      3  C   UNL     1     133.627 180.119 121.642  1.00  0.00    -0.014 A 
ATOM      4  O   UNL     1     134.683 179.274 121.434  1.00  0.00    -0.867 OA
ATOM      5  C   UNL     1     132.752 180.456 120.652  1.00  0.00     0.130 A 
ATOM      6  O   UNL     1     131.738 181.297 120.939  1.00  0.00    -0.457 OA
ATOM      7  C   UNL     1     131.542 181.804 122.098  1.00  0.00     0.137 A 
ATOM      8  C   UNL     1     130.492 182.651 122.325  1.00  0.00     0.039 A 
ATOM      9  C   UNL     1     130.252 183.215 123.560  1.00  0.00    -0.106 A 
ATOM     10  O   UNL     1     129.172 184.075 123.760  1.00  0.00    -0.872 OA
ATOM     11  C   UNL     1     131.113 182.908 124.616  1.00  0.00    -0.016 A 
ATOM     12  C   UNL     1     132.175 182.063 124.422  1.00  0.00    -0.094 A 
ATOM     13  O   UNL     1     133.019 181.767 125.470  1.00  0.00    -0.872 OA
ATOM     14  C   UNL     1     132.370 181.528 123.174  1.00  0.00     0.056 A 
ENDROOT
BRANCH   5  15
ATOM     15  C   UNL     1     132.862 179.951 119.295  1.00  0.00     0.017 A 
ATOM     16  C   UNL     1     131.877 179.427 118.519  1.00  0.00     0.012 A 
ATOM     17  C   UNL     1     134.126 179.999 118.683  1.00  0.00     0.012 A 
ATOM     18  C   UNL     1     132.085 178.971 117.226  1.00  0.00     0.001 A 
ATOM     19  C   UNL     1     134.349 179.551 117.401  1.00  0.00     0.001 A 
ATOM     20  C   UNL     1     133.324 179.027 116.649  1.00  0.00     0.000 A 
ENDBRANCH   5  15
TORSDOF 1
ENDMDL
MODEL 9
REMARK VINA RESULT:      -6.0      1.470      2.187
REMARK SMILES O=c1c([O-])c(-c2ccccc2)oc2cc([O-])cc([O-])c12
REMARK SMILES IDX 1 1 2 2 3 3 4 4 5 5 12 6 13 7 14 8 15 9 16 10 17 11 18 12
REMARK SMILES IDX 19 13 20 14 6 15 7 16 11 17 8 18 10 19 9 20
REMARK H PARENT
ROOT
ATOM      1  O   UNL     1     135.712 179.474 120.249  1.00  0.00    -0.290 OA
ATOM      2  C   UNL     1     134.499 179.766 120.283  1.00  0.00     0.184 A 
ATOM      3  C   UNL     1     134.034 180.390 121.459  1.00  0.00    -0.014 A 
ATOM      4  O   UNL     1     134.907 180.641 122.482  1.00  0.00    -0.867 OA
ATOM      5  C   UNL     1     132.713 180.723 121.527  1.00  0.00     0.130 A 
ATOM      6  O   UNL     1     131.918 180.441 120.475  1.00  0.00    -0.457 OA
ATOM      7  C   UNL     1     132.331 179.875 119.403  1.00  0.00     0.137 A 
ATOM      8  C   UNL     1     131.473 179.616 118.369  1.00  0.00     0.039 A 
ATOM      9  C   UNL     1     131.884 179.008 117.203  1.00  0.00    -0.106 A 
ATOM     10  O   UNL     1     130.984 178.758 116.167  1.00  0.00    -0.872 OA
ATOM     11  C   UNL     1     133.226 178.644 117.073  1.00  0.00    -0.016 A 
ATOM     12  C   UNL     1     134.112 178.889 118.090  1.00  0.00    -0.094 A 
ATOM     13  O   UNL     1     135.435 178.526 117.953  1.00  0.00    -0.872 OA
ATOM     14  C   UNL     1     133.653 179.497 119.231  1.00  0.00     0.056 A 
ENDROOT
BRANCH   5  15
ATOM     15  C   UNL     1     132.118 181.367 122.683  1.00  0.00     0.017 A 
ATOM     16  C   UNL     1     132.485 181.246 123.985  1.00  0.00     0.012 A 
ATOM     17  C   UNL     1     131.029 182.227 122.460  1.00  0.00     0.012 A 
ATOM     18  C   UNL     1     131.849 181.910 125.023  1.00  0.00     0.001 A 
ATOM     19  C   UNL     1     130.386 182.893 123.478  1.00  0.00     0.001 A 
ATOM     20  C   UNL     1     130.790 182.742 124.784  1.00  0.00     0.000 A 
ENDBRANCH   5  15
TORSDOF 1
ENDMDL
