MODEL 1
REMARK VINA RESULT:      -7.6      0.000      0.000
REMARK SMILES O=C1NCN(c2ccccc2)C12CC[NH+](CCCC(c1ccc(F)cc1)c1ccc(F)cc1)CC2
REMARK SMILES IDX 17 1 16 2 15 3 1 4 2 5 3 6 12 7 4 8 5 9 13 10 35 11 14 12
REMARK SMILES IDX 34 13 6 16 7 17 11 18 8 19 10 20 9 21 18 22 19 23 20 24
REMARK SMILES IDX 21 25 26 26 22 27 25 28 23 29 24 30 27 31 28 32 33 33 29 34
REMARK SMILES IDX 32 35 30 36 31 37
REMARK H PARENT 3 14 15 15
ROOT
ATOM      1  C   UNL     1     112.032  95.703 115.799  1.00  0.00     0.062 C 
ENDROOT
BRANCH   1   2
ATOM      2  C   UNL     1     112.426  94.702 114.753  1.00  0.00     0.262 C 
BRANCH   2   3
ATOM      3  N   UNL     1     112.596  95.363 113.464  1.00  0.00    -0.335 N 
ATOM      4  O   UNL     1     113.152  95.016 110.301  1.00  0.00    -0.272 OA
ATOM      5  C   UNL     1     113.367  96.245 110.252  1.00  0.00     0.247 C 
ATOM      6  N   UNL     1     113.722  96.941 109.083  1.00  0.00    -0.336 N 
ATOM      7  C   UNL     1     113.289  97.196 111.424  1.00  0.00     0.131 C 
ATOM      8  C   UNL     1     113.424  98.317 109.332  1.00  0.00     0.238 C 
ATOM      9  N   UNL     1     113.620  98.466 110.782  1.00  0.00    -0.339 N 
ATOM     10  C   UNL     1     114.324  96.786 112.452  1.00  0.00     0.100 C 
ATOM     11  C   UNL     1     111.906  97.133 111.966  1.00  0.00     0.100 C 
ATOM     12  C   UNL     1     113.987  95.448 113.069  1.00  0.00     0.265 C 
ATOM     13  C   UNL     1     111.925  96.633 113.374  1.00  0.00     0.265 C 
ATOM     14  H   UNL     1     114.125  96.509 108.209  1.00  0.00     0.165 HD
ATOM     15  H   UNL     1     112.130  94.721 112.787  1.00  0.00     0.348 HD
BRANCH   9  16
ATOM     16  C   UNL     1     114.076  99.689 111.338  1.00  0.00     0.039 A 
ATOM     17  C   UNL     1     113.977  99.936 112.686  1.00  0.00     0.026 A 
ATOM     18  C   UNL     1     114.642 100.627 110.531  1.00  0.00     0.026 A 
ATOM     19  C   UNL     1     114.443 101.129 113.248  1.00  0.00     0.002 A 
ATOM     20  C   UNL     1     115.104 101.801 111.059  1.00  0.00     0.002 A 
ATOM     21  C   UNL     1     115.010 102.058 112.402  1.00  0.00     0.000 A 
ENDBRANCH   9  16
ENDBRANCH   2   3
ENDBRANCH   1   2
BRANCH   1  22
ATOM     22  C   UNL     1     113.118  96.398 116.501  1.00  0.00     0.019 C 
BRANCH  22  23
ATOM     23  C   UNL     1     113.122  97.838 116.718  1.00  0.00     0.049 C 
BRANCH  23  24
ATOM     24  C   UNL     1     112.023  98.367 117.603  1.00  0.00    -0.040 A 
ATOM     25  C   UNL     1     110.777  97.805 117.440  1.00  0.00     0.007 A 
ATOM     26  C   UNL     1     112.225  99.372 118.510  1.00  0.00     0.007 A 
ATOM     27  C   UNL     1     109.718  98.249 118.191  1.00  0.00     0.039 A 
ATOM     28  C   UNL     1     111.167  99.812 119.258  1.00  0.00     0.039 A 
ATOM     29  C   UNL     1     109.889  99.257 119.113  1.00  0.00     0.123 A 
ATOM     30  F   UNL     1     108.835  99.688 119.850  1.00  0.00    -0.207 F 
ENDBRANCH  23  24
BRANCH  23  31
ATOM     31  C   UNL     1     114.366  98.550 116.964  1.00  0.00    -0.040 A 
ATOM     32  C   UNL     1     115.554  98.006 117.366  1.00  0.00     0.007 A 
ATOM     33  C   UNL     1     114.309  99.937 116.777  1.00  0.00     0.007 A 
ATOM     34  C   UNL     1     116.649  98.853 117.573  1.00  0.00     0.039 A 
ATOM     35  C   UNL     1     115.365 100.768 116.974  1.00  0.00     0.039 A 
ATOM     36  C   UNL     1     116.554 100.208 117.380  1.00  0.00     0.123 A 
ATOM     37  F   UNL     1     117.603 101.052 117.573  1.00  0.00    -0.207 F 
ENDBRANCH  23  31
ENDBRANCH  22  23
ENDBRANCH   1  22
TORSDOF 7
ENDMDL
MODEL 2
REMARK VINA RESULT:      -7.1      2.156      4.769
REMARK SMILES O=C1NCN(c2ccccc2)C12CC[NH+](CCCC(c1ccc(F)cc1)c1ccc(F)cc1)CC2
REMARK SMILES IDX 17 1 16 2 15 3 1 4 2 5 3 6 12 7 4 8 5 9 13 10 35 11 14 12
REMARK SMILES IDX 34 13 6 16 7 17 11 18 8 19 10 20 9 21 18 22 19 23 20 24
REMARK SMILES IDX 21 25 26 26 22 27 25 28 23 29 24 30 27 31 28 32 33 33 29 34
REMARK SMILES IDX 32 35 30 36 31 37
REMARK H PARENT 3 14 15 15
ROOT
ATOM      1  C   UNL     1     112.207  96.071 115.704  1.00  0.00     0.062 C 
ENDROOT
BRANCH   1   2
ATOM      2  C   UNL     1     112.664  95.305 114.498  1.00  0.00     0.262 C 
BRANCH   2   3
ATOM      3  N   UNL     1     113.086  96.225 113.448  1.00  0.00    -0.335 N 
ATOM      4  O   UNL     1     112.175  98.300 111.147  1.00  0.00    -0.272 OA
ATOM      5  C   UNL     1     113.346  98.260 110.713  1.00  0.00     0.247 C 
ATOM      6  N   UNL     1     113.799  98.972 109.589  1.00  0.00    -0.336 N 
ATOM      7  C   UNL     1     114.474  97.450 111.309  1.00  0.00     0.131 C 
ATOM      8  C   UNL     1     115.222  99.034 109.704  1.00  0.00     0.238 C 
ATOM      9  N   UNL     1     115.576  97.797 110.416  1.00  0.00    -0.339 N 
ATOM     10  C   UNL     1     114.111  95.981 111.229  1.00  0.00     0.100 C 
ATOM     11  C   UNL     1     114.665  97.904 112.713  1.00  0.00     0.100 C 
ATOM     12  C   UNL     1     112.939  95.654 112.125  1.00  0.00     0.265 C 
ATOM     13  C   UNL     1     114.397  96.780 113.659  1.00  0.00     0.265 C 
ATOM     14  H   UNL     1     113.187  99.372 108.827  1.00  0.00     0.165 HD
ATOM     15  H   UNL     1     112.405  97.012 113.513  1.00  0.00     0.348 HD
BRANCH   9  16
ATOM     16  C   UNL     1     116.808  97.137 110.171  1.00  0.00     0.039 A 
ATOM     17  C   UNL     1     116.869  96.024 109.368  1.00  0.00     0.026 A 
ATOM     18  C   UNL     1     117.954  97.623 110.721  1.00  0.00     0.026 A 
ATOM     19  C   UNL     1     118.080  95.377 109.103  1.00  0.00     0.002 A 
ATOM     20  C   UNL     1     119.150  97.006 110.475  1.00  0.00     0.002 A 
ATOM     21  C   UNL     1     119.222  95.895 109.675  1.00  0.00     0.000 A 
ENDBRANCH   9  16
ENDBRANCH   2   3
ENDBRANCH   1   2
BRANCH   1  22
ATOM     22  C   UNL     1     112.746  97.424 115.880  1.00  0.00     0.019 C 
BRANCH  22  23
ATOM     23  C   UNL     1     112.992  98.012 117.189  1.00  0.00     0.049 C 
BRANCH  23  24
ATOM     24  C   UNL     1     114.214  98.887 117.292  1.00  0.00    -0.040 A 
ATOM     25  C   UNL     1     115.422  98.243 117.445  1.00  0.00     0.007 A 
ATOM     26  C   UNL     1     114.148 100.254 117.262  1.00  0.00     0.007 A 
ATOM     27  C   UNL     1     116.579  98.970 117.570  1.00  0.00     0.039 A 
ATOM     28  C   UNL     1     115.305 100.975 117.386  1.00  0.00     0.039 A 
ATOM     29  C   UNL     1     116.545 100.345 117.543  1.00  0.00     0.123 A 
ATOM     30  F   UNL     1     117.696 101.054 117.667  1.00  0.00    -0.207 F 
ENDBRANCH  23  24
BRANCH  23  31
ATOM     31  C   UNL     1     111.899  98.564 117.974  1.00  0.00    -0.040 A 
ATOM     32  C   UNL     1     111.919  99.718 118.706  1.00  0.00     0.007 A 
ATOM     33  C   UNL     1     110.721  97.805 117.978  1.00  0.00     0.007 A 
ATOM     34  C   UNL     1     110.773 100.086 119.421  1.00  0.00     0.039 A 
ATOM     35  C   UNL     1     109.603  98.153 118.666  1.00  0.00     0.039 A 
ATOM     36  C   UNL     1     109.637  99.316 119.399  1.00  0.00     0.123 A 
ATOM     37  F   UNL     1     108.510  99.652 120.083  1.00  0.00    -0.207 F 
ENDBRANCH  23  31
ENDBRANCH  22  23
ENDBRANCH   1  22
TORSDOF 7
ENDMDL
MODEL 3
REMARK VINA RESULT:      -7.0      2.578      4.580
REMARK SMILES O=C1NCN(c2ccccc2)C12CC[NH+](CCCC(c1ccc(F)cc1)c1ccc(F)cc1)CC2
REMARK SMILES IDX 17 1 16 2 15 3 1 4 2 5 3 6 12 7 4 8 5 9 13 10 35 11 14 12
REMARK SMILES IDX 34 13 6 16 7 17 11 18 8 19 10 20 9 21 18 22 19 23 20 24
REMARK SMILES IDX 21 25 26 26 22 27 25 28 23 29 24 30 27 31 28 32 33 33 29 34
REMARK SMILES IDX 32 35 30 36 31 37
REMARK H PARENT 3 14 15 15
ROOT
ATOM      1  C   UNL     1     114.518  99.861 116.238  1.00  0.00     0.062 C 
ENDROOT
BRANCH   1   2
ATOM      2  C   UNL     1     115.605  99.462 115.284  1.00  0.00     0.262 C 
BRANCH   2   3
ATOM      3  N   UNL     1     115.242  99.839 113.922  1.00  0.00    -0.335 N 
ATOM      4  O   UNL     1     114.655 102.245 111.849  1.00  0.00    -0.272 OA
ATOM      5  C   UNL     1     114.168 101.396 111.074  1.00  0.00     0.247 C 
ATOM      6  N   UNL     1     113.622 101.694 109.814  1.00  0.00    -0.336 N 
ATOM      7  C   UNL     1     114.077  99.912 111.345  1.00  0.00     0.131 C 
ATOM      8  C   UNL     1     113.614 100.467 109.082  1.00  0.00     0.238 C 
ATOM      9  N   UNL     1     113.445  99.436 110.117  1.00  0.00    -0.339 N 
ATOM     10  C   UNL     1     113.201  99.694 112.563  1.00  0.00     0.100 C 
ATOM     11  C   UNL     1     115.459  99.404 111.553  1.00  0.00     0.100 C 
ATOM     12  C   UNL     1     113.853 100.235 113.814  1.00  0.00     0.265 C 
ATOM     13  C   UNL     1     115.607  98.858 112.935  1.00  0.00     0.265 C 
ATOM     14  H   UNL     1     113.292 102.646 109.497  1.00  0.00     0.165 HD
ATOM     15  H   UNL     1     115.813 100.692 113.735  1.00  0.00     0.348 HD
BRANCH   9  16
ATOM     16  C   UNL     1     112.749  98.231 109.845  1.00  0.00     0.039 A 
ATOM     17  C   UNL     1     111.377  98.210 109.754  1.00  0.00     0.026 A 
ATOM     18  C   UNL     1     113.445  97.079 109.650  1.00  0.00     0.026 A 
ATOM     19  C   UNL     1     110.681  97.032 109.466  1.00  0.00     0.002 A 
ATOM     20  C   UNL     1     112.784  95.915 109.367  1.00  0.00     0.002 A 
ATOM     21  C   UNL     1     111.417  95.882 109.274  1.00  0.00     0.000 A 
ENDBRANCH   9  16
ENDBRANCH   2   3
ENDBRANCH   1   2
BRANCH   1  22
ATOM     22  C   UNL     1     114.170  98.901 117.292  1.00  0.00     0.019 C 
BRANCH  22  23
ATOM     23  C   UNL     1     113.096  97.927 117.150  1.00  0.00     0.049 C 
BRANCH  23  24
ATOM     24  C   UNL     1     111.826  98.245 117.893  1.00  0.00    -0.040 A 
ATOM     25  C   UNL     1     110.880  97.246 117.955  1.00  0.00     0.007 A 
ATOM     26  C   UNL     1     111.591  99.467 118.465  1.00  0.00     0.007 A 
ATOM     27  C   UNL     1     109.685  97.466 118.593  1.00  0.00     0.039 A 
ATOM     28  C   UNL     1     110.398  99.682 119.101  1.00  0.00     0.039 A 
ATOM     29  C   UNL     1     109.421  98.683 119.178  1.00  0.00     0.123 A 
ATOM     30  F   UNL     1     108.235  98.889 119.807  1.00  0.00    -0.207 F 
ENDBRANCH  23  24
BRANCH  23  31
ATOM     31  C   UNL     1     112.799  97.330 115.858  1.00  0.00    -0.040 A 
ATOM     32  C   UNL     1     111.720  97.595 115.063  1.00  0.00     0.007 A 
ATOM     33  C   UNL     1     113.722  96.375 115.413  1.00  0.00     0.007 A 
ATOM     34  C   UNL     1     111.585  96.906 113.852  1.00  0.00     0.039 A 
ATOM     35  C   UNL     1     113.604  95.701 114.240  1.00  0.00     0.039 A 
ATOM     36  C   UNL     1     112.512  95.977 113.450  1.00  0.00     0.123 A 
ATOM     37  F   UNL     1     112.406  95.294 112.278  1.00  0.00    -0.207 F 
ENDBRANCH  23  31
ENDBRANCH  22  23
ENDBRANCH   1  22
TORSDOF 7
ENDMDL
MODEL 4
REMARK VINA RESULT:      -7.0      0.485      1.223
REMARK SMILES O=C1NCN(c2ccccc2)C12CC[NH+](CCCC(c1ccc(F)cc1)c1ccc(F)cc1)CC2
REMARK SMILES IDX 17 1 16 2 15 3 1 4 2 5 3 6 12 7 4 8 5 9 13 10 35 11 14 12
REMARK SMILES IDX 34 13 6 16 7 17 11 18 8 19 10 20 9 21 18 22 19 23 20 24
REMARK SMILES IDX 21 25 26 26 22 27 25 28 23 29 24 30 27 31 28 32 33 33 29 34
REMARK SMILES IDX 32 35 30 36 31 37
REMARK H PARENT 3 14 15 15
ROOT
ATOM      1  C   UNL     1     112.059  96.036 115.786  1.00  0.00     0.062 C 
ENDROOT
BRANCH   1   2
ATOM      2  C   UNL     1     112.050  94.939 114.763  1.00  0.00     0.262 C 
BRANCH   2   3
ATOM      3  N   UNL     1     112.361  95.479 113.444  1.00  0.00    -0.335 N 
ATOM      4  O   UNL     1     113.243  94.845 110.403  1.00  0.00    -0.272 OA
ATOM      5  C   UNL     1     113.475  96.064 110.265  1.00  0.00     0.247 C 
ATOM      6  N   UNL     1     113.957  96.651 109.082  1.00  0.00    -0.336 N 
ATOM      7  C   UNL     1     113.283  97.119 111.331  1.00  0.00     0.131 C 
ATOM      8  C   UNL     1     113.648  98.043 109.172  1.00  0.00     0.238 C 
ATOM      9  N   UNL     1     113.692  98.325 110.615  1.00  0.00    -0.339 N 
ATOM     10  C   UNL     1     114.199  96.804 112.496  1.00  0.00     0.100 C 
ATOM     11  C   UNL     1     111.850  97.105 111.728  1.00  0.00     0.100 C 
ATOM     12  C   UNL     1     113.786  95.528 113.192  1.00  0.00     0.265 C 
ATOM     13  C   UNL     1     111.716  96.736 113.169  1.00  0.00     0.265 C 
ATOM     14  H   UNL     1     114.446  96.140 108.298  1.00  0.00     0.165 HD
ATOM     15  H   UNL     1     111.962  94.778 112.783  1.00  0.00     0.348 HD
BRANCH   9  16
ATOM     16  C   UNL     1     114.099  99.593 111.103  1.00  0.00     0.039 A 
ATOM     17  C   UNL     1     114.461 100.601 110.241  1.00  0.00     0.026 A 
ATOM     18  C   UNL     1     114.114  99.827 112.443  1.00  0.00     0.026 A 
ATOM     19  C   UNL     1     114.844 101.862 110.710  1.00  0.00     0.002 A 
ATOM     20  C   UNL     1     114.487 101.053 112.923  1.00  0.00     0.002 A 
ATOM     21  C   UNL     1     114.849 102.066 112.073  1.00  0.00     0.000 A 
ENDBRANCH   9  16
ENDBRANCH   2   3
ENDBRANCH   1   2
BRANCH   1  22
ATOM     22  C   UNL     1     113.190  96.970 115.755  1.00  0.00     0.019 C 
BRANCH  22  23
ATOM     23  C   UNL     1     113.135  98.297 116.353  1.00  0.00     0.049 C 
BRANCH  23  24
ATOM     24  C   UNL     1     112.010  98.526 117.329  1.00  0.00    -0.040 A 
ATOM     25  C   UNL     1     111.184  97.453 117.580  1.00  0.00     0.007 A 
ATOM     26  C   UNL     1     111.787  99.737 117.927  1.00  0.00     0.007 A 
ATOM     27  C   UNL     1     110.122  97.588 118.438  1.00  0.00     0.039 A 
ATOM     28  C   UNL     1     110.727  99.867 118.783  1.00  0.00     0.039 A 
ATOM     29  C   UNL     1     109.872  98.792 119.056  1.00  0.00     0.123 A 
ATOM     30  F   UNL     1     108.818  98.913 119.902  1.00  0.00    -0.207 F 
ENDBRANCH  23  24
BRANCH  23  31
ATOM     31  C   UNL     1     114.348  98.961 116.803  1.00  0.00    -0.040 A 
ATOM     32  C   UNL     1     114.614 100.301 116.751  1.00  0.00     0.007 A 
ATOM     33  C   UNL     1     115.336  98.117 117.326  1.00  0.00     0.007 A 
ATOM     34  C   UNL     1     115.851 100.764 117.215  1.00  0.00     0.039 A 
ATOM     35  C   UNL     1     116.538  98.553 117.780  1.00  0.00     0.039 A 
ATOM     36  C   UNL     1     116.794  99.904 117.720  1.00  0.00     0.123 A 
ATOM     37  F   UNL     1     118.002 100.327 118.179  1.00  0.00    -0.207 F 
ENDBRANCH  23  31
ENDBRANCH  22  23
ENDBRANCH   1  22
TORSDOF 7
ENDMDL
MODEL 5
REMARK VINA RESULT:      -6.8      0.532      3.891
REMARK SMILES O=C1NCN(c2ccccc2)C12CC[NH+](CCCC(c1ccc(F)cc1)c1ccc(F)cc1)CC2
REMARK SMILES IDX 17 1 16 2 15 3 1 4 2 5 3 6 12 7 4 8 5 9 13 10 35 11 14 12
REMARK SMILES IDX 34 13 6 16 7 17 11 18 8 19 10 20 9 21 18 22 19 23 20 24
REMARK SMILES IDX 21 25 26 26 22 27 25 28 23 29 24 30 27 31 28 32 33 33 29 34
REMARK SMILES IDX 32 35 30 36 31 37
REMARK H PARENT 3 14 15 15
ROOT
ATOM      1  C   UNL     1     111.891  96.114 115.662  1.00  0.00     0.062 C 
ENDROOT
BRANCH   1   2
ATOM      2  C   UNL     1     112.064  94.961 114.718  1.00  0.00     0.262 C 
BRANCH   2   3
ATOM      3  N   UNL     1     112.447  95.447 113.397  1.00  0.00    -0.335 N 
ATOM      4  O   UNL     1     113.582  94.700 110.467  1.00  0.00    -0.272 OA
ATOM      5  C   UNL     1     113.767  95.920 110.279  1.00  0.00     0.247 C 
ATOM      6  N   UNL     1     114.308  96.468 109.103  1.00  0.00    -0.336 N 
ATOM      7  C   UNL     1     113.447  97.018 111.267  1.00  0.00     0.131 C 
ATOM      8  C   UNL     1     113.929  97.845 109.092  1.00  0.00     0.238 C 
ATOM      9  N   UNL     1     113.852  98.204 110.517  1.00  0.00    -0.339 N 
ATOM     10  C   UNL     1     114.288  96.811 112.511  1.00  0.00     0.100 C 
ATOM     11  C   UNL     1     111.990  96.953 111.560  1.00  0.00     0.100 C 
ATOM     12  C   UNL     1     113.883  95.554 113.246  1.00  0.00     0.265 C 
ATOM     13  C   UNL     1     111.767  96.654 113.006  1.00  0.00     0.265 C 
ATOM     14  H   UNL     1     114.878  95.942 108.386  1.00  0.00     0.165 HD
ATOM     15  H   UNL     1     112.132  94.692 112.749  1.00  0.00     0.348 HD
BRANCH   9  16
ATOM     16  C   UNL     1     114.163  99.514 110.961  1.00  0.00     0.039 A 
ATOM     17  C   UNL     1     115.279 100.173 110.501  1.00  0.00     0.026 A 
ATOM     18  C   UNL     1     113.336 100.143 111.840  1.00  0.00     0.026 A 
ATOM     19  C   UNL     1     115.584 101.473 110.916  1.00  0.00     0.002 A 
ATOM     20  C   UNL     1     113.616 101.414 112.259  1.00  0.00     0.002 A 
ATOM     21  C   UNL     1     114.725 102.081 111.807  1.00  0.00     0.000 A 
ENDBRANCH   9  16
ENDBRANCH   2   3
ENDBRANCH   1   2
BRANCH   1  22
ATOM     22  C   UNL     1     113.051  96.989 115.868  1.00  0.00     0.019 C 
BRANCH  22  23
ATOM     23  C   UNL     1     113.290  97.704 117.114  1.00  0.00     0.049 C 
BRANCH  23  24
ATOM     24  C   UNL     1     114.494  98.608 117.126  1.00  0.00    -0.040 A 
ATOM     25  C   UNL     1     115.576  98.186 117.867  1.00  0.00     0.007 A 
ATOM     26  C   UNL     1     114.525  99.806 116.463  1.00  0.00     0.007 A 
ATOM     27  C   UNL     1     116.702  98.966 117.947  1.00  0.00     0.039 A 
ATOM     28  C   UNL     1     115.650 100.580 116.545  1.00  0.00     0.039 A 
ATOM     29  C   UNL     1     116.763 100.174 117.290  1.00  0.00     0.123 A 
ATOM     30  F   UNL     1     117.883 100.936 117.378  1.00  0.00    -0.207 F 
ENDBRANCH  23  24
BRANCH  23  31
ATOM     31  C   UNL     1     112.190  98.304 117.850  1.00  0.00    -0.040 A 
ATOM     32  C   UNL     1     112.230  99.455 118.587  1.00  0.00     0.007 A 
ATOM     33  C   UNL     1     110.978  97.603 117.796  1.00  0.00     0.007 A 
ATOM     34  C   UNL     1     111.070  99.876 119.249  1.00  0.00     0.039 A 
ATOM     35  C   UNL     1     109.847  98.002 118.432  1.00  0.00     0.039 A 
ATOM     36  C   UNL     1     109.902  99.161 119.171  1.00  0.00     0.123 A 
ATOM     37  F   UNL     1     108.761  99.548 119.803  1.00  0.00    -0.207 F 
ENDBRANCH  23  31
ENDBRANCH  22  23
ENDBRANCH   1  22
TORSDOF 7
ENDMDL
MODEL 6
REMARK VINA RESULT:      -6.4      2.008      2.861
REMARK SMILES O=C1NCN(c2ccccc2)C12CC[NH+](CCCC(c1ccc(F)cc1)c1ccc(F)cc1)CC2
REMARK SMILES IDX 17 1 16 2 15 3 1 4 2 5 3 6 12 7 4 8 5 9 13 10 35 11 14 12
REMARK SMILES IDX 34 13 6 16 7 17 11 18 8 19 10 20 9 21 18 22 19 23 20 24
REMARK SMILES IDX 21 25 26 26 22 27 25 28 23 29 24 30 27 31 28 32 33 33 29 34
REMARK SMILES IDX 32 35 30 36 31 37
REMARK H PARENT 3 14 15 15
ROOT
ATOM      1  C   UNL     1     112.951  96.893 116.187  1.00  0.00     0.062 C 
ENDROOT
BRANCH   1   2
ATOM      2  C   UNL     1     111.882  97.706 115.518  1.00  0.00     0.262 C 
BRANCH   2   3
ATOM      3  N   UNL     1     112.018  97.620 114.069  1.00  0.00    -0.335 N 
ATOM      4  O   UNL     1     110.667  96.718 111.277  1.00  0.00    -0.272 OA
ATOM      5  C   UNL     1     111.788  96.855 110.745  1.00  0.00     0.247 C 
ATOM      6  N   UNL     1     112.054  96.612 109.386  1.00  0.00    -0.336 N 
ATOM      7  C   UNL     1     113.047  97.299 111.453  1.00  0.00     0.131 C 
ATOM      8  C   UNL     1     113.267  97.306 109.087  1.00  0.00     0.238 C 
ATOM      9  N   UNL     1     114.011  97.286 110.356  1.00  0.00    -0.339 N 
ATOM     10  C   UNL     1     113.384  96.284 112.526  1.00  0.00     0.100 C 
ATOM     11  C   UNL     1     112.793  98.650 112.022  1.00  0.00     0.100 C 
ATOM     12  C   UNL     1     112.350  96.281 113.627  1.00  0.00     0.265 C 
ATOM     13  C   UNL     1     112.899  98.611 113.511  1.00  0.00     0.265 C 
ATOM     14  H   UNL     1     111.459  96.029 108.737  1.00  0.00     0.165 HD
ATOM     15  H   UNL     1     111.059  97.825 113.712  1.00  0.00     0.348 HD
BRANCH   9  16
ATOM     16  C   UNL     1     115.428  97.243 110.374  1.00  0.00     0.039 A 
ATOM     17  C   UNL     1     116.119  96.318 109.628  1.00  0.00     0.026 A 
ATOM     18  C   UNL     1     116.121  98.144 111.123  1.00  0.00     0.026 A 
ATOM     19  C   UNL     1     117.517  96.280 109.623  1.00  0.00     0.002 A 
ATOM     20  C   UNL     1     117.488  98.123 111.132  1.00  0.00     0.002 A 
ATOM     21  C   UNL     1     118.188  97.205 110.393  1.00  0.00     0.000 A 
ENDBRANCH   9  16
ENDBRANCH   2   3
ENDBRANCH   1   2
BRANCH   1  22
ATOM     22  C   UNL     1     114.294  97.479 116.254  1.00  0.00     0.019 C 
BRANCH  22  23
ATOM     23  C   UNL     1     114.551  98.802 116.807  1.00  0.00     0.049 C 
BRANCH  23  24
ATOM     24  C   UNL     1     113.455  99.372 117.669  1.00  0.00    -0.040 A 
ATOM     25  C   UNL     1     112.495 100.124 117.029  1.00  0.00     0.007 A 
ATOM     26  C   UNL     1     113.410  99.187 119.025  1.00  0.00     0.007 A 
ATOM     27  C   UNL     1     111.477 100.698 117.748  1.00  0.00     0.039 A 
ATOM     28  C   UNL     1     112.393  99.761 119.738  1.00  0.00     0.039 A 
ATOM     29  C   UNL     1     111.404 100.529 119.112  1.00  0.00     0.123 A 
ATOM     30  F   UNL     1     110.392 101.101 119.812  1.00  0.00    -0.207 F 
ENDBRANCH  23  24
BRANCH  23  31
ATOM     31  C   UNL     1     115.857  99.143 117.346  1.00  0.00    -0.040 A 
ATOM     32  C   UNL     1     116.516 100.332 117.204  1.00  0.00     0.007 A 
ATOM     33  C   UNL     1     116.493  98.124 118.067  1.00  0.00     0.007 A 
ATOM     34  C   UNL     1     117.784 100.476 117.779  1.00  0.00     0.039 A 
ATOM     35  C   UNL     1     117.721  98.252 118.631  1.00  0.00     0.039 A 
ATOM     36  C   UNL     1     118.374  99.453 118.479  1.00  0.00     0.123 A 
ATOM     37  F   UNL     1     119.604  99.568 119.049  1.00  0.00    -0.207 F 
ENDBRANCH  23  31
ENDBRANCH  22  23
ENDBRANCH   1  22
TORSDOF 7
ENDMDL
MODEL 7
REMARK VINA RESULT:      -6.3      0.641      1.304
REMARK SMILES O=C1NCN(c2ccccc2)C12CC[NH+](CCCC(c1ccc(F)cc1)c1ccc(F)cc1)CC2
REMARK SMILES IDX 17 1 16 2 15 3 1 4 2 5 3 6 12 7 4 8 5 9 13 10 35 11 14 12
REMARK SMILES IDX 34 13 6 16 7 17 11 18 8 19 10 20 9 21 18 22 19 23 20 24
REMARK SMILES IDX 21 25 26 26 22 27 25 28 23 29 24 30 27 31 28 32 33 33 29 34
REMARK SMILES IDX 32 35 30 36 31 37
REMARK H PARENT 3 14 15 15
ROOT
ATOM      1  C   UNL     1     112.619  96.003 115.987  1.00  0.00     0.062 C 
ENDROOT
BRANCH   1   2
ATOM      2  C   UNL     1     112.442  94.895 114.991  1.00  0.00     0.262 C 
BRANCH   2   3
ATOM      3  N   UNL     1     112.555  95.417 113.634  1.00  0.00    -0.335 N 
ATOM      4  O   UNL     1     113.069  94.751 110.516  1.00  0.00    -0.272 OA
ATOM      5  C   UNL     1     113.223  95.976 110.328  1.00  0.00     0.247 C 
ATOM      6  N   UNL     1     113.520  96.556 109.082  1.00  0.00    -0.336 N 
ATOM      7  C   UNL     1     113.118  97.046 111.390  1.00  0.00     0.131 C 
ATOM      8  C   UNL     1     113.159  97.934 109.186  1.00  0.00     0.238 C 
ATOM      9  N   UNL     1     113.374  98.252 110.607  1.00  0.00    -0.339 N 
ATOM     10  C   UNL     1     114.191  96.801 112.433  1.00  0.00     0.100 C 
ATOM     11  C   UNL     1     111.750  96.977 111.969  1.00  0.00     0.100 C 
ATOM     12  C   UNL     1     113.932  95.525 113.199  1.00  0.00     0.265 C 
ATOM     13  C   UNL     1     111.820  96.637 113.422  1.00  0.00     0.265 C 
ATOM     14  H   UNL     1     113.929  96.049 108.251  1.00  0.00     0.165 HD
ATOM     15  H   UNL     1     112.109  94.683 113.042  1.00  0.00     0.348 HD
BRANCH   9  16
ATOM     16  C   UNL     1     113.779  99.548 111.014  1.00  0.00     0.039 A 
ATOM     17  C   UNL     1     113.875  99.875 112.346  1.00  0.00     0.026 A 
ATOM     18  C   UNL     1     114.100 100.481 110.077  1.00  0.00     0.026 A 
ATOM     19  C   UNL     1     114.293 101.144 112.760  1.00  0.00     0.002 A 
ATOM     20  C   UNL     1     114.511 101.728 110.460  1.00  0.00     0.002 A 
ATOM     21  C   UNL     1     114.610 102.065 111.785  1.00  0.00     0.000 A 
ENDBRANCH   9  16
ENDBRANCH   2   3
ENDBRANCH   1   2
BRANCH   1  22
ATOM     22  C   UNL     1     113.667  96.991 115.709  1.00  0.00     0.019 C 
BRANCH  22  23
ATOM     23  C   UNL     1     113.667  98.327 116.290  1.00  0.00     0.049 C 
BRANCH  23  24
ATOM     24  C   UNL     1     112.498  98.649 117.183  1.00  0.00    -0.040 A 
ATOM     25  C   UNL     1     112.749  99.478 118.253  1.00  0.00     0.007 A 
ATOM     26  C   UNL     1     111.246  98.134 116.975  1.00  0.00     0.007 A 
ATOM     27  C   UNL     1     111.741  99.800 119.127  1.00  0.00     0.039 A 
ATOM     28  C   UNL     1     110.243  98.458 117.848  1.00  0.00     0.039 A 
ATOM     29  C   UNL     1     110.472  99.299 118.944  1.00  0.00     0.123 A 
ATOM     30  F   UNL     1     109.483  99.624 119.815  1.00  0.00    -0.207 F 
ENDBRANCH  23  24
BRANCH  23  31
ATOM     31  C   UNL     1     114.891  98.910 116.816  1.00  0.00    -0.040 A 
ATOM     32  C   UNL     1     115.331 100.191 116.634  1.00  0.00     0.007 A 
ATOM     33  C   UNL     1     115.691  98.043 117.571  1.00  0.00     0.007 A 
ATOM     34  C   UNL     1     116.551 100.575 117.203  1.00  0.00     0.039 A 
ATOM     35  C   UNL     1     116.875  98.403 118.129  1.00  0.00     0.039 A 
ATOM     36  C   UNL     1     117.307  99.695 117.937  1.00  0.00     0.123 A 
ATOM     37  F   UNL     1     118.495 100.043 118.502  1.00  0.00    -0.207 F 
ENDBRANCH  23  31
ENDBRANCH  22  23
ENDBRANCH   1  22
TORSDOF 7
ENDMDL
MODEL 8
REMARK VINA RESULT:      -6.2      2.598      5.298
REMARK SMILES O=C1NCN(c2ccccc2)C12CC[NH+](CCCC(c1ccc(F)cc1)c1ccc(F)cc1)CC2
REMARK SMILES IDX 17 1 16 2 15 3 1 4 2 5 3 6 12 7 4 8 5 9 13 10 35 11 14 12
REMARK SMILES IDX 34 13 6 16 7 17 11 18 8 19 10 20 9 21 18 22 19 23 20 24
REMARK SMILES IDX 21 25 26 26 22 27 25 28 23 29 24 30 27 31 28 32 33 33 29 34
REMARK SMILES IDX 32 35 30 36 31 37
REMARK H PARENT 3 14 15 15
ROOT
ATOM      1  C   UNL     1     114.474  99.705 116.197  1.00  0.00     0.062 C 
ENDROOT
BRANCH   1   2
ATOM      2  C   UNL     1     115.676  99.419 115.346  1.00  0.00     0.262 C 
BRANCH   2   3
ATOM      3  N   UNL     1     115.370  99.669 113.942  1.00  0.00    -0.335 N 
ATOM      4  O   UNL     1     115.518 101.742 111.471  1.00  0.00    -0.272 OA
ATOM      5  C   UNL     1     114.707 101.009 110.868  1.00  0.00     0.247 C 
ATOM      6  N   UNL     1     114.210 101.269 109.578  1.00  0.00    -0.336 N 
ATOM      7  C   UNL     1     114.119  99.724 111.405  1.00  0.00     0.131 C 
ATOM      8  C   UNL     1     113.716 100.023 109.082  1.00  0.00     0.238 C 
ATOM      9  N   UNL     1     113.272  99.310 110.290  1.00  0.00    -0.339 N 
ATOM     10  C   UNL     1     113.315 100.042 112.650  1.00  0.00     0.100 C 
ATOM     11  C   UNL     1     115.245  98.796 111.689  1.00  0.00     0.100 C 
ATOM     12  C   UNL     1     114.206 100.514 113.775  1.00  0.00     0.265 C 
ATOM     13  C   UNL     1     115.292  98.472 113.147  1.00  0.00     0.265 C 
ATOM     14  H   UNL     1     114.213 102.208 109.096  1.00  0.00     0.165 HD
ATOM     15  H   UNL     1     116.190 100.214 113.597  1.00  0.00     0.348 HD
BRANCH   9  16
ATOM     16  C   UNL     1     112.178  98.409 110.248  1.00  0.00     0.039 A 
ATOM     17  C   UNL     1     111.195  98.530 109.294  1.00  0.00     0.026 A 
ATOM     18  C   UNL     1     112.105  97.394 111.151  1.00  0.00     0.026 A 
ATOM     19  C   UNL     1     110.122  97.635 109.231  1.00  0.00     0.002 A 
ATOM     20  C   UNL     1     111.064  96.508 111.107  1.00  0.00     0.002 A 
ATOM     21  C   UNL     1     110.079  96.618 110.161  1.00  0.00     0.000 A 
ENDBRANCH   9  16
ENDBRANCH   2   3
ENDBRANCH   1   2
BRANCH   1  22
ATOM     22  C   UNL     1     113.842  98.563 116.866  1.00  0.00     0.019 C 
BRANCH  22  23
ATOM     23  C   UNL     1     112.452  98.187 116.644  1.00  0.00     0.049 C 
BRANCH  23  24
ATOM     24  C   UNL     1     112.230  96.791 116.124  1.00  0.00    -0.040 A 
ATOM     25  C   UNL     1     112.494  96.581 114.788  1.00  0.00     0.007 A 
ATOM     26  C   UNL     1     111.766  95.774 116.914  1.00  0.00     0.007 A 
ATOM     27  C   UNL     1     112.293  95.343 114.233  1.00  0.00     0.039 A 
ATOM     28  C   UNL     1     111.568  94.540 116.356  1.00  0.00     0.039 A 
ATOM     29  C   UNL     1     111.829  94.300 115.002  1.00  0.00     0.123 A 
ATOM     30  F   UNL     1     111.634  93.079 114.442  1.00  0.00    -0.207 F 
ENDBRANCH  23  24
BRANCH  23  31
ATOM     31  C   UNL     1     111.421  98.548 117.603  1.00  0.00    -0.040 A 
ATOM     32  C   UNL     1     111.347  99.704 118.328  1.00  0.00     0.007 A 
ATOM     33  C   UNL     1     110.420  97.587 117.797  1.00  0.00     0.007 A 
ATOM     34  C   UNL     1     110.285  99.872 119.226  1.00  0.00     0.039 A 
ATOM     35  C   UNL     1     109.386  97.739 118.662  1.00  0.00     0.039 A 
ATOM     36  C   UNL     1     109.324  98.907 119.388  1.00  0.00     0.123 A 
ATOM     37  F   UNL     1     108.282  99.046 120.251  1.00  0.00    -0.207 F 
ENDBRANCH  23  31
ENDBRANCH  22  23
ENDBRANCH   1  22
TORSDOF 7
ENDMDL
MODEL 9
REMARK VINA RESULT:      -5.9      0.702      1.133
REMARK SMILES O=C1NCN(c2ccccc2)C12CC[NH+](CCCC(c1ccc(F)cc1)c1ccc(F)cc1)CC2
REMARK SMILES IDX 17 1 16 2 15 3 1 4 2 5 3 6 12 7 4 8 5 9 13 10 35 11 14 12
REMARK SMILES IDX 34 13 6 16 7 17 11 18 8 19 10 20 9 21 18 22 19 23 20 24
REMARK SMILES IDX 21 25 26 26 22 27 25 28 23 29 24 30 27 31 28 32 33 33 29 34
REMARK SMILES IDX 32 35 30 36 31 37
REMARK H PARENT 3 14 15 15
ROOT
ATOM      1  C   UNL     1     112.117  96.095 115.751  1.00  0.00     0.062 C 
ENDROOT
BRANCH   1   2
ATOM      2  C   UNL     1     112.061  94.968 114.762  1.00  0.00     0.262 C 
BRANCH   2   3
ATOM      3  N   UNL     1     112.418  95.449 113.432  1.00  0.00    -0.335 N 
ATOM      4  O   UNL     1     113.423  94.681 110.461  1.00  0.00    -0.272 OA
ATOM      5  C   UNL     1     113.649  95.894 110.274  1.00  0.00     0.247 C 
ATOM      6  N   UNL     1     114.171  96.430 109.083  1.00  0.00    -0.336 N 
ATOM      7  C   UNL     1     113.405  96.996 111.280  1.00  0.00     0.131 C 
ATOM      8  C   UNL     1     113.845  97.821 109.095  1.00  0.00     0.238 C 
ATOM      9  N   UNL     1     113.830  98.171 110.523  1.00  0.00    -0.339 N 
ATOM     10  C   UNL     1     114.279  96.747 112.493  1.00  0.00     0.100 C 
ATOM     11  C   UNL     1     111.958  96.985 111.621  1.00  0.00     0.100 C 
ATOM     12  C   UNL     1     113.851  95.502 113.233  1.00  0.00     0.265 C 
ATOM     13  C   UNL     1     111.772  96.684 113.072  1.00  0.00     0.265 C 
ATOM     14  H   UNL     1     114.695  95.888 108.344  1.00  0.00     0.165 HD
ATOM     15  H   UNL     1     112.052  94.712 112.790  1.00  0.00     0.348 HD
BRANCH   9  16
ATOM     16  C   UNL     1     114.207  99.465 110.965  1.00  0.00     0.039 A 
ATOM     17  C   UNL     1     115.517  99.763 111.254  1.00  0.00     0.026 A 
ATOM     18  C   UNL     1     113.262 100.438 111.084  1.00  0.00     0.026 A 
ATOM     19  C   UNL     1     115.902 101.041 111.671  1.00  0.00     0.002 A 
ATOM     20  C   UNL     1     113.618 101.695 111.490  1.00  0.00     0.002 A 
ATOM     21  C   UNL     1     114.921 102.003 111.782  1.00  0.00     0.000 A 
ENDBRANCH   9  16
ENDBRANCH   2   3
ENDBRANCH   1   2
BRANCH   1  22
ATOM     22  C   UNL     1     113.378  96.838 115.847  1.00  0.00     0.019 C 
BRANCH  22  23
ATOM     23  C   UNL     1     113.463  98.181 116.403  1.00  0.00     0.049 C 
BRANCH  23  24
ATOM     24  C   UNL     1     112.329  98.583 117.311  1.00  0.00    -0.040 A 
ATOM     25  C   UNL     1     112.630  99.477 118.315  1.00  0.00     0.007 A 
ATOM     26  C   UNL     1     111.063  98.079 117.178  1.00  0.00     0.007 A 
ATOM     27  C   UNL     1     111.657  99.873 119.198  1.00  0.00     0.039 A 
ATOM     28  C   UNL     1     110.096  98.477 118.061  1.00  0.00     0.039 A 
ATOM     29  C   UNL     1     110.375  99.385 119.090  1.00  0.00     0.123 A 
ATOM     30  F   UNL     1     109.422  99.784 119.969  1.00  0.00    -0.207 F 
ENDBRANCH  23  24
BRANCH  23  31
ATOM     31  C   UNL     1     114.726  98.704 116.898  1.00  0.00    -0.040 A 
ATOM     32  C   UNL     1     115.630  98.048 117.686  1.00  0.00     0.007 A 
ATOM     33  C   UNL     1     115.015 100.024 116.528  1.00  0.00     0.007 A 
ATOM     34  C   UNL     1     116.792  98.720 118.086  1.00  0.00     0.039 A 
ATOM     35  C   UNL     1     116.138 100.685 116.907  1.00  0.00     0.039 A 
ATOM     36  C   UNL     1     117.039 100.014 117.702  1.00  0.00     0.123 A 
ATOM     37  F   UNL     1     118.160 100.688 118.074  1.00  0.00    -0.207 F 
ENDBRANCH  23  31
ENDBRANCH  22  23
ENDBRANCH   1  22
TORSDOF 7
ENDMDL
