MODEL 1
REMARK VINA RESULT:      -5.8      0.000      0.000
REMARK SMILES CCOC(=O)C1=C(C)[NH2+]C(C)=C(C(=O)OC)C1c1cccc(Cl)c1Cl
REMARK SMILES IDX 6 1 7 2 8 3 9 4 10 5 11 6 12 7 17 8 4 11 5 12 3 13 2 14 1 15
REMARK SMILES IDX 18 16 19 17 24 18 20 19 22 20 21 21 25 22 23 23 13 24 14 25
REMARK SMILES IDX 15 26 16 27
REMARK H PARENT 9 9 9 10
ROOT
ATOM      1  C   UNL     1      84.068 123.284 115.888  1.00  0.00     0.106 C 
ATOM      2  C   UNL     1      82.893 122.695 115.908  1.00  0.00     0.119 C 
ATOM      3  C   UNL     1      82.654 121.468 116.696  1.00  0.00     0.112 C 
ATOM      4  N   UNL     1      81.823 123.247 115.154  1.00  0.00    -0.288 N 
ATOM      5  C   UNL     1      82.344 123.527 113.848  1.00  0.00     0.119 C 
ATOM      6  C   UNL     1      81.600 123.111 112.659  1.00  0.00     0.112 C 
ATOM      7  C   UNL     1      83.497 124.162 113.779  1.00  0.00     0.106 C 
ATOM      8  C   UNL     1      84.193 124.552 115.039  1.00  0.00     0.107 C 
ATOM      9  H   UNL     1      81.563 124.158 115.567  1.00  0.00     0.357 HD
ATOM     10  H   UNL     1      81.010 122.587 115.091  1.00  0.00     0.357 HD
ENDROOT
BRANCH   1  11
ATOM     11  C   UNL     1      85.207 122.796 116.620  1.00  0.00     0.340 C 
ATOM     12  O   UNL     1      85.970 121.962 116.057  1.00  0.00    -0.246 OA
BRANCH  11  13
ATOM     13  O   UNL     1      85.511 123.190 117.910  1.00  0.00    -0.462 OA
BRANCH  13  14
ATOM     14  C   UNL     1      86.398 124.293 118.109  1.00  0.00     0.230 C 
ATOM     15  C   UNL     1      85.787 125.352 118.973  1.00  0.00     0.049 C 
ENDBRANCH  13  14
ENDBRANCH  11  13
ENDBRANCH   1  11
BRANCH   8  16
ATOM     16  C   UNL     1      83.524 125.635 115.789  1.00  0.00    -0.015 A 
ATOM     17  C   UNL     1      82.754 125.251 116.880  1.00  0.00     0.006 A 
ATOM     18  C   UNL     1      83.605 126.970 115.545  1.00  0.00     0.063 A 
ATOM     19  C   UNL     1      82.115 126.182 117.661  1.00  0.00     0.002 A 
ATOM     20  C   UNL     1      82.959 127.929 116.333  1.00  0.00     0.059 A 
ATOM     21  C   UNL     1      82.202 127.529 117.407  1.00  0.00     0.022 A 
ATOM     22  Cl  UNL     1      84.527 127.523 114.196  1.00  0.00    -0.082 Cl
ATOM     23  Cl  UNL     1      83.133 129.624 115.928  1.00  0.00    -0.083 Cl
ENDBRANCH   8  16
BRANCH   7  24
ATOM     24  C   UNL     1      84.102 124.484 112.496  1.00  0.00     0.340 C 
ATOM     25  O   UNL     1      84.918 123.690 111.940  1.00  0.00    -0.246 OA
BRANCH  24  26
ATOM     26  O   UNL     1      83.848 125.654 111.797  1.00  0.00    -0.465 OA
ATOM     27  C   UNL     1      84.704 126.144 110.785  1.00  0.00     0.282 C 
ENDBRANCH  24  26
ENDBRANCH   7  24
TORSDOF 6
ENDMDL
MODEL 2
REMARK VINA RESULT:      -5.7      3.008      5.294
REMARK SMILES CCOC(=O)C1=C(C)[NH2+]C(C)=C(C(=O)OC)C1c1cccc(Cl)c1Cl
REMARK SMILES IDX 6 1 7 2 8 3 9 4 10 5 11 6 12 7 17 8 4 11 5 12 3 13 2 14 1 15
REMARK SMILES IDX 18 16 19 17 24 18 20 19 22 20 21 21 25 22 23 23 13 24 14 25
REMARK SMILES IDX 15 26 16 27
REMARK H PARENT 9 9 9 10
ROOT
ATOM      1  C   UNL     1      85.091 125.179 116.998  1.00  0.00     0.106 C 
ATOM      2  C   UNL     1      85.199 126.444 116.660  1.00  0.00     0.119 C 
ATOM      3  C   UNL     1      86.423 127.222 116.943  1.00  0.00     0.112 C 
ATOM      4  N   UNL     1      84.113 127.086 116.005  1.00  0.00    -0.288 N 
ATOM      5  C   UNL     1      82.932 126.749 116.745  1.00  0.00     0.119 C 
ATOM      6  C   UNL     1      81.979 127.796 117.116  1.00  0.00     0.112 C 
ATOM      7  C   UNL     1      82.757 125.483 117.064  1.00  0.00     0.106 C 
ATOM      8  C   UNL     1      83.776 124.477 116.647  1.00  0.00     0.107 C 
ATOM      9  H   UNL     1      83.999 126.668 115.066  1.00  0.00     0.357 HD
ATOM     10  H   UNL     1      84.240 128.127 115.970  1.00  0.00     0.357 HD
ENDROOT
BRANCH   1  11
ATOM     11  C   UNL     1      86.138 124.449 117.663  1.00  0.00     0.340 C 
ATOM     12  O   UNL     1      86.111 124.374 118.923  1.00  0.00    -0.246 OA
BRANCH  11  13
ATOM     13  O   UNL     1      87.177 123.826 116.995  1.00  0.00    -0.462 OA
BRANCH  13  14
ATOM     14  C   UNL     1      87.236 122.398 116.980  1.00  0.00     0.230 C 
ATOM     15  C   UNL     1      86.361 121.814 115.915  1.00  0.00     0.049 C 
ENDBRANCH  13  14
ENDBRANCH  11  13
ENDBRANCH   1  11
BRANCH   8  16
ATOM     16  C   UNL     1      83.807 124.214 115.193  1.00  0.00    -0.015 A 
ATOM     17  C   UNL     1      84.797 124.864 114.466  1.00  0.00     0.006 A 
ATOM     18  C   UNL     1      82.992 123.381 114.495  1.00  0.00     0.063 A 
ATOM     19  C   UNL     1      84.932 124.666 113.114  1.00  0.00     0.002 A 
ATOM     20  C   UNL     1      83.118 123.169 113.117  1.00  0.00     0.059 A 
ATOM     21  C   UNL     1      84.103 123.822 112.416  1.00  0.00     0.022 A 
ATOM     22  Cl  UNL     1      81.727 122.553 115.326  1.00  0.00    -0.082 Cl
ATOM     23  Cl  UNL     1      82.013 122.072 112.318  1.00  0.00    -0.083 Cl
ENDBRANCH   8  16
BRANCH   7  24
ATOM     24  C   UNL     1      81.590 125.052 117.816  1.00  0.00     0.340 C 
ATOM     25  O   UNL     1      80.419 125.224 117.364  1.00  0.00    -0.246 OA
BRANCH  24  26
ATOM     26  O   UNL     1      81.657 124.438 119.058  1.00  0.00    -0.465 OA
ATOM     27  C   UNL     1      81.052 123.191 119.332  1.00  0.00     0.282 C 
ENDBRANCH  24  26
ENDBRANCH   7  24
TORSDOF 6
ENDMDL
MODEL 3
REMARK VINA RESULT:      -5.6      2.489      4.785
REMARK SMILES CCOC(=O)C1=C(C)[NH2+]C(C)=C(C(=O)OC)C1c1cccc(Cl)c1Cl
REMARK SMILES IDX 6 1 7 2 8 3 9 4 10 5 11 6 12 7 17 8 4 11 5 12 3 13 2 14 1 15
REMARK SMILES IDX 18 16 19 17 24 18 20 19 22 20 21 21 25 22 23 23 13 24 14 25
REMARK SMILES IDX 15 26 16 27
REMARK H PARENT 9 9 9 10
ROOT
ATOM      1  C   UNL     1      82.701 123.527 116.136  1.00  0.00     0.106 C 
ATOM      2  C   UNL     1      83.515 122.562 116.503  1.00  0.00     0.119 C 
ATOM      3  C   UNL     1      83.011 121.239 116.925  1.00  0.00     0.112 C 
ATOM      4  N   UNL     1      84.917 122.793 116.495  1.00  0.00    -0.288 N 
ATOM      5  C   UNL     1      85.129 124.052 117.147  1.00  0.00     0.119 C 
ATOM      6  C   UNL     1      86.158 124.177 118.180  1.00  0.00     0.112 C 
ATOM      7  C   UNL     1      84.368 125.062 116.776  1.00  0.00     0.106 C 
ATOM      8  C   UNL     1      83.342 124.852 115.715  1.00  0.00     0.107 C 
ATOM      9  H   UNL     1      85.227 122.914 115.517  1.00  0.00     0.357 HD
ATOM     10  H   UNL     1      85.440 122.031 116.991  1.00  0.00     0.357 HD
ENDROOT
BRANCH   1  11
ATOM     11  C   UNL     1      81.269 123.382 116.113  1.00  0.00     0.340 C 
ATOM     12  O   UNL     1      80.698 123.230 114.997  1.00  0.00    -0.246 OA
BRANCH  11  13
ATOM     13  O   UNL     1      80.482 123.403 117.250  1.00  0.00    -0.462 OA
BRANCH  13  14
ATOM     14  C   UNL     1      80.659 124.458 118.199  1.00  0.00     0.230 C 
ATOM     15  C   UNL     1      81.515 124.034 119.351  1.00  0.00     0.049 C 
ENDBRANCH  13  14
ENDBRANCH  11  13
ENDBRANCH   1  11
BRANCH   8  16
ATOM     16  C   UNL     1      83.902 124.644 114.364  1.00  0.00    -0.015 A 
ATOM     17  C   UNL     1      83.905 123.339 113.887  1.00  0.00     0.006 A 
ATOM     18  C   UNL     1      84.388 125.596 113.524  1.00  0.00     0.063 A 
ATOM     19  C   UNL     1      84.376 123.041 112.632  1.00  0.00     0.002 A 
ATOM     20  C   UNL     1      84.871 125.307 112.243  1.00  0.00     0.059 A 
ATOM     21  C   UNL     1      84.866 124.010 111.790  1.00  0.00     0.022 A 
ATOM     22  Cl  UNL     1      84.435 127.237 114.053  1.00  0.00    -0.082 Cl
ATOM     23  Cl  UNL     1      85.474 126.613 111.244  1.00  0.00    -0.083 Cl
ENDBRANCH   8  16
BRANCH   7  24
ATOM     24  C   UNL     1      84.510 126.374 117.387  1.00  0.00     0.340 C 
ATOM     25  O   UNL     1      85.455 127.150 117.056  1.00  0.00    -0.246 OA
BRANCH  24  26
ATOM     26  O   UNL     1      83.652 126.870 118.356  1.00  0.00    -0.465 OA
ATOM     27  C   UNL     1      82.498 127.624 118.047  1.00  0.00     0.282 C 
ENDBRANCH  24  26
ENDBRANCH   7  24
TORSDOF 6
ENDMDL
MODEL 4
REMARK VINA RESULT:      -5.4      2.439      4.610
REMARK SMILES CCOC(=O)C1=C(C)[NH2+]C(C)=C(C(=O)OC)C1c1cccc(Cl)c1Cl
REMARK SMILES IDX 6 1 7 2 8 3 9 4 10 5 11 6 12 7 17 8 4 11 5 12 3 13 2 14 1 15
REMARK SMILES IDX 18 16 19 17 24 18 20 19 22 20 21 21 25 22 23 23 13 24 14 25
REMARK SMILES IDX 15 26 16 27
REMARK H PARENT 9 9 9 10
ROOT
ATOM      1  C   UNL     1      84.425 123.836 115.201  1.00  0.00     0.106 C 
ATOM      2  C   UNL     1      84.982 122.823 115.827  1.00  0.00     0.119 C 
ATOM      3  C   UNL     1      85.967 121.946 115.162  1.00  0.00     0.112 C 
ATOM      4  N   UNL     1      84.630 122.560 117.179  1.00  0.00    -0.288 N 
ATOM      5  C   UNL     1      83.198 122.608 117.246  1.00  0.00     0.119 C 
ATOM      6  C   UNL     1      82.462 121.544 117.930  1.00  0.00     0.112 C 
ATOM      7  C   UNL     1      82.598 123.632 116.674  1.00  0.00     0.106 C 
ATOM      8  C   UNL     1      83.421 124.675 115.997  1.00  0.00     0.107 C 
ATOM      9  H   UNL     1      84.976 123.335 117.768  1.00  0.00     0.357 HD
ATOM     10  H   UNL     1      84.981 121.624 117.497  1.00  0.00     0.357 HD
ENDROOT
BRANCH   1  11
ATOM     11  C   UNL     1      84.721 124.176 113.835  1.00  0.00     0.340 C 
ATOM     12  O   UNL     1      85.562 125.091 113.612  1.00  0.00    -0.246 OA
BRANCH  11  13
ATOM     13  O   UNL     1      84.132 123.554 112.749  1.00  0.00    -0.462 OA
BRANCH  13  14
ATOM     14  C   UNL     1      82.974 122.742 112.957  1.00  0.00     0.230 C 
ATOM     15  C   UNL     1      81.711 123.474 112.625  1.00  0.00     0.049 C 
ENDBRANCH  13  14
ENDBRANCH  11  13
ENDBRANCH   1  11
BRANCH   8  16
ATOM     16  C   UNL     1      84.209 125.519 116.920  1.00  0.00    -0.015 A 
ATOM     17  C   UNL     1      85.556 125.205 117.051  1.00  0.00     0.006 A 
ATOM     18  C   UNL     1      83.763 126.587 117.632  1.00  0.00     0.063 A 
ATOM     19  C   UNL     1      86.382 125.945 117.860  1.00  0.00     0.002 A 
ATOM     20  C   UNL     1      84.595 127.351 118.461  1.00  0.00     0.059 A 
ATOM     21  C   UNL     1      85.924 127.024 118.577  1.00  0.00     0.022 A 
ATOM     22  Cl  UNL     1      82.098 127.026 117.536  1.00  0.00    -0.082 Cl
ATOM     23  Cl  UNL     1      83.915 128.708 119.332  1.00  0.00    -0.083 Cl
ENDBRANCH   8  16
BRANCH   7  24
ATOM     24  C   UNL     1      81.150 123.760 116.690  1.00  0.00     0.340 C 
ATOM     25  O   UNL     1      80.448 123.373 115.709  1.00  0.00    -0.246 OA
BRANCH  24  26
ATOM     26  O   UNL     1      80.436 124.304 117.747  1.00  0.00    -0.465 OA
ATOM     27  C   UNL     1      80.180 123.599 118.945  1.00  0.00     0.282 C 
ENDBRANCH  24  26
ENDBRANCH   7  24
TORSDOF 6
ENDMDL
MODEL 5
REMARK VINA RESULT:      -5.4      2.416      4.770
REMARK SMILES CCOC(=O)C1=C(C)[NH2+]C(C)=C(C(=O)OC)C1c1cccc(Cl)c1Cl
REMARK SMILES IDX 6 1 7 2 8 3 9 4 10 5 11 6 12 7 17 8 4 11 5 12 3 13 2 14 1 15
REMARK SMILES IDX 18 16 19 17 24 18 20 19 22 20 21 21 25 22 23 23 13 24 14 25
REMARK SMILES IDX 15 26 16 27
REMARK H PARENT 9 9 9 10
ROOT
ATOM      1  C   UNL     1      83.461 124.414 114.203  1.00  0.00     0.106 C 
ATOM      2  C   UNL     1      84.047 123.240 114.119  1.00  0.00     0.119 C 
ATOM      3  C   UNL     1      84.418 122.649 112.817  1.00  0.00     0.112 C 
ATOM      4  N   UNL     1      84.334 122.519 115.309  1.00  0.00    -0.288 N 
ATOM      5  C   UNL     1      83.142 122.551 116.105  1.00  0.00     0.119 C 
ATOM      6  C   UNL     1      82.634 121.319 116.711  1.00  0.00     0.112 C 
ATOM      7  C   UNL     1      82.546 123.716 116.258  1.00  0.00     0.106 C 
ATOM      8  C   UNL     1      83.129 124.925 115.608  1.00  0.00     0.107 C 
ATOM      9  H   UNL     1      85.056 123.032 115.842  1.00  0.00     0.357 HD
ATOM     10  H   UNL     1      84.613 121.528 115.106  1.00  0.00     0.357 HD
ENDROOT
BRANCH   1  11
ATOM     11  C   UNL     1      83.133 125.214 113.052  1.00  0.00     0.340 C 
ATOM     12  O   UNL     1      82.115 124.900 112.373  1.00  0.00    -0.246 OA
BRANCH  11  13
ATOM     13  O   UNL     1      83.874 126.309 112.649  1.00  0.00    -0.462 OA
BRANCH  13  14
ATOM     14  C   UNL     1      85.214 126.112 112.193  1.00  0.00     0.230 C 
ATOM     15  C   UNL     1      86.165 127.085 112.817  1.00  0.00     0.049 C 
ENDBRANCH  13  14
ENDBRANCH  11  13
ENDBRANCH   1  11
BRANCH   8  16
ATOM     16  C   UNL     1      84.401 125.380 116.207  1.00  0.00    -0.015 A 
ATOM     17  C   UNL     1      85.564 124.806 115.706  1.00  0.00     0.006 A 
ATOM     18  C   UNL     1      84.558 126.322 117.173  1.00  0.00     0.063 A 
ATOM     19  C   UNL     1      86.799 125.181 116.173  1.00  0.00     0.002 A 
ATOM     20  C   UNL     1      85.812 126.714 117.659  1.00  0.00     0.059 A 
ATOM     21  C   UNL     1      86.949 126.134 117.151  1.00  0.00     0.022 A 
ATOM     22  Cl  UNL     1      83.160 127.066 117.857  1.00  0.00    -0.082 Cl
ATOM     23  Cl  UNL     1      85.898 127.939 118.906  1.00  0.00    -0.083 Cl
ENDBRANCH   8  16
BRANCH   7  24
ATOM     24  C   UNL     1      81.330 123.841 117.045  1.00  0.00     0.340 C 
ATOM     25  O   UNL     1      80.195 123.917 116.489  1.00  0.00    -0.246 OA
BRANCH  24  26
ATOM     26  O   UNL     1      81.312 123.891 118.431  1.00  0.00    -0.465 OA
ATOM     27  C   UNL     1      82.478 124.067 119.209  1.00  0.00     0.282 C 
ENDBRANCH  24  26
ENDBRANCH   7  24
TORSDOF 6
ENDMDL
MODEL 6
REMARK VINA RESULT:      -5.4      2.300      4.330
REMARK SMILES CCOC(=O)C1=C(C)[NH2+]C(C)=C(C(=O)OC)C1c1cccc(Cl)c1Cl
REMARK SMILES IDX 6 1 7 2 8 3 9 4 10 5 11 6 12 7 17 8 4 11 5 12 3 13 2 14 1 15
REMARK SMILES IDX 18 16 19 17 24 18 20 19 22 20 21 21 25 22 23 23 13 24 14 25
REMARK SMILES IDX 15 26 16 27
REMARK H PARENT 9 9 9 10
ROOT
ATOM      1  C   UNL     1      84.323 123.759 115.399  1.00  0.00     0.106 C 
ATOM      2  C   UNL     1      84.769 122.768 116.139  1.00  0.00     0.119 C 
ATOM      3  C   UNL     1      85.691 121.749 115.597  1.00  0.00     0.112 C 
ATOM      4  N   UNL     1      84.355 122.670 117.495  1.00  0.00    -0.288 N 
ATOM      5  C   UNL     1      82.932 122.847 117.503  1.00  0.00     0.119 C 
ATOM      6  C   UNL     1      82.084 121.921 118.257  1.00  0.00     0.112 C 
ATOM      7  C   UNL     1      82.443 123.858 116.814  1.00  0.00     0.106 C 
ATOM      8  C   UNL     1      83.375 124.755 116.073  1.00  0.00     0.107 C 
ATOM      9  H   UNL     1      84.751 123.466 118.021  1.00  0.00     0.357 HD
ATOM     10  H   UNL     1      84.612 121.743 117.914  1.00  0.00     0.357 HD
ENDROOT
BRANCH   1  11
ATOM     11  C   UNL     1      84.688 123.937 114.019  1.00  0.00     0.340 C 
ATOM     12  O   UNL     1      85.660 124.698 113.748  1.00  0.00    -0.246 OA
BRANCH  11  13
ATOM     13  O   UNL     1      84.031 123.321 112.970  1.00  0.00    -0.462 OA
BRANCH  13  14
ATOM     14  C   UNL     1      82.617 123.486 112.843  1.00  0.00     0.230 C 
ATOM     15  C   UNL     1      81.887 122.187 112.988  1.00  0.00     0.049 C 
ENDBRANCH  13  14
ENDBRANCH  11  13
ENDBRANCH   1  11
BRANCH   8  16
ATOM     16  C   UNL     1      84.207 125.614 116.942  1.00  0.00    -0.015 A 
ATOM     17  C   UNL     1      84.399 125.177 118.247  1.00  0.00     0.006 A 
ATOM     18  C   UNL     1      84.831 126.770 116.592  1.00  0.00     0.063 A 
ATOM     19  C   UNL     1      85.179 125.886 119.126  1.00  0.00     0.002 A 
ATOM     20  C   UNL     1      85.629 127.503 117.478  1.00  0.00     0.059 A 
ATOM     21  C   UNL     1      85.805 127.055 118.765  1.00  0.00     0.022 A 
ATOM     22  Cl  UNL     1      84.625 127.386 114.994  1.00  0.00    -0.082 Cl
ATOM     23  Cl  UNL     1      86.386 128.980 116.922  1.00  0.00    -0.083 Cl
ENDBRANCH   8  16
BRANCH   7  24
ATOM     24  C   UNL     1      81.012 124.110 116.763  1.00  0.00     0.340 C 
ATOM     25  O   UNL     1      80.263 123.474 115.964  1.00  0.00    -0.246 OA
BRANCH  24  26
ATOM     26  O   UNL     1      80.366 125.045 117.559  1.00  0.00    -0.465 OA
ATOM     27  C   UNL     1      80.772 126.396 117.640  1.00  0.00     0.282 C 
ENDBRANCH  24  26
ENDBRANCH   7  24
TORSDOF 6
ENDMDL
MODEL 7
REMARK VINA RESULT:      -5.4      2.620      4.781
REMARK SMILES CCOC(=O)C1=C(C)[NH2+]C(C)=C(C(=O)OC)C1c1cccc(Cl)c1Cl
REMARK SMILES IDX 6 1 7 2 8 3 9 4 10 5 11 6 12 7 17 8 4 11 5 12 3 13 2 14 1 15
REMARK SMILES IDX 18 16 19 17 24 18 20 19 22 20 21 21 25 22 23 23 13 24 14 25
REMARK SMILES IDX 15 26 16 27
REMARK H PARENT 9 9 9 10
ROOT
ATOM      1  C   UNL     1      82.740 123.725 116.211  1.00  0.00     0.106 C 
ATOM      2  C   UNL     1      83.435 122.647 116.499  1.00  0.00     0.119 C 
ATOM      3  C   UNL     1      82.779 121.380 116.884  1.00  0.00     0.112 C 
ATOM      4  N   UNL     1      84.854 122.696 116.442  1.00  0.00    -0.288 N 
ATOM      5  C   UNL     1      85.251 123.884 117.140  1.00  0.00     0.119 C 
ATOM      6  C   UNL     1      86.325 123.825 118.133  1.00  0.00     0.112 C 
ATOM      7  C   UNL     1      84.615 125.000 116.847  1.00  0.00     0.106 C 
ATOM      8  C   UNL     1      83.532 124.976 115.822  1.00  0.00     0.107 C 
ATOM      9  H   UNL     1      85.141 122.825 115.458  1.00  0.00     0.357 HD
ATOM     10  H   UNL     1      85.291 121.850 116.881  1.00  0.00     0.357 HD
ENDROOT
BRANCH   1  11
ATOM     11  C   UNL     1      81.302 123.766 116.242  1.00  0.00     0.340 C 
ATOM     12  O   UNL     1      80.664 123.200 115.311  1.00  0.00    -0.246 OA
BRANCH  11  13
ATOM     13  O   UNL     1      80.579 124.395 117.239  1.00  0.00    -0.462 OA
BRANCH  13  14
ATOM     14  C   UNL     1      81.104 124.421 118.568  1.00  0.00     0.230 C 
ATOM     15  C   UNL     1      80.725 123.198 119.342  1.00  0.00     0.049 C 
ENDBRANCH  13  14
ENDBRANCH  11  13
ENDBRANCH   1  11
BRANCH   8  16
ATOM     16  C   UNL     1      84.012 124.765 114.440  1.00  0.00    -0.015 A 
ATOM     17  C   UNL     1      83.862 123.485 113.920  1.00  0.00     0.006 A 
ATOM     18  C   UNL     1      84.555 125.696 113.612  1.00  0.00     0.063 A 
ATOM     19  C   UNL     1      84.248 123.191 112.636  1.00  0.00     0.002 A 
ATOM     20  C   UNL     1      84.952 125.409 112.300  1.00  0.00     0.059 A 
ATOM     21  C   UNL     1      84.797 124.138 111.805  1.00  0.00     0.022 A 
ATOM     22  Cl  UNL     1      84.789 127.303 114.193  1.00  0.00    -0.082 Cl
ATOM     23  Cl  UNL     1      85.640 126.686 111.320  1.00  0.00    -0.083 Cl
ENDBRANCH   8  16
BRANCH   7  24
ATOM     24  C   UNL     1      84.949 126.251 117.508  1.00  0.00     0.340 C 
ATOM     25  O   UNL     1      84.177 126.761 118.373  1.00  0.00    -0.246 OA
BRANCH  24  26
ATOM     26  O   UNL     1      86.105 126.973 117.252  1.00  0.00    -0.465 OA
ATOM     27  C   UNL     1      86.182 128.377 117.399  1.00  0.00     0.282 C 
ENDBRANCH  24  26
ENDBRANCH   7  24
TORSDOF 6
ENDMDL
MODEL 8
REMARK VINA RESULT:      -5.4      2.233      3.807
REMARK SMILES CCOC(=O)C1=C(C)[NH2+]C(C)=C(C(=O)OC)C1c1cccc(Cl)c1Cl
REMARK SMILES IDX 6 1 7 2 8 3 9 4 10 5 11 6 12 7 17 8 4 11 5 12 3 13 2 14 1 15
REMARK SMILES IDX 18 16 19 17 24 18 20 19 22 20 21 21 25 22 23 23 13 24 14 25
REMARK SMILES IDX 15 26 16 27
REMARK H PARENT 9 9 9 10
ROOT
ATOM      1  C   UNL     1      84.733 124.616 116.609  1.00  0.00     0.106 C 
ATOM      2  C   UNL     1      84.973 124.319 117.867  1.00  0.00     0.119 C 
ATOM      3  C   UNL     1      86.327 123.955 118.334  1.00  0.00     0.112 C 
ATOM      4  N   UNL     1      83.906 124.347 118.806  1.00  0.00    -0.288 N 
ATOM      5  C   UNL     1      82.815 123.634 118.207  1.00  0.00     0.119 C 
ATOM      6  C   UNL     1      82.094 122.620 118.977  1.00  0.00     0.112 C 
ATOM      7  C   UNL     1      82.506 123.934 116.962  1.00  0.00     0.106 C 
ATOM      8  C   UNL     1      83.291 124.982 116.247  1.00  0.00     0.107 C 
ATOM      9  H   UNL     1      83.590 125.324 118.919  1.00  0.00     0.357 HD
ATOM     10  H   UNL     1      84.178 123.903 119.716  1.00  0.00     0.357 HD
ENDROOT
BRANCH   1  11
ATOM     11  C   UNL     1      85.750 124.614 115.591  1.00  0.00     0.340 C 
ATOM     12  O   UNL     1      86.427 125.666 115.416  1.00  0.00    -0.246 OA
BRANCH  11  13
ATOM     13  O   UNL     1      86.028 123.520 114.792  1.00  0.00    -0.462 OA
BRANCH  13  14
ATOM     14  C   UNL     1      84.993 122.983 113.965  1.00  0.00     0.230 C 
ATOM     15  C   UNL     1      84.568 123.950 112.904  1.00  0.00     0.049 C 
ENDBRANCH  13  14
ENDBRANCH  11  13
ENDBRANCH   1  11
BRANCH   8  16
ATOM     16  C   UNL     1      83.061 126.354 116.743  1.00  0.00    -0.015 A 
ATOM     17  C   UNL     1      82.589 126.473 118.045  1.00  0.00     0.006 A 
ATOM     18  C   UNL     1      83.291 127.515 116.074  1.00  0.00     0.063 A 
ATOM     19  C   UNL     1      82.370 127.704 118.612  1.00  0.00     0.002 A 
ATOM     20  C   UNL     1      83.073 128.776 116.640  1.00  0.00     0.059 A 
ATOM     21  C   UNL     1      82.605 128.872 117.928  1.00  0.00     0.022 A 
ATOM     22  Cl  UNL     1      83.860 127.448 114.447  1.00  0.00    -0.082 Cl
ATOM     23  Cl  UNL     1      83.404 130.207 115.688  1.00  0.00    -0.083 Cl
ENDBRANCH   8  16
BRANCH   7  24
ATOM     24  C   UNL     1      81.417 123.259 116.274  1.00  0.00     0.340 C 
ATOM     25  O   UNL     1      80.225 123.677 116.369  1.00  0.00    -0.246 OA
BRANCH  24  26
ATOM     26  O   UNL     1      81.586 122.132 115.484  1.00  0.00    -0.465 OA
ATOM     27  C   UNL     1      81.658 122.187 114.074  1.00  0.00     0.282 C 
ENDBRANCH  24  26
ENDBRANCH   7  24
TORSDOF 6
ENDMDL
MODEL 9
REMARK VINA RESULT:      -5.4      2.347      4.732
REMARK SMILES CCOC(=O)C1=C(C)[NH2+]C(C)=C(C(=O)OC)C1c1cccc(Cl)c1Cl
REMARK SMILES IDX 6 1 7 2 8 3 9 4 10 5 11 6 12 7 17 8 4 11 5 12 3 13 2 14 1 15
REMARK SMILES IDX 18 16 19 17 24 18 20 19 22 20 21 21 25 22 23 23 13 24 14 25
REMARK SMILES IDX 15 26 16 27
REMARK H PARENT 9 9 9 10
ROOT
ATOM      1  C   UNL     1      83.747 124.302 114.698  1.00  0.00     0.106 C 
ATOM      2  C   UNL     1      84.278 123.101 114.750  1.00  0.00     0.119 C 
ATOM      3  C   UNL     1      84.949 122.497 113.580  1.00  0.00     0.112 C 
ATOM      4  N   UNL     1      84.207 122.359 115.960  1.00  0.00    -0.288 N 
ATOM      5  C   UNL     1      82.851 122.448 116.416  1.00  0.00     0.119 C 
ATOM      6  C   UNL     1      82.143 121.240 116.844  1.00  0.00     0.112 C 
ATOM      7  C   UNL     1      82.292 123.641 116.428  1.00  0.00     0.106 C 
ATOM      8  C   UNL     1      83.083 124.822 115.976  1.00  0.00     0.107 C 
ATOM      9  H   UNL     1      84.787 122.832 116.672  1.00  0.00     0.357 HD
ATOM     10  H   UNL     1      84.482 121.356 115.818  1.00  0.00     0.357 HD
ENDROOT
BRANCH   1  11
ATOM     11  C   UNL     1      83.771 125.123 113.516  1.00  0.00     0.340 C 
ATOM     12  O   UNL     1      82.739 125.791 113.228  1.00  0.00    -0.246 OA
BRANCH  11  13
ATOM     13  O   UNL     1      84.866 125.220 112.677  1.00  0.00    -0.462 OA
BRANCH  13  14
ATOM     14  C   UNL     1      85.364 126.514 112.330  1.00  0.00     0.230 C 
ATOM     15  C   UNL     1      85.702 126.611 110.876  1.00  0.00     0.049 C 
ENDBRANCH  13  14
ENDBRANCH  11  13
ENDBRANCH   1  11
BRANCH   8  16
ATOM     16  C   UNL     1      84.173 125.209 116.896  1.00  0.00    -0.015 A 
ATOM     17  C   UNL     1      84.475 124.311 117.913  1.00  0.00     0.006 A 
ATOM     18  C   UNL     1      84.933 126.334 116.835  1.00  0.00     0.063 A 
ATOM     19  C   UNL     1      85.490 124.562 118.803  1.00  0.00     0.002 A 
ATOM     20  C   UNL     1      85.971 126.602 117.736  1.00  0.00     0.059 A 
ATOM     21  C   UNL     1      86.253 125.702 118.735  1.00  0.00     0.022 A 
ATOM     22  Cl  UNL     1      84.605 127.504 115.611  1.00  0.00    -0.082 Cl
ATOM     23  Cl  UNL     1      86.887 128.083 117.565  1.00  0.00    -0.083 Cl
ENDBRANCH   8  16
BRANCH   7  24
ATOM     24  C   UNL     1      80.920 123.824 116.872  1.00  0.00     0.340 C 
ATOM     25  O   UNL     1      79.946 123.629 116.084  1.00  0.00    -0.246 OA
BRANCH  24  26
ATOM     26  O   UNL     1      80.570 124.218 118.154  1.00  0.00    -0.465 OA
ATOM     27  C   UNL     1      80.749 123.393 119.287  1.00  0.00     0.282 C 
ENDBRANCH  24  26
ENDBRANCH   7  24
TORSDOF 6
ENDMDL
