MODEL 1
REMARK VINA RESULT:      -5.1      0.000      0.000
REMARK SMILES CNCC[C@H](Oc1cccc2ccccc12)c1cccs1
REMARK SMILES IDX 4 1 3 2 2 3 1 4 5 6 6 7 7 8 8 9 16 10 9 11 15 12 11 13 10 14
REMARK SMILES IDX 14 15 12 16 13 17 17 18 18 19 21 20 19 21 20 22
REMARK H PARENT 2 5
ROOT
ATOM      1  C   UNL     1     104.563 115.979  95.079  1.00  0.00     0.066 C 
ENDROOT
BRANCH   1   2
ATOM      2  C   UNL     1     104.034 117.264  94.616  1.00  0.00     0.085 C 
BRANCH   2   3
ATOM      3  N   UNL     1     103.750 118.318  95.481  1.00  0.00    -0.320 NA
ATOM      4  C   UNL     1     102.731 119.246  95.202  1.00  0.00     0.101 C 
ATOM      5  H   UNL     1     103.996 118.249  96.469  1.00  0.00     0.122 HD
ENDBRANCH   2   3
ENDBRANCH   1   2
BRANCH   1   6
ATOM      6  C   UNL     1     104.173 114.697  94.450  1.00  0.00     0.215 C 
BRANCH   6   7
ATOM      7  O   UNL     1     104.339 113.529  95.185  1.00  0.00    -0.484 OA
BRANCH   7   8
ATOM      8  C   UNL     1     103.407 112.521  95.213  1.00  0.00     0.128 A 
ATOM      9  C   UNL     1     102.353 112.420  94.361  1.00  0.00     0.047 A 
ATOM     10  C   UNL     1     103.578 111.531  96.201  1.00  0.00     0.024 A 
ATOM     11  C   UNL     1     101.469 111.347  94.485  1.00  0.00     0.004 A 
ATOM     12  C   UNL     1     104.652 111.618  97.071  1.00  0.00     0.012 A 
ATOM     13  C   UNL     1     102.714 110.461  96.339  1.00  0.00    -0.015 A 
ATOM     14  C   UNL     1     101.638 110.385  95.448  1.00  0.00     0.009 A 
ATOM     15  C   UNL     1     104.820 110.646  98.032  1.00  0.00     0.001 A 
ATOM     16  C   UNL     1     102.889 109.493  97.304  1.00  0.00     0.009 A 
ATOM     17  C   UNL     1     103.952 109.583  98.163  1.00  0.00     0.001 A 
ENDBRANCH   7   8
ENDBRANCH   6   7
BRANCH   6  18
ATOM     18  C   UNL     1     105.021 114.600  93.191  1.00  0.00     0.045 A 
ATOM     19  C   UNL     1     106.345 114.777  93.008  1.00  0.00     0.019 A 
ATOM     20  S   UNL     1     104.440 114.204  91.558  1.00  0.00    -0.145 S 
ATOM     21  C   UNL     1     106.886 114.639  91.803  1.00  0.00     0.012 A 
ATOM     22  C   UNL     1     106.042 114.312  90.770  1.00  0.00     0.065 A 
ENDBRANCH   6  18
ENDBRANCH   1   6
TORSDOF 6
ENDMDL
MODEL 2
REMARK VINA RESULT:      -5.0      3.337      5.606
REMARK SMILES CNCC[C@H](Oc1cccc2ccccc12)c1cccs1
REMARK SMILES IDX 4 1 3 2 2 3 1 4 5 6 6 7 7 8 8 9 16 10 9 11 15 12 11 13 10 14
REMARK SMILES IDX 14 15 12 16 13 17 17 18 18 19 21 20 19 21 20 22
REMARK H PARENT 2 5
ROOT
ATOM      1  C   UNL     1     105.073 111.083  97.284  1.00  0.00     0.066 C 
ENDROOT
BRANCH   1   2
ATOM      2  C   UNL     1     105.565 110.159  96.260  1.00  0.00     0.085 C 
BRANCH   2   3
ATOM      3  N   UNL     1     104.893 108.988  95.917  1.00  0.00    -0.320 NA
ATOM      4  C   UNL     1     104.420 108.767  94.611  1.00  0.00     0.101 C 
ATOM      5  H   UNL     1     105.039 108.136  96.461  1.00  0.00     0.122 HD
ENDBRANCH   2   3
ENDBRANCH   1   2
BRANCH   1   6
ATOM      6  C   UNL     1     103.693 111.618  97.260  1.00  0.00     0.215 C 
BRANCH   6   7
ATOM      7  O   UNL     1     102.641 110.714  97.164  1.00  0.00    -0.484 OA
BRANCH   7   8
ATOM      8  C   UNL     1     102.212 109.945  98.218  1.00  0.00     0.128 A 
ATOM      9  C   UNL     1     102.935 109.709  99.345  1.00  0.00     0.047 A 
ATOM     10  C   UNL     1     100.930 109.374  98.102  1.00  0.00     0.024 A 
ATOM     11  C   UNL     1     102.394 108.910 100.353  1.00  0.00     0.004 A 
ATOM     12  C   UNL     1     100.181 109.613  96.962  1.00  0.00     0.012 A 
ATOM     13  C   UNL     1     100.377 108.581  99.090  1.00  0.00    -0.015 A 
ATOM     14  C   UNL     1     101.145 108.355 100.237  1.00  0.00     0.009 A 
ATOM     15  C   UNL     1      98.925 109.058  96.854  1.00  0.00     0.001 A 
ATOM     16  C   UNL     1      99.119 108.029  98.973  1.00  0.00     0.009 A 
ATOM     17  C   UNL     1      98.382 108.267  97.843  1.00  0.00     0.001 A 
ENDBRANCH   7   8
ENDBRANCH   6   7
BRANCH   6  18
ATOM     18  C   UNL     1     103.646 112.542  96.053  1.00  0.00     0.045 A 
ATOM     19  C   UNL     1     104.246 113.730  95.833  1.00  0.00     0.019 A 
ATOM     20  S   UNL     1     102.738 112.267  94.550  1.00  0.00    -0.145 S 
ATOM     21  C   UNL     1     104.066 114.377  94.688  1.00  0.00     0.012 A 
ATOM     22  C   UNL     1     103.251 113.784  93.753  1.00  0.00     0.065 A 
ENDBRANCH   6  18
ENDBRANCH   1   6
TORSDOF 6
ENDMDL
MODEL 3
REMARK VINA RESULT:      -5.0      3.008      5.236
REMARK SMILES CNCC[C@H](Oc1cccc2ccccc12)c1cccs1
REMARK SMILES IDX 4 1 3 2 2 3 1 4 5 6 6 7 7 8 8 9 16 10 9 11 15 12 11 13 10 14
REMARK SMILES IDX 14 15 12 16 13 17 17 18 18 19 21 20 19 21 20 22
REMARK H PARENT 2 5
ROOT
ATOM      1  C   UNL     1     103.090 110.959  93.801  1.00  0.00     0.066 C 
ENDROOT
BRANCH   1   2
ATOM      2  C   UNL     1     103.500 109.625  93.357  1.00  0.00     0.085 C 
BRANCH   2   3
ATOM      3  N   UNL     1     104.063 108.685  94.216  1.00  0.00    -0.320 NA
ATOM      4  C   UNL     1     104.507 107.434  93.751  1.00  0.00     0.101 C 
ATOM      5  H   UNL     1     104.497 108.985  95.091  1.00  0.00     0.122 HD
ENDBRANCH   2   3
ENDBRANCH   1   2
BRANCH   1   6
ATOM      6  C   UNL     1     103.524 111.521  95.099  1.00  0.00     0.215 C 
BRANCH   6   7
ATOM      7  O   UNL     1     102.681 111.370  96.194  1.00  0.00    -0.484 OA
BRANCH   7   8
ATOM      8  C   UNL     1     103.092 110.836  97.391  1.00  0.00     0.128 A 
ATOM      9  C   UNL     1     104.313 111.048  97.952  1.00  0.00     0.047 A 
ATOM     10  C   UNL     1     102.167 110.018  98.069  1.00  0.00     0.024 A 
ATOM     11  C   UNL     1     104.619 110.452  99.176  1.00  0.00     0.004 A 
ATOM     12  C   UNL     1     100.918 109.800  97.511  1.00  0.00     0.012 A 
ATOM     13  C   UNL     1     102.452 109.420  99.282  1.00  0.00    -0.015 A 
ATOM     14  C   UNL     1     103.716 109.656  99.833  1.00  0.00     0.009 A 
ATOM     15  C   UNL     1     100.013 109.004  98.178  1.00  0.00     0.001 A 
ATOM     16  C   UNL     1     101.540 108.624  99.942  1.00  0.00     0.009 A 
ATOM     17  C   UNL     1     100.306 108.411  99.388  1.00  0.00     0.001 A 
ENDBRANCH   7   8
ENDBRANCH   6   7
BRANCH   6  18
ATOM     18  C   UNL     1     103.719 113.007  94.843  1.00  0.00     0.045 A 
ATOM     19  C   UNL     1     104.257 113.969  95.619  1.00  0.00     0.019 A 
ATOM     20  S   UNL     1     103.260 113.892  93.370  1.00  0.00    -0.145 S 
ATOM     21  C   UNL     1     104.331 115.224  95.189  1.00  0.00     0.012 A 
ATOM     22  C   UNL     1     103.838 115.487  93.934  1.00  0.00     0.065 A 
ENDBRANCH   6  18
ENDBRANCH   1   6
TORSDOF 6
ENDMDL
MODEL 4
REMARK VINA RESULT:      -4.9      2.360      3.398
REMARK SMILES CNCC[C@H](Oc1cccc2ccccc12)c1cccs1
REMARK SMILES IDX 4 1 3 2 2 3 1 4 5 6 6 7 7 8 8 9 16 10 9 11 15 12 11 13 10 14
REMARK SMILES IDX 14 15 12 16 13 17 17 18 18 19 21 20 19 21 20 22
REMARK H PARENT 2 5
ROOT
ATOM      1  C   UNL     1     102.279 113.731  92.237  1.00  0.00     0.066 C 
ENDROOT
BRANCH   1   2
ATOM      2  C   UNL     1     100.917 114.075  92.648  1.00  0.00     0.085 C 
BRANCH   2   3
ATOM      3  N   UNL     1     100.261 113.432  93.695  1.00  0.00    -0.320 NA
ATOM      4  C   UNL     1      98.867 113.246  93.687  1.00  0.00     0.101 C 
ATOM      5  H   UNL     1     100.768 112.778  94.292  1.00  0.00     0.122 HD
ENDBRANCH   2   3
ENDBRANCH   1   2
BRANCH   1   6
ATOM      6  C   UNL     1     103.306 113.294  93.209  1.00  0.00     0.215 C 
BRANCH   6   7
ATOM      7  O   UNL     1     102.912 112.458  94.247  1.00  0.00    -0.484 OA
BRANCH   7   8
ATOM      8  C   UNL     1     103.346 111.161  94.374  1.00  0.00     0.128 A 
ATOM      9  C   UNL     1     103.356 110.248  93.366  1.00  0.00     0.047 A 
ATOM     10  C   UNL     1     103.813 110.773  95.645  1.00  0.00     0.024 A 
ATOM     11  C   UNL     1     103.823 108.957  93.613  1.00  0.00     0.004 A 
ATOM     12  C   UNL     1     103.814 111.696  96.679  1.00  0.00     0.012 A 
ATOM     13  C   UNL     1     104.279 109.499  95.909  1.00  0.00    -0.015 A 
ATOM     14  C   UNL     1     104.276 108.582  94.853  1.00  0.00     0.009 A 
ATOM     15  C   UNL     1     104.276 111.315  97.919  1.00  0.00     0.001 A 
ATOM     16  C   UNL     1     104.739 109.126  97.154  1.00  0.00     0.009 A 
ATOM     17  C   UNL     1     104.739 110.041  98.174  1.00  0.00     0.001 A 
ENDBRANCH   7   8
ENDBRANCH   6   7
BRANCH   6  18
ATOM     18  C   UNL     1     103.857 114.579  93.808  1.00  0.00     0.045 A 
ATOM     19  C   UNL     1     104.270 114.857  95.061  1.00  0.00     0.019 A 
ATOM     20  S   UNL     1     104.107 116.118  92.953  1.00  0.00    -0.145 S 
ATOM     21  C   UNL     1     104.725 116.066  95.371  1.00  0.00     0.012 A 
ATOM     22  C   UNL     1     104.751 117.003  94.367  1.00  0.00     0.065 A 
ENDBRANCH   6  18
ENDBRANCH   1   6
TORSDOF 6
ENDMDL
MODEL 5
REMARK VINA RESULT:      -4.9      4.792      7.141
REMARK SMILES CNCC[C@H](Oc1cccc2ccccc12)c1cccs1
REMARK SMILES IDX 4 1 3 2 2 3 1 4 5 6 6 7 7 8 8 9 16 10 9 11 15 12 11 13 10 14
REMARK SMILES IDX 14 15 12 16 13 17 17 18 18 19 21 20 19 21 20 22
REMARK H PARENT 2 5
ROOT
ATOM      1  C   UNL     1      98.362 108.743  96.469  1.00  0.00     0.066 C 
ENDROOT
BRANCH   1   2
ATOM      2  C   UNL     1      97.877 110.035  95.980  1.00  0.00     0.085 C 
BRANCH   2   3
ATOM      3  N   UNL     1      98.726 111.018  95.477  1.00  0.00    -0.320 NA
ATOM      4  C   UNL     1      99.156 111.004  94.138  1.00  0.00     0.101 C 
ATOM      5  H   UNL     1      98.767 111.936  95.921  1.00  0.00     0.122 HD
ENDBRANCH   2   3
ENDBRANCH   1   2
BRANCH   1   6
ATOM      6  C   UNL     1      99.623 108.617  97.233  1.00  0.00     0.215 C 
BRANCH   6   7
ATOM      7  O   UNL     1     100.343 109.774  97.506  1.00  0.00    -0.484 OA
BRANCH   7   8
ATOM      8  C   UNL     1     101.512 109.780  98.227  1.00  0.00     0.128 A 
ATOM      9  C   UNL     1     101.644 109.283  99.486  1.00  0.00     0.047 A 
ATOM     10  C   UNL     1     102.640 110.343  97.598  1.00  0.00     0.024 A 
ATOM     11  C   UNL     1     102.885 109.343 100.121  1.00  0.00     0.004 A 
ATOM     12  C   UNL     1     102.519 110.847  96.313  1.00  0.00     0.012 A 
ATOM     13  C   UNL     1     103.877 110.411  98.211  1.00  0.00    -0.015 A 
ATOM     14  C   UNL     1     103.981 109.892  99.506  1.00  0.00     0.009 A 
ATOM     15  C   UNL     1     103.625 111.391  95.699  1.00  0.00     0.001 A 
ATOM     16  C   UNL     1     104.978 110.958  97.588  1.00  0.00     0.009 A 
ATOM     17  C   UNL     1     104.855 111.456  96.318  1.00  0.00     0.001 A 
ENDBRANCH   7   8
ENDBRANCH   6   7
BRANCH   6  18
ATOM     18  C   UNL     1     100.498 107.688  96.405  1.00  0.00     0.045 A 
ATOM     19  C   UNL     1     100.873 107.757  95.112  1.00  0.00     0.019 A 
ATOM     20  S   UNL     1     101.285 106.198  96.971  1.00  0.00    -0.145 S 
ATOM     21  C   UNL     1     101.656 106.824  94.583  1.00  0.00     0.012 A 
ATOM     22  C   UNL     1     102.056 105.800  95.407  1.00  0.00     0.065 A 
ENDBRANCH   6  18
ENDBRANCH   1   6
TORSDOF 6
ENDMDL
MODEL 6
REMARK VINA RESULT:      -4.9     12.780     15.844
REMARK SMILES CNCC[C@H](Oc1cccc2ccccc12)c1cccs1
REMARK SMILES IDX 4 1 3 2 2 3 1 4 5 6 6 7 7 8 8 9 16 10 9 11 15 12 11 13 10 14
REMARK SMILES IDX 14 15 12 16 13 17 17 18 18 19 21 20 19 21 20 22
REMARK H PARENT 2 5
ROOT
ATOM      1  C   UNL     1     104.878 128.061 102.938  1.00  0.00     0.066 C 
ENDROOT
BRANCH   1   2
ATOM      2  C   UNL     1     106.234 128.574 102.736  1.00  0.00     0.085 C 
BRANCH   2   3
ATOM      3  N   UNL     1     107.098 128.060 101.771  1.00  0.00    -0.320 NA
ATOM      4  C   UNL     1     108.474 127.911 102.019  1.00  0.00     0.101 C 
ATOM      5  H   UNL     1     106.737 127.458 101.030  1.00  0.00     0.122 HD
ENDBRANCH   2   3
ENDBRANCH   1   2
BRANCH   1   6
ATOM      6  C   UNL     1     103.883 128.021 101.843  1.00  0.00     0.215 C 
BRANCH   6   7
ATOM      7  O   UNL     1     104.326 127.694 100.567  1.00  0.00    -0.484 OA
BRANCH   7   8
ATOM      8  C   UNL     1     103.792 126.668  99.826  1.00  0.00     0.128 A 
ATOM      9  C   UNL     1     102.569 126.115 100.042  1.00  0.00     0.047 A 
ATOM     10  C   UNL     1     104.584 126.170  98.772  1.00  0.00     0.024 A 
ATOM     11  C   UNL     1     102.130 125.076  99.222  1.00  0.00     0.004 A 
ATOM     12  C   UNL     1     105.830 126.730  98.538  1.00  0.00     0.012 A 
ATOM     13  C   UNL     1     104.167 125.142  97.949  1.00  0.00    -0.015 A 
ATOM     14  C   UNL     1     102.904 124.593  98.197  1.00  0.00     0.009 A 
ATOM     15  C   UNL     1     106.600 126.245  97.504  1.00  0.00     0.001 A 
ATOM     16  C   UNL     1     104.945 124.663  96.917  1.00  0.00     0.009 A 
ATOM     17  C   UNL     1     106.177 125.218  96.689  1.00  0.00     0.001 A 
ENDBRANCH   7   8
ENDBRANCH   6   7
BRANCH   6  18
ATOM     18  C   UNL     1     103.282 129.417 101.802  1.00  0.00     0.045 A 
ATOM     19  C   UNL     1     102.665 130.135 102.761  1.00  0.00     0.019 A 
ATOM     20  S   UNL     1     103.244 130.507 100.398  1.00  0.00    -0.145 S 
ATOM     21  C   UNL     1     102.210 131.357 102.505  1.00  0.00     0.012 A 
ATOM     22  C   UNL     1     102.396 131.842 101.234  1.00  0.00     0.065 A 
ENDBRANCH   6  18
ENDBRANCH   1   6
TORSDOF 6
ENDMDL
MODEL 7
REMARK VINA RESULT:      -4.9     11.216     14.293
REMARK SMILES CNCC[C@H](Oc1cccc2ccccc12)c1cccs1
REMARK SMILES IDX 4 1 3 2 2 3 1 4 5 6 6 7 7 8 8 9 16 10 9 11 15 12 11 13 10 14
REMARK SMILES IDX 14 15 12 16 13 17 17 18 18 19 21 20 19 21 20 22
REMARK H PARENT 2 5
ROOT
ATOM      1  C   UNL     1     106.945 127.050  99.638  1.00  0.00     0.066 C 
ENDROOT
BRANCH   1   2
ATOM      2  C   UNL     1     107.621 127.532 100.844  1.00  0.00     0.085 C 
BRANCH   2   3
ATOM      3  N   UNL     1     108.826 126.998 101.297  1.00  0.00    -0.320 NA
ATOM      4  C   UNL     1     110.055 127.627 101.031  1.00  0.00     0.101 C 
ATOM      5  H   UNL     1     108.838 126.376 102.106  1.00  0.00     0.122 HD
ENDBRANCH   2   3
ENDBRANCH   1   2
BRANCH   1   6
ATOM      6  C   UNL     1     105.514 126.672  99.638  1.00  0.00     0.215 C 
BRANCH   6   7
ATOM      7  O   UNL     1     104.871 126.538  98.414  1.00  0.00    -0.484 OA
BRANCH   7   8
ATOM      8  C   UNL     1     104.512 125.323  97.882  1.00  0.00     0.128 A 
ATOM      9  C   UNL     1     105.360 124.488  97.225  1.00  0.00     0.047 A 
ATOM     10  C   UNL     1     103.167 124.936  98.042  1.00  0.00     0.024 A 
ATOM     11  C   UNL     1     104.882 123.276  96.728  1.00  0.00     0.004 A 
ATOM     12  C   UNL     1     102.294 125.776  98.714  1.00  0.00     0.012 A 
ATOM     13  C   UNL     1     102.675 123.739  97.556  1.00  0.00    -0.015 A 
ATOM     14  C   UNL     1     103.571 122.901  96.885  1.00  0.00     0.009 A 
ATOM     15  C   UNL     1     100.981 125.392  98.874  1.00  0.00     0.001 A 
ATOM     16  C   UNL     1     101.359 123.364  97.720  1.00  0.00     0.009 A 
ATOM     17  C   UNL     1     100.499 124.197  98.385  1.00  0.00     0.001 A 
ENDBRANCH   7   8
ENDBRANCH   6   7
BRANCH   6  18
ATOM     18  C   UNL     1     104.815 127.764 100.433  1.00  0.00     0.045 A 
ATOM     19  C   UNL     1     104.442 129.009 100.075  1.00  0.00     0.019 A 
ATOM     20  S   UNL     1     104.289 127.661 102.129  1.00  0.00    -0.145 S 
ATOM     21  C   UNL     1     103.833 129.809 100.942  1.00  0.00     0.012 A 
ATOM     22  C   UNL     1     103.607 129.313 102.203  1.00  0.00     0.065 A 
ENDBRANCH   6  18
ENDBRANCH   1   6
TORSDOF 6
ENDMDL
MODEL 8
REMARK VINA RESULT:      -4.9      1.982      2.985
REMARK SMILES CNCC[C@H](Oc1cccc2ccccc12)c1cccs1
REMARK SMILES IDX 4 1 3 2 2 3 1 4 5 6 6 7 7 8 8 9 16 10 9 11 15 12 11 13 10 14
REMARK SMILES IDX 14 15 12 16 13 17 17 18 18 19 21 20 19 21 20 22
REMARK H PARENT 2 5
ROOT
ATOM      1  C   UNL     1     104.772 114.570  94.493  1.00  0.00     0.066 C 
ENDROOT
BRANCH   1   2
ATOM      2  C   UNL     1     104.470 115.497  95.586  1.00  0.00     0.085 C 
BRANCH   2   3
ATOM      3  N   UNL     1     103.866 116.735  95.379  1.00  0.00    -0.320 NA
ATOM      4  C   UNL     1     103.655 117.244  94.085  1.00  0.00     0.101 C 
ATOM      5  H   UNL     1     103.249 117.128  96.091  1.00  0.00     0.122 HD
ENDBRANCH   2   3
ENDBRANCH   1   2
BRANCH   1   6
ATOM      6  C   UNL     1     104.187 113.213  94.431  1.00  0.00     0.215 C 
BRANCH   6   7
ATOM      7  O   UNL     1     104.977 112.139  94.824  1.00  0.00    -0.484 OA
BRANCH   7   8
ATOM      8  C   UNL     1     104.712 111.378  95.936  1.00  0.00     0.128 A 
ATOM      9  C   UNL     1     104.561 111.874  97.193  1.00  0.00     0.047 A 
ATOM     10  C   UNL     1     104.590 109.989  95.737  1.00  0.00     0.024 A 
ATOM     11  C   UNL     1     104.292 111.002  98.248  1.00  0.00     0.004 A 
ATOM     12  C   UNL     1     104.735 109.471  94.459  1.00  0.00     0.012 A 
ATOM     13  C   UNL     1     104.323 109.109  96.769  1.00  0.00    -0.015 A 
ATOM     14  C   UNL     1     104.174 109.650  98.051  1.00  0.00     0.009 A 
ATOM     15  C   UNL     1     104.610 108.113  94.266  1.00  0.00     0.001 A 
ATOM     16  C   UNL     1     104.200 107.751  96.566  1.00  0.00     0.009 A 
ATOM     17  C   UNL     1     104.345 107.243  95.302  1.00  0.00     0.001 A 
ENDBRANCH   7   8
ENDBRANCH   6   7
BRANCH   6  18
ATOM     18  C   UNL     1     103.796 113.016  92.975  1.00  0.00     0.045 A 
ATOM     19  C   UNL     1     103.010 112.086  92.394  1.00  0.00     0.019 A 
ATOM     20  S   UNL     1     104.307 114.022  91.600  1.00  0.00    -0.145 S 
ATOM     21  C   UNL     1     102.799 112.102  91.083  1.00  0.00     0.012 A 
ATOM     22  C   UNL     1     103.411 113.096  90.360  1.00  0.00     0.065 A 
ENDBRANCH   6  18
ENDBRANCH   1   6
TORSDOF 6
ENDMDL
MODEL 9
REMARK VINA RESULT:      -4.8      3.459      6.963
REMARK SMILES CNCC[C@H](Oc1cccc2ccccc12)c1cccs1
REMARK SMILES IDX 4 1 3 2 2 3 1 4 5 6 6 7 7 8 8 9 16 10 9 11 15 12 11 13 10 14
REMARK SMILES IDX 14 15 12 16 13 17 17 18 18 19 21 20 19 21 20 22
REMARK H PARENT 2 5
ROOT
ATOM      1  C   UNL     1     104.945 109.975  95.370  1.00  0.00     0.066 C 
ENDROOT
BRANCH   1   2
ATOM      2  C   UNL     1     105.015 108.544  95.066  1.00  0.00     0.085 C 
BRANCH   2   3
ATOM      3  N   UNL     1     104.831 108.037  93.781  1.00  0.00    -0.320 NA
ATOM      4  C   UNL     1     104.904 106.658  93.517  1.00  0.00     0.101 C 
ATOM      5  H   UNL     1     104.297 108.569  93.093  1.00  0.00     0.122 HD
ENDBRANCH   2   3
ENDBRANCH   1   2
BRANCH   1   6
ATOM      6  C   UNL     1     103.684 110.627  95.788  1.00  0.00     0.215 C 
BRANCH   6   7
ATOM      7  O   UNL     1     103.602 112.012  95.701  1.00  0.00    -0.484 OA
BRANCH   7   8
ATOM      8  C   UNL     1     103.217 112.672  94.559  1.00  0.00     0.128 A 
ATOM      9  C   UNL     1     102.497 112.113  93.551  1.00  0.00     0.047 A 
ATOM     10  C   UNL     1     103.605 114.022  94.449  1.00  0.00     0.024 A 
ATOM     11  C   UNL     1     102.162 112.884  92.437  1.00  0.00     0.004 A 
ATOM     12  C   UNL     1     104.334 114.605  95.474  1.00  0.00     0.012 A 
ATOM     13  C   UNL     1     103.283 114.801  93.355  1.00  0.00    -0.015 A 
ATOM     14  C   UNL     1     102.542 114.199  92.333  1.00  0.00     0.009 A 
ATOM     15  C   UNL     1     104.707 115.926  95.366  1.00  0.00     0.001 A 
ATOM     16  C   UNL     1     103.661 116.123  93.255  1.00  0.00     0.009 A 
ATOM     17  C   UNL     1     104.382 116.696  94.269  1.00  0.00     0.001 A 
ENDBRANCH   7   8
ENDBRANCH   6   7
BRANCH   6  18
ATOM     18  C   UNL     1     103.490 110.223  97.241  1.00  0.00     0.045 A 
ATOM     19  C   UNL     1     104.344 110.259  98.283  1.00  0.00     0.019 A 
ATOM     20  S   UNL     1     102.005 109.565  97.963  1.00  0.00    -0.145 S 
ATOM     21  C   UNL     1     103.960 109.852  99.488  1.00  0.00     0.012 A 
ATOM     22  C   UNL     1     102.669 109.399  99.615  1.00  0.00     0.065 A 
ENDBRANCH   6  18
ENDBRANCH   1   6
TORSDOF 6
ENDMDL
