MODEL 1
REMARK VINA RESULT:      -5.8      0.000      0.000
REMARK SMILES O=C(CCC[NH+]1CCC(O)(c2ccc(Cl)cc2)CC1)c1ccc(F)cc1
REMARK SMILES IDX 4 1 3 2 2 3 1 4 20 5 21 6 26 7 22 8 25 9 23 10 24 11 5 12
REMARK SMILES IDX 6 13 7 14 19 15 8 16 18 17 9 18 10 20 11 22 12 23 17 24
REMARK SMILES IDX 13 25 16 26 14 27 15 28
REMARK H PARENT 6 19 10 21
ROOT
ATOM      1  C   UNL     1     -16.499  30.478 -23.508  1.00  0.00     0.070 C 
ENDROOT
BRANCH   1   2
ATOM      2  C   UNL     1     -16.550  31.364 -24.733  1.00  0.00     0.087 C 
BRANCH   2   3
ATOM      3  C   UNL     1     -15.469  32.349 -24.809  1.00  0.00     0.163 C 
ATOM      4  O   UNL     1     -15.062  32.959 -23.787  1.00  0.00    -0.294 OA
BRANCH   3   5
ATOM      5  C   UNL     1     -14.792  32.685 -26.079  1.00  0.00     0.018 A 
ATOM      6  C   UNL     1     -15.501  32.716 -27.267  1.00  0.00     0.015 A 
ATOM      7  C   UNL     1     -13.451  32.972 -26.111  1.00  0.00     0.015 A 
ATOM      8  C   UNL     1     -14.865  33.029 -28.444  1.00  0.00     0.040 A 
ATOM      9  C   UNL     1     -12.811  33.285 -27.281  1.00  0.00     0.040 A 
ATOM     10  C   UNL     1     -13.523  33.312 -28.448  1.00  0.00     0.123 A 
ATOM     11  F   UNL     1     -12.848  33.627 -29.599  1.00  0.00    -0.207 F 
ENDBRANCH   3   5
ENDBRANCH   2   3
ENDBRANCH   1   2
BRANCH   1  12
ATOM     12  C   UNL     1     -17.803  30.586 -22.795  1.00  0.00     0.262 C 
BRANCH  12  13
ATOM     13  N   UNL     1     -17.649  30.929 -21.387  1.00  0.00    -0.335 N 
ATOM     14  C   UNL     1     -17.584  32.342 -21.172  1.00  0.00     0.265 C 
ATOM     15  C   UNL     1     -18.704  30.348 -20.621  1.00  0.00     0.265 C 
ATOM     16  C   UNL     1     -18.829  33.033 -21.658  1.00  0.00     0.102 C 
ATOM     17  C   UNL     1     -19.761  31.252 -20.145  1.00  0.00     0.102 C 
ATOM     18  C   UNL     1     -20.014  32.497 -20.911  1.00  0.00     0.100 C 
ATOM     19  H   UNL     1     -16.696  30.541 -21.120  1.00  0.00     0.348 HD
BRANCH  18  20
ATOM     20  O   UNL     1     -20.365  33.497 -19.971  1.00  0.00    -0.385 OA
ATOM     21  H   UNL     1     -19.568  33.640 -19.401  1.00  0.00     0.211 HD
ENDBRANCH  18  20
BRANCH  18  22
ATOM     22  C   UNL     1     -21.223  32.395 -21.803  1.00  0.00    -0.016 A 
ATOM     23  C   UNL     1     -22.496  32.241 -21.296  1.00  0.00     0.008 A 
ATOM     24  C   UNL     1     -21.136  32.448 -23.177  1.00  0.00     0.008 A 
ATOM     25  C   UNL     1     -23.626  32.143 -22.076  1.00  0.00     0.021 A 
ATOM     26  C   UNL     1     -22.255  32.351 -23.980  1.00  0.00     0.021 A 
ATOM     27  C   UNL     1     -23.498  32.199 -23.429  1.00  0.00     0.041 A 
ATOM     28  Cl  UNL     1     -24.920  32.078 -24.437  1.00  0.00    -0.084 Cl
ENDBRANCH  18  22
ENDBRANCH  12  13
ENDBRANCH   1  12
TORSDOF 7
ENDMDL
MODEL 2
REMARK VINA RESULT:      -5.8      1.661      2.228
REMARK SMILES O=C(CCC[NH+]1CCC(O)(c2ccc(Cl)cc2)CC1)c1ccc(F)cc1
REMARK SMILES IDX 4 1 3 2 2 3 1 4 20 5 21 6 26 7 22 8 25 9 23 10 24 11 5 12
REMARK SMILES IDX 6 13 7 14 19 15 8 16 18 17 9 18 10 20 11 22 12 23 17 24
REMARK SMILES IDX 13 25 16 26 14 27 15 28
REMARK H PARENT 6 19 10 21
ROOT
ATOM      1  C   UNL     1     -17.824  32.317 -25.065  1.00  0.00     0.070 C 
ENDROOT
BRANCH   1   2
ATOM      2  C   UNL     1     -17.501  33.185 -26.261  1.00  0.00     0.087 C 
BRANCH   2   3
ATOM      3  C   UNL     1     -16.687  32.524 -27.284  1.00  0.00     0.163 C 
ATOM      4  O   UNL     1     -17.183  31.681 -28.075  1.00  0.00    -0.294 OA
BRANCH   3   5
ATOM      5  C   UNL     1     -15.246  32.804 -27.451  1.00  0.00     0.018 A 
ATOM      6  C   UNL     1     -14.414  32.887 -26.349  1.00  0.00     0.015 A 
ATOM      7  C   UNL     1     -14.701  32.987 -28.696  1.00  0.00     0.015 A 
ATOM      8  C   UNL     1     -13.074  33.147 -26.511  1.00  0.00     0.040 A 
ATOM      9  C   UNL     1     -13.367  33.246 -28.866  1.00  0.00     0.040 A 
ATOM     10  C   UNL     1     -12.555  33.326 -27.768  1.00  0.00     0.123 A 
ATOM     11  F   UNL     1     -11.226  33.590 -27.978  1.00  0.00    -0.207 F 
ENDBRANCH   3   5
ENDBRANCH   2   3
ENDBRANCH   1   2
BRANCH   1  12
ATOM     12  C   UNL     1     -17.243  32.954 -23.850  1.00  0.00     0.262 C 
BRANCH  12  13
ATOM     13  N   UNL     1     -16.667  31.985 -22.926  1.00  0.00    -0.335 N 
ATOM     14  C   UNL     1     -16.561  32.496 -21.594  1.00  0.00     0.265 C 
ATOM     15  C   UNL     1     -17.425  30.777 -22.946  1.00  0.00     0.265 C 
ATOM     16  C   UNL     1     -17.905  32.884 -21.041  1.00  0.00     0.102 C 
ATOM     17  C   UNL     1     -18.297  30.514 -21.792  1.00  0.00     0.102 C 
ATOM     18  C   UNL     1     -18.793  31.676 -21.013  1.00  0.00     0.100 C 
ATOM     19  H   UNL     1     -15.672  31.844 -23.274  1.00  0.00     0.348 HD
BRANCH  18  20
ATOM     20  O   UNL     1     -18.852  31.268 -19.658  1.00  0.00    -0.385 OA
ATOM     21  H   UNL     1     -19.732  30.833 -19.531  1.00  0.00     0.211 HD
ENDBRANCH  18  20
BRANCH  18  22
ATOM     22  C   UNL     1     -20.217  32.035 -21.348  1.00  0.00    -0.016 A 
ATOM     23  C   UNL     1     -21.218  32.020 -20.400  1.00  0.00     0.008 A 
ATOM     24  C   UNL     1     -20.609  32.400 -22.618  1.00  0.00     0.008 A 
ATOM     25  C   UNL     1     -22.530  32.340 -20.665  1.00  0.00     0.021 A 
ATOM     26  C   UNL     1     -21.919  32.725 -22.908  1.00  0.00     0.021 A 
ATOM     27  C   UNL     1     -22.878  32.695 -21.931  1.00  0.00     0.041 A 
ATOM     28  Cl  UNL     1     -24.538  33.108 -22.289  1.00  0.00    -0.084 Cl
ENDBRANCH  18  22
ENDBRANCH  12  13
ENDBRANCH   1  12
TORSDOF 7
ENDMDL
MODEL 3
REMARK VINA RESULT:      -5.8      4.112      6.989
REMARK SMILES O=C(CCC[NH+]1CCC(O)(c2ccc(Cl)cc2)CC1)c1ccc(F)cc1
REMARK SMILES IDX 4 1 3 2 2 3 1 4 20 5 21 6 26 7 22 8 25 9 23 10 24 11 5 12
REMARK SMILES IDX 6 13 7 14 19 15 8 16 18 17 9 18 10 20 11 22 12 23 17 24
REMARK SMILES IDX 13 25 16 26 14 27 15 28
REMARK H PARENT 6 19 10 21
ROOT
ATOM      1  C   UNL     1     -16.028  32.585 -28.371  1.00  0.00     0.070 C 
ENDROOT
BRANCH   1   2
ATOM      2  C   UNL     1     -17.527  32.408 -28.463  1.00  0.00     0.087 C 
BRANCH   2   3
ATOM      3  C   UNL     1     -18.301  33.492 -27.854  1.00  0.00     0.163 C 
ATOM      4  O   UNL     1     -18.719  34.464 -28.535  1.00  0.00    -0.294 OA
BRANCH   3   5
ATOM      5  C   UNL     1     -18.638  33.513 -26.415  1.00  0.00     0.018 A 
ATOM      6  C   UNL     1     -18.191  34.541 -25.604  1.00  0.00     0.015 A 
ATOM      7  C   UNL     1     -19.399  32.520 -25.853  1.00  0.00     0.015 A 
ATOM      8  C   UNL     1     -18.508  34.554 -24.266  1.00  0.00     0.040 A 
ATOM      9  C   UNL     1     -19.719  32.527 -24.521  1.00  0.00     0.040 A 
ATOM     10  C   UNL     1     -19.271  33.549 -23.729  1.00  0.00     0.123 A 
ATOM     11  F   UNL     1     -19.609  33.519 -22.401  1.00  0.00    -0.207 F 
ENDBRANCH   3   5
ENDBRANCH   2   3
ENDBRANCH   1   2
BRANCH   1  12
ATOM     12  C   UNL     1     -15.729  34.044 -28.319  1.00  0.00     0.262 C 
BRANCH  12  13
ATOM     13  N   UNL     1     -14.308  34.322 -28.155  1.00  0.00    -0.335 N 
ATOM     14  C   UNL     1     -14.059  35.344 -27.184  1.00  0.00     0.265 C 
ATOM     15  C   UNL     1     -13.608  33.124 -27.821  1.00  0.00     0.265 C 
ATOM     16  C   UNL     1     -14.589  34.961 -25.830  1.00  0.00     0.102 C 
ATOM     17  C   UNL     1     -13.164  32.975 -26.428  1.00  0.00     0.102 C 
ATOM     18  C   UNL     1     -13.914  33.702 -25.374  1.00  0.00     0.100 C 
ATOM     19  H   UNL     1     -14.003  34.720 -29.093  1.00  0.00     0.348 HD
BRANCH  18  20
ATOM     20  O   UNL     1     -12.970  34.100 -24.396  1.00  0.00    -0.385 OA
ATOM     21  H   UNL     1     -12.751  33.292 -23.868  1.00  0.00     0.211 HD
ENDBRANCH  18  20
BRANCH  18  22
ATOM     22  C   UNL     1     -14.867  32.811 -24.620  1.00  0.00    -0.016 A 
ATOM     23  C   UNL     1     -15.235  33.070 -23.316  1.00  0.00     0.008 A 
ATOM     24  C   UNL     1     -15.429  31.686 -25.182  1.00  0.00     0.008 A 
ATOM     25  C   UNL     1     -16.101  32.282 -22.593  1.00  0.00     0.021 A 
ATOM     26  C   UNL     1     -16.300  30.880 -24.475  1.00  0.00     0.021 A 
ATOM     27  C   UNL     1     -16.635  31.179 -23.183  1.00  0.00     0.041 A 
ATOM     28  Cl  UNL     1     -17.739  30.166 -22.283  1.00  0.00    -0.084 Cl
ENDBRANCH  18  22
ENDBRANCH  12  13
ENDBRANCH   1  12
TORSDOF 7
ENDMDL
MODEL 4
REMARK VINA RESULT:      -5.8      1.394      1.835
REMARK SMILES O=C(CCC[NH+]1CCC(O)(c2ccc(Cl)cc2)CC1)c1ccc(F)cc1
REMARK SMILES IDX 4 1 3 2 2 3 1 4 20 5 21 6 26 7 22 8 25 9 23 10 24 11 5 12
REMARK SMILES IDX 6 13 7 14 19 15 8 16 18 17 9 18 10 20 11 22 12 23 17 24
REMARK SMILES IDX 13 25 16 26 14 27 15 28
REMARK H PARENT 6 19 10 21
ROOT
ATOM      1  C   UNL     1     -16.681  31.673 -25.268  1.00  0.00     0.070 C 
ENDROOT
BRANCH   1   2
ATOM      2  C   UNL     1     -15.305  32.212 -25.589  1.00  0.00     0.087 C 
BRANCH   2   3
ATOM      3  C   UNL     1     -15.278  33.175 -26.693  1.00  0.00     0.163 C 
ATOM      4  O   UNL     1     -15.977  34.221 -26.670  1.00  0.00    -0.294 OA
BRANCH   3   5
ATOM      5  C   UNL     1     -14.435  32.982 -27.891  1.00  0.00     0.018 A 
ATOM      6  C   UNL     1     -15.004  32.632 -29.102  1.00  0.00     0.015 A 
ATOM      7  C   UNL     1     -13.074  33.146 -27.832  1.00  0.00     0.015 A 
ATOM      8  C   UNL     1     -14.214  32.454 -30.213  1.00  0.00     0.040 A 
ATOM      9  C   UNL     1     -12.281  32.970 -28.934  1.00  0.00     0.040 A 
ATOM     10  C   UNL     1     -12.856  32.624 -30.126  1.00  0.00     0.123 A 
ATOM     11  F   UNL     1     -12.029  32.455 -31.206  1.00  0.00    -0.207 F 
ENDBRANCH   3   5
ENDBRANCH   2   3
ENDBRANCH   1   2
BRANCH   1  12
ATOM     12  C   UNL     1     -17.132  32.271 -23.980  1.00  0.00     0.262 C 
BRANCH  12  13
ATOM     13  N   UNL     1     -16.610  31.565 -22.817  1.00  0.00    -0.335 N 
ATOM     14  C   UNL     1     -16.565  32.392 -21.649  1.00  0.00     0.265 C 
ATOM     15  C   UNL     1     -17.375  30.386 -22.574  1.00  0.00     0.265 C 
ATOM     16  C   UNL     1     -17.932  32.897 -21.277  1.00  0.00     0.102 C 
ATOM     17  C   UNL     1     -18.305  30.413 -21.436  1.00  0.00     0.102 C 
ATOM     18  C   UNL     1     -18.830  31.730 -20.994  1.00  0.00     0.100 C 
ATOM     19  H   UNL     1     -15.600  31.347 -23.068  1.00  0.00     0.348 HD
BRANCH  18  20
ATOM     20  O   UNL     1     -18.959  31.671 -19.585  1.00  0.00    -0.385 OA
ATOM     21  H   UNL     1     -19.923  31.555 -19.394  1.00  0.00     0.211 HD
ENDBRANCH  18  20
BRANCH  18  22
ATOM     22  C   UNL     1     -20.233  31.987 -21.479  1.00  0.00    -0.016 A 
ATOM     23  C   UNL     1     -21.326  31.880 -20.645  1.00  0.00     0.008 A 
ATOM     24  C   UNL     1     -20.513  32.344 -22.780  1.00  0.00     0.008 A 
ATOM     25  C   UNL     1     -22.623  32.106 -21.048  1.00  0.00     0.021 A 
ATOM     26  C   UNL     1     -21.805  32.575 -23.207  1.00  0.00     0.021 A 
ATOM     27  C   UNL     1     -22.858  32.457 -22.341  1.00  0.00     0.041 A 
ATOM     28  Cl  UNL     1     -24.497  32.750 -22.872  1.00  0.00    -0.084 Cl
ENDBRANCH  18  22
ENDBRANCH  12  13
ENDBRANCH   1  12
TORSDOF 7
ENDMDL
MODEL 5
REMARK VINA RESULT:      -5.7      2.095      3.145
REMARK SMILES O=C(CCC[NH+]1CCC(O)(c2ccc(Cl)cc2)CC1)c1ccc(F)cc1
REMARK SMILES IDX 4 1 3 2 2 3 1 4 20 5 21 6 26 7 22 8 25 9 23 10 24 11 5 12
REMARK SMILES IDX 6 13 7 14 19 15 8 16 18 17 9 18 10 20 11 22 12 23 17 24
REMARK SMILES IDX 13 25 16 26 14 27 15 28
REMARK H PARENT 6 19 10 21
ROOT
ATOM      1  C   UNL     1     -17.334  32.752 -26.606  1.00  0.00     0.070 C 
ENDROOT
BRANCH   1   2
ATOM      2  C   UNL     1     -16.416  31.870 -27.423  1.00  0.00     0.087 C 
BRANCH   2   3
ATOM      3  C   UNL     1     -15.783  32.547 -28.557  1.00  0.00     0.163 C 
ATOM      4  O   UNL     1     -16.432  32.835 -29.596  1.00  0.00    -0.294 OA
BRANCH   3   5
ATOM      5  C   UNL     1     -14.357  32.933 -28.553  1.00  0.00     0.018 A 
ATOM      6  C   UNL     1     -13.559  32.685 -29.655  1.00  0.00     0.015 A 
ATOM      7  C   UNL     1     -13.793  33.544 -27.462  1.00  0.00     0.015 A 
ATOM      8  C   UNL     1     -12.232  33.046 -29.645  1.00  0.00     0.040 A 
ATOM      9  C   UNL     1     -12.473  33.907 -27.444  1.00  0.00     0.040 A 
ATOM     10  C   UNL     1     -11.694  33.656 -28.541  1.00  0.00     0.123 A 
ATOM     11  F   UNL     1     -10.376  34.031 -28.485  1.00  0.00    -0.207 F 
ENDBRANCH   3   5
ENDBRANCH   2   3
ENDBRANCH   1   2
BRANCH   1  12
ATOM     12  C   UNL     1     -17.782  31.983 -25.410  1.00  0.00     0.262 C 
BRANCH  12  13
ATOM     13  N   UNL     1     -16.670  31.510 -24.595  1.00  0.00    -0.335 N 
ATOM     14  C   UNL     1     -16.097  32.549 -23.795  1.00  0.00     0.265 C 
ATOM     15  C   UNL     1     -17.089  30.416 -23.781  1.00  0.00     0.265 C 
ATOM     16  C   UNL     1     -17.108  33.143 -22.853  1.00  0.00     0.102 C 
ATOM     17  C   UNL     1     -17.287  30.684 -22.350  1.00  0.00     0.102 C 
ATOM     18  C   UNL     1     -17.619  32.070 -21.938  1.00  0.00     0.100 C 
ATOM     19  H   UNL     1     -15.924  31.228 -25.299  1.00  0.00     0.348 HD
BRANCH  18  20
ATOM     20  O   UNL     1     -16.989  32.292 -20.689  1.00  0.00    -0.385 OA
ATOM     21  H   UNL     1     -16.429  31.496 -20.510  1.00  0.00     0.211 HD
ENDBRANCH  18  20
BRANCH  18  22
ATOM     22  C   UNL     1     -19.085  32.253 -21.645  1.00  0.00    -0.016 A 
ATOM     23  C   UNL     1     -20.048  32.143 -22.627  1.00  0.00     0.008 A 
ATOM     24  C   UNL     1     -19.558  32.541 -20.383  1.00  0.00     0.008 A 
ATOM     25  C   UNL     1     -21.396  32.303 -22.401  1.00  0.00     0.021 A 
ATOM     26  C   UNL     1     -20.906  32.707 -20.132  1.00  0.00     0.021 A 
ATOM     27  C   UNL     1     -21.823  32.587 -21.141  1.00  0.00     0.041 A 
ATOM     28  Cl  UNL     1     -23.530  32.793 -20.832  1.00  0.00    -0.084 Cl
ENDBRANCH  18  22
ENDBRANCH  12  13
ENDBRANCH   1  12
TORSDOF 7
ENDMDL
MODEL 6
REMARK VINA RESULT:      -5.7      3.114      4.515
REMARK SMILES O=C(CCC[NH+]1CCC(O)(c2ccc(Cl)cc2)CC1)c1ccc(F)cc1
REMARK SMILES IDX 4 1 3 2 2 3 1 4 20 5 21 6 26 7 22 8 25 9 23 10 24 11 5 12
REMARK SMILES IDX 6 13 7 14 19 15 8 16 18 17 9 18 10 20 11 22 12 23 17 24
REMARK SMILES IDX 13 25 16 26 14 27 15 28
REMARK H PARENT 6 19 10 21
ROOT
ATOM      1  C   UNL     1     -16.852  31.573 -27.419  1.00  0.00     0.070 C 
ENDROOT
BRANCH   1   2
ATOM      2  C   UNL     1     -16.452  32.727 -28.312  1.00  0.00     0.087 C 
BRANCH   2   3
ATOM      3  C   UNL     1     -15.402  32.404 -29.280  1.00  0.00     0.163 C 
ATOM      4  O   UNL     1     -15.635  31.685 -30.287  1.00  0.00    -0.294 OA
BRANCH   3   5
ATOM      5  C   UNL     1     -14.016  32.897 -29.140  1.00  0.00     0.018 A 
ATOM      6  C   UNL     1     -13.134  32.828 -30.204  1.00  0.00     0.015 A 
ATOM      7  C   UNL     1     -13.573  33.433 -27.958  1.00  0.00     0.015 A 
ATOM      8  C   UNL     1     -11.847  33.288 -30.066  1.00  0.00     0.040 A 
ATOM      9  C   UNL     1     -12.292  33.893 -27.813  1.00  0.00     0.040 A 
ATOM     10  C   UNL     1     -11.429  33.820 -28.873  1.00  0.00     0.123 A 
ATOM     11  F   UNL     1     -10.154  34.288 -28.689  1.00  0.00    -0.207 F 
ENDBRANCH   3   5
ENDBRANCH   2   3
ENDBRANCH   1   2
BRANCH   1  12
ATOM     12  C   UNL     1     -16.972  32.078 -26.022  1.00  0.00     0.262 C 
BRANCH  12  13
ATOM     13  N   UNL     1     -15.895  32.990 -25.659  1.00  0.00    -0.335 N 
ATOM     14  C   UNL     1     -16.381  34.257 -25.204  1.00  0.00     0.265 C 
ATOM     15  C   UNL     1     -15.052  32.388 -24.677  1.00  0.00     0.265 C 
ATOM     16  C   UNL     1     -17.258  34.110 -23.991  1.00  0.00     0.102 C 
ATOM     17  C   UNL     1     -15.175  32.881 -23.297  1.00  0.00     0.102 C 
ATOM     18  C   UNL     1     -16.466  33.483 -22.882  1.00  0.00     0.100 C 
ATOM     19  H   UNL     1     -15.382  33.176 -26.572  1.00  0.00     0.348 HD
BRANCH  18  20
ATOM     20  O   UNL     1     -16.162  34.533 -21.981  1.00  0.00    -0.385 OA
ATOM     21  H   UNL     1     -15.722  34.115 -21.199  1.00  0.00     0.211 HD
ENDBRANCH  18  20
BRANCH  18  22
ATOM     22  C   UNL     1     -17.314  32.539 -22.070  1.00  0.00    -0.016 A 
ATOM     23  C   UNL     1     -17.274  31.174 -22.260  1.00  0.00     0.008 A 
ATOM     24  C   UNL     1     -18.178  32.976 -21.091  1.00  0.00     0.008 A 
ATOM     25  C   UNL     1     -18.032  30.278 -21.540  1.00  0.00     0.021 A 
ATOM     26  C   UNL     1     -18.948  32.096 -20.356  1.00  0.00     0.021 A 
ATOM     27  C   UNL     1     -18.874  30.748 -20.581  1.00  0.00     0.041 A 
ATOM     28  Cl  UNL     1     -19.843  29.628 -19.655  1.00  0.00    -0.084 Cl
ENDBRANCH  18  22
ENDBRANCH  12  13
ENDBRANCH   1  12
TORSDOF 7
ENDMDL
MODEL 7
REMARK VINA RESULT:      -5.7      4.197      7.781
REMARK SMILES O=C(CCC[NH+]1CCC(O)(c2ccc(Cl)cc2)CC1)c1ccc(F)cc1
REMARK SMILES IDX 4 1 3 2 2 3 1 4 20 5 21 6 26 7 22 8 25 9 23 10 24 11 5 12
REMARK SMILES IDX 6 13 7 14 19 15 8 16 18 17 9 18 10 20 11 22 12 23 17 24
REMARK SMILES IDX 13 25 16 26 14 27 15 28
REMARK H PARENT 6 19 10 21
ROOT
ATOM      1  C   UNL     1     -19.805  32.958 -23.948  1.00  0.00     0.070 C 
ENDROOT
BRANCH   1   2
ATOM      2  C   UNL     1     -21.297  32.832 -24.164  1.00  0.00     0.087 C 
BRANCH   2   3
ATOM      3  C   UNL     1     -21.694  32.695 -25.567  1.00  0.00     0.163 C 
ATOM      4  O   UNL     1     -21.111  33.336 -26.480  1.00  0.00    -0.294 OA
BRANCH   3   5
ATOM      5  C   UNL     1     -22.791  31.803 -25.997  1.00  0.00     0.018 A 
ATOM      6  C   UNL     1     -23.252  31.834 -27.301  1.00  0.00     0.015 A 
ATOM      7  C   UNL     1     -23.376  30.928 -25.117  1.00  0.00     0.015 A 
ATOM      8  C   UNL     1     -24.273  31.002 -27.693  1.00  0.00     0.040 A 
ATOM      9  C   UNL     1     -24.394  30.096 -25.501  1.00  0.00     0.040 A 
ATOM     10  C   UNL     1     -24.841  30.136 -26.793  1.00  0.00     0.123 A 
ATOM     11  F   UNL     1     -25.863  29.290 -27.139  1.00  0.00    -0.207 F 
ENDBRANCH   3   5
ENDBRANCH   2   3
ENDBRANCH   1   2
BRANCH   1  12
ATOM     12  C   UNL     1     -19.276  31.629 -23.531  1.00  0.00     0.262 C 
BRANCH  12  13
ATOM     13  N   UNL     1     -18.408  31.710 -22.363  1.00  0.00    -0.335 N 
ATOM     14  C   UNL     1     -17.536  30.580 -22.251  1.00  0.00     0.265 C 
ATOM     15  C   UNL     1     -17.662  32.926 -22.389  1.00  0.00     0.265 C 
ATOM     16  C   UNL     1     -16.641  30.451 -23.454  1.00  0.00     0.102 C 
ATOM     17  C   UNL     1     -16.238  32.830 -22.739  1.00  0.00     0.102 C 
ATOM     18  C   UNL     1     -15.800  31.686 -23.577  1.00  0.00     0.100 C 
ATOM     19  H   UNL     1     -19.071  31.660 -21.534  1.00  0.00     0.348 HD
BRANCH  18  20
ATOM     20  O   UNL     1     -14.506  31.321 -23.133  1.00  0.00    -0.385 OA
ATOM     21  H   UNL     1     -14.630  30.787 -22.309  1.00  0.00     0.211 HD
ENDBRANCH  18  20
BRANCH  18  22
ATOM     22  C   UNL     1     -15.596  32.068 -25.020  1.00  0.00    -0.016 A 
ATOM     23  C   UNL     1     -16.523  31.764 -25.995  1.00  0.00     0.008 A 
ATOM     24  C   UNL     1     -14.477  32.742 -25.457  1.00  0.00     0.008 A 
ATOM     25  C   UNL     1     -16.375  32.094 -27.323  1.00  0.00     0.021 A 
ATOM     26  C   UNL     1     -14.307  33.083 -26.784  1.00  0.00     0.021 A 
ATOM     27  C   UNL     1     -15.256  32.759 -27.715  1.00  0.00     0.041 A 
ATOM     28  Cl  UNL     1     -15.049  33.190 -29.396  1.00  0.00    -0.084 Cl
ENDBRANCH  18  22
ENDBRANCH  12  13
ENDBRANCH   1  12
TORSDOF 7
ENDMDL
MODEL 8
REMARK VINA RESULT:      -5.6      3.447      6.143
REMARK SMILES O=C(CCC[NH+]1CCC(O)(c2ccc(Cl)cc2)CC1)c1ccc(F)cc1
REMARK SMILES IDX 4 1 3 2 2 3 1 4 20 5 21 6 26 7 22 8 25 9 23 10 24 11 5 12
REMARK SMILES IDX 6 13 7 14 19 15 8 16 18 17 9 18 10 20 11 22 12 23 17 24
REMARK SMILES IDX 13 25 16 26 14 27 15 28
REMARK H PARENT 6 19 10 21
ROOT
ATOM      1  C   UNL     1     -20.203  34.045 -22.154  1.00  0.00     0.070 C 
ENDROOT
BRANCH   1   2
ATOM      2  C   UNL     1     -20.828  34.417 -23.481  1.00  0.00     0.087 C 
BRANCH   2   3
ATOM      3  C   UNL     1     -20.965  33.299 -24.417  1.00  0.00     0.163 C 
ATOM      4  O   UNL     1     -21.522  32.223 -24.077  1.00  0.00    -0.294 OA
BRANCH   3   5
ATOM      5  C   UNL     1     -20.465  33.363 -25.806  1.00  0.00     0.018 A 
ATOM      6  C   UNL     1     -19.694  34.432 -26.226  1.00  0.00     0.015 A 
ATOM      7  C   UNL     1     -20.751  32.370 -26.707  1.00  0.00     0.015 A 
ATOM      8  C   UNL     1     -19.232  34.486 -27.520  1.00  0.00     0.040 A 
ATOM      9  C   UNL     1     -20.294  32.416 -27.997  1.00  0.00     0.040 A 
ATOM     10  C   UNL     1     -19.533  33.479 -28.401  1.00  0.00     0.123 A 
ATOM     11  F   UNL     1     -19.096  33.491 -29.700  1.00  0.00    -0.207 F 
ENDBRANCH   3   5
ENDBRANCH   2   3
ENDBRANCH   1   2
BRANCH   1  12
ATOM     12  C   UNL     1     -18.767  33.719 -22.385  1.00  0.00     0.262 C 
BRANCH  12  13
ATOM     13  N   UNL     1     -18.286  32.650 -21.519  1.00  0.00    -0.335 N 
ATOM     14  C   UNL     1     -18.731  31.359 -21.946  1.00  0.00     0.265 C 
ATOM     15  C   UNL     1     -16.863  32.693 -21.431  1.00  0.00     0.265 C 
ATOM     16  C   UNL     1     -18.257  31.042 -23.337  1.00  0.00     0.102 C 
ATOM     17  C   UNL     1     -16.116  31.665 -22.170  1.00  0.00     0.102 C 
ATOM     18  C   UNL     1     -16.757  31.056 -23.362  1.00  0.00     0.100 C 
ATOM     19  H   UNL     1     -18.754  32.834 -20.582  1.00  0.00     0.348 HD
BRANCH  18  20
ATOM     20  O   UNL     1     -16.356  29.698 -23.399  1.00  0.00    -0.385 OA
ATOM     21  H   UNL     1     -17.182  29.163 -23.506  1.00  0.00     0.211 HD
ENDBRANCH  18  20
BRANCH  18  22
ATOM     22  C   UNL     1     -16.236  31.626 -24.656  1.00  0.00    -0.016 A 
ATOM     23  C   UNL     1     -14.990  32.208 -24.750  1.00  0.00     0.008 A 
ATOM     24  C   UNL     1     -16.968  31.602 -25.823  1.00  0.00     0.008 A 
ATOM     25  C   UNL     1     -14.477  32.740 -25.911  1.00  0.00     0.021 A 
ATOM     26  C   UNL     1     -16.475  32.129 -27.000  1.00  0.00     0.021 A 
ATOM     27  C   UNL     1     -15.230  32.697 -27.043  1.00  0.00     0.041 A 
ATOM     28  Cl  UNL     1     -14.598  33.365 -28.528  1.00  0.00    -0.084 Cl
ENDBRANCH  18  22
ENDBRANCH  12  13
ENDBRANCH   1  12
TORSDOF 7
ENDMDL
MODEL 9
REMARK VINA RESULT:      -5.6     16.094     17.229
REMARK SMILES O=C(CCC[NH+]1CCC(O)(c2ccc(Cl)cc2)CC1)c1ccc(F)cc1
REMARK SMILES IDX 4 1 3 2 2 3 1 4 20 5 21 6 26 7 22 8 25 9 23 10 24 11 5 12
REMARK SMILES IDX 6 13 7 14 19 15 8 16 18 17 9 18 10 20 11 22 12 23 17 24
REMARK SMILES IDX 13 25 16 26 14 27 15 28
REMARK H PARENT 6 19 10 21
ROOT
ATOM      1  C   UNL     1     -21.712  16.716 -26.008  1.00  0.00     0.070 C 
ENDROOT
BRANCH   1   2
ATOM      2  C   UNL     1     -20.740  15.817 -25.277  1.00  0.00     0.087 C 
BRANCH   2   3
ATOM      3  C   UNL     1     -19.555  16.506 -24.759  1.00  0.00     0.163 C 
ATOM      4  O   UNL     1     -19.618  17.252 -23.748  1.00  0.00    -0.294 OA
BRANCH   3   5
ATOM      5  C   UNL     1     -18.223  16.369 -25.385  1.00  0.00     0.018 A 
ATOM      6  C   UNL     1     -17.749  17.340 -26.248  1.00  0.00     0.015 A 
ATOM      7  C   UNL     1     -17.430  15.280 -25.126  1.00  0.00     0.015 A 
ATOM      8  C   UNL     1     -16.510  17.206 -26.827  1.00  0.00     0.040 A 
ATOM      9  C   UNL     1     -16.194  15.140 -25.699  1.00  0.00     0.040 A 
ATOM     10  C   UNL     1     -15.736  16.108 -26.551  1.00  0.00     0.123 A 
ATOM     11  F   UNL     1     -14.495  15.931 -27.106  1.00  0.00    -0.207 F 
ENDBRANCH   3   5
ENDBRANCH   2   3
ENDBRANCH   1   2
BRANCH   1  12
ATOM     12  C   UNL     1     -23.097  16.254 -25.709  1.00  0.00     0.262 C 
BRANCH  12  13
ATOM     13  N   UNL     1     -23.355  14.901 -26.183  1.00  0.00    -0.335 N 
ATOM     14  C   UNL     1     -24.744  14.559 -26.133  1.00  0.00     0.265 C 
ATOM     15  C   UNL     1     -22.840  14.737 -27.504  1.00  0.00     0.265 C 
ATOM     16  C   UNL     1     -25.572  15.486 -26.980  1.00  0.00     0.102 C 
ATOM     17  C   UNL     1     -23.816  14.704 -28.603  1.00  0.00     0.102 C 
ATOM     18  C   UNL     1     -25.115  15.393 -28.405  1.00  0.00     0.100 C 
ATOM     19  H   UNL     1     -22.866  14.272 -25.479  1.00  0.00     0.348 HD
BRANCH  18  20
ATOM     20  O   UNL     1     -26.096  14.624 -29.079  1.00  0.00    -0.385 OA
ATOM     21  H   UNL     1     -26.348  15.135 -29.888  1.00  0.00     0.211 HD
ENDBRANCH  18  20
BRANCH  18  22
ATOM     22  C   UNL     1     -25.171  16.735 -29.087  1.00  0.00    -0.016 A 
ATOM     23  C   UNL     1     -25.681  16.889 -30.359  1.00  0.00     0.008 A 
ATOM     24  C   UNL     1     -24.719  17.889 -28.487  1.00  0.00     0.008 A 
ATOM     25  C   UNL     1     -25.750  18.096 -31.017  1.00  0.00     0.021 A 
ATOM     26  C   UNL     1     -24.778  19.111 -29.127  1.00  0.00     0.021 A 
ATOM     27  C   UNL     1     -25.293  19.213 -30.391  1.00  0.00     0.041 A 
ATOM     28  Cl  UNL     1     -25.373  20.756 -31.207  1.00  0.00    -0.084 Cl
ENDBRANCH  18  22
ENDBRANCH  12  13
ENDBRANCH   1  12
TORSDOF 7
ENDMDL
