MODEL 1
REMARK VINA RESULT:      -5.1      0.000      0.000
REMARK SMILES CC/C(=C(\c1ccccc1)c1ccc(OCCN(C)C)cc1)c1ccccc1
REMARK SMILES IDX 15 1 14 2 11 3 12 4 22 5 13 6 21 7 4 8 3 9 2 10 1 11 23 12
REMARK SMILES IDX 24 13 28 14 25 15 27 16 26 17 5 18 6 19 10 20 7 21 9 22 8 23
REMARK SMILES IDX 16 24 17 25 18 26 19 27 20 28
REMARK H PARENT
ROOT
ATOM      1  O   UNL     1       7.360   2.325   8.795  1.00  0.00    -0.492 OA
ENDROOT
BRANCH   1   2
ATOM      2  C   UNL     1       8.557   2.059   9.325  1.00  0.00     0.119 A 
ATOM      3  C   UNL     1      11.082   1.345  10.345  1.00  0.00    -0.017 A 
ATOM      4  C   UNL     1      10.447   0.536   9.467  1.00  0.00     0.012 A 
ATOM      5  C   UNL     1      10.463   2.517  10.720  1.00  0.00     0.012 A 
ATOM      6  C   UNL     1       9.229   0.862   8.964  1.00  0.00     0.047 A 
ATOM      7  C   UNL     1       9.233   2.866  10.225  1.00  0.00     0.047 A 
BRANCH   3   8
ATOM      8  C   UNL     1      12.401   1.071  10.954  1.00  0.00    -0.007 C 
ATOM      9  C   UNL     1      13.445   1.577  10.359  1.00  0.00    -0.033 C 
BRANCH   9  10
ATOM     10  C   UNL     1      14.797   1.379  10.977  1.00  0.00     0.033 C 
ATOM     11  C   UNL     1      15.510   0.334  10.186  1.00  0.00     0.009 C 
ENDBRANCH   9  10
BRANCH   9  12
ATOM     12  C   UNL     1      13.346   2.292   9.066  1.00  0.00    -0.022 A 
ATOM     13  C   UNL     1      13.122   1.668   7.872  1.00  0.00     0.008 A 
ATOM     14  C   UNL     1      13.474   3.665   9.099  1.00  0.00     0.008 A 
ATOM     15  C   UNL     1      13.029   2.423   6.730  1.00  0.00     0.001 A 
ATOM     16  C   UNL     1      13.378   4.427   7.928  1.00  0.00     0.001 A 
ATOM     17  C   UNL     1      13.152   3.797   6.734  1.00  0.00     0.000 A 
ENDBRANCH   9  12
BRANCH   8  18
ATOM     18  C   UNL     1      12.436   0.290  12.212  1.00  0.00    -0.018 A 
ATOM     19  C   UNL     1      12.510  -1.072  12.271  1.00  0.00     0.009 A 
ATOM     20  C   UNL     1      12.408   0.979  13.429  1.00  0.00     0.009 A 
ATOM     21  C   UNL     1      12.556  -1.735  13.499  1.00  0.00     0.001 A 
ATOM     22  C   UNL     1      12.454   0.326  14.638  1.00  0.00     0.001 A 
ATOM     23  C   UNL     1      12.529  -1.050  14.696  1.00  0.00     0.000 A 
ENDBRANCH   8  18
ENDBRANCH   3   8
ENDBRANCH   1   2
BRANCH   1  24
ATOM     24  C   UNL     1       6.140   1.923   8.500  1.00  0.00     0.245 C 
BRANCH  24  25
ATOM     25  C   UNL     1       5.200   1.457   9.575  1.00  0.00     0.125 C 
BRANCH  25  26
ATOM     26  N   UNL     1       5.523   0.231  10.194  1.00  0.00    -0.306 NA
ATOM     27  C   UNL     1       6.106   0.310  11.502  1.00  0.00     0.105 C 
ATOM     28  C   UNL     1       4.415  -0.669  10.205  1.00  0.00     0.105 C 
ENDBRANCH  25  26
ENDBRANCH  24  25
ENDBRANCH   1  24
TORSDOF 8
ENDMDL
MODEL 2
REMARK VINA RESULT:      -5.0      0.423      1.323
REMARK SMILES CC/C(=C(\c1ccccc1)c1ccc(OCCN(C)C)cc1)c1ccccc1
REMARK SMILES IDX 15 1 14 2 11 3 12 4 22 5 13 6 21 7 4 8 3 9 2 10 1 11 23 12
REMARK SMILES IDX 24 13 28 14 25 15 27 16 26 17 5 18 6 19 10 20 7 21 9 22 8 23
REMARK SMILES IDX 16 24 17 25 18 26 19 27 20 28
REMARK H PARENT
ROOT
ATOM      1  O   UNL     1       7.555   1.850   8.302  1.00  0.00    -0.492 OA
ENDROOT
BRANCH   1   2
ATOM      2  C   UNL     1       8.719   1.652   8.926  1.00  0.00     0.119 A 
ATOM      3  C   UNL     1      11.144   1.389  10.330  1.00  0.00    -0.017 A 
ATOM      4  C   UNL     1      10.349   2.462  10.538  1.00  0.00     0.012 A 
ATOM      5  C   UNL     1      10.737   0.438   9.421  1.00  0.00     0.012 A 
ATOM      6  C   UNL     1       9.176   2.607   9.871  1.00  0.00     0.047 A 
ATOM      7  C   UNL     1       9.556   0.564   8.736  1.00  0.00     0.047 A 
BRANCH   3   8
ATOM      8  C   UNL     1      12.442   1.149  10.999  1.00  0.00    -0.007 C 
ATOM      9  C   UNL     1      13.500   1.668  10.443  1.00  0.00    -0.033 C 
BRANCH   9  10
ATOM     10  C   UNL     1      14.828   1.506  11.121  1.00  0.00     0.033 C 
ATOM     11  C   UNL     1      15.528   0.356  10.480  1.00  0.00     0.009 C 
ENDBRANCH   9  10
BRANCH   9  12
ATOM     12  C   UNL     1      13.442   2.364   9.138  1.00  0.00    -0.022 A 
ATOM     13  C   UNL     1      13.326   1.718   7.940  1.00  0.00     0.008 A 
ATOM     14  C   UNL     1      13.496   3.742   9.160  1.00  0.00     0.008 A 
ATOM     15  C   UNL     1      13.263   2.456   6.785  1.00  0.00     0.001 A 
ATOM     16  C   UNL     1      13.431   4.487   7.976  1.00  0.00     0.001 A 
ATOM     17  C   UNL     1      13.313   3.834   6.779  1.00  0.00     0.000 A 
ENDBRANCH   9  12
BRANCH   8  18
ATOM     18  C   UNL     1      12.437   0.385  12.269  1.00  0.00    -0.018 A 
ATOM     19  C   UNL     1      12.362   0.951  13.508  1.00  0.00     0.009 A 
ATOM     20  C   UNL     1      12.498  -1.011  12.209  1.00  0.00     0.009 A 
ATOM     21  C   UNL     1      12.345   0.160  14.659  1.00  0.00     0.001 A 
ATOM     22  C   UNL     1      12.482  -1.790  13.343  1.00  0.00     0.001 A 
ATOM     23  C   UNL     1      12.405  -1.216  14.595  1.00  0.00     0.000 A 
ENDBRANCH   8  18
ENDBRANCH   3   8
ENDBRANCH   1   2
BRANCH   1  24
ATOM     24  C   UNL     1       6.266   1.588   8.204  1.00  0.00     0.245 C 
BRANCH  24  25
ATOM     25  C   UNL     1       5.356   1.743   9.388  1.00  0.00     0.125 C 
BRANCH  25  26
ATOM     26  N   UNL     1       5.606   0.888  10.482  1.00  0.00    -0.306 NA
ATOM     27  C   UNL     1       5.980   1.519  11.714  1.00  0.00     0.105 C 
ATOM     28  C   UNL     1       4.530  -0.023  10.705  1.00  0.00     0.105 C 
ENDBRANCH  25  26
ENDBRANCH  24  25
ENDBRANCH   1  24
TORSDOF 8
ENDMDL
MODEL 3
REMARK VINA RESULT:      -5.0      8.581     11.788
REMARK SMILES CC/C(=C(\c1ccccc1)c1ccc(OCCN(C)C)cc1)c1ccccc1
REMARK SMILES IDX 15 1 14 2 11 3 12 4 22 5 13 6 21 7 4 8 3 9 2 10 1 11 23 12
REMARK SMILES IDX 24 13 28 14 25 15 27 16 26 17 5 18 6 19 10 20 7 21 9 22 8 23
REMARK SMILES IDX 16 24 17 25 18 26 19 27 20 28
REMARK H PARENT
ROOT
ATOM      1  O   UNL     1      16.407   4.769   5.376  1.00  0.00    -0.492 OA
ENDROOT
BRANCH   1   2
ATOM      2  C   UNL     1      17.664   4.593   4.958  1.00  0.00     0.119 A 
ATOM      3  C   UNL     1      20.247   4.190   3.914  1.00  0.00    -0.017 A 
ATOM      4  C   UNL     1      19.162   4.058   3.119  1.00  0.00     0.012 A 
ATOM      5  C   UNL     1      20.053   4.524   5.236  1.00  0.00     0.012 A 
ATOM      6  C   UNL     1      17.908   4.248   3.603  1.00  0.00     0.047 A 
ATOM      7  C   UNL     1      18.796   4.721   5.746  1.00  0.00     0.047 A 
BRANCH   3   8
ATOM      8  C   UNL     1      21.647   3.992   3.482  1.00  0.00    -0.007 C 
ATOM      9  C   UNL     1      22.156   4.895   2.690  1.00  0.00    -0.033 C 
BRANCH   9  10
ATOM     10  C   UNL     1      23.592   4.770   2.279  1.00  0.00     0.033 C 
ATOM     11  C   UNL     1      24.369   5.806   3.020  1.00  0.00     0.009 C 
ENDBRANCH   9  10
BRANCH   9  12
ATOM     12  C   UNL     1      21.347   6.007   2.142  1.00  0.00    -0.022 A 
ATOM     13  C   UNL     1      21.013   7.123   2.855  1.00  0.00     0.008 A 
ATOM     14  C   UNL     1      20.934   5.893   0.830  1.00  0.00     0.008 A 
ATOM     15  C   UNL     1      20.273   8.107   2.249  1.00  0.00     0.001 A 
ATOM     16  C   UNL     1      20.179   6.903   0.221  1.00  0.00     0.001 A 
ATOM     17  C   UNL     1      19.848   8.019   0.940  1.00  0.00     0.000 A 
ENDBRANCH   9  12
BRANCH   8  18
ATOM     18  C   UNL     1      22.380   2.820   4.015  1.00  0.00    -0.018 A 
ATOM     19  C   UNL     1      23.227   2.862   5.084  1.00  0.00     0.009 A 
ATOM     20  C   UNL     1      22.189   1.577   3.402  1.00  0.00     0.009 A 
ATOM     21  C   UNL     1      23.868   1.707   5.537  1.00  0.00     0.001 A 
ATOM     22  C   UNL     1      22.821   0.440   3.849  1.00  0.00     0.001 A 
ATOM     23  C   UNL     1      23.676   0.484   4.930  1.00  0.00     0.000 A 
ENDBRANCH   8  18
ENDBRANCH   3   8
ENDBRANCH   1   2
BRANCH   1  24
ATOM     24  C   UNL     1      15.519   4.696   6.347  1.00  0.00     0.245 C 
BRANCH  24  25
ATOM     25  C   UNL     1      15.407   3.466   7.201  1.00  0.00     0.125 C 
BRANCH  25  26
ATOM     26  N   UNL     1      15.554   3.658   8.591  1.00  0.00    -0.306 NA
ATOM     27  C   UNL     1      14.890   4.800   9.152  1.00  0.00     0.105 C 
ATOM     28  C   UNL     1      15.220   2.484   9.331  1.00  0.00     0.105 C 
ENDBRANCH  25  26
ENDBRANCH  24  25
ENDBRANCH   1  24
TORSDOF 8
ENDMDL
MODEL 4
REMARK VINA RESULT:      -5.0      1.430      2.375
REMARK SMILES CC/C(=C(\c1ccccc1)c1ccc(OCCN(C)C)cc1)c1ccccc1
REMARK SMILES IDX 15 1 14 2 11 3 12 4 22 5 13 6 21 7 4 8 3 9 2 10 1 11 23 12
REMARK SMILES IDX 24 13 28 14 25 15 27 16 26 17 5 18 6 19 10 20 7 21 9 22 8 23
REMARK SMILES IDX 16 24 17 25 18 26 19 27 20 28
REMARK H PARENT
ROOT
ATOM      1  O   UNL     1       7.370   1.765   8.932  1.00  0.00    -0.492 OA
ENDROOT
BRANCH   1   2
ATOM      2  C   UNL     1       8.591   1.566   9.436  1.00  0.00     0.119 A 
ATOM      3  C   UNL     1      11.155   1.310  10.569  1.00  0.00    -0.017 A 
ATOM      4  C   UNL     1      10.452   2.453  10.726  1.00  0.00     0.012 A 
ATOM      5  C   UNL     1      10.586   0.285   9.847  1.00  0.00     0.012 A 
ATOM      6  C   UNL     1       9.213   2.596  10.187  1.00  0.00     0.047 A 
ATOM      7  C   UNL     1       9.337   0.407   9.294  1.00  0.00     0.047 A 
BRANCH   3   8
ATOM      8  C   UNL     1      12.511   1.065  11.107  1.00  0.00    -0.007 C 
ATOM      9  C   UNL     1      13.509   1.606  10.467  1.00  0.00    -0.033 C 
BRANCH   9  10
ATOM     10  C   UNL     1      14.896   1.439  11.014  1.00  0.00     0.033 C 
ATOM     11  C   UNL     1      15.587   0.405  10.190  1.00  0.00     0.009 C 
ENDBRANCH   9  10
BRANCH   9  12
ATOM     12  C   UNL     1      13.325   2.334   9.191  1.00  0.00    -0.022 A 
ATOM     13  C   UNL     1      13.377   3.695   9.082  1.00  0.00     0.008 A 
ATOM     14  C   UNL     1      13.106   1.573   8.062  1.00  0.00     0.008 A 
ATOM     15  C   UNL     1      13.210   4.274   7.849  1.00  0.00     0.001 A 
ATOM     16  C   UNL     1      12.937   2.173   6.809  1.00  0.00     0.001 A 
ATOM     17  C   UNL     1      12.991   3.536   6.705  1.00  0.00     0.000 A 
ENDBRANCH   9  12
BRANCH   8  18
ATOM     18  C   UNL     1      12.631   0.269  12.352  1.00  0.00    -0.018 A 
ATOM     19  C   UNL     1      12.942  -1.059  12.389  1.00  0.00     0.009 A 
ATOM     20  C   UNL     1      12.431   0.911  13.578  1.00  0.00     0.009 A 
ATOM     21  C   UNL     1      13.053  -1.736  13.606  1.00  0.00     0.001 A 
ATOM     22  C   UNL     1      12.540   0.245  14.776  1.00  0.00     0.001 A 
ATOM     23  C   UNL     1      12.855  -1.097  14.812  1.00  0.00     0.000 A 
ENDBRANCH   8  18
ENDBRANCH   3   8
ENDBRANCH   1   2
BRANCH   1  24
ATOM     24  C   UNL     1       6.610   2.071   7.899  1.00  0.00     0.245 C 
BRANCH  24  25
ATOM     25  C   UNL     1       6.131   1.010   6.952  1.00  0.00     0.125 C 
BRANCH  25  26
ATOM     26  N   UNL     1       7.036   0.624   5.940  1.00  0.00    -0.306 NA
ATOM     27  C   UNL     1       6.633  -0.472   5.107  1.00  0.00     0.105 C 
ATOM     28  C   UNL     1       7.439   1.731   5.134  1.00  0.00     0.105 C 
ENDBRANCH  25  26
ENDBRANCH  24  25
ENDBRANCH   1  24
TORSDOF 8
ENDMDL
MODEL 5
REMARK VINA RESULT:      -5.0      1.426      4.607
REMARK SMILES CC/C(=C(\c1ccccc1)c1ccc(OCCN(C)C)cc1)c1ccccc1
REMARK SMILES IDX 15 1 14 2 11 3 12 4 22 5 13 6 21 7 4 8 3 9 2 10 1 11 23 12
REMARK SMILES IDX 24 13 28 14 25 15 27 16 26 17 5 18 6 19 10 20 7 21 9 22 8 23
REMARK SMILES IDX 16 24 17 25 18 26 19 27 20 28
REMARK H PARENT
ROOT
ATOM      1  O   UNL     1       6.598   2.338   9.286  1.00  0.00    -0.492 OA
ENDROOT
BRANCH   1   2
ATOM      2  C   UNL     1       7.922   2.180   9.365  1.00  0.00     0.119 A 
ATOM      3  C   UNL     1      10.711   1.955   9.675  1.00  0.00    -0.017 A 
ATOM      4  C   UNL     1       9.991   2.727  10.519  1.00  0.00     0.012 A 
ATOM      5  C   UNL     1      10.047   1.288   8.670  1.00  0.00     0.012 A 
ATOM      6  C   UNL     1       8.646   2.848  10.386  1.00  0.00     0.047 A 
ATOM      7  C   UNL     1       8.688   1.396   8.517  1.00  0.00     0.047 A 
BRANCH   3   8
ATOM      8  C   UNL     1      12.177   1.769   9.733  1.00  0.00    -0.007 C 
ATOM      9  C   UNL     1      12.618   0.736  10.394  1.00  0.00    -0.033 C 
BRANCH   9  10
ATOM     10  C   UNL     1      14.094   0.471  10.424  1.00  0.00     0.033 C 
ATOM     11  C   UNL     1      14.580   0.764  11.804  1.00  0.00     0.009 C 
ENDBRANCH   9  10
BRANCH   9  12
ATOM     12  C   UNL     1      11.715  -0.153  11.160  1.00  0.00    -0.022 A 
ATOM     13  C   UNL     1      11.271  -1.359  10.699  1.00  0.00     0.008 A 
ATOM     14  C   UNL     1      11.329   0.277  12.413  1.00  0.00     0.008 A 
ATOM     15  C   UNL     1      10.449  -2.117  11.495  1.00  0.00     0.001 A 
ATOM     16  C   UNL     1      10.490  -0.504  13.217  1.00  0.00     0.001 A 
ATOM     17  C   UNL     1      10.048  -1.712  12.750  1.00  0.00     0.000 A 
ENDBRANCH   9  12
BRANCH   8  18
ATOM     18  C   UNL     1      13.029   2.735   8.999  1.00  0.00    -0.018 A 
ATOM     19  C   UNL     1      13.137   2.788   7.640  1.00  0.00     0.009 A 
ATOM     20  C   UNL     1      13.764   3.671   9.734  1.00  0.00     0.009 A 
ATOM     21  C   UNL     1      13.949   3.741   7.022  1.00  0.00     0.001 A 
ATOM     22  C   UNL     1      14.564   4.609   9.125  1.00  0.00     0.001 A 
ATOM     23  C   UNL     1      14.672   4.662   7.751  1.00  0.00     0.000 A 
ENDBRANCH   8  18
ENDBRANCH   3   8
ENDBRANCH   1   2
BRANCH   1  24
ATOM     24  C   UNL     1       5.408   1.812   9.070  1.00  0.00     0.245 C 
BRANCH  24  25
ATOM     25  C   UNL     1       4.699   1.040  10.145  1.00  0.00     0.125 C 
BRANCH  25  26
ATOM     26  N   UNL     1       4.718   1.610  11.436  1.00  0.00    -0.306 NA
ATOM     27  C   UNL     1       3.452   1.728  12.101  1.00  0.00     0.105 C 
ATOM     28  C   UNL     1       5.662   0.965  12.290  1.00  0.00     0.105 C 
ENDBRANCH  25  26
ENDBRANCH  24  25
ENDBRANCH   1  24
TORSDOF 8
ENDMDL
MODEL 6
REMARK VINA RESULT:      -4.9      3.901      7.645
REMARK SMILES CC/C(=C(\c1ccccc1)c1ccc(OCCN(C)C)cc1)c1ccccc1
REMARK SMILES IDX 15 1 14 2 11 3 12 4 22 5 13 6 21 7 4 8 3 9 2 10 1 11 23 12
REMARK SMILES IDX 24 13 28 14 25 15 27 16 26 17 5 18 6 19 10 20 7 21 9 22 8 23
REMARK SMILES IDX 16 24 17 25 18 26 19 27 20 28
REMARK H PARENT
ROOT
ATOM      1  O   UNL     1      15.264   4.593   6.851  1.00  0.00    -0.492 OA
ENDROOT
BRANCH   1   2
ATOM      2  C   UNL     1      14.346   3.881   7.508  1.00  0.00     0.119 A 
ATOM      3  C   UNL     1      12.396   2.273   8.748  1.00  0.00    -0.017 A 
ATOM      4  C   UNL     1      12.792   2.010   7.482  1.00  0.00     0.012 A 
ATOM      5  C   UNL     1      12.968   3.338   9.406  1.00  0.00     0.012 A 
ATOM      6  C   UNL     1      13.731   2.774   6.867  1.00  0.00     0.047 A 
ATOM      7  C   UNL     1      13.918   4.123   8.804  1.00  0.00     0.047 A 
BRANCH   3   8
ATOM      8  C   UNL     1      11.375   1.507   9.496  1.00  0.00    -0.007 C 
ATOM      9  C   UNL     1      11.801   0.538  10.257  1.00  0.00    -0.033 C 
BRANCH   9  10
ATOM     10  C   UNL     1      10.808  -0.223  11.084  1.00  0.00     0.033 C 
ATOM     11  C   UNL     1      10.915   0.269  12.488  1.00  0.00     0.009 C 
ENDBRANCH   9  10
BRANCH   9  12
ATOM     12  C   UNL     1      13.224   0.130  10.290  1.00  0.00    -0.022 A 
ATOM     13  C   UNL     1      14.152   0.690  11.121  1.00  0.00     0.008 A 
ATOM     14  C   UNL     1      13.604  -0.885   9.437  1.00  0.00     0.008 A 
ATOM     15  C   UNL     1      15.444   0.229  11.087  1.00  0.00     0.001 A 
ATOM     16  C   UNL     1      14.925  -1.348   9.410  1.00  0.00     0.001 A 
ATOM     17  C   UNL     1      15.851  -0.785  10.245  1.00  0.00     0.000 A 
ENDBRANCH   9  12
BRANCH   8  18
ATOM     18  C   UNL     1       9.959   1.924   9.365  1.00  0.00    -0.018 A 
ATOM     19  C   UNL     1       9.085   1.406   8.454  1.00  0.00     0.009 A 
ATOM     20  C   UNL     1       9.467   2.902  10.235  1.00  0.00     0.009 A 
ATOM     21  C   UNL     1       7.759   1.841   8.404  1.00  0.00     0.001 A 
ATOM     22  C   UNL     1       8.161   3.331  10.186  1.00  0.00     0.001 A 
ATOM     23  C   UNL     1       7.278   2.805   9.265  1.00  0.00     0.000 A 
ENDBRANCH   8  18
ENDBRANCH   3   8
ENDBRANCH   1   2
BRANCH   1  24
ATOM     24  C   UNL     1      16.005   4.764   5.774  1.00  0.00     0.245 C 
BRANCH  24  25
ATOM     25  C   UNL     1      17.286   4.003   5.590  1.00  0.00     0.125 C 
BRANCH  25  26
ATOM     26  N   UNL     1      18.315   4.676   4.897  1.00  0.00    -0.306 NA
ATOM     27  C   UNL     1      19.659   4.290   5.217  1.00  0.00     0.105 C 
ATOM     28  C   UNL     1      18.118   4.641   3.484  1.00  0.00     0.105 C 
ENDBRANCH  25  26
ENDBRANCH  24  25
ENDBRANCH   1  24
TORSDOF 8
ENDMDL
MODEL 7
REMARK VINA RESULT:      -4.9      1.321      1.866
REMARK SMILES CC/C(=C(\c1ccccc1)c1ccc(OCCN(C)C)cc1)c1ccccc1
REMARK SMILES IDX 15 1 14 2 11 3 12 4 22 5 13 6 21 7 4 8 3 9 2 10 1 11 23 12
REMARK SMILES IDX 24 13 28 14 25 15 27 16 26 17 5 18 6 19 10 20 7 21 9 22 8 23
REMARK SMILES IDX 16 24 17 25 18 26 19 27 20 28
REMARK H PARENT
ROOT
ATOM      1  O   UNL     1       7.434   2.063   8.705  1.00  0.00    -0.492 OA
ENDROOT
BRANCH   1   2
ATOM      2  C   UNL     1       8.624   1.861   9.276  1.00  0.00     0.119 A 
ATOM      3  C   UNL     1      11.152   1.289  10.375  1.00  0.00    -0.017 A 
ATOM      4  C   UNL     1      10.622   0.482   9.429  1.00  0.00     0.012 A 
ATOM      5  C   UNL     1      10.427   2.387  10.781  1.00  0.00     0.012 A 
ATOM      6  C   UNL     1       9.404   0.741   8.886  1.00  0.00     0.047 A 
ATOM      7  C   UNL     1       9.196   2.667  10.246  1.00  0.00     0.047 A 
BRANCH   3   8
ATOM      8  C   UNL     1      12.462   1.084  11.031  1.00  0.00    -0.007 C 
ATOM      9  C   UNL     1      13.502   1.622  10.458  1.00  0.00    -0.033 C 
BRANCH   9  10
ATOM     10  C   UNL     1      14.840   1.495  11.122  1.00  0.00     0.033 C 
ATOM     11  C   UNL     1      15.544   0.332  10.508  1.00  0.00     0.009 C 
ENDBRANCH   9  10
BRANCH   9  12
ATOM     12  C   UNL     1      13.414   2.305   9.148  1.00  0.00    -0.022 A 
ATOM     13  C   UNL     1      13.312   1.646   7.956  1.00  0.00     0.008 A 
ATOM     14  C   UNL     1      13.421   3.684   9.160  1.00  0.00     0.008 A 
ATOM     15  C   UNL     1      13.219   2.372   6.796  1.00  0.00     0.001 A 
ATOM     16  C   UNL     1      13.325   4.416   7.970  1.00  0.00     0.001 A 
ATOM     17  C   UNL     1      13.222   3.751   6.779  1.00  0.00     0.000 A 
ENDBRANCH   9  12
BRANCH   8  18
ATOM     18  C   UNL     1      12.489   0.331  12.307  1.00  0.00    -0.018 A 
ATOM     19  C   UNL     1      12.467   0.910  13.543  1.00  0.00     0.009 A 
ATOM     20  C   UNL     1      12.524  -1.066  12.259  1.00  0.00     0.009 A 
ATOM     21  C   UNL     1      12.477   0.129  14.701  1.00  0.00     0.001 A 
ATOM     22  C   UNL     1      12.535  -1.835  13.399  1.00  0.00     0.001 A 
ATOM     23  C   UNL     1      12.511  -1.249  14.647  1.00  0.00     0.000 A 
ENDBRANCH   8  18
ENDBRANCH   3   8
ENDBRANCH   1   2
BRANCH   1  24
ATOM     24  C   UNL     1       6.677   2.023   7.626  1.00  0.00     0.245 C 
BRANCH  24  25
ATOM     25  C   UNL     1       5.701   0.903   7.410  1.00  0.00     0.125 C 
BRANCH  25  26
ATOM     26  N   UNL     1       5.794   0.227   6.175  1.00  0.00    -0.306 NA
ATOM     27  C   UNL     1       7.115   0.044   5.645  1.00  0.00     0.105 C 
ATOM     28  C   UNL     1       5.097  -1.019   6.194  1.00  0.00     0.105 C 
ENDBRANCH  25  26
ENDBRANCH  24  25
ENDBRANCH   1  24
TORSDOF 8
ENDMDL
MODEL 8
REMARK VINA RESULT:      -4.9      1.221      4.655
REMARK SMILES CC/C(=C(\c1ccccc1)c1ccc(OCCN(C)C)cc1)c1ccccc1
REMARK SMILES IDX 15 1 14 2 11 3 12 4 22 5 13 6 21 7 4 8 3 9 2 10 1 11 23 12
REMARK SMILES IDX 24 13 28 14 25 15 27 16 26 17 5 18 6 19 10 20 7 21 9 22 8 23
REMARK SMILES IDX 16 24 17 25 18 26 19 27 20 28
REMARK H PARENT
ROOT
ATOM      1  O   UNL     1       7.279   1.600   8.906  1.00  0.00    -0.492 OA
ENDROOT
BRANCH   1   2
ATOM      2  C   UNL     1       8.582   1.655   9.192  1.00  0.00     0.119 A 
ATOM      3  C   UNL     1      11.289   1.878   9.933  1.00  0.00    -0.017 A 
ATOM      4  C   UNL     1      10.336   2.543  10.623  1.00  0.00     0.012 A 
ATOM      5  C   UNL     1      10.901   1.096   8.868  1.00  0.00     0.012 A 
ATOM      6  C   UNL     1       9.025   2.449  10.282  1.00  0.00     0.047 A 
ATOM      7  C   UNL     1       9.583   0.986   8.506  1.00  0.00     0.047 A 
BRANCH   3   8
ATOM      8  C   UNL     1      12.739   1.927  10.221  1.00  0.00    -0.007 C 
ATOM      9  C   UNL     1      13.190   1.108  11.129  1.00  0.00    -0.033 C 
BRANCH   9  10
ATOM     10  C   UNL     1      14.663   1.077  11.408  1.00  0.00     0.033 C 
ATOM     11  C   UNL     1      15.249  -0.056  10.634  1.00  0.00     0.009 C 
ENDBRANCH   9  10
BRANCH   9  12
ATOM     12  C   UNL     1      12.291   0.248  11.931  1.00  0.00    -0.022 A 
ATOM     13  C   UNL     1      11.800  -0.949  11.492  1.00  0.00     0.008 A 
ATOM     14  C   UNL     1      11.959   0.694  13.193  1.00  0.00     0.008 A 
ATOM     15  C   UNL     1      10.986  -1.681  12.319  1.00  0.00     0.001 A 
ATOM     16  C   UNL     1      11.127  -0.061  14.029  1.00  0.00     0.001 A 
ATOM     17  C   UNL     1      10.639  -1.260  13.585  1.00  0.00     0.000 A 
ENDBRANCH   9  12
BRANCH   8  18
ATOM     18  C   UNL     1      13.573   2.862   9.429  1.00  0.00    -0.018 A 
ATOM     19  C   UNL     1      14.122   4.010   9.922  1.00  0.00     0.009 A 
ATOM     20  C   UNL     1      13.838   2.552   8.092  1.00  0.00     0.009 A 
ATOM     21  C   UNL     1      14.913   4.831   9.115  1.00  0.00     0.001 A 
ATOM     22  C   UNL     1      14.616   3.361   7.297  1.00  0.00     0.001 A 
ATOM     23  C   UNL     1      15.171   4.521   7.796  1.00  0.00     0.000 A 
ENDBRANCH   8  18
ENDBRANCH   3   8
ENDBRANCH   1   2
BRANCH   1  24
ATOM     24  C   UNL     1       6.082   2.149   8.977  1.00  0.00     0.245 C 
BRANCH  24  25
ATOM     25  C   UNL     1       4.926   1.583   8.204  1.00  0.00     0.125 C 
BRANCH  25  26
ATOM     26  N   UNL     1       4.081   0.700   8.909  1.00  0.00    -0.306 NA
ATOM     27  C   UNL     1       4.479  -0.678   8.940  1.00  0.00     0.105 C 
ATOM     28  C   UNL     1       3.810   1.161  10.232  1.00  0.00     0.105 C 
ENDBRANCH  25  26
ENDBRANCH  24  25
ENDBRANCH   1  24
TORSDOF 8
ENDMDL
MODEL 9
REMARK VINA RESULT:      -4.8      0.469      1.339
REMARK SMILES CC/C(=C(\c1ccccc1)c1ccc(OCCN(C)C)cc1)c1ccccc1
REMARK SMILES IDX 15 1 14 2 11 3 12 4 22 5 13 6 21 7 4 8 3 9 2 10 1 11 23 12
REMARK SMILES IDX 24 13 28 14 25 15 27 16 26 17 5 18 6 19 10 20 7 21 9 22 8 23
REMARK SMILES IDX 16 24 17 25 18 26 19 27 20 28
REMARK H PARENT
ROOT
ATOM      1  O   UNL     1       7.321   2.028   8.433  1.00  0.00    -0.492 OA
ENDROOT
BRANCH   1   2
ATOM      2  C   UNL     1       8.491   1.868   9.056  1.00  0.00     0.119 A 
ATOM      3  C   UNL     1      10.982   1.379  10.274  1.00  0.00    -0.017 A 
ATOM      4  C   UNL     1      10.495   0.521   9.350  1.00  0.00     0.012 A 
ATOM      5  C   UNL     1      10.232   2.488  10.598  1.00  0.00     0.012 A 
ATOM      6  C   UNL     1       9.296   0.739   8.751  1.00  0.00     0.047 A 
ATOM      7  C   UNL     1       9.019   2.727  10.006  1.00  0.00     0.047 A 
BRANCH   3   8
ATOM      8  C   UNL     1      12.269   1.222  10.986  1.00  0.00    -0.007 C 
ATOM      9  C   UNL     1      13.309   1.809  10.467  1.00  0.00    -0.033 C 
BRANCH   9  10
ATOM     10  C   UNL     1      14.621   1.731  11.189  1.00  0.00     0.033 C 
ATOM     11  C   UNL     1      15.373   0.565  10.641  1.00  0.00     0.009 C 
ENDBRANCH   9  10
BRANCH   9  12
ATOM     12  C   UNL     1      13.251   2.504   9.160  1.00  0.00    -0.022 A 
ATOM     13  C   UNL     1      13.191   3.862   9.028  1.00  0.00     0.008 A 
ATOM     14  C   UNL     1      13.276   1.714   8.030  1.00  0.00     0.008 A 
ATOM     15  C   UNL     1      13.158   4.411   7.771  1.00  0.00     0.001 A 
ATOM     16  C   UNL     1      13.242   2.284   6.751  1.00  0.00     0.001 A 
ATOM     17  C   UNL     1      13.183   3.645   6.624  1.00  0.00     0.000 A 
ENDBRANCH   9  12
BRANCH   8  18
ATOM     18  C   UNL     1      12.271   0.455  12.255  1.00  0.00    -0.018 A 
ATOM     19  C   UNL     1      12.220   1.021  13.495  1.00  0.00     0.009 A 
ATOM     20  C   UNL     1      12.311  -0.941  12.192  1.00  0.00     0.009 A 
ATOM     21  C   UNL     1      12.208   0.228  14.645  1.00  0.00     0.001 A 
ATOM     22  C   UNL     1      12.299  -1.722  13.324  1.00  0.00     0.001 A 
ATOM     23  C   UNL     1      12.247  -1.150  14.578  1.00  0.00     0.000 A 
ENDBRANCH   8  18
ENDBRANCH   3   8
ENDBRANCH   1   2
BRANCH   1  24
ATOM     24  C   UNL     1       6.024   1.800   8.389  1.00  0.00     0.245 C 
BRANCH  24  25
ATOM     25  C   UNL     1       5.460   0.470   8.797  1.00  0.00     0.125 C 
BRANCH  25  26
ATOM     26  N   UNL     1       5.388   0.224  10.184  1.00  0.00    -0.306 NA
ATOM     27  C   UNL     1       5.132   1.359  11.023  1.00  0.00     0.105 C 
ATOM     28  C   UNL     1       4.475  -0.829  10.493  1.00  0.00     0.105 C 
ENDBRANCH  25  26
ENDBRANCH  24  25
ENDBRANCH   1  24
TORSDOF 8
ENDMDL
