MODEL 1
REMARK VINA RESULT:     -10.2      0.000      0.000
REMARK SMILES O=C1NCN(c2ccccc2)C12CC[NH+](CCCC(c1ccc(F)cc1)c1ccc(F)cc1)CC2
REMARK SMILES IDX 17 1 16 2 15 3 1 4 2 5 3 6 12 7 4 8 5 9 13 10 35 11 14 12
REMARK SMILES IDX 34 13 6 16 7 17 11 18 8 19 10 20 9 21 18 22 19 23 20 24
REMARK SMILES IDX 21 25 26 26 22 27 25 28 23 29 24 30 27 31 28 32 33 33 29 34
REMARK SMILES IDX 32 35 30 36 31 37
REMARK H PARENT 3 14 15 15
ROOT
ATOM      1  C   UNL     1      22.206  17.509  13.251  1.00  0.00     0.062 C 
ENDROOT
BRANCH   1   2
ATOM      2  C   UNL     1      23.333  18.479  13.055  1.00  0.00     0.262 C 
BRANCH   2   3
ATOM      3  N   UNL     1      22.927  19.813  13.483  1.00  0.00    -0.335 N 
ATOM      4  O   UNL     1      23.021  22.050  15.811  1.00  0.00    -0.272 OA
ATOM      5  C   UNL     1      22.109  22.650  15.206  1.00  0.00     0.247 C 
ATOM      6  N   UNL     1      21.524  23.852  15.644  1.00  0.00    -0.336 N 
ATOM      7  C   UNL     1      21.473  22.202  13.910  1.00  0.00     0.131 C 
ATOM      8  C   UNL     1      20.897  24.431  14.498  1.00  0.00     0.238 C 
ATOM      9  N   UNL     1      20.505  23.272  13.682  1.00  0.00    -0.339 N 
ATOM     10  C   UNL     1      20.804  20.861  14.136  1.00  0.00     0.100 C 
ATOM     11  C   UNL     1      22.545  22.126  12.883  1.00  0.00     0.100 C 
ATOM     12  C   UNL     1      21.821  19.779  14.416  1.00  0.00     0.265 C 
ATOM     13  C   UNL     1      22.691  20.722  12.392  1.00  0.00     0.265 C 
ATOM     14  H   UNL     1      21.558  24.228  16.630  1.00  0.00     0.165 HD
ATOM     15  H   UNL     1      23.754  20.172  14.009  1.00  0.00     0.348 HD
BRANCH   9  16
ATOM     16  C   UNL     1      19.345  23.308  12.866  1.00  0.00     0.039 A 
ATOM     17  C   UNL     1      18.095  23.102  13.400  1.00  0.00     0.026 A 
ATOM     18  C   UNL     1      19.464  23.571  11.536  1.00  0.00     0.026 A 
ATOM     19  C   UNL     1      16.944  23.156  12.609  1.00  0.00     0.002 A 
ATOM     20  C   UNL     1      18.351  23.628  10.744  1.00  0.00     0.002 A 
ATOM     21  C   UNL     1      17.100  23.425  11.266  1.00  0.00     0.000 A 
ENDBRANCH   9  16
ENDBRANCH   2   3
ENDBRANCH   1   2
BRANCH   1  22
ATOM     22  C   UNL     1      21.625  16.907  12.046  1.00  0.00     0.019 C 
BRANCH  22  23
ATOM     23  C   UNL     1      21.659  17.557  10.744  1.00  0.00     0.049 C 
BRANCH  23  24
ATOM     24  C   UNL     1      22.068  16.681   9.589  1.00  0.00    -0.040 A 
ATOM     25  C   UNL     1      22.923  15.640   9.876  1.00  0.00     0.007 A 
ATOM     26  C   UNL     1      21.645  16.905   8.306  1.00  0.00     0.007 A 
ATOM     27  C   UNL     1      23.361  14.812   8.875  1.00  0.00     0.039 A 
ATOM     28  C   UNL     1      22.084  16.076   7.309  1.00  0.00     0.039 A 
ATOM     29  C   UNL     1      22.952  15.010   7.575  1.00  0.00     0.123 A 
ATOM     30  F   UNL     1      23.393  14.184   6.593  1.00  0.00    -0.207 F 
ENDBRANCH  23  24
BRANCH  23  31
ATOM     31  C   UNL     1      20.607  18.477  10.342  1.00  0.00    -0.040 A 
ATOM     32  C   UNL     1      20.747  19.590   9.562  1.00  0.00     0.007 A 
ATOM     33  C   UNL     1      19.329  18.177  10.833  1.00  0.00     0.007 A 
ATOM     34  C   UNL     1      19.619  20.374   9.293  1.00  0.00     0.039 A 
ATOM     35  C   UNL     1      18.228  18.928  10.577  1.00  0.00     0.039 A 
ATOM     36  C   UNL     1      18.383  20.047   9.792  1.00  0.00     0.123 A 
ATOM     37  F   UNL     1      17.272  20.791   9.544  1.00  0.00    -0.207 F 
ENDBRANCH  23  31
ENDBRANCH  22  23
ENDBRANCH   1  22
TORSDOF 7
ENDMDL
MODEL 2
REMARK VINA RESULT:     -10.2      0.211      1.147
REMARK SMILES O=C1NCN(c2ccccc2)C12CC[NH+](CCCC(c1ccc(F)cc1)c1ccc(F)cc1)CC2
REMARK SMILES IDX 17 1 16 2 15 3 1 4 2 5 3 6 12 7 4 8 5 9 13 10 35 11 14 12
REMARK SMILES IDX 34 13 6 16 7 17 11 18 8 19 10 20 9 21 18 22 19 23 20 24
REMARK SMILES IDX 21 25 26 26 22 27 25 28 23 29 24 30 27 31 28 32 33 33 29 34
REMARK SMILES IDX 32 35 30 36 31 37
REMARK H PARENT 3 14 15 15
ROOT
ATOM      1  C   UNL     1      22.339  17.589  13.345  1.00  0.00     0.062 C 
ENDROOT
BRANCH   1   2
ATOM      2  C   UNL     1      23.412  18.589  13.029  1.00  0.00     0.262 C 
BRANCH   2   3
ATOM      3  N   UNL     1      23.011  19.917  13.481  1.00  0.00    -0.335 N 
ATOM      4  O   UNL     1      23.146  22.125  15.833  1.00  0.00    -0.272 OA
ATOM      5  C   UNL     1      22.220  22.729  15.255  1.00  0.00     0.247 C 
ATOM      6  N   UNL     1      21.641  23.924  15.720  1.00  0.00    -0.336 N 
ATOM      7  C   UNL     1      21.559  22.295  13.967  1.00  0.00     0.131 C 
ATOM      8  C   UNL     1      20.988  24.515  14.594  1.00  0.00     0.238 C 
ATOM      9  N   UNL     1      20.582  23.364  13.773  1.00  0.00    -0.339 N 
ATOM     10  C   UNL     1      20.899  20.949  14.191  1.00  0.00     0.100 C 
ATOM     11  C   UNL     1      22.610  22.235  12.917  1.00  0.00     0.100 C 
ATOM     12  C   UNL     1      21.925  19.867  14.437  1.00  0.00     0.265 C 
ATOM     13  C   UNL     1      22.750  20.838  12.407  1.00  0.00     0.265 C 
ATOM     14  H   UNL     1      21.694  24.288  16.709  1.00  0.00     0.165 HD
ATOM     15  H   UNL     1      23.848  20.272  13.994  1.00  0.00     0.348 HD
BRANCH   9  16
ATOM     16  C   UNL     1      19.406  23.406  12.982  1.00  0.00     0.039 A 
ATOM     17  C   UNL     1      19.470  23.629  11.627  1.00  0.00     0.026 A 
ATOM     18  C   UNL     1      18.193  23.202  13.564  1.00  0.00     0.026 A 
ATOM     19  C   UNL     1      18.319  23.652  10.834  1.00  0.00     0.002 A 
ATOM     20  C   UNL     1      17.055  23.221  12.807  1.00  0.00     0.002 A 
ATOM     21  C   UNL     1      17.107  23.442  11.455  1.00  0.00     0.000 A 
ENDBRANCH   9  16
ENDBRANCH   2   3
ENDBRANCH   1   2
BRANCH   1  22
ATOM     22  C   UNL     1      21.677  16.937  12.209  1.00  0.00     0.019 C 
BRANCH  22  23
ATOM     23  C   UNL     1      21.526  17.577  10.910  1.00  0.00     0.049 C 
BRANCH  23  24
ATOM     24  C   UNL     1      21.950  16.751   9.723  1.00  0.00    -0.040 A 
ATOM     25  C   UNL     1      22.768  15.674   9.982  1.00  0.00     0.007 A 
ATOM     26  C   UNL     1      21.573  17.052   8.442  1.00  0.00     0.007 A 
ATOM     27  C   UNL     1      23.217  14.886   8.952  1.00  0.00     0.039 A 
ATOM     28  C   UNL     1      22.022  16.263   7.417  1.00  0.00     0.039 A 
ATOM     29  C   UNL     1      22.854  15.162   7.654  1.00  0.00     0.123 A 
ATOM     30  F   UNL     1      23.305  14.376   6.643  1.00  0.00    -0.207 F 
ENDBRANCH  23  24
BRANCH  23  31
ATOM     31  C   UNL     1      20.338  18.354  10.596  1.00  0.00    -0.040 A 
ATOM     32  C   UNL     1      19.040  17.983  10.804  1.00  0.00     0.007 A 
ATOM     33  C   UNL     1      20.577  19.602  10.005  1.00  0.00     0.007 A 
ATOM     34  C   UNL     1      18.016  18.857  10.419  1.00  0.00     0.039 A 
ATOM     35  C   UNL     1      19.593  20.459   9.629  1.00  0.00     0.039 A 
ATOM     36  C   UNL     1      18.290  20.072   9.843  1.00  0.00     0.123 A 
ATOM     37  F   UNL     1      17.315  20.940   9.461  1.00  0.00    -0.207 F 
ENDBRANCH  23  31
ENDBRANCH  22  23
ENDBRANCH   1  22
TORSDOF 7
ENDMDL
MODEL 3
REMARK VINA RESULT:     -10.2      0.529      3.852
REMARK SMILES O=C1NCN(c2ccccc2)C12CC[NH+](CCCC(c1ccc(F)cc1)c1ccc(F)cc1)CC2
REMARK SMILES IDX 17 1 16 2 15 3 1 4 2 5 3 6 12 7 4 8 5 9 13 10 35 11 14 12
REMARK SMILES IDX 34 13 6 16 7 17 11 18 8 19 10 20 9 21 18 22 19 23 20 24
REMARK SMILES IDX 21 25 26 26 22 27 25 28 23 29 24 30 27 31 28 32 33 33 29 34
REMARK SMILES IDX 32 35 30 36 31 37
REMARK H PARENT 3 14 15 15
ROOT
ATOM      1  C   UNL     1      22.283  17.848  12.750  1.00  0.00     0.062 C 
ENDROOT
BRANCH   1   2
ATOM      2  C   UNL     1      23.380  18.502  13.537  1.00  0.00     0.262 C 
BRANCH   2   3
ATOM      3  N   UNL     1      23.035  19.891  13.821  1.00  0.00    -0.335 N 
ATOM      4  O   UNL     1      23.335  22.391  15.843  1.00  0.00    -0.272 OA
ATOM      5  C   UNL     1      22.399  22.941  15.227  1.00  0.00     0.247 C 
ATOM      6  N   UNL     1      21.873  24.205  15.549  1.00  0.00    -0.336 N 
ATOM      7  C   UNL     1      21.668  22.358  14.040  1.00  0.00     0.131 C 
ATOM      8  C   UNL     1      21.185  24.659  14.382  1.00  0.00     0.238 C 
ATOM      9  N   UNL     1      20.712  23.422  13.743  1.00  0.00    -0.339 N 
ATOM     10  C   UNL     1      20.985  21.076  14.472  1.00  0.00     0.100 C 
ATOM     11  C   UNL     1      22.668  22.123  12.964  1.00  0.00     0.100 C 
ATOM     12  C   UNL     1      21.992  20.005  14.819  1.00  0.00     0.265 C 
ATOM     13  C   UNL     1      22.748  20.667  12.643  1.00  0.00     0.265 C 
ATOM     14  H   UNL     1      21.981  24.697  16.477  1.00  0.00     0.165 HD
ATOM     15  H   UNL     1      23.903  20.285  14.245  1.00  0.00     0.348 HD
BRANCH   9  16
ATOM     16  C   UNL     1      19.502  23.394  13.004  1.00  0.00     0.039 A 
ATOM     17  C   UNL     1      18.286  23.286  13.636  1.00  0.00     0.026 A 
ATOM     18  C   UNL     1      19.538  23.498  11.647  1.00  0.00     0.026 A 
ATOM     19  C   UNL     1      17.086  23.278  12.918  1.00  0.00     0.002 A 
ATOM     20  C   UNL     1      18.376  23.493  10.926  1.00  0.00     0.002 A 
ATOM     21  C   UNL     1      17.158  23.385  11.546  1.00  0.00     0.000 A 
ENDBRANCH   9  16
ENDBRANCH   2   3
ENDBRANCH   1   2
BRANCH   1  22
ATOM     22  C   UNL     1      22.656  17.226  11.474  1.00  0.00     0.019 C 
BRANCH  22  23
ATOM     23  C   UNL     1      21.677  16.853  10.462  1.00  0.00     0.049 C 
BRANCH  23  24
ATOM     24  C   UNL     1      20.547  17.828  10.258  1.00  0.00    -0.040 A 
ATOM     25  C   UNL     1      20.887  19.080   9.798  1.00  0.00     0.007 A 
ATOM     26  C   UNL     1      19.243  17.514  10.535  1.00  0.00     0.007 A 
ATOM     27  C   UNL     1      19.917  20.032   9.610  1.00  0.00     0.039 A 
ATOM     28  C   UNL     1      18.278  18.467  10.345  1.00  0.00     0.039 A 
ATOM     29  C   UNL     1      18.598  19.747   9.877  1.00  0.00     0.123 A 
ATOM     30  F   UNL     1      17.647  20.697   9.688  1.00  0.00    -0.207 F 
ENDBRANCH  23  24
BRANCH  23  31
ATOM     31  C   UNL     1      22.099  16.284   9.192  1.00  0.00    -0.040 A 
ATOM     32  C   UNL     1      21.572  16.553   7.960  1.00  0.00     0.007 A 
ATOM     33  C   UNL     1      23.144  15.354   9.270  1.00  0.00     0.007 A 
ATOM     34  C   UNL     1      22.095  15.893   6.842  1.00  0.00     0.039 A 
ATOM     35  C   UNL     1      23.660  14.709   8.193  1.00  0.00     0.039 A 
ATOM     36  C   UNL     1      23.120  14.988   6.959  1.00  0.00     0.123 A 
ATOM     37  F   UNL     1      23.647  14.334   5.889  1.00  0.00    -0.207 F 
ENDBRANCH  23  31
ENDBRANCH  22  23
ENDBRANCH   1  22
TORSDOF 7
ENDMDL
MODEL 4
REMARK VINA RESULT:     -10.1      3.887      8.429
REMARK SMILES O=C1NCN(c2ccccc2)C12CC[NH+](CCCC(c1ccc(F)cc1)c1ccc(F)cc1)CC2
REMARK SMILES IDX 17 1 16 2 15 3 1 4 2 5 3 6 12 7 4 8 5 9 13 10 35 11 14 12
REMARK SMILES IDX 34 13 6 16 7 17 11 18 8 19 10 20 9 21 18 22 19 23 20 24
REMARK SMILES IDX 21 25 26 26 22 27 25 28 23 29 24 30 27 31 28 32 33 33 29 34
REMARK SMILES IDX 32 35 30 36 31 37
REMARK H PARENT 3 14 15 15
ROOT
ATOM      1  C   UNL     1      21.462  17.323  13.928  1.00  0.00     0.062 C 
ENDROOT
BRANCH   1   2
ATOM      2  C   UNL     1      20.125  17.580  13.299  1.00  0.00     0.262 C 
BRANCH   2   3
ATOM      3  N   UNL     1      20.296  18.191  11.985  1.00  0.00    -0.335 N 
ATOM      4  O   UNL     1      19.173  20.309   9.822  1.00  0.00    -0.272 OA
ATOM      5  C   UNL     1      19.932  19.782   8.982  1.00  0.00     0.247 C 
ATOM      6  N   UNL     1      20.028  20.185   7.638  1.00  0.00    -0.336 N 
ATOM      7  C   UNL     1      20.873  18.631   9.251  1.00  0.00     0.131 C 
ATOM      8  C   UNL     1      21.279  19.686   7.161  1.00  0.00     0.238 C 
ATOM      9  N   UNL     1      21.492  18.456   7.939  1.00  0.00    -0.339 N 
ATOM     10  C   UNL     1      20.056  17.423   9.665  1.00  0.00     0.100 C 
ATOM     11  C   UNL     1      21.818  19.058  10.316  1.00  0.00     0.100 C 
ATOM     12  C   UNL     1      19.386  17.643  11.001  1.00  0.00     0.265 C 
ATOM     13  C   UNL     1      21.660  18.193  11.524  1.00  0.00     0.265 C 
ATOM     14  H   UNL     1      19.305  20.746   7.112  1.00  0.00     0.165 HD
ATOM     15  H   UNL     1      20.020  19.186  12.131  1.00  0.00     0.348 HD
BRANCH   9  16
ATOM     16  C   UNL     1      22.184  17.349   7.386  1.00  0.00     0.039 A 
ATOM     17  C   UNL     1      22.618  17.363   6.082  1.00  0.00     0.026 A 
ATOM     18  C   UNL     1      22.446  16.261   8.161  1.00  0.00     0.026 A 
ATOM     19  C   UNL     1      23.319  16.286   5.532  1.00  0.00     0.002 A 
ATOM     20  C   UNL     1      23.130  15.197   7.643  1.00  0.00     0.002 A 
ATOM     21  C   UNL     1      23.567  15.200   6.344  1.00  0.00     0.000 A 
ENDBRANCH   9  16
ENDBRANCH   2   3
ENDBRANCH   1   2
BRANCH   1  22
ATOM     22  C   UNL     1      21.838  18.167  15.068  1.00  0.00     0.019 C 
BRANCH  22  23
ATOM     23  C   UNL     1      23.058  18.962  15.093  1.00  0.00     0.049 C 
BRANCH  23  24
ATOM     24  C   UNL     1      22.863  20.455  15.048  1.00  0.00    -0.040 A 
ATOM     25  C   UNL     1      22.463  20.989  13.843  1.00  0.00     0.007 A 
ATOM     26  C   UNL     1      23.091  21.263  16.130  1.00  0.00     0.007 A 
ATOM     27  C   UNL     1      22.287  22.344  13.714  1.00  0.00     0.039 A 
ATOM     28  C   UNL     1      22.914  22.613  15.997  1.00  0.00     0.039 A 
ATOM     29  C   UNL     1      22.507  23.181  14.784  1.00  0.00     0.123 A 
ATOM     30  F   UNL     1      22.330  24.519  14.645  1.00  0.00    -0.207 F 
ENDBRANCH  23  24
BRANCH  23  31
ATOM     31  C   UNL     1      24.155  18.614  15.981  1.00  0.00    -0.040 A 
ATOM     32  C   UNL     1      24.100  18.498  17.342  1.00  0.00     0.007 A 
ATOM     33  C   UNL     1      25.389  18.398  15.354  1.00  0.00     0.007 A 
ATOM     34  C   UNL     1      25.269  18.172  18.041  1.00  0.00     0.039 A 
ATOM     35  C   UNL     1      26.528  18.080  16.020  1.00  0.00     0.039 A 
ATOM     36  C   UNL     1      26.459  17.967  17.389  1.00  0.00     0.123 A 
ATOM     37  F   UNL     1      27.608  17.648  18.044  1.00  0.00    -0.207 F 
ENDBRANCH  23  31
ENDBRANCH  22  23
ENDBRANCH   1  22
TORSDOF 7
ENDMDL
MODEL 5
REMARK VINA RESULT:     -10.1      0.751      3.860
REMARK SMILES O=C1NCN(c2ccccc2)C12CC[NH+](CCCC(c1ccc(F)cc1)c1ccc(F)cc1)CC2
REMARK SMILES IDX 17 1 16 2 15 3 1 4 2 5 3 6 12 7 4 8 5 9 13 10 35 11 14 12
REMARK SMILES IDX 34 13 6 16 7 17 11 18 8 19 10 20 9 21 18 22 19 23 20 24
REMARK SMILES IDX 21 25 26 26 22 27 25 28 23 29 24 30 27 31 28 32 33 33 29 34
REMARK SMILES IDX 32 35 30 36 31 37
REMARK H PARENT 3 14 15 15
ROOT
ATOM      1  C   UNL     1      22.549  17.847  12.585  1.00  0.00     0.062 C 
ENDROOT
BRANCH   1   2
ATOM      2  C   UNL     1      23.507  18.962  12.884  1.00  0.00     0.262 C 
BRANCH   2   3
ATOM      3  N   UNL     1      22.799  20.088  13.480  1.00  0.00    -0.335 N 
ATOM      4  O   UNL     1      22.022  21.665  16.189  1.00  0.00    -0.272 OA
ATOM      5  C   UNL     1      21.165  22.285  15.527  1.00  0.00     0.247 C 
ATOM      6  N   UNL     1      20.304  23.261  16.061  1.00  0.00    -0.336 N 
ATOM      7  C   UNL     1      20.898  22.104  14.050  1.00  0.00     0.131 C 
ATOM      8  C   UNL     1      19.837  24.031  14.951  1.00  0.00     0.238 C 
ATOM      9  N   UNL     1      19.828  23.075  13.833  1.00  0.00    -0.339 N 
ATOM     10  C   UNL     1      20.438  20.680  13.812  1.00  0.00     0.100 C 
ATOM     11  C   UNL     1      22.156  22.415  13.322  1.00  0.00     0.100 C 
ATOM     12  C   UNL     1      21.546  19.690  14.088  1.00  0.00     0.265 C 
ATOM     13  C   UNL     1      22.640  21.207  12.589  1.00  0.00     0.265 C 
ATOM     14  H   UNL     1      20.068  23.379  17.083  1.00  0.00     0.165 HD
ATOM     15  H   UNL     1      23.424  20.399  14.255  1.00  0.00     0.348 HD
BRANCH   9  16
ATOM     16  C   UNL     1      18.874  23.177  12.789  1.00  0.00     0.039 A 
ATOM     17  C   UNL     1      17.535  22.976  13.028  1.00  0.00     0.026 A 
ATOM     18  C   UNL     1      19.282  23.501  11.531  1.00  0.00     0.026 A 
ATOM     19  C   UNL     1      16.584  23.094  12.011  1.00  0.00     0.002 A 
ATOM     20  C   UNL     1      18.368  23.622  10.522  1.00  0.00     0.002 A 
ATOM     21  C   UNL     1      17.030  23.423  10.749  1.00  0.00     0.000 A 
ENDBRANCH   9  16
ENDBRANCH   2   3
ENDBRANCH   1   2
BRANCH   1  22
ATOM     22  C   UNL     1      22.803  17.052  11.379  1.00  0.00     0.019 C 
BRANCH  22  23
ATOM     23  C   UNL     1      21.779  16.787  10.377  1.00  0.00     0.049 C 
BRANCH  23  24
ATOM     24  C   UNL     1      20.715  17.844  10.238  1.00  0.00    -0.040 A 
ATOM     25  C   UNL     1      19.421  17.456  10.508  1.00  0.00     0.007 A 
ATOM     26  C   UNL     1      20.994  19.124   9.841  1.00  0.00     0.007 A 
ATOM     27  C   UNL     1      18.392  18.355  10.381  1.00  0.00     0.039 A 
ATOM     28  C   UNL     1      19.964  20.018   9.716  1.00  0.00     0.039 A 
ATOM     29  C   UNL     1      18.640  19.649   9.984  1.00  0.00     0.123 A 
ATOM     30  F   UNL     1      17.614  20.529   9.862  1.00  0.00    -0.207 F 
ENDBRANCH  23  24
BRANCH  23  31
ATOM     31  C   UNL     1      22.133  16.241   9.077  1.00  0.00    -0.040 A 
ATOM     32  C   UNL     1      21.576  16.570   7.873  1.00  0.00     0.007 A 
ATOM     33  C   UNL     1      23.140  15.267   9.090  1.00  0.00     0.007 A 
ATOM     34  C   UNL     1      22.032  15.924   6.718  1.00  0.00     0.039 A 
ATOM     35  C   UNL     1      23.591  14.635   7.976  1.00  0.00     0.039 A 
ATOM     36  C   UNL     1      23.021  14.974   6.771  1.00  0.00     0.123 A 
ATOM     37  F   UNL     1      23.483  14.333   5.664  1.00  0.00    -0.207 F 
ENDBRANCH  23  31
ENDBRANCH  22  23
ENDBRANCH   1  22
TORSDOF 7
ENDMDL
MODEL 6
REMARK VINA RESULT:     -10.1      3.948      8.380
REMARK SMILES O=C1NCN(c2ccccc2)C12CC[NH+](CCCC(c1ccc(F)cc1)c1ccc(F)cc1)CC2
REMARK SMILES IDX 17 1 16 2 15 3 1 4 2 5 3 6 12 7 4 8 5 9 13 10 35 11 14 12
REMARK SMILES IDX 34 13 6 16 7 17 11 18 8 19 10 20 9 21 18 22 19 23 20 24
REMARK SMILES IDX 21 25 26 26 22 27 25 28 23 29 24 30 27 31 28 32 33 33 29 34
REMARK SMILES IDX 32 35 30 36 31 37
REMARK H PARENT 3 14 15 15
ROOT
ATOM      1  C   UNL     1      20.483  18.106  14.065  1.00  0.00     0.062 C 
ENDROOT
BRANCH   1   2
ATOM      2  C   UNL     1      19.872  17.290  12.964  1.00  0.00     0.262 C 
BRANCH   2   3
ATOM      3  N   UNL     1      20.252  17.833  11.665  1.00  0.00    -0.335 N 
ATOM      4  O   UNL     1      19.655  20.031   9.376  1.00  0.00    -0.272 OA
ATOM      5  C   UNL     1      20.403  19.377   8.619  1.00  0.00     0.247 C 
ATOM      6  N   UNL     1      20.682  19.725   7.285  1.00  0.00    -0.336 N 
ATOM      7  C   UNL     1      21.137  18.109   8.993  1.00  0.00     0.131 C 
ATOM      8  C   UNL     1      21.884  19.037   6.936  1.00  0.00     0.238 C 
ATOM      9  N   UNL     1      21.842  17.812   7.749  1.00  0.00    -0.339 N 
ATOM     10  C   UNL     1      20.117  17.044   9.343  1.00  0.00     0.100 C 
ATOM     11  C   UNL     1      22.032  18.425  10.137  1.00  0.00     0.100 C 
ATOM     12  C   UNL     1      19.366  17.396  10.606  1.00  0.00     0.265 C 
ATOM     13  C   UNL     1      21.638  17.626  11.336  1.00  0.00     0.265 C 
ATOM     14  H   UNL     1      20.100  20.369   6.685  1.00  0.00     0.165 HD
ATOM     15  H   UNL     1      20.111  18.861  11.770  1.00  0.00     0.348 HD
BRANCH   9  16
ATOM     16  C   UNL     1      22.413  16.601   7.280  1.00  0.00     0.039 A 
ATOM     17  C   UNL     1      22.269  16.209   5.970  1.00  0.00     0.026 A 
ATOM     18  C   UNL     1      23.135  15.822   8.130  1.00  0.00     0.026 A 
ATOM     19  C   UNL     1      22.845  15.029   5.492  1.00  0.00     0.002 A 
ATOM     20  C   UNL     1      23.707  14.663   7.683  1.00  0.00     0.002 A 
ATOM     21  C   UNL     1      23.570  14.262   6.379  1.00  0.00     0.000 A 
ENDBRANCH   9  16
ENDBRANCH   2   3
ENDBRANCH   1   2
BRANCH   1  22
ATOM     22  C   UNL     1      21.785  17.666  14.579  1.00  0.00     0.019 C 
BRANCH  22  23
ATOM     23  C   UNL     1      22.986  18.484  14.491  1.00  0.00     0.049 C 
BRANCH  23  24
ATOM     24  C   UNL     1      22.758  19.972  14.431  1.00  0.00    -0.040 A 
ATOM     25  C   UNL     1      22.755  20.546  13.179  1.00  0.00     0.007 A 
ATOM     26  C   UNL     1      22.586  20.738  15.553  1.00  0.00     0.007 A 
ATOM     27  C   UNL     1      22.577  21.900  13.043  1.00  0.00     0.039 A 
ATOM     28  C   UNL     1      22.408  22.088  15.412  1.00  0.00     0.039 A 
ATOM     29  C   UNL     1      22.400  22.696  14.151  1.00  0.00     0.123 A 
ATOM     30  F   UNL     1      22.226  24.034  14.003  1.00  0.00    -0.207 F 
ENDBRANCH  23  24
BRANCH  23  31
ATOM     31  C   UNL     1      24.157  18.177  15.296  1.00  0.00    -0.040 A 
ATOM     32  C   UNL     1      25.427  18.644  15.104  1.00  0.00     0.007 A 
ATOM     33  C   UNL     1      23.937  17.295  16.362  1.00  0.00     0.007 A 
ATOM     34  C   UNL     1      26.442  18.223  15.973  1.00  0.00     0.039 A 
ATOM     35  C   UNL     1      24.912  16.881  17.212  1.00  0.00     0.039 A 
ATOM     36  C   UNL     1      26.186  17.358  17.006  1.00  0.00     0.123 A 
ATOM     37  F   UNL     1      27.153  16.935  17.865  1.00  0.00    -0.207 F 
ENDBRANCH  23  31
ENDBRANCH  22  23
ENDBRANCH   1  22
TORSDOF 7
ENDMDL
MODEL 7
REMARK VINA RESULT:     -10.0      2.511      5.149
REMARK SMILES O=C1NCN(c2ccccc2)C12CC[NH+](CCCC(c1ccc(F)cc1)c1ccc(F)cc1)CC2
REMARK SMILES IDX 17 1 16 2 15 3 1 4 2 5 3 6 12 7 4 8 5 9 13 10 35 11 14 12
REMARK SMILES IDX 34 13 6 16 7 17 11 18 8 19 10 20 9 21 18 22 19 23 20 24
REMARK SMILES IDX 21 25 26 26 22 27 25 28 23 29 24 30 27 31 28 32 33 33 29 34
REMARK SMILES IDX 32 35 30 36 31 37
REMARK H PARENT 3 14 15 15
ROOT
ATOM      1  C   UNL     1      18.171  18.596  10.623  1.00  0.00     0.062 C 
ENDROOT
BRANCH   1   2
ATOM      2  C   UNL     1      18.046  20.033  10.208  1.00  0.00     0.262 C 
BRANCH   2   3
ATOM      3  N   UNL     1      17.965  20.891  11.384  1.00  0.00    -0.335 N 
ATOM      4  O   UNL     1      16.521  23.410  12.797  1.00  0.00    -0.272 OA
ATOM      5  C   UNL     1      17.444  23.409  13.637  1.00  0.00     0.247 C 
ATOM      6  N   UNL     1      17.549  24.321  14.702  1.00  0.00    -0.336 N 
ATOM      7  C   UNL     1      18.604  22.440  13.663  1.00  0.00     0.131 C 
ATOM      8  C   UNL     1      18.426  23.720  15.657  1.00  0.00     0.238 C 
ATOM      9  N   UNL     1      19.335  22.902  14.840  1.00  0.00    -0.339 N 
ATOM     10  C   UNL     1      19.406  22.608  12.388  1.00  0.00     0.100 C 
ATOM     11  C   UNL     1      18.045  21.068  13.796  1.00  0.00     0.100 C 
ATOM     12  C   UNL     1      18.614  22.169  11.178  1.00  0.00     0.265 C 
ATOM     13  C   UNL     1      18.399  20.249  12.597  1.00  0.00     0.265 C 
ATOM     14  H   UNL     1      17.063  25.257  14.759  1.00  0.00     0.165 HD
ATOM     15  H   UNL     1      16.945  21.084  11.486  1.00  0.00     0.348 HD
BRANCH   9  16
ATOM     16  C   UNL     1      20.681  22.689  15.233  1.00  0.00     0.039 A 
ATOM     17  C   UNL     1      21.568  23.735  15.323  1.00  0.00     0.026 A 
ATOM     18  C   UNL     1      21.101  21.433  15.547  1.00  0.00     0.026 A 
ATOM     19  C   UNL     1      22.892  23.539  15.728  1.00  0.00     0.002 A 
ATOM     20  C   UNL     1      22.392  21.220  15.946  1.00  0.00     0.002 A 
ATOM     21  C   UNL     1      23.285  22.255  16.039  1.00  0.00     0.000 A 
ENDBRANCH   9  16
ENDBRANCH   2   3
ENDBRANCH   1   2
BRANCH   1  22
ATOM     22  C   UNL     1      19.286  17.831  10.054  1.00  0.00     0.019 C 
BRANCH  22  23
ATOM     23  C   UNL     1      20.554  18.442   9.679  1.00  0.00     0.049 C 
BRANCH  23  24
ATOM     24  C   UNL     1      21.491  18.749  10.818  1.00  0.00    -0.040 A 
ATOM     25  C   UNL     1      22.095  17.672  11.427  1.00  0.00     0.007 A 
ATOM     26  C   UNL     1      21.724  20.025  11.258  1.00  0.00     0.007 A 
ATOM     27  C   UNL     1      22.944  17.868  12.488  1.00  0.00     0.039 A 
ATOM     28  C   UNL     1      22.572  20.215  12.316  1.00  0.00     0.039 A 
ATOM     29  C   UNL     1      23.199  19.138  12.952  1.00  0.00     0.123 A 
ATOM     30  F   UNL     1      24.040  19.318  14.002  1.00  0.00    -0.207 F 
ENDBRANCH  23  24
BRANCH  23  31
ATOM     31  C   UNL     1      21.293  17.972   8.519  1.00  0.00    -0.040 A 
ATOM     32  C   UNL     1      21.687  16.688   8.266  1.00  0.00     0.007 A 
ATOM     33  C   UNL     1      21.638  18.959   7.587  1.00  0.00     0.007 A 
ATOM     34  C   UNL     1      22.414  16.420   7.099  1.00  0.00     0.039 A 
ATOM     35  C   UNL     1      22.340  18.712   6.452  1.00  0.00     0.039 A 
ATOM     36  C   UNL     1      22.733  17.415   6.210  1.00  0.00     0.123 A 
ATOM     37  F   UNL     1      23.435  17.182   5.069  1.00  0.00    -0.207 F 
ENDBRANCH  23  31
ENDBRANCH  22  23
ENDBRANCH   1  22
TORSDOF 7
ENDMDL
MODEL 8
REMARK VINA RESULT:      -9.9      0.586      3.896
REMARK SMILES O=C1NCN(c2ccccc2)C12CC[NH+](CCCC(c1ccc(F)cc1)c1ccc(F)cc1)CC2
REMARK SMILES IDX 17 1 16 2 15 3 1 4 2 5 3 6 12 7 4 8 5 9 13 10 35 11 14 12
REMARK SMILES IDX 34 13 6 16 7 17 11 18 8 19 10 20 9 21 18 22 19 23 20 24
REMARK SMILES IDX 21 25 26 26 22 27 25 28 23 29 24 30 27 31 28 32 33 33 29 34
REMARK SMILES IDX 32 35 30 36 31 37
REMARK H PARENT 3 14 15 15
ROOT
ATOM      1  C   UNL     1      22.314  17.907  12.548  1.00  0.00     0.062 C 
ENDROOT
BRANCH   1   2
ATOM      2  C   UNL     1      23.457  18.625  13.204  1.00  0.00     0.262 C 
BRANCH   2   3
ATOM      3  N   UNL     1      23.048  19.970  13.592  1.00  0.00    -0.335 N 
ATOM      4  O   UNL     1      23.185  22.297  15.828  1.00  0.00    -0.272 OA
ATOM      5  C   UNL     1      22.247  22.862  15.229  1.00  0.00     0.247 C 
ATOM      6  N   UNL     1      21.661  24.073  15.639  1.00  0.00    -0.336 N 
ATOM      7  C   UNL     1      21.577  22.356  13.973  1.00  0.00     0.131 C 
ATOM      8  C   UNL     1      20.991  24.600  14.492  1.00  0.00     0.238 C 
ATOM      9  N   UNL     1      20.588  23.405  13.735  1.00  0.00    -0.339 N 
ATOM     10  C   UNL     1      20.932  21.018  14.272  1.00  0.00     0.100 C 
ATOM     11  C   UNL     1      22.617  22.253  12.915  1.00  0.00     0.100 C 
ATOM     12  C   UNL     1      21.971  19.959  14.561  1.00  0.00     0.265 C 
ATOM     13  C   UNL     1      22.766  20.833  12.475  1.00  0.00     0.265 C 
ATOM     14  H   UNL     1      21.721  24.488  16.608  1.00  0.00     0.165 HD
ATOM     15  H   UNL     1      23.886  20.359  14.077  1.00  0.00     0.348 HD
BRANCH   9  16
ATOM     16  C   UNL     1      19.403  23.396  12.956  1.00  0.00     0.039 A 
ATOM     17  C   UNL     1      19.453  23.524  11.588  1.00  0.00     0.026 A 
ATOM     18  C   UNL     1      18.196  23.236  13.564  1.00  0.00     0.026 A 
ATOM     19  C   UNL     1      18.293  23.495  10.807  1.00  0.00     0.002 A 
ATOM     20  C   UNL     1      17.049  23.206  12.820  1.00  0.00     0.002 A 
ATOM     21  C   UNL     1      17.087  23.333  11.455  1.00  0.00     0.000 A 
ENDBRANCH   9  16
ENDBRANCH   2   3
ENDBRANCH   1   2
BRANCH   1  22
ATOM     22  C   UNL     1      22.631  17.066  11.388  1.00  0.00     0.019 C 
BRANCH  22  23
ATOM     23  C   UNL     1      21.725  16.905  10.259  1.00  0.00     0.049 C 
BRANCH  23  24
ATOM     24  C   UNL     1      20.644  17.947  10.137  1.00  0.00    -0.040 A 
ATOM     25  C   UNL     1      19.363  17.546  10.443  1.00  0.00     0.007 A 
ATOM     26  C   UNL     1      20.897  19.227   9.720  1.00  0.00     0.007 A 
ATOM     27  C   UNL     1      18.320  18.430  10.333  1.00  0.00     0.039 A 
ATOM     28  C   UNL     1      19.853  20.106   9.613  1.00  0.00     0.039 A 
ATOM     29  C   UNL     1      18.541  19.723   9.919  1.00  0.00     0.123 A 
ATOM     30  F   UNL     1      17.501  20.589   9.814  1.00  0.00    -0.207 F 
ENDBRANCH  23  24
BRANCH  23  31
ATOM     31  C   UNL     1      22.230  16.533   8.947  1.00  0.00    -0.040 A 
ATOM     32  C   UNL     1      21.915  17.119   7.754  1.00  0.00     0.007 A 
ATOM     33  C   UNL     1      23.116  15.448   8.931  1.00  0.00     0.007 A 
ATOM     34  C   UNL     1      22.486  16.613   6.580  1.00  0.00     0.039 A 
ATOM     35  C   UNL     1      23.676  14.949   7.800  1.00  0.00     0.039 A 
ATOM     36  C   UNL     1      23.350  15.547   6.605  1.00  0.00     0.123 A 
ATOM     37  F   UNL     1      23.919  15.037   5.480  1.00  0.00    -0.207 F 
ENDBRANCH  23  31
ENDBRANCH  22  23
ENDBRANCH   1  22
TORSDOF 7
ENDMDL
MODEL 9
REMARK VINA RESULT:      -9.9      2.684      5.180
REMARK SMILES O=C1NCN(c2ccccc2)C12CC[NH+](CCCC(c1ccc(F)cc1)c1ccc(F)cc1)CC2
REMARK SMILES IDX 17 1 16 2 15 3 1 4 2 5 3 6 12 7 4 8 5 9 13 10 35 11 14 12
REMARK SMILES IDX 34 13 6 16 7 17 11 18 8 19 10 20 9 21 18 22 19 23 20 24
REMARK SMILES IDX 21 25 26 26 22 27 25 28 23 29 24 30 27 31 28 32 33 33 29 34
REMARK SMILES IDX 32 35 30 36 31 37
REMARK H PARENT 3 14 15 15
ROOT
ATOM      1  C   UNL     1      17.845  19.032  10.208  1.00  0.00     0.062 C 
ENDROOT
BRANCH   1   2
ATOM      2  C   UNL     1      17.935  20.529  10.174  1.00  0.00     0.262 C 
BRANCH   2   3
ATOM      3  N   UNL     1      17.678  21.078  11.501  1.00  0.00    -0.335 N 
ATOM      4  O   UNL     1      15.596  22.614  13.434  1.00  0.00    -0.272 OA
ATOM      5  C   UNL     1      16.542  22.798  14.228  1.00  0.00     0.247 C 
ATOM      6  N   UNL     1      16.429  23.483  15.451  1.00  0.00    -0.336 N 
ATOM      7  C   UNL     1      17.963  22.326  14.024  1.00  0.00     0.131 C 
ATOM      8  C   UNL     1      17.551  23.082  16.239  1.00  0.00     0.238 C 
ATOM      9  N   UNL     1      18.601  22.805  15.247  1.00  0.00    -0.339 N 
ATOM     10  C   UNL     1      18.523  22.994  12.785  1.00  0.00     0.100 C 
ATOM     11  C   UNL     1      17.933  20.845  13.895  1.00  0.00     0.100 C 
ATOM     12  C   UNL     1      17.817  22.519  11.536  1.00  0.00     0.265 C 
ATOM     13  C   UNL     1      18.428  20.433  12.547  1.00  0.00     0.265 C 
ATOM     14  H   UNL     1      15.656  24.155  15.710  1.00  0.00     0.165 HD
ATOM     15  H   UNL     1      16.670  20.869  11.671  1.00  0.00     0.348 HD
BRANCH   9  16
ATOM     16  C   UNL     1      19.969  23.027  15.548  1.00  0.00     0.039 A 
ATOM     17  C   UNL     1      20.382  24.182  16.169  1.00  0.00     0.026 A 
ATOM     18  C   UNL     1      20.891  22.075  15.237  1.00  0.00     0.026 A 
ATOM     19  C   UNL     1      21.725  24.402  16.489  1.00  0.00     0.002 A 
ATOM     20  C   UNL     1      22.210  22.270  15.540  1.00  0.00     0.002 A 
ATOM     21  C   UNL     1      22.633  23.418  16.160  1.00  0.00     0.000 A 
ENDBRANCH   9  16
ENDBRANCH   2   3
ENDBRANCH   1   2
BRANCH   1  22
ATOM     22  C   UNL     1      19.108  18.286  10.156  1.00  0.00     0.019 C 
BRANCH  22  23
ATOM     23  C   UNL     1      20.392  18.924   9.906  1.00  0.00     0.049 C 
BRANCH  23  24
ATOM     24  C   UNL     1      21.324  18.998  11.087  1.00  0.00    -0.040 A 
ATOM     25  C   UNL     1      21.466  17.850  11.834  1.00  0.00     0.007 A 
ATOM     26  C   UNL     1      21.988  20.145  11.433  1.00  0.00     0.007 A 
ATOM     27  C   UNL     1      22.278  17.843  12.940  1.00  0.00     0.039 A 
ATOM     28  C   UNL     1      22.797  20.134  12.537  1.00  0.00     0.039 A 
ATOM     29  C   UNL     1      22.959  18.980  13.313  1.00  0.00     0.123 A 
ATOM     30  F   UNL     1      23.759  18.961  14.409  1.00  0.00    -0.207 F 
ENDBRANCH  23  24
BRANCH  23  31
ATOM     31  C   UNL     1      21.133  18.654   8.684  1.00  0.00    -0.040 A 
ATOM     32  C   UNL     1      21.462  19.555   7.711  1.00  0.00     0.007 A 
ATOM     33  C   UNL     1      21.523  17.320   8.503  1.00  0.00     0.007 A 
ATOM     34  C   UNL     1      22.166  19.108   6.586  1.00  0.00     0.039 A 
ATOM     35  C   UNL     1      22.207  16.876   7.417  1.00  0.00     0.039 A 
ATOM     36  C   UNL     1      22.531  17.793   6.444  1.00  0.00     0.123 A 
ATOM     37  F   UNL     1      23.216  17.334   5.363  1.00  0.00    -0.207 F 
ENDBRANCH  23  31
ENDBRANCH  22  23
ENDBRANCH   1  22
TORSDOF 7
ENDMDL
