MODEL 1
REMARK VINA RESULT:      -6.3      0.000      0.000
REMARK SMILES Clc1ccccc1C(c1ccccc1)(c1ccccc1)n1ccnc1
REMARK SMILES IDX 1 1 2 2 3 3 4 4 5 5 6 6 7 7 8 8 9 9 10 10 14 11 11 12 13 13
REMARK SMILES IDX 12 14 15 15 16 16 20 17 17 18 19 19 18 20 21 21 22 22 25 23
REMARK SMILES IDX 23 24 24 25
REMARK H PARENT
ROOT
ATOM      1  Cl  UNL     1      28.169  -1.567   9.791  1.00  0.00    -0.084 Cl
ATOM      2  C   UNL     1      27.293  -2.940   9.151  1.00  0.00     0.047 A 
ATOM      3  C   UNL     1      26.937  -3.012   7.824  1.00  0.00     0.021 A 
ATOM      4  C   UNL     1      26.276  -4.106   7.309  1.00  0.00     0.002 A 
ATOM      5  C   UNL     1      25.975  -5.138   8.163  1.00  0.00     0.001 A 
ATOM      6  C   UNL     1      26.338  -5.063   9.514  1.00  0.00     0.008 A 
ATOM      7  C   UNL     1      26.990  -3.979  10.015  1.00  0.00     0.006 A 
ENDROOT
BRANCH   7   8
ATOM      8  C   UNL     1      27.343  -3.911  11.459  1.00  0.00     0.123 C 
BRANCH   8   9
ATOM      9  C   UNL     1      26.762  -5.110  12.128  1.00  0.00    -0.013 A 
ATOM     10  C   UNL     1      25.637  -5.129  12.885  1.00  0.00     0.007 A 
ATOM     11  C   UNL     1      27.472  -6.307  11.912  1.00  0.00     0.007 A 
ATOM     12  C   UNL     1      25.207  -6.325  13.432  1.00  0.00     0.000 A 
ATOM     13  C   UNL     1      27.038  -7.488  12.457  1.00  0.00     0.000 A 
ATOM     14  C   UNL     1      25.900  -7.518  13.226  1.00  0.00     0.000 A 
ENDBRANCH   8   9
BRANCH   8  15
ATOM     15  C   UNL     1      26.666  -2.767  12.128  1.00  0.00    -0.013 A 
ATOM     16  C   UNL     1      27.304  -1.913  12.988  1.00  0.00     0.007 A 
ATOM     17  C   UNL     1      25.342  -2.538  11.852  1.00  0.00     0.007 A 
ATOM     18  C   UNL     1      26.652  -0.838  13.580  1.00  0.00     0.000 A 
ATOM     19  C   UNL     1      24.662  -1.458  12.439  1.00  0.00     0.000 A 
ATOM     20  C   UNL     1      25.326  -0.623  13.294  1.00  0.00     0.000 A 
ENDBRANCH   8  15
BRANCH   8  21
ATOM     21  N   UNL     1      28.762  -3.789  11.615  1.00  0.00    -0.319 N 
ATOM     22  C   UNL     1      29.705  -4.427  10.867  1.00  0.00     0.109 A 
ATOM     23  C   UNL     1      29.415  -3.026  12.491  1.00  0.00     0.200 A 
ATOM     24  C   UNL     1      30.955  -4.043  11.299  1.00  0.00     0.131 A 
ATOM     25  N   UNL     1      30.750  -3.186  12.293  1.00  0.00    -0.245 NA
ENDBRANCH   8  21
ENDBRANCH   7   8
TORSDOF 4
ENDMDL
MODEL 2
REMARK VINA RESULT:      -6.3      1.471      4.524
REMARK SMILES Clc1ccccc1C(c1ccccc1)(c1ccccc1)n1ccnc1
REMARK SMILES IDX 1 1 2 2 3 3 4 4 5 5 6 6 7 7 8 8 9 9 10 10 14 11 11 12 13 13
REMARK SMILES IDX 12 14 15 15 16 16 20 17 17 18 19 19 18 20 21 21 22 22 25 23
REMARK SMILES IDX 23 24 24 25
REMARK H PARENT
ROOT
ATOM      1  Cl  UNL     1      28.343  -6.422   9.703  1.00  0.00    -0.084 Cl
ATOM      2  C   UNL     1      27.339  -6.632  11.120  1.00  0.00     0.047 A 
ATOM      3  C   UNL     1      27.287  -7.829  11.796  1.00  0.00     0.021 A 
ATOM      4  C   UNL     1      26.522  -7.989  12.931  1.00  0.00     0.002 A 
ATOM      5  C   UNL     1      25.802  -6.909  13.379  1.00  0.00     0.001 A 
ATOM      6  C   UNL     1      25.855  -5.691  12.690  1.00  0.00     0.008 A 
ATOM      7  C   UNL     1      26.612  -5.541  11.569  1.00  0.00     0.006 A 
ENDROOT
BRANCH   7   8
ATOM      8  C   UNL     1      26.633  -4.245  10.839  1.00  0.00     0.123 C 
BRANCH   8   9
ATOM      9  C   UNL     1      25.664  -3.329  11.507  1.00  0.00    -0.013 A 
ATOM     10  C   UNL     1      24.337  -3.559  11.669  1.00  0.00     0.007 A 
ATOM     11  C   UNL     1      26.227  -2.141  12.011  1.00  0.00     0.007 A 
ATOM     12  C   UNL     1      23.561  -2.622  12.327  1.00  0.00     0.000 A 
ATOM     13  C   UNL     1      25.451  -1.218  12.663  1.00  0.00     0.000 A 
ATOM     14  C   UNL     1      24.105  -1.441  12.832  1.00  0.00     0.000 A 
ENDBRANCH   8   9
BRANCH   8  15
ATOM     15  C   UNL     1      26.092  -4.392   9.461  1.00  0.00    -0.013 A 
ATOM     16  C   UNL     1      26.763  -3.976   8.341  1.00  0.00     0.007 A 
ATOM     17  C   UNL     1      24.872  -4.996   9.298  1.00  0.00     0.007 A 
ATOM     18  C   UNL     1      26.243  -4.148   7.063  1.00  0.00     0.000 A 
ATOM     19  C   UNL     1      24.326  -5.180   8.016  1.00  0.00     0.000 A 
ATOM     20  C   UNL     1      25.019  -4.754   6.916  1.00  0.00     0.000 A 
ENDBRANCH   8  15
BRANCH   8  21
ATOM     21  N   UNL     1      27.970  -3.733  10.780  1.00  0.00    -0.319 N 
ATOM     22  C   UNL     1      28.469  -2.912   9.815  1.00  0.00     0.109 A 
ATOM     23  C   UNL     1      28.953  -3.943  11.656  1.00  0.00     0.200 A 
ATOM     24  C   UNL     1      29.782  -2.619  10.110  1.00  0.00     0.131 A 
ATOM     25  N   UNL     1      30.053  -3.261  11.240  1.00  0.00    -0.245 NA
ENDBRANCH   8  21
ENDBRANCH   7   8
TORSDOF 4
ENDMDL
MODEL 3
REMARK VINA RESULT:      -6.2      1.463      4.649
REMARK SMILES Clc1ccccc1C(c1ccccc1)(c1ccccc1)n1ccnc1
REMARK SMILES IDX 1 1 2 2 3 3 4 4 5 5 6 6 7 7 8 8 9 9 10 10 14 11 11 12 13 13
REMARK SMILES IDX 12 14 15 15 16 16 20 17 17 18 19 19 18 20 21 21 22 22 25 23
REMARK SMILES IDX 23 24 24 25
REMARK H PARENT
ROOT
ATOM      1  Cl  UNL     1      28.245  -6.563   9.961  1.00  0.00    -0.084 Cl
ATOM      2  C   UNL     1      27.186  -6.678  11.349  1.00  0.00     0.047 A 
ATOM      3  C   UNL     1      27.074  -7.841  12.075  1.00  0.00     0.021 A 
ATOM      4  C   UNL     1      26.265  -7.926  13.188  1.00  0.00     0.002 A 
ATOM      5  C   UNL     1      25.563  -6.806  13.561  1.00  0.00     0.001 A 
ATOM      6  C   UNL     1      25.679  -5.622  12.821  1.00  0.00     0.008 A 
ATOM      7  C   UNL     1      26.478  -5.547  11.722  1.00  0.00     0.006 A 
ENDROOT
BRANCH   7   8
ATOM      8  C   UNL     1      26.565  -4.286  10.937  1.00  0.00     0.123 C 
BRANCH   8   9
ATOM      9  C   UNL     1      25.640  -3.297  11.558  1.00  0.00    -0.013 A 
ATOM     10  C   UNL     1      24.306  -3.464  11.741  1.00  0.00     0.007 A 
ATOM     11  C   UNL     1      26.253  -2.106  11.990  1.00  0.00     0.007 A 
ATOM     12  C   UNL     1      23.573  -2.461  12.350  1.00  0.00     0.000 A 
ATOM     13  C   UNL     1      25.520  -1.117  12.593  1.00  0.00     0.000 A 
ATOM     14  C   UNL     1      24.168  -1.276  12.784  1.00  0.00     0.000 A 
ENDBRANCH   8   9
BRANCH   8  15
ATOM     15  C   UNL     1      26.024  -4.467   9.563  1.00  0.00    -0.013 A 
ATOM     16  C   UNL     1      24.859  -5.137   9.294  1.00  0.00     0.007 A 
ATOM     17  C   UNL     1      26.710  -3.916   8.511  1.00  0.00     0.007 A 
ATOM     18  C   UNL     1      24.365  -5.271   8.002  1.00  0.00     0.000 A 
ATOM     19  C   UNL     1      26.230  -4.039   7.196  1.00  0.00     0.000 A 
ATOM     20  C   UNL     1      25.065  -4.714   6.959  1.00  0.00     0.000 A 
ENDBRANCH   8  15
BRANCH   8  21
ATOM     21  N   UNL     1      27.926  -3.843  10.864  1.00  0.00    -0.319 N 
ATOM     22  C   UNL     1      28.867  -3.993  11.836  1.00  0.00     0.109 A 
ATOM     23  C   UNL     1      28.521  -3.232   9.840  1.00  0.00     0.200 A 
ATOM     24  C   UNL     1      30.058  -3.460  11.394  1.00  0.00     0.131 A 
ATOM     25  N   UNL     1      29.819  -3.002  10.171  1.00  0.00    -0.245 NA
ENDBRANCH   8  21
ENDBRANCH   7   8
TORSDOF 4
ENDMDL
MODEL 4
REMARK VINA RESULT:      -6.2      1.859      5.163
REMARK SMILES Clc1ccccc1C(c1ccccc1)(c1ccccc1)n1ccnc1
REMARK SMILES IDX 1 1 2 2 3 3 4 4 5 5 6 6 7 7 8 8 9 9 10 10 14 11 11 12 13 13
REMARK SMILES IDX 12 14 15 15 16 16 20 17 17 18 19 19 18 20 21 21 22 22 25 23
REMARK SMILES IDX 23 24 24 25
REMARK H PARENT
ROOT
ATOM      1  Cl  UNL     1      28.209  -3.118  12.686  1.00  0.00    -0.084 Cl
ATOM      2  C   UNL     1      26.468  -3.007  12.555  1.00  0.00     0.047 A 
ATOM      3  C   UNL     1      25.717  -2.329  13.488  1.00  0.00     0.021 A 
ATOM      4  C   UNL     1      24.349  -2.211  13.371  1.00  0.00     0.002 A 
ATOM      5  C   UNL     1      23.743  -2.794  12.286  1.00  0.00     0.001 A 
ATOM      6  C   UNL     1      24.508  -3.484  11.337  1.00  0.00     0.008 A 
ATOM      7  C   UNL     1      25.858  -3.597  11.460  1.00  0.00     0.006 A 
ENDROOT
BRANCH   7   8
ATOM      8  C   UNL     1      26.648  -4.357  10.453  1.00  0.00     0.123 C 
BRANCH   8   9
ATOM      9  C   UNL     1      27.803  -3.509  10.045  1.00  0.00    -0.013 A 
ATOM     10  C   UNL     1      29.080  -3.935   9.877  1.00  0.00     0.007 A 
ATOM     11  C   UNL     1      27.489  -2.157   9.810  1.00  0.00     0.007 A 
ATOM     12  C   UNL     1      30.050  -3.032   9.478  1.00  0.00     0.000 A 
ATOM     13  C   UNL     1      28.456  -1.269   9.415  1.00  0.00     0.000 A 
ATOM     14  C   UNL     1      29.753  -1.690   9.242  1.00  0.00     0.000 A 
ENDBRANCH   8   9
BRANCH   8  15
ATOM     15  C   UNL     1      25.879  -4.543   9.193  1.00  0.00    -0.013 A 
ATOM     16  C   UNL     1      24.604  -5.043   9.155  1.00  0.00     0.007 A 
ATOM     17  C   UNL     1      26.464  -4.173   8.008  1.00  0.00     0.007 A 
ATOM     18  C   UNL     1      23.901  -5.184   7.964  1.00  0.00     0.000 A 
ATOM     19  C   UNL     1      25.773  -4.306   6.792  1.00  0.00     0.000 A 
ATOM     20  C   UNL     1      24.502  -4.810   6.786  1.00  0.00     0.000 A 
ENDBRANCH   8  15
BRANCH   8  21
ATOM     21  N   UNL     1      27.023  -5.635  10.981  1.00  0.00    -0.319 N 
ATOM     22  C   UNL     1      27.875  -6.522  10.396  1.00  0.00     0.109 A 
ATOM     23  C   UNL     1      26.633  -6.177  12.134  1.00  0.00     0.200 A 
ATOM     24  C   UNL     1      28.003  -7.625  11.210  1.00  0.00     0.131 A 
ATOM     25  N   UNL     1      27.234  -7.388  12.267  1.00  0.00    -0.245 NA
ENDBRANCH   8  21
ENDBRANCH   7   8
TORSDOF 4
ENDMDL
MODEL 5
REMARK VINA RESULT:      -6.2      1.869      4.532
REMARK SMILES Clc1ccccc1C(c1ccccc1)(c1ccccc1)n1ccnc1
REMARK SMILES IDX 1 1 2 2 3 3 4 4 5 5 6 6 7 7 8 8 9 9 10 10 14 11 11 12 13 13
REMARK SMILES IDX 12 14 15 15 16 16 20 17 17 18 19 19 18 20 21 21 22 22 25 23
REMARK SMILES IDX 23 24 24 25
REMARK H PARENT
ROOT
ATOM      1  Cl  UNL     1      28.812  -5.898   9.644  1.00  0.00    -0.084 Cl
ATOM      2  C   UNL     1      27.725  -6.329  10.946  1.00  0.00     0.047 A 
ATOM      3  C   UNL     1      27.788  -7.559  11.559  1.00  0.00     0.021 A 
ATOM      4  C   UNL     1      26.956  -7.891  12.606  1.00  0.00     0.002 A 
ATOM      5  C   UNL     1      26.049  -6.952  13.030  1.00  0.00     0.001 A 
ATOM      6  C   UNL     1      25.986  -5.700  12.405  1.00  0.00     0.008 A 
ATOM      7  C   UNL     1      26.810  -5.380  11.371  1.00  0.00     0.006 A 
ENDROOT
BRANCH   7   8
ATOM      8  C   UNL     1      26.707  -4.053  10.705  1.00  0.00     0.123 C 
BRANCH   8   9
ATOM      9  C   UNL     1      28.015  -3.357  10.872  1.00  0.00    -0.013 A 
ATOM     10  C   UNL     1      28.646  -2.618   9.926  1.00  0.00     0.007 A 
ATOM     11  C   UNL     1      28.599  -3.496  12.145  1.00  0.00     0.007 A 
ATOM     12  C   UNL     1      29.854  -2.014  10.231  1.00  0.00     0.000 A 
ATOM     13  C   UNL     1      29.795  -2.894  12.438  1.00  0.00     0.000 A 
ATOM     14  C   UNL     1      30.444  -2.143  11.488  1.00  0.00     0.000 A 
ENDBRANCH   8   9
BRANCH   8  15
ATOM     15  C   UNL     1      25.740  -3.169  11.410  1.00  0.00    -0.013 A 
ATOM     16  C   UNL     1      24.422  -3.492  11.597  1.00  0.00     0.007 A 
ATOM     17  C   UNL     1      26.193  -1.979  11.921  1.00  0.00     0.007 A 
ATOM     18  C   UNL     1      23.546  -2.657  12.280  1.00  0.00     0.000 A 
ATOM     19  C   UNL     1      25.326  -1.118  12.614  1.00  0.00     0.000 A 
ATOM     20  C   UNL     1      24.015  -1.468  12.784  1.00  0.00     0.000 A 
ENDBRANCH   8  15
BRANCH   8  21
ATOM     21  N   UNL     1      26.305  -4.215   9.340  1.00  0.00    -0.319 N 
ATOM     22  C   UNL     1      25.352  -5.075   8.885  1.00  0.00     0.109 A 
ATOM     23  C   UNL     1      26.765  -3.551   8.280  1.00  0.00     0.200 A 
ATOM     24  C   UNL     1      25.232  -4.931   7.521  1.00  0.00     0.131 A 
ATOM     25  N   UNL     1      26.107  -3.993   7.176  1.00  0.00    -0.245 NA
ENDBRANCH   8  21
ENDBRANCH   7   8
TORSDOF 4
ENDMDL
MODEL 6
REMARK VINA RESULT:      -6.1      2.113      3.766
REMARK SMILES Clc1ccccc1C(c1ccccc1)(c1ccccc1)n1ccnc1
REMARK SMILES IDX 1 1 2 2 3 3 4 4 5 5 6 6 7 7 8 8 9 9 10 10 14 11 11 12 13 13
REMARK SMILES IDX 12 14 15 15 16 16 20 17 17 18 19 19 18 20 21 21 22 22 25 23
REMARK SMILES IDX 23 24 24 25
REMARK H PARENT
ROOT
ATOM      1  Cl  UNL     1      23.759  -5.742  10.624  1.00  0.00    -0.084 Cl
ATOM      2  C   UNL     1      24.777  -5.066   9.371  1.00  0.00     0.047 A 
ATOM      3  C   UNL     1      24.402  -5.089   8.048  1.00  0.00     0.021 A 
ATOM      4  C   UNL     1      25.185  -4.528   7.062  1.00  0.00     0.002 A 
ATOM      5  C   UNL     1      26.367  -3.938   7.436  1.00  0.00     0.001 A 
ATOM      6  C   UNL     1      26.748  -3.915   8.785  1.00  0.00     0.008 A 
ATOM      7  C   UNL     1      25.969  -4.472   9.752  1.00  0.00     0.006 A 
ENDROOT
BRANCH   7   8
ATOM      8  C   UNL     1      26.407  -4.458  11.174  1.00  0.00     0.123 C 
BRANCH   8   9
ATOM      9  C   UNL     1      25.348  -3.775  11.970  1.00  0.00    -0.013 A 
ATOM     10  C   UNL     1      24.326  -3.040  11.466  1.00  0.00     0.007 A 
ATOM     11  C   UNL     1      25.452  -3.950  13.363  1.00  0.00     0.007 A 
ATOM     12  C   UNL     1      23.404  -2.476  12.330  1.00  0.00     0.000 A 
ATOM     13  C   UNL     1      24.534  -3.388  14.212  1.00  0.00     0.000 A 
ATOM     14  C   UNL     1      23.495  -2.641  13.712  1.00  0.00     0.000 A 
ENDBRANCH   8   9
BRANCH   8  15
ATOM     15  C   UNL     1      27.605  -3.598  11.362  1.00  0.00    -0.013 A 
ATOM     16  C   UNL     1      27.550  -2.230  11.414  1.00  0.00     0.007 A 
ATOM     17  C   UNL     1      28.827  -4.202  11.517  1.00  0.00     0.007 A 
ATOM     18  C   UNL     1      28.684  -1.452  11.614  1.00  0.00     0.000 A 
ATOM     19  C   UNL     1      29.988  -3.436  11.721  1.00  0.00     0.000 A 
ATOM     20  C   UNL     1      29.901  -2.073  11.767  1.00  0.00     0.000 A 
ENDBRANCH   8  15
BRANCH   8  21
ATOM     21  N   UNL     1      26.696  -5.791  11.614  1.00  0.00    -0.319 N 
ATOM     22  C   UNL     1      27.602  -6.638  11.052  1.00  0.00     0.109 A 
ATOM     23  C   UNL     1      26.158  -6.432  12.651  1.00  0.00     0.200 A 
ATOM     24  C   UNL     1      27.613  -7.818  11.762  1.00  0.00     0.131 A 
ATOM     25  N   UNL     1      26.722  -7.666  12.734  1.00  0.00    -0.245 NA
ENDBRANCH   8  21
ENDBRANCH   7   8
TORSDOF 4
ENDMDL
MODEL 7
REMARK VINA RESULT:      -6.1      0.977      4.419
REMARK SMILES Clc1ccccc1C(c1ccccc1)(c1ccccc1)n1ccnc1
REMARK SMILES IDX 1 1 2 2 3 3 4 4 5 5 6 6 7 7 8 8 9 9 10 10 14 11 11 12 13 13
REMARK SMILES IDX 12 14 15 15 16 16 20 17 17 18 19 19 18 20 21 21 22 22 25 23
REMARK SMILES IDX 23 24 24 25
REMARK H PARENT
ROOT
ATOM      1  Cl  UNL     1      27.736  -1.513  10.294  1.00  0.00    -0.084 Cl
ATOM      2  C   UNL     1      26.675  -1.772  11.661  1.00  0.00     0.047 A 
ATOM      3  C   UNL     1      26.102  -0.720  12.338  1.00  0.00     0.021 A 
ATOM      4  C   UNL     1      25.240  -0.920  13.395  1.00  0.00     0.002 A 
ATOM      5  C   UNL     1      24.962  -2.214  13.762  1.00  0.00     0.001 A 
ATOM      6  C   UNL     1      25.546  -3.284  13.072  1.00  0.00     0.008 A 
ATOM      7  C   UNL     1      26.397  -3.078  12.030  1.00  0.00     0.006 A 
ENDROOT
BRANCH   7   8
ATOM      8  C   UNL     1      27.025  -4.230  11.329  1.00  0.00     0.123 C 
BRANCH   8   9
ATOM      9  C   UNL     1      26.376  -4.359   9.993  1.00  0.00    -0.013 A 
ATOM     10  C   UNL     1      26.951  -4.064   8.800  1.00  0.00     0.007 A 
ATOM     11  C   UNL     1      25.056  -4.847  10.022  1.00  0.00     0.007 A 
ATOM     12  C   UNL     1      26.229  -4.249   7.634  1.00  0.00     0.000 A 
ATOM     13  C   UNL     1      24.348  -5.028   8.862  1.00  0.00     0.000 A 
ATOM     14  C   UNL     1      24.921  -4.732   7.649  1.00  0.00     0.000 A 
ENDBRANCH   8   9
BRANCH   8  15
ATOM     15  C   UNL     1      26.704  -5.515  12.006  1.00  0.00    -0.013 A 
ATOM     16  C   UNL     1      25.634  -5.677  12.846  1.00  0.00     0.007 A 
ATOM     17  C   UNL     1      27.505  -6.602  11.761  1.00  0.00     0.007 A 
ATOM     18  C   UNL     1      25.346  -6.897  13.447  1.00  0.00     0.000 A 
ATOM     19  C   UNL     1      27.233  -7.844  12.357  1.00  0.00     0.000 A 
ATOM     20  C   UNL     1      26.158  -7.975  13.192  1.00  0.00     0.000 A 
ENDBRANCH   8  15
BRANCH   8  21
ATOM     21  N   UNL     1      28.446  -4.057  11.270  1.00  0.00    -0.319 N 
ATOM     22  C   UNL     1      29.221  -3.489  12.235  1.00  0.00     0.109 A 
ATOM     23  C   UNL     1      29.264  -4.433  10.288  1.00  0.00     0.200 A 
ATOM     24  C   UNL     1      30.537  -3.520  11.830  1.00  0.00     0.131 A 
ATOM     25  N   UNL     1      30.536  -4.102  10.636  1.00  0.00    -0.245 NA
ENDBRANCH   8  21
ENDBRANCH   7   8
TORSDOF 4
ENDMDL
MODEL 8
REMARK VINA RESULT:      -6.1      1.883      5.090
REMARK SMILES Clc1ccccc1C(c1ccccc1)(c1ccccc1)n1ccnc1
REMARK SMILES IDX 1 1 2 2 3 3 4 4 5 5 6 6 7 7 8 8 9 9 10 10 14 11 11 12 13 13
REMARK SMILES IDX 12 14 15 15 16 16 20 17 17 18 19 19 18 20 21 21 22 22 25 23
REMARK SMILES IDX 23 24 24 25
REMARK H PARENT
ROOT
ATOM      1  Cl  UNL     1      28.151  -3.168  12.640  1.00  0.00    -0.084 Cl
ATOM      2  C   UNL     1      26.406  -3.129  12.509  1.00  0.00     0.047 A 
ATOM      3  C   UNL     1      25.624  -2.547  13.480  1.00  0.00     0.021 A 
ATOM      4  C   UNL     1      24.252  -2.485  13.365  1.00  0.00     0.002 A 
ATOM      5  C   UNL     1      23.675  -3.026  12.243  1.00  0.00     0.001 A 
ATOM      6  C   UNL     1      24.472  -3.619  11.256  1.00  0.00     0.008 A 
ATOM      7  C   UNL     1      25.826  -3.677  11.377  1.00  0.00     0.006 A 
ENDROOT
BRANCH   7   8
ATOM      8  C   UNL     1      26.651  -4.334  10.327  1.00  0.00     0.123 C 
BRANCH   8   9
ATOM      9  C   UNL     1      27.756  -3.402   9.965  1.00  0.00    -0.013 A 
ATOM     10  C   UNL     1      27.633  -2.066   9.763  1.00  0.00     0.007 A 
ATOM     11  C   UNL     1      29.022  -4.006   9.848  1.00  0.00     0.007 A 
ATOM     12  C   UNL     1      28.755  -1.321   9.447  1.00  0.00     0.000 A 
ATOM     13  C   UNL     1      30.129  -3.260   9.534  1.00  0.00     0.000 A 
ATOM     14  C   UNL     1      30.016  -1.906   9.328  1.00  0.00     0.000 A 
ENDBRANCH   8   9
BRANCH   8  15
ATOM     15  C   UNL     1      25.887  -4.492   9.060  1.00  0.00    -0.013 A 
ATOM     16  C   UNL     1      26.395  -4.167   7.829  1.00  0.00     0.007 A 
ATOM     17  C   UNL     1      24.619  -5.011   9.120  1.00  0.00     0.007 A 
ATOM     18  C   UNL     1      25.666  -4.347   6.659  1.00  0.00     0.000 A 
ATOM     19  C   UNL     1      23.864  -5.201   7.951  1.00  0.00     0.000 A 
ATOM     20  C   UNL     1      24.397  -4.867   6.737  1.00  0.00     0.000 A 
ENDBRANCH   8  15
BRANCH   8  21
ATOM     21  N   UNL     1      27.099  -5.617  10.782  1.00  0.00    -0.319 N 
ATOM     22  C   UNL     1      26.877  -6.148  12.017  1.00  0.00     0.109 A 
ATOM     23  C   UNL     1      27.784  -6.525  10.088  1.00  0.00     0.200 A 
ATOM     24  C   UNL     1      27.442  -7.403  12.073  1.00  0.00     0.131 A 
ATOM     25  N   UNL     1      27.989  -7.609  10.881  1.00  0.00    -0.245 NA
ENDBRANCH   8  21
ENDBRANCH   7   8
TORSDOF 4
ENDMDL
MODEL 9
REMARK VINA RESULT:      -6.0      1.960      4.090
REMARK SMILES Clc1ccccc1C(c1ccccc1)(c1ccccc1)n1ccnc1
REMARK SMILES IDX 1 1 2 2 3 3 4 4 5 5 6 6 7 7 8 8 9 9 10 10 14 11 11 12 13 13
REMARK SMILES IDX 12 14 15 15 16 16 20 17 17 18 19 19 18 20 21 21 22 22 25 23
REMARK SMILES IDX 23 24 24 25
REMARK H PARENT
ROOT
ATOM      1  Cl  UNL     1      23.827  -5.466  11.133  1.00  0.00    -0.084 Cl
ATOM      2  C   UNL     1      24.916  -5.021   9.838  1.00  0.00     0.047 A 
ATOM      3  C   UNL     1      24.504  -5.000   8.525  1.00  0.00     0.021 A 
ATOM      4  C   UNL     1      25.350  -4.619   7.506  1.00  0.00     0.002 A 
ATOM      5  C   UNL     1      26.632  -4.255   7.835  1.00  0.00     0.001 A 
ATOM      6  C   UNL     1      27.050  -4.276   9.172  1.00  0.00     0.008 A 
ATOM      7  C   UNL     1      26.210  -4.655  10.173  1.00  0.00     0.006 A 
ENDROOT
BRANCH   7   8
ATOM      8  C   UNL     1      26.684  -4.695  11.583  1.00  0.00     0.123 C 
BRANCH   8   9
ATOM      9  C   UNL     1      25.854  -3.738  12.370  1.00  0.00    -0.013 A 
ATOM     10  C   UNL     1      25.236  -4.006  13.547  1.00  0.00     0.007 A 
ATOM     11  C   UNL     1      25.746  -2.452  11.809  1.00  0.00     0.007 A 
ATOM     12  C   UNL     1      24.509  -3.010  14.174  1.00  0.00     0.000 A 
ATOM     13  C   UNL     1      25.024  -1.470  12.438  1.00  0.00     0.000 A 
ATOM     14  C   UNL     1      24.393  -1.731  13.630  1.00  0.00     0.000 A 
ENDBRANCH   8   9
BRANCH   8  15
ATOM     15  C   UNL     1      28.064  -4.154  11.704  1.00  0.00    -0.013 A 
ATOM     16  C   UNL     1      28.364  -2.997  12.375  1.00  0.00     0.007 A 
ATOM     17  C   UNL     1      29.095  -4.859  11.138  1.00  0.00     0.007 A 
ATOM     18  C   UNL     1      29.667  -2.528  12.492  1.00  0.00     0.000 A 
ATOM     19  C   UNL     1      30.421  -4.404  11.243  1.00  0.00     0.000 A 
ATOM     20  C   UNL     1      30.688  -3.246  11.918  1.00  0.00     0.000 A 
ENDBRANCH   8  15
BRANCH   8  21
ATOM     21  N   UNL     1      26.647  -6.039  12.078  1.00  0.00    -0.319 N 
ATOM     22  C   UNL     1      27.432  -7.068  11.653  1.00  0.00     0.109 A 
ATOM     23  C   UNL     1      25.869  -6.521  13.047  1.00  0.00     0.200 A 
ATOM     24  C   UNL     1      27.122  -8.198  12.376  1.00  0.00     0.131 A 
ATOM     25  N   UNL     1      26.164  -7.836  13.222  1.00  0.00    -0.245 NA
ENDBRANCH   8  21
ENDBRANCH   7   8
TORSDOF 4
ENDMDL
