MODEL 1
REMARK VINA RESULT:      -4.5      0.000      0.000
REMARK SMILES O=C1c2c([O-])ccc(O)c2C(=O)c2c(NCC[NH2+]CCO)ccc(NCCNCCO)c21
REMARK SMILES IDX 1 1 2 2 3 3 4 4 5 5 6 6 7 7 8 8 10 9 11 10 12 11 13 12 14 13
REMARK SMILES IDX 22 14 23 15 24 16 32 17 25 18 26 20 27 21 28 22 29 24 30 25
REMARK SMILES IDX 31 26 9 28 15 30 16 32 17 33 18 34 19 37 20 38 21 39
REMARK H PARENT 25 19 28 23 31 27 9 29 15 31 18 35 18 36 21 40
ROOT
ATOM      1  O   UNL     1      53.436 -21.957  13.372  1.00  0.00    -0.288 OA
ATOM      2  C   UNL     1      53.218 -21.400  14.476  1.00  0.00     0.196 C 
ATOM      3  C   UNL     1      52.313 -20.227  14.498  1.00  0.00     0.030 A 
ATOM      4  C   UNL     1      51.762 -19.819  13.299  1.00  0.00    -0.097 A 
ATOM      5  O   UNL     1      52.069 -20.511  12.131  1.00  0.00    -0.872 OA
ATOM      6  C   UNL     1      50.916 -18.731  13.294  1.00  0.00    -0.004 A 
ATOM      7  C   UNL     1      50.631 -18.070  14.456  1.00  0.00     0.046 A 
ATOM      8  C   UNL     1      51.170 -18.460  15.662  1.00  0.00     0.127 A 
ATOM      9  C   UNL     1      52.024 -19.562  15.654  1.00  0.00     0.075 A 
ATOM     10  C   UNL     1      52.623 -20.016  16.914  1.00  0.00     0.200 C 
ATOM     11  O   UNL     1      52.302 -19.347  17.926  1.00  0.00    -0.288 OA
ATOM     12  C   UNL     1      53.516 -21.166  16.919  1.00  0.00     0.059 A 
ATOM     13  C   UNL     1      54.047 -21.542  18.121  1.00  0.00     0.046 A 
ATOM     14  C   UNL     1      54.909 -22.658  18.084  1.00  0.00     0.028 A 
ATOM     15  C   UNL     1      55.189 -23.314  16.927  1.00  0.00     0.028 A 
ATOM     16  C   UNL     1      54.645 -22.927  15.691  1.00  0.00     0.046 A 
ATOM     17  C   UNL     1      53.805 -21.844  15.708  1.00  0.00     0.059 A 
ENDROOT
BRANCH  16  18
ATOM     18  N   UNL     1      54.979 -23.710  14.547  1.00  0.00    -0.383 N 
ATOM     19  H   UNL     1      54.396 -23.728  13.722  1.00  0.00     0.160 HD
BRANCH  18  20
ATOM     20  C   UNL     1      56.176 -24.530  14.501  1.00  0.00     0.128 C 
BRANCH  20  21
ATOM     21  C   UNL     1      57.236 -24.036  13.583  1.00  0.00     0.102 C 
BRANCH  21  22
ATOM     22  N   UNL     1      57.855 -22.801  14.084  1.00  0.00    -0.313 NA
ATOM     23  H   UNL     1      57.092 -22.080  14.105  1.00  0.00     0.122 HD
BRANCH  22  24
ATOM     24  C   UNL     1      58.798 -22.364  13.065  1.00  0.00     0.109 C 
BRANCH  24  25
ATOM     25  C   UNL     1      59.981 -21.658  13.682  1.00  0.00     0.171 C 
BRANCH  25  26
ATOM     26  O   UNL     1      59.813 -21.475  15.053  1.00  0.00    -0.395 OA
ATOM     27  H   UNL     1      59.689 -22.377  15.460  1.00  0.00     0.210 HD
ENDBRANCH  25  26
ENDBRANCH  24  25
ENDBRANCH  22  24
ENDBRANCH  21  22
ENDBRANCH  20  21
ENDBRANCH  18  20
ENDBRANCH  16  18
BRANCH   8  28
ATOM     28  O   UNL     1      50.875 -17.780  16.851  1.00  0.00    -0.507 OA
ATOM     29  H   UNL     1      50.070 -18.033  17.426  1.00  0.00     0.293 HD
ENDBRANCH   8  28
BRANCH  13  30
ATOM     30  N   UNL     1      53.812 -20.924  19.366  1.00  0.00    -0.379 N 
ATOM     31  H   UNL     1      54.025 -19.966  19.599  1.00  0.00     0.160 HD
BRANCH  30  32
ATOM     32  C   UNL     1      53.205 -21.690  20.474  1.00  0.00     0.174 C 
BRANCH  32  33
ATOM     33  C   UNL     1      51.816 -21.258  20.772  1.00  0.00     0.281 C 
BRANCH  33  34
ATOM     34  N   UNL     1      50.883 -21.455  19.706  1.00  0.00    -0.343 N 
ATOM     35  H   UNL     1      51.096 -20.890  18.853  1.00  0.00     0.346 HD
ATOM     36  H   UNL     1      50.949 -22.459  19.407  1.00  0.00     0.346 HD
BRANCH  34  37
ATOM     37  C   UNL     1      49.509 -21.226  20.083  1.00  0.00     0.289 C 
BRANCH  37  38
ATOM     38  C   UNL     1      49.118 -19.770  19.963  1.00  0.00     0.217 C 
BRANCH  38  39
ATOM     39  O   UNL     1      49.483 -19.314  18.708  1.00  0.00    -0.391 OA
ATOM     40  H   UNL     1      49.311 -18.328  18.695  1.00  0.00     0.210 HD
ENDBRANCH  38  39
ENDBRANCH  37  38
ENDBRANCH  34  37
ENDBRANCH  33  34
ENDBRANCH  32  33
ENDBRANCH  30  32
ENDBRANCH  13  30
TORSDOF 15
ENDMDL
MODEL 2
REMARK VINA RESULT:      -4.3      3.204      8.036
REMARK SMILES O=C1c2c([O-])ccc(O)c2C(=O)c2c(NCC[NH2+]CCO)ccc(NCCNCCO)c21
REMARK SMILES IDX 1 1 2 2 3 3 4 4 5 5 6 6 7 7 8 8 10 9 11 10 12 11 13 12 14 13
REMARK SMILES IDX 22 14 23 15 24 16 32 17 25 18 26 20 27 21 28 22 29 24 30 25
REMARK SMILES IDX 31 26 9 28 15 30 16 32 17 33 18 34 19 37 20 38 21 39
REMARK H PARENT 25 19 28 23 31 27 9 29 15 31 18 35 18 36 21 40
ROOT
ATOM      1  O   UNL     1      48.620 -19.639  18.967  1.00  0.00    -0.288 OA
ATOM      2  C   UNL     1      49.792 -20.088  18.967  1.00  0.00     0.196 C 
ATOM      3  C   UNL     1      50.315 -20.674  20.223  1.00  0.00     0.030 A 
ATOM      4  C   UNL     1      49.476 -20.693  21.321  1.00  0.00    -0.097 A 
ATOM      5  O   UNL     1      48.191 -20.170  21.211  1.00  0.00    -0.872 OA
ATOM      6  C   UNL     1      49.939 -21.234  22.500  1.00  0.00    -0.004 A 
ATOM      7  C   UNL     1      51.206 -21.742  22.579  1.00  0.00     0.046 A 
ATOM      8  C   UNL     1      52.058 -21.733  21.497  1.00  0.00     0.127 A 
ATOM      9  C   UNL     1      51.578 -21.183  20.309  1.00  0.00     0.075 A 
ATOM     10  C   UNL     1      52.449 -21.151  19.129  1.00  0.00     0.200 C 
ATOM     11  O   UNL     1      53.592 -21.639  19.298  1.00  0.00    -0.288 OA
ATOM     12  C   UNL     1      51.959 -20.579  17.883  1.00  0.00     0.059 A 
ATOM     13  C   UNL     1      52.814 -20.573  16.816  1.00  0.00     0.046 A 
ATOM     14  C   UNL     1      52.304 -20.009  15.629  1.00  0.00     0.028 A 
ATOM     15  C   UNL     1      51.044 -19.506  15.553  1.00  0.00     0.028 A 
ATOM     16  C   UNL     1      50.164 -19.511  16.649  1.00  0.00     0.046 A 
ATOM     17  C   UNL     1      50.643 -20.056  17.812  1.00  0.00     0.059 A 
ENDROOT
BRANCH  16  18
ATOM     18  N   UNL     1      48.852 -18.990  16.446  1.00  0.00    -0.383 N 
ATOM     19  H   UNL     1      48.468 -18.266  17.037  1.00  0.00     0.160 HD
BRANCH  18  20
ATOM     20  C   UNL     1      47.990 -19.472  15.382  1.00  0.00     0.128 C 
BRANCH  20  21
ATOM     21  C   UNL     1      47.097 -18.442  14.789  1.00  0.00     0.102 C 
BRANCH  21  22
ATOM     22  N   UNL     1      47.712 -17.108  14.819  1.00  0.00    -0.313 NA
ATOM     23  H   UNL     1      47.363 -16.646  15.694  1.00  0.00     0.122 HD
BRANCH  22  24
ATOM     24  C   UNL     1      47.141 -16.361  13.708  1.00  0.00     0.109 C 
BRANCH  24  25
ATOM     25  C   UNL     1      45.812 -15.752  14.084  1.00  0.00     0.171 C 
BRANCH  25  26
ATOM     26  O   UNL     1      45.974 -14.589  14.834  1.00  0.00    -0.395 OA
ATOM     27  H   UNL     1      45.713 -14.801  15.773  1.00  0.00     0.210 HD
ENDBRANCH  25  26
ENDBRANCH  24  25
ENDBRANCH  22  24
ENDBRANCH  21  22
ENDBRANCH  20  21
ENDBRANCH  18  20
ENDBRANCH  16  18
BRANCH   8  28
ATOM     28  O   UNL     1      53.356 -22.255  21.582  1.00  0.00    -0.507 OA
ATOM     29  H   UNL     1      54.119 -21.883  21.013  1.00  0.00     0.293 HD
ENDBRANCH   8  28
BRANCH  13  30
ATOM     30  N   UNL     1      54.133 -21.072  16.803  1.00  0.00    -0.379 N 
ATOM     31  H   UNL     1      54.906 -20.711  17.342  1.00  0.00     0.160 HD
BRANCH  30  32
ATOM     32  C   UNL     1      54.485 -22.222  15.945  1.00  0.00     0.174 C 
BRANCH  32  33
ATOM     33  C   UNL     1      55.662 -22.971  16.451  1.00  0.00     0.281 C 
BRANCH  33  34
ATOM     34  N   UNL     1      56.186 -22.500  17.696  1.00  0.00    -0.343 N 
ATOM     35  H   UNL     1      56.955 -21.800  17.590  1.00  0.00     0.346 HD
ATOM     36  H   UNL     1      55.412 -21.998  18.197  1.00  0.00     0.346 HD
BRANCH  34  37
ATOM     37  C   UNL     1      56.633 -23.551  18.577  1.00  0.00     0.289 C 
BRANCH  37  38
ATOM     38  C   UNL     1      55.550 -24.571  18.847  1.00  0.00     0.217 C 
BRANCH  38  39
ATOM     39  O   UNL     1      54.795 -24.143  19.925  1.00  0.00    -0.391 OA
ATOM     40  H   UNL     1      54.490 -24.963  20.412  1.00  0.00     0.210 HD
ENDBRANCH  38  39
ENDBRANCH  37  38
ENDBRANCH  34  37
ENDBRANCH  33  34
ENDBRANCH  32  33
ENDBRANCH  30  32
ENDBRANCH  13  30
TORSDOF 15
ENDMDL
MODEL 3
REMARK VINA RESULT:      -4.3      2.176      7.401
REMARK SMILES O=C1c2c([O-])ccc(O)c2C(=O)c2c(NCC[NH2+]CCO)ccc(NCCNCCO)c21
REMARK SMILES IDX 1 1 2 2 3 3 4 4 5 5 6 6 7 7 8 8 10 9 11 10 12 11 13 12 14 13
REMARK SMILES IDX 22 14 23 15 24 16 32 17 25 18 26 20 27 21 28 22 29 24 30 25
REMARK SMILES IDX 31 26 9 28 15 30 16 32 17 33 18 34 19 37 20 38 21 39
REMARK H PARENT 25 19 28 23 31 27 9 29 15 31 18 35 18 36 21 40
ROOT
ATOM      1  O   UNL     1      49.191 -20.553  19.443  1.00  0.00    -0.288 OA
ATOM      2  C   UNL     1      50.241 -20.594  18.756  1.00  0.00     0.196 C 
ATOM      3  C   UNL     1      50.189 -20.069  17.371  1.00  0.00     0.030 A 
ATOM      4  C   UNL     1      48.985 -19.563  16.921  1.00  0.00    -0.097 A 
ATOM      5  O   UNL     1      47.880 -19.564  17.768  1.00  0.00    -0.872 OA
ATOM      6  C   UNL     1      48.912 -19.068  15.638  1.00  0.00    -0.004 A 
ATOM      7  C   UNL     1      50.013 -19.079  14.827  1.00  0.00     0.046 A 
ATOM      8  C   UNL     1      51.223 -19.579  15.256  1.00  0.00     0.127 A 
ATOM      9  C   UNL     1      51.283 -20.076  16.557  1.00  0.00     0.075 A 
ATOM     10  C   UNL     1      52.551 -20.619  17.059  1.00  0.00     0.200 C 
ATOM     11  O   UNL     1      53.504 -20.586  16.244  1.00  0.00    -0.288 OA
ATOM     12  C   UNL     1      52.627 -21.142  18.416  1.00  0.00     0.059 A 
ATOM     13  C   UNL     1      53.832 -21.637  18.830  1.00  0.00     0.046 A 
ATOM     14  C   UNL     1      53.865 -22.136  20.149  1.00  0.00     0.028 A 
ATOM     15  C   UNL     1      52.769 -22.122  20.953  1.00  0.00     0.028 A 
ATOM     16  C   UNL     1      51.530 -21.614  20.528  1.00  0.00     0.046 A 
ATOM     17  C   UNL     1      51.480 -21.125  19.249  1.00  0.00     0.059 A 
ENDROOT
BRANCH  16  18
ATOM     18  N   UNL     1      50.457 -21.617  21.467  1.00  0.00    -0.383 N 
ATOM     19  H   UNL     1      49.588 -22.098  21.284  1.00  0.00     0.160 HD
BRANCH  18  20
ATOM     20  C   UNL     1      50.548 -20.924  22.739  1.00  0.00     0.128 C 
BRANCH  20  21
ATOM     21  C   UNL     1      49.388 -20.050  23.057  1.00  0.00     0.102 C 
BRANCH  21  22
ATOM     22  N   UNL     1      49.419 -18.803  22.282  1.00  0.00    -0.313 NA
ATOM     23  H   UNL     1      50.133 -18.189  22.744  1.00  0.00     0.122 HD
BRANCH  22  24
ATOM     24  C   UNL     1      48.132 -18.154  22.484  1.00  0.00     0.109 C 
BRANCH  24  25
ATOM     25  C   UNL     1      47.433 -17.902  21.170  1.00  0.00     0.171 C 
BRANCH  25  26
ATOM     26  O   UNL     1      48.335 -17.859  20.109  1.00  0.00    -0.395 OA
ATOM     27  H   UNL     1      48.184 -18.676  19.557  1.00  0.00     0.210 HD
ENDBRANCH  25  26
ENDBRANCH  24  25
ENDBRANCH  22  24
ENDBRANCH  21  22
ENDBRANCH  20  21
ENDBRANCH  18  20
ENDBRANCH  16  18
BRANCH   8  28
ATOM     28  O   UNL     1      52.349 -19.588  14.423  1.00  0.00    -0.507 OA
ATOM     29  H   UNL     1      52.744 -20.461  14.069  1.00  0.00     0.293 HD
ENDBRANCH   8  28
BRANCH  13  30
ATOM     30  N   UNL     1      55.018 -21.690  18.069  1.00  0.00    -0.379 N 
ATOM     31  H   UNL     1      55.329 -20.990  17.413  1.00  0.00     0.160 HD
BRANCH  30  32
ATOM     32  C   UNL     1      55.930 -22.846  18.191  1.00  0.00     0.174 C 
BRANCH  32  33
ATOM     33  C   UNL     1      57.320 -22.520  17.785  1.00  0.00     0.281 C 
BRANCH  33  34
ATOM     34  N   UNL     1      57.600 -22.707  16.395  1.00  0.00    -0.343 N 
ATOM     35  H   UNL     1      57.502 -21.835  15.827  1.00  0.00     0.346 HD
ATOM     36  H   UNL     1      58.607 -22.991  16.308  1.00  0.00     0.346 HD
BRANCH  34  37
ATOM     37  C   UNL     1      56.822 -23.753  15.777  1.00  0.00     0.289 C 
BRANCH  37  38
ATOM     38  C   UNL     1      56.099 -23.273  14.539  1.00  0.00     0.217 C 
BRANCH  38  39
ATOM     39  O   UNL     1      55.268 -22.223  14.888  1.00  0.00    -0.391 OA
ATOM     40  H   UNL     1      54.377 -22.620  15.115  1.00  0.00     0.210 HD
ENDBRANCH  38  39
ENDBRANCH  37  38
ENDBRANCH  34  37
ENDBRANCH  33  34
ENDBRANCH  32  33
ENDBRANCH  30  32
ENDBRANCH  13  30
TORSDOF 15
ENDMDL
MODEL 4
REMARK VINA RESULT:      -4.3      2.620      7.471
REMARK SMILES O=C1c2c([O-])ccc(O)c2C(=O)c2c(NCC[NH2+]CCO)ccc(NCCNCCO)c21
REMARK SMILES IDX 1 1 2 2 3 3 4 4 5 5 6 6 7 7 8 8 10 9 11 10 12 11 13 12 14 13
REMARK SMILES IDX 22 14 23 15 24 16 32 17 25 18 26 20 27 21 28 22 29 24 30 25
REMARK SMILES IDX 31 26 9 28 15 30 16 32 17 33 18 34 19 37 20 38 21 39
REMARK H PARENT 25 19 28 23 31 27 9 29 15 31 18 35 18 36 21 40
ROOT
ATOM      1  O   UNL     1      47.916 -20.220  18.523  1.00  0.00    -0.288 OA
ATOM      2  C   UNL     1      49.020 -20.053  17.949  1.00  0.00     0.196 C 
ATOM      3  C   UNL     1      49.020 -19.431  16.604  1.00  0.00     0.030 A 
ATOM      4  C   UNL     1      47.801 -19.071  16.064  1.00  0.00    -0.097 A 
ATOM      5  O   UNL     1      46.634 -19.299  16.788  1.00  0.00    -0.872 OA
ATOM      6  C   UNL     1      47.775 -18.489  14.815  1.00  0.00    -0.004 A 
ATOM      7  C   UNL     1      48.936 -18.276  14.126  1.00  0.00     0.046 A 
ATOM      8  C   UNL     1      50.162 -18.629  14.646  1.00  0.00     0.127 A 
ATOM      9  C   UNL     1      50.175 -19.216  15.911  1.00  0.00     0.075 A 
ATOM     10  C   UNL     1      51.457 -19.608  16.507  1.00  0.00     0.200 C 
ATOM     11  O   UNL     1      52.466 -19.373  15.801  1.00  0.00    -0.288 OA
ATOM     12  C   UNL     1      51.483 -20.222  17.828  1.00  0.00     0.059 A 
ATOM     13  C   UNL     1      52.705 -20.570  18.333  1.00  0.00     0.046 A 
ATOM     14  C   UNL     1      52.689 -21.163  19.612  1.00  0.00     0.028 A 
ATOM     15  C   UNL     1      51.533 -21.372  20.295  1.00  0.00     0.028 A 
ATOM     16  C   UNL     1      50.277 -21.015  19.777  1.00  0.00     0.046 A 
ATOM     17  C   UNL     1      50.273 -20.437  18.534  1.00  0.00     0.059 A 
ENDROOT
BRANCH  16  18
ATOM     18  N   UNL     1      49.133 -21.249  20.595  1.00  0.00    -0.383 N 
ATOM     19  H   UNL     1      48.346 -21.794  20.272  1.00  0.00     0.160 HD
BRANCH  18  20
ATOM     20  C   UNL     1      49.029 -20.712  21.940  1.00  0.00     0.128 C 
BRANCH  20  21
ATOM     21  C   UNL     1      48.362 -19.386  22.032  1.00  0.00     0.102 C 
BRANCH  21  22
ATOM     22  N   UNL     1      49.244 -18.375  22.628  1.00  0.00    -0.313 NA
ATOM     23  H   UNL     1      50.064 -18.898  23.023  1.00  0.00     0.122 HD
BRANCH  22  24
ATOM     24  C   UNL     1      48.531 -17.817  23.767  1.00  0.00     0.109 C 
BRANCH  24  25
ATOM     25  C   UNL     1      49.461 -17.576  24.931  1.00  0.00     0.171 C 
BRANCH  25  26
ATOM     26  O   UNL     1      50.159 -16.378  24.790  1.00  0.00    -0.395 OA
ATOM     27  H   UNL     1      50.726 -16.266  25.603  1.00  0.00     0.210 HD
ENDBRANCH  25  26
ENDBRANCH  24  25
ENDBRANCH  22  24
ENDBRANCH  21  22
ENDBRANCH  20  21
ENDBRANCH  18  20
ENDBRANCH  16  18
BRANCH   8  28
ATOM     28  O   UNL     1      51.350 -18.409  13.937  1.00  0.00    -0.507 OA
ATOM     29  H   UNL     1      52.055 -19.141  13.835  1.00  0.00     0.293 HD
ENDBRANCH   8  28
BRANCH  13  30
ATOM     30  N   UNL     1      53.951 -20.389  17.698  1.00  0.00    -0.379 N 
ATOM     31  H   UNL     1      54.293 -19.526  17.304  1.00  0.00     0.160 HD
BRANCH  30  32
ATOM     32  C   UNL     1      54.888 -21.524  17.561  1.00  0.00     0.174 C 
BRANCH  32  33
ATOM     33  C   UNL     1      54.846 -22.138  16.210  1.00  0.00     0.281 C 
BRANCH  33  34
ATOM     34  N   UNL     1      53.841 -23.141  16.037  1.00  0.00    -0.343 N 
ATOM     35  H   UNL     1      54.228 -24.089  15.826  1.00  0.00     0.346 HD
ATOM     36  H   UNL     1      53.328 -23.239  16.947  1.00  0.00     0.346 HD
BRANCH  34  37
ATOM     37  C   UNL     1      52.852 -22.811  15.040  1.00  0.00     0.289 C 
BRANCH  37  38
ATOM     38  C   UNL     1      53.466 -22.177  13.812  1.00  0.00     0.217 C 
BRANCH  38  39
ATOM     39  O   UNL     1      52.816 -20.982  13.557  1.00  0.00    -0.391 OA
ATOM     40  H   UNL     1      53.523 -20.302  13.358  1.00  0.00     0.210 HD
ENDBRANCH  38  39
ENDBRANCH  37  38
ENDBRANCH  34  37
ENDBRANCH  33  34
ENDBRANCH  32  33
ENDBRANCH  30  32
ENDBRANCH  13  30
TORSDOF 15
ENDMDL
MODEL 5
REMARK VINA RESULT:      -4.1      3.786      7.702
REMARK SMILES O=C1c2c([O-])ccc(O)c2C(=O)c2c(NCC[NH2+]CCO)ccc(NCCNCCO)c21
REMARK SMILES IDX 1 1 2 2 3 3 4 4 5 5 6 6 7 7 8 8 10 9 11 10 12 11 13 12 14 13
REMARK SMILES IDX 22 14 23 15 24 16 32 17 25 18 26 20 27 21 28 22 29 24 30 25
REMARK SMILES IDX 31 26 9 28 15 30 16 32 17 33 18 34 19 37 20 38 21 39
REMARK H PARENT 25 19 28 23 31 27 9 29 15 31 18 35 18 36 21 40
ROOT
ATOM      1  O   UNL     1      49.981 -19.647  22.414  1.00  0.00    -0.288 OA
ATOM      2  C   UNL     1      49.068 -19.497  21.566  1.00  0.00     0.196 C 
ATOM      3  C   UNL     1      48.095 -18.400  21.773  1.00  0.00     0.030 A 
ATOM      4  C   UNL     1      48.254 -17.604  22.891  1.00  0.00    -0.097 A 
ATOM      5  O   UNL     1      49.304 -17.855  23.769  1.00  0.00    -0.872 OA
ATOM      6  C   UNL     1      47.363 -16.575  23.106  1.00  0.00    -0.004 A 
ATOM      7  C   UNL     1      46.340 -16.350  22.227  1.00  0.00     0.046 A 
ATOM      8  C   UNL     1      46.163 -17.132  21.106  1.00  0.00     0.127 A 
ATOM      9  C   UNL     1      47.072 -18.169  20.901  1.00  0.00     0.075 A 
ATOM     10  C   UNL     1      46.925 -19.029  19.721  1.00  0.00     0.200 C 
ATOM     11  O   UNL     1      45.958 -18.746  18.973  1.00  0.00    -0.288 OA
ATOM     12  C   UNL     1      47.868 -20.115  19.495  1.00  0.00     0.059 A 
ATOM     13  C   UNL     1      47.681 -20.886  18.381  1.00  0.00     0.046 A 
ATOM     14  C   UNL     1      48.613 -21.929  18.198  1.00  0.00     0.028 A 
ATOM     15  C   UNL     1      49.629 -22.149  19.074  1.00  0.00     0.028 A 
ATOM     16  C   UNL     1      49.822 -21.358  20.218  1.00  0.00     0.046 A 
ATOM     17  C   UNL     1      48.925 -20.339  20.412  1.00  0.00     0.059 A 
ENDROOT
BRANCH  16  18
ATOM     18  N   UNL     1      50.942 -21.657  21.048  1.00  0.00    -0.383 N 
ATOM     19  H   UNL     1      50.848 -22.185  21.904  1.00  0.00     0.160 HD
BRANCH  18  20
ATOM     20  C   UNL     1      52.284 -21.215  20.715  1.00  0.00     0.128 C 
BRANCH  20  21
ATOM     21  C   UNL     1      52.759 -21.627  19.368  1.00  0.00     0.102 C 
BRANCH  21  22
ATOM     22  N   UNL     1      53.930 -20.848  18.943  1.00  0.00    -0.313 NA
ATOM     23  H   UNL     1      53.867 -19.929  19.446  1.00  0.00     0.122 HD
BRANCH  22  24
ATOM     24  C   UNL     1      53.744 -20.552  17.531  1.00  0.00     0.109 C 
BRANCH  24  25
ATOM     25  C   UNL     1      52.355 -20.027  17.259  1.00  0.00     0.171 C 
BRANCH  25  26
ATOM     26  O   UNL     1      52.324 -18.635  17.254  1.00  0.00    -0.395 OA
ATOM     27  H   UNL     1      51.713 -18.353  16.518  1.00  0.00     0.210 HD
ENDBRANCH  25  26
ENDBRANCH  24  25
ENDBRANCH  22  24
ENDBRANCH  21  22
ENDBRANCH  20  21
ENDBRANCH  18  20
ENDBRANCH  16  18
BRANCH   8  28
ATOM     28  O   UNL     1      45.114 -16.898  20.208  1.00  0.00    -0.507 OA
ATOM     29  H   UNL     1      45.063 -17.381  19.309  1.00  0.00     0.293 HD
ENDBRANCH   8  28
BRANCH  13  30
ATOM     30  N   UNL     1      46.660 -20.731  17.422  1.00  0.00    -0.379 N 
ATOM     31  H   UNL     1      45.669 -20.792  17.600  1.00  0.00     0.160 HD
BRANCH  30  32
ATOM     32  C   UNL     1      47.000 -20.455  16.011  1.00  0.00     0.174 C 
BRANCH  32  33
ATOM     33  C   UNL     1      47.456 -19.058  15.797  1.00  0.00     0.281 C 
BRANCH  33  34
ATOM     34  N   UNL     1      48.863 -18.911  15.583  1.00  0.00    -0.343 N 
ATOM     35  H   UNL     1      49.396 -18.673  16.450  1.00  0.00     0.346 HD
ATOM     36  H   UNL     1      49.236 -19.840  15.266  1.00  0.00     0.346 HD
BRANCH  34  37
ATOM     37  C   UNL     1      49.201 -17.958  14.554  1.00  0.00     0.289 C 
BRANCH  37  38
ATOM     38  C   UNL     1      50.648 -17.528  14.625  1.00  0.00     0.217 C 
BRANCH  38  39
ATOM     39  O   UNL     1      50.773 -16.547  15.594  1.00  0.00    -0.391 OA
ATOM     40  H   UNL     1      51.723 -16.232  15.569  1.00  0.00     0.210 HD
ENDBRANCH  38  39
ENDBRANCH  37  38
ENDBRANCH  34  37
ENDBRANCH  33  34
ENDBRANCH  32  33
ENDBRANCH  30  32
ENDBRANCH  13  30
TORSDOF 15
ENDMDL
MODEL 6
REMARK VINA RESULT:      -4.1      5.423     11.650
REMARK SMILES O=C1c2c([O-])ccc(O)c2C(=O)c2c(NCC[NH2+]CCO)ccc(NCCNCCO)c21
REMARK SMILES IDX 1 1 2 2 3 3 4 4 5 5 6 6 7 7 8 8 10 9 11 10 12 11 13 12 14 13
REMARK SMILES IDX 22 14 23 15 24 16 32 17 25 18 26 20 27 21 28 22 29 24 30 25
REMARK SMILES IDX 31 26 9 28 15 30 16 32 17 33 18 34 19 37 20 38 21 39
REMARK H PARENT 25 19 28 23 31 27 9 29 15 31 18 35 18 36 21 40
ROOT
ATOM      1  O   UNL     1      48.249 -17.039  24.853  1.00  0.00    -0.288 OA
ATOM      2  C   UNL     1      48.865 -17.878  24.152  1.00  0.00     0.196 C 
ATOM      3  C   UNL     1      50.023 -18.577  24.757  1.00  0.00     0.030 A 
ATOM      4  C   UNL     1      50.353 -18.262  26.062  1.00  0.00    -0.097 A 
ATOM      5  O   UNL     1      49.599 -17.317  26.751  1.00  0.00    -0.872 OA
ATOM      6  C   UNL     1      51.424 -18.900  26.647  1.00  0.00    -0.004 A 
ATOM      7  C   UNL     1      52.147 -19.825  25.947  1.00  0.00     0.046 A 
ATOM      8  C   UNL     1      51.836 -20.153  24.646  1.00  0.00     0.127 A 
ATOM      9  C   UNL     1      50.749 -19.501  24.065  1.00  0.00     0.075 A 
ATOM     10  C   UNL     1      50.379 -19.818  22.680  1.00  0.00     0.200 C 
ATOM     11  O   UNL     1      51.100 -20.678  22.121  1.00  0.00    -0.288 OA
ATOM     12  C   UNL     1      49.245 -19.144  22.063  1.00  0.00     0.059 A 
ATOM     13  C   UNL     1      48.948 -19.476  20.770  1.00  0.00     0.046 A 
ATOM     14  C   UNL     1      47.845 -18.801  20.206  1.00  0.00     0.028 A 
ATOM     15  C   UNL     1      47.128 -17.882  20.906  1.00  0.00     0.028 A 
ATOM     16  C   UNL     1      47.434 -17.540  22.233  1.00  0.00     0.046 A 
ATOM     17  C   UNL     1      48.502 -18.187  22.798  1.00  0.00     0.059 A 
ENDROOT
BRANCH  16  18
ATOM     18  N   UNL     1      46.592 -16.589  22.882  1.00  0.00    -0.383 N 
ATOM     19  H   UNL     1      46.700 -16.359  23.860  1.00  0.00     0.160 HD
BRANCH  18  20
ATOM     20  C   UNL     1      45.527 -15.900  22.177  1.00  0.00     0.128 C 
BRANCH  20  21
ATOM     21  C   UNL     1      45.367 -14.467  22.537  1.00  0.00     0.102 C 
BRANCH  21  22
ATOM     22  N   UNL     1      44.148 -14.237  23.324  1.00  0.00    -0.313 NA
ATOM     23  H   UNL     1      43.458 -14.964  23.012  1.00  0.00     0.122 HD
BRANCH  22  24
ATOM     24  C   UNL     1      43.609 -12.955  22.895  1.00  0.00     0.109 C 
BRANCH  24  25
ATOM     25  C   UNL     1      42.822 -13.093  21.614  1.00  0.00     0.171 C 
BRANCH  25  26
ATOM     26  O   UNL     1      43.292 -12.230  20.627  1.00  0.00    -0.395 OA
ATOM     27  H   UNL     1      43.985 -11.648  21.046  1.00  0.00     0.210 HD
ENDBRANCH  25  26
ENDBRANCH  24  25
ENDBRANCH  22  24
ENDBRANCH  21  22
ENDBRANCH  20  21
ENDBRANCH  18  20
ENDBRANCH  16  18
BRANCH   8  28
ATOM     28  O   UNL     1      52.579 -21.102  23.932  1.00  0.00    -0.507 OA
ATOM     29  H   UNL     1      52.554 -22.094  24.176  1.00  0.00     0.293 HD
ENDBRANCH   8  28
BRANCH  13  30
ATOM     30  N   UNL     1      49.633 -20.414  19.972  1.00  0.00    -0.379 N 
ATOM     31  H   UNL     1      50.003 -21.299  20.287  1.00  0.00     0.160 HD
BRANCH  30  32
ATOM     32  C   UNL     1      49.867 -20.143  18.538  1.00  0.00     0.174 C 
BRANCH  32  33
ATOM     33  C   UNL     1      51.055 -20.858  18.009  1.00  0.00     0.281 C 
BRANCH  33  34
ATOM     34  N   UNL     1      52.087 -20.012  17.494  1.00  0.00    -0.343 N 
ATOM     35  H   UNL     1      52.121 -19.980  16.450  1.00  0.00     0.346 HD
ATOM     36  H   UNL     1      51.876 -19.030  17.802  1.00  0.00     0.346 HD
BRANCH  34  37
ATOM     37  C   UNL     1      53.403 -20.327  17.992  1.00  0.00     0.289 C 
BRANCH  37  38
ATOM     38  C   UNL     1      53.362 -21.317  19.135  1.00  0.00     0.217 C 
BRANCH  38  39
ATOM     39  O   UNL     1      53.608 -20.641  20.317  1.00  0.00    -0.391 OA
ATOM     40  H   UNL     1      54.601 -20.625  20.442  1.00  0.00     0.210 HD
ENDBRANCH  38  39
ENDBRANCH  37  38
ENDBRANCH  34  37
ENDBRANCH  33  34
ENDBRANCH  32  33
ENDBRANCH  30  32
ENDBRANCH  13  30
TORSDOF 15
ENDMDL
MODEL 7
REMARK VINA RESULT:      -4.1      4.247      8.200
REMARK SMILES O=C1c2c([O-])ccc(O)c2C(=O)c2c(NCC[NH2+]CCO)ccc(NCCNCCO)c21
REMARK SMILES IDX 1 1 2 2 3 3 4 4 5 5 6 6 7 7 8 8 10 9 11 10 12 11 13 12 14 13
REMARK SMILES IDX 22 14 23 15 24 16 32 17 25 18 26 20 27 21 28 22 29 24 30 25
REMARK SMILES IDX 31 26 9 28 15 30 16 32 17 33 18 34 19 37 20 38 21 39
REMARK H PARENT 25 19 28 23 31 27 9 29 15 31 18 35 18 36 21 40
ROOT
ATOM      1  O   UNL     1      45.688 -18.528  19.027  1.00  0.00    -0.288 OA
ATOM      2  C   UNL     1      46.674 -18.909  19.704  1.00  0.00     0.196 C 
ATOM      3  C   UNL     1      47.037 -18.126  20.909  1.00  0.00     0.030 A 
ATOM      4  C   UNL     1      46.264 -17.022  21.214  1.00  0.00    -0.097 A 
ATOM      5  O   UNL     1      45.189 -16.689  20.395  1.00  0.00    -0.872 OA
ATOM      6  C   UNL     1      46.581 -16.279  22.330  1.00  0.00    -0.004 A 
ATOM      7  C   UNL     1      47.642 -16.630  23.118  1.00  0.00     0.046 A 
ATOM      8  C   UNL     1      48.426 -17.726  22.831  1.00  0.00     0.127 A 
ATOM      9  C   UNL     1      48.094 -18.470  21.699  1.00  0.00     0.075 A 
ATOM     10  C   UNL     1      48.899 -19.647  21.353  1.00  0.00     0.200 C 
ATOM     11  O   UNL     1      49.851 -19.889  22.134  1.00  0.00    -0.288 OA
ATOM     12  C   UNL     1      48.563 -20.432  20.173  1.00  0.00     0.059 A 
ATOM     13  C   UNL     1      49.349 -21.516  19.897  1.00  0.00     0.046 A 
ATOM     14  C   UNL     1      48.994 -22.249  18.747  1.00  0.00     0.028 A 
ATOM     15  C   UNL     1      47.937 -21.899  17.966  1.00  0.00     0.028 A 
ATOM     16  C   UNL     1      47.129 -20.785  18.249  1.00  0.00     0.046 A 
ATOM     17  C   UNL     1      47.460 -20.060  19.364  1.00  0.00     0.059 A 
ENDROOT
BRANCH  16  18
ATOM     18  N   UNL     1      46.026 -20.531  17.382  1.00  0.00    -0.383 N 
ATOM     19  H   UNL     1      45.069 -20.592  17.703  1.00  0.00     0.160 HD
BRANCH  18  20
ATOM     20  C   UNL     1      46.211 -20.176  15.987  1.00  0.00     0.128 C 
BRANCH  20  21
ATOM     21  C   UNL     1      47.269 -19.162  15.737  1.00  0.00     0.102 C 
BRANCH  21  22
ATOM     22  N   UNL     1      46.704 -17.893  15.261  1.00  0.00    -0.313 NA
ATOM     23  H   UNL     1      45.780 -18.130  14.825  1.00  0.00     0.122 HD
BRANCH  22  24
ATOM     24  C   UNL     1      47.560 -17.435  14.177  1.00  0.00     0.109 C 
BRANCH  24  25
ATOM     25  C   UNL     1      49.000 -17.820  14.418  1.00  0.00     0.171 C 
BRANCH  25  26
ATOM     26  O   UNL     1      49.752 -16.739  14.871  1.00  0.00    -0.395 OA
ATOM     27  H   UNL     1      50.597 -17.104  15.255  1.00  0.00     0.210 HD
ENDBRANCH  25  26
ENDBRANCH  24  25
ENDBRANCH  22  24
ENDBRANCH  21  22
ENDBRANCH  20  21
ENDBRANCH  18  20
ENDBRANCH  16  18
BRANCH   8  28
ATOM     28  O   UNL     1      49.512 -18.082  23.640  1.00  0.00    -0.507 OA
ATOM     29  H   UNL     1      49.666 -19.049  23.933  1.00  0.00     0.293 HD
ENDBRANCH   8  28
BRANCH  13  30
ATOM     30  N   UNL     1      50.459 -21.953  20.648  1.00  0.00    -0.379 N 
ATOM     31  H   UNL     1      50.500 -22.025  21.654  1.00  0.00     0.160 HD
BRANCH  30  32
ATOM     32  C   UNL     1      51.707 -22.356  19.967  1.00  0.00     0.174 C 
BRANCH  32  33
ATOM     33  C   UNL     1      52.454 -21.199  19.413  1.00  0.00     0.281 C 
BRANCH  33  34
ATOM     34  N   UNL     1      52.319 -21.016  18.001  1.00  0.00    -0.343 N 
ATOM     35  H   UNL     1      52.766 -21.774  17.436  1.00  0.00     0.346 HD
ATOM     36  H   UNL     1      51.296 -21.055  17.771  1.00  0.00     0.346 HD
BRANCH  34  37
ATOM     37  C   UNL     1      52.800 -19.741  17.528  1.00  0.00     0.289 C 
BRANCH  37  38
ATOM     38  C   UNL     1      51.851 -19.102  16.540  1.00  0.00     0.217 C 
BRANCH  38  39
ATOM     39  O   UNL     1      51.447 -17.876  17.042  1.00  0.00    -0.391 OA
ATOM     40  H   UNL     1      52.272 -17.320  17.150  1.00  0.00     0.210 HD
ENDBRANCH  38  39
ENDBRANCH  37  38
ENDBRANCH  34  37
ENDBRANCH  33  34
ENDBRANCH  32  33
ENDBRANCH  30  32
ENDBRANCH  13  30
TORSDOF 15
ENDMDL
MODEL 8
REMARK VINA RESULT:      -4.1      3.694      8.487
REMARK SMILES O=C1c2c([O-])ccc(O)c2C(=O)c2c(NCC[NH2+]CCO)ccc(NCCNCCO)c21
REMARK SMILES IDX 1 1 2 2 3 3 4 4 5 5 6 6 7 7 8 8 10 9 11 10 12 11 13 12 14 13
REMARK SMILES IDX 22 14 23 15 24 16 32 17 25 18 26 20 27 21 28 22 29 24 30 25
REMARK SMILES IDX 31 26 9 28 15 30 16 32 17 33 18 34 19 37 20 38 21 39
REMARK H PARENT 25 19 28 23 31 27 9 29 15 31 18 35 18 36 21 40
ROOT
ATOM      1  O   UNL     1      45.393 -18.300  19.454  1.00  0.00    -0.288 OA
ATOM      2  C   UNL     1      46.397 -18.440  20.195  1.00  0.00     0.196 C 
ATOM      3  C   UNL     1      46.666 -17.393  21.209  1.00  0.00     0.030 A 
ATOM      4  C   UNL     1      45.792 -16.326  21.278  1.00  0.00    -0.097 A 
ATOM      5  O   UNL     1      44.707 -16.270  20.408  1.00  0.00    -0.872 OA
ATOM      6  C   UNL     1      46.020 -15.341  22.213  1.00  0.00    -0.004 A 
ATOM      7  C   UNL     1      47.094 -15.421  23.056  1.00  0.00     0.046 A 
ATOM      8  C   UNL     1      47.978 -16.476  23.004  1.00  0.00     0.127 A 
ATOM      9  C   UNL     1      47.735 -17.467  22.053  1.00  0.00     0.075 A 
ATOM     10  C   UNL     1      48.650 -18.611  21.959  1.00  0.00     0.200 C 
ATOM     11  O   UNL     1      49.604 -18.597  22.773  1.00  0.00    -0.288 OA
ATOM     12  C   UNL     1      48.407 -19.652  20.970  1.00  0.00     0.059 A 
ATOM     13  C   UNL     1      49.292 -20.693  20.926  1.00  0.00     0.046 A 
ATOM     14  C   UNL     1      49.025 -21.679  19.955  1.00  0.00     0.028 A 
ATOM     15  C   UNL     1      47.955 -21.597  19.119  1.00  0.00     0.028 A 
ATOM     16  C   UNL     1      47.046 -20.528  19.164  1.00  0.00     0.046 A 
ATOM     17  C   UNL     1      47.290 -19.559  20.102  1.00  0.00     0.059 A 
ENDROOT
BRANCH  16  18
ATOM     18  N   UNL     1      45.940 -20.562  18.264  1.00  0.00    -0.383 N 
ATOM     19  H   UNL     1      44.988 -20.449  18.583  1.00  0.00     0.160 HD
BRANCH  18  20
ATOM     20  C   UNL     1      46.116 -20.768  16.838  1.00  0.00     0.128 C 
BRANCH  20  21
ATOM     21  C   UNL     1      46.115 -19.523  16.025  1.00  0.00     0.102 C 
BRANCH  21  22
ATOM     22  N   UNL     1      47.366 -18.770  16.184  1.00  0.00    -0.313 NA
ATOM     23  H   UNL     1      47.355 -18.026  15.444  1.00  0.00     0.122 HD
BRANCH  22  24
ATOM     24  C   UNL     1      48.448 -19.677  15.832  1.00  0.00     0.109 C 
BRANCH  24  25
ATOM     25  C   UNL     1      49.786 -19.127  16.264  1.00  0.00     0.171 C 
BRANCH  25  26
ATOM     26  O   UNL     1      49.863 -18.995  17.649  1.00  0.00    -0.395 OA
ATOM     27  H   UNL     1      49.113 -19.523  18.041  1.00  0.00     0.210 HD
ENDBRANCH  25  26
ENDBRANCH  24  25
ENDBRANCH  22  24
ENDBRANCH  21  22
ENDBRANCH  20  21
ENDBRANCH  18  20
ENDBRANCH  16  18
BRANCH   8  28
ATOM     28  O   UNL     1      49.077 -16.555  23.869  1.00  0.00    -0.507 OA
ATOM     29  H   UNL     1      49.946 -17.013  23.589  1.00  0.00     0.293 HD
ENDBRANCH   8  28
BRANCH  13  30
ATOM     30  N   UNL     1      50.424 -20.861  21.751  1.00  0.00    -0.379 N 
ATOM     31  H   UNL     1      50.670 -20.282  22.540  1.00  0.00     0.160 HD
BRANCH  30  32
ATOM     32  C   UNL     1      51.376 -21.960  21.493  1.00  0.00     0.174 C 
BRANCH  32  33
ATOM     33  C   UNL     1      52.679 -21.474  20.973  1.00  0.00     0.281 C 
BRANCH  33  34
ATOM     34  N   UNL     1      52.716 -21.245  19.562  1.00  0.00    -0.343 N 
ATOM     35  H   UNL     1      51.894 -21.640  19.051  1.00  0.00     0.346 HD
ATOM     36  H   UNL     1      52.674 -20.207  19.406  1.00  0.00     0.346 HD
BRANCH  34  37
ATOM     37  C   UNL     1      53.925 -21.709  18.925  1.00  0.00     0.289 C 
BRANCH  37  38
ATOM     38  C   UNL     1      54.181 -21.013  17.608  1.00  0.00     0.217 C 
BRANCH  38  39
ATOM     39  O   UNL     1      55.549 -20.906  17.421  1.00  0.00    -0.391 OA
ATOM     40  H   UNL     1      55.741 -21.222  16.491  1.00  0.00     0.210 HD
ENDBRANCH  38  39
ENDBRANCH  37  38
ENDBRANCH  34  37
ENDBRANCH  33  34
ENDBRANCH  32  33
ENDBRANCH  30  32
ENDBRANCH  13  30
TORSDOF 15
ENDMDL
MODEL 9
REMARK VINA RESULT:      -4.1      2.578      7.384
REMARK SMILES O=C1c2c([O-])ccc(O)c2C(=O)c2c(NCC[NH2+]CCO)ccc(NCCNCCO)c21
REMARK SMILES IDX 1 1 2 2 3 3 4 4 5 5 6 6 7 7 8 8 10 9 11 10 12 11 13 12 14 13
REMARK SMILES IDX 22 14 23 15 24 16 32 17 25 18 26 20 27 21 28 22 29 24 30 25
REMARK SMILES IDX 31 26 9 28 15 30 16 32 17 33 18 34 19 37 20 38 21 39
REMARK H PARENT 25 19 28 23 31 27 9 29 15 31 18 35 18 36 21 40
ROOT
ATOM      1  O   UNL     1      48.799 -20.371  19.177  1.00  0.00    -0.288 OA
ATOM      2  C   UNL     1      49.891 -20.380  18.558  1.00  0.00     0.196 C 
ATOM      3  C   UNL     1      49.903 -19.895  17.158  1.00  0.00     0.030 A 
ATOM      4  C   UNL     1      48.708 -19.459  16.620  1.00  0.00    -0.097 A 
ATOM      5  O   UNL     1      47.553 -19.489  17.396  1.00  0.00    -0.872 OA
ATOM      6  C   UNL     1      48.694 -19.001  15.320  1.00  0.00    -0.004 A 
ATOM      7  C   UNL     1      49.843 -18.982  14.580  1.00  0.00     0.046 A 
ATOM      8  C   UNL     1      51.045 -19.412  15.098  1.00  0.00     0.127 A 
ATOM      9  C   UNL     1      51.046 -19.872  16.414  1.00  0.00     0.075 A 
ATOM     10  C   UNL     1      52.302 -20.341  17.010  1.00  0.00     0.200 C 
ATOM     11  O   UNL     1      53.302 -20.285  16.254  1.00  0.00    -0.288 OA
ATOM     12  C   UNL     1      52.316 -20.823  18.383  1.00  0.00     0.059 A 
ATOM     13  C   UNL     1      53.514 -21.250  18.886  1.00  0.00     0.046 A 
ATOM     14  C   UNL     1      53.487 -21.712  20.218  1.00  0.00     0.028 A 
ATOM     15  C   UNL     1      52.342 -21.729  20.951  1.00  0.00     0.028 A 
ATOM     16  C   UNL     1      51.111 -21.291  20.436  1.00  0.00     0.046 A 
ATOM     17  C   UNL     1      51.119 -20.839  19.142  1.00  0.00     0.059 A 
ENDROOT
BRANCH  16  18
ATOM     18  N   UNL     1      49.982 -21.320  21.306  1.00  0.00    -0.383 N 
ATOM     19  H   UNL     1      49.189 -21.922  21.133  1.00  0.00     0.160 HD
BRANCH  18  20
ATOM     20  C   UNL     1      49.903 -20.483  22.489  1.00  0.00     0.128 C 
BRANCH  20  21
ATOM     21  C   UNL     1      49.941 -21.222  23.779  1.00  0.00     0.102 C 
BRANCH  21  22
ATOM     22  N   UNL     1      50.721 -20.502  24.794  1.00  0.00    -0.313 NA
ATOM     23  H   UNL     1      50.096 -20.412  25.633  1.00  0.00     0.122 HD
BRANCH  22  24
ATOM     24  C   UNL     1      50.920 -19.152  24.289  1.00  0.00     0.109 C 
BRANCH  24  25
ATOM     25  C   UNL     1      50.499 -18.119  25.307  1.00  0.00     0.171 C 
BRANCH  25  26
ATOM     26  O   UNL     1      50.783 -16.826  24.872  1.00  0.00    -0.395 OA
ATOM     27  H   UNL     1      51.746 -16.803  24.617  1.00  0.00     0.210 HD
ENDBRANCH  25  26
ENDBRANCH  24  25
ENDBRANCH  22  24
ENDBRANCH  21  22
ENDBRANCH  20  21
ENDBRANCH  18  20
ENDBRANCH  16  18
BRANCH   8  28
ATOM     28  O   UNL     1      52.221 -19.390  14.336  1.00  0.00    -0.507 OA
ATOM     29  H   UNL     1      52.426 -18.625  13.692  1.00  0.00     0.293 HD
ENDBRANCH   8  28
BRANCH  13  30
ATOM     30  N   UNL     1      54.747 -21.267  18.201  1.00  0.00    -0.379 N 
ATOM     31  H   UNL     1      55.143 -20.499  17.681  1.00  0.00     0.160 HD
BRANCH  30  32
ATOM     32  C   UNL     1      55.582 -22.486  18.201  1.00  0.00     0.174 C 
BRANCH  32  33
ATOM     33  C   UNL     1      56.211 -22.746  16.882  1.00  0.00     0.281 C 
BRANCH  33  34
ATOM     34  N   UNL     1      55.525 -22.174  15.765  1.00  0.00    -0.343 N 
ATOM     35  H   UNL     1      54.511 -21.995  15.943  1.00  0.00     0.346 HD
ATOM     36  H   UNL     1      55.951 -21.232  15.578  1.00  0.00     0.346 HD
BRANCH  34  37
ATOM     37  C   UNL     1      55.656 -22.935  14.547  1.00  0.00     0.289 C 
BRANCH  37  38
ATOM     38  C   UNL     1      54.330 -23.123  13.844  1.00  0.00     0.217 C 
BRANCH  38  39
ATOM     39  O   UNL     1      53.637 -21.926  13.877  1.00  0.00    -0.391 OA
ATOM     40  H   UNL     1      53.393 -21.705  12.931  1.00  0.00     0.210 HD
ENDBRANCH  38  39
ENDBRANCH  37  38
ENDBRANCH  34  37
ENDBRANCH  33  34
ENDBRANCH  32  33
ENDBRANCH  30  32
ENDBRANCH  13  30
TORSDOF 15
ENDMDL
