MODEL 1
REMARK VINA RESULT:      -6.8      0.000      0.000
REMARK SMILES O=c1c([O-])c(-c2ccccc2)oc2cc([O-])cc([O-])c12
REMARK SMILES IDX 1 1 2 2 3 3 4 4 5 5 12 6 13 7 14 8 15 9 16 10 17 11 18 12
REMARK SMILES IDX 19 13 20 14 6 15 7 16 11 17 8 18 10 19 9 20
REMARK H PARENT
ROOT
ATOM      1  O   UNL     1     130.313 179.669 103.605  1.00  0.00    -0.290 OA
ATOM      2  C   UNL     1     129.414 180.375 104.107  1.00  0.00     0.184 A 
ATOM      3  C   UNL     1     128.371 179.693 104.766  1.00  0.00    -0.014 A 
ATOM      4  O   UNL     1     128.389 178.326 104.826  1.00  0.00    -0.867 OA
ATOM      5  C   UNL     1     127.374 180.437 105.326  1.00  0.00     0.130 A 
ATOM      6  O   UNL     1     127.429 181.780 105.222  1.00  0.00    -0.457 OA
ATOM      7  C   UNL     1     128.372 182.408 104.625  1.00  0.00     0.137 A 
ATOM      8  C   UNL     1     128.372 183.775 104.555  1.00  0.00     0.039 A 
ATOM      9  C   UNL     1     129.370 184.482 103.921  1.00  0.00    -0.106 A 
ATOM     10  O   UNL     1     129.341 185.876 103.867  1.00  0.00    -0.872 OA
ATOM     11  C   UNL     1     130.420 183.776 103.329  1.00  0.00    -0.016 A 
ATOM     12  C   UNL     1     130.451 182.407 103.380  1.00  0.00    -0.094 A 
ATOM     13  O   UNL     1     131.491 181.719 102.793  1.00  0.00    -0.872 OA
ATOM     14  C   UNL     1     129.433 181.749 104.025  1.00  0.00     0.056 A 
ENDROOT
BRANCH   5  15
ATOM     15  C   UNL     1     126.248 179.849 106.029  1.00  0.00     0.017 A 
ATOM     16  C   UNL     1     125.298 179.015 105.531  1.00  0.00     0.012 A 
ATOM     17  C   UNL     1     126.097 180.162 107.391  1.00  0.00     0.012 A 
ATOM     18  C   UNL     1     124.257 178.504 106.291  1.00  0.00     0.001 A 
ATOM     19  C   UNL     1     125.069 179.664 108.159  1.00  0.00     0.001 A 
ATOM     20  C   UNL     1     124.128 178.821 107.615  1.00  0.00     0.000 A 
ENDBRANCH   5  15
TORSDOF 1
ENDMDL
MODEL 2
REMARK VINA RESULT:      -6.8      0.160      1.052
REMARK SMILES O=c1c([O-])c(-c2ccccc2)oc2cc([O-])cc([O-])c12
REMARK SMILES IDX 1 1 2 2 3 3 4 4 5 5 12 6 13 7 14 8 15 9 16 10 17 11 18 12
REMARK SMILES IDX 19 13 20 14 6 15 7 16 11 17 8 18 10 19 9 20
REMARK H PARENT
ROOT
ATOM      1  O   UNL     1     130.282 179.671 103.502  1.00  0.00    -0.290 OA
ATOM      2  C   UNL     1     129.441 180.398 104.071  1.00  0.00     0.184 A 
ATOM      3  C   UNL     1     128.412 179.738 104.776  1.00  0.00    -0.014 A 
ATOM      4  O   UNL     1     128.382 178.371 104.805  1.00  0.00    -0.867 OA
ATOM      5  C   UNL     1     127.478 180.504 105.409  1.00  0.00     0.130 A 
ATOM      6  O   UNL     1     127.579 181.847 105.331  1.00  0.00    -0.457 OA
ATOM      7  C   UNL     1     128.508 182.454 104.694  1.00  0.00     0.137 A 
ATOM      8  C   UNL     1     128.555 183.821 104.654  1.00  0.00     0.039 A 
ATOM      9  C   UNL     1     129.541 184.506 103.977  1.00  0.00    -0.106 A 
ATOM     10  O   UNL     1     129.561 185.901 103.955  1.00  0.00    -0.872 OA
ATOM     11  C   UNL     1     130.527 183.777 103.309  1.00  0.00    -0.016 A 
ATOM     12  C   UNL     1     130.510 182.407 103.329  1.00  0.00    -0.094 A 
ATOM     13  O   UNL     1     131.487 181.696 102.667  1.00  0.00    -0.872 OA
ATOM     14  C   UNL     1     129.507 181.772 104.018  1.00  0.00     0.056 A 
ENDROOT
BRANCH   5  15
ATOM     15  C   UNL     1     126.374 179.942 106.165  1.00  0.00     0.017 A 
ATOM     16  C   UNL     1     126.109 180.091 107.489  1.00  0.00     0.012 A 
ATOM     17  C   UNL     1     125.450 179.144 105.470  1.00  0.00     0.012 A 
ATOM     18  C   UNL     1     125.020 179.510 108.120  1.00  0.00     0.001 A 
ATOM     19  C   UNL     1     124.364 178.559 106.081  1.00  0.00     0.001 A 
ATOM     20  C   UNL     1     124.132 178.736 107.425  1.00  0.00     0.000 A 
ENDBRANCH   5  15
TORSDOF 1
ENDMDL
MODEL 3
REMARK VINA RESULT:      -6.7      1.271      1.607
REMARK SMILES O=c1c([O-])c(-c2ccccc2)oc2cc([O-])cc([O-])c12
REMARK SMILES IDX 1 1 2 2 3 3 4 4 5 5 12 6 13 7 14 8 15 9 16 10 17 11 18 12
REMARK SMILES IDX 19 13 20 14 6 15 7 16 11 17 8 18 10 19 9 20
REMARK H PARENT
ROOT
ATOM      1  O   UNL     1     129.976 179.277 103.445  1.00  0.00    -0.290 OA
ATOM      2  C   UNL     1     129.480 180.270 104.016  1.00  0.00     0.184 A 
ATOM      3  C   UNL     1     128.398 180.020 104.887  1.00  0.00    -0.014 A 
ATOM      4  O   UNL     1     127.953 178.739 105.062  1.00  0.00    -0.867 OA
ATOM      5  C   UNL     1     127.835 181.085 105.527  1.00  0.00     0.130 A 
ATOM      6  O   UNL     1     128.332 182.318 105.299  1.00  0.00    -0.457 OA
ATOM      7  C   UNL     1     129.313 182.553 104.511  1.00  0.00     0.137 A 
ATOM      8  C   UNL     1     129.773 183.828 104.323  1.00  0.00     0.039 A 
ATOM      9  C   UNL     1     130.826 184.117 103.482  1.00  0.00    -0.106 A 
ATOM     10  O   UNL     1     131.272 185.428 103.311  1.00  0.00    -0.872 OA
ATOM     11  C   UNL     1     131.446 183.069 102.798  1.00  0.00    -0.016 A 
ATOM     12  C   UNL     1     131.010 181.779 102.964  1.00  0.00    -0.094 A 
ATOM     13  O   UNL     1     131.627 180.751 102.284  1.00  0.00    -0.872 OA
ATOM     14  C   UNL     1     129.958 181.544 103.813  1.00  0.00     0.056 A 
ENDROOT
BRANCH   5  15
ATOM     15  C   UNL     1     126.718 180.956 106.445  1.00  0.00     0.017 A 
ATOM     16  C   UNL     1     126.761 180.682 107.775  1.00  0.00     0.012 A 
ATOM     17  C   UNL     1     125.424 181.131 105.925  1.00  0.00     0.012 A 
ATOM     18  C   UNL     1     125.629 180.580 108.570  1.00  0.00     0.001 A 
ATOM     19  C   UNL     1     124.291 181.033 106.700  1.00  0.00     0.001 A 
ATOM     20  C   UNL     1     124.379 180.753 108.044  1.00  0.00     0.000 A 
ENDBRANCH   5  15
TORSDOF 1
ENDMDL
MODEL 4
REMARK VINA RESULT:      -6.7      1.234      1.314
REMARK SMILES O=c1c([O-])c(-c2ccccc2)oc2cc([O-])cc([O-])c12
REMARK SMILES IDX 1 1 2 2 3 3 4 4 5 5 12 6 13 7 14 8 15 9 16 10 17 11 18 12
REMARK SMILES IDX 19 13 20 14 6 15 7 16 11 17 8 18 10 19 9 20
REMARK H PARENT
ROOT
ATOM      1  O   UNL     1     129.986 179.300 103.555  1.00  0.00    -0.290 OA
ATOM      2  C   UNL     1     129.453 180.301 104.077  1.00  0.00     0.184 A 
ATOM      3  C   UNL     1     128.352 180.059 104.924  1.00  0.00    -0.014 A 
ATOM      4  O   UNL     1     127.929 178.775 105.131  1.00  0.00    -0.867 OA
ATOM      5  C   UNL     1     127.748 181.132 105.510  1.00  0.00     0.130 A 
ATOM      6  O   UNL     1     128.227 182.367 105.253  1.00  0.00    -0.457 OA
ATOM      7  C   UNL     1     129.225 182.596 104.486  1.00  0.00     0.137 A 
ATOM      8  C   UNL     1     129.664 183.874 104.266  1.00  0.00     0.039 A 
ATOM      9  C   UNL     1     130.735 184.156 103.446  1.00  0.00    -0.106 A 
ATOM     10  O   UNL     1     131.157 185.470 103.242  1.00  0.00    -0.872 OA
ATOM     11  C   UNL     1     131.396 183.098 102.818  1.00  0.00    -0.016 A 
ATOM     12  C   UNL     1     130.982 181.807 103.016  1.00  0.00    -0.094 A 
ATOM     13  O   UNL     1     131.640 180.769 102.391  1.00  0.00    -0.872 OA
ATOM     14  C   UNL     1     129.911 181.578 103.842  1.00  0.00     0.056 A 
ENDROOT
BRANCH   5  15
ATOM     15  C   UNL     1     126.608 181.010 106.400  1.00  0.00     0.017 A 
ATOM     16  C   UNL     1     125.296 180.909 106.063  1.00  0.00     0.012 A 
ATOM     17  C   UNL     1     126.860 180.990 107.782  1.00  0.00     0.012 A 
ATOM     18  C   UNL     1     124.275 180.794 106.994  1.00  0.00     0.001 A 
ATOM     19  C   UNL     1     125.859 180.877 108.720  1.00  0.00     0.001 A 
ATOM     20  C   UNL     1     124.542 180.777 108.336  1.00  0.00     0.000 A 
ENDBRANCH   5  15
TORSDOF 1
ENDMDL
MODEL 5
REMARK VINA RESULT:      -6.6      2.783      7.126
REMARK SMILES O=c1c([O-])c(-c2ccccc2)oc2cc([O-])cc([O-])c12
REMARK SMILES IDX 1 1 2 2 3 3 4 4 5 5 12 6 13 7 14 8 15 9 16 10 17 11 18 12
REMARK SMILES IDX 19 13 20 14 6 15 7 16 11 17 8 18 10 19 9 20
REMARK H PARENT
ROOT
ATOM      1  O   UNL     1     125.802 181.319 109.722  1.00  0.00    -0.290 OA
ATOM      2  C   UNL     1     125.795 180.627 108.683  1.00  0.00     0.184 A 
ATOM      3  C   UNL     1     126.818 180.886 107.747  1.00  0.00    -0.014 A 
ATOM      4  O   UNL     1     127.746 181.856 108.011  1.00  0.00    -0.867 OA
ATOM      5  C   UNL     1     126.838 180.146 106.601  1.00  0.00     0.130 A 
ATOM      6  O   UNL     1     125.885 179.209 106.416  1.00  0.00    -0.457 OA
ATOM      7  C   UNL     1     124.953 178.968 107.260  1.00  0.00     0.137 A 
ATOM      8  C   UNL     1     124.016 178.002 107.014  1.00  0.00     0.039 A 
ATOM      9  C   UNL     1     123.000 177.716 107.900  1.00  0.00    -0.106 A 
ATOM     10  O   UNL     1     122.059 176.725 107.619  1.00  0.00    -0.872 OA
ATOM     11  C   UNL     1     122.927 178.439 109.092  1.00  0.00    -0.016 A 
ATOM     12  C   UNL     1     123.849 179.414 109.370  1.00  0.00    -0.094 A 
ATOM     13  O   UNL     1     123.769 180.123 110.549  1.00  0.00    -0.872 OA
ATOM     14  C   UNL     1     124.842 179.660 108.455  1.00  0.00     0.056 A 
ENDROOT
BRANCH   5  15
ATOM     15  C   UNL     1     127.839 180.321 105.564  1.00  0.00     0.017 A 
ATOM     16  C   UNL     1     128.340 181.486 105.078  1.00  0.00     0.012 A 
ATOM     17  C   UNL     1     128.373 179.163 104.974  1.00  0.00     0.012 A 
ATOM     18  C   UNL     1     129.301 181.547 104.081  1.00  0.00     0.001 A 
ATOM     19  C   UNL     1     129.327 179.205 103.983  1.00  0.00     0.001 A 
ATOM     20  C   UNL     1     129.808 180.407 103.519  1.00  0.00     0.000 A 
ENDBRANCH   5  15
TORSDOF 1
ENDMDL
MODEL 6
REMARK VINA RESULT:      -6.5      1.012      1.370
REMARK SMILES O=c1c([O-])c(-c2ccccc2)oc2cc([O-])cc([O-])c12
REMARK SMILES IDX 1 1 2 2 3 3 4 4 5 5 12 6 13 7 14 8 15 9 16 10 17 11 18 12
REMARK SMILES IDX 19 13 20 14 6 15 7 16 11 17 8 18 10 19 9 20
REMARK H PARENT
ROOT
ATOM      1  O   UNL     1     130.175 179.100 103.750  1.00  0.00    -0.290 OA
ATOM      2  C   UNL     1     129.415 180.051 104.027  1.00  0.00     0.184 A 
ATOM      3  C   UNL     1     128.191 179.721 104.643  1.00  0.00    -0.014 A 
ATOM      4  O   UNL     1     127.897 178.410 104.904  1.00  0.00    -0.867 OA
ATOM      5  C   UNL     1     127.339 180.738 104.959  1.00  0.00     0.130 A 
ATOM      6  O   UNL     1     127.703 182.004 104.668  1.00  0.00    -0.457 OA
ATOM      7  C   UNL     1     128.812 182.313 104.108  1.00  0.00     0.137 A 
ATOM      8  C   UNL     1     129.124 183.618 103.840  1.00  0.00     0.039 A 
ATOM      9  C   UNL     1     130.308 183.986 103.239  1.00  0.00    -0.106 A 
ATOM     10  O   UNL     1     130.596 185.326 102.978  1.00  0.00    -0.872 OA
ATOM     11  C   UNL     1     131.223 182.989 102.892  1.00  0.00    -0.016 A 
ATOM     12  C   UNL     1     130.942 181.672 103.147  1.00  0.00    -0.094 A 
ATOM     13  O   UNL     1     131.850 180.694 102.801  1.00  0.00    -0.872 OA
ATOM     14  C   UNL     1     129.748 181.358 103.748  1.00  0.00     0.056 A 
ENDROOT
BRANCH   5  15
ATOM     15  C   UNL     1     126.052 180.524 105.594  1.00  0.00     0.017 A 
ATOM     16  C   UNL     1     125.287 181.433 106.254  1.00  0.00     0.012 A 
ATOM     17  C   UNL     1     125.503 179.232 105.535  1.00  0.00     0.012 A 
ATOM     18  C   UNL     1     124.063 181.127 106.829  1.00  0.00     0.001 A 
ATOM     19  C   UNL     1     124.290 178.911 106.100  1.00  0.00     0.001 A 
ATOM     20  C   UNL     1     123.547 179.862 106.760  1.00  0.00     0.000 A 
ENDBRANCH   5  15
TORSDOF 1
ENDMDL
MODEL 7
REMARK VINA RESULT:      -6.4      2.830      7.172
REMARK SMILES O=c1c([O-])c(-c2ccccc2)oc2cc([O-])cc([O-])c12
REMARK SMILES IDX 1 1 2 2 3 3 4 4 5 5 12 6 13 7 14 8 15 9 16 10 17 11 18 12
REMARK SMILES IDX 19 13 20 14 6 15 7 16 11 17 8 18 10 19 9 20
REMARK H PARENT
ROOT
ATOM      1  O   UNL     1     125.597 181.263 109.632  1.00  0.00    -0.290 OA
ATOM      2  C   UNL     1     125.611 180.515 108.632  1.00  0.00     0.184 A 
ATOM      3  C   UNL     1     126.654 180.723 107.705  1.00  0.00    -0.014 A 
ATOM      4  O   UNL     1     127.576 181.706 107.935  1.00  0.00    -0.867 OA
ATOM      5  C   UNL     1     126.697 179.921 106.603  1.00  0.00     0.130 A 
ATOM      6  O   UNL     1     125.748 178.975 106.449  1.00  0.00    -0.457 OA
ATOM      7  C   UNL     1     124.799 178.779 107.286  1.00  0.00     0.137 A 
ATOM      8  C   UNL     1     123.867 177.801 107.074  1.00  0.00     0.039 A 
ATOM      9  C   UNL     1     122.832 177.563 107.953  1.00  0.00    -0.106 A 
ATOM     10  O   UNL     1     121.897 176.557 107.708  1.00  0.00    -0.872 OA
ATOM     11  C   UNL     1     122.734 178.351 109.102  1.00  0.00    -0.016 A 
ATOM     12  C   UNL     1     123.651 179.340 109.345  1.00  0.00    -0.094 A 
ATOM     13  O   UNL     1     123.546 180.113 110.481  1.00  0.00    -0.872 OA
ATOM     14  C   UNL     1     124.663 179.536 108.438  1.00  0.00     0.056 A 
ENDROOT
BRANCH   5  15
ATOM     15  C   UNL     1     127.719 180.039 105.579  1.00  0.00     0.017 A 
ATOM     16  C   UNL     1     128.401 179.038 104.963  1.00  0.00     0.012 A 
ATOM     17  C   UNL     1     128.066 181.332 105.151  1.00  0.00     0.012 A 
ATOM     18  C   UNL     1     129.364 179.256 103.990  1.00  0.00     0.001 A 
ATOM     19  C   UNL     1     129.019 181.566 104.187  1.00  0.00     0.001 A 
ATOM     20  C   UNL     1     129.687 180.523 103.588  1.00  0.00     0.000 A 
ENDBRANCH   5  15
TORSDOF 1
ENDMDL
MODEL 8
REMARK VINA RESULT:      -6.4      1.652      3.586
REMARK SMILES O=c1c([O-])c(-c2ccccc2)oc2cc([O-])cc([O-])c12
REMARK SMILES IDX 1 1 2 2 3 3 4 4 5 5 12 6 13 7 14 8 15 9 16 10 17 11 18 12
REMARK SMILES IDX 19 13 20 14 6 15 7 16 11 17 8 18 10 19 9 20
REMARK H PARENT
ROOT
ATOM      1  O   UNL     1     126.251 183.425 104.955  1.00  0.00    -0.290 OA
ATOM      2  C   UNL     1     126.353 182.204 105.195  1.00  0.00     0.184 A 
ATOM      3  C   UNL     1     125.299 181.615 105.924  1.00  0.00    -0.014 A 
ATOM      4  O   UNL     1     124.241 182.385 106.325  1.00  0.00    -0.867 OA
ATOM      5  C   UNL     1     125.381 180.282 106.202  1.00  0.00     0.130 A 
ATOM      6  O   UNL     1     126.458 179.594 105.772  1.00  0.00    -0.457 OA
ATOM      7  C   UNL     1     127.419 180.120 105.110  1.00  0.00     0.137 A 
ATOM      8  C   UNL     1     128.485 179.366 104.701  1.00  0.00     0.039 A 
ATOM      9  C   UNL     1     129.536 179.901 103.987  1.00  0.00    -0.106 A 
ATOM     10  O   UNL     1     130.610 179.105 103.584  1.00  0.00    -0.872 OA
ATOM     11  C   UNL     1     129.510 181.260 103.670  1.00  0.00    -0.016 A 
ATOM     12  C   UNL     1     128.457 182.044 104.065  1.00  0.00    -0.094 A 
ATOM     13  O   UNL     1     128.440 183.385 103.749  1.00  0.00    -0.872 OA
ATOM     14  C   UNL     1     127.435 181.464 104.774  1.00  0.00     0.056 A 
ENDROOT
BRANCH   5  15
ATOM     15  C   UNL     1     124.360 179.565 106.945  1.00  0.00     0.017 A 
ATOM     16  C   UNL     1     123.280 178.905 106.451  1.00  0.00     0.012 A 
ATOM     17  C   UNL     1     124.478 179.529 108.345  1.00  0.00     0.012 A 
ATOM     18  C   UNL     1     122.358 178.245 107.249  1.00  0.00     0.001 A 
ATOM     19  C   UNL     1     123.572 178.880 109.151  1.00  0.00     0.001 A 
ATOM     20  C   UNL     1     122.491 178.224 108.611  1.00  0.00     0.000 A 
ENDBRANCH   5  15
TORSDOF 1
ENDMDL
MODEL 9
REMARK VINA RESULT:      -6.4      2.502      6.871
REMARK SMILES O=c1c([O-])c(-c2ccccc2)oc2cc([O-])cc([O-])c12
REMARK SMILES IDX 1 1 2 2 3 3 4 4 5 5 12 6 13 7 14 8 15 9 16 10 17 11 18 12
REMARK SMILES IDX 19 13 20 14 6 15 7 16 11 17 8 18 10 19 9 20
REMARK H PARENT
ROOT
ATOM      1  O   UNL     1     124.092 182.771 106.368  1.00  0.00    -0.290 OA
ATOM      2  C   UNL     1     124.723 181.706 106.203  1.00  0.00     0.184 A 
ATOM      3  C   UNL     1     125.982 181.810 105.576  1.00  0.00    -0.014 A 
ATOM      4  O   UNL     1     126.445 183.037 105.188  1.00  0.00    -0.867 OA
ATOM      5  C   UNL     1     126.695 180.664 105.382  1.00  0.00     0.130 A 
ATOM      6  O   UNL     1     126.168 179.492 105.794  1.00  0.00    -0.457 OA
ATOM      7  C   UNL     1     125.026 179.389 106.363  1.00  0.00     0.137 A 
ATOM      8  C   UNL     1     124.546 178.170 106.759  1.00  0.00     0.039 A 
ATOM      9  C   UNL     1     123.321 178.023 107.374  1.00  0.00    -0.106 A 
ATOM     10  O   UNL     1     122.860 176.766 107.765  1.00  0.00    -0.872 OA
ATOM     11  C   UNL     1     122.544 179.160 107.601  1.00  0.00    -0.016 A 
ATOM     12  C   UNL     1     122.994 180.397 107.217  1.00  0.00    -0.094 A 
ATOM     13  O   UNL     1     122.220 181.514 107.445  1.00  0.00    -0.872 OA
ATOM     14  C   UNL     1     124.221 180.490 106.609  1.00  0.00     0.056 A 
ENDROOT
BRANCH   5  15
ATOM     15  C   UNL     1     128.001 180.642 104.749  1.00  0.00     0.017 A 
ATOM     16  C   UNL     1     128.793 181.702 104.438  1.00  0.00     0.012 A 
ATOM     17  C   UNL     1     128.538 179.390 104.406  1.00  0.00     0.012 A 
ATOM     18  C   UNL     1     130.034 181.575 103.831  1.00  0.00     0.001 A 
ATOM     19  C   UNL     1     129.767 179.246 103.803  1.00  0.00     0.001 A 
ATOM     20  C   UNL     1     130.538 180.346 103.505  1.00  0.00     0.000 A 
ENDBRANCH   5  15
TORSDOF 1
ENDMDL
