MODEL 1
REMARK VINA RESULT:      -7.5      0.000      0.000
REMARK SMILES O=c1cc(-c2ccccc2)oc2cc([O-])c(O)c([O-])c12
REMARK SMILES IDX 1 1 2 2 3 3 4 4 11 5 12 6 13 7 14 8 15 9 16 10 18 11 19 12
REMARK SMILES IDX 20 13 5 14 6 15 10 16 7 17 9 18 8 19 17 20
REMARK H PARENT 17 21
ROOT
ATOM      1  O   UNL     1     -35.807  23.926 -23.299  1.00  0.00    -0.289 OA
ATOM      2  C   UNL     1     -34.660  23.936 -23.808  1.00  0.00     0.192 A 
ATOM      3  C   UNL     1     -34.289  24.858 -24.792  1.00  0.00     0.100 A 
ATOM      4  C   UNL     1     -33.044  24.884 -25.359  1.00  0.00     0.138 A 
ATOM      5  O   UNL     1     -32.192  23.976 -24.924  1.00  0.00    -0.456 OA
ATOM      6  C   UNL     1     -32.474  23.086 -24.008  1.00  0.00     0.137 A 
ATOM      7  C   UNL     1     -31.521  22.150 -23.591  1.00  0.00     0.043 A 
ATOM      8  C   UNL     1     -31.829  21.226 -22.634  1.00  0.00    -0.063 A 
ATOM      9  O   UNL     1     -30.839  20.320 -22.260  1.00  0.00    -0.870 OA
ATOM     10  C   UNL     1     -33.070  21.165 -22.036  1.00  0.00     0.100 A 
ATOM     11  C   UNL     1     -34.012  22.071 -22.431  1.00  0.00    -0.051 A 
ATOM     12  O   UNL     1     -35.259  22.022 -21.842  1.00  0.00    -0.869 OA
ATOM     13  C   UNL     1     -33.713  23.021 -23.408  1.00  0.00     0.060 A 
ENDROOT
BRANCH   4  14
ATOM     14  C   UNL     1     -32.683  25.851 -26.379  1.00  0.00     0.017 A 
ATOM     15  C   UNL     1     -31.438  26.393 -26.535  1.00  0.00     0.012 A 
ATOM     16  C   UNL     1     -33.667  26.272 -27.278  1.00  0.00     0.012 A 
ATOM     17  C   UNL     1     -31.165  27.325 -27.546  1.00  0.00     0.001 A 
ATOM     18  C   UNL     1     -33.405  27.187 -28.275  1.00  0.00     0.001 A 
ATOM     19  C   UNL     1     -32.147  27.727 -28.422  1.00  0.00     0.000 A 
ENDBRANCH   4  14
BRANCH  10  20
ATOM     20  O   UNL     1     -33.333  20.197 -21.060  1.00  0.00    -0.509 OA
ATOM     21  H   UNL     1     -32.612  19.503 -20.855  1.00  0.00     0.293 HD
ENDBRANCH  10  20
TORSDOF 2
ENDMDL
MODEL 2
REMARK VINA RESULT:      -7.5      0.985      1.183
REMARK SMILES O=c1cc(-c2ccccc2)oc2cc([O-])c(O)c([O-])c12
REMARK SMILES IDX 1 1 2 2 3 3 4 4 11 5 12 6 13 7 14 8 15 9 16 10 18 11 19 12
REMARK SMILES IDX 20 13 5 14 6 15 10 16 7 17 9 18 8 19 17 20
REMARK H PARENT 17 21
ROOT
ATOM      1  O   UNL     1     -35.890  23.026 -22.376  1.00  0.00    -0.289 OA
ATOM      2  C   UNL     1     -34.766  23.067 -22.932  1.00  0.00     0.192 A 
ATOM      3  C   UNL     1     -34.462  23.998 -23.931  1.00  0.00     0.100 A 
ATOM      4  C   UNL     1     -33.243  24.058 -24.549  1.00  0.00     0.138 A 
ATOM      5  O   UNL     1     -32.348  23.175 -24.149  1.00  0.00    -0.456 OA
ATOM      6  C   UNL     1     -32.567  22.279 -23.221  1.00  0.00     0.137 A 
ATOM      7  C   UNL     1     -31.571  21.371 -22.843  1.00  0.00     0.043 A 
ATOM      8  C   UNL     1     -31.813  20.440 -21.874  1.00  0.00    -0.063 A 
ATOM      9  O   UNL     1     -30.784  19.563 -21.540  1.00  0.00    -0.870 OA
ATOM     10  C   UNL     1     -33.027  20.345 -21.226  1.00  0.00     0.100 A 
ATOM     11  C   UNL     1     -34.009  21.223 -21.582  1.00  0.00    -0.051 A 
ATOM     12  O   UNL     1     -35.229  21.140 -20.943  1.00  0.00    -0.869 OA
ATOM     13  C   UNL     1     -33.778  22.180 -22.571  1.00  0.00     0.060 A 
ENDROOT
BRANCH   4  14
ATOM     14  C   UNL     1     -32.951  25.033 -25.583  1.00  0.00     0.017 A 
ATOM     15  C   UNL     1     -31.835  25.821 -25.620  1.00  0.00     0.012 A 
ATOM     16  C   UNL     1     -33.868  25.194 -26.626  1.00  0.00     0.012 A 
ATOM     17  C   UNL     1     -31.623  26.743 -26.655  1.00  0.00     0.001 A 
ATOM     18  C   UNL     1     -33.665  26.099 -27.646  1.00  0.00     0.001 A 
ATOM     19  C   UNL     1     -32.537  26.887 -27.674  1.00  0.00     0.000 A 
ENDBRANCH   4  14
BRANCH  10  20
ATOM     20  O   UNL     1     -33.222  19.372 -20.239  1.00  0.00    -0.509 OA
ATOM     21  H   UNL     1     -34.052  19.438 -19.647  1.00  0.00     0.293 HD
ENDBRANCH  10  20
TORSDOF 2
ENDMDL
MODEL 3
REMARK VINA RESULT:      -7.4      1.413      3.132
REMARK SMILES O=c1cc(-c2ccccc2)oc2cc([O-])c(O)c([O-])c12
REMARK SMILES IDX 1 1 2 2 3 3 4 4 11 5 12 6 13 7 14 8 15 9 16 10 18 11 19 12
REMARK SMILES IDX 20 13 5 14 6 15 10 16 7 17 9 18 8 19 17 20
REMARK H PARENT 17 21
ROOT
ATOM      1  O   UNL     1     -31.002  22.661 -23.711  1.00  0.00    -0.289 OA
ATOM      2  C   UNL     1     -31.770  23.587 -24.070  1.00  0.00     0.192 A 
ATOM      3  C   UNL     1     -31.356  24.607 -24.932  1.00  0.00     0.100 A 
ATOM      4  C   UNL     1     -32.179  25.624 -25.333  1.00  0.00     0.138 A 
ATOM      5  O   UNL     1     -33.408  25.596 -24.856  1.00  0.00    -0.456 OA
ATOM      6  C   UNL     1     -33.858  24.672 -24.047  1.00  0.00     0.137 A 
ATOM      7  C   UNL     1     -35.177  24.702 -23.577  1.00  0.00     0.043 A 
ATOM      8  C   UNL     1     -35.634  23.731 -22.732  1.00  0.00    -0.063 A 
ATOM      9  O   UNL     1     -36.955  23.814 -22.298  1.00  0.00    -0.870 OA
ATOM     10  C   UNL     1     -34.839  22.689 -22.303  1.00  0.00     0.100 A 
ATOM     11  C   UNL     1     -33.551  22.644 -22.752  1.00  0.00    -0.051 A 
ATOM     12  O   UNL     1     -32.743  21.607 -22.331  1.00  0.00    -0.869 OA
ATOM     13  C   UNL     1     -33.068  23.629 -23.615  1.00  0.00     0.060 A 
ENDROOT
BRANCH   4  14
ATOM     14  C   UNL     1     -31.726  26.671 -26.230  1.00  0.00     0.017 A 
ATOM     15  C   UNL     1     -32.012  26.734 -27.565  1.00  0.00     0.012 A 
ATOM     16  C   UNL     1     -30.939  27.702 -25.708  1.00  0.00     0.012 A 
ATOM     17  C   UNL     1     -31.537  27.780 -28.369  1.00  0.00     0.001 A 
ATOM     18  C   UNL     1     -30.469  28.734 -26.493  1.00  0.00     0.001 A 
ATOM     19  C   UNL     1     -30.763  28.786 -27.837  1.00  0.00     0.000 A 
ENDBRANCH   4  14
BRANCH  10  20
ATOM     20  O   UNL     1     -35.358  21.720 -21.437  1.00  0.00    -0.509 OA
ATOM     21  H   UNL     1     -35.516  21.975 -20.460  1.00  0.00     0.293 HD
ENDBRANCH  10  20
TORSDOF 2
ENDMDL
MODEL 4
REMARK VINA RESULT:      -7.4      0.979      1.433
REMARK SMILES O=c1cc(-c2ccccc2)oc2cc([O-])c(O)c([O-])c12
REMARK SMILES IDX 1 1 2 2 3 3 4 4 11 5 12 6 13 7 14 8 15 9 16 10 18 11 19 12
REMARK SMILES IDX 20 13 5 14 6 15 10 16 7 17 9 18 8 19 17 20
REMARK H PARENT 17 21
ROOT
ATOM      1  O   UNL     1     -36.051  24.999 -23.623  1.00  0.00    -0.289 OA
ATOM      2  C   UNL     1     -34.856  24.840 -23.973  1.00  0.00     0.192 A 
ATOM      3  C   UNL     1     -34.216  25.715 -24.856  1.00  0.00     0.100 A 
ATOM      4  C   UNL     1     -32.915  25.558 -25.250  1.00  0.00     0.138 A 
ATOM      5  O   UNL     1     -32.279  24.519 -24.745  1.00  0.00    -0.456 OA
ATOM      6  C   UNL     1     -32.819  23.663 -23.915  1.00  0.00     0.137 A 
ATOM      7  C   UNL     1     -32.086  22.580 -23.415  1.00  0.00     0.043 A 
ATOM      8  C   UNL     1     -32.662  21.694 -22.550  1.00  0.00    -0.063 A 
ATOM      9  O   UNL     1     -31.884  20.636 -22.087  1.00  0.00    -0.870 OA
ATOM     10  C   UNL     1     -33.969  21.814 -22.128  1.00  0.00     0.100 A 
ATOM     11  C   UNL     1     -34.698  22.865 -22.605  1.00  0.00    -0.051 A 
ATOM     12  O   UNL     1     -36.008  22.999 -22.192  1.00  0.00    -0.869 OA
ATOM     13  C   UNL     1     -34.125  23.779 -23.490  1.00  0.00     0.060 A 
ENDROOT
BRANCH   4  14
ATOM     14  C   UNL     1     -32.272  26.480 -26.168  1.00  0.00     0.017 A 
ATOM     15  C   UNL     1     -32.546  26.569 -27.504  1.00  0.00     0.012 A 
ATOM     16  C   UNL     1     -31.300  27.351 -25.667  1.00  0.00     0.012 A 
ATOM     17  C   UNL     1     -31.882  27.488 -28.329  1.00  0.00     0.001 A 
ATOM     18  C   UNL     1     -30.644  28.257 -26.473  1.00  0.00     0.001 A 
ATOM     19  C   UNL     1     -30.927  28.337 -27.818  1.00  0.00     0.000 A 
ENDBRANCH   4  14
BRANCH  10  20
ATOM     20  O   UNL     1     -34.510  20.878 -21.240  1.00  0.00    -0.509 OA
ATOM     21  H   UNL     1     -33.873  20.365 -20.626  1.00  0.00     0.293 HD
ENDBRANCH  10  20
TORSDOF 2
ENDMDL
MODEL 5
REMARK VINA RESULT:      -7.3      1.479      3.061
REMARK SMILES O=c1cc(-c2ccccc2)oc2cc([O-])c(O)c([O-])c12
REMARK SMILES IDX 1 1 2 2 3 3 4 4 11 5 12 6 13 7 14 8 15 9 16 10 18 11 19 12
REMARK SMILES IDX 20 13 5 14 6 15 10 16 7 17 9 18 8 19 17 20
REMARK H PARENT 17 21
ROOT
ATOM      1  O   UNL     1     -31.086  22.701 -23.723  1.00  0.00    -0.289 OA
ATOM      2  C   UNL     1     -31.817  23.665 -24.058  1.00  0.00     0.192 A 
ATOM      3  C   UNL     1     -31.363  24.689 -24.896  1.00  0.00     0.100 A 
ATOM      4  C   UNL     1     -32.144  25.748 -25.270  1.00  0.00     0.138 A 
ATOM      5  O   UNL     1     -33.374  25.757 -24.793  1.00  0.00    -0.456 OA
ATOM      6  C   UNL     1     -33.860  24.832 -24.007  1.00  0.00     0.137 A 
ATOM      7  C   UNL     1     -35.177  24.902 -23.536  1.00  0.00     0.043 A 
ATOM      8  C   UNL     1     -35.673  23.930 -22.715  1.00  0.00    -0.063 A 
ATOM      9  O   UNL     1     -36.989  24.054 -22.278  1.00  0.00    -0.870 OA
ATOM     10  C   UNL     1     -34.920  22.846 -22.312  1.00  0.00     0.100 A 
ATOM     11  C   UNL     1     -33.634  22.762 -22.763  1.00  0.00    -0.051 A 
ATOM     12  O   UNL     1     -32.869  21.683 -22.369  1.00  0.00    -0.869 OA
ATOM     13  C   UNL     1     -33.112  23.747 -23.602  1.00  0.00     0.060 A 
ENDROOT
BRANCH   4  14
ATOM     14  C   UNL     1     -31.649  26.798 -26.141  1.00  0.00     0.017 A 
ATOM     15  C   UNL     1     -30.904  27.867 -25.729  1.00  0.00     0.012 A 
ATOM     16  C   UNL     1     -31.946  26.729 -27.505  1.00  0.00     0.012 A 
ATOM     17  C   UNL     1     -30.462  28.845 -26.631  1.00  0.00     0.001 A 
ATOM     18  C   UNL     1     -31.513  27.686 -28.398  1.00  0.00     0.001 A 
ATOM     19  C   UNL     1     -30.763  28.759 -27.971  1.00  0.00     0.000 A 
ENDBRANCH   4  14
BRANCH  10  20
ATOM     20  O   UNL     1     -35.477  21.878 -21.470  1.00  0.00    -0.509 OA
ATOM     21  H   UNL     1     -34.949  21.020 -21.297  1.00  0.00     0.293 HD
ENDBRANCH  10  20
TORSDOF 2
ENDMDL
MODEL 6
REMARK VINA RESULT:      -7.2      1.120      1.708
REMARK SMILES O=c1cc(-c2ccccc2)oc2cc([O-])c(O)c([O-])c12
REMARK SMILES IDX 1 1 2 2 3 3 4 4 11 5 12 6 13 7 14 8 15 9 16 10 18 11 19 12
REMARK SMILES IDX 20 13 5 14 6 15 10 16 7 17 9 18 8 19 17 20
REMARK H PARENT 17 21
ROOT
ATOM      1  O   UNL     1     -35.829  22.968 -22.092  1.00  0.00    -0.289 OA
ATOM      2  C   UNL     1     -34.713  23.040 -22.663  1.00  0.00     0.192 A 
ATOM      3  C   UNL     1     -34.411  24.047 -23.585  1.00  0.00     0.100 A 
ATOM      4  C   UNL     1     -33.201  24.142 -24.217  1.00  0.00     0.138 A 
ATOM      5  O   UNL     1     -32.313  23.217 -23.907  1.00  0.00    -0.456 OA
ATOM      6  C   UNL     1     -32.531  22.250 -23.054  1.00  0.00     0.137 A 
ATOM      7  C   UNL     1     -31.542  21.300 -22.770  1.00  0.00     0.043 A 
ATOM      8  C   UNL     1     -31.783  20.294 -21.878  1.00  0.00    -0.063 A 
ATOM      9  O   UNL     1     -30.762  19.379 -21.637  1.00  0.00    -0.870 OA
ATOM     10  C   UNL     1     -32.987  20.162 -21.219  1.00  0.00     0.100 A 
ATOM     11  C   UNL     1     -33.962  21.080 -21.484  1.00  0.00    -0.051 A 
ATOM     12  O   UNL     1     -35.173  20.961 -20.832  1.00  0.00    -0.869 OA
ATOM     13  C   UNL     1     -33.732  22.113 -22.394  1.00  0.00     0.060 A 
ENDROOT
BRANCH   4  14
ATOM     14  C   UNL     1     -32.912  25.196 -25.171  1.00  0.00     0.017 A 
ATOM     15  C   UNL     1     -33.432  25.271 -26.433  1.00  0.00     0.012 A 
ATOM     16  C   UNL     1     -32.041  26.221 -24.790  1.00  0.00     0.012 A 
ATOM     17  C   UNL     1     -33.104  26.324 -27.300  1.00  0.00     0.001 A 
ATOM     18  C   UNL     1     -31.716  27.259 -25.637  1.00  0.00     0.001 A 
ATOM     19  C   UNL     1     -32.245  27.324 -26.906  1.00  0.00     0.000 A 
ENDBRANCH   4  14
BRANCH  10  20
ATOM     20  O   UNL     1     -33.181  19.113 -20.313  1.00  0.00    -0.509 OA
ATOM     21  H   UNL     1     -34.034  18.555 -20.389  1.00  0.00     0.293 HD
ENDBRANCH  10  20
TORSDOF 2
ENDMDL
MODEL 7
REMARK VINA RESULT:      -7.1      1.701      3.291
REMARK SMILES O=c1cc(-c2ccccc2)oc2cc([O-])c(O)c([O-])c12
REMARK SMILES IDX 1 1 2 2 3 3 4 4 11 5 12 6 13 7 14 8 15 9 16 10 18 11 19 12
REMARK SMILES IDX 20 13 5 14 6 15 10 16 7 17 9 18 8 19 17 20
REMARK H PARENT 17 21
ROOT
ATOM      1  O   UNL     1     -30.711  23.444 -24.139  1.00  0.00    -0.289 OA
ATOM      2  C   UNL     1     -31.632  24.281 -24.301  1.00  0.00     0.192 A 
ATOM      3  C   UNL     1     -31.434  25.483 -24.989  1.00  0.00     0.100 A 
ATOM      4  C   UNL     1     -32.425  26.408 -25.175  1.00  0.00     0.138 A 
ATOM      5  O   UNL     1     -33.602  26.105 -24.663  1.00  0.00    -0.456 OA
ATOM      6  C   UNL     1     -33.854  25.000 -24.010  1.00  0.00     0.137 A 
ATOM      7  C   UNL     1     -35.129  24.740 -23.492  1.00  0.00     0.043 A 
ATOM      8  C   UNL     1     -35.378  23.583 -22.812  1.00  0.00    -0.063 A 
ATOM      9  O   UNL     1     -36.665  23.380 -22.320  1.00  0.00    -0.870 OA
ATOM     10  C   UNL     1     -34.409  22.625 -22.601  1.00  0.00     0.100 A 
ATOM     11  C   UNL     1     -33.160  22.861 -23.100  1.00  0.00    -0.051 A 
ATOM     12  O   UNL     1     -32.180  21.912 -22.897  1.00  0.00    -0.869 OA
ATOM     13  C   UNL     1     -32.889  24.039 -23.797  1.00  0.00     0.060 A 
ENDROOT
BRANCH   4  14
ATOM     14  C   UNL     1     -32.195  27.648 -25.892  1.00  0.00     0.017 A 
ATOM     15  C   UNL     1     -33.174  28.519 -26.279  1.00  0.00     0.012 A 
ATOM     16  C   UNL     1     -30.881  27.995 -26.221  1.00  0.00     0.012 A 
ATOM     17  C   UNL     1     -32.873  29.701 -26.971  1.00  0.00     0.001 A 
ATOM     18  C   UNL     1     -30.578  29.156 -26.901  1.00  0.00     0.001 A 
ATOM     19  C   UNL     1     -31.573  30.026 -27.286  1.00  0.00     0.000 A 
ENDBRANCH   4  14
BRANCH  10  20
ATOM     20  O   UNL     1     -34.718  21.455 -21.897  1.00  0.00    -0.509 OA
ATOM     21  H   UNL     1     -34.939  20.611 -22.428  1.00  0.00     0.293 HD
ENDBRANCH  10  20
TORSDOF 2
ENDMDL
MODEL 8
REMARK VINA RESULT:      -7.1      2.093      6.447
REMARK SMILES O=c1cc(-c2ccccc2)oc2cc([O-])c(O)c([O-])c12
REMARK SMILES IDX 1 1 2 2 3 3 4 4 11 5 12 6 13 7 14 8 15 9 16 10 18 11 19 12
REMARK SMILES IDX 20 13 5 14 6 15 10 16 7 17 9 18 8 19 17 20
REMARK H PARENT 17 21
ROOT
ATOM      1  O   UNL     1     -35.951  23.553 -26.277  1.00  0.00    -0.289 OA
ATOM      2  C   UNL     1     -34.912  23.598 -25.575  1.00  0.00     0.192 A 
ATOM      3  C   UNL     1     -34.702  22.733 -24.497  1.00  0.00     0.100 A 
ATOM      4  C   UNL     1     -33.576  22.768 -23.719  1.00  0.00     0.138 A 
ATOM      5  O   UNL     1     -32.678  23.678 -24.043  1.00  0.00    -0.456 OA
ATOM      6  C   UNL     1     -32.812  24.518 -25.038  1.00  0.00     0.137 A 
ATOM      7  C   UNL     1     -31.819  25.460 -25.328  1.00  0.00     0.043 A 
ATOM      8  C   UNL     1     -31.971  26.331 -26.369  1.00  0.00    -0.063 A 
ATOM      9  O   UNL     1     -30.950  27.246 -26.608  1.00  0.00    -0.870 OA
ATOM     10  C   UNL     1     -33.089  26.330 -27.177  1.00  0.00     0.100 A 
ATOM     11  C   UNL     1     -34.068  25.416 -26.908  1.00  0.00    -0.051 A 
ATOM     12  O   UNL     1     -35.192  25.403 -27.708  1.00  0.00    -0.869 OA
ATOM     13  C   UNL     1     -33.927  24.520 -25.848  1.00  0.00     0.060 A 
ENDROOT
BRANCH   4  14
ATOM     14  C   UNL     1     -33.382  21.859 -22.606  1.00  0.00     0.017 A 
ATOM     15  C   UNL     1     -32.217  21.199 -22.331  1.00  0.00     0.012 A 
ATOM     16  C   UNL     1     -34.453  21.628 -21.737  1.00  0.00     0.012 A 
ATOM     17  C   UNL     1     -32.105  20.334 -21.233  1.00  0.00     0.001 A 
ATOM     18  C   UNL     1     -34.349  20.779 -20.656  1.00  0.00     0.001 A 
ATOM     19  C   UNL     1     -33.171  20.119 -20.389  1.00  0.00     0.000 A 
ENDBRANCH   4  14
BRANCH  10  20
ATOM     20  O   UNL     1     -33.195  27.244 -28.231  1.00  0.00    -0.509 OA
ATOM     21  H   UNL     1     -32.941  26.934 -29.171  1.00  0.00     0.293 HD
ENDBRANCH  10  20
TORSDOF 2
ENDMDL
MODEL 9
REMARK VINA RESULT:      -7.0      2.087      6.514
REMARK SMILES O=c1cc(-c2ccccc2)oc2cc([O-])c(O)c([O-])c12
REMARK SMILES IDX 1 1 2 2 3 3 4 4 11 5 12 6 13 7 14 8 15 9 16 10 18 11 19 12
REMARK SMILES IDX 20 13 5 14 6 15 10 16 7 17 9 18 8 19 17 20
REMARK H PARENT 17 21
ROOT
ATOM      1  O   UNL     1     -35.875  23.532 -26.379  1.00  0.00    -0.289 OA
ATOM      2  C   UNL     1     -34.883  23.589 -25.613  1.00  0.00     0.192 A 
ATOM      3  C   UNL     1     -34.738  22.733 -24.516  1.00  0.00     0.100 A 
ATOM      4  C   UNL     1     -33.664  22.781 -23.670  1.00  0.00     0.138 A 
ATOM      5  O   UNL     1     -32.751  23.693 -23.944  1.00  0.00    -0.456 OA
ATOM      6  C   UNL     1     -32.825  24.523 -24.952  1.00  0.00     0.137 A 
ATOM      7  C   UNL     1     -31.820  25.468 -25.187  1.00  0.00     0.043 A 
ATOM      8  C   UNL     1     -31.910  26.329 -26.244  1.00  0.00    -0.063 A 
ATOM      9  O   UNL     1     -30.879  27.247 -26.426  1.00  0.00    -0.870 OA
ATOM     10  C   UNL     1     -32.975  26.315 -27.121  1.00  0.00     0.100 A 
ATOM     11  C   UNL     1     -33.964  25.400 -26.907  1.00  0.00    -0.051 A 
ATOM     12  O   UNL     1     -35.036  25.374 -27.776  1.00  0.00    -0.869 OA
ATOM     13  C   UNL     1     -33.887  24.513 -25.831  1.00  0.00     0.060 A 
ENDROOT
BRANCH   4  14
ATOM     14  C   UNL     1     -33.536  21.882 -22.538  1.00  0.00     0.017 A 
ATOM     15  C   UNL     1     -34.539  21.589 -21.657  1.00  0.00     0.012 A 
ATOM     16  C   UNL     1     -32.304  21.259 -22.316  1.00  0.00     0.012 A 
ATOM     17  C   UNL     1     -34.339  20.708 -20.584  1.00  0.00     0.001 A 
ATOM     18  C   UNL     1     -32.101  20.392 -21.264  1.00  0.00     0.001 A 
ATOM     19  C   UNL     1     -33.119  20.105 -20.382  1.00  0.00     0.000 A 
ENDBRANCH   4  14
BRANCH  10  20
ATOM     20  O   UNL     1     -33.017  27.220 -28.188  1.00  0.00    -0.509 OA
ATOM     21  H   UNL     1     -33.605  28.051 -28.098  1.00  0.00     0.293 HD
ENDBRANCH  10  20
TORSDOF 2
ENDMDL
