MODEL 1
REMARK VINA RESULT:      -6.8      0.000      0.000
REMARK SMILES COc1ccc(/C=C/c2cc([O-])cc(O)c2)cc1
REMARK SMILES IDX 7 1 8 2 6 3 3 4 4 5 18 6 5 7 17 8 2 9 1 10 9 11 10 12 16 13
REMARK SMILES IDX 11 14 14 15 13 16 12 17 15 18
REMARK H PARENT 15 19
ROOT
ATOM      1  C   UNL     1     -32.136  24.751 -24.982  1.00  0.00     0.009 C 
ATOM      2  C   UNL     1     -32.442  26.021 -24.990  1.00  0.00     0.009 C 
ENDROOT
BRANCH   1   3
ATOM      3  C   UNL     1     -32.637  23.764 -24.033  1.00  0.00    -0.025 A 
ATOM      4  C   UNL     1     -33.541  21.812 -22.194  1.00  0.00     0.118 A 
ATOM      5  C   UNL     1     -32.273  21.752 -22.733  1.00  0.00     0.047 A 
ATOM      6  C   UNL     1     -34.348  22.859 -22.584  1.00  0.00     0.047 A 
ATOM      7  C   UNL     1     -31.840  22.710 -23.631  1.00  0.00     0.012 A 
ATOM      8  C   UNL     1     -33.899  23.806 -23.482  1.00  0.00     0.012 A 
BRANCH   4   9
ATOM      9  O   UNL     1     -33.973  20.842 -21.287  1.00  0.00    -0.497 OA
ATOM     10  C   UNL     1     -32.987  20.102 -20.595  1.00  0.00     0.278 C 
ENDBRANCH   4   9
ENDBRANCH   1   3
BRANCH   2  11
ATOM     11  C   UNL     1     -31.949  27.016 -25.933  1.00  0.00    -0.023 A 
ATOM     12  C   UNL     1     -32.039  28.370 -25.724  1.00  0.00    -0.000 A 
ATOM     13  C   UNL     1     -31.352  26.621 -27.111  1.00  0.00     0.054 A 
ATOM     14  C   UNL     1     -31.552  29.289 -26.655  1.00  0.00    -0.105 A 
ATOM     15  C   UNL     1     -30.866  27.512 -28.041  1.00  0.00     0.115 A 
ATOM     16  C   UNL     1     -30.964  28.869 -27.819  1.00  0.00     0.037 A 
ATOM     17  O   UNL     1     -31.647  30.656 -26.438  1.00  0.00    -0.872 OA
BRANCH  15  18
ATOM     18  O   UNL     1     -30.268  27.100 -29.224  1.00  0.00    -0.508 OA
ATOM     19  H   UNL     1     -30.837  26.534 -29.843  1.00  0.00     0.293 HD
ENDBRANCH  15  18
ENDBRANCH   2  11
TORSDOF 4
ENDMDL
MODEL 2
REMARK VINA RESULT:      -6.7      0.537      2.275
REMARK SMILES COc1ccc(/C=C/c2cc([O-])cc(O)c2)cc1
REMARK SMILES IDX 7 1 8 2 6 3 3 4 4 5 18 6 5 7 17 8 2 9 1 10 9 11 10 12 16 13
REMARK SMILES IDX 11 14 14 15 13 16 12 17 15 18
REMARK H PARENT 15 19
ROOT
ATOM      1  C   UNL     1     -32.376  24.419 -24.985  1.00  0.00     0.009 C 
ATOM      2  C   UNL     1     -32.006  25.646 -24.730  1.00  0.00     0.009 C 
ENDROOT
BRANCH   1   3
ATOM      3  C   UNL     1     -32.632  23.387 -23.988  1.00  0.00    -0.025 A 
ATOM      4  C   UNL     1     -33.204  21.409 -22.047  1.00  0.00     0.118 A 
ATOM      5  C   UNL     1     -34.165  22.309 -22.453  1.00  0.00     0.047 A 
ATOM      6  C   UNL     1     -31.956  21.510 -22.624  1.00  0.00     0.047 A 
ATOM      7  C   UNL     1     -33.878  23.272 -23.402  1.00  0.00     0.012 A 
ATOM      8  C   UNL     1     -31.686  22.478 -23.570  1.00  0.00     0.012 A 
BRANCH   4   9
ATOM      9  O   UNL     1     -33.499  20.438 -21.088  1.00  0.00    -0.497 OA
ATOM     10  C   UNL     1     -32.976  19.139 -21.284  1.00  0.00     0.278 C 
ENDBRANCH   4   9
ENDBRANCH   1   3
BRANCH   2  11
ATOM     11  C   UNL     1     -31.747  26.686 -25.717  1.00  0.00    -0.023 A 
ATOM     12  C   UNL     1     -31.252  26.435 -26.973  1.00  0.00    -0.000 A 
ATOM     13  C   UNL     1     -31.998  28.008 -25.417  1.00  0.00     0.054 A 
ATOM     14  C   UNL     1     -31.018  27.462 -27.889  1.00  0.00    -0.105 A 
ATOM     15  C   UNL     1     -31.774  29.035 -26.305  1.00  0.00     0.115 A 
ATOM     16  C   UNL     1     -31.276  28.768 -27.563  1.00  0.00     0.037 A 
ATOM     17  O   UNL     1     -30.518  27.200 -29.156  1.00  0.00    -0.872 OA
BRANCH  15  18
ATOM     18  O   UNL     1     -32.031  30.362 -25.989  1.00  0.00    -0.508 OA
ATOM     19  H   UNL     1     -32.902  30.549 -25.505  1.00  0.00     0.293 HD
ENDBRANCH  15  18
ENDBRANCH   2  11
TORSDOF 4
ENDMDL
MODEL 3
REMARK VINA RESULT:      -6.7      1.374      8.024
REMARK SMILES COc1ccc(/C=C/c2cc([O-])cc(O)c2)cc1
REMARK SMILES IDX 7 1 8 2 6 3 3 4 4 5 18 6 5 7 17 8 2 9 1 10 9 11 10 12 16 13
REMARK SMILES IDX 11 14 14 15 13 16 12 17 15 18
REMARK H PARENT 15 19
ROOT
ATOM      1  C   UNL     1     -32.812  24.223 -23.902  1.00  0.00     0.009 C 
ATOM      2  C   UNL     1     -32.247  23.047 -23.827  1.00  0.00     0.009 C 
ENDROOT
BRANCH   1   3
ATOM      3  C   UNL     1     -32.511  25.245 -24.898  1.00  0.00    -0.025 A 
ATOM      4  C   UNL     1     -31.981  27.195 -26.879  1.00  0.00     0.118 A 
ATOM      5  C   UNL     1     -32.903  26.192 -27.094  1.00  0.00     0.047 A 
ATOM      6  C   UNL     1     -31.330  27.210 -25.664  1.00  0.00     0.047 A 
ATOM      7  C   UNL     1     -33.155  25.244 -26.120  1.00  0.00     0.012 A 
ATOM      8  C   UNL     1     -31.595  26.254 -24.704  1.00  0.00     0.012 A 
BRANCH   4   9
ATOM      9  O   UNL     1     -31.729  28.151 -27.865  1.00  0.00    -0.497 OA
ATOM     10  C   UNL     1     -31.157  29.378 -27.460  1.00  0.00     0.278 C 
ENDBRANCH   4   9
ENDBRANCH   1   3
BRANCH   2  11
ATOM     11  C   UNL     1     -32.538  22.019 -22.837  1.00  0.00    -0.023 A 
ATOM     12  C   UNL     1     -33.741  21.912 -22.183  1.00  0.00    -0.000 A 
ATOM     13  C   UNL     1     -31.583  21.080 -22.508  1.00  0.00     0.054 A 
ATOM     14  C   UNL     1     -33.978  20.911 -21.241  1.00  0.00    -0.105 A 
ATOM     15  C   UNL     1     -31.797  20.085 -21.582  1.00  0.00     0.115 A 
ATOM     16  C   UNL     1     -33.010  19.990 -20.932  1.00  0.00     0.037 A 
ATOM     17  O   UNL     1     -35.196  20.810 -20.584  1.00  0.00    -0.872 OA
BRANCH  15  18
ATOM     18  O   UNL     1     -30.826  19.146 -21.260  1.00  0.00    -0.508 OA
ATOM     19  H   UNL     1     -29.892  19.328 -21.609  1.00  0.00     0.293 HD
ENDBRANCH  15  18
ENDBRANCH   2  11
TORSDOF 4
ENDMDL
MODEL 4
REMARK VINA RESULT:      -6.7      1.378      7.955
REMARK SMILES COc1ccc(/C=C/c2cc([O-])cc(O)c2)cc1
REMARK SMILES IDX 7 1 8 2 6 3 3 4 4 5 18 6 5 7 17 8 2 9 1 10 9 11 10 12 16 13
REMARK SMILES IDX 11 14 14 15 13 16 12 17 15 18
REMARK H PARENT 15 19
ROOT
ATOM      1  C   UNL     1     -32.689  24.441 -23.968  1.00  0.00     0.009 C 
ATOM      2  C   UNL     1     -32.331  23.187 -24.034  1.00  0.00     0.009 C 
ENDROOT
BRANCH   1   3
ATOM      3  C   UNL     1     -32.434  25.450 -24.989  1.00  0.00    -0.025 A 
ATOM      4  C   UNL     1     -31.890  27.444 -26.923  1.00  0.00     0.118 A 
ATOM      5  C   UNL     1     -31.294  27.473 -25.680  1.00  0.00     0.047 A 
ATOM      6  C   UNL     1     -32.759  26.406 -27.186  1.00  0.00     0.047 A 
ATOM      7  C   UNL     1     -31.566  26.495 -24.742  1.00  0.00     0.012 A 
ATOM      8  C   UNL     1     -33.018  25.438 -26.237  1.00  0.00     0.012 A 
BRANCH   4   9
ATOM      9  O   UNL     1     -31.612  28.434 -27.867  1.00  0.00    -0.497 OA
ATOM     10  C   UNL     1     -30.908  29.580 -27.431  1.00  0.00     0.278 C 
ENDBRANCH   4   9
ENDBRANCH   1   3
BRANCH   2  11
ATOM     11  C   UNL     1     -32.580  22.170 -23.021  1.00  0.00    -0.023 A 
ATOM     12  C   UNL     1     -33.771  22.043 -22.348  1.00  0.00    -0.000 A 
ATOM     13  C   UNL     1     -31.596  21.264 -22.687  1.00  0.00     0.054 A 
ATOM     14  C   UNL     1     -33.967  21.054 -21.384  1.00  0.00    -0.105 A 
ATOM     15  C   UNL     1     -31.769  20.281 -21.740  1.00  0.00     0.115 A 
ATOM     16  C   UNL     1     -32.970  20.167 -21.071  1.00  0.00     0.037 A 
ATOM     17  O   UNL     1     -35.173  20.933 -20.708  1.00  0.00    -0.872 OA
BRANCH  15  18
ATOM     18  O   UNL     1     -30.768  19.376 -21.414  1.00  0.00    -0.508 OA
ATOM     19  H   UNL     1     -30.594  18.637 -22.086  1.00  0.00     0.293 HD
ENDBRANCH  15  18
ENDBRANCH   2  11
TORSDOF 4
ENDMDL
MODEL 5
REMARK VINA RESULT:      -6.6      0.618      1.265
REMARK SMILES COc1ccc(/C=C/c2cc([O-])cc(O)c2)cc1
REMARK SMILES IDX 7 1 8 2 6 3 3 4 4 5 18 6 5 7 17 8 2 9 1 10 9 11 10 12 16 13
REMARK SMILES IDX 11 14 14 15 13 16 12 17 15 18
REMARK H PARENT 15 19
ROOT
ATOM      1  C   UNL     1     -32.373  24.641 -25.042  1.00  0.00     0.009 C 
ATOM      2  C   UNL     1     -31.727  25.761 -24.849  1.00  0.00     0.009 C 
ENDROOT
BRANCH   1   3
ATOM      3  C   UNL     1     -32.463  23.541 -24.089  1.00  0.00    -0.025 A 
ATOM      4  C   UNL     1     -32.712  21.427 -22.224  1.00  0.00     0.118 A 
ATOM      5  C   UNL     1     -33.754  22.299 -22.458  1.00  0.00     0.047 A 
ATOM      6  C   UNL     1     -31.547  21.626 -22.934  1.00  0.00     0.047 A 
ATOM      7  C   UNL     1     -33.624  23.329 -23.371  1.00  0.00     0.012 A 
ATOM      8  C   UNL     1     -31.435  22.660 -23.841  1.00  0.00     0.012 A 
BRANCH   4   9
ATOM      9  O   UNL     1     -32.849  20.388 -21.301  1.00  0.00    -0.497 OA
ATOM     10  C   UNL     1     -34.027  20.353 -20.521  1.00  0.00     0.278 C 
ENDBRANCH   4   9
ENDBRANCH   1   3
BRANCH   2  11
ATOM     11  C   UNL     1     -31.630  26.867 -25.793  1.00  0.00    -0.023 A 
ATOM     12  C   UNL     1     -31.938  28.167 -25.475  1.00  0.00    -0.000 A 
ATOM     13  C   UNL     1     -31.209  26.642 -27.086  1.00  0.00     0.054 A 
ATOM     14  C   UNL     1     -31.830  29.196 -26.410  1.00  0.00    -0.105 A 
ATOM     15  C   UNL     1     -31.096  27.644 -28.024  1.00  0.00     0.115 A 
ATOM     16  C   UNL     1     -31.410  28.945 -27.690  1.00  0.00     0.037 A 
ATOM     17  O   UNL     1     -32.144  30.507 -26.081  1.00  0.00    -0.872 OA
BRANCH  15  18
ATOM     18  O   UNL     1     -30.671  27.403 -29.323  1.00  0.00    -0.508 OA
ATOM     19  H   UNL     1     -30.307  28.200 -29.832  1.00  0.00     0.293 HD
ENDBRANCH  15  18
ENDBRANCH   2  11
TORSDOF 4
ENDMDL
MODEL 6
REMARK VINA RESULT:      -6.6      1.409      8.165
REMARK SMILES COc1ccc(/C=C/c2cc([O-])cc(O)c2)cc1
REMARK SMILES IDX 7 1 8 2 6 3 3 4 4 5 18 6 5 7 17 8 2 9 1 10 9 11 10 12 16 13
REMARK SMILES IDX 11 14 14 15 13 16 12 17 15 18
REMARK H PARENT 15 19
ROOT
ATOM      1  C   UNL     1     -32.833  24.041 -23.860  1.00  0.00     0.009 C 
ATOM      2  C   UNL     1     -32.164  22.924 -23.746  1.00  0.00     0.009 C 
ENDROOT
BRANCH   1   3
ATOM      3  C   UNL     1     -32.571  25.088 -24.841  1.00  0.00    -0.025 A 
ATOM      4  C   UNL     1     -32.012  27.152 -26.694  1.00  0.00     0.118 A 
ATOM      5  C   UNL     1     -31.369  27.093 -25.476  1.00  0.00     0.047 A 
ATOM      6  C   UNL     1     -32.936  26.167 -26.973  1.00  0.00     0.047 A 
ATOM      7  C   UNL     1     -31.648  26.082 -24.577  1.00  0.00     0.012 A 
ATOM      8  C   UNL     1     -33.202  25.165 -26.062  1.00  0.00     0.012 A 
BRANCH   4   9
ATOM      9  O   UNL     1     -31.727  28.176 -27.600  1.00  0.00    -0.497 OA
ATOM     10  C   UNL     1     -32.252  29.460 -27.328  1.00  0.00     0.278 C 
ENDBRANCH   4   9
ENDBRANCH   1   3
BRANCH   2  11
ATOM     11  C   UNL     1     -32.416  21.871 -22.772  1.00  0.00    -0.023 A 
ATOM     12  C   UNL     1     -31.494  20.909 -22.437  1.00  0.00    -0.000 A 
ATOM     13  C   UNL     1     -33.631  21.797 -22.125  1.00  0.00     0.054 A 
ATOM     14  C   UNL     1     -31.776  19.917 -21.498  1.00  0.00    -0.105 A 
ATOM     15  C   UNL     1     -33.929  20.827 -21.195  1.00  0.00     0.115 A 
ATOM     16  C   UNL     1     -32.994  19.867 -20.870  1.00  0.00     0.037 A 
ATOM     17  O   UNL     1     -30.840  18.949 -21.165  1.00  0.00    -0.872 OA
BRANCH  15  18
ATOM     18  O   UNL     1     -35.158  20.765 -20.552  1.00  0.00    -0.508 OA
ATOM     19  H   UNL     1     -35.133  20.669 -19.543  1.00  0.00     0.293 HD
ENDBRANCH  15  18
ENDBRANCH   2  11
TORSDOF 4
ENDMDL
MODEL 7
REMARK VINA RESULT:      -6.5      0.268      1.939
REMARK SMILES COc1ccc(/C=C/c2cc([O-])cc(O)c2)cc1
REMARK SMILES IDX 7 1 8 2 6 3 3 4 4 5 18 6 5 7 17 8 2 9 1 10 9 11 10 12 16 13
REMARK SMILES IDX 11 14 14 15 13 16 12 17 15 18
REMARK H PARENT 15 19
ROOT
ATOM      1  C   UNL     1     -32.052  24.653 -24.789  1.00  0.00     0.009 C 
ATOM      2  C   UNL     1     -32.621  25.796 -25.065  1.00  0.00     0.009 C 
ENDROOT
BRANCH   1   3
ATOM      3  C   UNL     1     -32.576  23.645 -23.874  1.00  0.00    -0.025 A 
ATOM      4  C   UNL     1     -33.524  21.652 -22.102  1.00  0.00     0.118 A 
ATOM      5  C   UNL     1     -32.252  21.591 -22.632  1.00  0.00     0.047 A 
ATOM      6  C   UNL     1     -34.313  22.722 -22.469  1.00  0.00     0.047 A 
ATOM      7  C   UNL     1     -31.797  22.569 -23.496  1.00  0.00     0.012 A 
ATOM      8  C   UNL     1     -33.842  23.689 -23.334  1.00  0.00     0.012 A 
BRANCH   4   9
ATOM      9  O   UNL     1     -33.978  20.662 -21.229  1.00  0.00    -0.497 OA
ATOM     10  C   UNL     1     -33.174  20.354 -20.108  1.00  0.00     0.278 C 
ENDBRANCH   4   9
ENDBRANCH   1   3
BRANCH   2  11
ATOM     11  C   UNL     1     -32.108  26.810 -25.977  1.00  0.00    -0.023 A 
ATOM     12  C   UNL     1     -31.474  26.518 -27.159  1.00  0.00    -0.000 A 
ATOM     13  C   UNL     1     -32.245  28.149 -25.677  1.00  0.00     0.054 A 
ATOM     14  C   UNL     1     -30.998  27.521 -28.004  1.00  0.00    -0.105 A 
ATOM     15  C   UNL     1     -31.783  29.153 -26.496  1.00  0.00     0.115 A 
ATOM     16  C   UNL     1     -31.147  28.845 -27.680  1.00  0.00     0.037 A 
ATOM     17  O   UNL     1     -30.358  27.218 -29.197  1.00  0.00    -0.872 OA
BRANCH  15  18
ATOM     18  O   UNL     1     -31.928  30.497 -26.180  1.00  0.00    -0.508 OA
ATOM     19  H   UNL     1     -31.956  31.142 -26.962  1.00  0.00     0.293 HD
ENDBRANCH  15  18
ENDBRANCH   2  11
TORSDOF 4
ENDMDL
MODEL 8
REMARK VINA RESULT:      -6.5      1.407      8.057
REMARK SMILES COc1ccc(/C=C/c2cc([O-])cc(O)c2)cc1
REMARK SMILES IDX 7 1 8 2 6 3 3 4 4 5 18 6 5 7 17 8 2 9 1 10 9 11 10 12 16 13
REMARK SMILES IDX 11 14 14 15 13 16 12 17 15 18
REMARK H PARENT 15 19
ROOT
ATOM      1  C   UNL     1     -31.904  24.425 -24.201  1.00  0.00     0.009 C 
ATOM      2  C   UNL     1     -32.881  23.611 -23.901  1.00  0.00     0.009 C 
ENDROOT
BRANCH   1   3
ATOM      3  C   UNL     1     -32.015  25.606 -25.049  1.00  0.00    -0.025 A 
ATOM      4  C   UNL     1     -32.266  27.854 -26.750  1.00  0.00     0.118 A 
ATOM      5  C   UNL     1     -32.724  26.612 -27.136  1.00  0.00     0.047 A 
ATOM      6  C   UNL     1     -31.683  27.956 -25.505  1.00  0.00     0.047 A 
ATOM      7  C   UNL     1     -32.598  25.520 -26.299  1.00  0.00     0.012 A 
ATOM      8  C   UNL     1     -31.565  26.855 -24.682  1.00  0.00     0.012 A 
BRANCH   4   9
ATOM      9  O   UNL     1     -32.397  28.954 -27.599  1.00  0.00    -0.497 OA
ATOM     10  C   UNL     1     -31.535  30.055 -27.386  1.00  0.00     0.278 C 
ENDBRANCH   4   9
ENDBRANCH   1   3
BRANCH   2  11
ATOM     11  C   UNL     1     -32.782  22.429 -23.055  1.00  0.00    -0.023 A 
ATOM     12  C   UNL     1     -31.679  21.611 -23.017  1.00  0.00    -0.000 A 
ATOM     13  C   UNL     1     -33.829  22.074 -22.231  1.00  0.00     0.054 A 
ATOM     14  C   UNL     1     -31.627  20.488 -22.191  1.00  0.00    -0.105 A 
ATOM     15  C   UNL     1     -33.797  20.971 -21.409  1.00  0.00     0.115 A 
ATOM     16  C   UNL     1     -32.683  20.158 -21.382  1.00  0.00     0.037 A 
ATOM     17  O   UNL     1     -30.509  19.667 -22.159  1.00  0.00    -0.872 OA
BRANCH  15  18
ATOM     18  O   UNL     1     -34.859  20.625 -20.585  1.00  0.00    -0.508 OA
ATOM     19  H   UNL     1     -35.187  19.668 -20.651  1.00  0.00     0.293 HD
ENDBRANCH  15  18
ENDBRANCH   2  11
TORSDOF 4
ENDMDL
MODEL 9
REMARK VINA RESULT:      -6.1      1.554      1.709
REMARK SMILES COc1ccc(/C=C/c2cc([O-])cc(O)c2)cc1
REMARK SMILES IDX 7 1 8 2 6 3 3 4 4 5 18 6 5 7 17 8 2 9 1 10 9 11 10 12 16 13
REMARK SMILES IDX 11 14 14 15 13 16 12 17 15 18
REMARK H PARENT 15 19
ROOT
ATOM      1  C   UNL     1     -32.507  24.264 -24.463  1.00  0.00     0.009 C 
ATOM      2  C   UNL     1     -33.254  24.732 -25.427  1.00  0.00     0.009 C 
ENDROOT
BRANCH   1   3
ATOM      3  C   UNL     1     -32.887  23.206 -23.534  1.00  0.00    -0.025 A 
ATOM      4  C   UNL     1     -33.551  21.124 -21.736  1.00  0.00     0.118 A 
ATOM      5  C   UNL     1     -32.281  21.236 -22.261  1.00  0.00     0.047 A 
ATOM      6  C   UNL     1     -34.482  22.066 -22.120  1.00  0.00     0.047 A 
ATOM      7  C   UNL     1     -31.966  22.256 -23.139  1.00  0.00     0.012 A 
ATOM      8  C   UNL     1     -34.149  23.078 -22.998  1.00  0.00     0.012 A 
BRANCH   4   9
ATOM      9  O   UNL     1     -33.865  20.093 -20.849  1.00  0.00    -0.497 OA
ATOM     10  C   UNL     1     -33.235  18.842 -21.046  1.00  0.00     0.278 C 
ENDBRANCH   4   9
ENDBRANCH   1   3
BRANCH   2  11
ATOM     11  C   UNL     1     -32.887  25.789 -26.361  1.00  0.00    -0.023 A 
ATOM     12  C   UNL     1     -33.801  26.542 -27.055  1.00  0.00    -0.000 A 
ATOM     13  C   UNL     1     -31.559  26.082 -26.591  1.00  0.00     0.054 A 
ATOM     14  C   UNL     1     -33.405  27.545 -27.940  1.00  0.00    -0.105 A 
ATOM     15  C   UNL     1     -31.148  27.067 -27.460  1.00  0.00     0.115 A 
ATOM     16  C   UNL     1     -32.078  27.815 -28.151  1.00  0.00     0.037 A 
ATOM     17  O   UNL     1     -34.335  28.302 -28.637  1.00  0.00    -0.872 OA
BRANCH  15  18
ATOM     18  O   UNL     1     -29.808  27.351 -27.682  1.00  0.00    -0.508 OA
ATOM     19  H   UNL     1     -29.237  26.587 -28.026  1.00  0.00     0.293 HD
ENDBRANCH  15  18
ENDBRANCH   2  11
TORSDOF 4
ENDMDL
