MODEL 1
REMARK VINA RESULT:      -7.1      0.000      0.000
REMARK SMILES O=C1c2ccccc2C(=O)c2c1ccc(O)c2O
REMARK SMILES IDX 1 1 2 2 3 3 4 4 5 5 6 6 7 7 8 8 9 9 10 10 11 11 12 12 13 13
REMARK SMILES IDX 14 14 15 15 17 16 18 17 16 19
REMARK H PARENT 18 18 16 20
ROOT
ATOM      1  O   UNL     1     -36.354  22.903 -21.958  1.00  0.00    -0.289 OA
ATOM      2  C   UNL     1     -35.233  22.815 -22.532  1.00  0.00     0.194 C 
ATOM      3  C   UNL     1     -34.968  23.647 -23.717  1.00  0.00     0.034 A 
ATOM      4  C   UNL     1     -35.964  24.515 -24.176  1.00  0.00     0.013 A 
ATOM      5  C   UNL     1     -35.692  25.280 -25.282  1.00  0.00     0.001 A 
ATOM      6  C   UNL     1     -34.483  25.197 -25.916  1.00  0.00     0.001 A 
ATOM      7  C   UNL     1     -33.513  24.350 -25.467  1.00  0.00     0.013 A 
ATOM      8  C   UNL     1     -33.747  23.555 -24.350  1.00  0.00     0.034 A 
ATOM      9  C   UNL     1     -32.713  22.654 -23.872  1.00  0.00     0.198 C 
ATOM     10  O   UNL     1     -31.612  22.601 -24.479  1.00  0.00    -0.288 OA
ATOM     11  C   UNL     1     -32.973  21.834 -22.706  1.00  0.00     0.079 A 
ATOM     12  C   UNL     1     -34.196  21.910 -22.054  1.00  0.00     0.038 A 
ATOM     13  C   UNL     1     -34.454  21.134 -20.942  1.00  0.00     0.017 A 
ATOM     14  C   UNL     1     -33.465  20.288 -20.507  1.00  0.00     0.051 A 
ATOM     15  C   UNL     1     -32.247  20.208 -21.152  1.00  0.00     0.158 A 
ATOM     16  C   UNL     1     -31.981  20.968 -22.247  1.00  0.00     0.169 A 
ENDROOT
BRANCH  16  17
ATOM     17  O   UNL     1     -30.787  20.943 -22.945  1.00  0.00    -0.504 OA
ATOM     18  H   UNL     1     -29.902  20.952 -22.463  1.00  0.00     0.293 HD
ENDBRANCH  16  17
BRANCH  15  19
ATOM     19  O   UNL     1     -31.244  19.343 -20.701  1.00  0.00    -0.504 OA
ATOM     20  H   UNL     1     -30.371  19.242 -21.222  1.00  0.00     0.293 HD
ENDBRANCH  15  19
TORSDOF 2
ENDMDL
MODEL 2
REMARK VINA RESULT:      -6.9      1.344      4.942
REMARK SMILES O=C1c2ccccc2C(=O)c2c1ccc(O)c2O
REMARK SMILES IDX 1 1 2 2 3 3 4 4 5 5 6 6 7 7 8 8 9 9 10 10 11 11 12 12 13 13
REMARK SMILES IDX 14 14 15 15 17 16 18 17 16 19
REMARK H PARENT 18 18 16 20
ROOT
ATOM      1  O   UNL     1     -36.027  22.741 -22.041  1.00  0.00    -0.289 OA
ATOM      2  C   UNL     1     -34.849  22.738 -22.497  1.00  0.00     0.194 C 
ATOM      3  C   UNL     1     -33.900  21.719 -22.021  1.00  0.00     0.034 A 
ATOM      4  C   UNL     1     -34.326  20.779 -21.076  1.00  0.00     0.013 A 
ATOM      5  C   UNL     1     -33.422  19.841 -20.648  1.00  0.00     0.001 A 
ATOM      6  C   UNL     1     -32.143  19.822 -21.131  1.00  0.00     0.001 A 
ATOM      7  C   UNL     1     -31.729  20.739 -22.052  1.00  0.00     0.013 A 
ATOM      8  C   UNL     1     -32.612  21.710 -22.513  1.00  0.00     0.034 A 
ATOM      9  C   UNL     1     -32.171  22.685 -23.495  1.00  0.00     0.198 C 
ATOM     10  O   UNL     1     -30.987  22.640 -23.918  1.00  0.00    -0.288 OA
ATOM     11  C   UNL     1     -33.104  23.688 -23.964  1.00  0.00     0.079 A 
ATOM     12  C   UNL     1     -34.405  23.716 -23.480  1.00  0.00     0.038 A 
ATOM     13  C   UNL     1     -35.303  24.668 -23.922  1.00  0.00     0.017 A 
ATOM     14  C   UNL     1     -34.866  25.580 -24.848  1.00  0.00     0.051 A 
ATOM     15  C   UNL     1     -33.574  25.558 -25.331  1.00  0.00     0.158 A 
ATOM     16  C   UNL     1     -32.682  24.626 -24.906  1.00  0.00     0.169 A 
ENDROOT
BRANCH  16  17
ATOM     17  O   UNL     1     -31.372  24.539 -25.344  1.00  0.00    -0.504 OA
ATOM     18  H   UNL     1     -31.076  24.992 -26.194  1.00  0.00     0.293 HD
ENDBRANCH  16  17
BRANCH  15  19
ATOM     19  O   UNL     1     -33.138  26.492 -26.277  1.00  0.00    -0.504 OA
ATOM     20  H   UNL     1     -33.612  26.581 -27.177  1.00  0.00     0.293 HD
ENDBRANCH  15  19
TORSDOF 2
ENDMDL
MODEL 3
REMARK VINA RESULT:      -6.5      1.358      5.794
REMARK SMILES O=C1c2ccccc2C(=O)c2c1ccc(O)c2O
REMARK SMILES IDX 1 1 2 2 3 3 4 4 5 5 6 6 7 7 8 8 9 9 10 10 11 11 12 12 13 13
REMARK SMILES IDX 14 14 15 15 17 16 18 17 16 19
REMARK H PARENT 18 18 16 20
ROOT
ATOM      1  O   UNL     1     -31.312  22.738 -24.493  1.00  0.00    -0.289 OA
ATOM      2  C   UNL     1     -32.449  22.761 -23.942  1.00  0.00     0.194 C 
ATOM      3  C   UNL     1     -32.716  21.855 -22.814  1.00  0.00     0.034 A 
ATOM      4  C   UNL     1     -31.705  20.993 -22.378  1.00  0.00     0.013 A 
ATOM      5  C   UNL     1     -31.979  20.158 -21.325  1.00  0.00     0.001 A 
ATOM      6  C   UNL     1     -33.204  20.170 -20.717  1.00  0.00     0.001 A 
ATOM      7  C   UNL     1     -34.189  21.012 -21.143  1.00  0.00     0.013 A 
ATOM      8  C   UNL     1     -33.955  21.874 -22.209  1.00  0.00     0.034 A 
ATOM      9  C   UNL     1     -35.004  22.771 -22.661  1.00  0.00     0.198 C 
ATOM     10  O   UNL     1     -36.119  22.757 -22.080  1.00  0.00    -0.288 OA
ATOM     11  C   UNL     1     -34.741  23.663 -23.772  1.00  0.00     0.079 A 
ATOM     12  C   UNL     1     -33.502  23.659 -24.396  1.00  0.00     0.038 A 
ATOM     13  C   UNL     1     -33.241  24.506 -25.455  1.00  0.00     0.017 A 
ATOM     14  C   UNL     1     -34.246  25.344 -25.868  1.00  0.00     0.051 A 
ATOM     15  C   UNL     1     -35.480  25.351 -25.251  1.00  0.00     0.158 A 
ATOM     16  C   UNL     1     -35.748  24.524 -24.207  1.00  0.00     0.169 A 
ENDROOT
BRANCH  16  17
ATOM     17  O   UNL     1     -36.959  24.474 -23.540  1.00  0.00    -0.504 OA
ATOM     18  H   UNL     1     -37.045  24.807 -22.592  1.00  0.00     0.293 HD
ENDBRANCH  16  17
BRANCH  15  19
ATOM     19  O   UNL     1     -36.498  26.211 -25.679  1.00  0.00    -0.504 OA
ATOM     20  H   UNL     1     -36.665  27.098 -25.200  1.00  0.00     0.293 HD
ENDBRANCH  15  19
TORSDOF 2
ENDMDL
MODEL 4
REMARK VINA RESULT:      -6.5      2.638      4.432
REMARK SMILES O=C1c2ccccc2C(=O)c2c1ccc(O)c2O
REMARK SMILES IDX 1 1 2 2 3 3 4 4 5 5 6 6 7 7 8 8 9 9 10 10 11 11 12 12 13 13
REMARK SMILES IDX 14 14 15 15 17 16 18 17 16 19
REMARK H PARENT 18 18 16 20
ROOT
ATOM      1  O   UNL     1     -34.261  27.600 -23.001  1.00  0.00    -0.289 OA
ATOM      2  C   UNL     1     -34.537  26.377 -22.844  1.00  0.00     0.194 C 
ATOM      3  C   UNL     1     -35.764  26.007 -22.121  1.00  0.00     0.034 A 
ATOM      4  C   UNL     1     -36.595  27.019 -21.628  1.00  0.00     0.013 A 
ATOM      5  C   UNL     1     -37.733  26.648 -20.957  1.00  0.00     0.001 A 
ATOM      6  C   UNL     1     -38.047  25.329 -20.778  1.00  0.00     0.001 A 
ATOM      7  C   UNL     1     -37.236  24.344 -21.260  1.00  0.00     0.013 A 
ATOM      8  C   UNL     1     -36.071  24.675 -21.945  1.00  0.00     0.034 A 
ATOM      9  C   UNL     1     -35.209  23.625 -22.459  1.00  0.00     0.198 C 
ATOM     10  O   UNL     1     -35.526  22.422 -22.276  1.00  0.00    -0.288 OA
ATOM     11  C   UNL     1     -34.000  23.989 -23.170  1.00  0.00     0.079 A 
ATOM     12  C   UNL     1     -33.672  25.324 -23.358  1.00  0.00     0.038 A 
ATOM     13  C   UNL     1     -32.522  25.681 -24.035  1.00  0.00     0.017 A 
ATOM     14  C   UNL     1     -31.721  24.675 -24.512  1.00  0.00     0.051 A 
ATOM     15  C   UNL     1     -32.042  23.345 -24.327  1.00  0.00     0.158 A 
ATOM     16  C   UNL     1     -33.171  22.982 -23.663  1.00  0.00     0.169 A 
ENDROOT
BRANCH  16  17
ATOM     17  O   UNL     1     -33.559  21.673 -23.440  1.00  0.00    -0.504 OA
ATOM     18  H   UNL     1     -33.633  21.304 -22.505  1.00  0.00     0.293 HD
ENDBRANCH  16  17
BRANCH  15  19
ATOM     19  O   UNL     1     -31.219  22.327 -24.817  1.00  0.00    -0.504 OA
ATOM     20  H   UNL     1     -31.569  21.370 -24.903  1.00  0.00     0.293 HD
ENDBRANCH  15  19
TORSDOF 2
ENDMDL
MODEL 5
REMARK VINA RESULT:      -6.5      1.004      1.546
REMARK SMILES O=C1c2ccccc2C(=O)c2c1ccc(O)c2O
REMARK SMILES IDX 1 1 2 2 3 3 4 4 5 5 6 6 7 7 8 8 9 9 10 10 11 11 12 12 13 13
REMARK SMILES IDX 14 14 15 15 17 16 18 17 16 19
REMARK H PARENT 18 18 16 20
ROOT
ATOM      1  O   UNL     1     -36.565  23.239 -21.820  1.00  0.00    -0.289 OA
ATOM      2  C   UNL     1     -35.628  23.418 -22.648  1.00  0.00     0.194 C 
ATOM      3  C   UNL     1     -35.777  24.453 -23.685  1.00  0.00     0.034 A 
ATOM      4  C   UNL     1     -36.951  25.212 -23.725  1.00  0.00     0.013 A 
ATOM      5  C   UNL     1     -37.066  26.169 -24.700  1.00  0.00     0.001 A 
ATOM      6  C   UNL     1     -36.062  26.377 -25.605  1.00  0.00     0.001 A 
ATOM      7  C   UNL     1     -34.918  25.635 -25.564  1.00  0.00     0.013 A 
ATOM      8  C   UNL     1     -34.760  24.653 -24.593  1.00  0.00     0.034 A 
ATOM      9  C   UNL     1     -33.541  23.865 -24.549  1.00  0.00     0.198 C 
ATOM     10  O   UNL     1     -32.637  24.081 -25.397  1.00  0.00    -0.288 OA
ATOM     11  C   UNL     1     -33.393  22.846 -23.530  1.00  0.00     0.079 A 
ATOM     12  C   UNL     1     -34.406  22.627 -22.606  1.00  0.00     0.038 A 
ATOM     13  C   UNL     1     -34.275  21.659 -21.630  1.00  0.00     0.017 A 
ATOM     14  C   UNL     1     -33.117  20.925 -21.607  1.00  0.00     0.051 A 
ATOM     15  C   UNL     1     -32.107  21.138 -22.523  1.00  0.00     0.158 A 
ATOM     16  C   UNL     1     -32.223  22.088 -23.487  1.00  0.00     0.169 A 
ENDROOT
BRANCH  16  17
ATOM     17  O   UNL     1     -31.257  22.360 -24.438  1.00  0.00    -0.504 OA
ATOM     18  H   UNL     1     -31.165  23.280 -24.840  1.00  0.00     0.293 HD
ENDBRANCH  16  17
BRANCH  15  19
ATOM     19  O   UNL     1     -30.929  20.385 -22.491  1.00  0.00    -0.504 OA
ATOM     20  H   UNL     1     -30.192  20.600 -21.816  1.00  0.00     0.293 HD
ENDBRANCH  15  19
TORSDOF 2
ENDMDL
MODEL 6
REMARK VINA RESULT:      -6.3      1.064      2.941
REMARK SMILES O=C1c2ccccc2C(=O)c2c1ccc(O)c2O
REMARK SMILES IDX 1 1 2 2 3 3 4 4 5 5 6 6 7 7 8 8 9 9 10 10 11 11 12 12 13 13
REMARK SMILES IDX 14 14 15 15 17 16 18 17 16 19
REMARK H PARENT 18 18 16 20
ROOT
ATOM      1  O   UNL     1     -31.170  23.218 -24.773  1.00  0.00    -0.289 OA
ATOM      2  C   UNL     1     -32.284  23.137 -24.183  1.00  0.00     0.194 C 
ATOM      3  C   UNL     1     -33.366  24.058 -24.565  1.00  0.00     0.034 A 
ATOM      4  C   UNL     1     -33.134  25.000 -25.573  1.00  0.00     0.013 A 
ATOM      5  C   UNL     1     -34.158  25.848 -25.910  1.00  0.00     0.001 A 
ATOM      6  C   UNL     1     -35.371  25.773 -25.282  1.00  0.00     0.001 A 
ATOM      7  C   UNL     1     -35.595  24.854 -24.300  1.00  0.00     0.013 A 
ATOM      8  C   UNL     1     -34.584  23.976 -23.925  1.00  0.00     0.034 A 
ATOM      9  C   UNL     1     -34.825  22.996 -22.880  1.00  0.00     0.198 C 
ATOM     10  O   UNL     1     -35.951  22.954 -22.322  1.00  0.00    -0.288 OA
ATOM     11  C   UNL     1     -33.760  22.089 -22.503  1.00  0.00     0.079 A 
ATOM     12  C   UNL     1     -32.526  22.155 -23.134  1.00  0.00     0.038 A 
ATOM     13  C   UNL     1     -31.505  21.295 -22.783  1.00  0.00     0.017 A 
ATOM     14  C   UNL     1     -31.751  20.378 -21.793  1.00  0.00     0.051 A 
ATOM     15  C   UNL     1     -32.977  20.308 -21.161  1.00  0.00     0.158 A 
ATOM     16  C   UNL     1     -33.989  21.148 -21.499  1.00  0.00     0.169 A 
ENDROOT
BRANCH  16  17
ATOM     17  O   UNL     1     -35.242  21.138 -20.913  1.00  0.00    -0.504 OA
ATOM     18  H   UNL     1     -35.657  20.280 -20.585  1.00  0.00     0.293 HD
ENDBRANCH  16  17
BRANCH  15  19
ATOM     19  O   UNL     1     -33.219  19.369 -20.153  1.00  0.00    -0.504 OA
ATOM     20  H   UNL     1     -32.474  18.749 -19.830  1.00  0.00     0.293 HD
ENDBRANCH  15  19
TORSDOF 2
ENDMDL
MODEL 7
REMARK VINA RESULT:      -6.2      1.636      3.574
REMARK SMILES O=C1c2ccccc2C(=O)c2c1ccc(O)c2O
REMARK SMILES IDX 1 1 2 2 3 3 4 4 5 5 6 6 7 7 8 8 9 9 10 10 11 11 12 12 13 13
REMARK SMILES IDX 14 14 15 15 17 16 18 17 16 19
REMARK H PARENT 18 18 16 20
ROOT
ATOM      1  O   UNL     1     -30.573  23.493 -24.443  1.00  0.00    -0.289 OA
ATOM      2  C   UNL     1     -31.786  23.771 -24.227  1.00  0.00     0.194 C 
ATOM      3  C   UNL     1     -32.380  24.945 -24.886  1.00  0.00     0.034 A 
ATOM      4  C   UNL     1     -31.587  25.723 -25.736  1.00  0.00     0.013 A 
ATOM      5  C   UNL     1     -32.164  26.812 -26.338  1.00  0.00     0.001 A 
ATOM      6  C   UNL     1     -33.476  27.127 -26.115  1.00  0.00     0.001 A 
ATOM      7  C   UNL     1     -34.248  26.367 -25.286  1.00  0.00     0.013 A 
ATOM      8  C   UNL     1     -33.703  25.255 -24.654  1.00  0.00     0.034 A 
ATOM      9  C   UNL     1     -34.526  24.446 -23.772  1.00  0.00     0.198 C 
ATOM     10  O   UNL     1     -35.729  24.763 -23.588  1.00  0.00    -0.288 OA
ATOM     11  C   UNL     1     -33.941  23.290 -23.123  1.00  0.00     0.079 A 
ATOM     12  C   UNL     1     -32.611  22.961 -23.342  1.00  0.00     0.038 A 
ATOM     13  C   UNL     1     -32.045  21.861 -22.728  1.00  0.00     0.017 A 
ATOM     14  C   UNL     1     -32.838  21.110 -21.898  1.00  0.00     0.051 A 
ATOM     15  C   UNL     1     -34.162  21.434 -21.676  1.00  0.00     0.158 A 
ATOM     16  C   UNL     1     -34.730  22.513 -22.275  1.00  0.00     0.169 A 
ENDROOT
BRANCH  16  17
ATOM     17  O   UNL     1     -36.047  22.899 -22.103  1.00  0.00    -0.504 OA
ATOM     18  H   UNL     1     -36.313  23.871 -22.130  1.00  0.00     0.293 HD
ENDBRANCH  16  17
BRANCH  15  19
ATOM     19  O   UNL     1     -34.963  20.662 -20.829  1.00  0.00    -0.504 OA
ATOM     20  H   UNL     1     -35.973  20.609 -20.974  1.00  0.00     0.293 HD
ENDBRANCH  15  19
TORSDOF 2
ENDMDL
MODEL 8
REMARK VINA RESULT:      -6.2      2.276      3.632
REMARK SMILES O=C1c2ccccc2C(=O)c2c1ccc(O)c2O
REMARK SMILES IDX 1 1 2 2 3 3 4 4 5 5 6 6 7 7 8 8 9 9 10 10 11 11 12 12 13 13
REMARK SMILES IDX 14 14 15 15 17 16 18 17 16 19
REMARK H PARENT 18 18 16 20
ROOT
ATOM      1  O   UNL     1     -35.654  22.291 -21.932  1.00  0.00    -0.289 OA
ATOM      2  C   UNL     1     -35.186  23.319 -22.496  1.00  0.00     0.194 C 
ATOM      3  C   UNL     1     -36.027  24.522 -22.604  1.00  0.00     0.034 A 
ATOM      4  C   UNL     1     -37.323  24.496 -22.079  1.00  0.00     0.013 A 
ATOM      5  C   UNL     1     -38.087  25.630 -22.193  1.00  0.00     0.001 A 
ATOM      6  C   UNL     1     -37.595  26.752 -22.801  1.00  0.00     0.001 A 
ATOM      7  C   UNL     1     -36.331  26.775 -23.313  1.00  0.00     0.013 A 
ATOM      8  C   UNL     1     -35.523  25.648 -23.220  1.00  0.00     0.034 A 
ATOM      9  C   UNL     1     -34.176  25.674 -23.764  1.00  0.00     0.198 C 
ATOM     10  O   UNL     1     -33.755  26.722 -24.317  1.00  0.00    -0.288 OA
ATOM     11  C   UNL     1     -33.348  24.490 -23.658  1.00  0.00     0.079 A 
ATOM     12  C   UNL     1     -33.836  23.346 -23.043  1.00  0.00     0.038 A 
ATOM     13  C   UNL     1     -33.054  22.212 -22.936  1.00  0.00     0.017 A 
ATOM     14  C   UNL     1     -31.786  22.257 -23.457  1.00  0.00     0.051 A 
ATOM     15  C   UNL     1     -31.296  23.392 -24.070  1.00  0.00     0.158 A 
ATOM     16  C   UNL     1     -32.055  24.513 -24.180  1.00  0.00     0.169 A 
ENDROOT
BRANCH  16  17
ATOM     17  O   UNL     1     -31.634  25.687 -24.779  1.00  0.00    -0.504 OA
ATOM     18  H   UNL     1     -30.693  25.787 -25.127  1.00  0.00     0.293 HD
ENDBRANCH  16  17
BRANCH  15  19
ATOM     19  O   UNL     1     -30.001  23.428 -24.598  1.00  0.00    -0.504 OA
ATOM     20  H   UNL     1     -29.194  23.203 -24.012  1.00  0.00     0.293 HD
ENDBRANCH  15  19
TORSDOF 2
ENDMDL
MODEL 9
REMARK VINA RESULT:      -6.1      1.474      1.851
REMARK SMILES O=C1c2ccccc2C(=O)c2c1ccc(O)c2O
REMARK SMILES IDX 1 1 2 2 3 3 4 4 5 5 6 6 7 7 8 8 9 9 10 10 11 11 12 12 13 13
REMARK SMILES IDX 14 14 15 15 17 16 18 17 16 19
REMARK H PARENT 18 18 16 20
ROOT
ATOM      1  O   UNL     1     -35.772  24.780 -23.316  1.00  0.00    -0.289 OA
ATOM      2  C   UNL     1     -34.598  24.352 -23.496  1.00  0.00     0.194 C 
ATOM      3  C   UNL     1     -33.686  25.106 -24.372  1.00  0.00     0.034 A 
ATOM      4  C   UNL     1     -34.144  26.279 -24.982  1.00  0.00     0.013 A 
ATOM      5  C   UNL     1     -33.276  26.963 -25.794  1.00  0.00     0.001 A 
ATOM      6  C   UNL     1     -32.001  26.513 -26.000  1.00  0.00     0.001 A 
ATOM      7  C   UNL     1     -31.556  25.370 -25.403  1.00  0.00     0.013 A 
ATOM      8  C   UNL     1     -32.403  24.644 -24.573  1.00  0.00     0.034 A 
ATOM      9  C   UNL     1     -31.929  23.428 -23.938  1.00  0.00     0.198 C 
ATOM     10  O   UNL     1     -30.751  23.042 -24.148  1.00  0.00    -0.288 OA
ATOM     11  C   UNL     1     -32.825  22.684 -23.075  1.00  0.00     0.079 A 
ATOM     12  C   UNL     1     -34.121  23.132 -22.860  1.00  0.00     0.038 A 
ATOM     13  C   UNL     1     -34.983  22.431 -22.039  1.00  0.00     0.017 A 
ATOM     14  C   UNL     1     -34.517  21.284 -21.449  1.00  0.00     0.051 A 
ATOM     15  C   UNL     1     -33.229  20.835 -21.661  1.00  0.00     0.158 A 
ATOM     16  C   UNL     1     -32.371  21.516 -22.465  1.00  0.00     0.169 A 
ENDROOT
BRANCH  16  17
ATOM     17  O   UNL     1     -31.069  21.129 -22.724  1.00  0.00    -0.504 OA
ATOM     18  H   UNL     1     -30.660  21.254 -23.637  1.00  0.00     0.293 HD
ENDBRANCH  16  17
BRANCH  15  19
ATOM     19  O   UNL     1     -32.762  19.664 -21.054  1.00  0.00    -0.504 OA
ATOM     20  H   UNL     1     -31.942  19.179 -21.423  1.00  0.00     0.293 HD
ENDBRANCH  15  19
TORSDOF 2
ENDMDL
