MODEL 1
REMARK VINA RESULT:      -7.5      0.000      0.000
REMARK SMILES O=c1cc(-c2ccccc2)oc2cc(O)cc(O)c12
REMARK SMILES IDX 1 1 2 2 3 3 4 4 11 5 12 6 13 7 14 8 16 9 17 10 19 11 5 12
REMARK SMILES IDX 6 13 10 14 7 15 9 16 8 17 18 18 15 20
REMARK H PARENT 18 19 15 21
ROOT
ATOM      1  O   UNL     1     -35.912  22.715 -22.049  1.00  0.00    -0.289 OA
ATOM      2  C   UNL     1     -34.796  22.778 -22.623  1.00  0.00     0.197 A 
ATOM      3  C   UNL     1     -34.515  23.715 -23.628  1.00  0.00     0.100 A 
ATOM      4  C   UNL     1     -33.286  23.766 -24.242  1.00  0.00     0.138 A 
ATOM      5  O   UNL     1     -32.392  22.894 -23.841  1.00  0.00    -0.456 OA
ATOM      6  C   UNL     1     -32.594  21.996 -22.908  1.00  0.00     0.146 A 
ATOM      7  C   UNL     1     -31.603  21.099 -22.527  1.00  0.00     0.094 A 
ATOM      8  C   UNL     1     -31.782  20.147 -21.554  1.00  0.00     0.123 A 
ATOM      9  C   UNL     1     -32.998  20.062 -20.914  1.00  0.00     0.093 A 
ATOM     10  C   UNL     1     -34.006  20.933 -21.263  1.00  0.00     0.134 A 
ATOM     11  C   UNL     1     -33.805  21.898 -22.258  1.00  0.00     0.107 A 
ENDROOT
BRANCH   4  12
ATOM     12  C   UNL     1     -32.984  24.741 -25.293  1.00  0.00     0.017 A 
ATOM     13  C   UNL     1     -31.861  25.526 -25.310  1.00  0.00     0.012 A 
ATOM     14  C   UNL     1     -33.871  24.894 -26.344  1.00  0.00     0.012 A 
ATOM     15  C   UNL     1     -31.615  26.443 -26.335  1.00  0.00     0.001 A 
ATOM     16  C   UNL     1     -33.654  25.795 -27.375  1.00  0.00     0.001 A 
ATOM     17  C   UNL     1     -32.510  26.583 -27.374  1.00  0.00     0.000 A 
ENDBRANCH   4  12
BRANCH  10  18
ATOM     18  O   UNL     1     -35.220  20.848 -20.624  1.00  0.00    -0.507 OA
ATOM     19  H   UNL     1     -35.817  21.652 -20.556  1.00  0.00     0.293 HD
ENDBRANCH  10  18
BRANCH   8  20
ATOM     20  O   UNL     1     -30.756  19.265 -21.204  1.00  0.00    -0.508 OA
ATOM     21  H   UNL     1     -30.462  18.502 -21.796  1.00  0.00     0.293 HD
ENDBRANCH   8  20
TORSDOF 3
ENDMDL
MODEL 2
REMARK VINA RESULT:      -7.5      1.458      2.332
REMARK SMILES O=c1cc(-c2ccccc2)oc2cc(O)cc(O)c12
REMARK SMILES IDX 1 1 2 2 3 3 4 4 11 5 12 6 13 7 14 8 16 9 17 10 19 11 5 12
REMARK SMILES IDX 6 13 10 14 7 15 9 16 8 17 18 18 15 20
REMARK H PARENT 18 19 15 21
ROOT
ATOM      1  O   UNL     1     -35.692  24.685 -23.855  1.00  0.00    -0.289 OA
ATOM      2  C   UNL     1     -34.475  24.659 -24.167  1.00  0.00     0.197 A 
ATOM      3  C   UNL     1     -33.881  25.642 -24.971  1.00  0.00     0.100 A 
ATOM      4  C   UNL     1     -32.547  25.594 -25.300  1.00  0.00     0.138 A 
ATOM      5  O   UNL     1     -31.860  24.583 -24.824  1.00  0.00    -0.456 OA
ATOM      6  C   UNL     1     -32.358  23.635 -24.068  1.00  0.00     0.146 A 
ATOM      7  C   UNL     1     -31.576  22.589 -23.594  1.00  0.00     0.094 A 
ATOM      8  C   UNL     1     -32.066  21.580 -22.801  1.00  0.00     0.123 A 
ATOM      9  C   UNL     1     -33.397  21.591 -22.449  1.00  0.00     0.093 A 
ATOM     10  C   UNL     1     -34.206  22.611 -22.899  1.00  0.00     0.134 A 
ATOM     11  C   UNL     1     -33.688  23.630 -23.707  1.00  0.00     0.107 A 
ENDROOT
BRANCH   4  12
ATOM     12  C   UNL     1     -31.917  26.616 -26.140  1.00  0.00     0.017 A 
ATOM     13  C   UNL     1     -31.033  27.554 -25.674  1.00  0.00     0.012 A 
ATOM     14  C   UNL     1     -32.218  26.656 -27.490  1.00  0.00     0.012 A 
ATOM     15  C   UNL     1     -30.457  28.510 -26.513  1.00  0.00     0.001 A 
ATOM     16  C   UNL     1     -31.662  27.593 -28.348  1.00  0.00     0.001 A 
ATOM     17  C   UNL     1     -30.768  28.535 -27.856  1.00  0.00     0.000 A 
ENDBRANCH   4  12
BRANCH  10  18
ATOM     18  O   UNL     1     -35.534  22.621 -22.546  1.00  0.00    -0.507 OA
ATOM     19  H   UNL     1     -35.815  22.381 -21.612  1.00  0.00     0.293 HD
ENDBRANCH  10  18
BRANCH   8  20
ATOM     20  O   UNL     1     -31.241  20.547 -22.348  1.00  0.00    -0.508 OA
ATOM     21  H   UNL     1     -31.569  19.807 -21.744  1.00  0.00     0.293 HD
ENDBRANCH   8  20
TORSDOF 3
ENDMDL
MODEL 3
REMARK VINA RESULT:      -7.5      1.343      2.389
REMARK SMILES O=c1cc(-c2ccccc2)oc2cc(O)cc(O)c12
REMARK SMILES IDX 1 1 2 2 3 3 4 4 11 5 12 6 13 7 14 8 16 9 17 10 19 11 5 12
REMARK SMILES IDX 6 13 10 14 7 15 9 16 8 17 18 18 15 20
REMARK H PARENT 18 19 15 21
ROOT
ATOM      1  O   UNL     1     -35.763  24.586 -23.629  1.00  0.00    -0.289 OA
ATOM      2  C   UNL     1     -34.572  24.548 -24.030  1.00  0.00     0.197 A 
ATOM      3  C   UNL     1     -34.041  25.505 -24.907  1.00  0.00     0.100 A 
ATOM      4  C   UNL     1     -32.735  25.444 -25.333  1.00  0.00     0.138 A 
ATOM      5  O   UNL     1     -32.014  24.448 -24.878  1.00  0.00    -0.456 OA
ATOM      6  C   UNL     1     -32.453  23.525 -24.058  1.00  0.00     0.146 A 
ATOM      7  C   UNL     1     -31.637  22.493 -23.611  1.00  0.00     0.094 A 
ATOM      8  C   UNL     1     -32.065  21.510 -22.751  1.00  0.00     0.123 A 
ATOM      9  C   UNL     1     -33.366  21.534 -22.301  1.00  0.00     0.093 A 
ATOM     10  C   UNL     1     -34.207  22.541 -22.721  1.00  0.00     0.134 A 
ATOM     11  C   UNL     1     -33.752  23.534 -23.597  1.00  0.00     0.107 A 
ENDROOT
BRANCH   4  12
ATOM     12  C   UNL     1     -32.171  26.439 -26.249  1.00  0.00     0.017 A 
ATOM     13  C   UNL     1     -32.599  26.625 -27.537  1.00  0.00     0.012 A 
ATOM     14  C   UNL     1     -31.141  27.251 -25.809  1.00  0.00     0.012 A 
ATOM     15  C   UNL     1     -32.030  27.587 -28.375  1.00  0.00     0.001 A 
ATOM     16  C   UNL     1     -30.557  28.215 -26.617  1.00  0.00     0.001 A 
ATOM     17  C   UNL     1     -31.005  28.388 -27.919  1.00  0.00     0.000 A 
ENDBRANCH   4  12
BRANCH  10  18
ATOM     18  O   UNL     1     -35.505  22.564 -22.271  1.00  0.00    -0.507 OA
ATOM     19  H   UNL     1     -35.951  21.720 -21.959  1.00  0.00     0.293 HD
ENDBRANCH  10  18
BRANCH   8  20
ATOM     20  O   UNL     1     -31.208  20.491 -22.329  1.00  0.00    -0.508 OA
ATOM     21  H   UNL     1     -30.955  19.708 -22.914  1.00  0.00     0.293 HD
ENDBRANCH   8  20
TORSDOF 3
ENDMDL
MODEL 4
REMARK VINA RESULT:      -7.5      0.067      1.085
REMARK SMILES O=c1cc(-c2ccccc2)oc2cc(O)cc(O)c12
REMARK SMILES IDX 1 1 2 2 3 3 4 4 11 5 12 6 13 7 14 8 16 9 17 10 19 11 5 12
REMARK SMILES IDX 6 13 10 14 7 15 9 16 8 17 18 18 15 20
REMARK H PARENT 18 19 15 21
ROOT
ATOM      1  O   UNL     1     -35.917  22.730 -21.991  1.00  0.00    -0.289 OA
ATOM      2  C   UNL     1     -34.816  22.785 -22.595  1.00  0.00     0.197 A 
ATOM      3  C   UNL     1     -34.561  23.713 -23.616  1.00  0.00     0.100 A 
ATOM      4  C   UNL     1     -33.349  23.755 -24.263  1.00  0.00     0.138 A 
ATOM      5  O   UNL     1     -32.446  22.885 -23.879  1.00  0.00    -0.456 OA
ATOM      6  C   UNL     1     -32.625  21.996 -22.934  1.00  0.00     0.146 A 
ATOM      7  C   UNL     1     -31.626  21.099 -22.572  1.00  0.00     0.094 A 
ATOM      8  C   UNL     1     -31.780  20.156 -21.586  1.00  0.00     0.123 A 
ATOM      9  C   UNL     1     -32.978  20.080 -20.913  1.00  0.00     0.093 A 
ATOM     10  C   UNL     1     -33.994  20.950 -21.242  1.00  0.00     0.134 A 
ATOM     11  C   UNL     1     -33.818  21.906 -22.250  1.00  0.00     0.107 A 
ENDROOT
BRANCH   4  12
ATOM     12  C   UNL     1     -33.073  24.720 -25.331  1.00  0.00     0.017 A 
ATOM     13  C   UNL     1     -33.886  24.917 -26.416  1.00  0.00     0.012 A 
ATOM     14  C   UNL     1     -31.927  25.492 -25.260  1.00  0.00     0.012 A 
ATOM     15  C   UNL     1     -33.582  25.850 -27.410  1.00  0.00     0.001 A 
ATOM     16  C   UNL     1     -31.598  26.426 -26.230  1.00  0.00     0.001 A 
ATOM     17  C   UNL     1     -32.435  26.611 -27.323  1.00  0.00     0.000 A 
ENDBRANCH   4  12
BRANCH  10  18
ATOM     18  O   UNL     1     -35.190  20.874 -20.568  1.00  0.00    -0.507 OA
ATOM     19  H   UNL     1     -35.316  21.359 -19.699  1.00  0.00     0.293 HD
ENDBRANCH  10  18
BRANCH   8  20
ATOM     20  O   UNL     1     -30.747  19.275 -21.256  1.00  0.00    -0.508 OA
ATOM     21  H   UNL     1     -29.816  19.584 -21.018  1.00  0.00     0.293 HD
ENDBRANCH   8  20
TORSDOF 3
ENDMDL
MODEL 5
REMARK VINA RESULT:      -7.2      1.902      3.837
REMARK SMILES O=c1cc(-c2ccccc2)oc2cc(O)cc(O)c12
REMARK SMILES IDX 1 1 2 2 3 3 4 4 11 5 12 6 13 7 14 8 16 9 17 10 19 11 5 12
REMARK SMILES IDX 6 13 10 14 7 15 9 16 8 17 18 18 15 20
REMARK H PARENT 18 19 15 21
ROOT
ATOM      1  O   UNL     1     -31.117  22.501 -23.692  1.00  0.00    -0.289 OA
ATOM      2  C   UNL     1     -31.874  23.420 -24.093  1.00  0.00     0.197 A 
ATOM      3  C   UNL     1     -31.420  24.474 -24.899  1.00  0.00     0.100 A 
ATOM      4  C   UNL     1     -32.266  25.470 -25.326  1.00  0.00     0.138 A 
ATOM      5  O   UNL     1     -33.517  25.384 -24.941  1.00  0.00    -0.456 OA
ATOM      6  C   UNL     1     -34.000  24.426 -24.189  1.00  0.00     0.146 A 
ATOM      7  C   UNL     1     -35.338  24.391 -23.815  1.00  0.00     0.094 A 
ATOM      8  C   UNL     1     -35.877  23.402 -23.029  1.00  0.00     0.123 A 
ATOM      9  C   UNL     1     -35.063  22.386 -22.580  1.00  0.00     0.093 A 
ATOM     10  C   UNL     1     -33.731  22.384 -22.929  1.00  0.00     0.134 A 
ATOM     11  C   UNL     1     -33.200  23.401 -23.731  1.00  0.00     0.107 A 
ENDROOT
BRANCH   4  12
ATOM     12  C   UNL     1     -31.801  26.575 -26.168  1.00  0.00     0.017 A 
ATOM     13  C   UNL     1     -32.066  26.682 -27.508  1.00  0.00     0.012 A 
ATOM     14  C   UNL     1     -31.047  27.585 -25.597  1.00  0.00     0.012 A 
ATOM     15  C   UNL     1     -31.602  27.756 -28.271  1.00  0.00     0.001 A 
ATOM     16  C   UNL     1     -30.572  28.663 -26.328  1.00  0.00     0.001 A 
ATOM     17  C   UNL     1     -30.852  28.753 -27.685  1.00  0.00     0.000 A 
ENDBRANCH   4  12
BRANCH  10  18
ATOM     18  O   UNL     1     -32.920  21.369 -22.480  1.00  0.00    -0.507 OA
ATOM     19  H   UNL     1     -32.002  21.569 -22.127  1.00  0.00     0.293 HD
ENDBRANCH  10  18
BRANCH   8  20
ATOM     20  O   UNL     1     -37.229  23.409 -22.677  1.00  0.00    -0.508 OA
ATOM     21  H   UNL     1     -37.811  22.584 -22.715  1.00  0.00     0.293 HD
ENDBRANCH   8  20
TORSDOF 3
ENDMDL
MODEL 6
REMARK VINA RESULT:      -6.9      2.097      6.243
REMARK SMILES O=c1cc(-c2ccccc2)oc2cc(O)cc(O)c12
REMARK SMILES IDX 1 1 2 2 3 3 4 4 11 5 12 6 13 7 14 8 16 9 17 10 19 11 5 12
REMARK SMILES IDX 6 13 10 14 7 15 9 16 8 17 18 18 15 20
REMARK H PARENT 18 19 15 21
ROOT
ATOM      1  O   UNL     1     -35.760  23.531 -26.219  1.00  0.00    -0.289 OA
ATOM      2  C   UNL     1     -34.747  23.534 -25.475  1.00  0.00     0.197 A 
ATOM      3  C   UNL     1     -34.598  22.647 -24.399  1.00  0.00     0.100 A 
ATOM      4  C   UNL     1     -33.481  22.668 -23.598  1.00  0.00     0.138 A 
ATOM      5  O   UNL     1     -32.564  23.560 -23.891  1.00  0.00    -0.456 OA
ATOM      6  C   UNL     1     -32.647  24.414 -24.881  1.00  0.00     0.146 A 
ATOM      7  C   UNL     1     -31.639  25.336 -25.140  1.00  0.00     0.094 A 
ATOM      8  C   UNL     1     -31.693  26.244 -26.169  1.00  0.00     0.123 A 
ATOM      9  C   UNL     1     -32.795  26.256 -26.995  1.00  0.00     0.093 A 
ATOM     10  C   UNL     1     -33.816  25.358 -26.771  1.00  0.00     0.134 A 
ATOM     11  C   UNL     1     -33.742  24.440 -25.717  1.00  0.00     0.107 A 
ENDROOT
BRANCH   4  12
ATOM     12  C   UNL     1     -33.315  21.746 -22.472  1.00  0.00     0.017 A 
ATOM     13  C   UNL     1     -32.156  21.068 -22.199  1.00  0.00     0.012 A 
ATOM     14  C   UNL     1     -34.382  21.531 -21.617  1.00  0.00     0.012 A 
ATOM     15  C   UNL     1     -32.045  20.198 -21.112  1.00  0.00     0.001 A 
ATOM     16  C   UNL     1     -34.302  20.673 -20.530  1.00  0.00     0.001 A 
ATOM     17  C   UNL     1     -33.118  19.996 -20.270  1.00  0.00     0.000 A 
ENDBRANCH   4  12
BRANCH  10  18
ATOM     18  O   UNL     1     -34.915  25.371 -27.597  1.00  0.00    -0.507 OA
ATOM     19  H   UNL     1     -35.589  24.627 -27.558  1.00  0.00     0.293 HD
ENDBRANCH  10  18
BRANCH   8  20
ATOM     20  O   UNL     1     -30.656  27.153 -26.391  1.00  0.00    -0.508 OA
ATOM     21  H   UNL     1     -29.707  26.988 -26.088  1.00  0.00     0.293 HD
ENDBRANCH   8  20
TORSDOF 3
ENDMDL
MODEL 7
REMARK VINA RESULT:      -6.9      1.786      3.053
REMARK SMILES O=c1cc(-c2ccccc2)oc2cc(O)cc(O)c12
REMARK SMILES IDX 1 1 2 2 3 3 4 4 11 5 12 6 13 7 14 8 16 9 17 10 19 11 5 12
REMARK SMILES IDX 6 13 10 14 7 15 9 16 8 17 18 18 15 20
REMARK H PARENT 18 19 15 21
ROOT
ATOM      1  O   UNL     1     -36.045  24.260 -25.703  1.00  0.00    -0.289 OA
ATOM      2  C   UNL     1     -34.821  24.436 -25.480  1.00  0.00     0.197 A 
ATOM      3  C   UNL     1     -34.067  25.420 -26.137  1.00  0.00     0.100 A 
ATOM      4  C   UNL     1     -32.729  25.594 -25.877  1.00  0.00     0.138 A 
ATOM      5  O   UNL     1     -32.193  24.794 -24.986  1.00  0.00    -0.456 OA
ATOM      6  C   UNL     1     -32.844  23.857 -24.341  1.00  0.00     0.146 A 
ATOM      7  C   UNL     1     -32.218  23.040 -23.407  1.00  0.00     0.094 A 
ATOM      8  C   UNL     1     -32.870  22.050 -22.713  1.00  0.00     0.123 A 
ATOM      9  C   UNL     1     -34.212  21.843 -22.944  1.00  0.00     0.093 A 
ATOM     10  C   UNL     1     -34.869  22.632 -23.863  1.00  0.00     0.134 A 
ATOM     11  C   UNL     1     -34.186  23.636 -24.559  1.00  0.00     0.107 A 
ENDROOT
BRANCH   4  12
ATOM     12  C   UNL     1     -31.933  26.620 -26.557  1.00  0.00     0.017 A 
ATOM     13  C   UNL     1     -31.895  26.784 -27.917  1.00  0.00     0.012 A 
ATOM     14  C   UNL     1     -31.165  27.487 -25.800  1.00  0.00     0.012 A 
ATOM     15  C   UNL     1     -31.121  27.777 -28.521  1.00  0.00     0.001 A 
ATOM     16  C   UNL     1     -30.387  28.482 -26.372  1.00  0.00     0.001 A 
ATOM     17  C   UNL     1     -30.362  28.633 -27.752  1.00  0.00     0.000 A 
ENDBRANCH   4  12
BRANCH  10  18
ATOM     18  O   UNL     1     -36.208  22.424 -24.091  1.00  0.00    -0.507 OA
ATOM     19  H   UNL     1     -36.540  21.522 -24.382  1.00  0.00     0.293 HD
ENDBRANCH  10  18
BRANCH   8  20
ATOM     20  O   UNL     1     -32.199  21.252 -21.783  1.00  0.00    -0.508 OA
ATOM     21  H   UNL     1     -32.666  20.798 -21.011  1.00  0.00     0.293 HD
ENDBRANCH   8  20
TORSDOF 3
ENDMDL
MODEL 8
REMARK VINA RESULT:      -6.9      2.082      6.296
REMARK SMILES O=c1cc(-c2ccccc2)oc2cc(O)cc(O)c12
REMARK SMILES IDX 1 1 2 2 3 3 4 4 11 5 12 6 13 7 14 8 16 9 17 10 19 11 5 12
REMARK SMILES IDX 6 13 10 14 7 15 9 16 8 17 18 18 15 20
REMARK H PARENT 18 19 15 21
ROOT
ATOM      1  O   UNL     1     -35.709  23.497 -26.243  1.00  0.00    -0.289 OA
ATOM      2  C   UNL     1     -34.726  23.509 -25.461  1.00  0.00     0.197 A 
ATOM      3  C   UNL     1     -34.603  22.614 -24.389  1.00  0.00     0.100 A 
ATOM      4  C   UNL     1     -33.518  22.646 -23.545  1.00  0.00     0.138 A 
ATOM      5  O   UNL     1     -32.607  23.555 -23.793  1.00  0.00    -0.456 OA
ATOM      6  C   UNL     1     -32.665  24.418 -24.778  1.00  0.00     0.146 A 
ATOM      7  C   UNL     1     -31.665  25.359 -24.988  1.00  0.00     0.094 A 
ATOM      8  C   UNL     1     -31.695  26.277 -26.010  1.00  0.00     0.123 A 
ATOM      9  C   UNL     1     -32.764  26.279 -26.877  1.00  0.00     0.093 A 
ATOM     10  C   UNL     1     -33.777  25.362 -26.702  1.00  0.00     0.134 A 
ATOM     11  C   UNL     1     -33.728  24.434 -25.655  1.00  0.00     0.107 A 
ENDROOT
BRANCH   4  12
ATOM     12  C   UNL     1     -33.381  21.714 -22.422  1.00  0.00     0.017 A 
ATOM     13  C   UNL     1     -34.382  21.435 -21.530  1.00  0.00     0.012 A 
ATOM     14  C   UNL     1     -32.174  21.064 -22.231  1.00  0.00     0.012 A 
ATOM     15  C   UNL     1     -34.205  20.538 -20.474  1.00  0.00     0.001 A 
ATOM     16  C   UNL     1     -31.968  20.169 -21.193  1.00  0.00     0.001 A 
ATOM     17  C   UNL     1     -32.996  19.900 -20.299  1.00  0.00     0.000 A 
ENDBRANCH   4  12
BRANCH  10  18
ATOM     18  O   UNL     1     -34.843  25.364 -27.570  1.00  0.00    -0.507 OA
ATOM     19  H   UNL     1     -35.771  25.178 -27.235  1.00  0.00     0.293 HD
ENDBRANCH  10  18
BRANCH   8  20
ATOM     20  O   UNL     1     -30.665  27.206 -26.182  1.00  0.00    -0.508 OA
ATOM     21  H   UNL     1     -29.748  27.092 -25.775  1.00  0.00     0.293 HD
ENDBRANCH   8  20
TORSDOF 3
ENDMDL
MODEL 9
REMARK VINA RESULT:      -6.9      2.042      3.985
REMARK SMILES O=c1cc(-c2ccccc2)oc2cc(O)cc(O)c12
REMARK SMILES IDX 1 1 2 2 3 3 4 4 11 5 12 6 13 7 14 8 16 9 17 10 19 11 5 12
REMARK SMILES IDX 6 13 10 14 7 15 9 16 8 17 18 18 15 20
REMARK H PARENT 18 19 15 21
ROOT
ATOM      1  O   UNL     1     -30.628  23.278 -24.174  1.00  0.00    -0.289 OA
ATOM      2  C   UNL     1     -31.534  24.129 -24.355  1.00  0.00     0.197 A 
ATOM      3  C   UNL     1     -31.308  25.342 -25.021  1.00  0.00     0.100 A 
ATOM      4  C   UNL     1     -32.315  26.259 -25.208  1.00  0.00     0.138 A 
ATOM      5  O   UNL     1     -33.496  25.941 -24.733  1.00  0.00    -0.456 OA
ATOM      6  C   UNL     1     -33.768  24.825 -24.103  1.00  0.00     0.146 A 
ATOM      7  C   UNL     1     -35.042  24.547 -23.622  1.00  0.00     0.094 A 
ATOM      8  C   UNL     1     -35.362  23.387 -22.958  1.00  0.00     0.123 A 
ATOM      9  C   UNL     1     -34.382  22.443 -22.750  1.00  0.00     0.093 A 
ATOM     10  C   UNL     1     -33.106  22.681 -23.211  1.00  0.00     0.134 A 
ATOM     11  C   UNL     1     -32.800  23.869 -23.885  1.00  0.00     0.107 A 
ENDROOT
BRANCH   4  12
ATOM     12  C   UNL     1     -32.089  27.529 -25.903  1.00  0.00     0.017 A 
ATOM     13  C   UNL     1     -30.850  28.023 -26.214  1.00  0.00     0.012 A 
ATOM     14  C   UNL     1     -33.180  28.294 -26.277  1.00  0.00     0.012 A 
ATOM     15  C   UNL     1     -30.683  29.240 -26.878  1.00  0.00     0.001 A 
ATOM     16  C   UNL     1     -33.046  29.506 -26.937  1.00  0.00     0.001 A 
ATOM     17  C   UNL     1     -31.781  29.990 -27.244  1.00  0.00     0.000 A 
ENDBRANCH   4  12
BRANCH  10  18
ATOM     18  O   UNL     1     -32.129  21.737 -23.003  1.00  0.00    -0.507 OA
ATOM     19  H   UNL     1     -31.592  21.382 -23.773  1.00  0.00     0.293 HD
ENDBRANCH  10  18
BRANCH   8  20
ATOM     20  O   UNL     1     -36.657  23.151 -22.492  1.00  0.00    -0.508 OA
ATOM     21  H   UNL     1     -37.384  23.852 -22.510  1.00  0.00     0.293 HD
ENDBRANCH   8  20
TORSDOF 3
ENDMDL
