MODEL 1
REMARK VINA RESULT:      -7.9      0.000      0.000
REMARK SMILES O=c1c([O-])c(-c2ccccc2)oc2cc([O-])cc([O-])c12
REMARK SMILES IDX 1 1 2 2 3 3 4 4 5 5 12 6 13 7 14 8 15 9 16 10 17 11 18 12
REMARK SMILES IDX 19 13 20 14 6 15 7 16 11 17 8 18 10 19 9 20
REMARK H PARENT
ROOT
ATOM      1  O   UNL     1     -35.884  22.813 -22.040  1.00  0.00    -0.290 OA
ATOM      2  C   UNL     1     -34.756  22.831 -22.575  1.00  0.00     0.184 A 
ATOM      3  C   UNL     1     -34.534  23.831 -23.545  1.00  0.00    -0.014 A 
ATOM      4  O   UNL     1     -35.535  24.712 -23.847  1.00  0.00    -0.867 OA
ATOM      5  C   UNL     1     -33.312  23.877 -24.147  1.00  0.00     0.130 A 
ATOM      6  O   UNL     1     -32.378  22.970 -23.793  1.00  0.00    -0.457 OA
ATOM      7  C   UNL     1     -32.570  22.059 -22.914  1.00  0.00     0.137 A 
ATOM      8  C   UNL     1     -31.581  21.168 -22.598  1.00  0.00     0.039 A 
ATOM      9  C   UNL     1     -31.754  20.176 -21.658  1.00  0.00    -0.106 A 
ATOM     10  O   UNL     1     -30.726  19.282 -21.357  1.00  0.00    -0.872 OA
ATOM     11  C   UNL     1     -32.985  20.077 -21.005  1.00  0.00    -0.016 A 
ATOM     12  C   UNL     1     -33.998  20.954 -21.298  1.00  0.00    -0.094 A 
ATOM     13  O   UNL     1     -35.209  20.849 -20.649  1.00  0.00    -0.872 OA
ATOM     14  C   UNL     1     -33.774  21.925 -22.242  1.00  0.00     0.056 A 
ENDROOT
BRANCH   5  15
ATOM     15  C   UNL     1     -32.965  24.858 -25.159  1.00  0.00     0.017 A 
ATOM     16  C   UNL     1     -33.541  25.039 -26.376  1.00  0.00     0.012 A 
ATOM     17  C   UNL     1     -31.911  25.743 -24.873  1.00  0.00     0.012 A 
ATOM     18  C   UNL     1     -33.134  26.012 -27.276  1.00  0.00     0.001 A 
ATOM     19  C   UNL     1     -31.495  26.714 -25.755  1.00  0.00     0.001 A 
ATOM     20  C   UNL     1     -32.106  26.863 -26.978  1.00  0.00     0.000 A 
ENDBRANCH   5  15
TORSDOF 1
ENDMDL
MODEL 2
REMARK VINA RESULT:      -7.9      1.372      2.491
REMARK SMILES O=c1c([O-])c(-c2ccccc2)oc2cc([O-])cc([O-])c12
REMARK SMILES IDX 1 1 2 2 3 3 4 4 5 5 12 6 13 7 14 8 15 9 16 10 17 11 18 12
REMARK SMILES IDX 19 13 20 14 6 15 7 16 11 17 8 18 10 19 9 20
REMARK H PARENT
ROOT
ATOM      1  O   UNL     1     -35.576  24.814 -23.757  1.00  0.00    -0.290 OA
ATOM      2  C   UNL     1     -34.366  24.725 -24.054  1.00  0.00     0.184 A 
ATOM      3  C   UNL     1     -33.838  25.756 -24.859  1.00  0.00    -0.014 A 
ATOM      4  O   UNL     1     -34.649  26.779 -25.266  1.00  0.00    -0.867 OA
ATOM      5  C   UNL     1     -32.519  25.688 -25.200  1.00  0.00     0.130 A 
ATOM      6  O   UNL     1     -31.787  24.644 -24.758  1.00  0.00    -0.457 OA
ATOM      7  C   UNL     1     -32.258  23.704 -24.028  1.00  0.00     0.137 A 
ATOM      8  C   UNL     1     -31.462  22.673 -23.611  1.00  0.00     0.039 A 
ATOM      9  C   UNL     1     -31.937  21.645 -22.825  1.00  0.00    -0.106 A 
ATOM     10  O   UNL     1     -31.099  20.607 -22.416  1.00  0.00    -0.872 OA
ATOM     11  C   UNL     1     -33.279  21.659 -22.441  1.00  0.00    -0.016 A 
ATOM     12  C   UNL     1     -34.104  22.678 -22.842  1.00  0.00    -0.094 A 
ATOM     13  O   UNL     1     -35.428  22.683 -22.459  1.00  0.00    -0.872 OA
ATOM     14  C   UNL     1     -33.583  23.678 -23.624  1.00  0.00     0.056 A 
ENDROOT
BRANCH   5  15
ATOM     15  C   UNL     1     -31.862  26.687 -26.023  1.00  0.00     0.017 A 
ATOM     16  C   UNL     1     -31.067  27.710 -25.614  1.00  0.00     0.012 A 
ATOM     17  C   UNL     1     -32.051  26.612 -27.413  1.00  0.00     0.012 A 
ATOM     18  C   UNL     1     -30.481  28.616 -26.485  1.00  0.00     0.001 A 
ATOM     19  C   UNL     1     -31.478  27.504 -28.291  1.00  0.00     0.001 A 
ATOM     20  C   UNL     1     -30.679  28.526 -27.836  1.00  0.00     0.000 A 
ENDBRANCH   5  15
TORSDOF 1
ENDMDL
MODEL 3
REMARK VINA RESULT:      -7.9      0.183      1.053
REMARK SMILES O=c1c([O-])c(-c2ccccc2)oc2cc([O-])cc([O-])c12
REMARK SMILES IDX 1 1 2 2 3 3 4 4 5 5 12 6 13 7 14 8 15 9 16 10 17 11 18 12
REMARK SMILES IDX 19 13 20 14 6 15 7 16 11 17 8 18 10 19 9 20
REMARK H PARENT
ROOT
ATOM      1  O   UNL     1     -35.857  22.787 -22.029  1.00  0.00    -0.290 OA
ATOM      2  C   UNL     1     -34.726  22.798 -22.557  1.00  0.00     0.184 A 
ATOM      3  C   UNL     1     -34.490  23.798 -23.523  1.00  0.00    -0.014 A 
ATOM      4  O   UNL     1     -35.483  24.687 -23.831  1.00  0.00    -0.867 OA
ATOM      5  C   UNL     1     -33.263  23.836 -24.117  1.00  0.00     0.130 A 
ATOM      6  O   UNL     1     -32.339  22.922 -23.758  1.00  0.00    -0.457 OA
ATOM      7  C   UNL     1     -32.544  22.011 -22.883  1.00  0.00     0.137 A 
ATOM      8  C   UNL     1     -31.563  21.112 -22.561  1.00  0.00     0.039 A 
ATOM      9  C   UNL     1     -31.750  20.119 -21.624  1.00  0.00    -0.106 A 
ATOM     10  O   UNL     1     -30.729  19.218 -21.319  1.00  0.00    -0.872 OA
ATOM     11  C   UNL     1     -32.985  20.029 -20.980  1.00  0.00    -0.016 A 
ATOM     12  C   UNL     1     -33.990  20.913 -21.278  1.00  0.00    -0.094 A 
ATOM     13  O   UNL     1     -35.206  20.815 -20.638  1.00  0.00    -0.872 OA
ATOM     14  C   UNL     1     -33.753  21.884 -22.219  1.00  0.00     0.056 A 
ENDROOT
BRANCH   5  15
ATOM     15  C   UNL     1     -32.903  24.817 -25.125  1.00  0.00     0.017 A 
ATOM     16  C   UNL     1     -31.872  25.701 -25.095  1.00  0.00     0.012 A 
ATOM     17  C   UNL     1     -33.696  24.882 -26.283  1.00  0.00     0.012 A 
ATOM     18  C   UNL     1     -31.609  26.602 -26.116  1.00  0.00     0.001 A 
ATOM     19  C   UNL     1     -33.449  25.770 -27.305  1.00  0.00     0.001 A 
ATOM     20  C   UNL     1     -32.394  26.650 -27.234  1.00  0.00     0.000 A 
ENDBRANCH   5  15
TORSDOF 1
ENDMDL
MODEL 4
REMARK VINA RESULT:      -7.8      1.433      2.428
REMARK SMILES O=c1c([O-])c(-c2ccccc2)oc2cc([O-])cc([O-])c12
REMARK SMILES IDX 1 1 2 2 3 3 4 4 5 5 12 6 13 7 14 8 15 9 16 10 17 11 18 12
REMARK SMILES IDX 19 13 20 14 6 15 7 16 11 17 8 18 10 19 9 20
REMARK H PARENT
ROOT
ATOM      1  O   UNL     1     -35.858  24.591 -24.472  1.00  0.00    -0.290 OA
ATOM      2  C   UNL     1     -34.615  24.576 -24.591  1.00  0.00     0.184 A 
ATOM      3  C   UNL     1     -34.049  25.581 -25.404  1.00  0.00    -0.014 A 
ATOM      4  O   UNL     1     -34.862  26.500 -26.008  1.00  0.00    -0.867 OA
ATOM      5  C   UNL     1     -32.693  25.592 -25.554  1.00  0.00     0.130 A 
ATOM      6  O   UNL     1     -31.962  24.649 -24.925  1.00  0.00    -0.457 OA
ATOM      7  C   UNL     1     -32.468  23.734 -24.186  1.00  0.00     0.137 A 
ATOM      8  C   UNL     1     -31.671  22.806 -23.573  1.00  0.00     0.039 A 
ATOM      9  C   UNL     1     -32.181  21.808 -22.771  1.00  0.00    -0.106 A 
ATOM     10  O   UNL     1     -31.342  20.876 -22.161  1.00  0.00    -0.872 OA
ATOM     11  C   UNL     1     -33.563  21.744 -22.578  1.00  0.00    -0.016 A 
ATOM     12  C   UNL     1     -34.390  22.658 -23.178  1.00  0.00    -0.094 A 
ATOM     13  O   UNL     1     -35.753  22.587 -22.982  1.00  0.00    -0.872 OA
ATOM     14  C   UNL     1     -33.832  23.633 -23.966  1.00  0.00     0.056 A 
ENDROOT
BRANCH   5  15
ATOM     15  C   UNL     1     -31.995  26.574 -26.364  1.00  0.00     0.017 A 
ATOM     16  C   UNL     1     -32.025  26.711 -27.715  1.00  0.00     0.012 A 
ATOM     17  C   UNL     1     -31.185  27.509 -25.698  1.00  0.00     0.012 A 
ATOM     18  C   UNL     1     -31.318  27.689 -28.399  1.00  0.00     0.001 A 
ATOM     19  C   UNL     1     -30.477  28.486 -26.361  1.00  0.00     0.001 A 
ATOM     20  C   UNL     1     -30.535  28.590 -27.731  1.00  0.00     0.000 A 
ENDBRANCH   5  15
TORSDOF 1
ENDMDL
MODEL 5
REMARK VINA RESULT:      -7.2      2.039      3.426
REMARK SMILES O=c1c([O-])c(-c2ccccc2)oc2cc([O-])cc([O-])c12
REMARK SMILES IDX 1 1 2 2 3 3 4 4 5 5 12 6 13 7 14 8 15 9 16 10 17 11 18 12
REMARK SMILES IDX 19 13 20 14 6 15 7 16 11 17 8 18 10 19 9 20
REMARK H PARENT
ROOT
ATOM      1  O   UNL     1     -35.883  24.223 -26.565  1.00  0.00    -0.290 OA
ATOM      2  C   UNL     1     -34.745  24.495 -26.131  1.00  0.00     0.184 A 
ATOM      3  C   UNL     1     -34.096  25.604 -26.715  1.00  0.00    -0.014 A 
ATOM      4  O   UNL     1     -34.725  26.312 -27.702  1.00  0.00    -0.867 OA
ATOM      5  C   UNL     1     -32.851  25.927 -26.262  1.00  0.00     0.130 A 
ATOM      6  O   UNL     1     -32.300  25.177 -25.285  1.00  0.00    -0.457 OA
ATOM      7  C   UNL     1     -32.881  24.169 -24.750  1.00  0.00     0.137 A 
ATOM      8  C   UNL     1     -32.269  23.449 -23.761  1.00  0.00     0.039 A 
ATOM      9  C   UNL     1     -32.865  22.359 -23.164  1.00  0.00    -0.106 A 
ATOM     10  O   UNL     1     -32.214  21.645 -22.158  1.00  0.00    -0.872 OA
ATOM     11  C   UNL     1     -34.142  21.979 -23.584  1.00  0.00    -0.016 A 
ATOM     12  C   UNL     1     -34.784  22.679 -24.573  1.00  0.00    -0.094 A 
ATOM     13  O   UNL     1     -36.043  22.296 -24.982  1.00  0.00    -0.872 OA
ATOM     14  C   UNL     1     -34.147  23.757 -25.135  1.00  0.00     0.056 A 
ENDROOT
BRANCH   5  15
ATOM     15  C   UNL     1     -32.084  27.043 -26.784  1.00  0.00     0.017 A 
ATOM     16  C   UNL     1     -31.107  27.013 -27.727  1.00  0.00     0.012 A 
ATOM     17  C   UNL     1     -32.365  28.321 -26.272  1.00  0.00     0.012 A 
ATOM     18  C   UNL     1     -30.431  28.144 -28.161  1.00  0.00     0.001 A 
ATOM     19  C   UNL     1     -31.704  29.453 -26.692  1.00  0.00     0.001 A 
ATOM     20  C   UNL     1     -30.719  29.379 -27.650  1.00  0.00     0.000 A 
ENDBRANCH   5  15
TORSDOF 1
ENDMDL
MODEL 6
REMARK VINA RESULT:      -7.1      2.257      4.253
REMARK SMILES O=c1c([O-])c(-c2ccccc2)oc2cc([O-])cc([O-])c12
REMARK SMILES IDX 1 1 2 2 3 3 4 4 5 5 12 6 13 7 14 8 15 9 16 10 17 11 18 12
REMARK SMILES IDX 19 13 20 14 6 15 7 16 11 17 8 18 10 19 9 20
REMARK H PARENT
ROOT
ATOM      1  O   UNL     1     -32.862  22.538 -23.421  1.00  0.00    -0.290 OA
ATOM      2  C   UNL     1     -33.324  23.638 -23.792  1.00  0.00     0.184 A 
ATOM      3  C   UNL     1     -32.490  24.427 -24.610  1.00  0.00    -0.014 A 
ATOM      4  O   UNL     1     -31.248  23.968 -24.953  1.00  0.00    -0.867 OA
ATOM      5  C   UNL     1     -32.966  25.634 -25.032  1.00  0.00     0.130 A 
ATOM      6  O   UNL     1     -34.202  26.014 -24.649  1.00  0.00    -0.457 OA
ATOM      7  C   UNL     1     -34.965  25.304 -23.906  1.00  0.00     0.137 A 
ATOM      8  C   UNL     1     -36.211  25.746 -23.553  1.00  0.00     0.039 A 
ATOM      9  C   UNL     1     -37.058  25.008 -22.755  1.00  0.00    -0.106 A 
ATOM     10  O   UNL     1     -38.323  25.487 -22.412  1.00  0.00    -0.872 OA
ATOM     11  C   UNL     1     -36.628  23.763 -22.292  1.00  0.00    -0.016 A 
ATOM     12  C   UNL     1     -35.385  23.290 -22.627  1.00  0.00    -0.094 A 
ATOM     13  O   UNL     1     -34.969  22.060 -22.164  1.00  0.00    -0.872 OA
ATOM     14  C   UNL     1     -34.580  24.063 -23.424  1.00  0.00     0.056 A 
ENDROOT
BRANCH   5  15
ATOM     15  C   UNL     1     -32.202  26.534 -25.877  1.00  0.00     0.017 A 
ATOM     16  C   UNL     1     -31.252  27.427 -25.496  1.00  0.00     0.012 A 
ATOM     17  C   UNL     1     -32.454  26.501 -27.259  1.00  0.00     0.012 A 
ATOM     18  C   UNL     1     -30.574  28.247 -26.386  1.00  0.00     0.001 A 
ATOM     19  C   UNL     1     -31.791  27.307 -28.155  1.00  0.00     0.001 A 
ATOM     20  C   UNL     1     -30.834  28.198 -27.728  1.00  0.00     0.000 A 
ENDBRANCH   5  15
TORSDOF 1
ENDMDL
MODEL 7
REMARK VINA RESULT:      -7.1      2.220      4.099
REMARK SMILES O=c1c([O-])c(-c2ccccc2)oc2cc([O-])cc([O-])c12
REMARK SMILES IDX 1 1 2 2 3 3 4 4 5 5 12 6 13 7 14 8 15 9 16 10 17 11 18 12
REMARK SMILES IDX 19 13 20 14 6 15 7 16 11 17 8 18 10 19 9 20
REMARK H PARENT
ROOT
ATOM      1  O   UNL     1     -32.814  22.484 -23.416  1.00  0.00    -0.290 OA
ATOM      2  C   UNL     1     -33.291  23.570 -23.805  1.00  0.00     0.184 A 
ATOM      3  C   UNL     1     -32.470  24.355 -24.642  1.00  0.00    -0.014 A 
ATOM      4  O   UNL     1     -31.224  23.905 -24.982  1.00  0.00    -0.867 OA
ATOM      5  C   UNL     1     -32.963  25.547 -25.084  1.00  0.00     0.130 A 
ATOM      6  O   UNL     1     -34.202  25.920 -24.703  1.00  0.00    -0.457 OA
ATOM      7  C   UNL     1     -34.953  25.214 -23.943  1.00  0.00     0.137 A 
ATOM      8  C   UNL     1     -36.203  25.648 -23.593  1.00  0.00     0.039 A 
ATOM      9  C   UNL     1     -37.037  24.914 -22.778  1.00  0.00    -0.106 A 
ATOM     10  O   UNL     1     -38.307  25.384 -22.438  1.00  0.00    -0.872 OA
ATOM     11  C   UNL     1     -36.590  23.683 -22.293  1.00  0.00    -0.016 A 
ATOM     12  C   UNL     1     -35.343  23.219 -22.625  1.00  0.00    -0.094 A 
ATOM     13  O   UNL     1     -34.909  22.003 -22.142  1.00  0.00    -0.872 OA
ATOM     14  C   UNL     1     -34.551  23.988 -23.440  1.00  0.00     0.056 A 
ENDROOT
BRANCH   5  15
ATOM     15  C   UNL     1     -32.214  26.442 -25.948  1.00  0.00     0.017 A 
ATOM     16  C   UNL     1     -32.208  26.476 -27.307  1.00  0.00     0.012 A 
ATOM     17  C   UNL     1     -31.388  27.398 -25.335  1.00  0.00     0.012 A 
ATOM     18  C   UNL     1     -31.454  27.376 -28.044  1.00  0.00     0.001 A 
ATOM     19  C   UNL     1     -30.633  28.298 -26.052  1.00  0.00     0.001 A 
ATOM     20  C   UNL     1     -30.655  28.299 -27.427  1.00  0.00     0.000 A 
ENDBRANCH   5  15
TORSDOF 1
ENDMDL
MODEL 8
REMARK VINA RESULT:      -7.1      2.076      3.503
REMARK SMILES O=c1c([O-])c(-c2ccccc2)oc2cc([O-])cc([O-])c12
REMARK SMILES IDX 1 1 2 2 3 3 4 4 5 5 12 6 13 7 14 8 15 9 16 10 17 11 18 12
REMARK SMILES IDX 19 13 20 14 6 15 7 16 11 17 8 18 10 19 9 20
REMARK H PARENT
ROOT
ATOM      1  O   UNL     1     -35.858  24.252 -26.608  1.00  0.00    -0.290 OA
ATOM      2  C   UNL     1     -34.737  24.549 -26.145  1.00  0.00     0.184 A 
ATOM      3  C   UNL     1     -34.117  25.697 -26.683  1.00  0.00    -0.014 A 
ATOM      4  O   UNL     1     -34.753  26.413 -27.659  1.00  0.00    -0.867 OA
ATOM      5  C   UNL     1     -32.892  26.048 -26.197  1.00  0.00     0.130 A 
ATOM      6  O   UNL     1     -32.332  25.287 -25.234  1.00  0.00    -0.457 OA
ATOM      7  C   UNL     1     -32.887  24.244 -24.741  1.00  0.00     0.137 A 
ATOM      8  C   UNL     1     -32.267  23.515 -23.763  1.00  0.00     0.039 A 
ATOM      9  C   UNL     1     -32.836  22.388 -23.210  1.00  0.00    -0.106 A 
ATOM     10  O   UNL     1     -32.177  21.665 -22.214  1.00  0.00    -0.872 OA
ATOM     11  C   UNL     1     -34.090  21.978 -23.665  1.00  0.00    -0.016 A 
ATOM     12  C   UNL     1     -34.739  22.685 -24.643  1.00  0.00    -0.094 A 
ATOM     13  O   UNL     1     -35.977  22.272 -25.086  1.00  0.00    -0.872 OA
ATOM     14  C   UNL     1     -34.131  23.801 -25.161  1.00  0.00     0.056 A 
ENDROOT
BRANCH   5  15
ATOM     15  C   UNL     1     -32.156  27.206 -26.671  1.00  0.00     0.017 A 
ATOM     16  C   UNL     1     -32.265  28.492 -26.248  1.00  0.00     0.012 A 
ATOM     17  C   UNL     1     -31.208  27.002 -27.688  1.00  0.00     0.012 A 
ATOM     18  C   UNL     1     -31.510  29.533 -26.768  1.00  0.00     0.001 A 
ATOM     19  C   UNL     1     -30.451  28.024 -28.215  1.00  0.00     0.001 A 
ATOM     20  C   UNL     1     -30.592  29.313 -27.758  1.00  0.00     0.000 A 
ENDBRANCH   5  15
TORSDOF 1
ENDMDL
MODEL 9
REMARK VINA RESULT:      -7.0      1.960      6.164
REMARK SMILES O=c1c([O-])c(-c2ccccc2)oc2cc([O-])cc([O-])c12
REMARK SMILES IDX 1 1 2 2 3 3 4 4 5 5 12 6 13 7 14 8 15 9 16 10 17 11 18 12
REMARK SMILES IDX 19 13 20 14 6 15 7 16 11 17 8 18 10 19 9 20
REMARK H PARENT
ROOT
ATOM      1  O   UNL     1     -35.517  24.101 -26.637  1.00  0.00    -0.290 OA
ATOM      2  C   UNL     1     -34.604  24.147 -25.786  1.00  0.00     0.184 A 
ATOM      3  C   UNL     1     -34.634  23.163 -24.776  1.00  0.00    -0.014 A 
ATOM      4  O   UNL     1     -35.633  22.228 -24.772  1.00  0.00    -0.867 OA
ATOM      5  C   UNL     1     -33.650  23.187 -23.832  1.00  0.00     0.130 A 
ATOM      6  O   UNL     1     -32.702  24.144 -23.906  1.00  0.00    -0.457 OA
ATOM      7  C   UNL     1     -32.667  25.040 -24.819  1.00  0.00     0.137 A 
ATOM      8  C   UNL     1     -31.676  25.984 -24.840  1.00  0.00     0.039 A 
ATOM      9  C   UNL     1     -31.609  26.963 -25.808  1.00  0.00    -0.106 A 
ATOM     10  O   UNL     1     -30.586  27.911 -25.801  1.00  0.00    -0.872 OA
ATOM     11  C   UNL     1     -32.589  26.990 -26.803  1.00  0.00    -0.016 A 
ATOM     12  C   UNL     1     -33.595  26.060 -26.812  1.00  0.00    -0.094 A 
ATOM     13  O   UNL     1     -34.558  26.096 -27.797  1.00  0.00    -0.872 OA
ATOM     14  C   UNL     1     -33.617  25.105 -25.826  1.00  0.00     0.056 A 
ENDROOT
BRANCH   5  15
ATOM     15  C   UNL     1     -33.574  22.229 -22.744  1.00  0.00     0.017 A 
ATOM     16  C   UNL     1     -34.541  21.915 -21.843  1.00  0.00     0.012 A 
ATOM     17  C   UNL     1     -32.369  21.526 -22.579  1.00  0.00     0.012 A 
ATOM     18  C   UNL     1     -34.368  20.978 -20.834  1.00  0.00     0.001 A 
ATOM     19  C   UNL     1     -32.181  20.594 -21.584  1.00  0.00     0.001 A 
ATOM     20  C   UNL     1     -33.187  20.305 -20.691  1.00  0.00     0.000 A 
ENDBRANCH   5  15
TORSDOF 1
ENDMDL
