MODEL 1
REMARK VINA RESULT:      -5.0      0.000      0.000
REMARK SMILES CC/C(=C(\c1ccccc1)c1ccc(OCC[NH+](C)C)cc1)c1ccccc1
REMARK SMILES IDX 15 1 14 2 11 3 12 4 22 5 13 6 21 7 4 8 3 9 2 10 1 11 23 12
REMARK SMILES IDX 24 13 28 14 25 15 27 16 26 17 5 18 6 19 10 20 7 21 9 22 8 23
REMARK SMILES IDX 16 24 17 25 18 26 19 27 20 28
REMARK H PARENT 18 29
ROOT
ATOM      1  O   UNL     1     115.778 140.185 144.828  1.00  0.00    -0.488 OA
ENDROOT
BRANCH   1   2
ATOM      2  C   UNL     1     115.832 139.544 143.604  1.00  0.00     0.119 A 
ATOM      3  C   UNL     1     115.826 138.214 141.076  1.00  0.00    -0.017 A 
ATOM      4  C   UNL     1     116.994 138.669 141.656  1.00  0.00     0.012 A 
ATOM      5  C   UNL     1     114.660 138.442 141.799  1.00  0.00     0.012 A 
ATOM      6  C   UNL     1     116.980 139.313 142.883  1.00  0.00     0.047 A 
ATOM      7  C   UNL     1     114.649 139.078 143.012  1.00  0.00     0.047 A 
BRANCH   3   8
ATOM      8  C   UNL     1     115.812 137.515 139.803  1.00  0.00    -0.007 C 
ATOM      9  C   UNL     1     116.049 136.233 139.699  1.00  0.00    -0.033 C 
BRANCH   9  10
ATOM     10  C   UNL     1     116.094 135.476 138.417  1.00  0.00     0.033 C 
ATOM     11  C   UNL     1     116.698 134.126 138.671  1.00  0.00     0.009 C 
ENDBRANCH   9  10
BRANCH   9  12
ATOM     12  C   UNL     1     116.230 135.394 140.897  1.00  0.00    -0.022 A 
ATOM     13  C   UNL     1     115.167 134.842 141.566  1.00  0.00     0.008 A 
ATOM     14  C   UNL     1     117.497 135.179 141.347  1.00  0.00     0.008 A 
ATOM     15  C   UNL     1     115.390 134.077 142.683  1.00  0.00     0.001 A 
ATOM     16  C   UNL     1     117.769 134.407 142.480  1.00  0.00     0.001 A 
ATOM     17  C   UNL     1     116.683 133.866 143.130  1.00  0.00     0.000 A 
ENDBRANCH   9  12
BRANCH   8  18
ATOM     18  C   UNL     1     115.562 138.291 138.606  1.00  0.00    -0.018 A 
ATOM     19  C   UNL     1     114.313 138.362 138.021  1.00  0.00     0.009 A 
ATOM     20  C   UNL     1     116.617 138.955 137.987  1.00  0.00     0.009 A 
ATOM     21  C   UNL     1     114.155 139.077 136.861  1.00  0.00     0.001 A 
ATOM     22  C   UNL     1     116.475 139.677 136.825  1.00  0.00     0.001 A 
ATOM     23  C   UNL     1     115.207 139.734 136.254  1.00  0.00     0.000 A 
ENDBRANCH   8  18
ENDBRANCH   3   8
ENDBRANCH   1   2
BRANCH   1  24
ATOM     24  C   UNL     1     115.556 139.641 146.081  1.00  0.00     0.290 C 
BRANCH  24  25
ATOM     25  C   UNL     1     116.319 138.381 146.393  1.00  0.00     0.303 C 
BRANCH  25  26
ATOM     26  N   UNL     1     116.998 138.437 147.652  1.00  0.00    -0.337 N 
ATOM     27  C   UNL     1     116.488 137.493 148.623  1.00  0.00     0.332 C 
ATOM     28  C   UNL     1     116.944 139.749 148.263  1.00  0.00     0.332 C 
ATOM     29  H   UNL     1     118.033 138.217 147.544  1.00  0.00     0.347 HD
ENDBRANCH  25  26
ENDBRANCH  24  25
ENDBRANCH   1  24
TORSDOF 8
ENDMDL
MODEL 2
REMARK VINA RESULT:      -4.9      3.461      5.835
REMARK SMILES CC/C(=C(\c1ccccc1)c1ccc(OCC[NH+](C)C)cc1)c1ccccc1
REMARK SMILES IDX 15 1 14 2 11 3 12 4 22 5 13 6 21 7 4 8 3 9 2 10 1 11 23 12
REMARK SMILES IDX 24 13 28 14 25 15 27 16 26 17 5 18 6 19 10 20 7 21 9 22 8 23
REMARK SMILES IDX 16 24 17 25 18 26 19 27 20 28
REMARK H PARENT 18 29
ROOT
ATOM      1  O   UNL     1     119.931 137.412 148.158  1.00  0.00    -0.488 OA
ENDROOT
BRANCH   1   2
ATOM      2  C   UNL     1     119.034 137.080 147.160  1.00  0.00     0.119 A 
ATOM      3  C   UNL     1     117.181 136.506 145.063  1.00  0.00    -0.017 A 
ATOM      4  C   UNL     1     117.692 135.512 145.875  1.00  0.00     0.012 A 
ATOM      5  C   UNL     1     117.623 137.797 145.332  1.00  0.00     0.012 A 
ATOM      6  C   UNL     1     118.590 135.807 146.888  1.00  0.00     0.047 A 
ATOM      7  C   UNL     1     118.511 138.086 146.334  1.00  0.00     0.047 A 
BRANCH   3   8
ATOM      8  C   UNL     1     116.220 136.231 144.010  1.00  0.00    -0.007 C 
ATOM      9  C   UNL     1     114.931 136.382 144.172  1.00  0.00    -0.033 C 
BRANCH   9  10
ATOM     10  C   UNL     1     113.901 136.070 143.144  1.00  0.00     0.033 C 
ATOM     11  C   UNL     1     113.411 134.668 143.357  1.00  0.00     0.009 C 
ENDBRANCH   9  10
BRANCH   9  12
ATOM     12  C   UNL     1     114.385 136.961 145.413  1.00  0.00    -0.022 A 
ATOM     13  C   UNL     1     114.081 138.293 145.522  1.00  0.00     0.008 A 
ATOM     14  C   UNL     1     114.192 136.134 146.478  1.00  0.00     0.008 A 
ATOM     15  C   UNL     1     113.584 138.783 146.703  1.00  0.00     0.001 A 
ATOM     16  C   UNL     1     113.689 136.591 147.699  1.00  0.00     0.001 A 
ATOM     17  C   UNL     1     113.392 137.932 147.778  1.00  0.00     0.000 A 
ENDBRANCH   9  12
BRANCH   8  18
ATOM     18  C   UNL     1     116.724 135.732 142.746  1.00  0.00    -0.018 A 
ATOM     19  C   UNL     1     117.165 134.434 142.588  1.00  0.00     0.009 A 
ATOM     20  C   UNL     1     116.817 136.595 141.658  1.00  0.00     0.009 A 
ATOM     21  C   UNL     1     117.675 134.040 141.378  1.00  0.00     0.001 A 
ATOM     22  C   UNL     1     117.324 136.217 140.437  1.00  0.00     0.001 A 
ATOM     23  C   UNL     1     117.762 134.902 140.303  1.00  0.00     0.000 A 
ENDBRANCH   8  18
ENDBRANCH   3   8
ENDBRANCH   1   2
BRANCH   1  24
ATOM     24  C   UNL     1     121.290 137.652 148.056  1.00  0.00     0.290 C 
BRANCH  24  25
ATOM     25  C   UNL     1     121.710 139.094 148.160  1.00  0.00     0.303 C 
BRANCH  25  26
ATOM     26  N   UNL     1     123.101 139.250 148.458  1.00  0.00    -0.337 N 
ATOM     27  C   UNL     1     123.519 138.536 149.645  1.00  0.00     0.332 C 
ATOM     28  C   UNL     1     123.487 140.635 148.637  1.00  0.00     0.332 C 
ATOM     29  H   UNL     1     123.711 138.887 147.666  1.00  0.00     0.347 HD
ENDBRANCH  25  26
ENDBRANCH  24  25
ENDBRANCH   1  24
TORSDOF 8
ENDMDL
MODEL 3
REMARK VINA RESULT:      -4.8      3.705      6.428
REMARK SMILES CC/C(=C(\c1ccccc1)c1ccc(OCC[NH+](C)C)cc1)c1ccccc1
REMARK SMILES IDX 15 1 14 2 11 3 12 4 22 5 13 6 21 7 4 8 3 9 2 10 1 11 23 12
REMARK SMILES IDX 24 13 28 14 25 15 27 16 26 17 5 18 6 19 10 20 7 21 9 22 8 23
REMARK SMILES IDX 16 24 17 25 18 26 19 27 20 28
REMARK H PARENT 18 29
ROOT
ATOM      1  O   UNL     1     120.855 137.460 148.225  1.00  0.00    -0.488 OA
ENDROOT
BRANCH   1   2
ATOM      2  C   UNL     1     119.793 137.142 147.398  1.00  0.00     0.119 A 
ATOM      3  C   UNL     1     117.601 136.595 145.650  1.00  0.00    -0.017 A 
ATOM      4  C   UNL     1     118.185 135.606 146.416  1.00  0.00     0.012 A 
ATOM      5  C   UNL     1     118.145 137.869 145.785  1.00  0.00     0.012 A 
ATOM      6  C   UNL     1     119.248 135.887 147.260  1.00  0.00     0.047 A 
ATOM      7  C   UNL     1     119.196 138.144 146.619  1.00  0.00     0.047 A 
BRANCH   3   8
ATOM      8  C   UNL     1     116.470 136.335 144.776  1.00  0.00    -0.007 C 
ATOM      9  C   UNL     1     115.232 136.362 145.196  1.00  0.00    -0.033 C 
BRANCH   9  10
ATOM     10  C   UNL     1     114.041 136.057 144.357  1.00  0.00     0.033 C 
ATOM     11  C   UNL     1     113.392 137.347 143.949  1.00  0.00     0.009 C 
ENDBRANCH   9  10
BRANCH   9  12
ATOM     12  C   UNL     1     114.906 136.777 146.573  1.00  0.00    -0.022 A 
ATOM     13  C   UNL     1     114.655 135.866 147.566  1.00  0.00     0.008 A 
ATOM     14  C   UNL     1     114.845 138.109 146.846  1.00  0.00     0.008 A 
ATOM     15  C   UNL     1     114.346 136.304 148.829  1.00  0.00     0.001 A 
ATOM     16  C   UNL     1     114.533 138.600 148.117  1.00  0.00     0.001 A 
ATOM     17  C   UNL     1     114.288 137.662 149.094  1.00  0.00     0.000 A 
ENDBRANCH   9  12
BRANCH   8  18
ATOM     18  C   UNL     1     116.745 135.998 143.394  1.00  0.00    -0.018 A 
ATOM     19  C   UNL     1     116.730 136.943 142.388  1.00  0.00     0.009 A 
ATOM     20  C   UNL     1     116.988 134.672 143.048  1.00  0.00     0.009 A 
ATOM     21  C   UNL     1     116.952 136.548 141.093  1.00  0.00     0.001 A 
ATOM     22  C   UNL     1     117.213 134.259 141.756  1.00  0.00     0.001 A 
ATOM     23  C   UNL     1     117.193 135.230 140.759  1.00  0.00     0.000 A 
ENDBRANCH   8  18
ENDBRANCH   3   8
ENDBRANCH   1   2
BRANCH   1  24
ATOM     24  C   UNL     1     122.049 138.080 147.901  1.00  0.00     0.290 C 
BRANCH  24  25
ATOM     25  C   UNL     1     122.990 138.329 149.050  1.00  0.00     0.303 C 
BRANCH  25  26
ATOM     26  N   UNL     1     123.922 139.384 148.790  1.00  0.00    -0.337 N 
ATOM     27  C   UNL     1     123.922 140.415 149.804  1.00  0.00     0.332 C 
ATOM     28  C   UNL     1     123.691 140.038 147.518  1.00  0.00     0.332 C 
ATOM     29  H   UNL     1     124.919 139.017 148.743  1.00  0.00     0.347 HD
ENDBRANCH  25  26
ENDBRANCH  24  25
ENDBRANCH   1  24
TORSDOF 8
ENDMDL
MODEL 4
REMARK VINA RESULT:      -4.5      3.625      6.148
REMARK SMILES CC/C(=C(\c1ccccc1)c1ccc(OCC[NH+](C)C)cc1)c1ccccc1
REMARK SMILES IDX 15 1 14 2 11 3 12 4 22 5 13 6 21 7 4 8 3 9 2 10 1 11 23 12
REMARK SMILES IDX 24 13 28 14 25 15 27 16 26 17 5 18 6 19 10 20 7 21 9 22 8 23
REMARK SMILES IDX 16 24 17 25 18 26 19 27 20 28
REMARK H PARENT 18 29
ROOT
ATOM      1  O   UNL     1     120.421 139.123 147.430  1.00  0.00    -0.488 OA
ENDROOT
BRANCH   1   2
ATOM      2  C   UNL     1     119.432 138.537 146.662  1.00  0.00     0.119 A 
ATOM      3  C   UNL     1     117.398 137.230 145.141  1.00  0.00    -0.017 A 
ATOM      4  C   UNL     1     117.762 138.540 144.895  1.00  0.00     0.012 A 
ATOM      5  C   UNL     1     118.083 136.592 146.170  1.00  0.00     0.012 A 
ATOM      6  C   UNL     1     118.751 139.160 145.642  1.00  0.00     0.047 A 
ATOM      7  C   UNL     1     119.060 137.207 146.907  1.00  0.00     0.047 A 
BRANCH   3   8
ATOM      8  C   UNL     1     116.382 136.548 144.360  1.00  0.00    -0.007 C 
ATOM      9  C   UNL     1     115.146 136.416 144.767  1.00  0.00    -0.033 C 
BRANCH   9  10
ATOM     10  C   UNL     1     114.079 135.686 144.030  1.00  0.00     0.033 C 
ATOM     11  C   UNL     1     113.330 136.661 143.169  1.00  0.00     0.009 C 
ENDBRANCH   9  10
BRANCH   9  12
ATOM     12  C   UNL     1     114.683 137.064 146.008  1.00  0.00    -0.022 A 
ATOM     13  C   UNL     1     114.572 136.376 147.189  1.00  0.00     0.008 A 
ATOM     14  C   UNL     1     114.350 138.383 145.959  1.00  0.00     0.008 A 
ATOM     15  C   UNL     1     114.126 137.024 148.314  1.00  0.00     0.001 A 
ATOM     16  C   UNL     1     113.892 139.082 147.080  1.00  0.00     0.001 A 
ATOM     17  C   UNL     1     113.791 138.366 148.251  1.00  0.00     0.000 A 
ENDBRANCH   9  12
BRANCH   8  18
ATOM     18  C   UNL     1     116.780 135.962 143.095  1.00  0.00    -0.018 A 
ATOM     19  C   UNL     1     116.831 136.694 141.927  1.00  0.00     0.009 A 
ATOM     20  C   UNL     1     117.076 134.603 143.033  1.00  0.00     0.009 A 
ATOM     21  C   UNL     1     117.169 136.067 140.755  1.00  0.00     0.001 A 
ATOM     22  C   UNL     1     117.418 133.959 141.868  1.00  0.00     0.001 A 
ATOM     23  C   UNL     1     117.464 134.719 140.703  1.00  0.00     0.000 A 
ENDBRANCH   8  18
ENDBRANCH   3   8
ENDBRANCH   1   2
BRANCH   1  24
ATOM     24  C   UNL     1     121.794 139.067 147.264  1.00  0.00     0.290 C 
BRANCH  24  25
ATOM     25  C   UNL     1     122.591 140.069 148.059  1.00  0.00     0.303 C 
BRANCH  25  26
ATOM     26  N   UNL     1     123.990 140.030 147.763  1.00  0.00    -0.337 N 
ATOM     27  C   UNL     1     124.276 139.781 146.366  1.00  0.00     0.332 C 
ATOM     28  C   UNL     1     124.700 139.025 148.528  1.00  0.00     0.332 C 
ATOM     29  H   UNL     1     124.463 140.953 148.000  1.00  0.00     0.347 HD
ENDBRANCH  25  26
ENDBRANCH  24  25
ENDBRANCH   1  24
TORSDOF 8
ENDMDL
MODEL 5
REMARK VINA RESULT:      -4.4      1.142      1.717
REMARK SMILES CC/C(=C(\c1ccccc1)c1ccc(OCC[NH+](C)C)cc1)c1ccccc1
REMARK SMILES IDX 15 1 14 2 11 3 12 4 22 5 13 6 21 7 4 8 3 9 2 10 1 11 23 12
REMARK SMILES IDX 24 13 28 14 25 15 27 16 26 17 5 18 6 19 10 20 7 21 9 22 8 23
REMARK SMILES IDX 16 24 17 25 18 26 19 27 20 28
REMARK H PARENT 18 29
ROOT
ATOM      1  O   UNL     1     115.898 139.751 145.815  1.00  0.00    -0.488 OA
ENDROOT
BRANCH   1   2
ATOM      2  C   UNL     1     115.995 139.281 144.518  1.00  0.00     0.119 A 
ATOM      3  C   UNL     1     116.309 138.293 141.857  1.00  0.00    -0.017 A 
ATOM      4  C   UNL     1     115.071 138.638 142.363  1.00  0.00     0.012 A 
ATOM      5  C   UNL     1     117.386 138.458 142.721  1.00  0.00     0.012 A 
ATOM      6  C   UNL     1     114.935 139.116 143.657  1.00  0.00     0.047 A 
ATOM      7  C   UNL     1     117.250 138.930 143.999  1.00  0.00     0.047 A 
BRANCH   3   8
ATOM      8  C   UNL     1     116.484 137.812 140.498  1.00  0.00    -0.007 C 
ATOM      9  C   UNL     1     116.532 136.540 140.199  1.00  0.00    -0.033 C 
BRANCH   9  10
ATOM     10  C   UNL     1     116.758 135.993 138.833  1.00  0.00     0.033 C 
ATOM     11  C   UNL     1     116.928 134.505 138.927  1.00  0.00     0.009 C 
ENDBRANCH   9  10
BRANCH   9  12
ATOM     12  C   UNL     1     116.291 135.509 141.225  1.00  0.00    -0.022 A 
ATOM     13  C   UNL     1     115.031 135.056 141.518  1.00  0.00     0.008 A 
ATOM     14  C   UNL     1     117.363 135.010 141.900  1.00  0.00     0.008 A 
ATOM     15  C   UNL     1     114.859 134.102 142.489  1.00  0.00     0.001 A 
ATOM     16  C   UNL     1     117.234 134.039 142.898  1.00  0.00     0.001 A 
ATOM     17  C   UNL     1     115.958 133.603 143.169  1.00  0.00     0.000 A 
ENDBRANCH   9  12
BRANCH   8  18
ATOM     18  C   UNL     1     116.649 138.796 139.447  1.00  0.00    -0.018 A 
ATOM     19  C   UNL     1     116.159 138.601 138.171  1.00  0.00     0.009 A 
ATOM     20  C   UNL     1     117.364 139.961 139.706  1.00  0.00     0.009 A 
ATOM     21  C   UNL     1     116.391 139.551 137.210  1.00  0.00     0.001 A 
ATOM     22  C   UNL     1     117.605 140.925 138.754  1.00  0.00     0.001 A 
ATOM     23  C   UNL     1     117.101 140.705 137.476  1.00  0.00     0.000 A 
ENDBRANCH   8  18
ENDBRANCH   3   8
ENDBRANCH   1   2
BRANCH   1  24
ATOM     24  C   UNL     1     116.863 139.756 146.808  1.00  0.00     0.290 C 
BRANCH  24  25
ATOM     25  C   UNL     1     116.942 138.511 147.651  1.00  0.00     0.303 C 
BRANCH  25  26
ATOM     26  N   UNL     1     115.655 137.964 147.961  1.00  0.00    -0.337 N 
ATOM     27  C   UNL     1     115.095 138.474 149.194  1.00  0.00     0.332 C 
ATOM     28  C   UNL     1     115.668 136.519 148.064  1.00  0.00     0.332 C 
ATOM     29  H   UNL     1     114.946 138.188 147.200  1.00  0.00     0.347 HD
ENDBRANCH  25  26
ENDBRANCH  24  25
ENDBRANCH   1  24
TORSDOF 8
ENDMDL
MODEL 6
REMARK VINA RESULT:      -4.3      2.745      7.319
REMARK SMILES CC/C(=C(\c1ccccc1)c1ccc(OCC[NH+](C)C)cc1)c1ccccc1
REMARK SMILES IDX 15 1 14 2 11 3 12 4 22 5 13 6 21 7 4 8 3 9 2 10 1 11 23 12
REMARK SMILES IDX 24 13 28 14 25 15 27 16 26 17 5 18 6 19 10 20 7 21 9 22 8 23
REMARK SMILES IDX 16 24 17 25 18 26 19 27 20 28
REMARK H PARENT 18 29
ROOT
ATOM      1  O   UNL     1     115.379 140.743 140.864  1.00  0.00    -0.488 OA
ENDROOT
BRANCH   1   2
ATOM      2  C   UNL     1     115.827 140.035 141.965  1.00  0.00     0.119 A 
ATOM      3  C   UNL     1     116.847 138.542 144.176  1.00  0.00    -0.017 A 
ATOM      4  C   UNL     1     115.702 139.307 144.281  1.00  0.00     0.012 A 
ATOM      5  C   UNL     1     117.467 138.543 142.930  1.00  0.00     0.012 A 
ATOM      6  C   UNL     1     115.220 140.027 143.199  1.00  0.00     0.047 A 
ATOM      7  C   UNL     1     116.989 139.255 141.863  1.00  0.00     0.047 A 
BRANCH   3   8
ATOM      8  C   UNL     1     117.361 137.758 145.285  1.00  0.00    -0.007 C 
ATOM      9  C   UNL     1     117.113 136.482 145.424  1.00  0.00    -0.033 C 
BRANCH   9  10
ATOM     10  C   UNL     1     117.574 135.643 146.564  1.00  0.00     0.033 C 
ATOM     11  C   UNL     1     116.482 135.577 147.592  1.00  0.00     0.009 C 
ENDBRANCH   9  10
BRANCH   9  12
ATOM     12  C   UNL     1     116.382 135.733 144.386  1.00  0.00    -0.022 A 
ATOM     13  C   UNL     1     117.020 134.885 143.517  1.00  0.00     0.008 A 
ATOM     14  C   UNL     1     115.035 135.908 144.293  1.00  0.00     0.008 A 
ATOM     15  C   UNL     1     116.295 134.219 142.561  1.00  0.00     0.001 A 
ATOM     16  C   UNL     1     114.258 135.251 143.335  1.00  0.00     0.001 A 
ATOM     17  C   UNL     1     114.925 134.406 142.477  1.00  0.00     0.000 A 
ENDBRANCH   9  12
BRANCH   8  18
ATOM     18  C   UNL     1     118.150 138.443 146.290  1.00  0.00    -0.018 A 
ATOM     19  C   UNL     1     119.528 138.495 146.236  1.00  0.00     0.009 A 
ATOM     20  C   UNL     1     117.511 139.031 147.378  1.00  0.00     0.009 A 
ATOM     21  C   UNL     1     120.217 139.118 147.245  1.00  0.00     0.001 A 
ATOM     22  C   UNL     1     118.186 139.660 148.398  1.00  0.00     0.001 A 
ATOM     23  C   UNL     1     119.575 139.701 148.320  1.00  0.00     0.000 A 
ENDBRANCH   8  18
ENDBRANCH   3   8
ENDBRANCH   1   2
BRANCH   1  24
ATOM     24  C   UNL     1     115.177 140.294 139.571  1.00  0.00     0.290 C 
BRANCH  24  25
ATOM     25  C   UNL     1     116.247 140.661 138.576  1.00  0.00     0.303 C 
BRANCH  25  26
ATOM     26  N   UNL     1     116.407 139.683 137.543  1.00  0.00    -0.337 N 
ATOM     27  C   UNL     1     115.481 139.851 136.443  1.00  0.00     0.332 C 
ATOM     28  C   UNL     1     116.256 138.326 138.025  1.00  0.00     0.332 C 
ATOM     29  H   UNL     1     117.381 139.726 137.117  1.00  0.00     0.347 HD
ENDBRANCH  25  26
ENDBRANCH  24  25
ENDBRANCH   1  24
TORSDOF 8
ENDMDL
MODEL 7
REMARK VINA RESULT:      -4.2      2.804      7.168
REMARK SMILES CC/C(=C(\c1ccccc1)c1ccc(OCC[NH+](C)C)cc1)c1ccccc1
REMARK SMILES IDX 15 1 14 2 11 3 12 4 22 5 13 6 21 7 4 8 3 9 2 10 1 11 23 12
REMARK SMILES IDX 24 13 28 14 25 15 27 16 26 17 5 18 6 19 10 20 7 21 9 22 8 23
REMARK SMILES IDX 16 24 17 25 18 26 19 27 20 28
REMARK H PARENT 18 29
ROOT
ATOM      1  O   UNL     1     115.514 140.621 140.271  1.00  0.00    -0.488 OA
ENDROOT
BRANCH   1   2
ATOM      2  C   UNL     1     115.846 139.986 141.454  1.00  0.00     0.119 A 
ATOM      3  C   UNL     1     116.636 138.645 143.849  1.00  0.00    -0.017 A 
ATOM      4  C   UNL     1     115.451 139.350 143.767  1.00  0.00     0.012 A 
ATOM      5  C   UNL     1     117.414 138.628 142.696  1.00  0.00     0.012 A 
ATOM      6  C   UNL     1     115.082 139.996 142.597  1.00  0.00     0.047 A 
ATOM      7  C   UNL     1     117.048 139.268 141.542  1.00  0.00     0.047 A 
BRANCH   3   8
ATOM      8  C   UNL     1     117.037 137.938 145.053  1.00  0.00    -0.007 C 
ATOM      9  C   UNL     1     116.712 136.692 145.282  1.00  0.00    -0.033 C 
BRANCH   9  10
ATOM     10  C   UNL     1     117.055 135.936 146.517  1.00  0.00     0.033 C 
ATOM     11  C   UNL     1     118.422 135.337 146.356  1.00  0.00     0.009 C 
ENDBRANCH   9  10
BRANCH   9  12
ATOM     12  C   UNL     1     116.009 135.891 144.264  1.00  0.00    -0.022 A 
ATOM     13  C   UNL     1     114.642 135.876 144.167  1.00  0.00     0.008 A 
ATOM     14  C   UNL     1     116.756 135.141 143.407  1.00  0.00     0.008 A 
ATOM     15  C   UNL     1     114.036 135.105 143.207  1.00  0.00     0.001 A 
ATOM     16  C   UNL     1     116.181 134.341 142.415  1.00  0.00     0.001 A 
ATOM     17  C   UNL     1     114.807 134.346 142.342  1.00  0.00     0.000 A 
ENDBRANCH   9  12
BRANCH   8  18
ATOM     18  C   UNL     1     117.796 138.669 146.047  1.00  0.00    -0.018 A 
ATOM     19  C   UNL     1     119.160 138.853 145.945  1.00  0.00     0.009 A 
ATOM     20  C   UNL     1     117.148 139.168 147.173  1.00  0.00     0.009 A 
ATOM     21  C   UNL     1     119.826 139.514 146.945  1.00  0.00     0.001 A 
ATOM     22  C   UNL     1     117.799 139.834 148.185  1.00  0.00     0.001 A 
ATOM     23  C   UNL     1     119.175 140.007 148.058  1.00  0.00     0.000 A 
ENDBRANCH   8  18
ENDBRANCH   3   8
ENDBRANCH   1   2
BRANCH   1  24
ATOM     24  C   UNL     1     114.546 140.274 139.345  1.00  0.00     0.290 C 
BRANCH  24  25
ATOM     25  C   UNL     1     114.601 138.856 138.840  1.00  0.00     0.303 C 
BRANCH  25  26
ATOM     26  N   UNL     1     113.820 138.654 137.658  1.00  0.00    -0.337 N 
ATOM     27  C   UNL     1     113.729 137.266 137.258  1.00  0.00     0.332 C 
ATOM     28  C   UNL     1     114.323 139.393 136.518  1.00  0.00     0.332 C 
ATOM     29  H   UNL     1     112.819 138.988 137.792  1.00  0.00     0.347 HD
ENDBRANCH  25  26
ENDBRANCH  24  25
ENDBRANCH   1  24
TORSDOF 8
ENDMDL
MODEL 8
REMARK VINA RESULT:      -4.2      1.330      1.840
REMARK SMILES CC/C(=C(\c1ccccc1)c1ccc(OCC[NH+](C)C)cc1)c1ccccc1
REMARK SMILES IDX 15 1 14 2 11 3 12 4 22 5 13 6 21 7 4 8 3 9 2 10 1 11 23 12
REMARK SMILES IDX 24 13 28 14 25 15 27 16 26 17 5 18 6 19 10 20 7 21 9 22 8 23
REMARK SMILES IDX 16 24 17 25 18 26 19 27 20 28
REMARK H PARENT 18 29
ROOT
ATOM      1  O   UNL     1     114.311 139.735 145.515  1.00  0.00    -0.488 OA
ENDROOT
BRANCH   1   2
ATOM      2  C   UNL     1     114.641 139.292 144.247  1.00  0.00     0.119 A 
ATOM      3  C   UNL     1     115.213 138.400 141.595  1.00  0.00    -0.017 A 
ATOM      4  C   UNL     1     116.192 138.466 142.567  1.00  0.00     0.012 A 
ATOM      5  C   UNL     1     113.938 138.792 141.989  1.00  0.00     0.012 A 
ATOM      6  C   UNL     1     115.898 138.901 143.850  1.00  0.00     0.047 A 
ATOM      7  C   UNL     1     113.651 139.222 143.257  1.00  0.00     0.047 A 
BRANCH   3   8
ATOM      8  C   UNL     1     115.486 137.925 140.250  1.00  0.00    -0.007 C 
ATOM      9  C   UNL     1     115.484 136.655 139.935  1.00  0.00    -0.033 C 
BRANCH   9  10
ATOM     10  C   UNL     1     115.802 136.112 138.586  1.00  0.00     0.033 C 
ATOM     11  C   UNL     1     116.612 134.859 138.746  1.00  0.00     0.009 C 
ENDBRANCH   9  10
BRANCH   9  12
ATOM     12  C   UNL     1     115.084 135.630 140.916  1.00  0.00    -0.022 A 
ATOM     13  C   UNL     1     115.986 135.052 141.771  1.00  0.00     0.008 A 
ATOM     14  C   UNL     1     113.776 135.251 140.953  1.00  0.00     0.008 A 
ATOM     15  C   UNL     1     115.563 134.095 142.659  1.00  0.00     0.001 A 
ATOM     16  C   UNL     1     113.304 134.279 141.840  1.00  0.00     0.001 A 
ATOM     17  C   UNL     1     114.231 133.717 142.687  1.00  0.00     0.000 A 
ENDBRANCH   9  12
BRANCH   8  18
ATOM     18  C   UNL     1     115.809 138.908 139.236  1.00  0.00    -0.018 A 
ATOM     19  C   UNL     1     114.968 139.179 138.176  1.00  0.00     0.009 A 
ATOM     20  C   UNL     1     117.029 139.577 139.295  1.00  0.00     0.009 A 
ATOM     21  C   UNL     1     115.356 140.087 137.225  1.00  0.00     0.001 A 
ATOM     22  C   UNL     1     117.433 140.491 138.351  1.00  0.00     0.001 A 
ATOM     23  C   UNL     1     116.567 140.747 137.292  1.00  0.00     0.000 A 
ENDBRANCH   8  18
ENDBRANCH   3   8
ENDBRANCH   1   2
BRANCH   1  24
ATOM     24  C   UNL     1     114.711 139.230 146.740  1.00  0.00     0.290 C 
BRANCH  24  25
ATOM     25  C   UNL     1     114.183 137.863 147.088  1.00  0.00     0.303 C 
BRANCH  25  26
ATOM     26  N   UNL     1     115.204 136.859 147.108  1.00  0.00    -0.337 N 
ATOM     27  C   UNL     1     115.008 135.859 148.135  1.00  0.00     0.332 C 
ATOM     28  C   UNL     1     116.530 137.410 147.296  1.00  0.00     0.332 C 
ATOM     29  H   UNL     1     115.245 136.331 146.186  1.00  0.00     0.347 HD
ENDBRANCH  25  26
ENDBRANCH  24  25
ENDBRANCH   1  24
TORSDOF 8
ENDMDL
MODEL 9
REMARK VINA RESULT:      -3.8      2.946      8.424
REMARK SMILES CC/C(=C(\c1ccccc1)c1ccc(OCC[NH+](C)C)cc1)c1ccccc1
REMARK SMILES IDX 15 1 14 2 11 3 12 4 22 5 13 6 21 7 4 8 3 9 2 10 1 11 23 12
REMARK SMILES IDX 24 13 28 14 25 15 27 16 26 17 5 18 6 19 10 20 7 21 9 22 8 23
REMARK SMILES IDX 16 24 17 25 18 26 19 27 20 28
REMARK H PARENT 18 29
ROOT
ATOM      1  O   UNL     1     117.258 134.351 141.876  1.00  0.00    -0.488 OA
ENDROOT
BRANCH   1   2
ATOM      2  C   UNL     1     116.967 135.079 143.016  1.00  0.00     0.119 A 
ATOM      3  C   UNL     1     116.438 136.511 145.430  1.00  0.00    -0.017 A 
ATOM      4  C   UNL     1     115.928 136.921 144.214  1.00  0.00     0.012 A 
ATOM      5  C   UNL     1     117.220 135.360 145.403  1.00  0.00     0.012 A 
ATOM      6  C   UNL     1     116.194 136.215 143.051  1.00  0.00     0.047 A 
ATOM      7  C   UNL     1     117.482 134.665 144.253  1.00  0.00     0.047 A 
BRANCH   3   8
ATOM      8  C   UNL     1     116.156 137.216 146.668  1.00  0.00    -0.007 C 
ATOM      9  C   UNL     1     116.616 138.414 146.918  1.00  0.00    -0.033 C 
BRANCH   9  10
ATOM     10  C   UNL     1     116.398 139.162 148.187  1.00  0.00     0.033 C 
ATOM     11  C   UNL     1     115.241 140.101 148.005  1.00  0.00     0.009 C 
ENDBRANCH   9  10
BRANCH   9  12
ATOM     12  C   UNL     1     117.359 139.172 145.895  1.00  0.00    -0.022 A 
ATOM     13  C   UNL     1     116.723 139.945 144.959  1.00  0.00     0.008 A 
ATOM     14  C   UNL     1     118.718 139.081 145.888  1.00  0.00     0.008 A 
ATOM     15  C   UNL     1     117.462 140.623 144.021  1.00  0.00     0.001 A 
ATOM     16  C   UNL     1     119.509 139.753 144.951  1.00  0.00     0.001 A 
ATOM     17  C   UNL     1     118.843 140.522 144.025  1.00  0.00     0.000 A 
ENDBRANCH   9  12
BRANCH   8  18
ATOM     18  C   UNL     1     115.363 136.534 147.670  1.00  0.00    -0.018 A 
ATOM     19  C   UNL     1     113.983 136.580 147.676  1.00  0.00     0.009 A 
ATOM     20  C   UNL     1     116.001 135.846 148.697  1.00  0.00     0.009 A 
ATOM     21  C   UNL     1     113.294 135.953 148.681  1.00  0.00     0.001 A 
ATOM     22  C   UNL     1     115.326 135.210 149.713  1.00  0.00     0.001 A 
ATOM     23  C   UNL     1     113.936 135.271 149.696  1.00  0.00     0.000 A 
ENDBRANCH   8  18
ENDBRANCH   3   8
ENDBRANCH   1   2
BRANCH   1  24
ATOM     24  C   UNL     1     117.478 134.810 140.589  1.00  0.00     0.290 C 
BRANCH  24  25
ATOM     25  C   UNL     1     116.702 136.037 140.190  1.00  0.00     0.303 C 
BRANCH  25  26
ATOM     26  N   UNL     1     115.626 135.749 139.290  1.00  0.00    -0.337 N 
ATOM     27  C   UNL     1     115.234 136.883 138.481  1.00  0.00     0.332 C 
ATOM     28  C   UNL     1     114.437 135.277 139.968  1.00  0.00     0.332 C 
ATOM     29  H   UNL     1     115.889 134.977 138.608  1.00  0.00     0.347 HD
ENDBRANCH  25  26
ENDBRANCH  24  25
ENDBRANCH   1  24
TORSDOF 8
ENDMDL
