MODEL 1
REMARK VINA RESULT:      -5.0      0.000      0.000
REMARK SMILES O=C(CCC[NH+]1CCC(O)(c2ccc(Cl)cc2)CC1)c1ccc(F)cc1
REMARK SMILES IDX 4 1 3 2 2 3 1 4 20 5 21 6 26 7 22 8 25 9 23 10 24 11 5 12
REMARK SMILES IDX 6 13 7 14 19 15 8 16 18 17 9 18 10 20 11 22 12 23 17 24
REMARK SMILES IDX 13 25 16 26 14 27 15 28
REMARK H PARENT 6 19 10 21
ROOT
ATOM      1  C   UNL     1     128.569 132.971  95.882  1.00  0.00     0.070 C 
ENDROOT
BRANCH   1   2
ATOM      2  C   UNL     1     128.997 132.610  94.478  1.00  0.00     0.087 C 
BRANCH   2   3
ATOM      3  C   UNL     1     127.894 132.496  93.521  1.00  0.00     0.163 C 
ATOM      4  O   UNL     1     127.740 131.466  92.815  1.00  0.00    -0.294 OA
BRANCH   3   5
ATOM      5  C   UNL     1     126.900 133.573  93.328  1.00  0.00     0.018 A 
ATOM      6  C   UNL     1     127.117 134.570  92.394  1.00  0.00     0.015 A 
ATOM      7  C   UNL     1     125.744 133.609  94.066  1.00  0.00     0.015 A 
ATOM      8  C   UNL     1     126.188 135.568  92.219  1.00  0.00     0.040 A 
ATOM      9  C   UNL     1     124.815 134.600  93.898  1.00  0.00     0.040 A 
ATOM     10  C   UNL     1     125.041 135.580  92.971  1.00  0.00     0.123 A 
ATOM     11  F   UNL     1     124.089 136.557  92.833  1.00  0.00    -0.207 F 
ENDBRANCH   3   5
ENDBRANCH   2   3
ENDBRANCH   1   2
BRANCH   1  12
ATOM     12  C   UNL     1     129.457 134.060  96.380  1.00  0.00     0.262 C 
BRANCH  12  13
ATOM     13  N   UNL     1     129.281 135.308  95.648  1.00  0.00    -0.335 N 
ATOM     14  C   UNL     1     127.994 135.894  95.865  1.00  0.00     0.265 C 
ATOM     15  C   UNL     1     130.320 136.226  95.987  1.00  0.00     0.265 C 
ATOM     16  C   UNL     1     127.765 136.203  97.319  1.00  0.00     0.102 C 
ATOM     17  C   UNL     1     129.960 137.348  96.867  1.00  0.00     0.102 C 
ATOM     18  C   UNL     1     128.809 137.173  97.787  1.00  0.00     0.100 C 
ATOM     19  H   UNL     1     129.313 135.024  94.623  1.00  0.00     0.348 HD
BRANCH  18  20
ATOM     20  O   UNL     1     128.160 138.428  97.879  1.00  0.00    -0.385 OA
ATOM     21  H   UNL     1     127.313 138.273  98.369  1.00  0.00     0.211 HD
ENDBRANCH  18  20
BRANCH  18  22
ATOM     22  C   UNL     1     129.236 136.878  99.201  1.00  0.00    -0.016 A 
ATOM     23  C   UNL     1     130.031 135.795  99.515  1.00  0.00     0.008 A 
ATOM     24  C   UNL     1     128.861 137.666 100.267  1.00  0.00     0.008 A 
ATOM     25  C   UNL     1     130.443 135.491 100.792  1.00  0.00     0.021 A 
ATOM     26  C   UNL     1     129.261 137.380 101.558  1.00  0.00     0.021 A 
ATOM     27  C   UNL     1     130.051 136.293 101.819  1.00  0.00     0.041 A 
ATOM     28  Cl  UNL     1     130.564 135.925 103.448  1.00  0.00    -0.084 Cl
ENDBRANCH  18  22
ENDBRANCH  12  13
ENDBRANCH   1  12
TORSDOF 7
ENDMDL
MODEL 2
REMARK VINA RESULT:      -5.0      0.242      1.328
REMARK SMILES O=C(CCC[NH+]1CCC(O)(c2ccc(Cl)cc2)CC1)c1ccc(F)cc1
REMARK SMILES IDX 4 1 3 2 2 3 1 4 20 5 21 6 26 7 22 8 25 9 23 10 24 11 5 12
REMARK SMILES IDX 6 13 7 14 19 15 8 16 18 17 9 18 10 20 11 22 12 23 17 24
REMARK SMILES IDX 13 25 16 26 14 27 15 28
REMARK H PARENT 6 19 10 21
ROOT
ATOM      1  C   UNL     1     128.692 133.096  95.946  1.00  0.00     0.070 C 
ENDROOT
BRANCH   1   2
ATOM      2  C   UNL     1     129.152 132.456  94.655  1.00  0.00     0.087 C 
BRANCH   2   3
ATOM      3  C   UNL     1     128.099 132.304  93.649  1.00  0.00     0.163 C 
ATOM      4  O   UNL     1     127.992 131.255  92.963  1.00  0.00    -0.294 OA
BRANCH   3   5
ATOM      5  C   UNL     1     127.104 133.363  93.378  1.00  0.00     0.018 A 
ATOM      6  C   UNL     1     125.928 133.424  94.103  1.00  0.00     0.015 A 
ATOM      7  C   UNL     1     127.322 134.306  92.406  1.00  0.00     0.015 A 
ATOM      8  C   UNL     1     125.006 134.411  93.846  1.00  0.00     0.040 A 
ATOM      9  C   UNL     1     126.409 135.292  92.144  1.00  0.00     0.040 A 
ATOM     10  C   UNL     1     125.249 135.342  92.868  1.00  0.00     0.123 A 
ATOM     11  F   UNL     1     124.359 136.342  92.575  1.00  0.00    -0.207 F 
ENDBRANCH   3   5
ENDBRANCH   2   3
ENDBRANCH   1   2
BRANCH   1  12
ATOM     12  C   UNL     1     129.637 134.195  96.291  1.00  0.00     0.262 C 
BRANCH  12  13
ATOM     13  N   UNL     1     129.313 135.448  95.621  1.00  0.00    -0.335 N 
ATOM     14  C   UNL     1     127.973 135.878  95.883  1.00  0.00     0.265 C 
ATOM     15  C   UNL     1     130.250 136.459  95.990  1.00  0.00     0.265 C 
ATOM     16  C   UNL     1     127.739 136.093  97.353  1.00  0.00     0.102 C 
ATOM     17  C   UNL     1     129.786 137.492  96.927  1.00  0.00     0.102 C 
ATOM     18  C   UNL     1     128.679 137.149  97.853  1.00  0.00     0.100 C 
ATOM     19  H   UNL     1     129.356 135.216  94.584  1.00  0.00     0.348 HD
BRANCH  18  20
ATOM     20  O   UNL     1     127.898 138.320  98.013  1.00  0.00    -0.385 OA
ATOM     21  H   UNL     1     127.046 138.036  98.429  1.00  0.00     0.211 HD
ENDBRANCH  18  20
BRANCH  18  22
ATOM     22  C   UNL     1     129.162 136.839  99.246  1.00  0.00    -0.016 A 
ATOM     23  C   UNL     1     128.914 137.680 100.310  1.00  0.00     0.008 A 
ATOM     24  C   UNL     1     129.878 135.701  99.544  1.00  0.00     0.008 A 
ATOM     25  C   UNL     1     129.338 137.433 101.597  1.00  0.00     0.021 A 
ATOM     26  C   UNL     1     130.314 135.432 100.827  1.00  0.00     0.021 A 
ATOM     27  C   UNL     1     130.043 136.299 101.851  1.00  0.00     0.041 A 
ATOM     28  Cl  UNL     1     130.589 135.966 103.478  1.00  0.00    -0.084 Cl
ENDBRANCH  18  22
ENDBRANCH  12  13
ENDBRANCH   1  12
TORSDOF 7
ENDMDL
MODEL 3
REMARK VINA RESULT:      -4.9      2.829      3.858
REMARK SMILES O=C(CCC[NH+]1CCC(O)(c2ccc(Cl)cc2)CC1)c1ccc(F)cc1
REMARK SMILES IDX 4 1 3 2 2 3 1 4 20 5 21 6 26 7 22 8 25 9 23 10 24 11 5 12
REMARK SMILES IDX 6 13 7 14 19 15 8 16 18 17 9 18 10 20 11 22 12 23 17 24
REMARK SMILES IDX 13 25 16 26 14 27 15 28
REMARK H PARENT 6 19 10 21
ROOT
ATOM      1  C   UNL     1     129.597 133.664  96.102  1.00  0.00     0.070 C 
ENDROOT
BRANCH   1   2
ATOM      2  C   UNL     1     128.442 132.915  95.475  1.00  0.00     0.087 C 
BRANCH   2   3
ATOM      3  C   UNL     1     128.116 133.340  94.112  1.00  0.00     0.163 C 
ATOM      4  O   UNL     1     128.780 132.939  93.122  1.00  0.00    -0.294 OA
BRANCH   3   5
ATOM      5  C   UNL     1     126.996 134.258  93.816  1.00  0.00     0.018 A 
ATOM      6  C   UNL     1     127.233 135.492  93.238  1.00  0.00     0.015 A 
ATOM      7  C   UNL     1     125.701 133.909  94.105  1.00  0.00     0.015 A 
ATOM      8  C   UNL     1     126.186 136.340  92.965  1.00  0.00     0.040 A 
ATOM      9  C   UNL     1     124.654 134.749  93.835  1.00  0.00     0.040 A 
ATOM     10  C   UNL     1     124.901 135.967  93.263  1.00  0.00     0.123 A 
ATOM     11  F   UNL     1     123.827 136.781  93.011  1.00  0.00    -0.207 F 
ENDBRANCH   3   5
ENDBRANCH   2   3
ENDBRANCH   1   2
BRANCH   1  12
ATOM     12  C   UNL     1     129.044 134.739  96.973  1.00  0.00     0.262 C 
BRANCH  12  13
ATOM     13  N   UNL     1     130.056 135.697  97.397  1.00  0.00    -0.335 N 
ATOM     14  C   UNL     1     130.502 136.533  96.324  1.00  0.00     0.265 C 
ATOM     15  C   UNL     1     129.565 136.484  98.481  1.00  0.00     0.265 C 
ATOM     16  C   UNL     1     129.369 137.326  95.733  1.00  0.00     0.102 C 
ATOM     17  C   UNL     1     129.184 137.872  98.182  1.00  0.00     0.102 C 
ATOM     18  C   UNL     1     128.773 138.201  96.795  1.00  0.00     0.100 C 
ATOM     19  H   UNL     1     130.890 135.099  97.678  1.00  0.00     0.348 HD
BRANCH  18  20
ATOM     20  O   UNL     1     129.238 139.511  96.526  1.00  0.00    -0.385 OA
ATOM     21  H   UNL     1     129.034 140.054  97.328  1.00  0.00     0.211 HD
ENDBRANCH  18  20
BRANCH  18  22
ATOM     22  C   UNL     1     127.278 138.305  96.642  1.00  0.00    -0.016 A 
ATOM     23  C   UNL     1     126.467 137.190  96.595  1.00  0.00     0.008 A 
ATOM     24  C   UNL     1     126.627 139.515  96.540  1.00  0.00     0.008 A 
ATOM     25  C   UNL     1     125.099 137.243  96.456  1.00  0.00     0.021 A 
ATOM     26  C   UNL     1     125.255 139.593  96.399  1.00  0.00     0.021 A 
ATOM     27  C   UNL     1     124.493 138.457  96.358  1.00  0.00     0.041 A 
ATOM     28  Cl  UNL     1     122.757 138.545  96.183  1.00  0.00    -0.084 Cl
ENDBRANCH  18  22
ENDBRANCH  12  13
ENDBRANCH   1  12
TORSDOF 7
ENDMDL
MODEL 4
REMARK VINA RESULT:      -4.9     11.315     14.162
REMARK SMILES O=C(CCC[NH+]1CCC(O)(c2ccc(Cl)cc2)CC1)c1ccc(F)cc1
REMARK SMILES IDX 4 1 3 2 2 3 1 4 20 5 21 6 26 7 22 8 25 9 23 10 24 11 5 12
REMARK SMILES IDX 6 13 7 14 19 15 8 16 18 17 9 18 10 20 11 22 12 23 17 24
REMARK SMILES IDX 13 25 16 26 14 27 15 28
REMARK H PARENT 6 19 10 21
ROOT
ATOM      1  C   UNL     1     113.904 135.219  94.867  1.00  0.00     0.070 C 
ENDROOT
BRANCH   1   2
ATOM      2  C   UNL     1     114.278 135.686  96.256  1.00  0.00     0.087 C 
BRANCH   2   3
ATOM      3  C   UNL     1     113.352 136.662  96.834  1.00  0.00     0.163 C 
ATOM      4  O   UNL     1     112.415 137.159  96.157  1.00  0.00    -0.294 OA
BRANCH   3   5
ATOM      5  C   UNL     1     113.457 137.120  98.235  1.00  0.00     0.018 A 
ATOM      6  C   UNL     1     114.139 136.365  99.172  1.00  0.00     0.015 A 
ATOM      7  C   UNL     1     112.884 138.299  98.638  1.00  0.00     0.015 A 
ATOM      8  C   UNL     1     114.233 136.796 100.473  1.00  0.00     0.040 A 
ATOM      9  C   UNL     1     112.973 138.736  99.932  1.00  0.00     0.040 A 
ATOM     10  C   UNL     1     113.651 137.980 100.850  1.00  0.00     0.123 A 
ATOM     11  F   UNL     1     113.716 138.448 102.136  1.00  0.00    -0.207 F 
ENDBRANCH   3   5
ENDBRANCH   2   3
ENDBRANCH   1   2
BRANCH   1  12
ATOM     12  C   UNL     1     115.057 135.473  93.958  1.00  0.00     0.262 C 
BRANCH  12  13
ATOM     13  N   UNL     1     114.657 136.090  92.700  1.00  0.00    -0.335 N 
ATOM     14  C   UNL     1     114.036 137.366  92.890  1.00  0.00     0.265 C 
ATOM     15  C   UNL     1     115.781 136.199  91.827  1.00  0.00     0.265 C 
ATOM     16  C   UNL     1     114.959 138.333  93.579  1.00  0.00     0.102 C 
ATOM     17  C   UNL     1     116.363 137.536  91.648  1.00  0.00     0.102 C 
ATOM     18  C   UNL     1     116.187 138.527  92.739  1.00  0.00     0.100 C 
ATOM     19  H   UNL     1     113.906 135.445  92.312  1.00  0.00     0.348 HD
BRANCH  18  20
ATOM     20  O   UNL     1     116.042 139.795  92.126  1.00  0.00    -0.385 OA
ATOM     21  H   UNL     1     115.104 140.075  92.273  1.00  0.00     0.211 HD
ENDBRANCH  18  20
BRANCH  18  22
ATOM     22  C   UNL     1     117.418 138.673  93.595  1.00  0.00    -0.016 A 
ATOM     23  C   UNL     1     117.348 139.055  94.919  1.00  0.00     0.008 A 
ATOM     24  C   UNL     1     118.686 138.437  93.113  1.00  0.00     0.008 A 
ATOM     25  C   UNL     1     118.447 139.200  95.734  1.00  0.00     0.021 A 
ATOM     26  C   UNL     1     119.804 138.577  93.912  1.00  0.00     0.021 A 
ATOM     27  C   UNL     1     119.683 138.958  95.221  1.00  0.00     0.041 A 
ATOM     28  Cl  UNL     1     121.092 139.136  96.239  1.00  0.00    -0.084 Cl
ENDBRANCH  18  22
ENDBRANCH  12  13
ENDBRANCH   1  12
TORSDOF 7
ENDMDL
MODEL 5
REMARK VINA RESULT:      -4.8      3.430      6.871
REMARK SMILES O=C(CCC[NH+]1CCC(O)(c2ccc(Cl)cc2)CC1)c1ccc(F)cc1
REMARK SMILES IDX 4 1 3 2 2 3 1 4 20 5 21 6 26 7 22 8 25 9 23 10 24 11 5 12
REMARK SMILES IDX 6 13 7 14 19 15 8 16 18 17 9 18 10 20 11 22 12 23 17 24
REMARK SMILES IDX 13 25 16 26 14 27 15 28
REMARK H PARENT 6 19 10 21
ROOT
ATOM      1  C   UNL     1     129.223 134.128  96.116  1.00  0.00     0.070 C 
ENDROOT
BRANCH   1   2
ATOM      2  C   UNL     1     128.383 134.780  97.192  1.00  0.00     0.087 C 
BRANCH   2   3
ATOM      3  C   UNL     1     128.900 136.067  97.663  1.00  0.00     0.163 C 
ATOM      4  O   UNL     1     129.098 137.025  96.872  1.00  0.00    -0.294 OA
BRANCH   3   5
ATOM      5  C   UNL     1     129.218 136.321  99.084  1.00  0.00     0.018 A 
ATOM      6  C   UNL     1     128.777 137.475  99.707  1.00  0.00     0.015 A 
ATOM      7  C   UNL     1     129.953 135.423  99.815  1.00  0.00     0.015 A 
ATOM      8  C   UNL     1     129.076 137.704 101.029  1.00  0.00     0.040 A 
ATOM      9  C   UNL     1     130.254 135.645 101.132  1.00  0.00     0.040 A 
ATOM     10  C   UNL     1     129.813 136.789 101.738  1.00  0.00     0.123 A 
ATOM     11  F   UNL     1     130.137 136.978 103.056  1.00  0.00    -0.207 F 
ENDBRANCH   3   5
ENDBRANCH   2   3
ENDBRANCH   1   2
BRANCH   1  12
ATOM     12  C   UNL     1     128.567 132.852  95.716  1.00  0.00     0.262 C 
BRANCH  12  13
ATOM     13  N   UNL     1     128.616 132.619  94.278  1.00  0.00    -0.335 N 
ATOM     14  C   UNL     1     127.345 132.239  93.742  1.00  0.00     0.265 C 
ATOM     15  C   UNL     1     129.123 133.774  93.611  1.00  0.00     0.265 C 
ATOM     16  C   UNL     1     126.305 133.300  93.978  1.00  0.00     0.102 C 
ATOM     17  C   UNL     1     128.156 134.600  92.875  1.00  0.00     0.102 C 
ATOM     18  C   UNL     1     126.737 134.571  93.311  1.00  0.00     0.100 C 
ATOM     19  H   UNL     1     129.254 131.775  94.166  1.00  0.00     0.348 HD
BRANCH  18  20
ATOM     20  O   UNL     1     125.944 134.687  92.143  1.00  0.00    -0.385 OA
ATOM     21  H   UNL     1     126.550 134.984  91.419  1.00  0.00     0.211 HD
ENDBRANCH  18  20
BRANCH  18  22
ATOM     22  C   UNL     1     126.357 135.776  94.131  1.00  0.00    -0.016 A 
ATOM     23  C   UNL     1     125.397 135.716  95.119  1.00  0.00     0.008 A 
ATOM     24  C   UNL     1     126.941 137.010  93.948  1.00  0.00     0.008 A 
ATOM     25  C   UNL     1     125.021 136.792  95.890  1.00  0.00     0.021 A 
ATOM     26  C   UNL     1     126.580 138.105  94.709  1.00  0.00     0.021 A 
ATOM     27  C   UNL     1     125.621 137.995  95.679  1.00  0.00     0.041 A 
ATOM     28  Cl  UNL     1     125.159 139.374  96.647  1.00  0.00    -0.084 Cl
ENDBRANCH  18  22
ENDBRANCH  12  13
ENDBRANCH   1  12
TORSDOF 7
ENDMDL
MODEL 6
REMARK VINA RESULT:      -4.8      2.528      3.736
REMARK SMILES O=C(CCC[NH+]1CCC(O)(c2ccc(Cl)cc2)CC1)c1ccc(F)cc1
REMARK SMILES IDX 4 1 3 2 2 3 1 4 20 5 21 6 26 7 22 8 25 9 23 10 24 11 5 12
REMARK SMILES IDX 6 13 7 14 19 15 8 16 18 17 9 18 10 20 11 22 12 23 17 24
REMARK SMILES IDX 13 25 16 26 14 27 15 28
REMARK H PARENT 6 19 10 21
ROOT
ATOM      1  C   UNL     1     126.266 132.905  93.826  1.00  0.00     0.070 C 
ENDROOT
BRANCH   1   2
ATOM      2  C   UNL     1     125.223 133.975  94.063  1.00  0.00     0.087 C 
BRANCH   2   3
ATOM      3  C   UNL     1     125.631 135.318  93.643  1.00  0.00     0.163 C 
ATOM      4  O   UNL     1     126.092 135.535  92.492  1.00  0.00    -0.294 OA
BRANCH   3   5
ATOM      5  C   UNL     1     125.527 136.492  94.534  1.00  0.00     0.018 A 
ATOM      6  C   UNL     1     124.722 137.564  94.193  1.00  0.00     0.015 A 
ATOM      7  C   UNL     1     126.223 136.547  95.715  1.00  0.00     0.015 A 
ATOM      8  C   UNL     1     124.630 138.653  95.026  1.00  0.00     0.040 A 
ATOM      9  C   UNL     1     126.136 137.628  96.551  1.00  0.00     0.040 A 
ATOM     10  C   UNL     1     125.336 138.682  96.202  1.00  0.00     0.123 A 
ATOM     11  F   UNL     1     125.277 139.747  97.063  1.00  0.00    -0.207 F 
ENDBRANCH   3   5
ENDBRANCH   2   3
ENDBRANCH   1   2
BRANCH   1  12
ATOM     12  C   UNL     1     127.373 133.102  94.804  1.00  0.00     0.262 C 
BRANCH  12  13
ATOM     13  N   UNL     1     128.690 132.904  94.212  1.00  0.00    -0.335 N 
ATOM     14  C   UNL     1     129.162 134.069  93.527  1.00  0.00     0.265 C 
ATOM     15  C   UNL     1     129.620 132.492  95.212  1.00  0.00     0.265 C 
ATOM     16  C   UNL     1     129.271 135.249  94.454  1.00  0.00     0.102 C 
ATOM     17  C   UNL     1     130.598 133.490  95.669  1.00  0.00     0.102 C 
ATOM     18  C   UNL     1     130.237 134.925  95.554  1.00  0.00     0.100 C 
ATOM     19  H   UNL     1     128.539 132.160  93.468  1.00  0.00     0.348 HD
BRANCH  18  20
ATOM     20  O   UNL     1     131.428 135.626  95.244  1.00  0.00    -0.385 OA
ATOM     21  H   UNL     1     131.596 136.245  95.999  1.00  0.00     0.211 HD
ENDBRANCH  18  20
BRANCH  18  22
ATOM     22  C   UNL     1     129.794 135.519  96.865  1.00  0.00    -0.016 A 
ATOM     23  C   UNL     1     130.257 136.740  97.309  1.00  0.00     0.008 A 
ATOM     24  C   UNL     1     128.901 134.885  97.701  1.00  0.00     0.008 A 
ATOM     25  C   UNL     1     129.878 137.317  98.499  1.00  0.00     0.021 A 
ATOM     26  C   UNL     1     128.506 135.444  98.900  1.00  0.00     0.021 A 
ATOM     27  C   UNL     1     128.994 136.659  99.298  1.00  0.00     0.041 A 
ATOM     28  Cl  UNL     1     128.498 137.375 100.812  1.00  0.00    -0.084 Cl
ENDBRANCH  18  22
ENDBRANCH  12  13
ENDBRANCH   1  12
TORSDOF 7
ENDMDL
MODEL 7
REMARK VINA RESULT:      -4.8      3.308      6.492
REMARK SMILES O=C(CCC[NH+]1CCC(O)(c2ccc(Cl)cc2)CC1)c1ccc(F)cc1
REMARK SMILES IDX 4 1 3 2 2 3 1 4 20 5 21 6 26 7 22 8 25 9 23 10 24 11 5 12
REMARK SMILES IDX 6 13 7 14 19 15 8 16 18 17 9 18 10 20 11 22 12 23 17 24
REMARK SMILES IDX 13 25 16 26 14 27 15 28
REMARK H PARENT 6 19 10 21
ROOT
ATOM      1  C   UNL     1     129.580 135.126  97.123  1.00  0.00     0.070 C 
ENDROOT
BRANCH   1   2
ATOM      2  C   UNL     1     128.243 135.721  97.504  1.00  0.00     0.087 C 
BRANCH   2   3
ATOM      3  C   UNL     1     128.106 137.145  97.192  1.00  0.00     0.163 C 
ATOM      4  O   UNL     1     128.894 138.001  97.670  1.00  0.00    -0.294 OA
BRANCH   3   5
ATOM      5  C   UNL     1     127.044 137.662  96.303  1.00  0.00     0.018 A 
ATOM      6  C   UNL     1     127.334 138.027  95.001  1.00  0.00     0.015 A 
ATOM      7  C   UNL     1     125.752 137.791  96.746  1.00  0.00     0.015 A 
ATOM      8  C   UNL     1     126.342 138.508  94.180  1.00  0.00     0.040 A 
ATOM      9  C   UNL     1     124.759 138.268  95.934  1.00  0.00     0.040 A 
ATOM     10  C   UNL     1     125.058 138.627  94.648  1.00  0.00     0.123 A 
ATOM     11  F   UNL     1     124.038 139.103  93.866  1.00  0.00    -0.207 F 
ENDBRANCH   3   5
ENDBRANCH   2   3
ENDBRANCH   1   2
BRANCH   1  12
ATOM     12  C   UNL     1     129.748 135.250  95.647  1.00  0.00     0.262 C 
BRANCH  12  13
ATOM     13  N   UNL     1     130.290 134.043  95.038  1.00  0.00    -0.335 N 
ATOM     14  C   UNL     1     129.606 132.860  95.463  1.00  0.00     0.265 C 
ATOM     15  C   UNL     1     130.267 134.158  93.616  1.00  0.00     0.265 C 
ATOM     16  C   UNL     1     128.144 132.910  95.111  1.00  0.00     0.102 C 
ATOM     17  C   UNL     1     129.245 133.383  92.898  1.00  0.00     0.102 C 
ATOM     18  C   UNL     1     127.999 133.029  93.623  1.00  0.00     0.100 C 
ATOM     19  H   UNL     1     131.279 133.971  95.421  1.00  0.00     0.348 HD
BRANCH  18  20
ATOM     20  O   UNL     1     127.606 131.747  93.168  1.00  0.00    -0.385 OA
ATOM     21  H   UNL     1     128.355 131.132  93.373  1.00  0.00     0.211 HD
ENDBRANCH  18  20
BRANCH  18  22
ATOM     22  C   UNL     1     126.840 133.918  93.255  1.00  0.00    -0.016 A 
ATOM     23  C   UNL     1     125.832 134.214  94.149  1.00  0.00     0.008 A 
ATOM     24  C   UNL     1     126.713 134.491  92.009  1.00  0.00     0.008 A 
ATOM     25  C   UNL     1     124.757 135.021  93.853  1.00  0.00     0.021 A 
ATOM     26  C   UNL     1     125.643 135.303  91.688  1.00  0.00     0.021 A 
ATOM     27  C   UNL     1     124.667 135.567  92.610  1.00  0.00     0.041 A 
ATOM     28  Cl  UNL     1     123.311 136.596  92.214  1.00  0.00    -0.084 Cl
ENDBRANCH  18  22
ENDBRANCH  12  13
ENDBRANCH   1  12
TORSDOF 7
ENDMDL
MODEL 8
REMARK VINA RESULT:      -4.7      3.271      6.649
REMARK SMILES O=C(CCC[NH+]1CCC(O)(c2ccc(Cl)cc2)CC1)c1ccc(F)cc1
REMARK SMILES IDX 4 1 3 2 2 3 1 4 20 5 21 6 26 7 22 8 25 9 23 10 24 11 5 12
REMARK SMILES IDX 6 13 7 14 19 15 8 16 18 17 9 18 10 20 11 22 12 23 17 24
REMARK SMILES IDX 13 25 16 26 14 27 15 28
REMARK H PARENT 6 19 10 21
ROOT
ATOM      1  C   UNL     1     128.470 135.397  96.284  1.00  0.00     0.070 C 
ENDROOT
BRANCH   1   2
ATOM      2  C   UNL     1     128.301 136.131  97.596  1.00  0.00     0.087 C 
BRANCH   2   3
ATOM      3  C   UNL     1     127.938 137.543  97.454  1.00  0.00     0.163 C 
ATOM      4  O   UNL     1     128.375 138.417  98.246  1.00  0.00    -0.294 OA
BRANCH   3   5
ATOM      5  C   UNL     1     127.043 138.026  96.381  1.00  0.00     0.018 A 
ATOM      6  C   UNL     1     125.676 137.836  96.468  1.00  0.00     0.015 A 
ATOM      7  C   UNL     1     127.545 138.672  95.280  1.00  0.00     0.015 A 
ATOM      8  C   UNL     1     124.849 138.287  95.466  1.00  0.00     0.040 A 
ATOM      9  C   UNL     1     126.728 139.125  94.278  1.00  0.00     0.040 A 
ATOM     10  C   UNL     1     125.377 138.930  94.376  1.00  0.00     0.123 A 
ATOM     11  F   UNL     1     124.592 139.395  93.353  1.00  0.00    -0.207 F 
ENDBRANCH   3   5
ENDBRANCH   2   3
ENDBRANCH   1   2
BRANCH   1  12
ATOM     12  C   UNL     1     128.717 133.957  96.579  1.00  0.00     0.262 C 
BRANCH  12  13
ATOM     13  N   UNL     1     129.628 133.336  95.627  1.00  0.00    -0.335 N 
ATOM     14  C   UNL     1     129.135 132.086  95.133  1.00  0.00     0.265 C 
ATOM     15  C   UNL     1     129.903 134.233  94.552  1.00  0.00     0.265 C 
ATOM     16  C   UNL     1     127.815 132.252  94.431  1.00  0.00     0.102 C 
ATOM     17  C   UNL     1     129.259 133.948  93.262  1.00  0.00     0.102 C 
ATOM     18  C   UNL     1     127.987 133.183  93.269  1.00  0.00     0.100 C 
ATOM     19  H   UNL     1     130.497 133.110  96.197  1.00  0.00     0.348 HD
BRANCH  18  20
ATOM     20  O   UNL     1     127.992 132.365  92.113  1.00  0.00    -0.385 OA
ATOM     21  H   UNL     1     127.098 131.941  92.063  1.00  0.00     0.211 HD
ENDBRANCH  18  20
BRANCH  18  22
ATOM     22  C   UNL     1     126.779 134.064  93.089  1.00  0.00    -0.016 A 
ATOM     23  C   UNL     1     125.825 134.208  94.074  1.00  0.00     0.008 A 
ATOM     24  C   UNL     1     126.550 134.780  91.934  1.00  0.00     0.008 A 
ATOM     25  C   UNL     1     124.707 135.001  93.949  1.00  0.00     0.021 A 
ATOM     26  C   UNL     1     125.436 135.582  91.786  1.00  0.00     0.021 A 
ATOM     27  C   UNL     1     124.516 135.692  92.793  1.00  0.00     0.041 A 
ATOM     28  Cl  UNL     1     123.105 136.707  92.615  1.00  0.00    -0.084 Cl
ENDBRANCH  18  22
ENDBRANCH  12  13
ENDBRANCH   1  12
TORSDOF 7
ENDMDL
MODEL 9
REMARK VINA RESULT:      -4.7      3.307      6.534
REMARK SMILES O=C(CCC[NH+]1CCC(O)(c2ccc(Cl)cc2)CC1)c1ccc(F)cc1
REMARK SMILES IDX 4 1 3 2 2 3 1 4 20 5 21 6 26 7 22 8 25 9 23 10 24 11 5 12
REMARK SMILES IDX 6 13 7 14 19 15 8 16 18 17 9 18 10 20 11 22 12 23 17 24
REMARK SMILES IDX 13 25 16 26 14 27 15 28
REMARK H PARENT 6 19 10 21
ROOT
ATOM      1  C   UNL     1     129.116 134.509  96.028  1.00  0.00     0.070 C 
ENDROOT
BRANCH   1   2
ATOM      2  C   UNL     1     128.736 134.869  97.447  1.00  0.00     0.087 C 
BRANCH   2   3
ATOM      3  C   UNL     1     129.541 135.943  98.032  1.00  0.00     0.163 C 
ATOM      4  O   UNL     1     130.787 135.996  97.866  1.00  0.00    -0.294 OA
BRANCH   3   5
ATOM      5  C   UNL     1     128.947 137.023  98.847  1.00  0.00     0.018 A 
ATOM      6  C   UNL     1     128.368 138.123  98.241  1.00  0.00     0.015 A 
ATOM      7  C   UNL     1     128.956 136.962 100.218  1.00  0.00     0.015 A 
ATOM      8  C   UNL     1     127.817 139.125  99.005  1.00  0.00     0.040 A 
ATOM      9  C   UNL     1     128.410 137.955 100.985  1.00  0.00     0.040 A 
ATOM     10  C   UNL     1     127.839 139.038 100.373  1.00  0.00     0.123 A 
ATOM     11  F   UNL     1     127.305 140.013 101.175  1.00  0.00    -0.207 F 
ENDBRANCH   3   5
ENDBRANCH   2   3
ENDBRANCH   1   2
BRANCH   1  12
ATOM     12  C   UNL     1     128.565 133.159  95.721  1.00  0.00     0.262 C 
BRANCH  12  13
ATOM     13  N   UNL     1     128.506 132.886  94.290  1.00  0.00    -0.335 N 
ATOM     14  C   UNL     1     127.207 132.457  93.869  1.00  0.00     0.265 C 
ATOM     15  C   UNL     1     128.924 134.035  93.554  1.00  0.00     0.265 C 
ATOM     16  C   UNL     1     126.159 133.496  94.161  1.00  0.00     0.102 C 
ATOM     17  C   UNL     1     127.877 134.813  92.877  1.00  0.00     0.102 C 
ATOM     18  C   UNL     1     126.499 134.759  93.427  1.00  0.00     0.100 C 
ATOM     19  H   UNL     1     129.156 132.057  94.149  1.00  0.00     0.348 HD
BRANCH  18  20
ATOM     20  O   UNL     1     125.612 134.819  92.325  1.00  0.00    -0.385 OA
ATOM     21  H   UNL     1     126.097 134.440  91.550  1.00  0.00     0.211 HD
ENDBRANCH  18  20
BRANCH  18  22
ATOM     22  C   UNL     1     126.152 135.977  94.243  1.00  0.00    -0.016 A 
ATOM     23  C   UNL     1     126.796 137.183  94.068  1.00  0.00     0.008 A 
ATOM     24  C   UNL     1     125.173 135.964  95.212  1.00  0.00     0.008 A 
ATOM     25  C   UNL     1     126.509 138.318  94.792  1.00  0.00     0.021 A 
ATOM     26  C   UNL     1     124.868 137.090  95.951  1.00  0.00     0.021 A 
ATOM     27  C   UNL     1     125.536 138.265  95.740  1.00  0.00     0.041 A 
ATOM     28  Cl  UNL     1     125.155 139.695  96.669  1.00  0.00    -0.084 Cl
ENDBRANCH  18  22
ENDBRANCH  12  13
ENDBRANCH   1  12
TORSDOF 7
ENDMDL
