MODEL 1
REMARK VINA RESULT:      -5.0      0.000      0.000
REMARK SMILES Clc1ccccc1C(c1ccccc1)(c1ccccc1)n1ccnc1
REMARK SMILES IDX 1 1 2 2 3 3 4 4 5 5 6 6 7 7 8 8 9 9 10 10 14 11 11 12 13 13
REMARK SMILES IDX 12 14 15 15 16 16 20 17 17 18 19 19 18 20 21 21 22 22 25 23
REMARK SMILES IDX 23 24 24 25
REMARK H PARENT
ROOT
ATOM      1  Cl  UNL     1     114.786 136.470  92.791  1.00  0.00    -0.084 Cl
ATOM      2  C   UNL     1     115.857 136.577  94.170  1.00  0.00     0.047 A 
ATOM      3  C   UNL     1     117.224 136.503  94.029  1.00  0.00     0.021 A 
ATOM      4  C   UNL     1     118.072 136.619  95.108  1.00  0.00     0.002 A 
ATOM      5  C   UNL     1     117.515 136.813  96.348  1.00  0.00     0.001 A 
ATOM      6  C   UNL     1     116.123 136.888  96.491  1.00  0.00     0.008 A 
ATOM      7  C   UNL     1     115.291 136.771  95.420  1.00  0.00     0.006 A 
ENDROOT
BRANCH   7   8
ATOM      8  C   UNL     1     113.815 136.829  95.600  1.00  0.00     0.123 C 
BRANCH   8   9
ATOM      9  C   UNL     1     113.534 136.817  97.064  1.00  0.00    -0.013 A 
ATOM     10  C   UNL     1     114.009 135.912  97.956  1.00  0.00     0.007 A 
ATOM     11  C   UNL     1     112.708 137.864  97.514  1.00  0.00     0.007 A 
ATOM     12  C   UNL     1     113.675 136.037  99.293  1.00  0.00     0.000 A 
ATOM     13  C   UNL     1     112.382 137.980  98.841  1.00  0.00     0.000 A 
ATOM     14  C   UNL     1     112.858 137.069  99.753  1.00  0.00     0.000 A 
ENDBRANCH   8   9
BRANCH   8  15
ATOM     15  C   UNL     1     113.162 135.590  95.100  1.00  0.00    -0.013 A 
ATOM     16  C   UNL     1     113.790 134.373  95.052  1.00  0.00     0.007 A 
ATOM     17  C   UNL     1     111.855 135.659  94.689  1.00  0.00     0.007 A 
ATOM     18  C   UNL     1     113.147 133.226  94.602  1.00  0.00     0.000 A 
ATOM     19  C   UNL     1     111.184 134.513  94.230  1.00  0.00     0.000 A 
ATOM     20  C   UNL     1     111.838 133.313  94.192  1.00  0.00     0.000 A 
ENDBRANCH   8  15
BRANCH   8  21
ATOM     21  N   UNL     1     113.279 137.967  94.915  1.00  0.00    -0.319 N 
ATOM     22  C   UNL     1     113.879 139.183  94.796  1.00  0.00     0.109 A 
ATOM     23  C   UNL     1     112.122 138.040  94.257  1.00  0.00     0.200 A 
ATOM     24  C   UNL     1     113.069 140.013  94.052  1.00  0.00     0.131 A 
ATOM     25  N   UNL     1     112.002 139.290  93.735  1.00  0.00    -0.245 NA
ENDBRANCH   8  21
ENDBRANCH   7   8
TORSDOF 4
ENDMDL
MODEL 2
REMARK VINA RESULT:      -4.8     12.012     15.062
REMARK SMILES Clc1ccccc1C(c1ccccc1)(c1ccccc1)n1ccnc1
REMARK SMILES IDX 1 1 2 2 3 3 4 4 5 5 6 6 7 7 8 8 9 9 10 10 14 11 11 12 13 13
REMARK SMILES IDX 12 14 15 15 16 16 20 17 17 18 19 19 18 20 21 21 22 22 25 23
REMARK SMILES IDX 23 24 24 25
REMARK H PARENT
ROOT
ATOM      1  Cl  UNL     1     127.486 135.898  93.128  1.00  0.00    -0.084 Cl
ATOM      2  C   UNL     1     127.797 134.459  94.074  1.00  0.00     0.047 A 
ATOM      3  C   UNL     1     127.535 133.202  93.581  1.00  0.00     0.021 A 
ATOM      4  C   UNL     1     127.809 132.065  94.311  1.00  0.00     0.002 A 
ATOM      5  C   UNL     1     128.358 132.218  95.560  1.00  0.00     0.001 A 
ATOM      6  C   UNL     1     128.625 133.499  96.061  1.00  0.00     0.008 A 
ATOM      7  C   UNL     1     128.350 134.617  95.335  1.00  0.00     0.006 A 
ENDROOT
BRANCH   7   8
ATOM      8  C   UNL     1     128.618 135.968  95.898  1.00  0.00     0.123 C 
BRANCH   8   9
ATOM      9  C   UNL     1     129.140 135.790  97.283  1.00  0.00    -0.013 A 
ATOM     10  C   UNL     1     128.394 135.517  98.383  1.00  0.00     0.007 A 
ATOM     11  C   UNL     1     130.537 135.910  97.407  1.00  0.00     0.007 A 
ATOM     12  C   UNL     1     129.020 135.361  99.607  1.00  0.00     0.000 A 
ATOM     13  C   UNL     1     131.149 135.754  98.624  1.00  0.00     0.000 A 
ATOM     14  C   UNL     1     130.403 135.477  99.744  1.00  0.00     0.000 A 
ENDBRANCH   8   9
BRANCH   8  15
ATOM     15  C   UNL     1     127.358 136.735  96.087  1.00  0.00    -0.013 A 
ATOM     16  C   UNL     1     126.116 136.220  95.821  1.00  0.00     0.007 A 
ATOM     17  C   UNL     1     127.436 138.014  96.576  1.00  0.00     0.007 A 
ATOM     18  C   UNL     1     124.953 136.951  96.029  1.00  0.00     0.000 A 
ATOM     19  C   UNL     1     126.274 138.773  96.794  1.00  0.00     0.000 A 
ATOM     20  C   UNL     1     125.049 138.232  96.519  1.00  0.00     0.000 A 
ENDBRANCH   8  15
BRANCH   8  21
ATOM     21  N   UNL     1     129.500 136.696  95.035  1.00  0.00    -0.319 N 
ATOM     22  C   UNL     1     129.415 138.024  94.743  1.00  0.00     0.109 A 
ATOM     23  C   UNL     1     130.563 136.225  94.384  1.00  0.00     0.200 A 
ATOM     24  C   UNL     1     130.447 138.364  93.896  1.00  0.00     0.131 A 
ATOM     25  N   UNL     1     131.134 137.246  93.693  1.00  0.00    -0.245 NA
ENDBRANCH   8  21
ENDBRANCH   7   8
TORSDOF 4
ENDMDL
MODEL 3
REMARK VINA RESULT:      -4.8     11.820     14.783
REMARK SMILES Clc1ccccc1C(c1ccccc1)(c1ccccc1)n1ccnc1
REMARK SMILES IDX 1 1 2 2 3 3 4 4 5 5 6 6 7 7 8 8 9 9 10 10 14 11 11 12 13 13
REMARK SMILES IDX 12 14 15 15 16 16 20 17 17 18 19 19 18 20 21 21 22 22 25 23
REMARK SMILES IDX 23 24 24 25
REMARK H PARENT
ROOT
ATOM      1  Cl  UNL     1     126.579 135.809  93.226  1.00  0.00    -0.084 Cl
ATOM      2  C   UNL     1     127.184 134.421  94.101  1.00  0.00     0.047 A 
ATOM      3  C   UNL     1     126.851 133.137  93.734  1.00  0.00     0.021 A 
ATOM      4  C   UNL     1     127.352 132.039  94.401  1.00  0.00     0.002 A 
ATOM      5  C   UNL     1     128.203 132.259  95.456  1.00  0.00     0.001 A 
ATOM      6  C   UNL     1     128.541 133.567  95.828  1.00  0.00     0.008 A 
ATOM      7  C   UNL     1     128.041 134.646  95.165  1.00  0.00     0.006 A 
ENDROOT
BRANCH   7   8
ATOM      8  C   UNL     1     128.395 136.026  95.595  1.00  0.00     0.123 C 
BRANCH   8   9
ATOM      9  C   UNL     1     129.118 135.928  96.895  1.00  0.00    -0.013 A 
ATOM     10  C   UNL     1     130.430 136.205  97.096  1.00  0.00     0.007 A 
ATOM     11  C   UNL     1     128.322 135.523  97.983  1.00  0.00     0.007 A 
ATOM     12  C   UNL     1     130.963 136.084  98.367  1.00  0.00     0.000 A 
ATOM     13  C   UNL     1     128.858 135.406  99.239  1.00  0.00     0.000 A 
ATOM     14  C   UNL     1     130.186 135.684  99.454  1.00  0.00     0.000 A 
ENDBRANCH   8   9
BRANCH   8  15
ATOM     15  C   UNL     1     127.179 136.818  95.922  1.00  0.00    -0.013 A 
ATOM     16  C   UNL     1     125.913 136.293  95.912  1.00  0.00     0.007 A 
ATOM     17  C   UNL     1     127.330 138.135  96.275  1.00  0.00     0.007 A 
ATOM     18  C   UNL     1     124.797 137.051  96.245  1.00  0.00     0.000 A 
ATOM     19  C   UNL     1     126.216 138.921  96.614  1.00  0.00     0.000 A 
ATOM     20  C   UNL     1     124.965 138.369  96.595  1.00  0.00     0.000 A 
ENDBRANCH   8  15
BRANCH   8  21
ATOM     21  N   UNL     1     129.139 136.688  94.565  1.00  0.00    -0.319 N 
ATOM     22  C   UNL     1     129.039 138.004  94.228  1.00  0.00     0.109 A 
ATOM     23  C   UNL     1     130.067 136.155  93.772  1.00  0.00     0.200 A 
ATOM     24  C   UNL     1     129.924 138.275  93.209  1.00  0.00     0.131 A 
ATOM     25  N   UNL     1     130.541 137.128  92.949  1.00  0.00    -0.245 NA
ENDBRANCH   8  21
ENDBRANCH   7   8
TORSDOF 4
ENDMDL
MODEL 4
REMARK VINA RESULT:      -4.8      1.112      4.093
REMARK SMILES Clc1ccccc1C(c1ccccc1)(c1ccccc1)n1ccnc1
REMARK SMILES IDX 1 1 2 2 3 3 4 4 5 5 6 6 7 7 8 8 9 9 10 10 14 11 11 12 13 13
REMARK SMILES IDX 12 14 15 15 16 16 20 17 17 18 19 19 18 20 21 21 22 22 25 23
REMARK SMILES IDX 23 24 24 25
REMARK H PARENT
ROOT
ATOM      1  Cl  UNL     1     115.088 136.390  92.159  1.00  0.00    -0.084 Cl
ATOM      2  C   UNL     1     114.216 135.162  93.048  1.00  0.00     0.047 A 
ATOM      3  C   UNL     1     113.917 133.942  92.487  1.00  0.00     0.021 A 
ATOM      4  C   UNL     1     113.259 132.959  93.194  1.00  0.00     0.002 A 
ATOM      5  C   UNL     1     112.903 133.230  94.492  1.00  0.00     0.001 A 
ATOM      6  C   UNL     1     113.208 134.472  95.063  1.00  0.00     0.008 A 
ATOM      7  C   UNL     1     113.857 135.438  94.357  1.00  0.00     0.006 A 
ENDROOT
BRANCH   7   8
ATOM      8  C   UNL     1     114.147 136.760  94.976  1.00  0.00     0.123 C 
BRANCH   8   9
ATOM      9  C   UNL     1     115.626 136.882  95.116  1.00  0.00    -0.013 A 
ATOM     10  C   UNL     1     116.529 135.893  94.898  1.00  0.00     0.007 A 
ATOM     11  C   UNL     1     116.079 138.160  95.497  1.00  0.00     0.007 A 
ATOM     12  C   UNL     1     117.878 136.159  95.052  1.00  0.00     0.000 A 
ATOM     13  C   UNL     1     117.417 138.414  95.647  1.00  0.00     0.000 A 
ATOM     14  C   UNL     1     118.340 137.420  95.428  1.00  0.00     0.000 A 
ENDBRANCH   8   9
BRANCH   8  15
ATOM     15  C   UNL     1     113.650 136.821  96.377  1.00  0.00    -0.013 A 
ATOM     16  C   UNL     1     112.491 137.458  96.737  1.00  0.00     0.007 A 
ATOM     17  C   UNL     1     114.372 136.189  97.356  1.00  0.00     0.007 A 
ATOM     18  C   UNL     1     112.039 137.480  98.051  1.00  0.00     0.000 A 
ATOM     19  C   UNL     1     113.934 136.197  98.692  1.00  0.00     0.000 A 
ATOM     20  C   UNL     1     112.774 136.842  99.021  1.00  0.00     0.000 A 
ENDBRANCH   8  15
BRANCH   8  21
ATOM     21  N   UNL     1     113.548 137.808  94.205  1.00  0.00    -0.319 N 
ATOM     22  C   UNL     1     114.166 138.949  93.793  1.00  0.00     0.109 A 
ATOM     23  C   UNL     1     112.301 137.852  93.736  1.00  0.00     0.200 A 
ATOM     24  C   UNL     1     113.276 139.703  93.060  1.00  0.00     0.131 A 
ATOM     25  N   UNL     1     112.144 139.009  93.040  1.00  0.00    -0.245 NA
ENDBRANCH   8  21
ENDBRANCH   7   8
TORSDOF 4
ENDMDL
MODEL 5
REMARK VINA RESULT:      -4.7     12.021     15.409
REMARK SMILES Clc1ccccc1C(c1ccccc1)(c1ccccc1)n1ccnc1
REMARK SMILES IDX 1 1 2 2 3 3 4 4 5 5 6 6 7 7 8 8 9 9 10 10 14 11 11 12 13 13
REMARK SMILES IDX 12 14 15 15 16 16 20 17 17 18 19 19 18 20 21 21 22 22 25 23
REMARK SMILES IDX 23 24 24 25
REMARK H PARENT
ROOT
ATOM      1  Cl  UNL     1     128.296 134.440  92.024  1.00  0.00    -0.084 Cl
ATOM      2  C   UNL     1     126.980 135.073  92.988  1.00  0.00     0.047 A 
ATOM      3  C   UNL     1     125.706 135.186  92.482  1.00  0.00     0.021 A 
ATOM      4  C   UNL     1     124.660 135.653  93.248  1.00  0.00     0.002 A 
ATOM      5  C   UNL     1     124.923 136.009  94.548  1.00  0.00     0.001 A 
ATOM      6  C   UNL     1     126.221 135.893  95.062  1.00  0.00     0.008 A 
ATOM      7  C   UNL     1     127.249 135.432  94.299  1.00  0.00     0.006 A 
ENDROOT
BRANCH   7   8
ATOM      8  C   UNL     1     128.625 135.342  94.859  1.00  0.00     0.123 C 
BRANCH   8   9
ATOM      9  C   UNL     1     129.038 133.910  94.824  1.00  0.00    -0.013 A 
ATOM     10  C   UNL     1     130.290 133.452  94.575  1.00  0.00     0.007 A 
ATOM     11  C   UNL     1     128.006 132.992  95.095  1.00  0.00     0.007 A 
ATOM     12  C   UNL     1     130.530 132.089  94.591  1.00  0.00     0.000 A 
ATOM     13  C   UNL     1     128.253 131.643  95.110  1.00  0.00     0.000 A 
ATOM     14  C   UNL     1     129.518 131.168  94.859  1.00  0.00     0.000 A 
ENDBRANCH   8   9
BRANCH   8  15
ATOM     15  C   UNL     1     128.642 135.684  96.306  1.00  0.00    -0.013 A 
ATOM     16  C   UNL     1     128.782 134.750  97.299  1.00  0.00     0.007 A 
ATOM     17  C   UNL     1     128.537 137.003  96.669  1.00  0.00     0.007 A 
ATOM     18  C   UNL     1     128.819 135.101  98.643  1.00  0.00     0.000 A 
ATOM     19  C   UNL     1     128.571 137.381  98.021  1.00  0.00     0.000 A 
ATOM     20  C   UNL     1     128.711 136.426  98.990  1.00  0.00     0.000 A 
ENDBRANCH   8  15
BRANCH   8  21
ATOM     21  N   UNL     1     129.506 136.219  94.146  1.00  0.00    -0.319 N 
ATOM     22  C   UNL     1     130.859 136.090  94.056  1.00  0.00     0.109 A 
ATOM     23  C   UNL     1     129.171 137.292  93.432  1.00  0.00     0.200 A 
ATOM     24  C   UNL     1     131.355 137.108  93.272  1.00  0.00     0.131 A 
ATOM     25  N   UNL     1     130.302 137.829  92.903  1.00  0.00    -0.245 NA
ENDBRANCH   8  21
ENDBRANCH   7   8
TORSDOF 4
ENDMDL
MODEL 6
REMARK VINA RESULT:      -4.7     12.029     14.942
REMARK SMILES Clc1ccccc1C(c1ccccc1)(c1ccccc1)n1ccnc1
REMARK SMILES IDX 1 1 2 2 3 3 4 4 5 5 6 6 7 7 8 8 9 9 10 10 14 11 11 12 13 13
REMARK SMILES IDX 12 14 15 15 16 16 20 17 17 18 19 19 18 20 21 21 22 22 25 23
REMARK SMILES IDX 23 24 24 25
REMARK H PARENT
ROOT
ATOM      1  Cl  UNL     1     130.932 134.311  96.227  1.00  0.00    -0.084 Cl
ATOM      2  C   UNL     1     129.496 133.602  95.521  1.00  0.00     0.047 A 
ATOM      3  C   UNL     1     129.435 132.265  95.201  1.00  0.00     0.021 A 
ATOM      4  C   UNL     1     128.295 131.697  94.675  1.00  0.00     0.002 A 
ATOM      5  C   UNL     1     127.205 132.507  94.474  1.00  0.00     0.001 A 
ATOM      6  C   UNL     1     127.269 133.869  94.799  1.00  0.00     0.008 A 
ATOM      7  C   UNL     1     128.399 134.423  95.317  1.00  0.00     0.006 A 
ENDROOT
BRANCH   7   8
ATOM      8  C   UNL     1     128.451 135.876  95.631  1.00  0.00     0.123 C 
BRANCH   8   9
ATOM      9  C   UNL     1     128.621 136.018  97.105  1.00  0.00    -0.013 A 
ATOM     10  C   UNL     1     128.569 135.010  98.011  1.00  0.00     0.007 A 
ATOM     11  C   UNL     1     128.870 137.332  97.547  1.00  0.00     0.007 A 
ATOM     12  C   UNL     1     128.762 135.291  99.352  1.00  0.00     0.000 A 
ATOM     13  C   UNL     1     129.061 137.601  98.877  1.00  0.00     0.000 A 
ATOM     14  C   UNL     1     129.010 136.587  99.803  1.00  0.00     0.000 A 
ENDBRANCH   8   9
BRANCH   8  15
ATOM     15  C   UNL     1     127.146 136.536  95.357  1.00  0.00    -0.013 A 
ATOM     16  C   UNL     1     126.859 137.177  94.181  1.00  0.00     0.007 A 
ATOM     17  C   UNL     1     126.170 136.481  96.320  1.00  0.00     0.007 A 
ATOM     18  C   UNL     1     125.622 137.764  93.944  1.00  0.00     0.000 A 
ATOM     19  C   UNL     1     124.912 137.068  96.102  1.00  0.00     0.000 A 
ATOM     20  C   UNL     1     124.655 137.701  94.918  1.00  0.00     0.000 A 
ENDBRANCH   8  15
BRANCH   8  21
ATOM     21  N   UNL     1     129.482 136.510  94.864  1.00  0.00    -0.319 N 
ATOM     22  C   UNL     1     129.846 136.184  93.593  1.00  0.00     0.109 A 
ATOM     23  C   UNL     1     130.250 137.534  95.235  1.00  0.00     0.200 A 
ATOM     24  C   UNL     1     130.856 137.026  93.185  1.00  0.00     0.131 A 
ATOM     25  N   UNL     1     131.084 137.842  94.207  1.00  0.00    -0.245 NA
ENDBRANCH   8  21
ENDBRANCH   7   8
TORSDOF 4
ENDMDL
MODEL 7
REMARK VINA RESULT:      -4.6      1.630      4.419
REMARK SMILES Clc1ccccc1C(c1ccccc1)(c1ccccc1)n1ccnc1
REMARK SMILES IDX 1 1 2 2 3 3 4 4 5 5 6 6 7 7 8 8 9 9 10 10 14 11 11 12 13 13
REMARK SMILES IDX 12 14 15 15 16 16 20 17 17 18 19 19 18 20 21 21 22 22 25 23
REMARK SMILES IDX 23 24 24 25
REMARK H PARENT
ROOT
ATOM      1  Cl  UNL     1     111.072 136.557  95.635  1.00  0.00    -0.084 Cl
ATOM      2  C   UNL     1     111.966 137.768  94.743  1.00  0.00     0.047 A 
ATOM      3  C   UNL     1     111.327 138.782  94.068  1.00  0.00     0.021 A 
ATOM      4  C   UNL     1     112.029 139.757  93.391  1.00  0.00     0.002 A 
ATOM      5  C   UNL     1     113.400 139.692  93.407  1.00  0.00     0.001 A 
ATOM      6  C   UNL     1     114.049 138.658  94.096  1.00  0.00     0.008 A 
ATOM      7  C   UNL     1     113.349 137.699  94.760  1.00  0.00     0.006 A 
ENDROOT
BRANCH   7   8
ATOM      8  C   UNL     1     114.060 136.596  95.463  1.00  0.00     0.123 C 
BRANCH   8   9
ATOM      9  C   UNL     1     113.816 136.756  96.925  1.00  0.00    -0.013 A 
ATOM     10  C   UNL     1     113.991 135.796  97.868  1.00  0.00     0.007 A 
ATOM     11  C   UNL     1     113.381 138.037  97.314  1.00  0.00     0.007 A 
ATOM     12  C   UNL     1     113.738 136.095  99.195  1.00  0.00     0.000 A 
ATOM     13  C   UNL     1     113.134 138.324  98.632  1.00  0.00     0.000 A 
ATOM     14  C   UNL     1     113.307 137.360  99.595  1.00  0.00     0.000 A 
ENDBRANCH   8   9
BRANCH   8  15
ATOM     15  C   UNL     1     115.535 136.733  95.331  1.00  0.00    -0.013 A 
ATOM     16  C   UNL     1     116.317 137.380  96.251  1.00  0.00     0.007 A 
ATOM     17  C   UNL     1     116.151 136.163  94.245  1.00  0.00     0.007 A 
ATOM     18  C   UNL     1     117.697 137.473  96.113  1.00  0.00     0.000 A 
ATOM     19  C   UNL     1     117.544 136.244  94.084  1.00  0.00     0.000 A 
ATOM     20  C   UNL     1     118.298 136.897  95.019  1.00  0.00     0.000 A 
ENDBRANCH   8  15
BRANCH   8  21
ATOM     21  N   UNL     1     113.645 135.329  94.940  1.00  0.00    -0.319 N 
ATOM     22  C   UNL     1     113.171 135.101  93.683  1.00  0.00     0.109 A 
ATOM     23  C   UNL     1     113.664 134.153  95.565  1.00  0.00     0.200 A 
ATOM     24  C   UNL     1     112.896 133.758  93.544  1.00  0.00     0.131 A 
ATOM     25  N   UNL     1     113.207 133.201  94.709  1.00  0.00    -0.245 NA
ENDBRANCH   8  21
ENDBRANCH   7   8
TORSDOF 4
ENDMDL
MODEL 8
REMARK VINA RESULT:      -4.5     11.957     15.372
REMARK SMILES Clc1ccccc1C(c1ccccc1)(c1ccccc1)n1ccnc1
REMARK SMILES IDX 1 1 2 2 3 3 4 4 5 5 6 6 7 7 8 8 9 9 10 10 14 11 11 12 13 13
REMARK SMILES IDX 12 14 15 15 16 16 20 17 17 18 19 19 18 20 21 21 22 22 25 23
REMARK SMILES IDX 23 24 24 25
REMARK H PARENT
ROOT
ATOM      1  Cl  UNL     1     128.698 138.746  96.919  1.00  0.00    -0.084 Cl
ATOM      2  C   UNL     1     127.194 137.937  96.539  1.00  0.00     0.047 A 
ATOM      3  C   UNL     1     125.978 138.555  96.717  1.00  0.00     0.021 A 
ATOM      4  C   UNL     1     124.793 137.934  96.387  1.00  0.00     0.002 A 
ATOM      5  C   UNL     1     124.854 136.663  95.870  1.00  0.00     0.001 A 
ATOM      6  C   UNL     1     126.093 136.034  95.690  1.00  0.00     0.008 A 
ATOM      7  C   UNL     1     127.259 136.655  96.018  1.00  0.00     0.006 A 
ENDROOT
BRANCH   7   8
ATOM      8  C   UNL     1     128.561 135.957  95.841  1.00  0.00     0.123 C 
BRANCH   8   9
ATOM      9  C   UNL     1     128.276 134.564  95.393  1.00  0.00    -0.013 A 
ATOM     10  C   UNL     1     128.628 133.432  96.051  1.00  0.00     0.007 A 
ATOM     11  C   UNL     1     127.563 134.468  94.183  1.00  0.00     0.007 A 
ATOM     12  C   UNL     1     128.280 132.202  95.521  1.00  0.00     0.000 A 
ATOM     13  C   UNL     1     127.221 133.246  93.666  1.00  0.00     0.000 A 
ATOM     14  C   UNL     1     127.573 132.092  94.324  1.00  0.00     0.000 A 
ENDBRANCH   8   9
BRANCH   8  15
ATOM     15  C   UNL     1     129.259 135.778  97.142  1.00  0.00    -0.013 A 
ATOM     16  C   UNL     1     130.620 135.848  97.283  1.00  0.00     0.007 A 
ATOM     17  C   UNL     1     128.504 135.556  98.265  1.00  0.00     0.007 A 
ATOM     18  C   UNL     1     131.244 135.699  98.516  1.00  0.00     0.000 A 
ATOM     19  C   UNL     1     129.112 135.402  99.522  1.00  0.00     0.000 A 
ATOM     20  C   UNL     1     130.473 135.476  99.631  1.00  0.00     0.000 A 
ENDBRANCH   8  15
BRANCH   8  21
ATOM     21  N   UNL     1     129.398 136.696  94.943  1.00  0.00    -0.319 N 
ATOM     22  C   UNL     1     130.760 136.678  94.924  1.00  0.00     0.109 A 
ATOM     23  C   UNL     1     129.008 137.507  93.960  1.00  0.00     0.200 A 
ATOM     24  C   UNL     1     131.205 137.497  93.910  1.00  0.00     0.131 A 
ATOM     25  N   UNL     1     130.115 137.991  93.336  1.00  0.00    -0.245 NA
ENDBRANCH   8  21
ENDBRANCH   7   8
TORSDOF 4
ENDMDL
MODEL 9
REMARK VINA RESULT:      -4.5      1.469      4.379
REMARK SMILES Clc1ccccc1C(c1ccccc1)(c1ccccc1)n1ccnc1
REMARK SMILES IDX 1 1 2 2 3 3 4 4 5 5 6 6 7 7 8 8 9 9 10 10 14 11 11 12 13 13
REMARK SMILES IDX 12 14 15 15 16 16 20 17 17 18 19 19 18 20 21 21 22 22 25 23
REMARK SMILES IDX 23 24 24 25
REMARK H PARENT
ROOT
ATOM      1  Cl  UNL     1     114.472 135.647  92.177  1.00  0.00    -0.084 Cl
ATOM      2  C   UNL     1     115.707 135.824  93.403  1.00  0.00     0.047 A 
ATOM      3  C   UNL     1     117.040 135.634  93.116  1.00  0.00     0.021 A 
ATOM      4  C   UNL     1     118.019 135.804  94.071  1.00  0.00     0.002 A 
ATOM      5  C   UNL     1     117.628 136.173  95.335  1.00  0.00     0.001 A 
ATOM      6  C   UNL     1     116.272 136.367  95.625  1.00  0.00     0.008 A 
ATOM      7  C   UNL     1     115.311 136.196  94.677  1.00  0.00     0.006 A 
ENDROOT
BRANCH   7   8
ATOM      8  C   UNL     1     113.874 136.382  95.016  1.00  0.00     0.123 C 
BRANCH   8   9
ATOM      9  C   UNL     1     113.362 137.532  94.217  1.00  0.00    -0.013 A 
ATOM     10  C   UNL     1     112.113 137.647  93.701  1.00  0.00     0.007 A 
ATOM     11  C   UNL     1     114.290 138.572  94.018  1.00  0.00     0.007 A 
ATOM     12  C   UNL     1     111.773 138.784  92.991  1.00  0.00     0.000 A 
ATOM     13  C   UNL     1     113.945 139.696  93.314  1.00  0.00     0.000 A 
ATOM     14  C   UNL     1     112.682 139.822  92.787  1.00  0.00     0.000 A 
ENDBRANCH   8   9
BRANCH   8  15
ATOM     15  C   UNL     1     113.704 136.824  96.426  1.00  0.00    -0.013 A 
ATOM     16  C   UNL     1     113.232 138.062  96.776  1.00  0.00     0.007 A 
ATOM     17  C   UNL     1     114.011 135.942  97.430  1.00  0.00     0.007 A 
ATOM     18  C   UNL     1     113.062 138.440  98.102  1.00  0.00     0.000 A 
ATOM     19  C   UNL     1     113.848 136.301  98.778  1.00  0.00     0.000 A 
ATOM     20  C   UNL     1     113.375 137.545  99.096  1.00  0.00     0.000 A 
ENDBRANCH   8  15
BRANCH   8  21
ATOM     21  N   UNL     1     113.154 135.161  94.804  1.00  0.00    -0.319 N 
ATOM     22  C   UNL     1     111.864 135.059  94.379  1.00  0.00     0.109 A 
ATOM     23  C   UNL     1     113.611 133.919  94.958  1.00  0.00     0.200 A 
ATOM     24  C   UNL     1     111.531 133.726  94.275  1.00  0.00     0.131 A 
ATOM     25  N   UNL     1     112.617 133.051  94.634  1.00  0.00    -0.245 NA
ENDBRANCH   8  21
ENDBRANCH   7   8
TORSDOF 4
ENDMDL
