MODEL 1
REMARK VINA RESULT:      -4.6      0.000      0.000
REMARK SMILES Clc1ccc(COC(Cn2ccnc2)c2ccc(Cl)cc2Cl)c(Cl)c1
REMARK SMILES IDX 7 1 6 2 5 3 2 4 3 5 25 6 4 7 23 8 1 9 24 10 8 11 9 12 10 13
REMARK SMILES IDX 11 14 14 15 12 16 13 17 15 18 16 19 21 20 17 21 20 22 18 23
REMARK SMILES IDX 22 24 19 25
REMARK H PARENT
ROOT
ATOM      1  O   UNL     1     104.879 104.225 117.963  1.00  0.00    -0.367 OA
ENDROOT
BRANCH   1   2
ATOM      2  C   UNL     1     103.822 103.463 118.283  1.00  0.00     0.198 C 
BRANCH   2   3
ATOM      3  C   UNL     1     103.954 102.041 117.899  1.00  0.00    -0.004 A 
ATOM      4  C   UNL     1     104.496  99.378 117.079  1.00  0.00     0.042 A 
ATOM      5  C   UNL     1     105.474 100.189 117.628  1.00  0.00     0.021 A 
ATOM      6  C   UNL     1     103.245  99.933 116.952  1.00  0.00     0.041 A 
ATOM      7  C   UNL     1     105.234 101.481 118.031  1.00  0.00     0.009 A 
ATOM      8  C   UNL     1     102.986 101.249 117.361  1.00  0.00     0.048 A 
ATOM      9  Cl  UNL     1     104.832  97.731 116.564  1.00  0.00    -0.084 Cl
ATOM     10  Cl  UNL     1     101.341 101.871 117.266  1.00  0.00    -0.084 Cl
ENDBRANCH   2   3
ENDBRANCH   1   2
BRANCH   1  11
ATOM     11  C   UNL     1     105.048 104.999 116.909  1.00  0.00     0.170 C 
BRANCH  11  12
ATOM     12  C   UNL     1     103.989 104.583 115.858  1.00  0.00     0.160 C 
BRANCH  12  13
ATOM     13  N   UNL     1     104.667 104.038 114.723  1.00  0.00    -0.335 N 
ATOM     14  C   UNL     1     104.344 102.942 114.019  1.00  0.00     0.107 A 
ATOM     15  C   UNL     1     105.779 104.587 114.191  1.00  0.00     0.199 A 
ATOM     16  C   UNL     1     105.302 102.838 113.032  1.00  0.00     0.130 A 
ATOM     17  N   UNL     1     106.169 103.855 113.158  1.00  0.00    -0.245 NA
ENDBRANCH  12  13
ENDBRANCH  11  12
BRANCH  11  18
ATOM     18  C   UNL     1     104.818 106.468 117.218  1.00  0.00     0.001 A 
ATOM     19  C   UNL     1     103.569 106.950 117.527  1.00  0.00     0.009 A 
ATOM     20  C   UNL     1     105.871 107.345 117.185  1.00  0.00     0.048 A 
ATOM     21  C   UNL     1     103.392 108.314 117.802  1.00  0.00     0.021 A 
ATOM     22  C   UNL     1     105.707 108.702 117.458  1.00  0.00     0.041 A 
ATOM     23  C   UNL     1     104.452 109.189 117.769  1.00  0.00     0.042 A 
ATOM     24  Cl  UNL     1     107.457 106.711 116.786  1.00  0.00    -0.084 Cl
ATOM     25  Cl  UNL     1     104.234 110.899 118.109  1.00  0.00    -0.084 Cl
ENDBRANCH  11  18
ENDBRANCH   1  11
TORSDOF 6
ENDMDL
MODEL 2
REMARK VINA RESULT:      -4.5      3.547      5.601
REMARK SMILES Clc1ccc(COC(Cn2ccnc2)c2ccc(Cl)cc2Cl)c(Cl)c1
REMARK SMILES IDX 7 1 6 2 5 3 2 4 3 5 25 6 4 7 23 8 1 9 24 10 8 11 9 12 10 13
REMARK SMILES IDX 11 14 14 15 12 16 13 17 15 18 16 19 21 20 17 21 20 22 18 23
REMARK SMILES IDX 22 24 19 25
REMARK H PARENT
ROOT
ATOM      1  O   UNL     1     107.417 107.617 115.825  1.00  0.00    -0.367 OA
ENDROOT
BRANCH   1   2
ATOM      2  C   UNL     1     107.409 106.395 116.380  1.00  0.00     0.198 C 
BRANCH   2   3
ATOM      3  C   UNL     1     106.251 105.557 115.999  1.00  0.00    -0.004 A 
ATOM      4  C   UNL     1     103.979 103.911 115.569  1.00  0.00     0.042 A 
ATOM      5  C   UNL     1     104.075 104.756 116.661  1.00  0.00     0.021 A 
ATOM      6  C   UNL     1     105.044 103.912 114.702  1.00  0.00     0.041 A 
ATOM      7  C   UNL     1     105.165 105.561 116.889  1.00  0.00     0.009 A 
ATOM      8  C   UNL     1     106.163 104.730 114.922  1.00  0.00     0.048 A 
ATOM      9  Cl  UNL     1     102.575 102.886 115.306  1.00  0.00    -0.084 Cl
ATOM     10  Cl  UNL     1     107.453 104.761 113.724  1.00  0.00    -0.084 Cl
ENDBRANCH   2   3
ENDBRANCH   1   2
BRANCH   1  11
ATOM     11  C   UNL     1     107.677 108.777 116.393  1.00  0.00     0.170 C 
BRANCH  11  12
ATOM     12  C   UNL     1     108.505 109.609 115.382  1.00  0.00     0.160 C 
BRANCH  12  13
ATOM     13  N   UNL     1     109.884 109.528 115.752  1.00  0.00    -0.335 N 
ATOM     14  C   UNL     1     110.561 110.332 116.588  1.00  0.00     0.107 A 
ATOM     15  C   UNL     1     110.724 108.584 115.281  1.00  0.00     0.199 A 
ATOM     16  C   UNL     1     111.851 109.846 116.611  1.00  0.00     0.130 A 
ATOM     17  N   UNL     1     111.926 108.776 115.803  1.00  0.00    -0.245 NA
ENDBRANCH  12  13
ENDBRANCH  11  12
BRANCH  11  18
ATOM     18  C   UNL     1     106.422 109.573 116.703  1.00  0.00     0.001 A 
ATOM     19  C   UNL     1     105.909 110.483 115.810  1.00  0.00     0.009 A 
ATOM     20  C   UNL     1     105.777 109.392 117.900  1.00  0.00     0.048 A 
ATOM     21  C   UNL     1     104.750 111.204 116.133  1.00  0.00     0.021 A 
ATOM     22  C   UNL     1     104.624 110.102 118.230  1.00  0.00     0.041 A 
ATOM     23  C   UNL     1     104.107 111.018 117.333  1.00  0.00     0.042 A 
ATOM     24  Cl  UNL     1     106.448 108.226 119.026  1.00  0.00    -0.084 Cl
ATOM     25  Cl  UNL     1     102.657 111.922 117.741  1.00  0.00    -0.084 Cl
ENDBRANCH  11  18
ENDBRANCH   1  11
TORSDOF 6
ENDMDL
MODEL 3
REMARK VINA RESULT:      -4.3      4.149      6.394
REMARK SMILES Clc1ccc(COC(Cn2ccnc2)c2ccc(Cl)cc2Cl)c(Cl)c1
REMARK SMILES IDX 7 1 6 2 5 3 2 4 3 5 25 6 4 7 23 8 1 9 24 10 8 11 9 12 10 13
REMARK SMILES IDX 11 14 14 15 12 16 13 17 15 18 16 19 21 20 17 21 20 22 18 23
REMARK SMILES IDX 22 24 19 25
REMARK H PARENT
ROOT
ATOM      1  O   UNL     1     107.743 107.043 116.348  1.00  0.00    -0.367 OA
ENDROOT
BRANCH   1   2
ATOM      2  C   UNL     1     107.869 106.211 115.303  1.00  0.00     0.198 C 
BRANCH   2   3
ATOM      3  C   UNL     1     106.784 105.213 115.182  1.00  0.00    -0.004 A 
ATOM      4  C   UNL     1     104.710 103.350 114.648  1.00  0.00     0.042 A 
ATOM      5  C   UNL     1     105.742 103.573 113.753  1.00  0.00     0.021 A 
ATOM      6  C   UNL     1     104.743 104.080 115.811  1.00  0.00     0.041 A 
ATOM      7  C   UNL     1     106.756 104.470 113.991  1.00  0.00     0.009 A 
ATOM      8  C   UNL     1     105.773 104.998 116.068  1.00  0.00     0.048 A 
ATOM      9  Cl  UNL     1     103.421 102.202 114.315  1.00  0.00    -0.084 Cl
ATOM     10  Cl  UNL     1     105.815 105.830 117.619  1.00  0.00    -0.084 Cl
ENDBRANCH   2   3
ENDBRANCH   1   2
BRANCH   1  11
ATOM     11  C   UNL     1     107.806 108.360 116.365  1.00  0.00     0.170 C 
BRANCH  11  12
ATOM     12  C   UNL     1     107.426 108.821 117.794  1.00  0.00     0.160 C 
BRANCH  12  13
ATOM     13  N   UNL     1     106.474 109.883 117.689  1.00  0.00    -0.335 N 
ATOM     14  C   UNL     1     105.213 109.817 117.236  1.00  0.00     0.107 A 
ATOM     15  C   UNL     1     106.741 111.155 118.050  1.00  0.00     0.199 A 
ATOM     16  C   UNL     1     104.713 111.099 117.332  1.00  0.00     0.130 A 
ATOM     17  N   UNL     1     105.668 111.900 117.833  1.00  0.00    -0.245 NA
ENDBRANCH  12  13
ENDBRANCH  11  12
BRANCH  11  18
ATOM     18  C   UNL     1     109.202 108.884 116.083  1.00  0.00     0.001 A 
ATOM     19  C   UNL     1     110.316 108.297 116.634  1.00  0.00     0.009 A 
ATOM     20  C   UNL     1     109.370 109.973 115.265  1.00  0.00     0.048 A 
ATOM     21  C   UNL     1     111.590 108.812 116.356  1.00  0.00     0.021 A 
ATOM     22  C   UNL     1     110.632 110.491 114.981  1.00  0.00     0.041 A 
ATOM     23  C   UNL     1     111.753 109.902 115.534  1.00  0.00     0.042 A 
ATOM     24  Cl  UNL     1     107.937 110.710 114.573  1.00  0.00    -0.084 Cl
ATOM     25  Cl  UNL     1     113.348 110.551 115.186  1.00  0.00    -0.084 Cl
ENDBRANCH  11  18
ENDBRANCH   1  11
TORSDOF 6
ENDMDL
MODEL 4
REMARK VINA RESULT:      -4.1      1.248      6.910
REMARK SMILES Clc1ccc(COC(Cn2ccnc2)c2ccc(Cl)cc2Cl)c(Cl)c1
REMARK SMILES IDX 7 1 6 2 5 3 2 4 3 5 25 6 4 7 23 8 1 9 24 10 8 11 9 12 10 13
REMARK SMILES IDX 11 14 14 15 12 16 13 17 15 18 16 19 21 20 17 21 20 22 18 23
REMARK SMILES IDX 22 24 19 25
REMARK H PARENT
ROOT
ATOM      1  O   UNL     1     104.351 104.209 117.504  1.00  0.00    -0.367 OA
ENDROOT
BRANCH   1   2
ATOM      2  C   UNL     1     104.486 105.210 118.388  1.00  0.00     0.198 C 
BRANCH   2   3
ATOM      3  C   UNL     1     103.929 106.504 117.935  1.00  0.00    -0.004 A 
ATOM      4  C   UNL     1     102.591 108.840 117.036  1.00  0.00     0.042 A 
ATOM      5  C   UNL     1     101.948 107.870 117.784  1.00  0.00     0.021 A 
ATOM      6  C   UNL     1     103.916 108.612 116.752  1.00  0.00     0.041 A 
ATOM      7  C   UNL     1     102.575 106.731 118.230  1.00  0.00     0.009 A 
ATOM      8  C   UNL     1     104.570 107.455 117.202  1.00  0.00     0.048 A 
ATOM      9  Cl  UNL     1     101.762 110.284 116.473  1.00  0.00    -0.084 Cl
ATOM     10  Cl  UNL     1     106.293 107.265 116.891  1.00  0.00    -0.084 Cl
ENDBRANCH   2   3
ENDBRANCH   1   2
BRANCH   1  11
ATOM     11  C   UNL     1     103.299 103.450 117.273  1.00  0.00     0.170 C 
BRANCH  11  12
ATOM     12  C   UNL     1     102.917 103.633 115.783  1.00  0.00     0.160 C 
BRANCH  12  13
ATOM     13  N   UNL     1     104.093 103.453 114.989  1.00  0.00    -0.335 N 
ATOM     14  C   UNL     1     105.150 104.274 114.886  1.00  0.00     0.107 A 
ATOM     15  C   UNL     1     104.297 102.378 114.201  1.00  0.00     0.199 A 
ATOM     16  C   UNL     1     106.013 103.661 114.001  1.00  0.00     0.130 A 
ATOM     17  N   UNL     1     105.469 102.503 113.596  1.00  0.00    -0.245 NA
ENDBRANCH  12  13
ENDBRANCH  11  12
BRANCH  11  18
ATOM     18  C   UNL     1     103.583 101.974 117.483  1.00  0.00     0.001 A 
ATOM     19  C   UNL     1     104.868 101.495 117.575  1.00  0.00     0.009 A 
ATOM     20  C   UNL     1     102.542 101.085 117.580  1.00  0.00     0.048 A 
ATOM     21  C   UNL     1     105.093 100.124 117.764  1.00  0.00     0.021 A 
ATOM     22  C   UNL     1     102.755  99.721 117.769  1.00  0.00     0.041 A 
ATOM     23  C   UNL     1     104.047  99.237 117.862  1.00  0.00     0.042 A 
ATOM     24  Cl  UNL     1     100.910 101.715 117.459  1.00  0.00    -0.084 Cl
ATOM     25  Cl  UNL     1     104.325  97.519 118.095  1.00  0.00    -0.084 Cl
ENDBRANCH  11  18
ENDBRANCH   1  11
TORSDOF 6
ENDMDL
MODEL 5
REMARK VINA RESULT:      -4.0      3.400      5.472
REMARK SMILES Clc1ccc(COC(Cn2ccnc2)c2ccc(Cl)cc2Cl)c(Cl)c1
REMARK SMILES IDX 7 1 6 2 5 3 2 4 3 5 25 6 4 7 23 8 1 9 24 10 8 11 9 12 10 13
REMARK SMILES IDX 11 14 14 15 12 16 13 17 15 18 16 19 21 20 17 21 20 22 18 23
REMARK SMILES IDX 22 24 19 25
REMARK H PARENT
ROOT
ATOM      1  O   UNL     1     106.808 106.780 116.985  1.00  0.00    -0.367 OA
ENDROOT
BRANCH   1   2
ATOM      2  C   UNL     1     106.713 105.780 116.095  1.00  0.00     0.198 C 
BRANCH   2   3
ATOM      3  C   UNL     1     105.420 105.061 116.119  1.00  0.00    -0.004 A 
ATOM      4  C   UNL     1     102.895 103.788 115.881  1.00  0.00     0.042 A 
ATOM      5  C   UNL     1     103.731 103.966 114.792  1.00  0.00     0.021 A 
ATOM      6  C   UNL     1     103.354 104.261 117.086  1.00  0.00     0.041 A 
ATOM      7  C   UNL     1     104.957 104.580 114.884  1.00  0.00     0.009 A 
ATOM      8  C   UNL     1     104.605 104.888 117.195  1.00  0.00     0.048 A 
ATOM      9  Cl  UNL     1     101.327 103.006 115.733  1.00  0.00    -0.084 Cl
ATOM     10  Cl  UNL     1     105.181 105.384 118.783  1.00  0.00    -0.084 Cl
ENDBRANCH   2   3
ENDBRANCH   1   2
BRANCH   1  11
ATOM     11  C   UNL     1     107.016 108.063 116.764  1.00  0.00     0.170 C 
BRANCH  11  12
ATOM     12  C   UNL     1     106.040 108.851 117.674  1.00  0.00     0.160 C 
BRANCH  12  13
ATOM     13  N   UNL     1     104.937 109.292 116.878  1.00  0.00    -0.335 N 
ATOM     14  C   UNL     1     103.771 108.661 116.666  1.00  0.00     0.107 A 
ATOM     15  C   UNL     1     104.930 110.459 116.203  1.00  0.00     0.199 A 
ATOM     16  C   UNL     1     103.046 109.487 115.833  1.00  0.00     0.130 A 
ATOM     17  N   UNL     1     103.776 110.581 115.563  1.00  0.00    -0.245 NA
ENDBRANCH  12  13
ENDBRANCH  11  12
BRANCH  11  18
ATOM     18  C   UNL     1     108.422 108.501 117.133  1.00  0.00     0.001 A 
ATOM     19  C   UNL     1     109.050 108.028 118.260  1.00  0.00     0.009 A 
ATOM     20  C   UNL     1     109.091 109.393 116.334  1.00  0.00     0.048 A 
ATOM     21  C   UNL     1     110.348 108.458 118.572  1.00  0.00     0.021 A 
ATOM     22  C   UNL     1     110.381 109.826 116.634  1.00  0.00     0.041 A 
ATOM     23  C   UNL     1     111.014 109.352 117.767  1.00  0.00     0.042 A 
ATOM     24  Cl  UNL     1     108.272 109.987 114.901  1.00  0.00    -0.084 Cl
ATOM     25  Cl  UNL     1     112.638 109.895 118.157  1.00  0.00    -0.084 Cl
ENDBRANCH  11  18
ENDBRANCH   1  11
TORSDOF 6
ENDMDL
MODEL 6
REMARK VINA RESULT:      -4.0      3.906      6.901
REMARK SMILES Clc1ccc(COC(Cn2ccnc2)c2ccc(Cl)cc2Cl)c(Cl)c1
REMARK SMILES IDX 7 1 6 2 5 3 2 4 3 5 25 6 4 7 23 8 1 9 24 10 8 11 9 12 10 13
REMARK SMILES IDX 11 14 14 15 12 16 13 17 15 18 16 19 21 20 17 21 20 22 18 23
REMARK SMILES IDX 22 24 19 25
REMARK H PARENT
ROOT
ATOM      1  O   UNL     1     106.395 108.270 117.810  1.00  0.00    -0.367 OA
ENDROOT
BRANCH   1   2
ATOM      2  C   UNL     1     107.569 107.770 118.225  1.00  0.00     0.198 C 
BRANCH   2   3
ATOM      3  C   UNL     1     108.732 108.651 117.976  1.00  0.00    -0.004 A 
ATOM      4  C   UNL     1     110.855 110.518 117.725  1.00  0.00     0.042 A 
ATOM      5  C   UNL     1     110.263 110.241 118.945  1.00  0.00     0.021 A 
ATOM      6  C   UNL     1     110.359 109.838 116.639  1.00  0.00     0.041 A 
ATOM      7  C   UNL     1     109.234 109.342 119.090  1.00  0.00     0.009 A 
ATOM      8  C   UNL     1     109.310 108.916 116.773  1.00  0.00     0.048 A 
ATOM      9  Cl  UNL     1     112.165 111.680 117.568  1.00  0.00    -0.084 Cl
ATOM     10  Cl  UNL     1     108.784 108.003 115.362  1.00  0.00    -0.084 Cl
ENDBRANCH   2   3
ENDBRANCH   1   2
BRANCH   1  11
ATOM     11  C   UNL     1     105.519 107.737 116.982  1.00  0.00     0.170 C 
BRANCH  11  12
ATOM     12  C   UNL     1     105.266 106.283 117.454  1.00  0.00     0.160 C 
BRANCH  12  13
ATOM     13  N   UNL     1     105.284 105.426 116.309  1.00  0.00    -0.335 N 
ATOM     14  C   UNL     1     104.262 104.730 115.786  1.00  0.00     0.107 A 
ATOM     15  C   UNL     1     106.390 105.196 115.573  1.00  0.00     0.199 A 
ATOM     16  C   UNL     1     104.784 104.062 114.698  1.00  0.00     0.130 A 
ATOM     17  N   UNL     1     106.088 104.363 114.589  1.00  0.00    -0.245 NA
ENDBRANCH  12  13
ENDBRANCH  11  12
BRANCH  11  18
ATOM     18  C   UNL     1     104.181 108.453 117.003  1.00  0.00     0.001 A 
ATOM     19  C   UNL     1     103.080 107.901 117.613  1.00  0.00     0.009 A 
ATOM     20  C   UNL     1     104.052 109.678 116.400  1.00  0.00     0.048 A 
ATOM     21  C   UNL     1     101.858 108.589 117.609  1.00  0.00     0.021 A 
ATOM     22  C   UNL     1     102.843 110.371 116.391  1.00  0.00     0.041 A 
ATOM     23  C   UNL     1     101.735 109.818 117.004  1.00  0.00     0.042 A 
ATOM     24  Cl  UNL     1     105.468 110.365 115.625  1.00  0.00    -0.084 Cl
ATOM     25  Cl  UNL     1     100.205 110.680 116.994  1.00  0.00    -0.084 Cl
ENDBRANCH  11  18
ENDBRANCH   1  11
TORSDOF 6
ENDMDL
MODEL 7
REMARK VINA RESULT:      -3.9      3.805      5.703
REMARK SMILES Clc1ccc(COC(Cn2ccnc2)c2ccc(Cl)cc2Cl)c(Cl)c1
REMARK SMILES IDX 7 1 6 2 5 3 2 4 3 5 25 6 4 7 23 8 1 9 24 10 8 11 9 12 10 13
REMARK SMILES IDX 11 14 14 15 12 16 13 17 15 18 16 19 21 20 17 21 20 22 18 23
REMARK SMILES IDX 22 24 19 25
REMARK H PARENT
ROOT
ATOM      1  O   UNL     1     102.909  99.629 116.857  1.00  0.00    -0.367 OA
ENDROOT
BRANCH   1   2
ATOM      2  C   UNL     1     102.865  98.742 117.863  1.00  0.00     0.198 C 
BRANCH   2   3
ATOM      3  C   UNL     1     103.177  97.351 117.466  1.00  0.00    -0.004 A 
ATOM      4  C   UNL     1     103.857  94.797 116.432  1.00  0.00     0.042 A 
ATOM      5  C   UNL     1     104.526  95.945 116.046  1.00  0.00     0.021 A 
ATOM      6  C   UNL     1     102.843  94.960 117.345  1.00  0.00     0.041 A 
ATOM      7  C   UNL     1     104.214  97.191 116.534  1.00  0.00     0.009 A 
ATOM      8  C   UNL     1     102.514  96.226 117.852  1.00  0.00     0.048 A 
ATOM      9  Cl  UNL     1     104.272  93.215 115.786  1.00  0.00    -0.084 Cl
ATOM     10  Cl  UNL     1     101.273  96.359 119.093  1.00  0.00    -0.084 Cl
ENDBRANCH   2   3
ENDBRANCH   1   2
BRANCH   1  11
ATOM     11  C   UNL     1     102.646 100.920 116.886  1.00  0.00     0.170 C 
BRANCH  11  12
ATOM     12  C   UNL     1     102.905 101.411 118.332  1.00  0.00     0.160 C 
BRANCH  12  13
ATOM     13  N   UNL     1     102.341 102.717 118.475  1.00  0.00    -0.335 N 
ATOM     14  C   UNL     1     102.991 103.885 118.599  1.00  0.00     0.107 A 
ATOM     15  C   UNL     1     101.013 102.952 118.506  1.00  0.00     0.199 A 
ATOM     16  C   UNL     1     102.010 104.848 118.709  1.00  0.00     0.130 A 
ATOM     17  N   UNL     1     100.808 104.252 118.650  1.00  0.00    -0.245 NA
ENDBRANCH  12  13
ENDBRANCH  11  12
BRANCH  11  18
ATOM     18  C   UNL     1     103.555 101.724 115.973  1.00  0.00     0.001 A 
ATOM     19  C   UNL     1     103.047 102.544 114.994  1.00  0.00     0.009 A 
ATOM     20  C   UNL     1     104.916 101.635 116.115  1.00  0.00     0.048 A 
ATOM     21  C   UNL     1     103.917 103.268 114.166  1.00  0.00     0.021 A 
ATOM     22  C   UNL     1     105.789 102.350 115.298  1.00  0.00     0.041 A 
ATOM     23  C   UNL     1     105.281 103.176 114.313  1.00  0.00     0.042 A 
ATOM     24  Cl  UNL     1     105.545 100.581 117.368  1.00  0.00    -0.084 Cl
ATOM     25  Cl  UNL     1     106.373 104.079 113.274  1.00  0.00    -0.084 Cl
ENDBRANCH  11  18
ENDBRANCH   1  11
TORSDOF 6
ENDMDL
MODEL 8
REMARK VINA RESULT:      -3.9      3.213      5.007
REMARK SMILES Clc1ccc(COC(Cn2ccnc2)c2ccc(Cl)cc2Cl)c(Cl)c1
REMARK SMILES IDX 7 1 6 2 5 3 2 4 3 5 25 6 4 7 23 8 1 9 24 10 8 11 9 12 10 13
REMARK SMILES IDX 11 14 14 15 12 16 13 17 15 18 16 19 21 20 17 21 20 22 18 23
REMARK SMILES IDX 22 24 19 25
REMARK H PARENT
ROOT
ATOM      1  O   UNL     1     107.076 105.755 116.028  1.00  0.00    -0.367 OA
ENDROOT
BRANCH   1   2
ATOM      2  C   UNL     1     106.454 105.035 115.082  1.00  0.00     0.198 C 
BRANCH   2   3
ATOM      3  C   UNL     1     105.247 104.319 115.553  1.00  0.00    -0.004 A 
ATOM      4  C   UNL     1     103.121 102.782 116.635  1.00  0.00     0.042 A 
ATOM      5  C   UNL     1     104.243 103.106 117.378  1.00  0.00     0.021 A 
ATOM      6  C   UNL     1     103.092 103.246 115.342  1.00  0.00     0.041 A 
ATOM      7  C   UNL     1     105.284 103.848 116.875  1.00  0.00     0.009 A 
ATOM      8  C   UNL     1     104.147 104.006 114.816  1.00  0.00     0.048 A 
ATOM      9  Cl  UNL     1     101.807 101.824 117.302  1.00  0.00    -0.084 Cl
ATOM     10  Cl  UNL     1     104.007 104.657 113.185  1.00  0.00    -0.084 Cl
ENDBRANCH   2   3
ENDBRANCH   1   2
BRANCH   1  11
ATOM     11  C   UNL     1     106.977 107.046 116.278  1.00  0.00     0.170 C 
BRANCH  11  12
ATOM     12  C   UNL     1     106.723 107.202 117.799  1.00  0.00     0.160 C 
BRANCH  12  13
ATOM     13  N   UNL     1     105.315 107.110 118.033  1.00  0.00    -0.335 N 
ATOM     14  C   UNL     1     104.691 106.571 119.093  1.00  0.00     0.107 A 
ATOM     15  C   UNL     1     104.388 107.575 117.172  1.00  0.00     0.199 A 
ATOM     16  C   UNL     1     103.342 106.723 118.849  1.00  0.00     0.130 A 
ATOM     17  N   UNL     1     103.182 107.340 117.666  1.00  0.00    -0.245 NA
ENDBRANCH  12  13
ENDBRANCH  11  12
BRANCH  11  18
ATOM     18  C   UNL     1     108.253 107.804 115.960  1.00  0.00     0.001 A 
ATOM     19  C   UNL     1     109.481 107.186 115.981  1.00  0.00     0.009 A 
ATOM     20  C   UNL     1     108.194 109.138 115.646  1.00  0.00     0.048 A 
ATOM     21  C   UNL     1     110.639 107.919 115.686  1.00  0.00     0.021 A 
ATOM     22  C   UNL     1     109.339 109.875 115.349  1.00  0.00     0.041 A 
ATOM     23  C   UNL     1     110.574 109.256 115.370  1.00  0.00     0.042 A 
ATOM     24  Cl  UNL     1     106.619 109.908 115.625  1.00  0.00    -0.084 Cl
ATOM     25  Cl  UNL     1     112.024 110.178 115.003  1.00  0.00    -0.084 Cl
ENDBRANCH  11  18
ENDBRANCH   1  11
TORSDOF 6
ENDMDL
MODEL 9
REMARK VINA RESULT:      -3.8      3.831      6.064
REMARK SMILES Clc1ccc(COC(Cn2ccnc2)c2ccc(Cl)cc2Cl)c(Cl)c1
REMARK SMILES IDX 7 1 6 2 5 3 2 4 3 5 25 6 4 7 23 8 1 9 24 10 8 11 9 12 10 13
REMARK SMILES IDX 11 14 14 15 12 16 13 17 15 18 16 19 21 20 17 21 20 22 18 23
REMARK SMILES IDX 22 24 19 25
REMARK H PARENT
ROOT
ATOM      1  O   UNL     1     107.577 107.019 116.558  1.00  0.00    -0.367 OA
ENDROOT
BRANCH   1   2
ATOM      2  C   UNL     1     107.328 105.941 115.798  1.00  0.00     0.198 C 
BRANCH   2   3
ATOM      3  C   UNL     1     105.971 105.375 115.966  1.00  0.00    -0.004 A 
ATOM      4  C   UNL     1     103.418 104.303 116.590  1.00  0.00     0.042 A 
ATOM      5  C   UNL     1     104.040 105.236 117.402  1.00  0.00     0.021 A 
ATOM      6  C   UNL     1     104.105 103.923 115.463  1.00  0.00     0.041 A 
ATOM      7  C   UNL     1     105.275 105.768 117.120  1.00  0.00     0.009 A 
ATOM      8  C   UNL     1     105.366 104.459 115.161  1.00  0.00     0.048 A 
ATOM      9  Cl  UNL     1     101.840 103.634 116.980  1.00  0.00    -0.084 Cl
ATOM     10  Cl  UNL     1     106.153 104.008 113.652  1.00  0.00    -0.084 Cl
ENDBRANCH   2   3
ENDBRANCH   1   2
BRANCH   1  11
ATOM     11  C   UNL     1     107.612 108.288 116.202  1.00  0.00     0.170 C 
BRANCH  11  12
ATOM     12  C   UNL     1     106.991 109.108 117.360  1.00  0.00     0.160 C 
BRANCH  12  13
ATOM     13  N   UNL     1     105.785 109.715 116.888  1.00  0.00    -0.335 N 
ATOM     14  C   UNL     1     105.645 110.599 115.887  1.00  0.00     0.107 A 
ATOM     15  C   UNL     1     104.571 109.463 117.419  1.00  0.00     0.199 A 
ATOM     16  C   UNL     1     104.297 110.881 115.825  1.00  0.00     0.130 A 
ATOM     17  N   UNL     1     103.660 110.175 116.772  1.00  0.00    -0.245 NA
ENDBRANCH  12  13
ENDBRANCH  11  12
BRANCH  11  18
ATOM     18  C   UNL     1     109.027 108.801 116.001  1.00  0.00     0.001 A 
ATOM     19  C   UNL     1     109.400 109.448 114.847  1.00  0.00     0.009 A 
ATOM     20  C   UNL     1     109.966 108.616 116.984  1.00  0.00     0.048 A 
ATOM     21  C   UNL     1     110.717 109.903 114.694  1.00  0.00     0.021 A 
ATOM     22  C   UNL     1     111.277 109.066 116.842  1.00  0.00     0.041 A 
ATOM     23  C   UNL     1     111.654 109.718 115.683  1.00  0.00     0.042 A 
ATOM     24  Cl  UNL     1     109.471 107.787 118.448  1.00  0.00    -0.084 Cl
ATOM     25  Cl  UNL     1     113.306 110.285 115.492  1.00  0.00    -0.084 Cl
ENDBRANCH  11  18
ENDBRANCH   1  11
TORSDOF 6
ENDMDL
