MODEL 1
REMARK VINA RESULT:      -5.2      0.000      0.000
REMARK SMILES O=C1c2c([O-])ccc(O)c2C(=O)c2c(NCC[NH2+]CCO)ccc(NCCNCCO)c21
REMARK SMILES IDX 1 1 2 2 3 3 4 4 5 5 6 6 7 7 8 8 10 9 11 10 12 11 13 12 14 13
REMARK SMILES IDX 22 14 23 15 24 16 32 17 25 18 26 20 27 21 28 22 29 24 30 25
REMARK SMILES IDX 31 26 9 28 15 30 16 32 17 33 18 34 19 37 20 38 21 39
REMARK H PARENT 25 19 28 23 31 27 9 29 15 31 18 35 18 36 21 40
ROOT
ATOM      1  O   UNL     1     103.961 105.329 117.793  1.00  0.00    -0.288 OA
ATOM      2  C   UNL     1     104.779 105.204 116.850  1.00  0.00     0.196 C 
ATOM      3  C   UNL     1     105.982 106.069 116.851  1.00  0.00     0.030 A 
ATOM      4  C   UNL     1     106.130 106.962 117.895  1.00  0.00    -0.097 A 
ATOM      5  O   UNL     1     105.162 107.017 118.893  1.00  0.00    -0.872 OA
ATOM      6  C   UNL     1     107.241 107.776 117.919  1.00  0.00    -0.004 A 
ATOM      7  C   UNL     1     108.177 107.700 116.926  1.00  0.00     0.046 A 
ATOM      8  C   UNL     1     108.049 106.818 115.876  1.00  0.00     0.127 A 
ATOM      9  C   UNL     1     106.920 105.999 115.863  1.00  0.00     0.075 A 
ATOM     10  C   UNL     1     106.740 105.043 114.765  1.00  0.00     0.200 C 
ATOM     11  O   UNL     1     107.650 105.046 113.902  1.00  0.00    -0.288 OA
ATOM     12  C   UNL     1     105.565 104.182 114.741  1.00  0.00     0.059 A 
ATOM     13  C   UNL     1     105.447 103.312 113.693  1.00  0.00     0.046 A 
ATOM     14  C   UNL     1     104.296 102.498 113.703  1.00  0.00     0.028 A 
ATOM     15  C   UNL     1     103.368 102.575 114.693  1.00  0.00     0.028 A 
ATOM     16  C   UNL     1     103.488 103.469 115.770  1.00  0.00     0.046 A 
ATOM     17  C   UNL     1     104.601 104.268 115.776  1.00  0.00     0.059 A 
ENDROOT
BRANCH  16  18
ATOM     18  N   UNL     1     102.473 103.439 116.771  1.00  0.00    -0.383 N 
ATOM     19  H   UNL     1     102.488 104.061 117.567  1.00  0.00     0.160 HD
BRANCH  18  20
ATOM     20  C   UNL     1     101.360 102.509 116.708  1.00  0.00     0.128 C 
BRANCH  20  21
ATOM     21  C   UNL     1     101.360 101.464 117.765  1.00  0.00     0.102 C 
BRANCH  21  22
ATOM     22  N   UNL     1     101.858 100.179 117.259  1.00  0.00    -0.313 NA
ATOM     23  H   UNL     1     101.413  99.438 117.853  1.00  0.00     0.122 HD
BRANCH  22  24
ATOM     24  C   UNL     1     103.282 100.137 117.556  1.00  0.00     0.109 C 
BRANCH  24  25
ATOM     25  C   UNL     1     103.978  99.068 116.749  1.00  0.00     0.171 C 
BRANCH  25  26
ATOM     26  O   UNL     1     104.868  99.617 115.829  1.00  0.00    -0.395 OA
ATOM     27  H   UNL     1     105.540  98.914 115.607  1.00  0.00     0.210 HD
ENDBRANCH  25  26
ENDBRANCH  24  25
ENDBRANCH  22  24
ENDBRANCH  21  22
ENDBRANCH  20  21
ENDBRANCH  18  20
ENDBRANCH  16  18
BRANCH   8  28
ATOM     28  O   UNL     1     109.011 106.743 114.860  1.00  0.00    -0.507 OA
ATOM     29  H   UNL     1     108.912 107.271 113.991  1.00  0.00     0.293 HD
ENDBRANCH   8  28
BRANCH  13  30
ATOM     30  N   UNL     1     106.358 103.163 112.627  1.00  0.00    -0.379 N 
ATOM     31  H   UNL     1     107.336 103.411 112.647  1.00  0.00     0.160 HD
BRANCH  30  32
ATOM     32  C   UNL     1     105.908 102.604 111.336  1.00  0.00     0.174 C 
BRANCH  32  33
ATOM     33  C   UNL     1     106.994 101.899 110.610  1.00  0.00     0.281 C 
BRANCH  33  34
ATOM     34  N   UNL     1     107.731 102.712 109.692  1.00  0.00    -0.343 N 
ATOM     35  H   UNL     1     107.319 102.739 108.732  1.00  0.00     0.346 HD
ATOM     36  H   UNL     1     107.697 103.700 110.045  1.00  0.00     0.346 HD
BRANCH  34  37
ATOM     37  C   UNL     1     109.126 102.359 109.588  1.00  0.00     0.289 C 
BRANCH  37  38
ATOM     38  C   UNL     1     109.502 101.920 108.191  1.00  0.00     0.217 C 
BRANCH  38  39
ATOM     39  O   UNL     1     109.329 100.550 108.094  1.00  0.00    -0.391 OA
ATOM     40  H   UNL     1     108.608 100.301 108.742  1.00  0.00     0.210 HD
ENDBRANCH  38  39
ENDBRANCH  37  38
ENDBRANCH  34  37
ENDBRANCH  33  34
ENDBRANCH  32  33
ENDBRANCH  30  32
ENDBRANCH  13  30
TORSDOF 15
ENDMDL
MODEL 2
REMARK VINA RESULT:      -4.9      0.881      6.283
REMARK SMILES O=C1c2c([O-])ccc(O)c2C(=O)c2c(NCC[NH2+]CCO)ccc(NCCNCCO)c21
REMARK SMILES IDX 1 1 2 2 3 3 4 4 5 5 6 6 7 7 8 8 10 9 11 10 12 11 13 12 14 13
REMARK SMILES IDX 22 14 23 15 24 16 32 17 25 18 26 20 27 21 28 22 29 24 30 25
REMARK SMILES IDX 31 26 9 28 15 30 16 32 17 33 18 34 19 37 20 38 21 39
REMARK H PARENT 25 19 28 23 31 27 9 29 15 31 18 35 18 36 21 40
ROOT
ATOM      1  O   UNL     1     107.534 104.971 113.641  1.00  0.00    -0.288 OA
ATOM      2  C   UNL     1     106.797 104.913 114.655  1.00  0.00     0.196 C 
ATOM      3  C   UNL     1     107.053 105.870 115.757  1.00  0.00     0.030 A 
ATOM      4  C   UNL     1     108.088 106.771 115.599  1.00  0.00    -0.097 A 
ATOM      5  O   UNL     1     108.843 106.750 114.430  1.00  0.00    -0.872 OA
ATOM      6  C   UNL     1     108.344 107.672 116.609  1.00  0.00    -0.004 A 
ATOM      7  C   UNL     1     107.586 107.670 117.747  1.00  0.00     0.046 A 
ATOM      8  C   UNL     1     106.550 106.781 117.926  1.00  0.00     0.127 A 
ATOM      9  C   UNL     1     106.301 105.875 116.895  1.00  0.00     0.075 A 
ATOM     10  C   UNL     1     105.206 104.907 117.040  1.00  0.00     0.200 C 
ATOM     11  O   UNL     1     104.568 104.983 118.117  1.00  0.00    -0.288 OA
ATOM     12  C   UNL     1     104.936 103.956 115.971  1.00  0.00     0.059 A 
ATOM     13  C   UNL     1     103.907 103.076 116.160  1.00  0.00     0.046 A 
ATOM     14  C   UNL     1     103.678 102.170 115.104  1.00  0.00     0.028 A 
ATOM     15  C   UNL     1     104.433 102.175 113.974  1.00  0.00     0.028 A 
ATOM     16  C   UNL     1     105.491 103.078 113.779  1.00  0.00     0.046 A 
ATOM     17  C   UNL     1     105.728 103.967 114.795  1.00  0.00     0.059 A 
ENDROOT
BRANCH  16  18
ATOM     18  N   UNL     1     106.193 103.017 112.539  1.00  0.00    -0.383 N 
ATOM     19  H   UNL     1     107.056 103.520 112.388  1.00  0.00     0.160 HD
BRANCH  18  20
ATOM     20  C   UNL     1     105.705 102.232 111.419  1.00  0.00     0.128 C 
BRANCH  20  21
ATOM     21  C   UNL     1     106.725 101.927 110.381  1.00  0.00     0.102 C 
BRANCH  21  22
ATOM     22  N   UNL     1     107.751 102.976 110.303  1.00  0.00    -0.313 NA
ATOM     23  H   UNL     1     107.236 103.890 110.331  1.00  0.00     0.122 HD
BRANCH  22  24
ATOM     24  C   UNL     1     108.342 102.883 108.977  1.00  0.00     0.109 C 
BRANCH  24  25
ATOM     25  C   UNL     1     109.592 102.035 108.993  1.00  0.00     0.171 C 
BRANCH  25  26
ATOM     26  O   UNL     1     109.419 100.852 108.280  1.00  0.00    -0.395 OA
ATOM     27  H   UNL     1     108.508 100.505 108.494  1.00  0.00     0.210 HD
ENDBRANCH  25  26
ENDBRANCH  24  25
ENDBRANCH  22  24
ENDBRANCH  21  22
ENDBRANCH  20  21
ENDBRANCH  18  20
ENDBRANCH  16  18
BRANCH   8  28
ATOM     28  O   UNL     1     105.775 106.783 119.093  1.00  0.00    -0.507 OA
ATOM     29  H   UNL     1     105.951 106.123 119.853  1.00  0.00     0.293 HD
ENDBRANCH   8  28
BRANCH  13  30
ATOM     30  N   UNL     1     103.074 103.000 117.295  1.00  0.00    -0.379 N 
ATOM     31  H   UNL     1     102.363 103.669 117.551  1.00  0.00     0.160 HD
BRANCH  30  32
ATOM     32  C   UNL     1     103.200 101.869 118.237  1.00  0.00     0.174 C 
BRANCH  32  33
ATOM     33  C   UNL     1     102.669 100.600 117.678  1.00  0.00     0.281 C 
BRANCH  33  34
ATOM     34  N   UNL     1     103.527  99.467 117.837  1.00  0.00    -0.343 N 
ATOM     35  H   UNL     1     104.455  99.700 118.257  1.00  0.00     0.346 HD
ATOM     36  H   UNL     1     103.065  98.811 118.515  1.00  0.00     0.346 HD
BRANCH  34  37
ATOM     37  C   UNL     1     103.741  98.721 116.621  1.00  0.00     0.289 C 
BRANCH  37  38
ATOM     38  C   UNL     1     104.788  97.643 116.788  1.00  0.00     0.217 C 
BRANCH  38  39
ATOM     39  O   UNL     1     105.530  97.560 115.623  1.00  0.00    -0.391 OA
ATOM     40  H   UNL     1     106.202  96.830 115.757  1.00  0.00     0.210 HD
ENDBRANCH  38  39
ENDBRANCH  37  38
ENDBRANCH  34  37
ENDBRANCH  33  34
ENDBRANCH  32  33
ENDBRANCH  30  32
ENDBRANCH  13  30
TORSDOF 15
ENDMDL
MODEL 3
REMARK VINA RESULT:      -4.9      1.147      6.057
REMARK SMILES O=C1c2c([O-])ccc(O)c2C(=O)c2c(NCC[NH2+]CCO)ccc(NCCNCCO)c21
REMARK SMILES IDX 1 1 2 2 3 3 4 4 5 5 6 6 7 7 8 8 10 9 11 10 12 11 13 12 14 13
REMARK SMILES IDX 22 14 23 15 24 16 32 17 25 18 26 20 27 21 28 22 29 24 30 25
REMARK SMILES IDX 31 26 9 28 15 30 16 32 17 33 18 34 19 37 20 38 21 39
REMARK H PARENT 25 19 28 23 31 27 9 29 15 31 18 35 18 36 21 40
ROOT
ATOM      1  O   UNL     1     107.627 105.041 113.877  1.00  0.00    -0.288 OA
ATOM      2  C   UNL     1     106.718 105.038 114.743  1.00  0.00     0.196 C 
ATOM      3  C   UNL     1     106.848 105.961 115.894  1.00  0.00     0.030 A 
ATOM      4  C   UNL     1     107.965 106.774 115.943  1.00  0.00    -0.097 A 
ATOM      5  O   UNL     1     108.913 106.699 114.927  1.00  0.00    -0.872 OA
ATOM      6  C   UNL     1     108.107 107.642 117.003  1.00  0.00    -0.004 A 
ATOM      7  C   UNL     1     107.160 107.696 117.987  1.00  0.00     0.046 A 
ATOM      8  C   UNL     1     106.040 106.894 117.959  1.00  0.00     0.127 A 
ATOM      9  C   UNL     1     105.907 106.020 116.880  1.00  0.00     0.075 A 
ATOM     10  C   UNL     1     104.730 105.146 116.805  1.00  0.00     0.200 C 
ATOM     11  O   UNL     1     103.917 105.267 117.753  1.00  0.00    -0.288 OA
ATOM     12  C   UNL     1     104.580 104.230 115.684  1.00  0.00     0.059 A 
ATOM     13  C   UNL     1     103.466 103.438 115.668  1.00  0.00     0.046 A 
ATOM     14  C   UNL     1     103.357 102.562 114.568  1.00  0.00     0.028 A 
ATOM     15  C   UNL     1     104.300 102.512 113.590  1.00  0.00     0.028 A 
ATOM     16  C   UNL     1     105.446 103.325 113.607  1.00  0.00     0.046 A 
ATOM     17  C   UNL     1     105.568 104.183 114.669  1.00  0.00     0.059 A 
ENDROOT
BRANCH  16  18
ATOM     18  N   UNL     1     106.351 103.215 112.511  1.00  0.00    -0.383 N 
ATOM     19  H   UNL     1     107.070 103.904 112.340  1.00  0.00     0.160 HD
BRANCH  18  20
ATOM     20  C   UNL     1     106.290 102.108 111.573  1.00  0.00     0.128 C 
BRANCH  20  21
ATOM     21  C   UNL     1     107.155 102.260 110.373  1.00  0.00     0.102 C 
BRANCH  21  22
ATOM     22  N   UNL     1     107.895 101.026 110.078  1.00  0.00    -0.313 NA
ATOM     23  H   UNL     1     108.629 101.287 109.375  1.00  0.00     0.122 HD
BRANCH  22  24
ATOM     24  C   UNL     1     106.970 100.138 109.390  1.00  0.00     0.109 C 
BRANCH  24  25
ATOM     25  C   UNL     1     107.608  99.523 108.168  1.00  0.00     0.171 C 
BRANCH  25  26
ATOM     26  O   UNL     1     108.209  98.302 108.462  1.00  0.00    -0.395 OA
ATOM     27  H   UNL     1     109.173  98.378 108.220  1.00  0.00     0.210 HD
ENDBRANCH  25  26
ENDBRANCH  24  25
ENDBRANCH  22  24
ENDBRANCH  21  22
ENDBRANCH  20  21
ENDBRANCH  18  20
ENDBRANCH  16  18
BRANCH   8  28
ATOM     28  O   UNL     1     105.071 106.952 118.969  1.00  0.00    -0.507 OA
ATOM     29  H   UNL     1     105.322 107.149 119.939  1.00  0.00     0.293 HD
ENDBRANCH   8  28
BRANCH  13  30
ATOM     30  N   UNL     1     102.439 103.423 116.634  1.00  0.00    -0.379 N 
ATOM     31  H   UNL     1     101.625 104.019 116.639  1.00  0.00     0.160 HD
BRANCH  30  32
ATOM     32  C   UNL     1     102.497 102.477 117.767  1.00  0.00     0.174 C 
BRANCH  32  33
ATOM     33  C   UNL     1     103.203 101.217 117.423  1.00  0.00     0.281 C 
BRANCH  33  34
ATOM     34  N   UNL     1     104.497 101.072 118.013  1.00  0.00    -0.343 N 
ATOM     35  H   UNL     1     105.024 101.971 118.094  1.00  0.00     0.346 HD
ATOM     36  H   UNL     1     104.362 100.733 118.998  1.00  0.00     0.346 HD
BRANCH  34  37
ATOM     37  C   UNL     1     105.335 100.101 117.353  1.00  0.00     0.289 C 
BRANCH  37  38
ATOM     38  C   UNL     1     104.531  99.105 116.548  1.00  0.00     0.217 C 
BRANCH  38  39
ATOM     39  O   UNL     1     105.397  98.171 116.005  1.00  0.00    -0.391 OA
ATOM     40  H   UNL     1     105.144  97.282 116.389  1.00  0.00     0.210 HD
ENDBRANCH  38  39
ENDBRANCH  37  38
ENDBRANCH  34  37
ENDBRANCH  33  34
ENDBRANCH  32  33
ENDBRANCH  30  32
ENDBRANCH  13  30
TORSDOF 15
ENDMDL
MODEL 4
REMARK VINA RESULT:      -4.5      1.082      1.201
REMARK SMILES O=C1c2c([O-])ccc(O)c2C(=O)c2c(NCC[NH2+]CCO)ccc(NCCNCCO)c21
REMARK SMILES IDX 1 1 2 2 3 3 4 4 5 5 6 6 7 7 8 8 10 9 11 10 12 11 13 12 14 13
REMARK SMILES IDX 22 14 23 15 24 16 32 17 25 18 26 20 27 21 28 22 29 24 30 25
REMARK SMILES IDX 31 26 9 28 15 30 16 32 17 33 18 34 19 37 20 38 21 39
REMARK H PARENT 25 19 28 23 31 27 9 29 15 31 18 35 18 36 21 40
ROOT
ATOM      1  O   UNL     1     104.250 104.956 117.674  1.00  0.00    -0.288 OA
ATOM      2  C   UNL     1     105.047 104.956 116.705  1.00  0.00     0.196 C 
ATOM      3  C   UNL     1     106.212 105.870 116.760  1.00  0.00     0.030 A 
ATOM      4  C   UNL     1     106.351 106.667 117.880  1.00  0.00    -0.097 A 
ATOM      5  O   UNL     1     105.408 106.586 118.901  1.00  0.00    -0.872 OA
ATOM      6  C   UNL     1     107.427 107.524 117.955  1.00  0.00    -0.004 A 
ATOM      7  C   UNL     1     108.338 107.583 116.938  1.00  0.00     0.046 A 
ATOM      8  C   UNL     1     108.219 106.797 115.813  1.00  0.00     0.127 A 
ATOM      9  C   UNL     1     107.126 105.934 115.749  1.00  0.00     0.075 A 
ATOM     10  C   UNL     1     106.956 105.077 114.570  1.00  0.00     0.200 C 
ATOM     11  O   UNL     1     107.842 105.201 113.690  1.00  0.00    -0.288 OA
ATOM     12  C   UNL     1     105.819 104.171 114.492  1.00  0.00     0.059 A 
ATOM     13  C   UNL     1     105.709 103.398 113.369  1.00  0.00     0.046 A 
ATOM     14  C   UNL     1     104.594 102.536 113.329  1.00  0.00     0.028 A 
ATOM     15  C   UNL     1     103.690 102.479 114.343  1.00  0.00     0.028 A 
ATOM     16  C   UNL     1     103.802 103.273 115.497  1.00  0.00     0.046 A 
ATOM     17  C   UNL     1     104.880 104.117 115.552  1.00  0.00     0.059 A 
ENDROOT
BRANCH  16  18
ATOM     18  N   UNL     1     102.816 103.105 116.513  1.00  0.00    -0.383 N 
ATOM     19  H   UNL     1     101.964 103.649 116.526  1.00  0.00     0.160 HD
BRANCH  18  20
ATOM     20  C   UNL     1     102.980 102.147 117.591  1.00  0.00     0.128 C 
BRANCH  20  21
ATOM     21  C   UNL     1     103.719 100.912 117.220  1.00  0.00     0.102 C 
BRANCH  21  22
ATOM     22  N   UNL     1     102.831  99.905 116.625  1.00  0.00    -0.313 NA
ATOM     23  H   UNL     1     102.003  99.832 117.265  1.00  0.00     0.122 HD
BRANCH  22  24
ATOM     24  C   UNL     1     103.527  98.630 116.714  1.00  0.00     0.109 C 
BRANCH  24  25
ATOM     25  C   UNL     1     102.588  97.476 116.458  1.00  0.00     0.171 C 
BRANCH  25  26
ATOM     26  O   UNL     1     103.276  96.270 116.344  1.00  0.00    -0.395 OA
ATOM     27  H   UNL     1     102.770  95.697 115.704  1.00  0.00     0.210 HD
ENDBRANCH  25  26
ENDBRANCH  24  25
ENDBRANCH  22  24
ENDBRANCH  21  22
ENDBRANCH  20  21
ENDBRANCH  18  20
ENDBRANCH  16  18
BRANCH   8  28
ATOM     28  O   UNL     1     109.155 106.860 114.772  1.00  0.00    -0.507 OA
ATOM     29  H   UNL     1     109.734 106.056 114.526  1.00  0.00     0.293 HD
ENDBRANCH   8  28
BRANCH  13  30
ATOM     30  N   UNL     1     106.596 103.389 112.273  1.00  0.00    -0.379 N 
ATOM     31  H   UNL     1     107.270 104.108 112.053  1.00  0.00     0.160 HD
BRANCH  30  32
ATOM     32  C   UNL     1     106.592 102.260 111.321  1.00  0.00     0.174 C 
BRANCH  32  33
ATOM     33  C   UNL     1     107.299 102.579 110.055  1.00  0.00     0.281 C 
BRANCH  33  34
ATOM     34  N   UNL     1     108.704 102.313 110.066  1.00  0.00    -0.343 N 
ATOM     35  H   UNL     1     109.265 103.043 110.560  1.00  0.00     0.346 HD
ATOM     36  H   UNL     1     108.855 101.425 110.607  1.00  0.00     0.346 HD
BRANCH  34  37
ATOM     37  C   UNL     1     109.269 102.099 108.756  1.00  0.00     0.289 C 
BRANCH  37  38
ATOM     38  C   UNL     1     110.753 102.388 108.719  1.00  0.00     0.217 C 
BRANCH  38  39
ATOM     39  O   UNL     1     111.411 101.268 108.243  1.00  0.00    -0.391 OA
ATOM     40  H   UNL     1     111.030 101.067 107.339  1.00  0.00     0.210 HD
ENDBRANCH  38  39
ENDBRANCH  37  38
ENDBRANCH  34  37
ENDBRANCH  33  34
ENDBRANCH  32  33
ENDBRANCH  30  32
ENDBRANCH  13  30
TORSDOF 15
ENDMDL
MODEL 5
REMARK VINA RESULT:      -4.2      2.664      7.198
REMARK SMILES O=C1c2c([O-])ccc(O)c2C(=O)c2c(NCC[NH2+]CCO)ccc(NCCNCCO)c21
REMARK SMILES IDX 1 1 2 2 3 3 4 4 5 5 6 6 7 7 8 8 10 9 11 10 12 11 13 12 14 13
REMARK SMILES IDX 22 14 23 15 24 16 32 17 25 18 26 20 27 21 28 22 29 24 30 25
REMARK SMILES IDX 31 26 9 28 15 30 16 32 17 33 18 34 19 37 20 38 21 39
REMARK H PARENT 25 19 28 23 31 27 9 29 15 31 18 35 18 36 21 40
ROOT
ATOM      1  O   UNL     1     103.617 102.893 114.304  1.00  0.00    -0.288 OA
ATOM      2  C   UNL     1     103.965 103.772 115.129  1.00  0.00     0.196 C 
ATOM      3  C   UNL     1     103.007 104.147 116.195  1.00  0.00     0.030 A 
ATOM      4  C   UNL     1     101.786 103.501 116.216  1.00  0.00    -0.097 A 
ATOM      5  O   UNL     1     101.502 102.538 115.253  1.00  0.00    -0.872 OA
ATOM      6  C   UNL     1     100.878 103.832 117.199  1.00  0.00    -0.004 A 
ATOM      7  C   UNL     1     101.183 104.782 118.133  1.00  0.00     0.046 A 
ATOM      8  C   UNL     1     102.395 105.438 118.129  1.00  0.00     0.127 A 
ATOM      9  C   UNL     1     103.305 105.094 117.130  1.00  0.00     0.075 A 
ATOM     10  C   UNL     1     104.609 105.766 117.085  1.00  0.00     0.200 C 
ATOM     11  O   UNL     1     104.797 106.622 117.983  1.00  0.00    -0.288 OA
ATOM     12  C   UNL     1     105.568 105.416 116.047  1.00  0.00     0.059 A 
ATOM     13  C   UNL     1     106.765 106.075 116.051  1.00  0.00     0.046 A 
ATOM     14  C   UNL     1     107.666 105.710 115.030  1.00  0.00     0.028 A 
ATOM     15  C   UNL     1     107.360 104.763 114.103  1.00  0.00     0.028 A 
ATOM     16  C   UNL     1     106.129 104.086 114.097  1.00  0.00     0.046 A 
ATOM     17  C   UNL     1     105.241 104.428 115.083  1.00  0.00     0.059 A 
ENDROOT
BRANCH  16  18
ATOM     18  N   UNL     1     105.929 103.087 113.100  1.00  0.00    -0.383 N 
ATOM     19  H   UNL     1     105.335 102.285 113.258  1.00  0.00     0.160 HD
BRANCH  18  20
ATOM     20  C   UNL     1     106.570 103.160 111.799  1.00  0.00     0.128 C 
BRANCH  20  21
ATOM     21  C   UNL     1     106.410 101.947 110.956  1.00  0.00     0.102 C 
BRANCH  21  22
ATOM     22  N   UNL     1     106.911 102.164 109.592  1.00  0.00    -0.313 NA
ATOM     23  H   UNL     1     106.150 101.839 108.947  1.00  0.00     0.122 HD
BRANCH  22  24
ATOM     24  C   UNL     1     108.023 101.245 109.404  1.00  0.00     0.109 C 
BRANCH  24  25
ATOM     25  C   UNL     1     109.233 101.956 108.847  1.00  0.00     0.171 C 
BRANCH  25  26
ATOM     26  O   UNL     1     109.917 101.162 107.930  1.00  0.00    -0.395 OA
ATOM     27  H   UNL     1     109.577 100.230 108.030  1.00  0.00     0.210 HD
ENDBRANCH  25  26
ENDBRANCH  24  25
ENDBRANCH  22  24
ENDBRANCH  21  22
ENDBRANCH  20  21
ENDBRANCH  18  20
ENDBRANCH  16  18
BRANCH   8  28
ATOM     28  O   UNL     1     102.704 106.411 119.088  1.00  0.00    -0.507 OA
ATOM     29  H   UNL     1     103.512 106.316 119.705  1.00  0.00     0.293 HD
ENDBRANCH   8  28
BRANCH  13  30
ATOM     30  N   UNL     1     107.168 107.065 116.971  1.00  0.00    -0.379 N 
ATOM     31  H   UNL     1     106.659 107.347 117.795  1.00  0.00     0.160 HD
BRANCH  30  32
ATOM     32  C   UNL     1     108.435 107.798 116.768  1.00  0.00     0.174 C 
BRANCH  32  33
ATOM     33  C   UNL     1     108.578 108.954 117.689  1.00  0.00     0.281 C 
BRANCH  33  34
ATOM     34  N   UNL     1     109.916 109.436 117.846  1.00  0.00    -0.343 N 
ATOM     35  H   UNL     1     110.254 110.005 117.037  1.00  0.00     0.346 HD
ATOM     36  H   UNL     1     109.926 110.082 118.673  1.00  0.00     0.346 HD
BRANCH  34  37
ATOM     37  C   UNL     1     110.882 108.400 118.119  1.00  0.00     0.289 C 
BRANCH  37  38
ATOM     38  C   UNL     1     112.120 108.531 117.262  1.00  0.00     0.217 C 
BRANCH  38  39
ATOM     39  O   UNL     1     111.914 107.847 116.076  1.00  0.00    -0.391 OA
ATOM     40  H   UNL     1     112.683 107.216 115.966  1.00  0.00     0.210 HD
ENDBRANCH  38  39
ENDBRANCH  37  38
ENDBRANCH  34  37
ENDBRANCH  33  34
ENDBRANCH  32  33
ENDBRANCH  30  32
ENDBRANCH  13  30
TORSDOF 15
ENDMDL
MODEL 6
REMARK VINA RESULT:      -4.1      2.620      7.363
REMARK SMILES O=C1c2c([O-])ccc(O)c2C(=O)c2c(NCC[NH2+]CCO)ccc(NCCNCCO)c21
REMARK SMILES IDX 1 1 2 2 3 3 4 4 5 5 6 6 7 7 8 8 10 9 11 10 12 11 13 12 14 13
REMARK SMILES IDX 22 14 23 15 24 16 32 17 25 18 26 20 27 21 28 22 29 24 30 25
REMARK SMILES IDX 31 26 9 28 15 30 16 32 17 33 18 34 19 37 20 38 21 39
REMARK H PARENT 25 19 28 23 31 27 9 29 15 31 18 35 18 36 21 40
ROOT
ATOM      1  O   UNL     1     103.794 102.815 114.716  1.00  0.00    -0.288 OA
ATOM      2  C   UNL     1     104.023 103.792 115.470  1.00  0.00     0.196 C 
ATOM      3  C   UNL     1     102.977 104.179 116.446  1.00  0.00     0.030 A 
ATOM      4  C   UNL     1     101.812 103.437 116.467  1.00  0.00    -0.097 A 
ATOM      5  O   UNL     1     101.662 102.370 115.586  1.00  0.00    -0.872 OA
ATOM      6  C   UNL     1     100.826 103.777 117.367  1.00  0.00    -0.004 A 
ATOM      7  C   UNL     1     100.999 104.830 118.221  1.00  0.00     0.046 A 
ATOM      8  C   UNL     1     102.153 105.583 118.216  1.00  0.00     0.127 A 
ATOM      9  C   UNL     1     103.144 105.229 117.301  1.00  0.00     0.075 A 
ATOM     10  C   UNL     1     104.391 106.001 117.259  1.00  0.00     0.200 C 
ATOM     11  O   UNL     1     104.458 106.948 118.080  1.00  0.00    -0.288 OA
ATOM     12  C   UNL     1     105.433 105.641 116.308  1.00  0.00     0.059 A 
ATOM     13  C   UNL     1     106.572 106.397 116.311  1.00  0.00     0.046 A 
ATOM     14  C   UNL     1     107.557 106.019 115.375  1.00  0.00     0.028 A 
ATOM     15  C   UNL     1     107.381 104.970 114.528  1.00  0.00     0.028 A 
ATOM     16  C   UNL     1     106.211 104.194 114.524  1.00  0.00     0.046 A 
ATOM     17  C   UNL     1     105.243 104.547 115.428  1.00  0.00     0.059 A 
ENDROOT
BRANCH  16  18
ATOM     18  N   UNL     1     106.149 103.095 113.617  1.00  0.00    -0.383 N 
ATOM     19  H   UNL     1     106.308 102.144 113.918  1.00  0.00     0.160 HD
BRANCH  18  20
ATOM     20  C   UNL     1     105.859 103.279 112.206  1.00  0.00     0.128 C 
BRANCH  20  21
ATOM     21  C   UNL     1     107.058 103.405 111.335  1.00  0.00     0.102 C 
BRANCH  21  22
ATOM     22  N   UNL     1     107.088 102.363 110.301  1.00  0.00    -0.313 NA
ATOM     23  H   UNL     1     107.077 101.446 110.810  1.00  0.00     0.122 HD
BRANCH  22  24
ATOM     24  C   UNL     1     108.390 102.454 109.656  1.00  0.00     0.109 C 
BRANCH  24  25
ATOM     25  C   UNL     1     108.585 101.337 108.658  1.00  0.00     0.171 C 
BRANCH  25  26
ATOM     26  O   UNL     1     107.977 100.158 109.083  1.00  0.00    -0.395 OA
ATOM     27  H   UNL     1     108.167 100.059 110.057  1.00  0.00     0.210 HD
ENDBRANCH  25  26
ENDBRANCH  24  25
ENDBRANCH  22  24
ENDBRANCH  21  22
ENDBRANCH  20  21
ENDBRANCH  18  20
ENDBRANCH  16  18
BRANCH   8  28
ATOM     28  O   UNL     1     102.328 106.661 119.093  1.00  0.00    -0.507 OA
ATOM     29  H   UNL     1     102.958 106.602 119.895  1.00  0.00     0.293 HD
ENDBRANCH   8  28
BRANCH  13  30
ATOM     30  N   UNL     1     106.841 107.497 117.151  1.00  0.00    -0.379 N 
ATOM     31  H   UNL     1     106.655 107.542 118.142  1.00  0.00     0.160 HD
BRANCH  30  32
ATOM     32  C   UNL     1     107.445 108.727 116.598  1.00  0.00     0.174 C 
BRANCH  32  33
ATOM     33  C   UNL     1     106.468 109.839 116.482  1.00  0.00     0.281 C 
BRANCH  33  34
ATOM     34  N   UNL     1     105.177 109.566 117.034  1.00  0.00    -0.343 N 
ATOM     35  H   UNL     1     104.895 108.562 116.964  1.00  0.00     0.346 HD
ATOM     36  H   UNL     1     105.219 109.778 118.062  1.00  0.00     0.346 HD
BRANCH  34  37
ATOM     37  C   UNL     1     104.123 110.384 116.487  1.00  0.00     0.289 C 
BRANCH  37  38
ATOM     38  C   UNL     1     103.068 109.562 115.781  1.00  0.00     0.217 C 
BRANCH  38  39
ATOM     39  O   UNL     1     102.442 108.750 116.710  1.00  0.00    -0.391 OA
ATOM     40  H   UNL     1     102.030 109.354 117.394  1.00  0.00     0.210 HD
ENDBRANCH  38  39
ENDBRANCH  37  38
ENDBRANCH  34  37
ENDBRANCH  33  34
ENDBRANCH  32  33
ENDBRANCH  30  32
ENDBRANCH  13  30
TORSDOF 15
ENDMDL
MODEL 7
REMARK VINA RESULT:      -4.1      3.836      6.784
REMARK SMILES O=C1c2c([O-])ccc(O)c2C(=O)c2c(NCC[NH2+]CCO)ccc(NCCNCCO)c21
REMARK SMILES IDX 1 1 2 2 3 3 4 4 5 5 6 6 7 7 8 8 10 9 11 10 12 11 13 12 14 13
REMARK SMILES IDX 22 14 23 15 24 16 32 17 25 18 26 20 27 21 28 22 29 24 30 25
REMARK SMILES IDX 31 26 9 28 15 30 16 32 17 33 18 34 19 37 20 38 21 39
REMARK H PARENT 25 19 28 23 31 27 9 29 15 31 18 35 18 36 21 40
ROOT
ATOM      1  O   UNL     1     103.061 105.917 117.761  1.00  0.00    -0.288 OA
ATOM      2  C   UNL     1     103.599 107.041 117.614  1.00  0.00     0.196 C 
ATOM      3  C   UNL     1     102.771 108.247 117.847  1.00  0.00     0.030 A 
ATOM      4  C   UNL     1     101.453 108.060 118.215  1.00  0.00    -0.097 A 
ATOM      5  O   UNL     1     100.956 106.767 118.352  1.00  0.00    -0.872 OA
ATOM      6  C   UNL     1     100.663 109.166 118.438  1.00  0.00    -0.004 A 
ATOM      7  C   UNL     1     101.178 110.425 118.296  1.00  0.00     0.046 A 
ATOM      8  C   UNL     1     102.489 110.634 117.930  1.00  0.00     0.127 A 
ATOM      9  C   UNL     1     103.278 109.506 117.707  1.00  0.00     0.075 A 
ATOM     10  C   UNL     1     104.682 109.678 117.315  1.00  0.00     0.200 C 
ATOM     11  O   UNL     1     105.062 110.869 117.211  1.00  0.00    -0.288 OA
ATOM     12  C   UNL     1     105.516 108.508 117.080  1.00  0.00     0.059 A 
ATOM     13  C   UNL     1     106.815 108.728 116.714  1.00  0.00     0.046 A 
ATOM     14  C   UNL     1     107.590 107.571 116.493  1.00  0.00     0.028 A 
ATOM     15  C   UNL     1     107.075 106.321 116.636  1.00  0.00     0.028 A 
ATOM     16  C   UNL     1     105.740 106.094 117.011  1.00  0.00     0.046 A 
ATOM     17  C   UNL     1     104.972 107.208 117.230  1.00  0.00     0.059 A 
ENDROOT
BRANCH  16  18
ATOM     18  N   UNL     1     105.318 104.741 117.166  1.00  0.00    -0.383 N 
ATOM     19  H   UNL     1     104.954 104.392 118.041  1.00  0.00     0.160 HD
BRANCH  18  20
ATOM     20  C   UNL     1     105.389 103.785 116.076  1.00  0.00     0.128 C 
BRANCH  20  21
ATOM     21  C   UNL     1     104.074 103.378 115.516  1.00  0.00     0.102 C 
BRANCH  21  22
ATOM     22  N   UNL     1     104.208 102.264 114.569  1.00  0.00    -0.313 NA
ATOM     23  H   UNL     1     104.191 101.387 115.144  1.00  0.00     0.122 HD
BRANCH  22  24
ATOM     24  C   UNL     1     105.547 102.355 114.005  1.00  0.00     0.109 C 
BRANCH  24  25
ATOM     25  C   UNL     1     105.548 103.155 112.725  1.00  0.00     0.171 C 
BRANCH  25  26
ATOM     26  O   UNL     1     106.580 104.091 112.706  1.00  0.00    -0.395 OA
ATOM     27  H   UNL     1     106.162 104.996 112.731  1.00  0.00     0.210 HD
ENDBRANCH  25  26
ENDBRANCH  24  25
ENDBRANCH  22  24
ENDBRANCH  21  22
ENDBRANCH  20  21
ENDBRANCH  18  20
ENDBRANCH  16  18
BRANCH   8  28
ATOM     28  O   UNL     1     103.013 111.926 117.786  1.00  0.00    -0.507 OA
ATOM     29  H   UNL     1     103.025 112.399 116.881  1.00  0.00     0.293 HD
ENDBRANCH   8  28
BRANCH  13  30
ATOM     30  N   UNL     1     107.432 109.984 116.544  1.00  0.00    -0.379 N 
ATOM     31  H   UNL     1     107.343 110.774 117.166  1.00  0.00     0.160 HD
BRANCH  30  32
ATOM     32  C   UNL     1     108.296 110.237 115.373  1.00  0.00     0.174 C 
BRANCH  32  33
ATOM     33  C   UNL     1     109.734 110.014 115.667  1.00  0.00     0.281 C 
BRANCH  33  34
ATOM     34  N   UNL     1     110.218 110.679 116.838  1.00  0.00    -0.343 N 
ATOM     35  H   UNL     1     110.527 111.662 116.664  1.00  0.00     0.346 HD
ATOM     36  H   UNL     1     109.421 110.748 117.518  1.00  0.00     0.346 HD
BRANCH  34  37
ATOM     37  C   UNL     1     111.278 109.972 117.515  1.00  0.00     0.289 C 
BRANCH  37  38
ATOM     38  C   UNL     1     111.331 108.512 117.127  1.00  0.00     0.217 C 
BRANCH  38  39
ATOM     39  O   UNL     1     112.507 108.278 116.437  1.00  0.00    -0.391 OA
ATOM     40  H   UNL     1     113.233 108.769 116.922  1.00  0.00     0.210 HD
ENDBRANCH  38  39
ENDBRANCH  37  38
ENDBRANCH  34  37
ENDBRANCH  33  34
ENDBRANCH  32  33
ENDBRANCH  30  32
ENDBRANCH  13  30
TORSDOF 15
ENDMDL
MODEL 8
REMARK VINA RESULT:      -4.1      1.594      6.778
REMARK SMILES O=C1c2c([O-])ccc(O)c2C(=O)c2c(NCC[NH2+]CCO)ccc(NCCNCCO)c21
REMARK SMILES IDX 1 1 2 2 3 3 4 4 5 5 6 6 7 7 8 8 10 9 11 10 12 11 13 12 14 13
REMARK SMILES IDX 22 14 23 15 24 16 32 17 25 18 26 20 27 21 28 22 29 24 30 25
REMARK SMILES IDX 31 26 9 28 15 30 16 32 17 33 18 34 19 37 20 38 21 39
REMARK H PARENT 25 19 28 23 31 27 9 29 15 31 18 35 18 36 21 40
ROOT
ATOM      1  O   UNL     1     107.365 104.676 114.308  1.00  0.00    -0.288 OA
ATOM      2  C   UNL     1     106.376 104.817 115.068  1.00  0.00     0.196 C 
ATOM      3  C   UNL     1     106.423 105.898 116.080  1.00  0.00     0.030 A 
ATOM      4  C   UNL     1     107.556 106.688 116.124  1.00  0.00    -0.097 A 
ATOM      5  O   UNL     1     108.596 106.446 115.231  1.00  0.00    -0.872 OA
ATOM      6  C   UNL     1     107.623 107.700 117.055  1.00  0.00    -0.004 A 
ATOM      7  C   UNL     1     106.586 107.916 117.920  1.00  0.00     0.046 A 
ATOM      8  C   UNL     1     105.448 107.140 117.894  1.00  0.00     0.127 A 
ATOM      9  C   UNL     1     105.393 106.119 116.946  1.00  0.00     0.075 A 
ATOM     10  C   UNL     1     104.200 105.266 116.880  1.00  0.00     0.200 C 
ATOM     11  O   UNL     1     103.303 105.540 117.712  1.00  0.00    -0.288 OA
ATOM     12  C   UNL     1     104.130 104.196 115.894  1.00  0.00     0.059 A 
ATOM     13  C   UNL     1     102.997 103.431 115.879  1.00  0.00     0.046 A 
ATOM     14  C   UNL     1     102.968 102.405 114.913  1.00  0.00     0.028 A 
ATOM     15  C   UNL     1     104.000 102.194 114.053  1.00  0.00     0.028 A 
ATOM     16  C   UNL     1     105.165 102.979 114.069  1.00  0.00     0.046 A 
ATOM     17  C   UNL     1     105.211 103.982 115.002  1.00  0.00     0.059 A 
ENDROOT
BRANCH  16  18
ATOM     18  N   UNL     1     106.169 102.692 113.098  1.00  0.00    -0.383 N 
ATOM     19  H   UNL     1     107.031 102.226 113.343  1.00  0.00     0.160 HD
BRANCH  18  20
ATOM     20  C   UNL     1     106.013 103.056 111.701  1.00  0.00     0.128 C 
BRANCH  20  21
ATOM     21  C   UNL     1     105.952 101.906 110.761  1.00  0.00     0.102 C 
BRANCH  21  22
ATOM     22  N   UNL     1     107.248 101.222 110.654  1.00  0.00    -0.313 NA
ATOM     23  H   UNL     1     107.927 101.938 110.298  1.00  0.00     0.122 HD
BRANCH  22  24
ATOM     24  C   UNL     1     107.111 100.231 109.597  1.00  0.00     0.109 C 
BRANCH  24  25
ATOM     25  C   UNL     1     108.170 100.413 108.537  1.00  0.00     0.171 C 
BRANCH  25  26
ATOM     26  O   UNL     1     109.108 101.374 108.907  1.00  0.00    -0.395 OA
ATOM     27  H   UNL     1     109.832 100.905 109.407  1.00  0.00     0.210 HD
ENDBRANCH  25  26
ENDBRANCH  24  25
ENDBRANCH  22  24
ENDBRANCH  21  22
ENDBRANCH  20  21
ENDBRANCH  18  20
ENDBRANCH  16  18
BRANCH   8  28
ATOM     28  O   UNL     1     104.388 107.364 118.782  1.00  0.00    -0.507 OA
ATOM     29  H   UNL     1     104.382 108.165 119.417  1.00  0.00     0.293 HD
ENDBRANCH   8  28
BRANCH  13  30
ATOM     30  N   UNL     1     101.881 103.578 116.728  1.00  0.00    -0.379 N 
ATOM     31  H   UNL     1     101.914 103.741 117.723  1.00  0.00     0.160 HD
BRANCH  30  32
ATOM     32  C   UNL     1     100.512 103.495 116.179  1.00  0.00     0.174 C 
BRANCH  32  33
ATOM     33  C   UNL     1      99.711 102.415 116.806  1.00  0.00     0.281 C 
BRANCH  33  34
ATOM     34  N   UNL     1     100.475 101.317 117.315  1.00  0.00    -0.343 N 
ATOM     35  H   UNL     1     100.650 100.566 116.610  1.00  0.00     0.346 HD
ATOM     36  H   UNL     1     101.422 101.685 117.581  1.00  0.00     0.346 HD
BRANCH  34  37
ATOM     37  C   UNL     1      99.917 100.718 118.503  1.00  0.00     0.289 C 
BRANCH  37  38
ATOM     38  C   UNL     1     100.051  99.212 118.502  1.00  0.00     0.217 C 
BRANCH  38  39
ATOM     39  O   UNL     1     100.503  98.808 117.257  1.00  0.00    -0.391 OA
ATOM     40  H   UNL     1      99.694  98.572 116.717  1.00  0.00     0.210 HD
ENDBRANCH  38  39
ENDBRANCH  37  38
ENDBRANCH  34  37
ENDBRANCH  33  34
ENDBRANCH  32  33
ENDBRANCH  30  32
ENDBRANCH  13  30
TORSDOF 15
ENDMDL
MODEL 9
REMARK VINA RESULT:      -4.1      1.323      6.878
REMARK SMILES O=C1c2c([O-])ccc(O)c2C(=O)c2c(NCC[NH2+]CCO)ccc(NCCNCCO)c21
REMARK SMILES IDX 1 1 2 2 3 3 4 4 5 5 6 6 7 7 8 8 10 9 11 10 12 11 13 12 14 13
REMARK SMILES IDX 22 14 23 15 24 16 32 17 25 18 26 20 27 21 28 22 29 24 30 25
REMARK SMILES IDX 31 26 9 28 15 30 16 32 17 33 18 34 19 37 20 38 21 39
REMARK H PARENT 25 19 28 23 31 27 9 29 15 31 18 35 18 36 21 40
ROOT
ATOM      1  O   UNL     1     107.689 105.155 113.680  1.00  0.00    -0.288 OA
ATOM      2  C   UNL     1     106.865 105.017 114.617  1.00  0.00     0.196 C 
ATOM      3  C   UNL     1     106.993 105.907 115.795  1.00  0.00     0.030 A 
ATOM      4  C   UNL     1     108.013 106.839 115.788  1.00  0.00    -0.097 A 
ATOM      5  O   UNL     1     108.871 106.909 114.695  1.00  0.00    -0.872 OA
ATOM      6  C   UNL     1     108.152 107.678 116.871  1.00  0.00    -0.004 A 
ATOM      7  C   UNL     1     107.294 107.588 117.932  1.00  0.00     0.046 A 
ATOM      8  C   UNL     1     106.270 106.667 117.960  1.00  0.00     0.127 A 
ATOM      9  C   UNL     1     106.141 105.823 116.857  1.00  0.00     0.075 A 
ATOM     10  C   UNL     1     105.065 104.825 116.840  1.00  0.00     0.200 C 
ATOM     11  O   UNL     1     104.330 104.819 117.856  1.00  0.00    -0.288 OA
ATOM     12  C   UNL     1     104.919 103.938 115.694  1.00  0.00     0.059 A 
ATOM     13  C   UNL     1     103.901 103.026 115.734  1.00  0.00     0.046 A 
ATOM     14  C   UNL     1     103.794 102.184 114.608  1.00  0.00     0.028 A 
ATOM     15  C   UNL     1     104.647 102.277 113.554  1.00  0.00     0.028 A 
ATOM     16  C   UNL     1     105.694 103.214 113.513  1.00  0.00     0.046 A 
ATOM     17  C   UNL     1     105.813 104.041 114.599  1.00  0.00     0.059 A 
ENDROOT
BRANCH  16  18
ATOM     18  N   UNL     1     106.507 103.246 112.342  1.00  0.00    -0.383 N 
ATOM     19  H   UNL     1     107.382 103.749 112.313  1.00  0.00     0.160 HD
BRANCH  18  20
ATOM     20  C   UNL     1     106.121 102.564 111.120  1.00  0.00     0.128 C 
BRANCH  20  21
ATOM     21  C   UNL     1     107.133 101.611 110.593  1.00  0.00     0.102 C 
BRANCH  21  22
ATOM     22  N   UNL     1     108.269 102.311 109.979  1.00  0.00    -0.313 NA
ATOM     23  H   UNL     1     107.884 103.204 109.586  1.00  0.00     0.122 HD
BRANCH  22  24
ATOM     24  C   UNL     1     108.685 101.510 108.838  1.00  0.00     0.109 C 
BRANCH  24  25
ATOM     25  C   UNL     1     109.963 102.041 108.233  1.00  0.00     0.171 C 
BRANCH  25  26
ATOM     26  O   UNL     1     110.956 102.205 109.195  1.00  0.00    -0.395 OA
ATOM     27  H   UNL     1     110.660 102.933 109.808  1.00  0.00     0.210 HD
ENDBRANCH  25  26
ENDBRANCH  24  25
ENDBRANCH  22  24
ENDBRANCH  21  22
ENDBRANCH  20  21
ENDBRANCH  18  20
ENDBRANCH  16  18
BRANCH   8  28
ATOM     28  O   UNL     1     105.393 106.578 119.048  1.00  0.00    -0.507 OA
ATOM     29  H   UNL     1     105.598 107.035 119.938  1.00  0.00     0.293 HD
ENDBRANCH   8  28
BRANCH  13  30
ATOM     30  N   UNL     1     102.971 102.860 116.780  1.00  0.00    -0.379 N 
ATOM     31  H   UNL     1     102.544 103.603 117.313  1.00  0.00     0.160 HD
BRANCH  30  32
ATOM     32  C   UNL     1     102.540 101.506 117.185  1.00  0.00     0.174 C 
BRANCH  32  33
ATOM     33  C   UNL     1     103.089 101.105 118.505  1.00  0.00     0.281 C 
BRANCH  33  34
ATOM     34  N   UNL     1     104.097 100.090 118.453  1.00  0.00    -0.343 N 
ATOM     35  H   UNL     1     104.561 100.007 117.520  1.00  0.00     0.346 HD
ATOM     36  H   UNL     1     104.856 100.361 119.125  1.00  0.00     0.346 HD
BRANCH  34  37
ATOM     37  C   UNL     1     103.633  98.786 118.858  1.00  0.00     0.289 C 
BRANCH  37  38
ATOM     38  C   UNL     1     102.128  98.661 118.775  1.00  0.00     0.217 C 
BRANCH  38  39
ATOM     39  O   UNL     1     101.774  97.356 119.066  1.00  0.00    -0.391 OA
ATOM     40  H   UNL     1     101.712  96.869 118.194  1.00  0.00     0.210 HD
ENDBRANCH  38  39
ENDBRANCH  37  38
ENDBRANCH  34  37
ENDBRANCH  33  34
ENDBRANCH  32  33
ENDBRANCH  30  32
ENDBRANCH  13  30
TORSDOF 15
ENDMDL
