MODEL 1
REMARK VINA RESULT:      -4.1      0.000      0.000
REMARK SMILES CC/C(=C(\c1ccccc1)c1ccc(OCC[NH+](C)C)cc1)c1ccccc1
REMARK SMILES IDX 15 1 14 2 11 3 12 4 22 5 13 6 21 7 4 8 3 9 2 10 1 11 23 12
REMARK SMILES IDX 24 13 28 14 25 15 27 16 26 17 5 18 6 19 10 20 7 21 9 22 8 23
REMARK SMILES IDX 16 24 17 25 18 26 19 27 20 28
REMARK H PARENT 18 29
ROOT
ATOM      1  O   UNL     1     106.188 102.196 112.685  1.00  0.00    -0.488 OA
ENDROOT
BRANCH   1   2
ATOM      2  C   UNL     1     105.315 102.580 113.686  1.00  0.00     0.119 A 
ATOM      3  C   UNL     1     103.560 103.294 115.824  1.00  0.00    -0.017 A 
ATOM      4  C   UNL     1     103.564 103.980 114.626  1.00  0.00     0.012 A 
ATOM      5  C   UNL     1     104.460 102.237 115.922  1.00  0.00     0.012 A 
ATOM      6  C   UNL     1     104.421 103.622 113.598  1.00  0.00     0.047 A 
ATOM      7  C   UNL     1     105.306 101.885 114.904  1.00  0.00     0.047 A 
BRANCH   3   8
ATOM      8  C   UNL     1     102.656 103.631 116.910  1.00  0.00    -0.007 C 
ATOM      9  C   UNL     1     102.955 104.511 117.830  1.00  0.00    -0.033 C 
BRANCH   9  10
ATOM     10  C   UNL     1     102.088 104.860 118.989  1.00  0.00     0.033 C 
ATOM     11  C   UNL     1     101.344 106.125 118.676  1.00  0.00     0.009 C 
ENDBRANCH   9  10
BRANCH   9  12
ATOM     12  C   UNL     1     104.196 105.303 117.750  1.00  0.00    -0.022 A 
ATOM     13  C   UNL     1     104.295 106.420 116.961  1.00  0.00     0.008 A 
ATOM     14  C   UNL     1     105.270 104.893 118.479  1.00  0.00     0.008 A 
ATOM     15  C   UNL     1     105.476 107.116 116.913  1.00  0.00     0.001 A 
ATOM     16  C   UNL     1     106.492 105.571 118.460  1.00  0.00     0.001 A 
ATOM     17  C   UNL     1     106.561 106.689 117.660  1.00  0.00     0.000 A 
ENDBRANCH   9  12
BRANCH   8  18
ATOM     18  C   UNL     1     101.391 102.929 116.982  1.00  0.00    -0.018 A 
ATOM     19  C   UNL     1     100.249 103.401 116.367  1.00  0.00     0.009 A 
ATOM     20  C   UNL     1     101.298 101.761 117.733  1.00  0.00     0.009 A 
ATOM     21  C   UNL     1      99.073 102.713 116.514  1.00  0.00     0.001 A 
ATOM     22  C   UNL     1     100.127 101.057 117.890  1.00  0.00     0.001 A 
ATOM     23  C   UNL     1      98.990 101.553 117.260  1.00  0.00     0.000 A 
ENDBRANCH   8  18
ENDBRANCH   3   8
ENDBRANCH   1   2
BRANCH   1  24
ATOM     24  C   UNL     1     106.053 102.342 111.316  1.00  0.00     0.290 C 
BRANCH  24  25
ATOM     25  C   UNL     1     107.300 102.751 110.576  1.00  0.00     0.303 C 
BRANCH  25  26
ATOM     26  N   UNL     1     108.042 101.635 110.073  1.00  0.00    -0.337 N 
ATOM     27  C   UNL     1     108.967 101.987 109.018  1.00  0.00     0.332 C 
ATOM     28  C   UNL     1     107.193 100.579 109.561  1.00  0.00     0.332 C 
ATOM     29  H   UNL     1     108.626 101.183 110.838  1.00  0.00     0.347 HD
ENDBRANCH  25  26
ENDBRANCH  24  25
ENDBRANCH   1  24
TORSDOF 8
ENDMDL
MODEL 2
REMARK VINA RESULT:      -4.0      1.215      4.639
REMARK SMILES CC/C(=C(\c1ccccc1)c1ccc(OCC[NH+](C)C)cc1)c1ccccc1
REMARK SMILES IDX 15 1 14 2 11 3 12 4 22 5 13 6 21 7 4 8 3 9 2 10 1 11 23 12
REMARK SMILES IDX 24 13 28 14 25 15 27 16 26 17 5 18 6 19 10 20 7 21 9 22 8 23
REMARK SMILES IDX 16 24 17 25 18 26 19 27 20 28
REMARK H PARENT 18 29
ROOT
ATOM      1  O   UNL     1     105.336 102.635 112.175  1.00  0.00    -0.488 OA
ENDROOT
BRANCH   1   2
ATOM      2  C   UNL     1     105.079 103.303 113.359  1.00  0.00     0.119 A 
ATOM      3  C   UNL     1     104.460 104.738 115.750  1.00  0.00    -0.017 A 
ATOM      4  C   UNL     1     105.439 103.764 115.718  1.00  0.00     0.012 A 
ATOM      5  C   UNL     1     103.800 104.974 114.548  1.00  0.00     0.012 A 
ATOM      6  C   UNL     1     105.728 103.077 114.550  1.00  0.00     0.047 A 
ATOM      7  C   UNL     1     104.086 104.293 113.395  1.00  0.00     0.047 A 
BRANCH   3   8
ATOM      8  C   UNL     1     104.153 105.491 116.953  1.00  0.00    -0.007 C 
ATOM      9  C   UNL     1     103.324 105.056 117.866  1.00  0.00    -0.033 C 
BRANCH   9  10
ATOM     10  C   UNL     1     102.938 105.806 119.093  1.00  0.00     0.033 C 
ATOM     11  C   UNL     1     101.494 106.201 118.986  1.00  0.00     0.009 C 
ENDBRANCH   9  10
BRANCH   9  12
ATOM     12  C   UNL     1     102.738 103.706 117.779  1.00  0.00    -0.022 A 
ATOM     13  C   UNL     1     101.647 103.438 116.993  1.00  0.00     0.008 A 
ATOM     14  C   UNL     1     103.302 102.710 118.515  1.00  0.00     0.008 A 
ATOM     15  C   UNL     1     101.133 102.166 116.954  1.00  0.00     0.001 A 
ATOM     16  C   UNL     1     102.811 101.401 118.506  1.00  0.00     0.001 A 
ATOM     17  C   UNL     1     101.716 101.161 117.708  1.00  0.00     0.000 A 
ENDBRANCH   9  12
BRANCH   8  18
ATOM     18  C   UNL     1     104.770 106.792 117.114  1.00  0.00    -0.018 A 
ATOM     19  C   UNL     1     106.028 106.949 117.661  1.00  0.00     0.009 A 
ATOM     20  C   UNL     1     104.063 107.935 116.753  1.00  0.00     0.009 A 
ATOM     21  C   UNL     1     106.534 108.212 117.830  1.00  0.00     0.001 A 
ATOM     22  C   UNL     1     104.555 109.209 116.914  1.00  0.00     0.001 A 
ATOM     23  C   UNL     1     105.825 109.341 117.468  1.00  0.00     0.000 A 
ENDBRANCH   8  18
ENDBRANCH   3   8
ENDBRANCH   1   2
BRANCH   1  24
ATOM     24  C   UNL     1     106.517 102.054 111.748  1.00  0.00     0.290 C 
BRANCH  24  25
ATOM     25  C   UNL     1     106.696 101.957 110.255  1.00  0.00     0.303 C 
BRANCH  25  26
ATOM     26  N   UNL     1     107.822 101.157 109.879  1.00  0.00    -0.337 N 
ATOM     27  C   UNL     1     108.828 101.889 109.141  1.00  0.00     0.332 C 
ATOM     28  C   UNL     1     107.453 100.010 109.075  1.00  0.00     0.332 C 
ATOM     29  H   UNL     1     108.315 100.757 110.733  1.00  0.00     0.347 HD
ENDBRANCH  25  26
ENDBRANCH  24  25
ENDBRANCH   1  24
TORSDOF 8
ENDMDL
MODEL 3
REMARK VINA RESULT:      -3.9      3.730      7.365
REMARK SMILES CC/C(=C(\c1ccccc1)c1ccc(OCC[NH+](C)C)cc1)c1ccccc1
REMARK SMILES IDX 15 1 14 2 11 3 12 4 22 5 13 6 21 7 4 8 3 9 2 10 1 11 23 12
REMARK SMILES IDX 24 13 28 14 25 15 27 16 26 17 5 18 6 19 10 20 7 21 9 22 8 23
REMARK SMILES IDX 16 24 17 25 18 26 19 27 20 28
REMARK H PARENT 18 29
ROOT
ATOM      1  O   UNL     1     103.380 103.363 118.163  1.00  0.00    -0.488 OA
ENDROOT
BRANCH   1   2
ATOM      2  C   UNL     1     104.111 104.524 117.995  1.00  0.00     0.119 A 
ATOM      3  C   UNL     1     105.596 106.921 117.535  1.00  0.00    -0.017 A 
ATOM      4  C   UNL     1     105.426 106.402 118.803  1.00  0.00     0.012 A 
ATOM      5  C   UNL     1     105.002 106.203 116.501  1.00  0.00     0.012 A 
ATOM      6  C   UNL     1     104.703 105.238 119.011  1.00  0.00     0.047 A 
ATOM      7  C   UNL     1     104.287 105.054 116.708  1.00  0.00     0.047 A 
BRANCH   3   8
ATOM      8  C   UNL     1     106.368 108.125 117.285  1.00  0.00    -0.007 C 
ATOM      9  C   UNL     1     105.817 109.303 117.154  1.00  0.00    -0.033 C 
BRANCH   9  10
ATOM     10  C   UNL     1     106.555 110.560 116.850  1.00  0.00     0.033 C 
ATOM     11  C   UNL     1     106.572 110.767 115.364  1.00  0.00     0.009 C 
ENDBRANCH   9  10
BRANCH   9  12
ATOM     12  C   UNL     1     104.372 109.494 117.371  1.00  0.00    -0.022 A 
ATOM     13  C   UNL     1     103.844 109.687 118.622  1.00  0.00     0.008 A 
ATOM     14  C   UNL     1     103.548 109.464 116.287  1.00  0.00     0.008 A 
ATOM     15  C   UNL     1     102.490 109.849 118.771  1.00  0.00     0.001 A 
ATOM     16  C   UNL     1     102.163 109.625 116.393  1.00  0.00     0.001 A 
ATOM     17  C   UNL     1     101.663 109.817 117.660  1.00  0.00     0.000 A 
ENDBRANCH   9  12
BRANCH   8  18
ATOM     18  C   UNL     1     107.804 107.991 117.140  1.00  0.00    -0.018 A 
ATOM     19  C   UNL     1     108.392 107.596 115.956  1.00  0.00     0.009 A 
ATOM     20  C   UNL     1     108.627 108.219 118.239  1.00  0.00     0.009 A 
ATOM     21  C   UNL     1     109.754 107.443 115.900  1.00  0.00     0.001 A 
ATOM     22  C   UNL     1     109.994 108.071 118.201  1.00  0.00     0.001 A 
ATOM     23  C   UNL     1     110.563 107.673 116.995  1.00  0.00     0.000 A 
ENDBRANCH   8  18
ENDBRANCH   3   8
ENDBRANCH   1   2
BRANCH   1  24
ATOM     24  C   UNL     1     102.985 102.443 117.207  1.00  0.00     0.290 C 
BRANCH  24  25
ATOM     25  C   UNL     1     103.072 100.996 117.616  1.00  0.00     0.303 C 
BRANCH  25  26
ATOM     26  N   UNL     1     104.150 100.301 116.981  1.00  0.00    -0.337 N 
ATOM     27  C   UNL     1     104.624 100.949 115.778  1.00  0.00     0.332 C 
ATOM     28  C   UNL     1     103.810  98.938 116.625  1.00  0.00     0.332 C 
ATOM     29  H   UNL     1     104.993 100.223 117.625  1.00  0.00     0.347 HD
ENDBRANCH  25  26
ENDBRANCH  24  25
ENDBRANCH   1  24
TORSDOF 8
ENDMDL
MODEL 4
REMARK VINA RESULT:      -3.9      4.370      8.234
REMARK SMILES CC/C(=C(\c1ccccc1)c1ccc(OCC[NH+](C)C)cc1)c1ccccc1
REMARK SMILES IDX 15 1 14 2 11 3 12 4 22 5 13 6 21 7 4 8 3 9 2 10 1 11 23 12
REMARK SMILES IDX 24 13 28 14 25 15 27 16 26 17 5 18 6 19 10 20 7 21 9 22 8 23
REMARK SMILES IDX 16 24 17 25 18 26 19 27 20 28
REMARK H PARENT 18 29
ROOT
ATOM      1  O   UNL     1     104.383 104.138 118.058  1.00  0.00    -0.488 OA
ENDROOT
BRANCH   1   2
ATOM      2  C   UNL     1     105.336 105.125 117.882  1.00  0.00     0.119 A 
ATOM      3  C   UNL     1     107.312 107.172 117.634  1.00  0.00    -0.017 A 
ATOM      4  C   UNL     1     106.806 106.512 116.531  1.00  0.00     0.012 A 
ATOM      5  C   UNL     1     106.799 106.779 118.866  1.00  0.00     0.012 A 
ATOM      6  C   UNL     1     105.847 105.521 116.668  1.00  0.00     0.047 A 
ATOM      7  C   UNL     1     105.852 105.798 118.999  1.00  0.00     0.047 A 
BRANCH   3   8
ATOM      8  C   UNL     1     108.299 108.231 117.519  1.00  0.00    -0.007 C 
ATOM      9  C   UNL     1     107.973 109.494 117.428  1.00  0.00    -0.033 C 
BRANCH   9  10
ATOM     10  C   UNL     1     108.939 110.615 117.262  1.00  0.00     0.033 C 
ATOM     11  C   UNL     1     108.935 111.050 115.826  1.00  0.00     0.009 C 
ENDBRANCH   9  10
BRANCH   9  12
ATOM     12  C   UNL     1     106.569 109.927 117.556  1.00  0.00    -0.022 A 
ATOM     13  C   UNL     1     105.705 109.913 116.491  1.00  0.00     0.008 A 
ATOM     14  C   UNL     1     106.137 110.359 118.773  1.00  0.00     0.008 A 
ATOM     15  C   UNL     1     104.410 110.335 116.661  1.00  0.00     0.001 A 
ATOM     16  C   UNL     1     104.827 110.799 118.990  1.00  0.00     0.001 A 
ATOM     17  C   UNL     1     103.983 110.773 117.903  1.00  0.00     0.000 A 
ENDBRANCH   9  12
BRANCH   8  18
ATOM     18  C   UNL     1     109.697 107.853 117.468  1.00  0.00    -0.018 A 
ATOM     19  C   UNL     1     110.331 107.532 116.284  1.00  0.00     0.009 A 
ATOM     20  C   UNL     1     110.425 107.759 118.650  1.00  0.00     0.009 A 
ATOM     21  C   UNL     1     111.643 107.135 116.311  1.00  0.00     0.001 A 
ATOM     22  C   UNL     1     111.742 107.365 118.695  1.00  0.00     0.001 A 
ATOM     23  C   UNL     1     112.359 107.047 117.489  1.00  0.00     0.000 A 
ENDBRANCH   8  18
ENDBRANCH   3   8
ENDBRANCH   1   2
BRANCH   1  24
ATOM     24  C   UNL     1     104.554 102.839 118.504  1.00  0.00     0.290 C 
BRANCH  24  25
ATOM     25  C   UNL     1     104.436 101.766 117.455  1.00  0.00     0.303 C 
BRANCH  25  26
ATOM     26  N   UNL     1     103.825 100.569 117.947  1.00  0.00    -0.337 N 
ATOM     27  C   UNL     1     103.445  99.644 116.901  1.00  0.00     0.332 C 
ATOM     28  C   UNL     1     102.640 100.826 118.740  1.00  0.00     0.332 C 
ATOM     29  H   UNL     1     104.483 100.033 118.589  1.00  0.00     0.347 HD
ENDBRANCH  25  26
ENDBRANCH  24  25
ENDBRANCH   1  24
TORSDOF 8
ENDMDL
MODEL 5
REMARK VINA RESULT:      -3.9      3.982      8.507
REMARK SMILES CC/C(=C(\c1ccccc1)c1ccc(OCC[NH+](C)C)cc1)c1ccccc1
REMARK SMILES IDX 15 1 14 2 11 3 12 4 22 5 13 6 21 7 4 8 3 9 2 10 1 11 23 12
REMARK SMILES IDX 24 13 28 14 25 15 27 16 26 17 5 18 6 19 10 20 7 21 9 22 8 23
REMARK SMILES IDX 16 24 17 25 18 26 19 27 20 28
REMARK H PARENT 18 29
ROOT
ATOM      1  O   UNL     1     104.442 104.408 116.999  1.00  0.00    -0.488 OA
ENDROOT
BRANCH   1   2
ATOM      2  C   UNL     1     105.416 105.377 117.162  1.00  0.00     0.119 A 
ATOM      3  C   UNL     1     107.458 107.361 117.388  1.00  0.00    -0.017 A 
ATOM      4  C   UNL     1     106.583 107.096 118.424  1.00  0.00     0.012 A 
ATOM      5  C   UNL     1     107.282 106.602 116.235  1.00  0.00     0.012 A 
ATOM      6  C   UNL     1     105.597 106.130 118.298  1.00  0.00     0.047 A 
ATOM      7  C   UNL     1     106.307 105.648 116.114  1.00  0.00     0.047 A 
BRANCH   3   8
ATOM      8  C   UNL     1     108.516 108.350 117.499  1.00  0.00    -0.007 C 
ATOM      9  C   UNL     1     108.297 109.634 117.387  1.00  0.00    -0.033 C 
BRANCH   9  10
ATOM     10  C   UNL     1     109.348 110.687 117.445  1.00  0.00     0.033 C 
ATOM     11  C   UNL     1     109.646 111.153 116.050  1.00  0.00     0.009 C 
ENDBRANCH   9  10
BRANCH   9  12
ATOM     12  C   UNL     1     106.926 110.162 117.256  1.00  0.00    -0.022 A 
ATOM     13  C   UNL     1     106.258 110.160 116.059  1.00  0.00     0.008 A 
ATOM     14  C   UNL     1     106.325 110.674 118.366  1.00  0.00     0.008 A 
ATOM     15  C   UNL     1     104.987 110.672 115.989  1.00  0.00     0.001 A 
ATOM     16  C   UNL     1     105.032 111.206 118.339  1.00  0.00     0.001 A 
ATOM     17  C   UNL     1     104.386 111.189 117.124  1.00  0.00     0.000 A 
ENDBRANCH   9  12
BRANCH   8  18
ATOM     18  C   UNL     1     109.869 107.875 117.705  1.00  0.00    -0.018 A 
ATOM     19  C   UNL     1     110.396 107.673 118.965  1.00  0.00     0.009 A 
ATOM     20  C   UNL     1     110.693 107.656 116.605  1.00  0.00     0.009 A 
ATOM     21  C   UNL     1     111.700 107.268 119.091  1.00  0.00     0.001 A 
ATOM     22  C   UNL     1     112.002 107.248 116.713  1.00  0.00     0.001 A 
ATOM     23  C   UNL     1     112.510 107.052 117.994  1.00  0.00     0.000 A 
ENDBRANCH   8  18
ENDBRANCH   3   8
ENDBRANCH   1   2
BRANCH   1  24
ATOM     24  C   UNL     1     103.267 104.234 117.709  1.00  0.00     0.290 C 
BRANCH  24  25
ATOM     25  C   UNL     1     102.743 102.823 117.770  1.00  0.00     0.303 C 
BRANCH  25  26
ATOM     26  N   UNL     1     101.455 102.679 117.162  1.00  0.00    -0.337 N 
ATOM     27  C   UNL     1     101.376 103.258 115.838  1.00  0.00     0.332 C 
ATOM     28  C   UNL     1     100.392 103.269 117.949  1.00  0.00     0.332 C 
ATOM     29  H   UNL     1     101.191 101.655 117.052  1.00  0.00     0.347 HD
ENDBRANCH  25  26
ENDBRANCH  24  25
ENDBRANCH   1  24
TORSDOF 8
ENDMDL
MODEL 6
REMARK VINA RESULT:      -3.8      1.869      4.461
REMARK SMILES CC/C(=C(\c1ccccc1)c1ccc(OCC[NH+](C)C)cc1)c1ccccc1
REMARK SMILES IDX 15 1 14 2 11 3 12 4 22 5 13 6 21 7 4 8 3 9 2 10 1 11 23 12
REMARK SMILES IDX 24 13 28 14 25 15 27 16 26 17 5 18 6 19 10 20 7 21 9 22 8 23
REMARK SMILES IDX 16 24 17 25 18 26 19 27 20 28
REMARK H PARENT 18 29
ROOT
ATOM      1  O   UNL     1     106.397 103.175 111.704  1.00  0.00    -0.488 OA
ENDROOT
BRANCH   1   2
ATOM      2  C   UNL     1     105.950 103.616 112.936  1.00  0.00     0.119 A 
ATOM      3  C   UNL     1     105.131 104.579 115.497  1.00  0.00    -0.017 A 
ATOM      4  C   UNL     1     104.262 103.907 114.660  1.00  0.00     0.012 A 
ATOM      5  C   UNL     1     106.425 104.754 115.016  1.00  0.00     0.012 A 
ATOM      6  C   UNL     1     104.675 103.446 113.420  1.00  0.00     0.047 A 
ATOM      7  C   UNL     1     106.830 104.298 113.789  1.00  0.00     0.047 A 
BRANCH   3   8
ATOM      8  C   UNL     1     104.734 105.051 116.812  1.00  0.00    -0.007 C 
ATOM      9  C   UNL     1     104.282 104.252 117.743  1.00  0.00    -0.033 C 
BRANCH   9  10
ATOM     10  C   UNL     1     103.817 104.688 119.088  1.00  0.00     0.033 C 
ATOM     11  C   UNL     1     102.323 104.828 119.064  1.00  0.00     0.009 C 
ENDBRANCH   9  10
BRANCH   9  12
ATOM     12  C   UNL     1     104.261 102.792 117.545  1.00  0.00    -0.022 A 
ATOM     13  C   UNL     1     103.144 102.136 117.094  1.00  0.00     0.008 A 
ATOM     14  C   UNL     1     105.389 102.086 117.833  1.00  0.00     0.008 A 
ATOM     15  C   UNL     1     103.173 100.773 116.937  1.00  0.00     0.001 A 
ATOM     16  C   UNL     1     105.462 100.698 117.688  1.00  0.00     0.001 A 
ATOM     17  C   UNL     1     104.327 100.067 117.233  1.00  0.00     0.000 A 
ENDBRANCH   9  12
BRANCH   8  18
ATOM     18  C   UNL     1     104.813 106.474 117.073  1.00  0.00    -0.018 A 
ATOM     19  C   UNL     1     105.878 107.044 117.742  1.00  0.00     0.009 A 
ATOM     20  C   UNL     1     103.763 107.301 116.684  1.00  0.00     0.009 A 
ATOM     21  C   UNL     1     105.868 108.390 117.998  1.00  0.00     0.001 A 
ATOM     22  C   UNL     1     103.737 108.654 116.932  1.00  0.00     0.001 A 
ATOM     23  C   UNL     1     104.823 109.204 117.607  1.00  0.00     0.000 A 
ENDBRANCH   8  18
ENDBRANCH   3   8
ENDBRANCH   1   2
BRANCH   1  24
ATOM     24  C   UNL     1     107.637 103.358 111.116  1.00  0.00     0.290 C 
BRANCH  24  25
ATOM     25  C   UNL     1     107.768 102.866 109.698  1.00  0.00     0.303 C 
BRANCH  25  26
ATOM     26  N   UNL     1     108.360 101.566 109.612  1.00  0.00    -0.337 N 
ATOM     27  C   UNL     1     109.229 101.404 108.466  1.00  0.00     0.332 C 
ATOM     28  C   UNL     1     107.377 100.503 109.554  1.00  0.00     0.332 C 
ATOM     29  H   UNL     1     108.956 101.354 110.466  1.00  0.00     0.347 HD
ENDBRANCH  25  26
ENDBRANCH  24  25
ENDBRANCH   1  24
TORSDOF 8
ENDMDL
MODEL 7
REMARK VINA RESULT:      -3.8      3.916      7.662
REMARK SMILES CC/C(=C(\c1ccccc1)c1ccc(OCC[NH+](C)C)cc1)c1ccccc1
REMARK SMILES IDX 15 1 14 2 11 3 12 4 22 5 13 6 21 7 4 8 3 9 2 10 1 11 23 12
REMARK SMILES IDX 24 13 28 14 25 15 27 16 26 17 5 18 6 19 10 20 7 21 9 22 8 23
REMARK SMILES IDX 16 24 17 25 18 26 19 27 20 28
REMARK H PARENT 18 29
ROOT
ATOM      1  O   UNL     1     104.098 102.605 117.658  1.00  0.00    -0.488 OA
ENDROOT
BRANCH   1   2
ATOM      2  C   UNL     1     104.746 103.827 117.653  1.00  0.00     0.119 A 
ATOM      3  C   UNL     1     106.062 106.359 117.528  1.00  0.00    -0.017 A 
ATOM      4  C   UNL     1     105.880 105.691 118.724  1.00  0.00     0.012 A 
ATOM      5  C   UNL     1     105.567 105.721 116.395  1.00  0.00     0.012 A 
ATOM      6  C   UNL     1     105.239 104.463 118.768  1.00  0.00     0.047 A 
ATOM      7  C   UNL     1     104.934 104.507 116.441  1.00  0.00     0.047 A 
BRANCH   3   8
ATOM      8  C   UNL     1     106.750 107.635 117.449  1.00  0.00    -0.007 C 
ATOM      9  C   UNL     1     106.117 108.778 117.397  1.00  0.00    -0.033 C 
BRANCH   9  10
ATOM     10  C   UNL     1     106.770 110.109 117.268  1.00  0.00     0.033 C 
ATOM     11  C   UNL     1     106.806 110.766 118.616  1.00  0.00     0.009 C 
ENDBRANCH   9  10
BRANCH   9  12
ATOM     12  C   UNL     1     104.651 108.840 117.537  1.00  0.00    -0.022 A 
ATOM     13  C   UNL     1     103.827 109.059 116.462  1.00  0.00     0.008 A 
ATOM     14  C   UNL     1     104.115 108.682 118.779  1.00  0.00     0.008 A 
ATOM     15  C   UNL     1     102.469 109.118 116.648  1.00  0.00     0.001 A 
ATOM     16  C   UNL     1     102.737 108.736 119.012  1.00  0.00     0.001 A 
ATOM     17  C   UNL     1     101.936 108.957 117.916  1.00  0.00     0.000 A 
ENDBRANCH   9  12
BRANCH   8  18
ATOM     18  C   UNL     1     108.198 107.621 117.387  1.00  0.00    -0.018 A 
ATOM     19  C   UNL     1     108.985 107.749 118.513  1.00  0.00     0.009 A 
ATOM     20  C   UNL     1     108.830 107.524 116.151  1.00  0.00     0.009 A 
ATOM     21  C   UNL     1     110.350 107.776 118.380  1.00  0.00     0.001 A 
ATOM     22  C   UNL     1     110.197 107.548 115.998  1.00  0.00     0.001 A 
ATOM     23  C   UNL     1     110.969 107.678 117.149  1.00  0.00     0.000 A 
ENDBRANCH   8  18
ENDBRANCH   3   8
ENDBRANCH   1   2
BRANCH   1  24
ATOM     24  C   UNL     1     102.753 102.339 117.844  1.00  0.00     0.290 C 
BRANCH  24  25
ATOM     25  C   UNL     1     101.897 102.390 116.605  1.00  0.00     0.303 C 
BRANCH  25  26
ATOM     26  N   UNL     1     100.622 102.999 116.832  1.00  0.00    -0.337 N 
ATOM     27  C   UNL     1     100.643 104.009 117.868  1.00  0.00     0.332 C 
ATOM     28  C   UNL     1      99.596 102.042 117.191  1.00  0.00     0.332 C 
ATOM     29  H   UNL     1     100.263 103.484 115.956  1.00  0.00     0.347 HD
ENDBRANCH  25  26
ENDBRANCH  24  25
ENDBRANCH   1  24
TORSDOF 8
ENDMDL
MODEL 8
REMARK VINA RESULT:      -3.8      1.865      4.535
REMARK SMILES CC/C(=C(\c1ccccc1)c1ccc(OCC[NH+](C)C)cc1)c1ccccc1
REMARK SMILES IDX 15 1 14 2 11 3 12 4 22 5 13 6 21 7 4 8 3 9 2 10 1 11 23 12
REMARK SMILES IDX 24 13 28 14 25 15 27 16 26 17 5 18 6 19 10 20 7 21 9 22 8 23
REMARK SMILES IDX 16 24 17 25 18 26 19 27 20 28
REMARK H PARENT 18 29
ROOT
ATOM      1  O   UNL     1     105.818 102.520 111.401  1.00  0.00    -0.488 OA
ENDROOT
BRANCH   1   2
ATOM      2  C   UNL     1     105.625 103.056 112.660  1.00  0.00     0.119 A 
ATOM      3  C   UNL     1     105.119 104.115 115.264  1.00  0.00    -0.017 A 
ATOM      4  C   UNL     1     106.338 104.280 114.636  1.00  0.00     0.012 A 
ATOM      5  C   UNL     1     104.159 103.406 114.551  1.00  0.00     0.012 A 
ATOM      6  C   UNL     1     106.568 103.760 113.372  1.00  0.00     0.047 A 
ATOM      7  C   UNL     1     104.388 102.892 113.302  1.00  0.00     0.047 A 
BRANCH   3   8
ATOM      8  C   UNL     1     104.842 104.669 116.578  1.00  0.00    -0.007 C 
ATOM      9  C   UNL     1     104.403 103.943 117.573  1.00  0.00    -0.033 C 
BRANCH   9  10
ATOM     10  C   UNL     1     104.058 104.466 118.923  1.00  0.00     0.033 C 
ATOM     11  C   UNL     1     102.567 104.427 119.093  1.00  0.00     0.009 C 
ENDBRANCH   9  10
BRANCH   9  12
ATOM     12  C   UNL     1     104.275 102.480 117.446  1.00  0.00    -0.022 A 
ATOM     13  C   UNL     1     103.096 101.882 117.083  1.00  0.00     0.008 A 
ATOM     14  C   UNL     1     105.369 101.713 117.711  1.00  0.00     0.008 A 
ATOM     15  C   UNL     1     103.027 100.515 116.989  1.00  0.00     0.001 A 
ATOM     16  C   UNL     1     105.343 100.317 117.629  1.00  0.00     0.001 A 
ATOM     17  C   UNL     1     104.146  99.746 117.261  1.00  0.00     0.000 A 
ENDBRANCH   9  12
BRANCH   8  18
ATOM     18  C   UNL     1     105.028 106.094 116.766  1.00  0.00    -0.018 A 
ATOM     19  C   UNL     1     106.268 106.649 117.011  1.00  0.00     0.009 A 
ATOM     20  C   UNL     1     103.922 106.938 116.748  1.00  0.00     0.009 A 
ATOM     21  C   UNL     1     106.368 107.999 117.227  1.00  0.00     0.001 A 
ATOM     22  C   UNL     1     104.004 108.294 116.962  1.00  0.00     0.001 A 
ATOM     23  C   UNL     1     105.265 108.830 117.207  1.00  0.00     0.000 A 
ENDBRANCH   8  18
ENDBRANCH   3   8
ENDBRANCH   1   2
BRANCH   1  24
ATOM     24  C   UNL     1     106.957 102.546 110.614  1.00  0.00     0.290 C 
BRANCH  24  25
ATOM     25  C   UNL     1     107.215 101.308 109.795  1.00  0.00     0.303 C 
BRANCH  25  26
ATOM     26  N   UNL     1     108.590 101.161 109.425  1.00  0.00    -0.337 N 
ATOM     27  C   UNL     1     109.361 102.376 109.580  1.00  0.00     0.332 C 
ATOM     28  C   UNL     1     108.760 100.720 108.056  1.00  0.00     0.332 C 
ATOM     29  H   UNL     1     109.075 100.426 110.021  1.00  0.00     0.347 HD
ENDBRANCH  25  26
ENDBRANCH  24  25
ENDBRANCH   1  24
TORSDOF 8
ENDMDL
MODEL 9
REMARK VINA RESULT:      -3.7      1.795      4.576
REMARK SMILES CC/C(=C(\c1ccccc1)c1ccc(OCC[NH+](C)C)cc1)c1ccccc1
REMARK SMILES IDX 15 1 14 2 11 3 12 4 22 5 13 6 21 7 4 8 3 9 2 10 1 11 23 12
REMARK SMILES IDX 24 13 28 14 25 15 27 16 26 17 5 18 6 19 10 20 7 21 9 22 8 23
REMARK SMILES IDX 16 24 17 25 18 26 19 27 20 28
REMARK H PARENT 18 29
ROOT
ATOM      1  O   UNL     1     105.881 102.858 111.516  1.00  0.00    -0.488 OA
ENDROOT
BRANCH   1   2
ATOM      2  C   UNL     1     105.659 103.331 112.797  1.00  0.00     0.119 A 
ATOM      3  C   UNL     1     105.092 104.265 115.436  1.00  0.00    -0.017 A 
ATOM      4  C   UNL     1     106.348 104.388 114.875  1.00  0.00     0.012 A 
ATOM      5  C   UNL     1     104.125 103.663 114.636  1.00  0.00     0.012 A 
ATOM      6  C   UNL     1     106.607 103.929 113.593  1.00  0.00     0.047 A 
ATOM      7  C   UNL     1     104.384 103.210 113.370  1.00  0.00     0.047 A 
BRANCH   3   8
ATOM      8  C   UNL     1     104.784 104.758 116.767  1.00  0.00    -0.007 C 
ATOM      9  C   UNL     1     104.339 103.983 117.721  1.00  0.00    -0.033 C 
BRANCH   9  10
ATOM     10  C   UNL     1     103.964 104.443 119.087  1.00  0.00     0.033 C 
ATOM     11  C   UNL     1     102.621 105.111 119.023  1.00  0.00     0.009 C 
ENDBRANCH   9  10
BRANCH   9  12
ATOM     12  C   UNL     1     104.233 102.526 117.529  1.00  0.00    -0.022 A 
ATOM     13  C   UNL     1     105.331 101.705 117.572  1.00  0.00     0.008 A 
ATOM     14  C   UNL     1     103.001 101.995 117.293  1.00  0.00     0.008 A 
ATOM     15  C   UNL     1     105.179 100.355 117.376  1.00  0.00     0.001 A 
ATOM     16  C   UNL     1     102.801 100.627 117.088  1.00  0.00     0.001 A 
ATOM     17  C   UNL     1     103.921  99.829 117.137  1.00  0.00     0.000 A 
ENDBRANCH   9  12
BRANCH   8  18
ATOM     18  C   UNL     1     104.949 106.175 117.019  1.00  0.00    -0.018 A 
ATOM     19  C   UNL     1     104.048 107.115 116.560  1.00  0.00     0.009 A 
ATOM     20  C   UNL     1     106.073 106.623 117.706  1.00  0.00     0.009 A 
ATOM     21  C   UNL     1     104.288 108.445 116.793  1.00  0.00     0.001 A 
ATOM     22  C   UNL     1     106.329 107.952 117.950  1.00  0.00     0.001 A 
ATOM     23  C   UNL     1     105.406 108.880 117.477  1.00  0.00     0.000 A 
ENDBRANCH   8  18
ENDBRANCH   3   8
ENDBRANCH   1   2
BRANCH   1  24
ATOM     24  C   UNL     1     107.042 102.333 110.976  1.00  0.00     0.290 C 
BRANCH  24  25
ATOM     25  C   UNL     1     106.900 101.002 110.285  1.00  0.00     0.303 C 
BRANCH  25  26
ATOM     26  N   UNL     1     107.459 100.995 108.968  1.00  0.00    -0.337 N 
ATOM     27  C   UNL     1     107.695  99.665 108.450  1.00  0.00     0.332 C 
ATOM     28  C   UNL     1     108.715 101.713 108.885  1.00  0.00     0.332 C 
ATOM     29  H   UNL     1     106.814 101.473 108.270  1.00  0.00     0.347 HD
ENDBRANCH  25  26
ENDBRANCH  24  25
ENDBRANCH   1  24
TORSDOF 8
ENDMDL
