MODEL 1
REMARK VINA RESULT:      -4.9      0.000      0.000
REMARK SMILES O=C1c2c([O-])ccc(O)c2C(=O)c2c(NCC[NH2+]CCO)ccc(NCCNCCO)c21
REMARK SMILES IDX 1 1 2 2 3 3 4 4 5 5 6 6 7 7 8 8 10 9 11 10 12 11 13 12 14 13
REMARK SMILES IDX 22 14 23 15 24 16 32 17 25 18 26 20 27 21 28 22 29 24 30 25
REMARK SMILES IDX 31 26 9 28 15 30 16 32 17 33 18 34 19 37 20 38 21 39
REMARK H PARENT 25 19 28 23 31 27 9 29 15 31 18 35 18 36 21 40
ROOT
ATOM      1  O   UNL     1     144.377 136.234 192.829  1.00  0.00    -0.288 OA
ATOM      2  C   UNL     1     144.554 137.369 193.335  1.00  0.00     0.196 C 
ATOM      3  C   UNL     1     143.366 138.225 193.562  1.00  0.00     0.030 A 
ATOM      4  C   UNL     1     142.131 137.718 193.203  1.00  0.00    -0.097 A 
ATOM      5  O   UNL     1     142.047 136.443 192.651  1.00  0.00    -0.872 OA
ATOM      6  C   UNL     1     141.012 138.494 193.405  1.00  0.00    -0.004 A 
ATOM      7  C   UNL     1     141.123 139.743 193.950  1.00  0.00     0.046 A 
ATOM      8  C   UNL     1     142.344 140.268 194.314  1.00  0.00     0.127 A 
ATOM      9  C   UNL     1     143.470 139.471 194.105  1.00  0.00     0.075 A 
ATOM     10  C   UNL     1     144.792 139.987 194.477  1.00  0.00     0.200 C 
ATOM     11  O   UNL     1     144.794 141.141 194.970  1.00  0.00    -0.288 OA
ATOM     12  C   UNL     1     145.975 139.165 194.264  1.00  0.00     0.059 A 
ATOM     13  C   UNL     1     147.181 139.697 194.627  1.00  0.00     0.046 A 
ATOM     14  C   UNL     1     148.303 138.872 194.402  1.00  0.00     0.028 A 
ATOM     15  C   UNL     1     148.188 137.631 193.861  1.00  0.00     0.028 A 
ATOM     16  C   UNL     1     146.949 137.084 193.488  1.00  0.00     0.046 A 
ATOM     17  C   UNL     1     145.848 137.871 193.699  1.00  0.00     0.059 A 
ENDROOT
BRANCH  16  18
ATOM     18  N   UNL     1     146.943 135.758 192.963  1.00  0.00    -0.383 N 
ATOM     19  H   UNL     1     146.452 135.522 192.112  1.00  0.00     0.160 HD
BRANCH  18  20
ATOM     20  C   UNL     1     147.637 134.667 193.623  1.00  0.00     0.128 C 
BRANCH  20  21
ATOM     21  C   UNL     1     147.345 133.318 193.072  1.00  0.00     0.102 C 
BRANCH  21  22
ATOM     22  N   UNL     1     145.901 133.053 193.023  1.00  0.00    -0.313 NA
ATOM     23  H   UNL     1     145.433 133.992 192.982  1.00  0.00     0.122 HD
BRANCH  22  24
ATOM     24  C   UNL     1     145.538 132.474 194.308  1.00  0.00     0.109 C 
BRANCH  24  25
ATOM     25  C   UNL     1     145.539 130.965 194.247  1.00  0.00     0.171 C 
BRANCH  25  26
ATOM     26  O   UNL     1     146.336 130.412 195.247  1.00  0.00    -0.395 OA
ATOM     27  H   UNL     1     146.855 131.156 195.660  1.00  0.00     0.210 HD
ENDBRANCH  25  26
ENDBRANCH  24  25
ENDBRANCH  22  24
ENDBRANCH  21  22
ENDBRANCH  20  21
ENDBRANCH  18  20
ENDBRANCH  16  18
BRANCH   8  28
ATOM     28  O   UNL     1     142.454 141.547 194.873  1.00  0.00    -0.507 OA
ATOM     29  H   UNL     1     143.072 141.733 195.665  1.00  0.00     0.293 HD
ENDBRANCH   8  28
BRANCH  13  30
ATOM     30  N   UNL     1     147.394 140.970 195.194  1.00  0.00    -0.379 N 
ATOM     31  H   UNL     1     146.874 141.368 195.962  1.00  0.00     0.160 HD
BRANCH  30  32
ATOM     32  C   UNL     1     148.454 141.853 194.665  1.00  0.00     0.174 C 
BRANCH  32  33
ATOM     33  C   UNL     1     148.004 143.260 194.518  1.00  0.00     0.281 C 
BRANCH  33  34
ATOM     34  N   UNL     1     148.902 144.238 195.048  1.00  0.00    -0.343 N 
ATOM     35  H   UNL     1     149.302 144.876 194.324  1.00  0.00     0.346 HD
ATOM     36  H   UNL     1     148.354 144.854 195.698  1.00  0.00     0.346 HD
BRANCH  34  37
ATOM     37  C   UNL     1     149.983 143.679 195.823  1.00  0.00     0.289 C 
BRANCH  37  38
ATOM     38  C   UNL     1     150.937 144.741 196.322  1.00  0.00     0.217 C 
BRANCH  38  39
ATOM     39  O   UNL     1     150.549 145.124 197.594  1.00  0.00    -0.391 OA
ATOM     40  H   UNL     1     149.768 145.740 197.487  1.00  0.00     0.210 HD
ENDBRANCH  38  39
ENDBRANCH  37  38
ENDBRANCH  34  37
ENDBRANCH  33  34
ENDBRANCH  32  33
ENDBRANCH  30  32
ENDBRANCH  13  30
TORSDOF 15
ENDMDL
MODEL 2
REMARK VINA RESULT:      -4.7      2.660      7.992
REMARK SMILES O=C1c2c([O-])ccc(O)c2C(=O)c2c(NCC[NH2+]CCO)ccc(NCCNCCO)c21
REMARK SMILES IDX 1 1 2 2 3 3 4 4 5 5 6 6 7 7 8 8 10 9 11 10 12 11 13 12 14 13
REMARK SMILES IDX 22 14 23 15 24 16 32 17 25 18 26 20 27 21 28 22 29 24 30 25
REMARK SMILES IDX 31 26 9 28 15 30 16 32 17 33 18 34 19 37 20 38 21 39
REMARK H PARENT 25 19 28 23 31 27 9 29 15 31 18 35 18 36 21 40
ROOT
ATOM      1  O   UNL     1     144.865 138.149 193.835  1.00  0.00    -0.288 OA
ATOM      2  C   UNL     1     144.776 136.897 193.848  1.00  0.00     0.196 C 
ATOM      3  C   UNL     1     143.581 136.275 193.231  1.00  0.00     0.030 A 
ATOM      4  C   UNL     1     142.635 137.116 192.675  1.00  0.00    -0.097 A 
ATOM      5  O   UNL     1     142.834 138.492 192.713  1.00  0.00    -0.872 OA
ATOM      6  C   UNL     1     141.516 136.561 192.094  1.00  0.00    -0.004 A 
ATOM      7  C   UNL     1     141.347 135.205 192.071  1.00  0.00     0.046 A 
ATOM      8  C   UNL     1     142.277 134.350 192.619  1.00  0.00     0.127 A 
ATOM      9  C   UNL     1     143.406 134.923 193.204  1.00  0.00     0.075 A 
ATOM     10  C   UNL     1     144.425 134.052 193.801  1.00  0.00     0.200 C 
ATOM     11  O   UNL     1     144.182 132.824 193.731  1.00  0.00    -0.288 OA
ATOM     12  C   UNL     1     145.608 134.639 194.414  1.00  0.00     0.059 A 
ATOM     13  C   UNL     1     146.523 133.781 194.958  1.00  0.00     0.046 A 
ATOM     14  C   UNL     1     147.654 134.386 195.544  1.00  0.00     0.028 A 
ATOM     15  C   UNL     1     147.820 135.735 195.564  1.00  0.00     0.028 A 
ATOM     16  C   UNL     1     146.879 136.618 195.007  1.00  0.00     0.046 A 
ATOM     17  C   UNL     1     145.774 136.047 194.433  1.00  0.00     0.059 A 
ENDROOT
BRANCH  16  18
ATOM     18  N   UNL     1     147.173 138.013 195.053  1.00  0.00    -0.383 N 
ATOM     19  H   UNL     1     146.588 138.665 195.556  1.00  0.00     0.160 HD
BRANCH  18  20
ATOM     20  C   UNL     1     148.327 138.577 194.378  1.00  0.00     0.128 C 
BRANCH  20  21
ATOM     21  C   UNL     1     148.164 139.988 193.938  1.00  0.00     0.102 C 
BRANCH  21  22
ATOM     22  N   UNL     1     148.994 140.903 194.731  1.00  0.00    -0.313 NA
ATOM     23  H   UNL     1     148.964 140.546 195.717  1.00  0.00     0.122 HD
BRANCH  22  24
ATOM     24  C   UNL     1     148.308 142.186 194.742  1.00  0.00     0.109 C 
BRANCH  24  25
ATOM     25  C   UNL     1     148.127 142.698 196.151  1.00  0.00     0.171 C 
BRANCH  25  26
ATOM     26  O   UNL     1     149.342 142.771 196.830  1.00  0.00    -0.395 OA
ATOM     27  H   UNL     1     149.166 142.527 197.781  1.00  0.00     0.210 HD
ENDBRANCH  25  26
ENDBRANCH  24  25
ENDBRANCH  22  24
ENDBRANCH  21  22
ENDBRANCH  20  21
ENDBRANCH  18  20
ENDBRANCH  16  18
BRANCH   8  28
ATOM     28  O   UNL     1     142.100 132.960 192.593  1.00  0.00    -0.507 OA
ATOM     29  H   UNL     1     141.169 132.540 192.573  1.00  0.00     0.293 HD
ENDBRANCH   8  28
BRANCH  13  30
ATOM     30  N   UNL     1     146.435 132.374 194.980  1.00  0.00    -0.379 N 
ATOM     31  H   UNL     1     145.893 131.827 195.632  1.00  0.00     0.160 HD
BRANCH  30  32
ATOM     32  C   UNL     1     147.180 131.565 193.993  1.00  0.00     0.174 C 
BRANCH  32  33
ATOM     33  C   UNL     1     148.099 130.590 194.632  1.00  0.00     0.281 C 
BRANCH  33  34
ATOM     34  N   UNL     1     148.416 130.868 195.999  1.00  0.00    -0.343 N 
ATOM     35  H   UNL     1     147.745 131.525 196.459  1.00  0.00     0.346 HD
ATOM     36  H   UNL     1     148.342 129.967 196.532  1.00  0.00     0.346 HD
BRANCH  34  37
ATOM     37  C   UNL     1     149.757 131.359 196.200  1.00  0.00     0.289 C 
BRANCH  37  38
ATOM     38  C   UNL     1     150.527 130.526 197.200  1.00  0.00     0.217 C 
BRANCH  38  39
ATOM     39  O   UNL     1     149.688 130.207 198.253  1.00  0.00    -0.391 OA
ATOM     40  H   UNL     1     149.600 131.031 198.815  1.00  0.00     0.210 HD
ENDBRANCH  38  39
ENDBRANCH  37  38
ENDBRANCH  34  37
ENDBRANCH  33  34
ENDBRANCH  32  33
ENDBRANCH  30  32
ENDBRANCH  13  30
TORSDOF 15
ENDMDL
MODEL 3
REMARK VINA RESULT:      -4.6      1.788      7.385
REMARK SMILES O=C1c2c([O-])ccc(O)c2C(=O)c2c(NCC[NH2+]CCO)ccc(NCCNCCO)c21
REMARK SMILES IDX 1 1 2 2 3 3 4 4 5 5 6 6 7 7 8 8 10 9 11 10 12 11 13 12 14 13
REMARK SMILES IDX 22 14 23 15 24 16 32 17 25 18 26 20 27 21 28 22 29 24 30 25
REMARK SMILES IDX 31 26 9 28 15 30 16 32 17 33 18 34 19 37 20 38 21 39
REMARK H PARENT 25 19 28 23 31 27 9 29 15 31 18 35 18 36 21 40
ROOT
ATOM      1  O   UNL     1     144.808 141.405 193.573  1.00  0.00    -0.288 OA
ATOM      2  C   UNL     1     144.621 140.164 193.559  1.00  0.00     0.196 C 
ATOM      3  C   UNL     1     143.278 139.665 193.181  1.00  0.00     0.030 A 
ATOM      4  C   UNL     1     142.312 140.600 192.864  1.00  0.00    -0.097 A 
ATOM      5  O   UNL     1     142.626 141.954 192.909  1.00  0.00    -0.872 OA
ATOM      6  C   UNL     1     141.055 140.160 192.507  1.00  0.00    -0.004 A 
ATOM      7  C   UNL     1     140.774 138.823 192.470  1.00  0.00     0.046 A 
ATOM      8  C   UNL     1     141.722 137.874 192.783  1.00  0.00     0.127 A 
ATOM      9  C   UNL     1     142.990 138.332 193.141  1.00  0.00     0.075 A 
ATOM     10  C   UNL     1     144.034 137.359 193.483  1.00  0.00     0.200 C 
ATOM     11  O   UNL     1     143.682 136.157 193.420  1.00  0.00    -0.288 OA
ATOM     12  C   UNL     1     145.362 137.824 193.858  1.00  0.00     0.059 A 
ATOM     13  C   UNL     1     146.294 136.874 194.169  1.00  0.00     0.046 A 
ATOM     14  C   UNL     1     147.566 137.364 194.530  1.00  0.00     0.028 A 
ATOM     15  C   UNL     1     147.844 138.694 194.564  1.00  0.00     0.028 A 
ATOM     16  C   UNL     1     146.886 139.671 194.246  1.00  0.00     0.046 A 
ATOM     17  C   UNL     1     145.643 139.213 193.893  1.00  0.00     0.059 A 
ENDROOT
BRANCH  16  18
ATOM     18  N   UNL     1     147.296 141.036 194.281  1.00  0.00    -0.383 N 
ATOM     19  H   UNL     1     147.379 141.591 193.441  1.00  0.00     0.160 HD
BRANCH  18  20
ATOM     20  C   UNL     1     147.625 141.707 195.526  1.00  0.00     0.128 C 
BRANCH  20  21
ATOM     21  C   UNL     1     148.131 143.096 195.370  1.00  0.00     0.102 C 
BRANCH  21  22
ATOM     22  N   UNL     1     149.473 143.121 194.773  1.00  0.00    -0.313 NA
ATOM     23  H   UNL     1     149.759 142.119 194.655  1.00  0.00     0.122 HD
BRANCH  22  24
ATOM     24  C   UNL     1     150.366 143.683 195.776  1.00  0.00     0.109 C 
BRANCH  24  25
ATOM     25  C   UNL     1     149.633 144.639 196.686  1.00  0.00     0.171 C 
BRANCH  25  26
ATOM     26  O   UNL     1     150.434 145.051 197.749  1.00  0.00    -0.395 OA
ATOM     27  H   UNL     1     151.008 145.797 197.418  1.00  0.00     0.210 HD
ENDBRANCH  25  26
ENDBRANCH  24  25
ENDBRANCH  22  24
ENDBRANCH  21  22
ENDBRANCH  20  21
ENDBRANCH  18  20
ENDBRANCH  16  18
BRANCH   8  28
ATOM     28  O   UNL     1     141.430 136.505 192.744  1.00  0.00    -0.507 OA
ATOM     29  H   UNL     1     142.054 135.838 192.286  1.00  0.00     0.293 HD
ENDBRANCH   8  28
BRANCH  13  30
ATOM     30  N   UNL     1     146.097 135.478 194.159  1.00  0.00    -0.379 N 
ATOM     31  H   UNL     1     145.214 135.008 194.030  1.00  0.00     0.160 HD
BRANCH  30  32
ATOM     32  C   UNL     1     147.241 134.563 194.351  1.00  0.00     0.174 C 
BRANCH  32  33
ATOM     33  C   UNL     1     147.085 133.700 195.549  1.00  0.00     0.281 C 
BRANCH  33  34
ATOM     34  N   UNL     1     148.289 133.471 196.286  1.00  0.00    -0.343 N 
ATOM     35  H   UNL     1     148.151 133.462 197.322  1.00  0.00     0.346 HD
ATOM     36  H   UNL     1     148.637 132.511 196.038  1.00  0.00     0.346 HD
BRANCH  34  37
ATOM     37  C   UNL     1     149.354 134.390 195.967  1.00  0.00     0.289 C 
BRANCH  37  38
ATOM     38  C   UNL     1     150.697 133.906 196.463  1.00  0.00     0.217 C 
BRANCH  38  39
ATOM     39  O   UNL     1     150.523 132.689 197.100  1.00  0.00    -0.391 OA
ATOM     40  H   UNL     1     151.394 132.462 197.537  1.00  0.00     0.210 HD
ENDBRANCH  38  39
ENDBRANCH  37  38
ENDBRANCH  34  37
ENDBRANCH  33  34
ENDBRANCH  32  33
ENDBRANCH  30  32
ENDBRANCH  13  30
TORSDOF 15
ENDMDL
MODEL 4
REMARK VINA RESULT:      -4.5      2.351      2.699
REMARK SMILES O=C1c2c([O-])ccc(O)c2C(=O)c2c(NCC[NH2+]CCO)ccc(NCCNCCO)c21
REMARK SMILES IDX 1 1 2 2 3 3 4 4 5 5 6 6 7 7 8 8 10 9 11 10 12 11 13 12 14 13
REMARK SMILES IDX 22 14 23 15 24 16 32 17 25 18 26 20 27 21 28 22 29 24 30 25
REMARK SMILES IDX 31 26 9 28 15 30 16 32 17 33 18 34 19 37 20 38 21 39
REMARK H PARENT 25 19 28 23 31 27 9 29 15 31 18 35 18 36 21 40
ROOT
ATOM      1  O   UNL     1     144.477 133.990 193.783  1.00  0.00    -0.288 OA
ATOM      2  C   UNL     1     144.506 135.237 193.641  1.00  0.00     0.196 C 
ATOM      3  C   UNL     1     143.307 135.904 193.083  1.00  0.00     0.030 A 
ATOM      4  C   UNL     1     142.225 135.109 192.754  1.00  0.00    -0.097 A 
ATOM      5  O   UNL     1     142.297 133.734 192.954  1.00  0.00    -0.872 OA
ATOM      6  C   UNL     1     141.098 135.707 192.235  1.00  0.00    -0.004 A 
ATOM      7  C   UNL     1     141.053 137.061 192.049  1.00  0.00     0.046 A 
ATOM      8  C   UNL     1     142.120 137.871 192.370  1.00  0.00     0.127 A 
ATOM      9  C   UNL     1     143.255 137.254 192.895  1.00  0.00     0.075 A 
ATOM     10  C   UNL     1     144.418 138.075 193.253  1.00  0.00     0.200 C 
ATOM     11  O   UNL     1     144.283 139.305 193.048  1.00  0.00    -0.288 OA
ATOM     12  C   UNL     1     145.609 137.443 193.803  1.00  0.00     0.059 A 
ATOM     13  C   UNL     1     146.662 138.256 194.115  1.00  0.00     0.046 A 
ATOM     14  C   UNL     1     147.798 137.607 194.642  1.00  0.00     0.028 A 
ATOM     15  C   UNL     1     147.838 136.261 194.827  1.00  0.00     0.028 A 
ATOM     16  C   UNL     1     146.756 135.424 194.505  1.00  0.00     0.046 A 
ATOM     17  C   UNL     1     145.644 136.039 193.992  1.00  0.00     0.059 A 
ENDROOT
BRANCH  16  18
ATOM     18  N   UNL     1     146.895 134.031 194.774  1.00  0.00    -0.383 N 
ATOM     19  H   UNL     1     146.282 133.343 194.359  1.00  0.00     0.160 HD
BRANCH  18  20
ATOM     20  C   UNL     1     147.921 133.519 195.663  1.00  0.00     0.128 C 
BRANCH  20  21
ATOM     21  C   UNL     1     148.291 132.097 195.435  1.00  0.00     0.102 C 
BRANCH  21  22
ATOM     22  N   UNL     1     148.752 131.451 196.671  1.00  0.00    -0.313 NA
ATOM     23  H   UNL     1     149.781 131.284 196.547  1.00  0.00     0.122 HD
BRANCH  22  24
ATOM     24  C   UNL     1     148.129 130.137 196.712  1.00  0.00     0.109 C 
BRANCH  24  25
ATOM     25  C   UNL     1     148.319 129.484 198.060  1.00  0.00     0.171 C 
BRANCH  25  26
ATOM     26  O   UNL     1     148.610 128.127 197.937  1.00  0.00    -0.395 OA
ATOM     27  H   UNL     1     147.753 127.628 198.041  1.00  0.00     0.210 HD
ENDBRANCH  25  26
ENDBRANCH  24  25
ENDBRANCH  22  24
ENDBRANCH  21  22
ENDBRANCH  20  21
ENDBRANCH  18  20
ENDBRANCH  16  18
BRANCH   8  28
ATOM     28  O   UNL     1     142.072 139.258 192.179  1.00  0.00    -0.507 OA
ATOM     29  H   UNL     1     141.790 139.891 192.929  1.00  0.00     0.293 HD
ENDBRANCH   8  28
BRANCH  13  30
ATOM     30  N   UNL     1     146.709 139.657 193.960  1.00  0.00    -0.379 N 
ATOM     31  H   UNL     1     146.423 140.169 193.139  1.00  0.00     0.160 HD
BRANCH  30  32
ATOM     32  C   UNL     1     147.213 140.511 195.055  1.00  0.00     0.174 C 
BRANCH  32  33
ATOM     33  C   UNL     1     147.296 141.942 194.669  1.00  0.00     0.281 C 
BRANCH  33  34
ATOM     34  N   UNL     1     148.621 142.481 194.637  1.00  0.00    -0.343 N 
ATOM     35  H   UNL     1     149.336 141.860 195.080  1.00  0.00     0.346 HD
ATOM     36  H   UNL     1     148.905 142.568 193.630  1.00  0.00     0.346 HD
BRANCH  34  37
ATOM     37  C   UNL     1     148.730 143.799 195.213  1.00  0.00     0.289 C 
BRANCH  37  38
ATOM     38  C   UNL     1     149.420 143.781 196.558  1.00  0.00     0.217 C 
BRANCH  38  39
ATOM     39  O   UNL     1     149.603 145.086 196.981  1.00  0.00    -0.391 OA
ATOM     40  H   UNL     1     149.081 145.194 197.828  1.00  0.00     0.210 HD
ENDBRANCH  38  39
ENDBRANCH  37  38
ENDBRANCH  34  37
ENDBRANCH  33  34
ENDBRANCH  32  33
ENDBRANCH  30  32
ENDBRANCH  13  30
TORSDOF 15
ENDMDL
MODEL 5
REMARK VINA RESULT:      -4.5      1.697      7.990
REMARK SMILES O=C1c2c([O-])ccc(O)c2C(=O)c2c(NCC[NH2+]CCO)ccc(NCCNCCO)c21
REMARK SMILES IDX 1 1 2 2 3 3 4 4 5 5 6 6 7 7 8 8 10 9 11 10 12 11 13 12 14 13
REMARK SMILES IDX 22 14 23 15 24 16 32 17 25 18 26 20 27 21 28 22 29 24 30 25
REMARK SMILES IDX 31 26 9 28 15 30 16 32 17 33 18 34 19 37 20 38 21 39
REMARK H PARENT 25 19 28 23 31 27 9 29 15 31 18 35 18 36 21 40
ROOT
ATOM      1  O   UNL     1     143.525 141.911 192.459  1.00  0.00    -0.288 OA
ATOM      2  C   UNL     1     143.606 140.666 192.592  1.00  0.00     0.196 C 
ATOM      3  C   UNL     1     142.369 139.865 192.432  1.00  0.00     0.030 A 
ATOM      4  C   UNL     1     141.200 140.541 192.144  1.00  0.00    -0.097 A 
ATOM      5  O   UNL     1     141.221 141.927 192.015  1.00  0.00    -0.872 OA
ATOM      6  C   UNL     1     140.037 139.819 191.989  1.00  0.00    -0.004 A 
ATOM      7  C   UNL     1     140.044 138.458 192.120  1.00  0.00     0.046 A 
ATOM      8  C   UNL     1     141.199 137.764 192.408  1.00  0.00     0.127 A 
ATOM      9  C   UNL     1     142.369 138.507 192.562  1.00  0.00     0.075 A 
ATOM     10  C   UNL     1     143.625 137.813 192.869  1.00  0.00     0.200 C 
ATOM     11  O   UNL     1     143.532 136.566 192.970  1.00  0.00    -0.288 OA
ATOM     12  C   UNL     1     144.853 138.577 193.031  1.00  0.00     0.059 A 
ATOM     13  C   UNL     1     145.993 137.879 193.319  1.00  0.00     0.046 A 
ATOM     14  C   UNL     1     147.161 138.654 193.471  1.00  0.00     0.028 A 
ATOM     15  C   UNL     1     147.150 140.007 193.338  1.00  0.00     0.028 A 
ATOM     16  C   UNL     1     145.980 140.725 193.043  1.00  0.00     0.046 A 
ATOM     17  C   UNL     1     144.835 139.988 192.892  1.00  0.00     0.059 A 
ENDROOT
BRANCH  16  18
ATOM     18  N   UNL     1     146.092 142.139 192.892  1.00  0.00    -0.383 N 
ATOM     19  H   UNL     1     145.282 142.728 192.757  1.00  0.00     0.160 HD
BRANCH  18  20
ATOM     20  C   UNL     1     147.377 142.814 192.917  1.00  0.00     0.128 C 
BRANCH  20  21
ATOM     21  C   UNL     1     147.688 143.516 194.190  1.00  0.00     0.102 C 
BRANCH  21  22
ATOM     22  N   UNL     1     149.128 143.765 194.335  1.00  0.00    -0.313 NA
ATOM     23  H   UNL     1     149.596 142.830 194.257  1.00  0.00     0.122 HD
BRANCH  22  24
ATOM     24  C   UNL     1     149.338 144.213 195.703  1.00  0.00     0.109 C 
BRANCH  24  25
ATOM     25  C   UNL     1     150.776 144.611 195.934  1.00  0.00     0.171 C 
BRANCH  25  26
ATOM     26  O   UNL     1     150.918 145.376 197.090  1.00  0.00    -0.395 OA
ATOM     27  H   UNL     1     151.804 145.151 197.488  1.00  0.00     0.210 HD
ENDBRANCH  25  26
ENDBRANCH  24  25
ENDBRANCH  22  24
ENDBRANCH  21  22
ENDBRANCH  20  21
ENDBRANCH  18  20
ENDBRANCH  16  18
BRANCH   8  28
ATOM     28  O   UNL     1     141.203 136.370 192.542  1.00  0.00    -0.507 OA
ATOM     29  H   UNL     1     140.567 135.779 192.002  1.00  0.00     0.293 HD
ENDBRANCH   8  28
BRANCH  13  30
ATOM     30  N   UNL     1     146.097 136.481 193.472  1.00  0.00    -0.379 N 
ATOM     31  H   UNL     1     145.990 135.797 192.738  1.00  0.00     0.160 HD
BRANCH  30  32
ATOM     32  C   UNL     1     146.385 135.897 194.799  1.00  0.00     0.174 C 
BRANCH  32  33
ATOM     33  C   UNL     1     145.764 134.561 194.980  1.00  0.00     0.281 C 
BRANCH  33  34
ATOM     34  N   UNL     1     144.356 134.513 194.734  1.00  0.00    -0.343 N 
ATOM     35  H   UNL     1     143.794 135.088 195.402  1.00  0.00     0.346 HD
ATOM     36  H   UNL     1     144.184 134.931 193.786  1.00  0.00     0.346 HD
BRANCH  34  37
ATOM     37  C   UNL     1     143.813 133.177 194.701  1.00  0.00     0.289 C 
BRANCH  37  38
ATOM     38  C   UNL     1     144.723 132.207 193.981  1.00  0.00     0.217 C 
BRANCH  38  39
ATOM     39  O   UNL     1     144.595 130.960 194.567  1.00  0.00    -0.391 OA
ATOM     40  H   UNL     1     143.924 131.052 195.304  1.00  0.00     0.210 HD
ENDBRANCH  38  39
ENDBRANCH  37  38
ENDBRANCH  34  37
ENDBRANCH  33  34
ENDBRANCH  32  33
ENDBRANCH  30  32
ENDBRANCH  13  30
TORSDOF 15
ENDMDL
MODEL 6
REMARK VINA RESULT:      -4.5      2.438      3.345
REMARK SMILES O=C1c2c([O-])ccc(O)c2C(=O)c2c(NCC[NH2+]CCO)ccc(NCCNCCO)c21
REMARK SMILES IDX 1 1 2 2 3 3 4 4 5 5 6 6 7 7 8 8 10 9 11 10 12 11 13 12 14 13
REMARK SMILES IDX 22 14 23 15 24 16 32 17 25 18 26 20 27 21 28 22 29 24 30 25
REMARK SMILES IDX 31 26 9 28 15 30 16 32 17 33 18 34 19 37 20 38 21 39
REMARK H PARENT 25 19 28 23 31 27 9 29 15 31 18 35 18 36 21 40
ROOT
ATOM      1  O   UNL     1     144.023 132.994 193.750  1.00  0.00    -0.288 OA
ATOM      2  C   UNL     1     144.314 134.214 193.796  1.00  0.00     0.196 C 
ATOM      3  C   UNL     1     143.370 135.180 193.186  1.00  0.00     0.030 A 
ATOM      4  C   UNL     1     142.223 134.676 192.604  1.00  0.00    -0.097 A 
ATOM      5  O   UNL     1     141.996 133.303 192.610  1.00  0.00    -0.872 OA
ATOM      6  C   UNL     1     141.329 135.555 192.031  1.00  0.00    -0.004 A 
ATOM      7  C   UNL     1     141.577 136.899 192.040  1.00  0.00     0.046 A 
ATOM      8  C   UNL     1     142.714 137.422 192.615  1.00  0.00     0.127 A 
ATOM      9  C   UNL     1     143.610 136.522 193.191  1.00  0.00     0.075 A 
ATOM     10  C   UNL     1     144.837 137.032 193.816  1.00  0.00     0.200 C 
ATOM     11  O   UNL     1     144.976 138.278 193.776  1.00  0.00    -0.288 OA
ATOM     12  C   UNL     1     145.780 136.103 194.422  1.00  0.00     0.059 A 
ATOM     13  C   UNL     1     146.906 136.633 194.987  1.00  0.00     0.046 A 
ATOM     14  C   UNL     1     147.796 135.702 195.561  1.00  0.00     0.028 A 
ATOM     15  C   UNL     1     147.547 134.366 195.551  1.00  0.00     0.028 A 
ATOM     16  C   UNL     1     146.390 133.820 194.970  1.00  0.00     0.046 A 
ATOM     17  C   UNL     1     145.513 134.711 194.408  1.00  0.00     0.059 A 
ENDROOT
BRANCH  16  18
ATOM     18  N   UNL     1     146.213 132.407 195.050  1.00  0.00    -0.383 N 
ATOM     19  H   UNL     1     145.388 131.994 195.461  1.00  0.00     0.160 HD
BRANCH  18  20
ATOM     20  C   UNL     1     147.210 131.479 194.548  1.00  0.00     0.128 C 
BRANCH  20  21
ATOM     21  C   UNL     1     146.713 130.523 193.525  1.00  0.00     0.102 C 
BRANCH  21  22
ATOM     22  N   UNL     1     145.247 130.434 193.532  1.00  0.00    -0.313 NA
ATOM     23  H   UNL     1     144.954 130.509 194.537  1.00  0.00     0.122 HD
BRANCH  22  24
ATOM     24  C   UNL     1     144.908 129.083 193.110  1.00  0.00     0.109 C 
BRANCH  24  25
ATOM     25  C   UNL     1     145.022 128.107 194.255  1.00  0.00     0.171 C 
BRANCH  25  26
ATOM     26  O   UNL     1     145.716 126.958 193.884  1.00  0.00    -0.395 OA
ATOM     27  H   UNL     1     145.377 126.682 192.987  1.00  0.00     0.210 HD
ENDBRANCH  25  26
ENDBRANCH  24  25
ENDBRANCH  22  24
ENDBRANCH  21  22
ENDBRANCH  20  21
ENDBRANCH  18  20
ENDBRANCH  16  18
BRANCH   8  28
ATOM     28  O   UNL     1     142.965 138.800 192.622  1.00  0.00    -0.507 OA
ATOM     29  H   UNL     1     143.865 139.178 192.923  1.00  0.00     0.293 HD
ENDBRANCH   8  28
BRANCH  13  30
ATOM     30  N   UNL     1     147.246 138.000 195.044  1.00  0.00    -0.379 N 
ATOM     31  H   UNL     1     146.733 138.716 195.537  1.00  0.00     0.160 HD
BRANCH  30  32
ATOM     32  C   UNL     1     148.446 138.500 194.342  1.00  0.00     0.174 C 
BRANCH  32  33
ATOM     33  C   UNL     1     148.335 139.933 193.972  1.00  0.00     0.281 C 
BRANCH  33  34
ATOM     34  N   UNL     1     148.736 140.850 194.994  1.00  0.00    -0.343 N 
ATOM     35  H   UNL     1     149.006 140.387 195.891  1.00  0.00     0.346 HD
ATOM     36  H   UNL     1     149.600 141.343 194.658  1.00  0.00     0.346 HD
BRANCH  34  37
ATOM     37  C   UNL     1     147.760 141.875 195.276  1.00  0.00     0.289 C 
BRANCH  37  38
ATOM     38  C   UNL     1     147.733 142.948 194.212  1.00  0.00     0.217 C 
BRANCH  38  39
ATOM     39  O   UNL     1     147.986 144.172 194.808  1.00  0.00    -0.391 OA
ATOM     40  H   UNL     1     147.150 144.440 195.288  1.00  0.00     0.210 HD
ENDBRANCH  38  39
ENDBRANCH  37  38
ENDBRANCH  34  37
ENDBRANCH  33  34
ENDBRANCH  32  33
ENDBRANCH  30  32
ENDBRANCH  13  30
TORSDOF 15
ENDMDL
MODEL 7
REMARK VINA RESULT:      -4.5      3.471      6.090
REMARK SMILES O=C1c2c([O-])ccc(O)c2C(=O)c2c(NCC[NH2+]CCO)ccc(NCCNCCO)c21
REMARK SMILES IDX 1 1 2 2 3 3 4 4 5 5 6 6 7 7 8 8 10 9 11 10 12 11 13 12 14 13
REMARK SMILES IDX 22 14 23 15 24 16 32 17 25 18 26 20 27 21 28 22 29 24 30 25
REMARK SMILES IDX 31 26 9 28 15 30 16 32 17 33 18 34 19 37 20 38 21 39
REMARK H PARENT 25 19 28 23 31 27 9 29 15 31 18 35 18 36 21 40
ROOT
ATOM      1  O   UNL     1     146.797 134.261 195.063  1.00  0.00    -0.288 OA
ATOM      2  C   UNL     1     146.167 135.166 194.464  1.00  0.00     0.196 C 
ATOM      3  C   UNL     1     146.799 136.502 194.358  1.00  0.00     0.030 A 
ATOM      4  C   UNL     1     148.048 136.669 194.925  1.00  0.00    -0.097 A 
ATOM      5  O   UNL     1     148.659 135.595 195.566  1.00  0.00    -0.872 OA
ATOM      6  C   UNL     1     148.656 137.902 194.838  1.00  0.00    -0.004 A 
ATOM      7  C   UNL     1     148.033 138.939 194.202  1.00  0.00     0.046 A 
ATOM      8  C   UNL     1     146.788 138.795 193.631  1.00  0.00     0.127 A 
ATOM      9  C   UNL     1     146.183 137.542 193.725  1.00  0.00     0.075 A 
ATOM     10  C   UNL     1     144.856 137.339 193.131  1.00  0.00     0.200 C 
ATOM     11  O   UNL     1     144.365 138.347 192.569  1.00  0.00    -0.288 OA
ATOM     12  C   UNL     1     144.214 136.035 193.223  1.00  0.00     0.059 A 
ATOM     13  C   UNL     1     142.978 135.904 192.654  1.00  0.00     0.046 A 
ATOM     14  C   UNL     1     142.388 134.628 192.765  1.00  0.00     0.028 A 
ATOM     15  C   UNL     1     143.011 133.599 193.397  1.00  0.00     0.028 A 
ATOM     16  C   UNL     1     144.281 133.733 193.982  1.00  0.00     0.046 A 
ATOM     17  C   UNL     1     144.870 134.966 193.883  1.00  0.00     0.059 A 
ENDROOT
BRANCH  16  18
ATOM     18  N   UNL     1     144.856 132.576 194.588  1.00  0.00    -0.383 N 
ATOM     19  H   UNL     1     145.045 132.530 195.579  1.00  0.00     0.160 HD
BRANCH  18  20
ATOM     20  C   UNL     1     145.207 131.399 193.814  1.00  0.00     0.128 C 
BRANCH  20  21
ATOM     21  C   UNL     1     146.510 130.782 194.176  1.00  0.00     0.102 C 
BRANCH  21  22
ATOM     22  N   UNL     1     146.414 129.997 195.414  1.00  0.00    -0.313 NA
ATOM     23  H   UNL     1     145.821 130.560 196.071  1.00  0.00     0.122 HD
BRANCH  22  24
ATOM     24  C   UNL     1     147.748 129.968 195.994  1.00  0.00     0.109 C 
BRANCH  24  25
ATOM     25  C   UNL     1     147.912 128.794 196.930  1.00  0.00     0.171 C 
BRANCH  25  26
ATOM     26  O   UNL     1     147.295 129.027 198.157  1.00  0.00    -0.395 OA
ATOM     27  H   UNL     1     147.898 128.667 198.866  1.00  0.00     0.210 HD
ENDBRANCH  25  26
ENDBRANCH  24  25
ENDBRANCH  22  24
ENDBRANCH  21  22
ENDBRANCH  20  21
ENDBRANCH  18  20
ENDBRANCH  16  18
BRANCH   8  28
ATOM     28  O   UNL     1     146.152 139.860 192.980  1.00  0.00    -0.507 OA
ATOM     29  H   UNL     1     146.385 140.831 193.192  1.00  0.00     0.293 HD
ENDBRANCH   8  28
BRANCH  13  30
ATOM     30  N   UNL     1     142.259 136.913 191.980  1.00  0.00    -0.379 N 
ATOM     31  H   UNL     1     142.620 137.504 191.246  1.00  0.00     0.160 HD
BRANCH  30  32
ATOM     32  C   UNL     1     140.850 137.184 192.330  1.00  0.00     0.174 C 
BRANCH  32  33
ATOM     33  C   UNL     1     140.526 138.633 192.313  1.00  0.00     0.281 C 
BRANCH  33  34
ATOM     34  N   UNL     1     141.578 139.489 192.766  1.00  0.00    -0.343 N 
ATOM     35  H   UNL     1     142.526 139.201 192.434  1.00  0.00     0.346 HD
ATOM     36  H   UNL     1     141.411 140.442 192.358  1.00  0.00     0.346 HD
BRANCH  34  37
ATOM     37  C   UNL     1     141.620 139.656 194.198  1.00  0.00     0.289 C 
BRANCH  37  38
ATOM     38  C   UNL     1     142.006 141.062 194.600  1.00  0.00     0.217 C 
BRANCH  38  39
ATOM     39  O   UNL     1     141.599 141.935 193.606  1.00  0.00    -0.391 OA
ATOM     40  H   UNL     1     140.765 141.552 193.205  1.00  0.00     0.210 HD
ENDBRANCH  38  39
ENDBRANCH  37  38
ENDBRANCH  34  37
ENDBRANCH  33  34
ENDBRANCH  32  33
ENDBRANCH  30  32
ENDBRANCH  13  30
TORSDOF 15
ENDMDL
MODEL 8
REMARK VINA RESULT:      -4.4      7.377     11.584
REMARK SMILES O=C1c2c([O-])ccc(O)c2C(=O)c2c(NCC[NH2+]CCO)ccc(NCCNCCO)c21
REMARK SMILES IDX 1 1 2 2 3 3 4 4 5 5 6 6 7 7 8 8 10 9 11 10 12 11 13 12 14 13
REMARK SMILES IDX 22 14 23 15 24 16 32 17 25 18 26 20 27 21 28 22 29 24 30 25
REMARK SMILES IDX 31 26 9 28 15 30 16 32 17 33 18 34 19 37 20 38 21 39
REMARK H PARENT 25 19 28 23 31 27 9 29 15 31 18 35 18 36 21 40
ROOT
ATOM      1  O   UNL     1     147.970 130.944 193.136  1.00  0.00    -0.288 OA
ATOM      2  C   UNL     1     148.297 130.649 194.312  1.00  0.00     0.196 C 
ATOM      3  C   UNL     1     149.372 131.439 194.956  1.00  0.00     0.030 A 
ATOM      4  C   UNL     1     149.950 132.456 194.220  1.00  0.00    -0.097 A 
ATOM      5  O   UNL     1     149.510 132.700 192.923  1.00  0.00    -0.872 OA
ATOM      6  C   UNL     1     150.951 133.205 194.798  1.00  0.00    -0.004 A 
ATOM      7  C   UNL     1     151.364 132.944 196.075  1.00  0.00     0.046 A 
ATOM      8  C   UNL     1     150.802 131.935 196.825  1.00  0.00     0.127 A 
ATOM      9  C   UNL     1     149.789 131.184 196.230  1.00  0.00     0.075 A 
ATOM     10  C   UNL     1     149.159 130.098 196.990  1.00  0.00     0.200 C 
ATOM     11  O   UNL     1     149.603 129.935 198.151  1.00  0.00    -0.288 OA
ATOM     12  C   UNL     1     148.100 129.307 196.379  1.00  0.00     0.059 A 
ATOM     13  C   UNL     1     147.551 128.307 197.132  1.00  0.00     0.046 A 
ATOM     14  C   UNL     1     146.531 127.562 196.505  1.00  0.00     0.028 A 
ATOM     15  C   UNL     1     146.122 127.825 195.236  1.00  0.00     0.028 A 
ATOM     16  C   UNL     1     146.686 128.852 194.461  1.00  0.00     0.046 A 
ATOM     17  C   UNL     1     147.680 129.587 195.054  1.00  0.00     0.059 A 
ENDROOT
BRANCH  16  18
ATOM     18  N   UNL     1     146.156 129.062 193.154  1.00  0.00    -0.383 N 
ATOM     19  H   UNL     1     146.736 129.016 192.328  1.00  0.00     0.160 HD
BRANCH  18  20
ATOM     20  C   UNL     1     144.752 129.360 192.934  1.00  0.00     0.128 C 
BRANCH  20  21
ATOM     21  C   UNL     1     144.462 130.108 191.682  1.00  0.00     0.102 C 
BRANCH  21  22
ATOM     22  N   UNL     1     143.596 131.267 191.931  1.00  0.00    -0.313 NA
ATOM     23  H   UNL     1     143.479 131.748 191.006  1.00  0.00     0.122 HD
BRANCH  22  24
ATOM     24  C   UNL     1     144.353 132.182 192.772  1.00  0.00     0.109 C 
BRANCH  24  25
ATOM     25  C   UNL     1     143.436 133.054 193.596  1.00  0.00     0.171 C 
BRANCH  25  26
ATOM     26  O   UNL     1     143.350 132.609 194.913  1.00  0.00    -0.395 OA
ATOM     27  H   UNL     1     142.670 133.173 195.374  1.00  0.00     0.210 HD
ENDBRANCH  25  26
ENDBRANCH  24  25
ENDBRANCH  22  24
ENDBRANCH  21  22
ENDBRANCH  20  21
ENDBRANCH  18  20
ENDBRANCH  16  18
BRANCH   8  28
ATOM     28  O   UNL     1     151.227 131.671 198.134  1.00  0.00    -0.507 OA
ATOM     29  H   UNL     1     151.912 130.940 198.336  1.00  0.00     0.293 HD
ENDBRANCH   8  28
BRANCH  13  30
ATOM     30  N   UNL     1     147.910 127.965 198.452  1.00  0.00    -0.379 N 
ATOM     31  H   UNL     1     148.840 127.739 198.771  1.00  0.00     0.160 HD
BRANCH  30  32
ATOM     32  C   UNL     1     146.882 127.910 199.512  1.00  0.00     0.174 C 
BRANCH  32  33
ATOM     33  C   UNL     1     146.498 126.519 199.863  1.00  0.00     0.281 C 
BRANCH  33  34
ATOM     34  N   UNL     1     145.144 126.174 199.558  1.00  0.00    -0.343 N 
ATOM     35  H   UNL     1     144.781 126.630 198.690  1.00  0.00     0.346 HD
ATOM     36  H   UNL     1     145.114 125.141 199.370  1.00  0.00     0.346 HD
BRANCH  34  37
ATOM     37  C   UNL     1     144.220 126.424 200.636  1.00  0.00     0.289 C 
BRANCH  37  38
ATOM     38  C   UNL     1     142.863 126.865 200.137  1.00  0.00     0.217 C 
BRANCH  38  39
ATOM     39  O   UNL     1     142.942 128.190 199.745  1.00  0.00    -0.391 OA
ATOM     40  H   UNL     1     142.203 128.677 200.214  1.00  0.00     0.210 HD
ENDBRANCH  38  39
ENDBRANCH  37  38
ENDBRANCH  34  37
ENDBRANCH  33  34
ENDBRANCH  32  33
ENDBRANCH  30  32
ENDBRANCH  13  30
TORSDOF 15
ENDMDL
MODEL 9
REMARK VINA RESULT:      -4.4      1.277      7.941
REMARK SMILES O=C1c2c([O-])ccc(O)c2C(=O)c2c(NCC[NH2+]CCO)ccc(NCCNCCO)c21
REMARK SMILES IDX 1 1 2 2 3 3 4 4 5 5 6 6 7 7 8 8 10 9 11 10 12 11 13 12 14 13
REMARK SMILES IDX 22 14 23 15 24 16 32 17 25 18 26 20 27 21 28 22 29 24 30 25
REMARK SMILES IDX 31 26 9 28 15 30 16 32 17 33 18 34 19 37 20 38 21 39
REMARK H PARENT 25 19 28 23 31 27 9 29 15 31 18 35 18 36 21 40
ROOT
ATOM      1  O   UNL     1     144.698 141.676 193.704  1.00  0.00    -0.288 OA
ATOM      2  C   UNL     1     144.442 140.454 193.581  1.00  0.00     0.196 C 
ATOM      3  C   UNL     1     143.084 140.067 193.131  1.00  0.00     0.030 A 
ATOM      4  C   UNL     1     142.181 141.080 192.872  1.00  0.00    -0.097 A 
ATOM      5  O   UNL     1     142.570 142.406 193.039  1.00  0.00    -0.872 OA
ATOM      6  C   UNL     1     140.912 140.746 192.451  1.00  0.00    -0.004 A 
ATOM      7  C   UNL     1     140.557 139.435 192.295  1.00  0.00     0.046 A 
ATOM      8  C   UNL     1     141.441 138.410 192.548  1.00  0.00     0.127 A 
ATOM      9  C   UNL     1     142.722 138.762 192.973  1.00  0.00     0.075 A 
ATOM     10  C   UNL     1     143.700 137.704 193.255  1.00  0.00     0.200 C 
ATOM     11  O   UNL     1     143.282 136.534 193.083  1.00  0.00    -0.288 OA
ATOM     12  C   UNL     1     145.041 138.058 193.699  1.00  0.00     0.059 A 
ATOM     13  C   UNL     1     145.909 137.033 193.950  1.00  0.00     0.046 A 
ATOM     14  C   UNL     1     147.196 137.415 194.380  1.00  0.00     0.028 A 
ATOM     15  C   UNL     1     147.547 138.720 194.533  1.00  0.00     0.028 A 
ATOM     16  C   UNL     1     146.655 139.774 194.277  1.00  0.00     0.046 A 
ATOM     17  C   UNL     1     145.399 139.421 193.857  1.00  0.00     0.059 A 
ENDROOT
BRANCH  16  18
ATOM     18  N   UNL     1     147.141 141.105 194.436  1.00  0.00    -0.383 N 
ATOM     19  H   UNL     1     147.344 141.699 193.644  1.00  0.00     0.160 HD
BRANCH  18  20
ATOM     20  C   UNL     1     147.377 141.684 195.746  1.00  0.00     0.128 C 
BRANCH  20  21
ATOM     21  C   UNL     1     148.365 142.795 195.768  1.00  0.00     0.102 C 
BRANCH  21  22
ATOM     22  N   UNL     1     149.724 142.319 195.476  1.00  0.00    -0.313 NA
ATOM     23  H   UNL     1     149.753 141.315 195.781  1.00  0.00     0.122 HD
BRANCH  22  24
ATOM     24  C   UNL     1     150.620 143.041 196.367  1.00  0.00     0.109 C 
BRANCH  24  25
ATOM     25  C   UNL     1     149.947 144.260 196.949  1.00  0.00     0.171 C 
BRANCH  25  26
ATOM     26  O   UNL     1     150.866 145.267 197.234  1.00  0.00    -0.395 OA
ATOM     27  H   UNL     1     151.321 145.505 196.379  1.00  0.00     0.210 HD
ENDBRANCH  25  26
ENDBRANCH  24  25
ENDBRANCH  22  24
ENDBRANCH  21  22
ENDBRANCH  20  21
ENDBRANCH  18  20
ENDBRANCH  16  18
BRANCH   8  28
ATOM     28  O   UNL     1     141.074 137.068 192.387  1.00  0.00    -0.507 OA
ATOM     29  H   UNL     1     140.923 136.455 193.190  1.00  0.00     0.293 HD
ENDBRANCH   8  28
BRANCH  13  30
ATOM     30  N   UNL     1     145.634 135.656 193.817  1.00  0.00    -0.379 N 
ATOM     31  H   UNL     1     144.815 135.257 193.383  1.00  0.00     0.160 HD
BRANCH  30  32
ATOM     32  C   UNL     1     146.585 134.653 194.339  1.00  0.00     0.174 C 
BRANCH  32  33
ATOM     33  C   UNL     1     147.078 133.732 193.285  1.00  0.00     0.281 C 
BRANCH  33  34
ATOM     34  N   UNL     1     146.656 132.373 193.428  1.00  0.00    -0.343 N 
ATOM     35  H   UNL     1     145.826 132.128 192.841  1.00  0.00     0.346 HD
ATOM     36  H   UNL     1     147.436 131.759 193.087  1.00  0.00     0.346 HD
BRANCH  34  37
ATOM     37  C   UNL     1     146.391 131.984 194.791  1.00  0.00     0.289 C 
BRANCH  37  38
ATOM     38  C   UNL     1     147.087 130.694 195.164  1.00  0.00     0.217 C 
BRANCH  38  39
ATOM     39  O   UNL     1     147.739 130.202 194.046  1.00  0.00    -0.391 OA
ATOM     40  H   UNL     1     148.719 130.337 194.198  1.00  0.00     0.210 HD
ENDBRANCH  38  39
ENDBRANCH  37  38
ENDBRANCH  34  37
ENDBRANCH  33  34
ENDBRANCH  32  33
ENDBRANCH  30  32
ENDBRANCH  13  30
TORSDOF 15
ENDMDL
