MODEL 1
REMARK VINA RESULT:      -6.5      0.000      0.000
REMARK SMILES CC(C)C[C@@H](C=O)NC(=O)[C@H](CC(C)C)NC(=O)[C@H](CC(C)C)NC(=O)OCc1ccccc1
REMARK SMILES IDX 16 1 17 2 18 3 11 5 9 6 8 7 10 8 5 10 4 11 2 12 1 13 3 14
REMARK SMILES IDX 6 15 7 16 12 17 13 18 14 19 15 20 19 21 20 22 21 23 22 24
REMARK SMILES IDX 23 25 24 26 25 27 26 28 27 30 28 31 29 32 30 33 34 34 31 35
REMARK SMILES IDX 33 36 32 37
REMARK H PARENT 16 4 8 9 24 29
ROOT
ATOM      1  N   UNL     1      52.363 -71.357 152.542  1.00  0.00    -0.343 N 
ATOM      2  C   UNL     1      51.027 -71.854 152.701  1.00  0.00     0.243 C 
ATOM      3  O   UNL     1      50.373 -72.101 151.641  1.00  0.00    -0.273 OA
ATOM      4  H   UNL     1      52.887 -71.173 153.431  1.00  0.00     0.164 HD
ENDROOT
BRANCH   1   5
ATOM      5  C   UNL     1      52.956 -71.142 151.218  1.00  0.00     0.171 C 
BRANCH   5   6
ATOM      6  C   UNL     1      54.234 -71.981 151.179  1.00  0.00     0.243 C 
ATOM      7  N   UNL     1      55.044 -72.035 150.030  1.00  0.00    -0.345 N 
ATOM      8  O   UNL     1      54.554 -72.628 152.196  1.00  0.00    -0.273 OA
ATOM      9  H   UNL     1      54.747 -71.482 149.199  1.00  0.00     0.164 HD
BRANCH   7  10
ATOM     10  C   UNL     1      56.273 -72.832 149.975  1.00  0.00     0.146 C 
BRANCH  10  11
ATOM     11  C   UNL     1      56.535 -73.192 148.532  1.00  0.00     0.035 C 
BRANCH  11  12
ATOM     12  C   UNL     1      56.470 -74.672 148.264  1.00  0.00    -0.015 C 
ATOM     13  C   UNL     1      55.484 -75.358 149.188  1.00  0.00     0.007 C 
ATOM     14  C   UNL     1      57.830 -75.286 148.506  1.00  0.00     0.007 C 
ENDBRANCH  11  12
ENDBRANCH  10  11
BRANCH  10  15
ATOM     15  C   UNL     1      57.353 -72.051 150.610  1.00  0.00     0.248 C 
ATOM     16  O   UNL     1      58.505 -72.437 150.669  1.00  0.00    -0.301 OA
ENDBRANCH  10  15
ENDBRANCH   7  10
ENDBRANCH   5   6
BRANCH   5  17
ATOM     17  C   UNL     1      53.286 -69.728 150.907  1.00  0.00     0.038 C 
BRANCH  17  18
ATOM     18  C   UNL     1      52.915 -69.266 149.538  1.00  0.00    -0.015 C 
ATOM     19  C   UNL     1      52.407 -67.812 149.594  1.00  0.00     0.007 C 
ATOM     20  C   UNL     1      51.871 -70.077 148.858  1.00  0.00     0.007 C 
ENDBRANCH  17  18
ENDBRANCH   5  17
ENDBRANCH   1   5
BRANCH   2  21
ATOM     21  C   UNL     1      50.421 -72.073 154.049  1.00  0.00     0.175 C 
BRANCH  21  22
ATOM     22  C   UNL     1      51.387 -71.713 155.141  1.00  0.00     0.038 C 
BRANCH  22  23
ATOM     23  C   UNL     1      51.029 -70.483 155.899  1.00  0.00    -0.015 C 
ATOM     24  C   UNL     1      51.950 -69.322 155.664  1.00  0.00     0.007 C 
ATOM     25  C   UNL     1      49.562 -70.093 155.772  1.00  0.00     0.007 C 
ENDBRANCH  22  23
ENDBRANCH  21  22
BRANCH  21  26
ATOM     26  N   UNL     1      49.945 -73.410 154.101  1.00  0.00    -0.310 N 
ATOM     27  C   UNL     1      48.553 -73.675 154.019  1.00  0.00     0.408 C 
ATOM     28  O   UNL     1      47.735 -72.704 153.897  1.00  0.00    -0.225 OA
ATOM     29  H   UNL     1      50.595 -74.200 154.197  1.00  0.00     0.167 HD
BRANCH  27  30
ATOM     30  O   UNL     1      48.006 -74.919 154.062  1.00  0.00    -0.445 OA
BRANCH  30  31
ATOM     31  C   UNL     1      47.796 -75.776 155.135  1.00  0.00     0.270 C 
BRANCH  31  32
ATOM     32  C   UNL     1      48.923 -76.722 155.321  1.00  0.00    -0.011 A 
ATOM     33  C   UNL     1      49.997 -76.435 156.139  1.00  0.00     0.007 A 
ATOM     34  C   UNL     1      48.939 -77.956 154.689  1.00  0.00     0.007 A 
ATOM     35  C   UNL     1      51.042 -77.303 156.339  1.00  0.00     0.000 A 
ATOM     36  C   UNL     1      49.990 -78.838 154.885  1.00  0.00     0.000 A 
ATOM     37  C   UNL     1      51.050 -78.531 155.705  1.00  0.00     0.000 A 
ENDBRANCH  31  32
ENDBRANCH  30  31
ENDBRANCH  27  30
ENDBRANCH  21  26
ENDBRANCH   2  21
TORSDOF 15
ENDMDL
MODEL 2
REMARK VINA RESULT:      -6.3      4.019      5.780
REMARK SMILES CC(C)C[C@@H](C=O)NC(=O)[C@H](CC(C)C)NC(=O)[C@H](CC(C)C)NC(=O)OCc1ccccc1
REMARK SMILES IDX 16 1 17 2 18 3 11 5 9 6 8 7 10 8 5 10 4 11 2 12 1 13 3 14
REMARK SMILES IDX 6 15 7 16 12 17 13 18 14 19 15 20 19 21 20 22 21 23 22 24
REMARK SMILES IDX 23 25 24 26 25 27 26 28 27 30 28 31 29 32 30 33 34 34 31 35
REMARK SMILES IDX 33 36 32 37
REMARK H PARENT 16 4 8 9 24 29
ROOT
ATOM      1  N   UNL     1      50.024 -73.864 148.985  1.00  0.00    -0.343 N 
ATOM      2  C   UNL     1      49.134 -74.373 147.981  1.00  0.00     0.243 C 
ATOM      3  O   UNL     1      49.224 -73.865 146.820  1.00  0.00    -0.273 OA
ATOM      4  H   UNL     1      49.940 -74.308 149.932  1.00  0.00     0.164 HD
ENDROOT
BRANCH   1   5
ATOM      5  C   UNL     1      50.997 -72.807 148.693  1.00  0.00     0.171 C 
BRANCH   5   6
ATOM      6  C   UNL     1      52.305 -73.515 148.337  1.00  0.00     0.243 C 
ATOM      7  N   UNL     1      53.246 -73.862 149.323  1.00  0.00    -0.345 N 
ATOM      8  O   UNL     1      52.530 -73.785 147.140  1.00  0.00    -0.273 OA
ATOM      9  H   UNL     1      53.025 -73.621 150.313  1.00  0.00     0.164 HD
BRANCH   7  10
ATOM     10  C   UNL     1      54.504 -74.542 149.001  1.00  0.00     0.146 C 
BRANCH  10  11
ATOM     11  C   UNL     1      55.643 -73.690 149.509  1.00  0.00     0.035 C 
BRANCH  11  12
ATOM     12  C   UNL     1      56.111 -74.077 150.887  1.00  0.00    -0.015 C 
ATOM     13  C   UNL     1      55.697 -73.049 151.920  1.00  0.00     0.007 C 
ATOM     14  C   UNL     1      57.621 -74.157 150.899  1.00  0.00     0.007 C 
ENDBRANCH  11  12
ENDBRANCH  10  11
BRANCH  10  15
ATOM     15  C   UNL     1      54.453 -75.896 149.586  1.00  0.00     0.248 C 
ATOM     16  O   UNL     1      53.816 -76.808 149.094  1.00  0.00    -0.301 OA
ENDBRANCH  10  15
ENDBRANCH   7  10
ENDBRANCH   5   6
BRANCH   5  17
ATOM     17  C   UNL     1      51.239 -71.860 149.810  1.00  0.00     0.038 C 
BRANCH  17  18
ATOM     18  C   UNL     1      52.406 -70.946 149.639  1.00  0.00    -0.015 C 
ATOM     19  C   UNL     1      53.040 -70.642 151.011  1.00  0.00     0.007 C 
ATOM     20  C   UNL     1      52.098 -69.643 148.993  1.00  0.00     0.007 C 
ENDBRANCH  17  18
ENDBRANCH   5  17
ENDBRANCH   1   5
BRANCH   2  21
ATOM     21  C   UNL     1      48.141 -75.449 148.277  1.00  0.00     0.175 C 
BRANCH  21  22
ATOM     22  C   UNL     1      47.318 -75.774 147.064  1.00  0.00     0.038 C 
BRANCH  22  23
ATOM     23  C   UNL     1      47.280 -77.220 146.714  1.00  0.00    -0.015 C 
ATOM     24  C   UNL     1      48.256 -78.066 147.477  1.00  0.00     0.007 C 
ATOM     25  C   UNL     1      45.875 -77.811 146.716  1.00  0.00     0.007 C 
ENDBRANCH  22  23
ENDBRANCH  21  22
BRANCH  21  26
ATOM     26  N   UNL     1      47.387 -75.046 149.410  1.00  0.00    -0.310 N 
ATOM     27  C   UNL     1      47.589 -75.682 150.664  1.00  0.00     0.408 C 
ATOM     28  O   UNL     1      48.454 -76.614 150.763  1.00  0.00    -0.225 OA
ATOM     29  H   UNL     1      46.690 -74.296 149.343  1.00  0.00     0.167 HD
BRANCH  27  30
ATOM     30  O   UNL     1      46.914 -75.366 151.801  1.00  0.00    -0.445 OA
BRANCH  30  31
ATOM     31  C   UNL     1      46.717 -74.140 152.423  1.00  0.00     0.270 C 
BRANCH  31  32
ATOM     32  C   UNL     1      47.959 -73.631 153.054  1.00  0.00    -0.011 A 
ATOM     33  C   UNL     1      48.570 -74.281 154.107  1.00  0.00     0.007 A 
ATOM     34  C   UNL     1      48.577 -72.477 152.597  1.00  0.00     0.007 A 
ATOM     35  C   UNL     1      49.729 -73.836 154.694  1.00  0.00     0.000 A 
ATOM     36  C   UNL     1      49.747 -72.021 153.183  1.00  0.00     0.000 A 
ATOM     37  C   UNL     1      50.339 -72.686 154.231  1.00  0.00     0.000 A 
ENDBRANCH  31  32
ENDBRANCH  30  31
ENDBRANCH  27  30
ENDBRANCH  21  26
ENDBRANCH   2  21
TORSDOF 15
ENDMDL
MODEL 3
REMARK VINA RESULT:      -6.2      2.583      5.300
REMARK SMILES CC(C)C[C@@H](C=O)NC(=O)[C@H](CC(C)C)NC(=O)[C@H](CC(C)C)NC(=O)OCc1ccccc1
REMARK SMILES IDX 16 1 17 2 18 3 11 5 9 6 8 7 10 8 5 10 4 11 2 12 1 13 3 14
REMARK SMILES IDX 6 15 7 16 12 17 13 18 14 19 15 20 19 21 20 22 21 23 22 24
REMARK SMILES IDX 23 25 24 26 25 27 26 28 27 30 28 31 29 32 30 33 34 34 31 35
REMARK SMILES IDX 33 36 32 37
REMARK H PARENT 16 4 8 9 24 29
ROOT
ATOM      1  N   UNL     1      53.202 -74.100 148.201  1.00  0.00    -0.343 N 
ATOM      2  C   UNL     1      53.205 -73.337 149.416  1.00  0.00     0.243 C 
ATOM      3  O   UNL     1      53.882 -73.800 150.386  1.00  0.00    -0.273 OA
ATOM      4  H   UNL     1      52.647 -73.691 147.411  1.00  0.00     0.164 HD
ENDROOT
BRANCH   1   5
ATOM      5  C   UNL     1      53.945 -75.358 148.076  1.00  0.00     0.171 C 
BRANCH   5   6
ATOM      6  C   UNL     1      55.407 -74.971 147.845  1.00  0.00     0.243 C 
ATOM      7  N   UNL     1      56.361 -75.053 148.875  1.00  0.00    -0.345 N 
ATOM      8  O   UNL     1      55.748 -74.576 146.712  1.00  0.00    -0.273 OA
ATOM      9  H   UNL     1      56.041 -75.388 149.809  1.00  0.00     0.164 HD
BRANCH   7  10
ATOM     10  C   UNL     1      57.767 -74.688 148.673  1.00  0.00     0.146 C 
BRANCH  10  11
ATOM     11  C   UNL     1      58.185 -73.783 149.807  1.00  0.00     0.035 C 
BRANCH  11  12
ATOM     12  C   UNL     1      57.092 -73.541 150.813  1.00  0.00    -0.015 C 
ATOM     13  C   UNL     1      56.848 -72.059 151.018  1.00  0.00     0.007 C 
ATOM     14  C   UNL     1      57.498 -74.127 152.146  1.00  0.00     0.007 C 
ENDBRANCH  11  12
ENDBRANCH  10  11
BRANCH  10  15
ATOM     15  C   UNL     1      58.551 -75.934 148.570  1.00  0.00     0.248 C 
ATOM     16  O   UNL     1      59.452 -76.217 149.338  1.00  0.00    -0.301 OA
ENDBRANCH  10  15
ENDBRANCH   7  10
ENDBRANCH   5   6
BRANCH   5  17
ATOM     17  C   UNL     1      53.490 -76.241 146.972  1.00  0.00     0.038 C 
BRANCH  17  18
ATOM     18  C   UNL     1      52.630 -77.391 147.379  1.00  0.00    -0.015 C 
ATOM     19  C   UNL     1      51.227 -76.885 147.767  1.00  0.00     0.007 C 
ATOM     20  C   UNL     1      53.146 -78.191 148.521  1.00  0.00     0.007 C 
ENDBRANCH  17  18
ENDBRANCH   5  17
ENDBRANCH   1   5
BRANCH   2  21
ATOM     21  C   UNL     1      52.448 -72.056 149.546  1.00  0.00     0.175 C 
BRANCH  21  22
ATOM     22  C   UNL     1      53.368 -70.915 149.874  1.00  0.00     0.038 C 
BRANCH  22  23
ATOM     23  C   UNL     1      52.720 -69.791 150.603  1.00  0.00    -0.015 C 
ATOM     24  C   UNL     1      53.075 -69.711 152.058  1.00  0.00     0.007 C 
ATOM     25  C   UNL     1      52.858 -68.448 149.898  1.00  0.00     0.007 C 
ENDBRANCH  22  23
ENDBRANCH  21  22
BRANCH  21  26
ATOM     26  N   UNL     1      51.405 -72.260 150.488  1.00  0.00    -0.310 N 
ATOM     27  C   UNL     1      50.085 -72.533 150.041  1.00  0.00     0.408 C 
ATOM     28  O   UNL     1      49.845 -72.594 148.789  1.00  0.00    -0.225 OA
ATOM     29  H   UNL     1      51.586 -72.216 151.497  1.00  0.00     0.167 HD
BRANCH  27  30
ATOM     30  O   UNL     1      49.024 -72.739 150.866  1.00  0.00    -0.445 OA
BRANCH  30  31
ATOM     31  C   UNL     1      48.614 -72.049 151.999  1.00  0.00     0.270 C 
BRANCH  31  32
ATOM     32  C   UNL     1      49.362 -72.470 153.208  1.00  0.00    -0.011 A 
ATOM     33  C   UNL     1      49.055 -73.625 153.899  1.00  0.00     0.007 A 
ATOM     34  C   UNL     1      50.425 -71.724 153.692  1.00  0.00     0.007 A 
ATOM     35  C   UNL     1      49.746 -74.042 155.010  1.00  0.00     0.000 A 
ATOM     36  C   UNL     1      51.129 -72.138 154.813  1.00  0.00     0.000 A 
ATOM     37  C   UNL     1      50.805 -73.293 155.485  1.00  0.00     0.000 A 
ENDBRANCH  31  32
ENDBRANCH  30  31
ENDBRANCH  27  30
ENDBRANCH  21  26
ENDBRANCH   2  21
TORSDOF 15
ENDMDL
MODEL 4
REMARK VINA RESULT:      -6.2      3.438      5.860
REMARK SMILES CC(C)C[C@@H](C=O)NC(=O)[C@H](CC(C)C)NC(=O)[C@H](CC(C)C)NC(=O)OCc1ccccc1
REMARK SMILES IDX 16 1 17 2 18 3 11 5 9 6 8 7 10 8 5 10 4 11 2 12 1 13 3 14
REMARK SMILES IDX 6 15 7 16 12 17 13 18 14 19 15 20 19 21 20 22 21 23 22 24
REMARK SMILES IDX 23 25 24 26 25 27 26 28 27 30 28 31 29 32 30 33 34 34 31 35
REMARK SMILES IDX 33 36 32 37
REMARK H PARENT 16 4 8 9 24 29
ROOT
ATOM      1  N   UNL     1      52.273 -72.178 152.185  1.00  0.00    -0.343 N 
ATOM      2  C   UNL     1      51.850 -71.263 153.205  1.00  0.00     0.243 C 
ATOM      3  O   UNL     1      52.472 -70.158 153.283  1.00  0.00    -0.273 OA
ATOM      4  H   UNL     1      51.737 -73.078 152.132  1.00  0.00     0.164 HD
ENDROOT
BRANCH   1   5
ATOM      5  C   UNL     1      53.372 -71.860 151.268  1.00  0.00     0.171 C 
BRANCH   5   6
ATOM      6  C   UNL     1      52.819 -72.051 149.854  1.00  0.00     0.243 C 
ATOM      7  N   UNL     1      52.408 -73.314 149.390  1.00  0.00    -0.345 N 
ATOM      8  O   UNL     1      52.737 -71.057 149.106  1.00  0.00    -0.273 OA
ATOM      9  H   UNL     1      52.490 -74.123 150.041  1.00  0.00     0.164 HD
BRANCH   7  10
ATOM     10  C   UNL     1      51.874 -73.516 148.039  1.00  0.00     0.146 C 
BRANCH  10  11
ATOM     11  C   UNL     1      52.503 -74.764 147.467  1.00  0.00     0.035 C 
BRANCH  11  12
ATOM     12  C   UNL     1      52.431 -75.948 148.394  1.00  0.00    -0.015 C 
ATOM     13  C   UNL     1      53.811 -76.498 148.696  1.00  0.00     0.007 C 
ATOM     14  C   UNL     1      51.632 -77.051 147.737  1.00  0.00     0.007 C 
ENDBRANCH  11  12
ENDBRANCH  10  11
BRANCH  10  15
ATOM     15  C   UNL     1      50.402 -73.568 148.134  1.00  0.00     0.248 C 
ATOM     16  O   UNL     1      49.679 -73.715 147.165  1.00  0.00    -0.301 OA
ENDBRANCH  10  15
ENDBRANCH   7  10
ENDBRANCH   5   6
BRANCH   5  17
ATOM     17  C   UNL     1      54.586 -72.698 151.438  1.00  0.00     0.038 C 
BRANCH  17  18
ATOM     18  C   UNL     1      55.694 -72.431 150.475  1.00  0.00    -0.015 C 
ATOM     19  C   UNL     1      55.974 -73.692 149.635  1.00  0.00     0.007 C 
ATOM     20  C   UNL     1      56.980 -72.013 151.093  1.00  0.00     0.007 C 
ENDBRANCH  17  18
ENDBRANCH   5  17
ENDBRANCH   1   5
BRANCH   2  21
ATOM     21  C   UNL     1      50.732 -71.585 154.141  1.00  0.00     0.175 C 
BRANCH  21  22
ATOM     22  C   UNL     1      49.433 -71.736 153.402  1.00  0.00     0.038 C 
BRANCH  22  23
ATOM     23  C   UNL     1      48.221 -71.495 154.230  1.00  0.00    -0.015 C 
ATOM     24  C   UNL     1      47.168 -70.665 153.557  1.00  0.00     0.007 C 
ATOM     25  C   UNL     1      47.649 -72.760 154.857  1.00  0.00     0.007 C 
ENDBRANCH  22  23
ENDBRANCH  21  22
BRANCH  21  26
ATOM     26  N   UNL     1      50.717 -70.596 155.160  1.00  0.00    -0.310 N 
ATOM     27  C   UNL     1      50.678 -70.979 156.526  1.00  0.00     0.408 C 
ATOM     28  O   UNL     1      50.658 -72.219 156.831  1.00  0.00    -0.225 OA
ATOM     29  H   UNL     1      50.735 -69.596 154.927  1.00  0.00     0.167 HD
BRANCH  27  30
ATOM     30  O   UNL     1      50.659 -70.106 157.567  1.00  0.00    -0.445 OA
BRANCH  30  31
ATOM     31  C   UNL     1      49.858 -70.070 158.702  1.00  0.00     0.270 C 
BRANCH  31  32
ATOM     32  C   UNL     1      50.660 -70.080 159.950  1.00  0.00    -0.011 A 
ATOM     33  C   UNL     1      52.040 -70.041 159.938  1.00  0.00     0.007 A 
ATOM     34  C   UNL     1      50.052 -70.113 161.195  1.00  0.00     0.007 A 
ATOM     35  C   UNL     1      52.801 -70.032 161.081  1.00  0.00     0.000 A 
ATOM     36  C   UNL     1      50.813 -70.104 162.354  1.00  0.00     0.000 A 
ATOM     37  C   UNL     1      52.186 -70.064 162.319  1.00  0.00     0.000 A 
ENDBRANCH  31  32
ENDBRANCH  30  31
ENDBRANCH  27  30
ENDBRANCH  21  26
ENDBRANCH   2  21
TORSDOF 15
ENDMDL
MODEL 5
REMARK VINA RESULT:      -6.1      2.739      3.466
REMARK SMILES CC(C)C[C@@H](C=O)NC(=O)[C@H](CC(C)C)NC(=O)[C@H](CC(C)C)NC(=O)OCc1ccccc1
REMARK SMILES IDX 16 1 17 2 18 3 11 5 9 6 8 7 10 8 5 10 4 11 2 12 1 13 3 14
REMARK SMILES IDX 6 15 7 16 12 17 13 18 14 19 15 20 19 21 20 22 21 23 22 24
REMARK SMILES IDX 23 25 24 26 25 27 26 28 27 30 28 31 29 32 30 33 34 34 31 35
REMARK SMILES IDX 33 36 32 37
REMARK H PARENT 16 4 8 9 24 29
ROOT
ATOM      1  N   UNL     1      52.320 -71.692 153.044  1.00  0.00    -0.343 N 
ATOM      2  C   UNL     1      50.939 -72.042 153.211  1.00  0.00     0.243 C 
ATOM      3  O   UNL     1      50.234 -72.124 152.157  1.00  0.00    -0.273 OA
ATOM      4  H   UNL     1      52.885 -71.644 153.927  1.00  0.00     0.164 HD
ENDROOT
BRANCH   1   5
ATOM      5  C   UNL     1      52.901 -71.439 151.722  1.00  0.00     0.171 C 
BRANCH   5   6
ATOM      6  C   UNL     1      54.354 -71.911 151.794  1.00  0.00     0.243 C 
ATOM      7  N   UNL     1      54.894 -72.781 150.829  1.00  0.00    -0.345 N 
ATOM      8  O   UNL     1      55.066 -71.508 152.735  1.00  0.00    -0.273 OA
ATOM      9  H   UNL     1      54.270 -73.098 150.056  1.00  0.00     0.164 HD
BRANCH   7  10
ATOM     10  C   UNL     1      56.284 -73.243 150.881  1.00  0.00     0.146 C 
BRANCH  10  11
ATOM     11  C   UNL     1      56.347 -74.615 150.254  1.00  0.00     0.035 C 
BRANCH  11  12
ATOM     12  C   UNL     1      56.943 -74.614 148.872  1.00  0.00    -0.015 C 
ATOM     13  C   UNL     1      56.019 -75.278 147.871  1.00  0.00     0.007 C 
ATOM     14  C   UNL     1      58.240 -75.392 148.884  1.00  0.00     0.007 C 
ENDBRANCH  11  12
ENDBRANCH  10  11
BRANCH  10  15
ATOM     15  C   UNL     1      57.126 -72.231 150.211  1.00  0.00     0.248 C 
ATOM     16  O   UNL     1      58.134 -71.769 150.713  1.00  0.00    -0.301 OA
ENDBRANCH  10  15
ENDBRANCH   7  10
ENDBRANCH   5   6
BRANCH   5  17
ATOM     17  C   UNL     1      52.865 -70.020 151.289  1.00  0.00     0.038 C 
BRANCH  17  18
ATOM     18  C   UNL     1      52.812 -69.796 149.814  1.00  0.00    -0.015 C 
ATOM     19  C   UNL     1      52.487 -68.319 149.519  1.00  0.00     0.007 C 
ATOM     20  C   UNL     1      51.817 -70.625 149.086  1.00  0.00     0.007 C 
ENDBRANCH  17  18
ENDBRANCH   5  17
ENDBRANCH   1   5
BRANCH   2  21
ATOM     21  C   UNL     1      50.346 -72.300 154.557  1.00  0.00     0.175 C 
BRANCH  21  22
ATOM     22  C   UNL     1      49.626 -71.086 155.072  1.00  0.00     0.038 C 
BRANCH  22  23
ATOM     23  C   UNL     1      48.142 -71.180 155.013  1.00  0.00    -0.015 C 
ATOM     24  C   UNL     1      47.549 -70.791 153.691  1.00  0.00     0.007 C 
ATOM     25  C   UNL     1      47.594 -72.506 155.526  1.00  0.00     0.007 C 
ENDBRANCH  22  23
ENDBRANCH  21  22
BRANCH  21  26
ATOM     26  N   UNL     1      51.381 -72.774 155.406  1.00  0.00    -0.310 N 
ATOM     27  C   UNL     1      51.220 -73.993 156.115  1.00  0.00     0.408 C 
ATOM     28  O   UNL     1      50.139 -74.658 155.983  1.00  0.00    -0.225 OA
ATOM     29  H   UNL     1      52.256 -72.248 155.519  1.00  0.00     0.167 HD
BRANCH  27  30
ATOM     30  O   UNL     1      52.152 -74.523 156.950  1.00  0.00    -0.445 OA
BRANCH  30  31
ATOM     31  C   UNL     1      52.897 -75.691 156.847  1.00  0.00     0.270 C 
BRANCH  31  32
ATOM     32  C   UNL     1      54.315 -75.482 157.228  1.00  0.00    -0.011 A 
ATOM     33  C   UNL     1      54.676 -74.873 158.413  1.00  0.00     0.007 A 
ATOM     34  C   UNL     1      55.350 -75.910 156.412  1.00  0.00     0.007 A 
ATOM     35  C   UNL     1      55.982 -74.686 158.794  1.00  0.00     0.000 A 
ATOM     36  C   UNL     1      56.672 -75.725 156.789  1.00  0.00     0.000 A 
ATOM     37  C   UNL     1      57.008 -75.116 157.975  1.00  0.00     0.000 A 
ENDBRANCH  31  32
ENDBRANCH  30  31
ENDBRANCH  27  30
ENDBRANCH  21  26
ENDBRANCH   2  21
TORSDOF 15
ENDMDL
MODEL 6
REMARK VINA RESULT:      -6.0      0.559      1.279
REMARK SMILES CC(C)C[C@@H](C=O)NC(=O)[C@H](CC(C)C)NC(=O)[C@H](CC(C)C)NC(=O)OCc1ccccc1
REMARK SMILES IDX 16 1 17 2 18 3 11 5 9 6 8 7 10 8 5 10 4 11 2 12 1 13 3 14
REMARK SMILES IDX 6 15 7 16 12 17 13 18 14 19 15 20 19 21 20 22 21 23 22 24
REMARK SMILES IDX 23 25 24 26 25 27 26 28 27 30 28 31 29 32 30 33 34 34 31 35
REMARK SMILES IDX 33 36 32 37
REMARK H PARENT 16 4 8 9 24 29
ROOT
ATOM      1  N   UNL     1      52.473 -71.448 152.413  1.00  0.00    -0.343 N 
ATOM      2  C   UNL     1      51.091 -71.758 152.638  1.00  0.00     0.243 C 
ATOM      3  O   UNL     1      50.361 -71.920 151.611  1.00  0.00    -0.273 OA
ATOM      4  H   UNL     1      53.058 -71.332 153.276  1.00  0.00     0.164 HD
ENDROOT
BRANCH   1   5
ATOM      5  C   UNL     1      53.028 -71.323 151.061  1.00  0.00     0.171 C 
BRANCH   5   6
ATOM      6  C   UNL     1      54.310 -72.158 151.045  1.00  0.00     0.243 C 
ATOM      7  N   UNL     1      55.113 -72.250 149.894  1.00  0.00    -0.345 N 
ATOM      8  O   UNL     1      54.639 -72.765 152.083  1.00  0.00    -0.273 OA
ATOM      9  H   UNL     1      54.808 -71.729 149.045  1.00  0.00     0.164 HD
BRANCH   7  10
ATOM     10  C   UNL     1      56.346 -73.043 149.860  1.00  0.00     0.146 C 
BRANCH  10  11
ATOM     11  C   UNL     1      56.586 -73.478 148.434  1.00  0.00     0.035 C 
BRANCH  11  12
ATOM     12  C   UNL     1      56.657 -74.973 148.269  1.00  0.00    -0.015 C 
ATOM     13  C   UNL     1      58.082 -75.436 148.040  1.00  0.00     0.007 C 
ATOM     14  C   UNL     1      55.841 -75.384 147.064  1.00  0.00     0.007 C 
ENDBRANCH  11  12
ENDBRANCH  10  11
BRANCH  10  15
ATOM     15  C   UNL     1      57.431 -72.223 150.434  1.00  0.00     0.248 C 
ATOM     16  O   UNL     1      58.076 -72.565 151.408  1.00  0.00    -0.301 OA
ENDBRANCH  10  15
ENDBRANCH   7  10
ENDBRANCH   5   6
BRANCH   5  17
ATOM     17  C   UNL     1      53.340 -69.933 150.644  1.00  0.00     0.038 C 
BRANCH  17  18
ATOM     18  C   UNL     1      52.270 -69.236 149.872  1.00  0.00    -0.015 C 
ATOM     19  C   UNL     1      51.829 -70.109 148.681  1.00  0.00     0.007 C 
ATOM     20  C   UNL     1      52.648 -67.904 149.331  1.00  0.00     0.007 C 
ENDBRANCH  17  18
ENDBRANCH   5  17
ENDBRANCH   1   5
BRANCH   2  21
ATOM     21  C   UNL     1      50.524 -71.885 154.015  1.00  0.00     0.175 C 
BRANCH  21  22
ATOM     22  C   UNL     1      51.493 -71.384 155.047  1.00  0.00     0.038 C 
BRANCH  22  23
ATOM     23  C   UNL     1      50.896 -70.471 156.060  1.00  0.00    -0.015 C 
ATOM     24  C   UNL     1      51.764 -69.304 156.427  1.00  0.00     0.007 C 
ATOM     25  C   UNL     1      49.467 -70.052 155.737  1.00  0.00     0.007 C 
ENDBRANCH  22  23
ENDBRANCH  21  22
BRANCH  21  26
ATOM     26  N   UNL     1      50.116 -73.233 154.195  1.00  0.00    -0.310 N 
ATOM     27  C   UNL     1      48.737 -73.552 154.307  1.00  0.00     0.408 C 
ATOM     28  O   UNL     1      47.869 -72.619 154.241  1.00  0.00    -0.225 OA
ATOM     29  H   UNL     1      50.805 -73.993 154.248  1.00  0.00     0.167 HD
BRANCH  27  30
ATOM     30  O   UNL     1      48.253 -74.810 154.483  1.00  0.00    -0.445 OA
BRANCH  30  31
ATOM     31  C   UNL     1      48.527 -75.987 153.798  1.00  0.00     0.270 C 
BRANCH  31  32
ATOM     32  C   UNL     1      49.387 -76.903 154.587  1.00  0.00    -0.011 A 
ATOM     33  C   UNL     1      49.337 -78.274 154.435  1.00  0.00     0.007 A 
ATOM     34  C   UNL     1      50.301 -76.415 155.508  1.00  0.00     0.007 A 
ATOM     35  C   UNL     1      50.136 -79.138 155.142  1.00  0.00     0.000 A 
ATOM     36  C   UNL     1      51.112 -77.281 156.226  1.00  0.00     0.000 A 
ATOM     37  C   UNL     1      51.045 -78.644 156.058  1.00  0.00     0.000 A 
ENDBRANCH  31  32
ENDBRANCH  30  31
ENDBRANCH  27  30
ENDBRANCH  21  26
ENDBRANCH   2  21
TORSDOF 15
ENDMDL
MODEL 7
REMARK VINA RESULT:      -6.0      2.509      3.091
REMARK SMILES CC(C)C[C@@H](C=O)NC(=O)[C@H](CC(C)C)NC(=O)[C@H](CC(C)C)NC(=O)OCc1ccccc1
REMARK SMILES IDX 16 1 17 2 18 3 11 5 9 6 8 7 10 8 5 10 4 11 2 12 1 13 3 14
REMARK SMILES IDX 6 15 7 16 12 17 13 18 14 19 15 20 19 21 20 22 21 23 22 24
REMARK SMILES IDX 23 25 24 26 25 27 26 28 27 30 28 31 29 32 30 33 34 34 31 35
REMARK SMILES IDX 33 36 32 37
REMARK H PARENT 16 4 8 9 24 29
ROOT
ATOM      1  N   UNL     1      52.532 -71.229 152.924  1.00  0.00    -0.343 N 
ATOM      2  C   UNL     1      51.298 -71.826 153.346  1.00  0.00     0.243 C 
ATOM      3  O   UNL     1      50.527 -72.262 152.435  1.00  0.00    -0.273 OA
ATOM      4  H   UNL     1      53.157 -70.889 153.694  1.00  0.00     0.164 HD
ENDROOT
BRANCH   1   5
ATOM      5  C   UNL     1      52.896 -71.122 151.507  1.00  0.00     0.171 C 
BRANCH   5   6
ATOM      6  C   UNL     1      54.106 -72.036 151.306  1.00  0.00     0.243 C 
ATOM      7  N   UNL     1      54.869 -71.996 150.125  1.00  0.00    -0.345 N 
ATOM      8  O   UNL     1      54.411 -72.831 152.217  1.00  0.00    -0.273 OA
ATOM      9  H   UNL     1      54.586 -71.320 149.385  1.00  0.00     0.164 HD
BRANCH   7  10
ATOM     10  C   UNL     1      56.033 -72.863 149.914  1.00  0.00     0.146 C 
BRANCH  10  11
ATOM     11  C   UNL     1      56.144 -73.149 148.436  1.00  0.00     0.035 C 
BRANCH  11  12
ATOM     12  C   UNL     1      55.888 -74.591 148.086  1.00  0.00    -0.015 C 
ATOM     13  C   UNL     1      55.203 -75.323 149.222  1.00  0.00     0.007 C 
ATOM     14  C   UNL     1      57.206 -75.284 147.823  1.00  0.00     0.007 C 
ENDBRANCH  11  12
ENDBRANCH  10  11
BRANCH  10  15
ATOM     15  C   UNL     1      57.213 -72.190 150.492  1.00  0.00     0.248 C 
ATOM     16  O   UNL     1      57.802 -72.608 151.472  1.00  0.00    -0.301 OA
ENDBRANCH  10  15
ENDBRANCH   7  10
ENDBRANCH   5   6
BRANCH   5  17
ATOM     17  C   UNL     1      53.235 -69.750 151.054  1.00  0.00     0.038 C 
BRANCH  17  18
ATOM     18  C   UNL     1      52.877 -69.430 149.642  1.00  0.00    -0.015 C 
ATOM     19  C   UNL     1      52.398 -67.969 149.540  1.00  0.00     0.007 C 
ATOM     20  C   UNL     1      51.817 -70.288 149.049  1.00  0.00     0.007 C 
ENDBRANCH  17  18
ENDBRANCH   5  17
ENDBRANCH   1   5
BRANCH   2  21
ATOM     21  C   UNL     1      50.925 -71.935 154.788  1.00  0.00     0.175 C 
BRANCH  21  22
ATOM     22  C   UNL     1      51.009 -70.600 155.471  1.00  0.00     0.038 C 
BRANCH  22  23
ATOM     23  C   UNL     1      50.091 -70.442 156.632  1.00  0.00    -0.015 C 
ATOM     24  C   UNL     1      50.781 -70.133 157.927  1.00  0.00     0.007 C 
ATOM     25  C   UNL     1      48.920 -69.507 156.361  1.00  0.00     0.007 C 
ENDBRANCH  22  23
ENDBRANCH  21  22
BRANCH  21  26
ATOM     26  N   UNL     1      51.733 -72.946 155.372  1.00  0.00    -0.310 N 
ATOM     27  C   UNL     1      51.131 -74.087 155.964  1.00  0.00     0.408 C 
ATOM     28  O   UNL     1      49.859 -74.197 155.965  1.00  0.00    -0.225 OA
ATOM     29  H   UNL     1      52.757 -72.870 155.375  1.00  0.00     0.167 HD
BRANCH  27  30
ATOM     30  O   UNL     1      51.821 -75.102 156.547  1.00  0.00    -0.445 OA
BRANCH  30  31
ATOM     31  C   UNL     1      52.438 -75.178 157.789  1.00  0.00     0.270 C 
BRANCH  31  32
ATOM     32  C   UNL     1      53.916 -75.244 157.673  1.00  0.00    -0.011 A 
ATOM     33  C   UNL     1      54.754 -74.736 158.645  1.00  0.00     0.007 A 
ATOM     34  C   UNL     1      54.525 -75.840 156.581  1.00  0.00     0.007 A 
ATOM     35  C   UNL     1      56.123 -74.802 158.566  1.00  0.00     0.000 A 
ATOM     36  C   UNL     1      55.907 -75.911 156.493  1.00  0.00     0.000 A 
ATOM     37  C   UNL     1      56.723 -75.399 157.474  1.00  0.00     0.000 A 
ENDBRANCH  31  32
ENDBRANCH  30  31
ENDBRANCH  27  30
ENDBRANCH  21  26
ENDBRANCH   2  21
TORSDOF 15
ENDMDL
MODEL 8
REMARK VINA RESULT:      -6.0      1.500      1.988
REMARK SMILES CC(C)C[C@@H](C=O)NC(=O)[C@H](CC(C)C)NC(=O)[C@H](CC(C)C)NC(=O)OCc1ccccc1
REMARK SMILES IDX 16 1 17 2 18 3 11 5 9 6 8 7 10 8 5 10 4 11 2 12 1 13 3 14
REMARK SMILES IDX 6 15 7 16 12 17 13 18 14 19 15 20 19 21 20 22 21 23 22 24
REMARK SMILES IDX 23 25 24 26 25 27 26 28 27 30 28 31 29 32 30 33 34 34 31 35
REMARK SMILES IDX 33 36 32 37
REMARK H PARENT 16 4 8 9 24 29
ROOT
ATOM      1  N   UNL     1      52.668 -71.258 152.794  1.00  0.00    -0.343 N 
ATOM      2  C   UNL     1      51.371 -71.693 153.225  1.00  0.00     0.243 C 
ATOM      3  O   UNL     1      50.553 -72.050 152.321  1.00  0.00    -0.273 OA
ATOM      4  H   UNL     1      53.330 -70.981 153.559  1.00  0.00     0.164 HD
ENDROOT
BRANCH   1   5
ATOM      5  C   UNL     1      53.042 -71.224 151.377  1.00  0.00     0.171 C 
BRANCH   5   6
ATOM      6  C   UNL     1      54.272 -72.123 151.237  1.00  0.00     0.243 C 
ATOM      7  N   UNL     1      55.185 -71.961 150.179  1.00  0.00    -0.345 N 
ATOM      8  O   UNL     1      54.458 -73.017 152.086  1.00  0.00    -0.273 OA
ATOM      9  H   UNL     1      54.999 -71.204 149.487  1.00  0.00     0.164 HD
BRANCH   7  10
ATOM     10  C   UNL     1      56.370 -72.811 150.028  1.00  0.00     0.146 C 
BRANCH  10  11
ATOM     11  C   UNL     1      56.495 -73.190 148.572  1.00  0.00     0.035 C 
BRANCH  11  12
ATOM     12  C   UNL     1      56.420 -74.674 148.332  1.00  0.00    -0.015 C 
ATOM     13  C   UNL     1      55.434 -75.337 149.272  1.00  0.00     0.007 C 
ATOM     14  C   UNL     1      57.778 -75.292 148.582  1.00  0.00     0.007 C 
ENDBRANCH  11  12
ENDBRANCH  10  11
BRANCH  10  15
ATOM     15  C   UNL     1      57.531 -72.075 150.566  1.00  0.00     0.248 C 
ATOM     16  O   UNL     1      58.615 -72.593 150.756  1.00  0.00    -0.301 OA
ENDBRANCH  10  15
ENDBRANCH   7  10
ENDBRANCH   5   6
BRANCH   5  17
ATOM     17  C   UNL     1      53.358 -69.873 150.850  1.00  0.00     0.038 C 
BRANCH  17  18
ATOM     18  C   UNL     1      52.831 -69.574 149.486  1.00  0.00    -0.015 C 
ATOM     19  C   UNL     1      52.341 -68.114 149.422  1.00  0.00     0.007 C 
ATOM     20  C   UNL     1      51.709 -70.440 149.039  1.00  0.00     0.007 C 
ENDBRANCH  17  18
ENDBRANCH   5  17
ENDBRANCH   1   5
BRANCH   2  21
ATOM     21  C   UNL     1      50.988 -71.727 154.669  1.00  0.00     0.175 C 
BRANCH  21  22
ATOM     22  C   UNL     1      51.347 -70.440 155.354  1.00  0.00     0.038 C 
BRANCH  22  23
ATOM     23  C   UNL     1      50.275 -69.887 156.226  1.00  0.00    -0.015 C 
ATOM     24  C   UNL     1      50.072 -70.638 157.509  1.00  0.00     0.007 C 
ATOM     25  C   UNL     1      50.383 -68.384 156.445  1.00  0.00     0.007 C 
ENDBRANCH  22  23
ENDBRANCH  21  22
BRANCH  21  26
ATOM     26  N   UNL     1      51.572 -72.885 155.247  1.00  0.00    -0.310 N 
ATOM     27  C   UNL     1      50.747 -73.912 155.776  1.00  0.00     0.408 C 
ATOM     28  O   UNL     1      49.478 -73.787 155.725  1.00  0.00    -0.225 OA
ATOM     29  H   UNL     1      52.592 -72.998 155.291  1.00  0.00     0.167 HD
BRANCH  27  30
ATOM     30  O   UNL     1      51.215 -75.052 156.349  1.00  0.00    -0.445 OA
BRANCH  30  31
ATOM     31  C   UNL     1      51.173 -75.482 157.669  1.00  0.00     0.270 C 
BRANCH  31  32
ATOM     32  C   UNL     1      50.850 -76.926 157.774  1.00  0.00    -0.011 A 
ATOM     33  C   UNL     1      50.556 -77.697 156.667  1.00  0.00     0.007 A 
ATOM     34  C   UNL     1      50.846 -77.576 158.999  1.00  0.00     0.007 A 
ATOM     35  C   UNL     1      50.272 -79.038 156.740  1.00  0.00     0.000 A 
ATOM     36  C   UNL     1      50.560 -78.930 159.081  1.00  0.00     0.000 A 
ATOM     37  C   UNL     1      50.271 -79.678 157.965  1.00  0.00     0.000 A 
ENDBRANCH  31  32
ENDBRANCH  30  31
ENDBRANCH  27  30
ENDBRANCH  21  26
ENDBRANCH   2  21
TORSDOF 15
ENDMDL
MODEL 9
REMARK VINA RESULT:      -5.8      2.082      3.520
REMARK SMILES CC(C)C[C@@H](C=O)NC(=O)[C@H](CC(C)C)NC(=O)[C@H](CC(C)C)NC(=O)OCc1ccccc1
REMARK SMILES IDX 16 1 17 2 18 3 11 5 9 6 8 7 10 8 5 10 4 11 2 12 1 13 3 14
REMARK SMILES IDX 6 15 7 16 12 17 13 18 14 19 15 20 19 21 20 22 21 23 22 24
REMARK SMILES IDX 23 25 24 26 25 27 26 28 27 30 28 31 29 32 30 33 34 34 31 35
REMARK SMILES IDX 33 36 32 37
REMARK H PARENT 16 4 8 9 24 29
ROOT
ATOM      1  N   UNL     1      53.060 -70.627 152.523  1.00  0.00    -0.343 N 
ATOM      2  C   UNL     1      51.946 -71.369 153.040  1.00  0.00     0.243 C 
ATOM      3  O   UNL     1      51.739 -72.520 152.543  1.00  0.00    -0.273 OA
ATOM      4  H   UNL     1      53.219 -69.686 152.958  1.00  0.00     0.164 HD
ENDROOT
BRANCH   1   5
ATOM      5  C   UNL     1      53.927 -71.166 151.470  1.00  0.00     0.171 C 
BRANCH   5   6
ATOM      6  C   UNL     1      53.042 -71.340 150.234  1.00  0.00     0.243 C 
ATOM      7  N   UNL     1      52.542 -72.600 149.859  1.00  0.00    -0.345 N 
ATOM      8  O   UNL     1      52.767 -70.333 149.551  1.00  0.00    -0.273 OA
ATOM      9  H   UNL     1      52.792 -73.419 150.453  1.00  0.00     0.164 HD
BRANCH   7  10
ATOM     10  C   UNL     1      51.692 -72.786 148.679  1.00  0.00     0.146 C 
BRANCH  10  11
ATOM     11  C   UNL     1      52.213 -73.974 147.907  1.00  0.00     0.035 C 
BRANCH  11  12
ATOM     12  C   UNL     1      53.367 -74.666 148.583  1.00  0.00    -0.015 C 
ATOM     13  C   UNL     1      54.654 -74.484 147.803  1.00  0.00     0.007 C 
ATOM     14  C   UNL     1      53.085 -76.150 148.662  1.00  0.00     0.007 C 
ENDBRANCH  11  12
ENDBRANCH  10  11
BRANCH  10  15
ATOM     15  C   UNL     1      50.297 -72.928 149.140  1.00  0.00     0.248 C 
ATOM     16  O   UNL     1      49.761 -72.131 149.888  1.00  0.00    -0.301 OA
ENDBRANCH  10  15
ENDBRANCH   7  10
ENDBRANCH   5   6
BRANCH   5  17
ATOM     17  C   UNL     1      54.573 -72.462 151.799  1.00  0.00     0.038 C 
BRANCH  17  18
ATOM     18  C   UNL     1      55.704 -72.861 150.913  1.00  0.00    -0.015 C 
ATOM     19  C   UNL     1      56.127 -74.311 151.223  1.00  0.00     0.007 C 
ATOM     20  C   UNL     1      56.920 -72.012 151.019  1.00  0.00     0.007 C 
ENDBRANCH  17  18
ENDBRANCH   5  17
ENDBRANCH   1   5
BRANCH   2  21
ATOM     21  C   UNL     1      51.061 -70.822 154.112  1.00  0.00     0.175 C 
BRANCH  21  22
ATOM     22  C   UNL     1      51.829 -69.929 155.043  1.00  0.00     0.038 C 
BRANCH  22  23
ATOM     23  C   UNL     1      51.140 -69.644 156.331  1.00  0.00    -0.015 C 
ATOM     24  C   UNL     1      52.039 -69.115 157.410  1.00  0.00     0.007 C 
ATOM     25  C   UNL     1      49.873 -68.814 156.175  1.00  0.00     0.007 C 
ENDBRANCH  22  23
ENDBRANCH  21  22
BRANCH  21  26
ATOM     26  N   UNL     1      50.416 -71.916 154.744  1.00  0.00    -0.310 N 
ATOM     27  C   UNL     1      49.010 -72.081 154.626  1.00  0.00     0.408 C 
ATOM     28  O   UNL     1      48.335 -71.239 153.945  1.00  0.00    -0.225 OA
ATOM     29  H   UNL     1      50.949 -72.601 155.293  1.00  0.00     0.167 HD
BRANCH  27  30
ATOM     30  O   UNL     1      48.306 -73.094 155.197  1.00  0.00    -0.445 OA
BRANCH  30  31
ATOM     31  C   UNL     1      48.465 -73.725 156.424  1.00  0.00     0.270 C 
BRANCH  31  32
ATOM     32  C   UNL     1      49.500 -74.787 156.374  1.00  0.00    -0.011 A 
ATOM     33  C   UNL     1      50.662 -74.717 157.115  1.00  0.00     0.007 A 
ATOM     34  C   UNL     1      49.335 -75.915 155.586  1.00  0.00     0.007 A 
ATOM     35  C   UNL     1      51.624 -75.697 157.098  1.00  0.00     0.000 A 
ATOM     36  C   UNL     1      50.302 -76.909 155.562  1.00  0.00     0.000 A 
ATOM     37  C   UNL     1      51.452 -76.819 156.310  1.00  0.00     0.000 A 
ENDBRANCH  31  32
ENDBRANCH  30  31
ENDBRANCH  27  30
ENDBRANCH  21  26
ENDBRANCH   2  21
TORSDOF 15
ENDMDL
