MODEL 1
REMARK VINA RESULT:      -7.3      0.000      0.000
REMARK SMILES O=c1cc(-c2ccccc2)oc2cc([O-])c(O)c([O-])c12
REMARK SMILES IDX 1 1 2 2 3 3 4 4 11 5 12 6 13 7 14 8 15 9 16 10 18 11 19 12
REMARK SMILES IDX 20 13 5 14 6 15 10 16 7 17 9 18 8 19 17 20
REMARK H PARENT 17 21
ROOT
ATOM      1  O   UNL     1      -2.047  19.930   4.429  1.00  0.00    -0.289 OA
ATOM      2  C   UNL     1      -2.079  21.176   4.574  1.00  0.00     0.192 A 
ATOM      3  C   UNL     1      -2.224  22.049   3.491  1.00  0.00     0.100 A 
ATOM      4  C   UNL     1      -2.261  23.410   3.630  1.00  0.00     0.138 A 
ATOM      5  O   UNL     1      -2.150  23.869   4.861  1.00  0.00    -0.456 OA
ATOM      6  C   UNL     1      -2.012  23.109   5.917  1.00  0.00     0.137 A 
ATOM      7  C   UNL     1      -1.900  23.662   7.198  1.00  0.00     0.043 A 
ATOM      8  C   UNL     1      -1.756  22.856   8.291  1.00  0.00    -0.063 A 
ATOM      9  O   UNL     1      -1.649  23.464   9.539  1.00  0.00    -0.870 OA
ATOM     10  C   UNL     1      -1.714  21.481   8.196  1.00  0.00     0.100 A 
ATOM     11  C   UNL     1      -1.822  20.924   6.955  1.00  0.00    -0.051 A 
ATOM     12  O   UNL     1      -1.782  19.550   6.844  1.00  0.00    -0.869 OA
ATOM     13  C   UNL     1      -1.970  21.734   5.827  1.00  0.00     0.060 A 
ENDROOT
BRANCH   4  14
ATOM     14  C   UNL     1      -2.412  24.295   2.490  1.00  0.00     0.017 A 
ATOM     15  C   UNL     1      -1.925  24.046   1.238  1.00  0.00     0.012 A 
ATOM     16  C   UNL     1      -3.105  25.497   2.666  1.00  0.00     0.012 A 
ATOM     17  C   UNL     1      -2.112  24.952   0.184  1.00  0.00     0.001 A 
ATOM     18  C   UNL     1      -3.293  26.391   1.634  1.00  0.00     0.001 A 
ATOM     19  C   UNL     1      -2.797  26.130   0.376  1.00  0.00     0.000 A 
ENDBRANCH   4  14
BRANCH  10  20
ATOM     20  O   UNL     1      -1.565  20.702   9.349  1.00  0.00    -0.509 OA
ATOM     21  H   UNL     1      -1.650  19.687   9.265  1.00  0.00     0.293 HD
ENDBRANCH  10  20
TORSDOF 2
ENDMDL
MODEL 2
REMARK VINA RESULT:      -7.3      0.137      1.059
REMARK SMILES O=c1cc(-c2ccccc2)oc2cc([O-])c(O)c([O-])c12
REMARK SMILES IDX 1 1 2 2 3 3 4 4 11 5 12 6 13 7 14 8 15 9 16 10 18 11 19 12
REMARK SMILES IDX 20 13 5 14 6 15 10 16 7 17 9 18 8 19 17 20
REMARK H PARENT 17 21
ROOT
ATOM      1  O   UNL     1      -2.168  19.933   4.488  1.00  0.00    -0.289 OA
ATOM      2  C   UNL     1      -2.160  21.178   4.650  1.00  0.00     0.192 A 
ATOM      3  C   UNL     1      -2.319  22.069   3.585  1.00  0.00     0.100 A 
ATOM      4  C   UNL     1      -2.312  23.429   3.742  1.00  0.00     0.138 A 
ATOM      5  O   UNL     1      -2.145  23.868   4.974  1.00  0.00    -0.456 OA
ATOM      6  C   UNL     1      -1.991  23.089   6.014  1.00  0.00     0.137 A 
ATOM      7  C   UNL     1      -1.818  23.621   7.298  1.00  0.00     0.043 A 
ATOM      8  C   UNL     1      -1.658  22.797   8.375  1.00  0.00    -0.063 A 
ATOM      9  O   UNL     1      -1.490  23.384   9.626  1.00  0.00    -0.870 OA
ATOM     10  C   UNL     1      -1.659  21.422   8.261  1.00  0.00     0.100 A 
ATOM     11  C   UNL     1      -1.826  20.886   7.017  1.00  0.00    -0.051 A 
ATOM     12  O   UNL     1      -1.829  19.512   6.887  1.00  0.00    -0.869 OA
ATOM     13  C   UNL     1      -1.991  21.715   5.906  1.00  0.00     0.060 A 
ENDROOT
BRANCH   4  14
ATOM     14  C   UNL     1      -2.478  24.333   2.620  1.00  0.00     0.017 A 
ATOM     15  C   UNL     1      -3.203  25.492   2.652  1.00  0.00     0.012 A 
ATOM     16  C   UNL     1      -1.859  24.015   1.408  1.00  0.00     0.012 A 
ATOM     17  C   UNL     1      -3.319  26.317   1.524  1.00  0.00     0.001 A 
ATOM     18  C   UNL     1      -1.968  24.822   0.295  1.00  0.00     0.001 A 
ATOM     19  C   UNL     1      -2.701  25.986   0.339  1.00  0.00     0.000 A 
ENDBRANCH   4  14
BRANCH  10  20
ATOM     20  O   UNL     1      -1.491  20.623   9.398  1.00  0.00    -0.509 OA
ATOM     21  H   UNL     1      -1.837  19.662   9.373  1.00  0.00     0.293 HD
ENDBRANCH  10  20
TORSDOF 2
ENDMDL
MODEL 3
REMARK VINA RESULT:      -6.9      1.280      1.357
REMARK SMILES O=c1cc(-c2ccccc2)oc2cc([O-])c(O)c([O-])c12
REMARK SMILES IDX 1 1 2 2 3 3 4 4 11 5 12 6 13 7 14 8 15 9 16 10 18 11 19 12
REMARK SMILES IDX 20 13 5 14 6 15 10 16 7 17 9 18 8 19 17 20
REMARK H PARENT 17 21
ROOT
ATOM      1  O   UNL     1       0.143  19.779   3.863  1.00  0.00    -0.289 OA
ATOM      2  C   UNL     1      -0.491  20.808   4.203  1.00  0.00     0.192 A 
ATOM      3  C   UNL     1      -0.946  21.745   3.270  1.00  0.00     0.100 A 
ATOM      4  C   UNL     1      -1.638  22.872   3.622  1.00  0.00     0.138 A 
ATOM      5  O   UNL     1      -1.860  23.035   4.912  1.00  0.00    -0.456 OA
ATOM      6  C   UNL     1      -1.462  22.199   5.835  1.00  0.00     0.137 A 
ATOM      7  C   UNL     1      -1.731  22.433   7.188  1.00  0.00     0.043 A 
ATOM      8  C   UNL     1      -1.309  21.551   8.142  1.00  0.00    -0.063 A 
ATOM      9  O   UNL     1      -1.607  21.837   9.472  1.00  0.00    -0.870 OA
ATOM     10  C   UNL     1      -0.610  20.404   7.832  1.00  0.00     0.100 A 
ATOM     11  C   UNL     1      -0.339  20.159   6.516  1.00  0.00    -0.051 A 
ATOM     12  O   UNL     1       0.361  19.016   6.190  1.00  0.00    -0.869 OA
ATOM     13  C   UNL     1      -0.762  21.051   5.530  1.00  0.00     0.060 A 
ENDROOT
BRANCH   4  14
ATOM     14  C   UNL     1      -2.101  23.830   2.635  1.00  0.00     0.017 A 
ATOM     15  C   UNL     1      -1.844  23.755   1.294  1.00  0.00     0.012 A 
ATOM     16  C   UNL     1      -2.868  24.916   3.067  1.00  0.00     0.012 A 
ATOM     17  C   UNL     1      -2.326  24.721   0.400  1.00  0.00     0.001 A 
ATOM     18  C   UNL     1      -3.345  25.869   2.193  1.00  0.00     0.001 A 
ATOM     19  C   UNL     1      -3.080  25.784   0.845  1.00  0.00     0.000 A 
ENDBRANCH   4  14
BRANCH  10  20
ATOM     20  O   UNL     1      -0.201  19.533   8.849  1.00  0.00    -0.509 OA
ATOM     21  H   UNL     1      -0.808  19.416   9.662  1.00  0.00     0.293 HD
ENDBRANCH  10  20
TORSDOF 2
ENDMDL
MODEL 4
REMARK VINA RESULT:      -6.9      1.279      1.727
REMARK SMILES O=c1cc(-c2ccccc2)oc2cc([O-])c(O)c([O-])c12
REMARK SMILES IDX 1 1 2 2 3 3 4 4 11 5 12 6 13 7 14 8 15 9 16 10 18 11 19 12
REMARK SMILES IDX 20 13 5 14 6 15 10 16 7 17 9 18 8 19 17 20
REMARK H PARENT 17 21
ROOT
ATOM      1  O   UNL     1       0.113  19.819   3.866  1.00  0.00    -0.289 OA
ATOM      2  C   UNL     1      -0.518  20.837   4.241  1.00  0.00     0.192 A 
ATOM      3  C   UNL     1      -0.996  21.793   3.338  1.00  0.00     0.100 A 
ATOM      4  C   UNL     1      -1.685  22.909   3.729  1.00  0.00     0.138 A 
ATOM      5  O   UNL     1      -1.883  23.042   5.026  1.00  0.00    -0.456 OA
ATOM      6  C   UNL     1      -1.463  22.187   5.922  1.00  0.00     0.137 A 
ATOM      7  C   UNL     1      -1.708  22.389   7.286  1.00  0.00     0.043 A 
ATOM      8  C   UNL     1      -1.264  21.488   8.211  1.00  0.00    -0.063 A 
ATOM      9  O   UNL     1      -1.537  21.743   9.552  1.00  0.00    -0.870 OA
ATOM     10  C   UNL     1      -0.566  20.351   7.861  1.00  0.00     0.100 A 
ATOM     11  C   UNL     1      -0.319  20.138   6.536  1.00  0.00    -0.051 A 
ATOM     12  O   UNL     1       0.379  19.005   6.171  1.00  0.00    -0.869 OA
ATOM     13  C   UNL     1      -0.765  21.049   5.578  1.00  0.00     0.060 A 
ENDROOT
BRANCH   4  14
ATOM     14  C   UNL     1      -2.170  23.886   2.773  1.00  0.00     0.017 A 
ATOM     15  C   UNL     1      -2.929  24.979   3.090  1.00  0.00     0.012 A 
ATOM     16  C   UNL     1      -1.849  23.717   1.423  1.00  0.00     0.012 A 
ATOM     17  C   UNL     1      -3.361  25.881   2.108  1.00  0.00     0.001 A 
ATOM     18  C   UNL     1      -2.270  24.601   0.453  1.00  0.00     0.001 A 
ATOM     19  C   UNL     1      -3.034  25.698   0.784  1.00  0.00     0.000 A 
ENDBRANCH   4  14
BRANCH  10  20
ATOM     20  O   UNL     1      -0.134  19.460   8.850  1.00  0.00    -0.509 OA
ATOM     21  H   UNL     1      -0.316  19.692   9.829  1.00  0.00     0.293 HD
ENDBRANCH  10  20
TORSDOF 2
ENDMDL
MODEL 5
REMARK VINA RESULT:      -6.6      3.693      4.382
REMARK SMILES O=c1cc(-c2ccccc2)oc2cc([O-])c(O)c([O-])c12
REMARK SMILES IDX 1 1 2 2 3 3 4 4 11 5 12 6 13 7 14 8 15 9 16 10 18 11 19 12
REMARK SMILES IDX 20 13 5 14 6 15 10 16 7 17 9 18 8 19 17 20
REMARK H PARENT 17 21
ROOT
ATOM      1  O   UNL     1      -2.355  22.387   2.302  1.00  0.00    -0.289 OA
ATOM      2  C   UNL     1      -1.315  22.539   2.988  1.00  0.00     0.192 A 
ATOM      3  C   UNL     1      -0.063  22.756   2.405  1.00  0.00     0.100 A 
ATOM      4  C   UNL     1       1.082  22.923   3.136  1.00  0.00     0.138 A 
ATOM      5  O   UNL     1       0.944  22.867   4.447  1.00  0.00    -0.456 OA
ATOM      6  C   UNL     1      -0.196  22.666   5.055  1.00  0.00     0.137 A 
ATOM      7  C   UNL     1      -0.273  22.618   6.452  1.00  0.00     0.043 A 
ATOM      8  C   UNL     1      -1.470  22.408   7.074  1.00  0.00    -0.063 A 
ATOM      9  O   UNL     1      -1.483  22.370   8.466  1.00  0.00    -0.870 OA
ATOM     10  C   UNL     1      -2.647  22.235   6.376  1.00  0.00     0.100 A 
ATOM     11  C   UNL     1      -2.591  22.280   5.013  1.00  0.00    -0.051 A 
ATOM     12  O   UNL     1      -3.760  22.109   4.301  1.00  0.00    -0.869 OA
ATOM     13  C   UNL     1      -1.375  22.493   4.362  1.00  0.00     0.060 A 
ENDROOT
BRANCH   4  14
ATOM     14  C   UNL     1       2.370  23.147   2.508  1.00  0.00     0.017 A 
ATOM     15  C   UNL     1       3.166  24.237   2.726  1.00  0.00     0.012 A 
ATOM     16  C   UNL     1       2.851  22.190   1.610  1.00  0.00     0.012 A 
ATOM     17  C   UNL     1       4.402  24.385   2.080  1.00  0.00     0.001 A 
ATOM     18  C   UNL     1       4.065  22.329   0.972  1.00  0.00     0.001 A 
ATOM     19  C   UNL     1       4.858  23.431   1.199  1.00  0.00     0.000 A 
ENDBRANCH   4  14
BRANCH  10  20
ATOM     20  O   UNL     1      -3.847  22.023   7.064  1.00  0.00    -0.509 OA
ATOM     21  H   UNL     1      -4.691  22.490   6.726  1.00  0.00     0.293 HD
ENDBRANCH  10  20
TORSDOF 2
ENDMDL
MODEL 6
REMARK VINA RESULT:      -6.6      3.719      4.302
REMARK SMILES O=c1cc(-c2ccccc2)oc2cc([O-])c(O)c([O-])c12
REMARK SMILES IDX 1 1 2 2 3 3 4 4 11 5 12 6 13 7 14 8 15 9 16 10 18 11 19 12
REMARK SMILES IDX 20 13 5 14 6 15 10 16 7 17 9 18 8 19 17 20
REMARK H PARENT 17 21
ROOT
ATOM      1  O   UNL     1      -0.565  19.757   3.780  1.00  0.00    -0.289 OA
ATOM      2  C   UNL     1      -0.132  20.928   3.912  1.00  0.00     0.192 A 
ATOM      3  C   UNL     1       0.980  21.395   3.203  1.00  0.00     0.100 A 
ATOM      4  C   UNL     1       1.467  22.667   3.334  1.00  0.00     0.138 A 
ATOM      5  O   UNL     1       0.823  23.449   4.179  1.00  0.00    -0.456 OA
ATOM      6  C   UNL     1      -0.221  23.075   4.872  1.00  0.00     0.137 A 
ATOM      7  C   UNL     1      -0.859  23.957   5.752  1.00  0.00     0.043 A 
ATOM      8  C   UNL     1      -1.949  23.554   6.470  1.00  0.00    -0.063 A 
ATOM      9  O   UNL     1      -2.540  24.476   7.330  1.00  0.00    -0.870 OA
ATOM     10  C   UNL     1      -2.472  22.282   6.368  1.00  0.00     0.100 A 
ATOM     11  C   UNL     1      -1.863  21.409   5.514  1.00  0.00    -0.051 A 
ATOM     12  O   UNL     1      -2.375  20.133   5.402  1.00  0.00    -0.869 OA
ATOM     13  C   UNL     1      -0.748  21.805   4.774  1.00  0.00     0.060 A 
ENDROOT
BRANCH   4  14
ATOM     14  C   UNL     1       2.623  23.128   2.588  1.00  0.00     0.017 A 
ATOM     15  C   UNL     1       3.247  24.329   2.779  1.00  0.00     0.012 A 
ATOM     16  C   UNL     1       3.153  22.297   1.597  1.00  0.00     0.012 A 
ATOM     17  C   UNL     1       4.362  24.706   2.017  1.00  0.00     0.001 A 
ATOM     18  C   UNL     1       4.249  22.661   0.844  1.00  0.00     0.001 A 
ATOM     19  C   UNL     1       4.869  23.874   1.045  1.00  0.00     0.000 A 
ENDBRANCH   4  14
BRANCH  10  20
ATOM     20  O   UNL     1      -3.592  21.921   7.126  1.00  0.00    -0.509 OA
ATOM     21  H   UNL     1      -4.518  22.183   6.783  1.00  0.00     0.293 HD
ENDBRANCH  10  20
TORSDOF 2
ENDMDL
MODEL 7
REMARK VINA RESULT:      -6.5      3.698      4.341
REMARK SMILES O=c1cc(-c2ccccc2)oc2cc([O-])c(O)c([O-])c12
REMARK SMILES IDX 1 1 2 2 3 3 4 4 11 5 12 6 13 7 14 8 15 9 16 10 18 11 19 12
REMARK SMILES IDX 20 13 5 14 6 15 10 16 7 17 9 18 8 19 17 20
REMARK H PARENT 17 21
ROOT
ATOM      1  O   UNL     1      -2.405  22.747   2.307  1.00  0.00    -0.289 OA
ATOM      2  C   UNL     1      -1.338  22.723   2.969  1.00  0.00     0.192 A 
ATOM      3  C   UNL     1      -0.085  22.888   2.370  1.00  0.00     0.100 A 
ATOM      4  C   UNL     1       1.087  22.864   3.075  1.00  0.00     0.138 A 
ATOM      5  O   UNL     1       0.977  22.673   4.375  1.00  0.00    -0.456 OA
ATOM      6  C   UNL     1      -0.163  22.511   4.998  1.00  0.00     0.137 A 
ATOM      7  C   UNL     1      -0.209  22.313   6.382  1.00  0.00     0.043 A 
ATOM      8  C   UNL     1      -1.406  22.145   7.019  1.00  0.00    -0.063 A 
ATOM      9  O   UNL     1      -1.389  21.951   8.398  1.00  0.00    -0.870 OA
ATOM     10  C   UNL     1      -2.610  22.163   6.348  1.00  0.00     0.100 A 
ATOM     11  C   UNL     1      -2.583  22.355   4.997  1.00  0.00    -0.051 A 
ATOM     12  O   UNL     1      -3.781  22.375   4.311  1.00  0.00    -0.869 OA
ATOM     13  C   UNL     1      -1.369  22.528   4.331  1.00  0.00     0.060 A 
ENDROOT
BRANCH   4  14
ATOM     14  C   UNL     1       2.375  23.038   2.431  1.00  0.00     0.017 A 
ATOM     15  C   UNL     1       2.921  22.168   1.529  1.00  0.00     0.012 A 
ATOM     16  C   UNL     1       3.129  24.174   2.741  1.00  0.00     0.012 A 
ATOM     17  C   UNL     1       4.174  22.405   0.946  1.00  0.00     0.001 A 
ATOM     18  C   UNL     1       4.362  24.413   2.172  1.00  0.00     0.001 A 
ATOM     19  C   UNL     1       4.902  23.529   1.265  1.00  0.00     0.000 A 
ENDBRANCH   4  14
BRANCH  10  20
ATOM     20  O   UNL     1      -3.808  21.986   7.050  1.00  0.00    -0.509 OA
ATOM     21  H   UNL     1      -4.029  22.635   7.808  1.00  0.00     0.293 HD
ENDBRANCH  10  20
TORSDOF 2
ENDMDL
MODEL 8
REMARK VINA RESULT:      -6.5      3.728      4.235
REMARK SMILES O=c1cc(-c2ccccc2)oc2cc([O-])c(O)c([O-])c12
REMARK SMILES IDX 1 1 2 2 3 3 4 4 11 5 12 6 13 7 14 8 15 9 16 10 18 11 19 12
REMARK SMILES IDX 20 13 5 14 6 15 10 16 7 17 9 18 8 19 17 20
REMARK H PARENT 17 21
ROOT
ATOM      1  O   UNL     1      -0.504  19.681   3.751  1.00  0.00    -0.289 OA
ATOM      2  C   UNL     1      -0.105  20.866   3.857  1.00  0.00     0.192 A 
ATOM      3  C   UNL     1       1.021  21.338   3.173  1.00  0.00     0.100 A 
ATOM      4  C   UNL     1       1.471  22.626   3.277  1.00  0.00     0.138 A 
ATOM      5  O   UNL     1       0.778  23.419   4.070  1.00  0.00    -0.456 OA
ATOM      6  C   UNL     1      -0.283  23.042   4.738  1.00  0.00     0.137 A 
ATOM      7  C   UNL     1      -0.974  23.937   5.563  1.00  0.00     0.043 A 
ATOM      8  C   UNL     1      -2.080  23.530   6.254  1.00  0.00    -0.063 A 
ATOM      9  O   UNL     1      -2.725  24.464   7.060  1.00  0.00    -0.870 OA
ATOM     10  C   UNL     1      -2.567  22.242   6.179  1.00  0.00     0.100 A 
ATOM     11  C   UNL     1      -1.906  21.357   5.378  1.00  0.00    -0.051 A 
ATOM     12  O   UNL     1      -2.382  20.064   5.292  1.00  0.00    -0.869 OA
ATOM     13  C   UNL     1      -0.774  21.756   4.665  1.00  0.00     0.060 A 
ENDROOT
BRANCH   4  14
ATOM     14  C   UNL     1       2.642  23.091   2.558  1.00  0.00     0.017 A 
ATOM     15  C   UNL     1       3.272  22.400   1.561  1.00  0.00     0.012 A 
ATOM     16  C   UNL     1       3.181  24.337   2.894  1.00  0.00     0.012 A 
ATOM     17  C   UNL     1       4.401  22.916   0.910  1.00  0.00     0.001 A 
ATOM     18  C   UNL     1       4.291  24.850   2.258  1.00  0.00     0.001 A 
ATOM     19  C   UNL     1       4.917  24.145   1.255  1.00  0.00     0.000 A 
ENDBRANCH   4  14
BRANCH  10  20
ATOM     20  O   UNL     1      -3.705  21.878   6.908  1.00  0.00    -0.509 OA
ATOM     21  H   UNL     1      -4.624  22.088   6.514  1.00  0.00     0.293 HD
ENDBRANCH  10  20
TORSDOF 2
ENDMDL
MODEL 9
REMARK VINA RESULT:      -6.5      3.614      4.534
REMARK SMILES O=c1cc(-c2ccccc2)oc2cc([O-])c(O)c([O-])c12
REMARK SMILES IDX 1 1 2 2 3 3 4 4 11 5 12 6 13 7 14 8 15 9 16 10 18 11 19 12
REMARK SMILES IDX 20 13 5 14 6 15 10 16 7 17 9 18 8 19 17 20
REMARK H PARENT 17 21
ROOT
ATOM      1  O   UNL     1      -0.137  19.764   5.003  1.00  0.00    -0.289 OA
ATOM      2  C   UNL     1      -0.057  20.872   4.418  1.00  0.00     0.192 A 
ATOM      3  C   UNL     1       1.088  21.265   3.718  1.00  0.00     0.100 A 
ATOM      4  C   UNL     1       1.193  22.469   3.076  1.00  0.00     0.138 A 
ATOM      5  O   UNL     1       0.139  23.259   3.151  1.00  0.00    -0.456 OA
ATOM      6  C   UNL     1      -0.961  22.953   3.788  1.00  0.00     0.137 A 
ATOM      7  C   UNL     1      -2.045  23.838   3.828  1.00  0.00     0.043 A 
ATOM      8  C   UNL     1      -3.188  23.506   4.498  1.00  0.00    -0.063 A 
ATOM      9  O   UNL     1      -4.231  24.428   4.503  1.00  0.00    -0.870 OA
ATOM     10  C   UNL     1      -3.336  22.305   5.158  1.00  0.00     0.100 A 
ATOM     11  C   UNL     1      -2.289  21.429   5.129  1.00  0.00    -0.051 A 
ATOM     12  O   UNL     1      -2.423  20.222   5.786  1.00  0.00    -0.869 OA
ATOM     13  C   UNL     1      -1.114  21.753   4.450  1.00  0.00     0.060 A 
ENDROOT
BRANCH   4  14
ATOM     14  C   UNL     1       2.392  22.854   2.356  1.00  0.00     0.017 A 
ATOM     15  C   UNL     1       3.019  22.085   1.415  1.00  0.00     0.012 A 
ATOM     16  C   UNL     1       2.964  24.100   2.629  1.00  0.00     0.012 A 
ATOM     17  C   UNL     1       4.177  22.526   0.759  1.00  0.00     0.001 A 
ATOM     18  C   UNL     1       4.102  24.540   1.988  1.00  0.00     0.001 A 
ATOM     19  C   UNL     1       4.725  23.756   1.042  1.00  0.00     0.000 A 
ENDBRANCH   4  14
BRANCH  10  20
ATOM     20  O   UNL     1      -4.529  22.014   5.829  1.00  0.00    -0.509 OA
ATOM     21  H   UNL     1      -4.648  22.360   6.784  1.00  0.00     0.293 HD
ENDBRANCH  10  20
TORSDOF 2
ENDMDL
