MODEL 1
REMARK VINA RESULT:      -6.6      0.000      0.000
REMARK SMILES O=C1NCN(c2ccccc2)C12CC[NH+](CCCC(c1ccc(F)cc1)c1ccc(F)cc1)CC2
REMARK SMILES IDX 17 1 16 2 15 3 1 4 2 5 3 6 12 7 4 8 5 9 13 10 35 11 14 12
REMARK SMILES IDX 34 13 6 16 7 17 11 18 8 19 10 20 9 21 18 22 19 23 20 24
REMARK SMILES IDX 21 25 26 26 22 27 25 28 23 29 24 30 27 31 28 32 33 33 29 34
REMARK SMILES IDX 32 35 30 36 31 37
REMARK H PARENT 3 14 15 15
ROOT
ATOM      1  C   UNL     1     -21.902  33.485 -20.703  1.00  0.00     0.062 C 
ENDROOT
BRANCH   1   2
ATOM      2  C   UNL     1     -20.767  34.193 -21.383  1.00  0.00     0.262 C 
BRANCH   2   3
ATOM      3  N   UNL     1     -19.869  33.225 -22.002  1.00  0.00    -0.335 N 
ATOM      4  O   UNL     1     -18.692  30.219 -21.959  1.00  0.00    -0.272 OA
ATOM      5  C   UNL     1     -17.806  30.604 -22.751  1.00  0.00     0.247 C 
ATOM      6  N   UNL     1     -16.783  29.783 -23.257  1.00  0.00    -0.336 N 
ATOM      7  C   UNL     1     -17.673  32.006 -23.302  1.00  0.00     0.131 C 
ATOM      8  C   UNL     1     -16.294  30.434 -24.432  1.00  0.00     0.238 C 
ATOM      9  N   UNL     1     -16.497  31.864 -24.157  1.00  0.00    -0.339 N 
ATOM     10  C   UNL     1     -17.432  32.959 -22.148  1.00  0.00     0.100 C 
ATOM     11  C   UNL     1     -18.924  32.323 -24.038  1.00  0.00     0.100 C 
ATOM     12  C   UNL     1     -18.643  33.054 -21.251  1.00  0.00     0.265 C 
ATOM     13  C   UNL     1     -19.622  33.478 -23.397  1.00  0.00     0.265 C 
ATOM     14  H   UNL     1     -16.461  28.871 -22.834  1.00  0.00     0.165 HD
ATOM     15  H   UNL     1     -20.389  32.323 -21.941  1.00  0.00     0.348 HD
BRANCH   9  16
ATOM     16  C   UNL     1     -15.615  32.843 -24.681  1.00  0.00     0.039 A 
ATOM     17  C   UNL     1     -14.254  32.731 -24.520  1.00  0.00     0.026 A 
ATOM     18  C   UNL     1     -16.116  33.903 -25.373  1.00  0.00     0.026 A 
ATOM     19  C   UNL     1     -13.374  33.679 -25.050  1.00  0.00     0.002 A 
ATOM     20  C   UNL     1     -15.273  34.842 -25.899  1.00  0.00     0.002 A 
ATOM     21  C   UNL     1     -13.914  34.740 -25.745  1.00  0.00     0.000 A 
ENDBRANCH   9  16
ENDBRANCH   2   3
ENDBRANCH   1   2
BRANCH   1  22
ATOM     22  C   UNL     1     -23.046  33.100 -21.538  1.00  0.00     0.019 C 
BRANCH  22  23
ATOM     23  C   UNL     1     -23.388  31.713 -21.818  1.00  0.00     0.049 C 
BRANCH  23  24
ATOM     24  C   UNL     1     -24.385  31.085 -20.880  1.00  0.00    -0.040 A 
ATOM     25  C   UNL     1     -25.634  31.663 -20.830  1.00  0.00     0.007 A 
ATOM     26  C   UNL     1     -24.079  30.011 -20.088  1.00  0.00     0.007 A 
ATOM     27  C   UNL     1     -26.591  31.165 -19.982  1.00  0.00     0.039 A 
ATOM     28  C   UNL     1     -25.037  29.516 -19.244  1.00  0.00     0.039 A 
ATOM     29  C   UNL     1     -26.314  30.085 -19.175  1.00  0.00     0.123 A 
ATOM     30  F   UNL     1     -27.268  29.601 -18.340  1.00  0.00    -0.207 F 
ENDBRANCH  23  24
BRANCH  23  31
ATOM     31  C   UNL     1     -23.613  31.262 -23.182  1.00  0.00    -0.040 A 
ATOM     32  C   UNL     1     -24.299  30.146 -23.572  1.00  0.00     0.007 A 
ATOM     33  C   UNL     1     -23.042  32.063 -24.180  1.00  0.00     0.007 A 
ATOM     34  C   UNL     1     -24.399  29.856 -24.938  1.00  0.00     0.039 A 
ATOM     35  C   UNL     1     -23.133  31.793 -25.507  1.00  0.00     0.039 A 
ATOM     36  C   UNL     1     -23.826  30.666 -25.886  1.00  0.00     0.123 A 
ATOM     37  F   UNL     1     -23.909  30.408 -27.219  1.00  0.00    -0.207 F 
ENDBRANCH  23  31
ENDBRANCH  22  23
ENDBRANCH   1  22
TORSDOF 7
ENDMDL
MODEL 2
REMARK VINA RESULT:      -6.5      3.533      9.545
REMARK SMILES O=C1NCN(c2ccccc2)C12CC[NH+](CCCC(c1ccc(F)cc1)c1ccc(F)cc1)CC2
REMARK SMILES IDX 17 1 16 2 15 3 1 4 2 5 3 6 12 7 4 8 5 9 13 10 35 11 14 12
REMARK SMILES IDX 34 13 6 16 7 17 11 18 8 19 10 20 9 21 18 22 19 23 20 24
REMARK SMILES IDX 21 25 26 26 22 27 25 28 23 29 24 30 27 31 28 32 33 33 29 34
REMARK SMILES IDX 32 35 30 36 31 37
REMARK H PARENT 3 14 15 15
ROOT
ATOM      1  C   UNL     1     -15.262  31.824 -24.703  1.00  0.00     0.062 C 
ENDROOT
BRANCH   1   2
ATOM      2  C   UNL     1     -15.276  32.045 -23.219  1.00  0.00     0.262 C 
BRANCH   2   3
ATOM      3  N   UNL     1     -16.640  32.279 -22.758  1.00  0.00    -0.335 N 
ATOM      4  O   UNL     1     -18.694  32.247 -20.267  1.00  0.00    -0.272 OA
ATOM      5  C   UNL     1     -19.625  32.346 -21.093  1.00  0.00     0.247 C 
ATOM      6  N   UNL     1     -20.988  32.391 -20.750  1.00  0.00    -0.336 N 
ATOM      7  C   UNL     1     -19.460  32.434 -22.593  1.00  0.00     0.131 C 
ATOM      8  C   UNL     1     -21.663  32.960 -21.874  1.00  0.00     0.238 C 
ATOM      9  N   UNL     1     -20.851  32.542 -23.026  1.00  0.00    -0.339 N 
ATOM     10  C   UNL     1     -18.803  31.160 -23.084  1.00  0.00     0.100 C 
ATOM     11  C   UNL     1     -18.638  33.638 -22.887  1.00  0.00     0.100 C 
ATOM     12  C   UNL     1     -17.381  31.046 -22.585  1.00  0.00     0.265 C 
ATOM     13  C   UNL     1     -17.360  33.240 -23.552  1.00  0.00     0.265 C 
ATOM     14  H   UNL     1     -21.403  32.063 -19.836  1.00  0.00     0.165 HD
ATOM     15  H   UNL     1     -16.519  32.693 -21.809  1.00  0.00     0.348 HD
BRANCH   9  16
ATOM     16  C   UNL     1     -21.444  32.298 -24.291  1.00  0.00     0.039 A 
ATOM     17  C   UNL     1     -20.841  32.725 -25.451  1.00  0.00     0.026 A 
ATOM     18  C   UNL     1     -22.617  31.613 -24.366  1.00  0.00     0.026 A 
ATOM     19  C   UNL     1     -21.406  32.472 -26.705  1.00  0.00     0.002 A 
ATOM     20  C   UNL     1     -23.187  31.356 -25.582  1.00  0.00     0.002 A 
ATOM     21  C   UNL     1     -22.596  31.776 -26.745  1.00  0.00     0.000 A 
ENDBRANCH   9  16
ENDBRANCH   2   3
ENDBRANCH   1   2
BRANCH   1  22
ATOM     22  C   UNL     1     -14.245  32.546 -25.476  1.00  0.00     0.019 C 
BRANCH  22  23
ATOM     23  C   UNL     1     -14.575  33.415 -26.597  1.00  0.00     0.049 C 
BRANCH  23  24
ATOM     24  C   UNL     1     -13.462  33.659 -27.582  1.00  0.00    -0.040 A 
ATOM     25  C   UNL     1     -12.604  34.699 -27.298  1.00  0.00     0.007 A 
ATOM     26  C   UNL     1     -13.306  32.914 -28.720  1.00  0.00     0.007 A 
ATOM     27  C   UNL     1     -11.579  35.001 -28.159  1.00  0.00     0.039 A 
ATOM     28  C   UNL     1     -12.282  33.218 -29.575  1.00  0.00     0.039 A 
ATOM     29  C   UNL     1     -11.396  34.269 -29.310  1.00  0.00     0.123 A 
ATOM     30  F   UNL     1     -10.379  34.577 -30.154  1.00  0.00    -0.207 F 
ENDBRANCH  23  24
BRANCH  23  31
ATOM     31  C   UNL     1     -15.850  33.292 -27.284  1.00  0.00    -0.040 A 
ATOM     32  C   UNL     1     -16.834  34.238 -27.358  1.00  0.00     0.007 A 
ATOM     33  C   UNL     1     -16.076  32.062 -27.915  1.00  0.00     0.007 A 
ATOM     34  C   UNL     1     -18.013  33.936 -28.051  1.00  0.00     0.039 A 
ATOM     35  C   UNL     1     -17.213  31.758 -28.591  1.00  0.00     0.039 A 
ATOM     36  C   UNL     1     -18.196  32.718 -28.656  1.00  0.00     0.123 A 
ATOM     37  F   UNL     1     -19.330  32.401 -29.337  1.00  0.00    -0.207 F 
ENDBRANCH  23  31
ENDBRANCH  22  23
ENDBRANCH   1  22
TORSDOF 7
ENDMDL
MODEL 3
REMARK VINA RESULT:      -6.4      1.151      1.395
REMARK SMILES O=C1NCN(c2ccccc2)C12CC[NH+](CCCC(c1ccc(F)cc1)c1ccc(F)cc1)CC2
REMARK SMILES IDX 17 1 16 2 15 3 1 4 2 5 3 6 12 7 4 8 5 9 13 10 35 11 14 12
REMARK SMILES IDX 34 13 6 16 7 17 11 18 8 19 10 20 9 21 18 22 19 23 20 24
REMARK SMILES IDX 21 25 26 26 22 27 25 28 23 29 24 30 27 31 28 32 33 33 29 34
REMARK SMILES IDX 32 35 30 36 31 37
REMARK H PARENT 3 14 15 15
ROOT
ATOM      1  C   UNL     1     -21.801  34.294 -21.613  1.00  0.00     0.062 C 
ENDROOT
BRANCH   1   2
ATOM      2  C   UNL     1     -20.648  34.713 -22.477  1.00  0.00     0.262 C 
BRANCH   2   3
ATOM      3  N   UNL     1     -19.798  33.565 -22.772  1.00  0.00    -0.335 N 
ATOM      4  O   UNL     1     -18.737  30.670 -21.813  1.00  0.00    -0.272 OA
ATOM      5  C   UNL     1     -17.850  30.757 -22.688  1.00  0.00     0.247 C 
ATOM      6  N   UNL     1     -16.869  29.778 -22.922  1.00  0.00    -0.336 N 
ATOM      7  C   UNL     1     -17.672  31.915 -23.643  1.00  0.00     0.131 C 
ATOM      8  C   UNL     1     -16.375  30.016 -24.241  1.00  0.00     0.238 C 
ATOM      9  N   UNL     1     -16.517  31.469 -24.418  1.00  0.00    -0.339 N 
ATOM     10  C   UNL     1     -17.376  33.165 -22.840  1.00  0.00     0.100 C 
ATOM     11  C   UNL     1     -18.923  32.043 -24.437  1.00  0.00     0.100 C 
ATOM     12  C   UNL     1     -18.568  33.581 -22.010  1.00  0.00     0.265 C 
ATOM     13  C   UNL     1     -19.564  33.367 -24.179  1.00  0.00     0.265 C 
ATOM     14  H   UNL     1     -16.575  29.027 -22.240  1.00  0.00     0.165 HD
ATOM     15  H   UNL     1     -20.351  32.747 -22.435  1.00  0.00     0.348 HD
BRANCH   9  16
ATOM     16  C   UNL     1     -15.607  32.202 -25.221  1.00  0.00     0.039 A 
ATOM     17  C   UNL     1     -14.402  32.630 -24.717  1.00  0.00     0.026 A 
ATOM     18  C   UNL     1     -15.917  32.472 -26.519  1.00  0.00     0.026 A 
ATOM     19  C   UNL     1     -13.487  33.336 -25.505  1.00  0.00     0.002 A 
ATOM     20  C   UNL     1     -15.037  33.161 -27.307  1.00  0.00     0.002 A 
ATOM     21  C   UNL     1     -13.832  33.592 -26.815  1.00  0.00     0.000 A 
ENDBRANCH   9  16
ENDBRANCH   2   3
ENDBRANCH   1   2
BRANCH   1  22
ATOM     22  C   UNL     1     -21.798  32.913 -21.117  1.00  0.00     0.019 C 
BRANCH  22  23
ATOM     23  C   UNL     1     -22.750  31.909 -21.572  1.00  0.00     0.049 C 
BRANCH  23  24
ATOM     24  C   UNL     1     -23.686  31.375 -20.519  1.00  0.00    -0.040 A 
ATOM     25  C   UNL     1     -24.113  30.075 -20.675  1.00  0.00     0.007 A 
ATOM     26  C   UNL     1     -24.122  32.134 -19.466  1.00  0.00     0.007 A 
ATOM     27  C   UNL     1     -24.985  29.524 -19.772  1.00  0.00     0.039 A 
ATOM     28  C   UNL     1     -24.992  31.579 -18.566  1.00  0.00     0.039 A 
ATOM     29  C   UNL     1     -25.441  30.260 -18.702  1.00  0.00     0.123 A 
ATOM     30  F   UNL     1     -26.304  29.704 -17.814  1.00  0.00    -0.207 F 
ENDBRANCH  23  24
BRANCH  23  31
ATOM     31  C   UNL     1     -23.440  32.059 -22.843  1.00  0.00    -0.040 A 
ATOM     32  C   UNL     1     -24.654  32.651 -23.050  1.00  0.00     0.007 A 
ATOM     33  C   UNL     1     -22.777  31.517 -23.952  1.00  0.00     0.007 A 
ATOM     34  C   UNL     1     -25.177  32.687 -24.348  1.00  0.00     0.039 A 
ATOM     35  C   UNL     1     -23.273  31.547 -25.215  1.00  0.00     0.039 A 
ATOM     36  C   UNL     1     -24.497  32.145 -25.409  1.00  0.00     0.123 A 
ATOM     37  F   UNL     1     -24.982  32.168 -26.680  1.00  0.00    -0.207 F 
ENDBRANCH  23  31
ENDBRANCH  22  23
ENDBRANCH   1  22
TORSDOF 7
ENDMDL
MODEL 4
REMARK VINA RESULT:      -6.4      3.074      8.888
REMARK SMILES O=C1NCN(c2ccccc2)C12CC[NH+](CCCC(c1ccc(F)cc1)c1ccc(F)cc1)CC2
REMARK SMILES IDX 17 1 16 2 15 3 1 4 2 5 3 6 12 7 4 8 5 9 13 10 35 11 14 12
REMARK SMILES IDX 34 13 6 16 7 17 11 18 8 19 10 20 9 21 18 22 19 23 20 24
REMARK SMILES IDX 21 25 26 26 22 27 25 28 23 29 24 30 27 31 28 32 33 33 29 34
REMARK SMILES IDX 32 35 30 36 31 37
REMARK H PARENT 3 14 15 15
ROOT
ATOM      1  C   UNL     1     -17.634  30.935 -23.675  1.00  0.00     0.062 C 
ENDROOT
BRANCH   1   2
ATOM      2  C   UNL     1     -17.575  31.851 -22.487  1.00  0.00     0.262 C 
BRANCH   2   3
ATOM      3  N   UNL     1     -18.884  32.445 -22.245  1.00  0.00    -0.335 N 
ATOM      4  O   UNL     1     -20.533  35.038 -21.252  1.00  0.00    -0.272 OA
ATOM      5  C   UNL     1     -21.548  34.314 -21.197  1.00  0.00     0.247 C 
ATOM      6  N   UNL     1     -22.819  34.759 -20.793  1.00  0.00    -0.336 N 
ATOM      7  C   UNL     1     -21.597  32.845 -21.550  1.00  0.00     0.131 C 
ATOM      8  C   UNL     1     -23.756  33.807 -21.301  1.00  0.00     0.238 C 
ATOM      9  N   UNL     1     -23.006  32.541 -21.312  1.00  0.00    -0.339 N 
ATOM     10  C   UNL     1     -20.681  32.089 -20.608  1.00  0.00     0.100 C 
ATOM     11  C   UNL     1     -21.178  32.706 -22.969  1.00  0.00     0.100 C 
ATOM     12  C   UNL     1     -19.233  32.453 -20.839  1.00  0.00     0.265 C 
ATOM     13  C   UNL     1     -19.931  31.889 -23.062  1.00  0.00     0.265 C 
ATOM     14  H   UNL     1     -23.015  35.629 -20.228  1.00  0.00     0.165 HD
ATOM     15  H   UNL     1     -18.767  33.441 -22.532  1.00  0.00     0.348 HD
BRANCH   9  16
ATOM     16  C   UNL     1     -23.658  31.301 -21.096  1.00  0.00     0.039 A 
ATOM     17  C   UNL     1     -24.311  30.655 -22.120  1.00  0.00     0.026 A 
ATOM     18  C   UNL     1     -23.623  30.725 -19.864  1.00  0.00     0.026 A 
ATOM     19  C   UNL     1     -24.940  29.422 -21.923  1.00  0.00     0.002 A 
ATOM     20  C   UNL     1     -24.232  29.519 -19.650  1.00  0.00     0.002 A 
ATOM     21  C   UNL     1     -24.885  28.866 -20.663  1.00  0.00     0.000 A 
ENDBRANCH   9  16
ENDBRANCH   2   3
ENDBRANCH   1   2
BRANCH   1  22
ATOM     22  C   UNL     1     -16.465  30.914 -24.561  1.00  0.00     0.019 C 
BRANCH  22  23
ATOM     23  C   UNL     1     -16.351  31.764 -25.738  1.00  0.00     0.049 C 
BRANCH  23  24
ATOM     24  C   UNL     1     -17.583  32.555 -26.093  1.00  0.00    -0.040 A 
ATOM     25  C   UNL     1     -18.484  31.946 -26.938  1.00  0.00     0.007 A 
ATOM     26  C   UNL     1     -17.804  33.824 -25.630  1.00  0.00     0.007 A 
ATOM     27  C   UNL     1     -19.620  32.610 -27.328  1.00  0.00     0.039 A 
ATOM     28  C   UNL     1     -18.938  34.483 -26.021  1.00  0.00     0.039 A 
ATOM     29  C   UNL     1     -19.870  33.887 -26.879  1.00  0.00     0.123 A 
ATOM     30  F   UNL     1     -20.997  34.534 -27.271  1.00  0.00    -0.207 F 
ENDBRANCH  23  24
BRANCH  23  31
ATOM     31  C   UNL     1     -15.151  32.550 -25.975  1.00  0.00    -0.040 A 
ATOM     32  C   UNL     1     -14.238  32.951 -25.040  1.00  0.00     0.007 A 
ATOM     33  C   UNL     1     -14.940  32.937 -27.305  1.00  0.00     0.007 A 
ATOM     34  C   UNL     1     -13.146  33.725 -25.450  1.00  0.00     0.039 A 
ATOM     35  C   UNL     1     -13.885  33.686 -27.714  1.00  0.00     0.039 A 
ATOM     36  C   UNL     1     -12.974  34.084 -26.763  1.00  0.00     0.123 A 
ATOM     37  F   UNL     1     -11.922  34.834 -27.187  1.00  0.00    -0.207 F 
ENDBRANCH  23  31
ENDBRANCH  22  23
ENDBRANCH   1  22
TORSDOF 7
ENDMDL
MODEL 5
REMARK VINA RESULT:      -6.4      0.746      1.049
REMARK SMILES O=C1NCN(c2ccccc2)C12CC[NH+](CCCC(c1ccc(F)cc1)c1ccc(F)cc1)CC2
REMARK SMILES IDX 17 1 16 2 15 3 1 4 2 5 3 6 12 7 4 8 5 9 13 10 35 11 14 12
REMARK SMILES IDX 34 13 6 16 7 17 11 18 8 19 10 20 9 21 18 22 19 23 20 24
REMARK SMILES IDX 21 25 26 26 22 27 25 28 23 29 24 30 27 31 28 32 33 33 29 34
REMARK SMILES IDX 32 35 30 36 31 37
REMARK H PARENT 3 14 15 15
ROOT
ATOM      1  C   UNL     1     -21.867  34.004 -21.253  1.00  0.00     0.062 C 
ENDROOT
BRANCH   1   2
ATOM      2  C   UNL     1     -20.580  34.531 -21.818  1.00  0.00     0.262 C 
BRANCH   2   3
ATOM      3  N   UNL     1     -19.748  33.428 -22.285  1.00  0.00    -0.335 N 
ATOM      4  O   UNL     1     -18.725  30.408 -21.772  1.00  0.00    -0.272 OA
ATOM      5  C   UNL     1     -17.840  30.612 -22.629  1.00  0.00     0.247 C 
ATOM      6  N   UNL     1     -16.874  29.666 -23.012  1.00  0.00    -0.336 N 
ATOM      7  C   UNL     1     -17.649  31.897 -23.403  1.00  0.00     0.131 C 
ATOM      8  C   UNL     1     -16.381  30.090 -24.284  1.00  0.00     0.238 C 
ATOM      9  N   UNL     1     -16.503  31.555 -24.243  1.00  0.00    -0.339 N 
ATOM     10  C   UNL     1     -17.332  33.010 -22.425  1.00  0.00     0.100 C 
ATOM     11  C   UNL     1     -18.901  32.159 -24.162  1.00  0.00     0.100 C 
ATOM     12  C   UNL     1     -18.515  33.314 -21.535  1.00  0.00     0.265 C 
ATOM     13  C   UNL     1     -19.522  33.438 -23.707  1.00  0.00     0.265 C 
ATOM     14  H   UNL     1     -16.588  28.818 -22.451  1.00  0.00     0.165 HD
ATOM     15  H   UNL     1     -20.312  32.577 -22.070  1.00  0.00     0.348 HD
BRANCH   9  16
ATOM     16  C   UNL     1     -15.585  32.387 -24.932  1.00  0.00     0.039 A 
ATOM     17  C   UNL     1     -15.884  32.897 -26.173  1.00  0.00     0.026 A 
ATOM     18  C   UNL     1     -14.396  32.707 -24.352  1.00  0.00     0.026 A 
ATOM     19  C   UNL     1     -14.995  33.735 -26.854  1.00  0.00     0.002 A 
ATOM     20  C   UNL     1     -13.512  33.524 -25.000  1.00  0.00     0.002 A 
ATOM     21  C   UNL     1     -13.799  34.039 -26.238  1.00  0.00     0.000 A 
ENDBRANCH   9  16
ENDBRANCH   2   3
ENDBRANCH   1   2
BRANCH   1  22
ATOM     22  C   UNL     1     -22.874  33.535 -22.211  1.00  0.00     0.019 C 
BRANCH  22  23
ATOM     23  C   UNL     1     -23.165  32.123 -22.423  1.00  0.00     0.049 C 
BRANCH  23  24
ATOM     24  C   UNL     1     -23.939  31.446 -21.322  1.00  0.00    -0.040 A 
ATOM     25  C   UNL     1     -25.303  31.641 -21.316  1.00  0.00     0.007 A 
ATOM     26  C   UNL     1     -23.336  30.691 -20.352  1.00  0.00     0.007 A 
ATOM     27  C   UNL     1     -26.075  31.078 -20.332  1.00  0.00     0.039 A 
ATOM     28  C   UNL     1     -24.111  30.130 -19.373  1.00  0.00     0.039 A 
ATOM     29  C   UNL     1     -25.498  30.313 -19.344  1.00  0.00     0.123 A 
ATOM     30  F   UNL     1     -26.272  29.760 -18.376  1.00  0.00    -0.207 F 
ENDBRANCH  23  24
BRANCH  23  31
ATOM     31  C   UNL     1     -23.593  31.638 -23.724  1.00  0.00    -0.040 A 
ATOM     32  C   UNL     1     -23.680  30.334 -24.123  1.00  0.00     0.007 A 
ATOM     33  C   UNL     1     -23.931  32.631 -24.653  1.00  0.00     0.007 A 
ATOM     34  C   UNL     1     -24.096  30.052 -25.430  1.00  0.00     0.039 A 
ATOM     35  C   UNL     1     -24.337  32.371 -25.922  1.00  0.00     0.039 A 
ATOM     36  C   UNL     1     -24.418  31.054 -26.311  1.00  0.00     0.123 A 
ATOM     37  F   UNL     1     -24.827  30.807 -27.585  1.00  0.00    -0.207 F 
ENDBRANCH  23  31
ENDBRANCH  22  23
ENDBRANCH   1  22
TORSDOF 7
ENDMDL
MODEL 6
REMARK VINA RESULT:      -6.3      3.070      5.037
REMARK SMILES O=C1NCN(c2ccccc2)C12CC[NH+](CCCC(c1ccc(F)cc1)c1ccc(F)cc1)CC2
REMARK SMILES IDX 17 1 16 2 15 3 1 4 2 5 3 6 12 7 4 8 5 9 13 10 35 11 14 12
REMARK SMILES IDX 34 13 6 16 7 17 11 18 8 19 10 20 9 21 18 22 19 23 20 24
REMARK SMILES IDX 21 25 26 26 22 27 25 28 23 29 24 30 27 31 28 32 33 33 29 34
REMARK SMILES IDX 32 35 30 36 31 37
REMARK H PARENT 3 14 15 15
ROOT
ATOM      1  C   UNL     1     -20.430  34.369 -27.330  1.00  0.00     0.062 C 
ENDROOT
BRANCH   1   2
ATOM      2  C   UNL     1     -19.206  33.768 -27.955  1.00  0.00     0.262 C 
BRANCH   2   3
ATOM      3  N   UNL     1     -18.207  33.481 -26.931  1.00  0.00    -0.335 N 
ATOM      4  O   UNL     1     -15.180  32.556 -26.293  1.00  0.00    -0.272 OA
ATOM      5  C   UNL     1     -15.531  32.388 -25.106  1.00  0.00     0.247 C 
ATOM      6  N   UNL     1     -14.680  31.934 -24.084  1.00  0.00    -0.336 N 
ATOM      7  C   UNL     1     -16.917  32.640 -24.559  1.00  0.00     0.131 C 
ATOM      8  C   UNL     1     -15.295  32.317 -22.852  1.00  0.00     0.238 C 
ATOM      9  N   UNL     1     -16.735  32.293 -23.151  1.00  0.00    -0.339 N 
ATOM     10  C   UNL     1     -17.891  31.712 -25.257  1.00  0.00     0.100 C 
ATOM     11  C   UNL     1     -17.243  34.072 -24.793  1.00  0.00     0.100 C 
ATOM     12  C   UNL     1     -18.028  32.060 -26.721  1.00  0.00     0.265 C 
ATOM     13  C   UNL     1     -18.425  34.191 -25.698  1.00  0.00     0.265 C 
ATOM     14  H   UNL     1     -13.771  31.415 -24.226  1.00  0.00     0.165 HD
ATOM     15  H   UNL     1     -17.316  33.840 -27.339  1.00  0.00     0.348 HD
BRANCH   9  16
ATOM     16  C   UNL     1     -17.685  31.955 -22.154  1.00  0.00     0.039 A 
ATOM     17  C   UNL     1     -17.919  30.644 -21.812  1.00  0.00     0.026 A 
ATOM     18  C   UNL     1     -18.364  32.941 -21.507  1.00  0.00     0.026 A 
ATOM     19  C   UNL     1     -18.839  30.301 -20.816  1.00  0.00     0.002 A 
ATOM     20  C   UNL     1     -19.268  32.627 -20.530  1.00  0.00     0.002 A 
ATOM     21  C   UNL     1     -19.509  31.324 -20.181  1.00  0.00     0.000 A 
ENDBRANCH   9  16
ENDBRANCH   2   3
ENDBRANCH   1   2
BRANCH   1  22
ATOM     22  C   UNL     1     -21.706  33.686 -27.568  1.00  0.00     0.019 C 
BRANCH  22  23
ATOM     23  C   UNL     1     -22.175  32.579 -26.746  1.00  0.00     0.049 C 
BRANCH  23  24
ATOM     24  C   UNL     1     -22.314  32.873 -25.275  1.00  0.00    -0.040 A 
ATOM     25  C   UNL     1     -21.479  32.180 -24.426  1.00  0.00     0.007 A 
ATOM     26  C   UNL     1     -23.233  33.761 -24.783  1.00  0.00     0.007 A 
ATOM     27  C   UNL     1     -21.561  32.374 -23.070  1.00  0.00     0.039 A 
ATOM     28  C   UNL     1     -23.310  33.952 -23.430  1.00  0.00     0.039 A 
ATOM     29  C   UNL     1     -22.474  33.261 -22.546  1.00  0.00     0.123 A 
ATOM     30  F   UNL     1     -22.545  33.444 -21.203  1.00  0.00    -0.207 F 
ENDBRANCH  23  24
BRANCH  23  31
ATOM     31  C   UNL     1     -23.254  31.719 -27.201  1.00  0.00    -0.040 A 
ATOM     32  C   UNL     1     -23.897  30.757 -26.472  1.00  0.00     0.007 A 
ATOM     33  C   UNL     1     -23.648  31.903 -28.533  1.00  0.00     0.007 A 
ATOM     34  C   UNL     1     -24.907  30.006 -27.085  1.00  0.00     0.039 A 
ATOM     35  C   UNL     1     -24.627  31.183 -29.137  1.00  0.00     0.039 A 
ATOM     36  C   UNL     1     -25.264  30.217 -28.393  1.00  0.00     0.123 A 
ATOM     37  F   UNL     1     -26.243  29.502 -29.011  1.00  0.00    -0.207 F 
ENDBRANCH  23  31
ENDBRANCH  22  23
ENDBRANCH   1  22
TORSDOF 7
ENDMDL
MODEL 7
REMARK VINA RESULT:      -6.1      3.181      5.197
REMARK SMILES O=C1NCN(c2ccccc2)C12CC[NH+](CCCC(c1ccc(F)cc1)c1ccc(F)cc1)CC2
REMARK SMILES IDX 17 1 16 2 15 3 1 4 2 5 3 6 12 7 4 8 5 9 13 10 35 11 14 12
REMARK SMILES IDX 34 13 6 16 7 17 11 18 8 19 10 20 9 21 18 22 19 23 20 24
REMARK SMILES IDX 21 25 26 26 22 27 25 28 23 29 24 30 27 31 28 32 33 33 29 34
REMARK SMILES IDX 32 35 30 36 31 37
REMARK H PARENT 3 14 15 15
ROOT
ATOM      1  C   UNL     1     -16.896  33.916 -21.450  1.00  0.00     0.062 C 
ENDROOT
BRANCH   1   2
ATOM      2  C   UNL     1     -15.706  34.283 -22.287  1.00  0.00     0.262 C 
BRANCH   2   3
ATOM      3  N   UNL     1     -15.907  33.851 -23.665  1.00  0.00    -0.335 N 
ATOM      4  O   UNL     1     -17.447  31.842 -25.670  1.00  0.00    -0.272 OA
ATOM      5  C   UNL     1     -16.632  32.176 -26.555  1.00  0.00     0.247 C 
ATOM      6  N   UNL     1     -16.635  31.669 -27.867  1.00  0.00    -0.336 N 
ATOM      7  C   UNL     1     -15.509  33.173 -26.382  1.00  0.00     0.131 C 
ATOM      8  C   UNL     1     -15.896  32.603 -28.657  1.00  0.00     0.238 C 
ATOM      9  N   UNL     1     -14.915  33.167 -27.717  1.00  0.00    -0.339 N 
ATOM     10  C   UNL     1     -14.555  32.651 -25.327  1.00  0.00     0.100 C 
ATOM     11  C   UNL     1     -16.116  34.474 -25.994  1.00  0.00     0.100 C 
ATOM     12  C   UNL     1     -15.205  32.621 -23.964  1.00  0.00     0.265 C 
ATOM     13  C   UNL     1     -15.641  34.879 -24.637  1.00  0.00     0.265 C 
ATOM     14  H   UNL     1     -17.099  30.773 -28.178  1.00  0.00     0.165 HD
ATOM     15  H   UNL     1     -16.927  33.637 -23.716  1.00  0.00     0.348 HD
BRANCH   9  16
ATOM     16  C   UNL     1     -13.633  33.583 -28.157  1.00  0.00     0.039 A 
ATOM     17  C   UNL     1     -13.009  34.672 -27.597  1.00  0.00     0.026 A 
ATOM     18  C   UNL     1     -12.996  32.883 -29.135  1.00  0.00     0.026 A 
ATOM     19  C   UNL     1     -11.736  35.078 -28.009  1.00  0.00     0.002 A 
ATOM     20  C   UNL     1     -11.750  33.263 -29.553  1.00  0.00     0.002 A 
ATOM     21  C   UNL     1     -11.119  34.348 -29.001  1.00  0.00     0.000 A 
ENDBRANCH   9  16
ENDBRANCH   2   3
ENDBRANCH   1   2
BRANCH   1  22
ATOM     22  C   UNL     1     -18.221  34.213 -22.007  1.00  0.00     0.019 C 
BRANCH  22  23
ATOM     23  C   UNL     1     -19.162  33.174 -22.402  1.00  0.00     0.049 C 
BRANCH  23  24
ATOM     24  C   UNL     1     -18.915  31.811 -21.810  1.00  0.00    -0.040 A 
ATOM     25  C   UNL     1     -18.236  30.909 -22.599  1.00  0.00     0.007 A 
ATOM     26  C   UNL     1     -19.355  31.457 -20.563  1.00  0.00     0.007 A 
ATOM     27  C   UNL     1     -17.993  29.639 -22.141  1.00  0.00     0.039 A 
ATOM     28  C   UNL     1     -19.110  30.190 -20.109  1.00  0.00     0.039 A 
ATOM     29  C   UNL     1     -18.422  29.254 -20.891  1.00  0.00     0.123 A 
ATOM     30  F   UNL     1     -18.176  27.995 -20.448  1.00  0.00    -0.207 F 
ENDBRANCH  23  24
BRANCH  23  31
ATOM     31  C   UNL     1     -20.587  33.450 -22.477  1.00  0.00    -0.040 A 
ATOM     32  C   UNL     1     -21.277  34.390 -21.762  1.00  0.00     0.007 A 
ATOM     33  C   UNL     1     -21.308  32.645 -23.368  1.00  0.00     0.007 A 
ATOM     34  C   UNL     1     -22.660  34.503 -21.951  1.00  0.00     0.039 A 
ATOM     35  C   UNL     1     -22.648  32.746 -23.560  1.00  0.00     0.039 A 
ATOM     36  C   UNL     1     -23.330  33.695 -22.834  1.00  0.00     0.123 A 
ATOM     37  F   UNL     1     -24.672  33.785 -23.037  1.00  0.00    -0.207 F 
ENDBRANCH  23  31
ENDBRANCH  22  23
ENDBRANCH   1  22
TORSDOF 7
ENDMDL
MODEL 8
REMARK VINA RESULT:      -6.0      3.316      4.838
REMARK SMILES O=C1NCN(c2ccccc2)C12CC[NH+](CCCC(c1ccc(F)cc1)c1ccc(F)cc1)CC2
REMARK SMILES IDX 17 1 16 2 15 3 1 4 2 5 3 6 12 7 4 8 5 9 13 10 35 11 14 12
REMARK SMILES IDX 34 13 6 16 7 17 11 18 8 19 10 20 9 21 18 22 19 23 20 24
REMARK SMILES IDX 21 25 26 26 22 27 25 28 23 29 24 30 27 31 28 32 33 33 29 34
REMARK SMILES IDX 32 35 30 36 31 37
REMARK H PARENT 3 14 15 15
ROOT
ATOM      1  C   UNL     1     -22.139  34.309 -26.248  1.00  0.00     0.062 C 
ENDROOT
BRANCH   1   2
ATOM      2  C   UNL     1     -22.026  34.040 -27.719  1.00  0.00     0.262 C 
BRANCH   2   3
ATOM      3  N   UNL     1     -20.666  33.630 -28.053  1.00  0.00    -0.335 N 
ATOM      4  O   UNL     1     -18.734  32.140 -30.168  1.00  0.00    -0.272 OA
ATOM      5  C   UNL     1     -17.847  32.145 -29.290  1.00  0.00     0.247 C 
ATOM      6  N   UNL     1     -16.561  31.603 -29.460  1.00  0.00    -0.336 N 
ATOM      7  C   UNL     1     -17.990  32.726 -27.902  1.00  0.00     0.131 C 
ATOM      8  C   UNL     1     -15.739  32.203 -28.456  1.00  0.00     0.238 C 
ATOM      9  N   UNL     1     -16.667  32.460 -27.344  1.00  0.00    -0.339 N 
ATOM     10  C   UNL     1     -19.083  31.972 -27.171  1.00  0.00     0.100 C 
ATOM     11  C   UNL     1     -18.308  34.171 -28.047  1.00  0.00     0.100 C 
ATOM     12  C   UNL     1     -20.436  32.224 -27.794  1.00  0.00     0.265 C 
ATOM     13  C   UNL     1     -19.652  34.465 -27.464  1.00  0.00     0.265 C 
ATOM     14  H   UNL     1     -16.284  30.895 -30.193  1.00  0.00     0.165 HD
ATOM     15  H   UNL     1     -20.609  33.760 -29.086  1.00  0.00     0.348 HD
BRANCH   9  16
ATOM     16  C   UNL     1     -16.227  32.410 -25.997  1.00  0.00     0.039 A 
ATOM     17  C   UNL     1     -16.132  31.214 -25.325  1.00  0.00     0.026 A 
ATOM     18  C   UNL     1     -15.872  33.559 -25.360  1.00  0.00     0.026 A 
ATOM     19  C   UNL     1     -15.680  31.151 -24.004  1.00  0.00     0.002 A 
ATOM     20  C   UNL     1     -15.428  33.519 -24.067  1.00  0.00     0.002 A 
ATOM     21  C   UNL     1     -15.329  32.333 -23.388  1.00  0.00     0.000 A 
ENDBRANCH   9  16
ENDBRANCH   2   3
ENDBRANCH   1   2
BRANCH   1  22
ATOM     22  C   UNL     1     -22.980  33.398 -25.464  1.00  0.00     0.019 C 
BRANCH  22  23
ATOM     23  C   UNL     1     -22.718  33.086 -24.066  1.00  0.00     0.049 C 
BRANCH  23  24
ATOM     24  C   UNL     1     -23.440  31.882 -23.520  1.00  0.00    -0.040 A 
ATOM     25  C   UNL     1     -23.793  31.925 -22.189  1.00  0.00     0.007 A 
ATOM     26  C   UNL     1     -23.721  30.780 -24.283  1.00  0.00     0.007 A 
ATOM     27  C   UNL     1     -24.432  30.858 -21.611  1.00  0.00     0.039 A 
ATOM     28  C   UNL     1     -24.359  29.718 -23.703  1.00  0.00     0.039 A 
ATOM     29  C   UNL     1     -24.729  29.737 -22.353  1.00  0.00     0.123 A 
ATOM     30  F   UNL     1     -25.361  28.687 -21.770  1.00  0.00    -0.207 F 
ENDBRANCH  23  24
BRANCH  23  31
ATOM     31  C   UNL     1     -21.370  33.163 -23.527  1.00  0.00    -0.040 A 
ATOM     32  C   UNL     1     -20.336  32.307 -23.783  1.00  0.00     0.007 A 
ATOM     33  C   UNL     1     -21.138  34.225 -22.643  1.00  0.00     0.007 A 
ATOM     34  C   UNL     1     -19.104  32.527 -23.155  1.00  0.00     0.039 A 
ATOM     35  C   UNL     1     -19.948  34.449 -22.029  1.00  0.00     0.039 A 
ATOM     36  C   UNL     1     -18.916  33.579 -22.294  1.00  0.00     0.123 A 
ATOM     37  F   UNL     1     -17.730  33.815 -21.673  1.00  0.00    -0.207 F 
ENDBRANCH  23  31
ENDBRANCH  22  23
ENDBRANCH   1  22
TORSDOF 7
ENDMDL
MODEL 9
REMARK VINA RESULT:      -6.0      3.186      8.738
REMARK SMILES O=C1NCN(c2ccccc2)C12CC[NH+](CCCC(c1ccc(F)cc1)c1ccc(F)cc1)CC2
REMARK SMILES IDX 17 1 16 2 15 3 1 4 2 5 3 6 12 7 4 8 5 9 13 10 35 11 14 12
REMARK SMILES IDX 34 13 6 16 7 17 11 18 8 19 10 20 9 21 18 22 19 23 20 24
REMARK SMILES IDX 21 25 26 26 22 27 25 28 23 29 24 30 27 31 28 32 33 33 29 34
REMARK SMILES IDX 32 35 30 36 31 37
REMARK H PARENT 3 14 15 15
ROOT
ATOM      1  C   UNL     1     -16.496  34.697 -23.894  1.00  0.00     0.062 C 
ENDROOT
BRANCH   1   2
ATOM      2  C   UNL     1     -16.459  33.583 -22.890  1.00  0.00     0.262 C 
BRANCH   2   3
ATOM      3  N   UNL     1     -17.806  33.293 -22.411  1.00  0.00    -0.335 N 
ATOM      4  O   UNL     1     -19.643  32.293 -19.951  1.00  0.00    -0.272 OA
ATOM      5  C   UNL     1     -20.582  32.167 -20.764  1.00  0.00     0.247 C 
ATOM      6  N   UNL     1     -21.869  31.714 -20.425  1.00  0.00    -0.336 N 
ATOM      7  C   UNL     1     -20.509  32.475 -22.242  1.00  0.00     0.131 C 
ATOM      8  C   UNL     1     -22.735  32.147 -21.476  1.00  0.00     0.238 C 
ATOM      9  N   UNL     1     -21.870  32.159 -22.666  1.00  0.00    -0.339 N 
ATOM     10  C   UNL     1     -19.482  31.559 -22.878  1.00  0.00     0.100 C 
ATOM     11  C   UNL     1     -20.145  33.910 -22.388  1.00  0.00     0.100 C 
ATOM     12  C   UNL     1     -18.088  31.873 -22.389  1.00  0.00     0.265 C 
ATOM     13  C   UNL     1     -18.833  34.041 -23.088  1.00  0.00     0.265 C 
ATOM     14  H   UNL     1     -22.119  31.164 -19.558  1.00  0.00     0.165 HD
ATOM     15  H   UNL     1     -17.796  33.613 -21.418  1.00  0.00     0.348 HD
BRANCH   9  16
ATOM     16  C   UNL     1     -22.393  31.877 -23.954  1.00  0.00     0.039 A 
ATOM     17  C   UNL     1     -22.059  32.651 -25.041  1.00  0.00     0.026 A 
ATOM     18  C   UNL     1     -23.221  30.810 -24.128  1.00  0.00     0.026 A 
ATOM     19  C   UNL     1     -22.552  32.369 -26.319  1.00  0.00     0.002 A 
ATOM     20  C   UNL     1     -23.714  30.518 -25.369  1.00  0.00     0.002 A 
ATOM     21  C   UNL     1     -23.388  31.282 -26.459  1.00  0.00     0.000 A 
ENDBRANCH   9  16
ENDBRANCH   2   3
ENDBRANCH   1   2
BRANCH   1  22
ATOM     22  C   UNL     1     -15.482  34.674 -24.955  1.00  0.00     0.019 C 
BRANCH  22  23
ATOM     23  C   UNL     1     -15.485  33.690 -26.029  1.00  0.00     0.049 C 
BRANCH  23  24
ATOM     24  C   UNL     1     -16.809  33.480 -26.716  1.00  0.00    -0.040 A 
ATOM     25  C   UNL     1     -17.442  32.280 -26.481  1.00  0.00     0.007 A 
ATOM     26  C   UNL     1     -17.361  34.410 -27.556  1.00  0.00     0.007 A 
ATOM     27  C   UNL     1     -18.641  32.003 -27.090  1.00  0.00     0.039 A 
ATOM     28  C   UNL     1     -18.557  34.130 -28.160  1.00  0.00     0.039 A 
ATOM     29  C   UNL     1     -19.221  32.918 -27.938  1.00  0.00     0.123 A 
ATOM     30  F   UNL     1     -20.406  32.633 -28.534  1.00  0.00    -0.207 F 
ENDBRANCH  23  24
BRANCH  23  31
ATOM     31  C   UNL     1     -14.394  33.632 -26.988  1.00  0.00    -0.040 A 
ATOM     32  C   UNL     1     -14.390  32.968 -28.183  1.00  0.00     0.007 A 
ATOM     33  C   UNL     1     -13.233  34.323 -26.618  1.00  0.00     0.007 A 
ATOM     34  C   UNL     1     -13.236  33.007 -28.974  1.00  0.00     0.039 A 
ATOM     35  C   UNL     1     -12.109  34.369 -27.377  1.00  0.00     0.039 A 
ATOM     36  C   UNL     1     -12.117  33.695 -28.577  1.00  0.00     0.123 A 
ATOM     37  F   UNL     1     -10.984  33.750 -29.327  1.00  0.00    -0.207 F 
ENDBRANCH  23  31
ENDBRANCH  22  23
ENDBRANCH   1  22
TORSDOF 7
ENDMDL
