MODEL 1
REMARK VINA RESULT:      -6.6      0.000      0.000
REMARK SMILES CC/C(=C(\c1ccccc1)c1ccc(OCC[NH+](C)C)cc1)c1ccccc1
REMARK SMILES IDX 15 1 14 2 11 3 12 4 22 5 13 6 21 7 4 8 3 9 2 10 1 11 23 12
REMARK SMILES IDX 24 13 28 14 25 15 27 16 26 17 5 18 6 19 10 20 7 21 9 22 8 23
REMARK SMILES IDX 16 24 17 25 18 26 19 27 20 28
REMARK H PARENT 18 29
ROOT
ATOM      1  O   UNL     1     121.268 118.998 123.683  1.00  0.00    -0.488 OA
ENDROOT
BRANCH   1   2
ATOM      2  C   UNL     1     120.724 119.693 122.619  1.00  0.00     0.119 A 
ATOM      3  C   UNL     1     119.706 121.124 120.367  1.00  0.00    -0.017 A 
ATOM      4  C   UNL     1     118.889 120.730 121.408  1.00  0.00     0.012 A 
ATOM      5  C   UNL     1     121.049 120.783 120.485  1.00  0.00     0.012 A 
ATOM      6  C   UNL     1     119.399 120.036 122.494  1.00  0.00     0.047 A 
ATOM      7  C   UNL     1     121.550 120.096 121.559  1.00  0.00     0.047 A 
BRANCH   3   8
ATOM      8  C   UNL     1     119.205 121.874 119.228  1.00  0.00    -0.007 C 
ATOM      9  C   UNL     1     119.104 123.178 119.230  1.00  0.00    -0.033 C 
BRANCH   9  10
ATOM     10  C   UNL     1     118.554 123.992 118.111  1.00  0.00     0.033 C 
ATOM     11  C   UNL     1     119.691 124.482 117.263  1.00  0.00     0.009 C 
ENDBRANCH   9  10
BRANCH   9  12
ATOM     12  C   UNL     1     119.609 123.977 120.361  1.00  0.00    -0.022 A 
ATOM     13  C   UNL     1     120.947 124.217 120.542  1.00  0.00     0.008 A 
ATOM     14  C   UNL     1     118.706 124.476 121.250  1.00  0.00     0.008 A 
ATOM     15  C   UNL     1     121.366 124.959 121.617  1.00  0.00     0.001 A 
ATOM     16  C   UNL     1     119.089 125.236 122.359  1.00  0.00     0.001 A 
ATOM     17  C   UNL     1     120.438 125.461 122.514  1.00  0.00     0.000 A 
ENDBRANCH   9  12
BRANCH   8  18
ATOM     18  C   UNL     1     118.769 121.129 118.065  1.00  0.00    -0.018 A 
ATOM     19  C   UNL     1     117.465 120.703 117.908  1.00  0.00     0.009 A 
ATOM     20  C   UNL     1     119.696 120.781 117.087  1.00  0.00     0.009 A 
ATOM     21  C   UNL     1     117.129 119.960 116.805  1.00  0.00     0.001 A 
ATOM     22  C   UNL     1     119.377 120.038 115.974  1.00  0.00     0.001 A 
ATOM     23  C   UNL     1     118.056 119.621 115.839  1.00  0.00     0.000 A 
ENDBRANCH   8  18
ENDBRANCH   3   8
ENDBRANCH   1   2
BRANCH   1  24
ATOM     24  C   UNL     1     121.032 119.164 125.037  1.00  0.00     0.290 C 
BRANCH  24  25
ATOM     25  C   UNL     1     121.293 120.543 125.583  1.00  0.00     0.303 C 
BRANCH  25  26
ATOM     26  N   UNL     1     122.685 120.807 125.789  1.00  0.00    -0.337 N 
ATOM     27  C   UNL     1     122.969 121.430 127.064  1.00  0.00     0.332 C 
ATOM     28  C   UNL     1     123.256 121.655 124.763  1.00  0.00     0.332 C 
ATOM     29  H   UNL     1     123.256 119.910 125.766  1.00  0.00     0.347 HD
ENDBRANCH  25  26
ENDBRANCH  24  25
ENDBRANCH   1  24
TORSDOF 8
ENDMDL
MODEL 2
REMARK VINA RESULT:      -6.6      0.469      1.160
REMARK SMILES CC/C(=C(\c1ccccc1)c1ccc(OCC[NH+](C)C)cc1)c1ccccc1
REMARK SMILES IDX 15 1 14 2 11 3 12 4 22 5 13 6 21 7 4 8 3 9 2 10 1 11 23 12
REMARK SMILES IDX 24 13 28 14 25 15 27 16 26 17 5 18 6 19 10 20 7 21 9 22 8 23
REMARK SMILES IDX 16 24 17 25 18 26 19 27 20 28
REMARK H PARENT 18 29
ROOT
ATOM      1  O   UNL     1     120.975 119.049 123.581  1.00  0.00    -0.488 OA
ENDROOT
BRANCH   1   2
ATOM      2  C   UNL     1     120.550 119.795 122.496  1.00  0.00     0.119 A 
ATOM      3  C   UNL     1     119.565 121.334 120.301  1.00  0.00    -0.017 A 
ATOM      4  C   UNL     1     120.907 121.039 120.439  1.00  0.00     0.012 A 
ATOM      5  C   UNL     1     118.728 120.834 121.294  1.00  0.00     0.012 A 
ATOM      6  C   UNL     1     121.370 120.291 121.510  1.00  0.00     0.047 A 
ATOM      7  C   UNL     1     119.188 120.096 122.352  1.00  0.00     0.047 A 
BRANCH   3   8
ATOM      8  C   UNL     1     119.048 122.094 119.177  1.00  0.00    -0.007 C 
ATOM      9  C   UNL     1     118.847 123.386 119.230  1.00  0.00    -0.033 C 
BRANCH   9  10
ATOM     10  C   UNL     1     118.276 124.205 118.126  1.00  0.00     0.033 C 
ATOM     11  C   UNL     1     119.377 125.010 117.500  1.00  0.00     0.009 C 
ENDBRANCH   9  10
BRANCH   9  12
ATOM     12  C   UNL     1     119.249 124.168 120.413  1.00  0.00    -0.022 A 
ATOM     13  C   UNL     1     120.564 124.318 120.773  1.00  0.00     0.008 A 
ATOM     14  C   UNL     1     118.272 124.745 121.166  1.00  0.00     0.008 A 
ATOM     15  C   UNL     1     120.884 125.049 121.889  1.00  0.00     0.001 A 
ATOM     16  C   UNL     1     118.554 125.497 122.310  1.00  0.00     0.001 A 
ATOM     17  C   UNL     1     119.881 125.630 122.646  1.00  0.00     0.000 A 
ENDBRANCH   9  12
BRANCH   8  18
ATOM     18  C   UNL     1     118.712 121.372 117.967  1.00  0.00    -0.018 A 
ATOM     19  C   UNL     1     117.532 120.667 117.832  1.00  0.00     0.009 A 
ATOM     20  C   UNL     1     119.621 121.339 116.914  1.00  0.00     0.009 A 
ATOM     21  C   UNL     1     117.297 119.965 116.679  1.00  0.00     0.001 A 
ATOM     22  C   UNL     1     119.401 120.641 115.749  1.00  0.00     0.001 A 
ATOM     23  C   UNL     1     118.204 119.939 115.638  1.00  0.00     0.000 A 
ENDBRANCH   8  18
ENDBRANCH   3   8
ENDBRANCH   1   2
BRANCH   1  24
ATOM     24  C   UNL     1     121.001 119.404 124.918  1.00  0.00     0.290 C 
BRANCH  24  25
ATOM     25  C   UNL     1     121.006 120.883 125.203  1.00  0.00     0.303 C 
BRANCH  25  26
ATOM     26  N   UNL     1     122.218 121.329 125.820  1.00  0.00    -0.337 N 
ATOM     27  C   UNL     1     123.265 121.643 124.871  1.00  0.00     0.332 C 
ATOM     28  C   UNL     1     122.763 120.364 126.752  1.00  0.00     0.332 C 
ATOM     29  H   UNL     1     122.061 122.214 126.389  1.00  0.00     0.347 HD
ENDBRANCH  25  26
ENDBRANCH  24  25
ENDBRANCH   1  24
TORSDOF 8
ENDMDL
MODEL 3
REMARK VINA RESULT:      -6.6     14.501     17.063
REMARK SMILES CC/C(=C(\c1ccccc1)c1ccc(OCC[NH+](C)C)cc1)c1ccccc1
REMARK SMILES IDX 15 1 14 2 11 3 12 4 22 5 13 6 21 7 4 8 3 9 2 10 1 11 23 12
REMARK SMILES IDX 24 13 28 14 25 15 27 16 26 17 5 18 6 19 10 20 7 21 9 22 8 23
REMARK SMILES IDX 16 24 17 25 18 26 19 27 20 28
REMARK H PARENT 18 29
ROOT
ATOM      1  O   UNL     1     109.435 111.281 123.293  1.00  0.00    -0.488 OA
ENDROOT
BRANCH   1   2
ATOM      2  C   UNL     1     109.865 110.530 122.215  1.00  0.00     0.119 A 
ATOM      3  C   UNL     1     110.857 108.968 120.038  1.00  0.00    -0.017 A 
ATOM      4  C   UNL     1     109.539 109.375 120.100  1.00  0.00     0.012 A 
ATOM      5  C   UNL     1     111.666 109.367 121.098  1.00  0.00     0.012 A 
ATOM      6  C   UNL     1     109.072 110.133 121.163  1.00  0.00     0.047 A 
ATOM      7  C   UNL     1     111.203 110.115 122.147  1.00  0.00     0.047 A 
BRANCH   3   8
ATOM      8  C   UNL     1     111.380 108.195 118.926  1.00  0.00    -0.007 C 
ATOM      9  C   UNL     1     111.613 106.911 119.006  1.00  0.00    -0.033 C 
BRANCH   9  10
ATOM     10  C   UNL     1     112.191 106.080 117.914  1.00  0.00     0.033 C 
ATOM     11  C   UNL     1     111.147 105.116 117.431  1.00  0.00     0.009 C 
ENDBRANCH   9  10
BRANCH   9  12
ATOM     12  C   UNL     1     111.243 106.146 120.210  1.00  0.00    -0.022 A 
ATOM     13  C   UNL     1     109.937 105.965 120.584  1.00  0.00     0.008 A 
ATOM     14  C   UNL     1     112.243 105.618 120.969  1.00  0.00     0.008 A 
ATOM     15  C   UNL     1     109.647 105.252 121.720  1.00  0.00     0.001 A 
ATOM     16  C   UNL     1     111.993 104.886 122.134  1.00  0.00     0.001 A 
ATOM     17  C   UNL     1     110.673 104.721 122.484  1.00  0.00     0.000 A 
ENDBRANCH   9  12
BRANCH   8  18
ATOM     18  C   UNL     1     111.685 108.898 117.696  1.00  0.00    -0.018 A 
ATOM     19  C   UNL     1     112.719 109.807 117.603  1.00  0.00     0.009 A 
ATOM     20  C   UNL     1     110.885 108.695 116.575  1.00  0.00     0.009 A 
ATOM     21  C   UNL     1     112.924 110.474 116.422  1.00  0.00     0.001 A 
ATOM     22  C   UNL     1     111.077 109.353 115.383  1.00  0.00     0.001 A 
ATOM     23  C   UNL     1     112.127 110.265 115.314  1.00  0.00     0.000 A 
ENDBRANCH   8  18
ENDBRANCH   3   8
ENDBRANCH   1   2
BRANCH   1  24
ATOM     24  C   UNL     1     108.600 110.906 124.331  1.00  0.00     0.290 C 
BRANCH  24  25
ATOM     25  C   UNL     1     109.285 110.551 125.626  1.00  0.00     0.303 C 
BRANCH  25  26
ATOM     26  N   UNL     1     108.974 109.228 126.076  1.00  0.00    -0.337 N 
ATOM     27  C   UNL     1     109.423 108.192 125.172  1.00  0.00     0.332 C 
ATOM     28  C   UNL     1     107.555 109.024 126.287  1.00  0.00     0.332 C 
ATOM     29  H   UNL     1     109.432 109.021 127.014  1.00  0.00     0.347 HD
ENDBRANCH  25  26
ENDBRANCH  24  25
ENDBRANCH   1  24
TORSDOF 8
ENDMDL
MODEL 4
REMARK VINA RESULT:      -6.6     14.333     17.655
REMARK SMILES CC/C(=C(\c1ccccc1)c1ccc(OCC[NH+](C)C)cc1)c1ccccc1
REMARK SMILES IDX 15 1 14 2 11 3 12 4 22 5 13 6 21 7 4 8 3 9 2 10 1 11 23 12
REMARK SMILES IDX 24 13 28 14 25 15 27 16 26 17 5 18 6 19 10 20 7 21 9 22 8 23
REMARK SMILES IDX 16 24 17 25 18 26 19 27 20 28
REMARK H PARENT 18 29
ROOT
ATOM      1  O   UNL     1     113.058 110.290 117.035  1.00  0.00    -0.488 OA
ENDROOT
BRANCH   1   2
ATOM      2  C   UNL     1     112.380 109.964 118.195  1.00  0.00     0.119 A 
ATOM      3  C   UNL     1     111.075 109.235 120.629  1.00  0.00    -0.017 A 
ATOM      4  C   UNL     1     110.462 110.039 119.688  1.00  0.00     0.012 A 
ATOM      5  C   UNL     1     112.360 108.805 120.317  1.00  0.00     0.012 A 
ATOM      6  C   UNL     1     111.109 110.384 118.512  1.00  0.00     0.047 A 
ATOM      7  C   UNL     1     112.997 109.147 119.154  1.00  0.00     0.047 A 
BRANCH   3   8
ATOM      8  C   UNL     1     110.413 108.838 121.859  1.00  0.00    -0.007 C 
ATOM      9  C   UNL     1     110.045 107.605 122.097  1.00  0.00    -0.033 C 
BRANCH   9  10
ATOM     10  C   UNL     1     109.323 107.152 123.317  1.00  0.00     0.033 C 
ATOM     11  C   UNL     1     107.897 106.855 122.956  1.00  0.00     0.009 C 
ENDBRANCH   9  10
BRANCH   9  12
ATOM     12  C   UNL     1     110.392 106.516 121.166  1.00  0.00    -0.022 A 
ATOM     13  C   UNL     1     111.406 105.631 121.428  1.00  0.00     0.008 A 
ATOM     14  C   UNL     1     109.680 106.407 120.010  1.00  0.00     0.008 A 
ATOM     15  C   UNL     1     111.695 104.641 120.523  1.00  0.00     0.001 A 
ATOM     16  C   UNL     1     109.941 105.414 119.061  1.00  0.00     0.001 A 
ATOM     17  C   UNL     1     110.964 104.540 119.351  1.00  0.00     0.000 A 
ENDBRANCH   9  12
BRANCH   8  18
ATOM     18  C   UNL     1     110.122 109.867 122.836  1.00  0.00    -0.018 A 
ATOM     19  C   UNL     1     110.911 110.071 123.951  1.00  0.00     0.009 A 
ATOM     20  C   UNL     1     108.985 110.655 122.683  1.00  0.00     0.009 A 
ATOM     21  C   UNL     1     110.553 111.031 124.861  1.00  0.00     0.001 A 
ATOM     22  C   UNL     1     108.611 111.623 123.586  1.00  0.00     0.001 A 
ATOM     23  C   UNL     1     109.423 111.809 124.701  1.00  0.00     0.000 A 
ENDBRANCH   8  18
ENDBRANCH   3   8
ENDBRANCH   1   2
BRANCH   1  24
ATOM     24  C   UNL     1     112.615 111.029 115.952  1.00  0.00     0.290 C 
BRANCH  24  25
ATOM     25  C   UNL     1     111.354 110.534 115.294  1.00  0.00     0.303 C 
BRANCH  25  26
ATOM     26  N   UNL     1     111.600 109.551 114.284  1.00  0.00    -0.337 N 
ATOM     27  C   UNL     1     111.231 109.987 112.954  1.00  0.00     0.332 C 
ATOM     28  C   UNL     1     110.906 108.304 114.530  1.00  0.00     0.332 C 
ATOM     29  H   UNL     1     112.632 109.296 114.234  1.00  0.00     0.347 HD
ENDBRANCH  25  26
ENDBRANCH  24  25
ENDBRANCH   1  24
TORSDOF 8
ENDMDL
MODEL 5
REMARK VINA RESULT:      -6.6     14.816     17.847
REMARK SMILES CC/C(=C(\c1ccccc1)c1ccc(OCC[NH+](C)C)cc1)c1ccccc1
REMARK SMILES IDX 15 1 14 2 11 3 12 4 22 5 13 6 21 7 4 8 3 9 2 10 1 11 23 12
REMARK SMILES IDX 24 13 28 14 25 15 27 16 26 17 5 18 6 19 10 20 7 21 9 22 8 23
REMARK SMILES IDX 16 24 17 25 18 26 19 27 20 28
REMARK H PARENT 18 29
ROOT
ATOM      1  O   UNL     1     112.411 110.628 116.640  1.00  0.00    -0.488 OA
ENDROOT
BRANCH   1   2
ATOM      2  C   UNL     1     111.977 110.166 117.868  1.00  0.00     0.119 A 
ATOM      3  C   UNL     1     110.969 109.242 120.376  1.00  0.00    -0.017 A 
ATOM      4  C   UNL     1     112.296 109.090 120.024  1.00  0.00     0.012 A 
ATOM      5  C   UNL     1     110.160 109.872 119.436  1.00  0.00     0.012 A 
ATOM      6  C   UNL     1     112.770 109.543 118.803  1.00  0.00     0.047 A 
ATOM      7  C   UNL     1     110.630 110.319 118.230  1.00  0.00     0.047 A 
BRANCH   3   8
ATOM      8  C   UNL     1     110.450 108.798 121.658  1.00  0.00    -0.007 C 
ATOM      9  C   UNL     1     110.240 107.538 121.937  1.00  0.00    -0.033 C 
BRANCH   9  10
ATOM     10  C   UNL     1     109.667 107.032 123.214  1.00  0.00     0.033 C 
ATOM     11  C   UNL     1     108.189 106.839 123.040  1.00  0.00     0.009 C 
ENDBRANCH   9  10
BRANCH   9  12
ATOM     12  C   UNL     1     110.634 106.475 120.994  1.00  0.00    -0.022 A 
ATOM     13  C   UNL     1     109.923 106.220 119.850  1.00  0.00     0.008 A 
ATOM     14  C   UNL     1     111.733 105.728 121.289  1.00  0.00     0.008 A 
ATOM     15  C   UNL     1     110.326 105.212 119.010  1.00  0.00     0.001 A 
ATOM     16  C   UNL     1     112.178 104.692 120.462  1.00  0.00     0.001 A 
ATOM     17  C   UNL     1     111.446 104.459 119.321  1.00  0.00     0.000 A 
ENDBRANCH   9  12
BRANCH   8  18
ATOM     18  C   UNL     1     110.122 109.809 122.643  1.00  0.00    -0.018 A 
ATOM     19  C   UNL     1     110.904 110.033 123.758  1.00  0.00     0.009 A 
ATOM     20  C   UNL     1     108.956 110.554 122.497  1.00  0.00     0.009 A 
ATOM     21  C   UNL     1     110.511 110.972 124.677  1.00  0.00     0.001 A 
ATOM     22  C   UNL     1     108.547 111.501 123.407  1.00  0.00     0.001 A 
ATOM     23  C   UNL     1     109.353 111.708 124.523  1.00  0.00     0.000 A 
ENDBRANCH   8  18
ENDBRANCH   3   8
ENDBRANCH   1   2
BRANCH   1  24
ATOM     24  C   UNL     1     111.831 110.456 115.395  1.00  0.00     0.290 C 
BRANCH  24  25
ATOM     25  C   UNL     1     111.339 109.066 115.089  1.00  0.00     0.303 C 
BRANCH  25  26
ATOM     26  N   UNL     1     111.130 108.843 113.690  1.00  0.00    -0.337 N 
ATOM     27  C   UNL     1     111.090 110.063 112.913  1.00  0.00     0.332 C 
ATOM     28  C   UNL     1     109.907 108.119 113.411  1.00  0.00     0.332 C 
ATOM     29  H   UNL     1     111.910 108.253 113.272  1.00  0.00     0.347 HD
ENDBRANCH  25  26
ENDBRANCH  24  25
ENDBRANCH   1  24
TORSDOF 8
ENDMDL
MODEL 6
REMARK VINA RESULT:      -6.6      0.757      1.447
REMARK SMILES CC/C(=C(\c1ccccc1)c1ccc(OCC[NH+](C)C)cc1)c1ccccc1
REMARK SMILES IDX 15 1 14 2 11 3 12 4 22 5 13 6 21 7 4 8 3 9 2 10 1 11 23 12
REMARK SMILES IDX 24 13 28 14 25 15 27 16 26 17 5 18 6 19 10 20 7 21 9 22 8 23
REMARK SMILES IDX 16 24 17 25 18 26 19 27 20 28
REMARK H PARENT 18 29
ROOT
ATOM      1  O   UNL     1     121.761 119.392 123.229  1.00  0.00    -0.488 OA
ENDROOT
BRANCH   1   2
ATOM      2  C   UNL     1     121.193 120.091 122.179  1.00  0.00     0.119 A 
ATOM      3  C   UNL     1     119.920 121.540 120.072  1.00  0.00    -0.017 A 
ATOM      4  C   UNL     1     121.259 121.206 120.020  1.00  0.00     0.012 A 
ATOM      5  C   UNL     1     119.235 121.127 121.210  1.00  0.00     0.012 A 
ATOM      6  C   UNL     1     121.862 120.502 121.051  1.00  0.00     0.047 A 
ATOM      7  C   UNL     1     119.833 120.432 122.227  1.00  0.00     0.047 A 
BRANCH   3   8
ATOM      8  C   UNL     1     119.256 122.255 118.997  1.00  0.00    -0.007 C 
ATOM      9  C   UNL     1     118.928 123.519 119.086  1.00  0.00    -0.033 C 
BRANCH   9  10
ATOM     10  C   UNL     1     118.205 124.287 118.035  1.00  0.00     0.033 C 
ATOM     11  C   UNL     1     119.173 125.214 117.359  1.00  0.00     0.009 C 
ENDBRANCH   9  10
BRANCH   9  12
ATOM     12  C   UNL     1     119.325 124.326 120.253  1.00  0.00    -0.022 A 
ATOM     13  C   UNL     1     120.633 124.656 120.498  1.00  0.00     0.008 A 
ATOM     14  C   UNL     1     118.351 124.740 121.110  1.00  0.00     0.008 A 
ATOM     15  C   UNL     1     120.951 125.401 121.605  1.00  0.00     0.001 A 
ATOM     16  C   UNL     1     118.630 125.501 122.250  1.00  0.00     0.001 A 
ATOM     17  C   UNL     1     119.951 125.816 122.469  1.00  0.00     0.000 A 
ENDBRANCH   9  12
BRANCH   8  18
ATOM     18  C   UNL     1     118.916 121.515 117.799  1.00  0.00    -0.018 A 
ATOM     19  C   UNL     1     119.624 121.652 116.622  1.00  0.00     0.009 A 
ATOM     20  C   UNL     1     117.811 120.669 117.807  1.00  0.00     0.009 A 
ATOM     21  C   UNL     1     119.221 120.958 115.510  1.00  0.00     0.001 A 
ATOM     22  C   UNL     1     117.393 119.964 116.702  1.00  0.00     0.001 A 
ATOM     23  C   UNL     1     118.124 120.119 115.528  1.00  0.00     0.000 A 
ENDBRANCH   8  18
ENDBRANCH   3   8
ENDBRANCH   1   2
BRANCH   1  24
ATOM     24  C   UNL     1     121.136 118.793 124.308  1.00  0.00     0.290 C 
BRANCH  24  25
ATOM     25  C   UNL     1     121.070 119.619 125.567  1.00  0.00     0.303 C 
BRANCH  25  26
ATOM     26  N   UNL     1     122.074 120.637 125.619  1.00  0.00    -0.337 N 
ATOM     27  C   UNL     1     122.993 120.483 126.726  1.00  0.00     0.332 C 
ATOM     28  C   UNL     1     121.518 121.972 125.711  1.00  0.00     0.332 C 
ATOM     29  H   UNL     1     122.670 120.639 124.739  1.00  0.00     0.347 HD
ENDBRANCH  25  26
ENDBRANCH  24  25
ENDBRANCH   1  24
TORSDOF 8
ENDMDL
MODEL 7
REMARK VINA RESULT:      -6.6      3.227      6.833
REMARK SMILES CC/C(=C(\c1ccccc1)c1ccc(OCC[NH+](C)C)cc1)c1ccccc1
REMARK SMILES IDX 15 1 14 2 11 3 12 4 22 5 13 6 21 7 4 8 3 9 2 10 1 11 23 12
REMARK SMILES IDX 24 13 28 14 25 15 27 16 26 17 5 18 6 19 10 20 7 21 9 22 8 23
REMARK SMILES IDX 16 24 17 25 18 26 19 27 20 28
REMARK H PARENT 18 29
ROOT
ATOM      1  O   UNL     1     118.352 119.410 116.492  1.00  0.00    -0.488 OA
ENDROOT
BRANCH   1   2
ATOM      2  C   UNL     1     118.694 119.943 117.721  1.00  0.00     0.119 A 
ATOM      3  C   UNL     1     119.512 121.025 120.235  1.00  0.00    -0.017 A 
ATOM      4  C   UNL     1     118.192 121.043 119.830  1.00  0.00     0.012 A 
ATOM      5  C   UNL     1     120.412 120.448 119.345  1.00  0.00     0.012 A 
ATOM      6  C   UNL     1     117.810 120.514 118.607  1.00  0.00     0.047 A 
ATOM      7  C   UNL     1     120.033 119.926 118.137  1.00  0.00     0.047 A 
BRANCH   3   8
ATOM      8  C   UNL     1     119.937 121.549 121.521  1.00  0.00    -0.007 C 
ATOM      9  C   UNL     1     120.033 122.831 121.764  1.00  0.00    -0.033 C 
BRANCH   9  10
ATOM     10  C   UNL     1     120.508 123.422 123.046  1.00  0.00     0.033 C 
ATOM     11  C   UNL     1     121.970 123.736 122.923  1.00  0.00     0.009 C 
ENDBRANCH   9  10
BRANCH   9  12
ATOM     12  C   UNL     1     119.597 123.827 120.769  1.00  0.00    -0.022 A 
ATOM     13  C   UNL     1     118.379 124.451 120.851  1.00  0.00     0.008 A 
ATOM     14  C   UNL     1     120.438 124.118 119.738  1.00  0.00     0.008 A 
ATOM     15  C   UNL     1     118.017 125.364 119.893  1.00  0.00     0.001 A 
ATOM     16  C   UNL     1     120.109 125.040 118.741  1.00  0.00     0.001 A 
ATOM     17  C   UNL     1     118.881 125.651 118.849  1.00  0.00     0.000 A 
ENDBRANCH   9  12
BRANCH   8  18
ATOM     18  C   UNL     1     120.302 120.600 122.553  1.00  0.00    -0.018 A 
ATOM     19  C   UNL     1     119.482 120.331 123.630  1.00  0.00     0.009 A 
ATOM     20  C   UNL     1     121.540 119.967 122.494  1.00  0.00     0.009 A 
ATOM     21  C   UNL     1     119.908 119.457 124.597  1.00  0.00     0.001 A 
ATOM     22  C   UNL     1     121.983 119.087 123.455  1.00  0.00     0.001 A 
ATOM     23  C   UNL     1     121.138 118.832 124.530  1.00  0.00     0.000 A 
ENDBRANCH   8  18
ENDBRANCH   3   8
ENDBRANCH   1   2
BRANCH   1  24
ATOM     24  C   UNL     1     118.826 119.752 115.238  1.00  0.00     0.290 C 
BRANCH  24  25
ATOM     25  C   UNL     1     118.802 121.222 114.908  1.00  0.00     0.303 C 
BRANCH  25  26
ATOM     26  N   UNL     1     119.243 121.502 113.575  1.00  0.00    -0.337 N 
ATOM     27  C   UNL     1     119.499 120.312 112.792  1.00  0.00     0.332 C 
ATOM     28  C   UNL     1     120.449 122.303 113.538  1.00  0.00     0.332 C 
ATOM     29  H   UNL     1     118.516 122.060 113.036  1.00  0.00     0.347 HD
ENDBRANCH  25  26
ENDBRANCH  24  25
ENDBRANCH   1  24
TORSDOF 8
ENDMDL
MODEL 8
REMARK VINA RESULT:      -6.6      3.159      6.697
REMARK SMILES CC/C(=C(\c1ccccc1)c1ccc(OCC[NH+](C)C)cc1)c1ccccc1
REMARK SMILES IDX 15 1 14 2 11 3 12 4 22 5 13 6 21 7 4 8 3 9 2 10 1 11 23 12
REMARK SMILES IDX 24 13 28 14 25 15 27 16 26 17 5 18 6 19 10 20 7 21 9 22 8 23
REMARK SMILES IDX 16 24 17 25 18 26 19 27 20 28
REMARK H PARENT 18 29
ROOT
ATOM      1  O   UNL     1     118.423 119.509 116.434  1.00  0.00    -0.488 OA
ENDROOT
BRANCH   1   2
ATOM      2  C   UNL     1     118.839 119.975 117.667  1.00  0.00     0.119 A 
ATOM      3  C   UNL     1     119.587 120.958 120.243  1.00  0.00    -0.017 A 
ATOM      4  C   UNL     1     120.516 120.431 119.368  1.00  0.00     0.012 A 
ATOM      5  C   UNL     1     118.271 120.980 119.792  1.00  0.00     0.012 A 
ATOM      6  C   UNL     1     120.137 119.958 118.121  1.00  0.00     0.047 A 
ATOM      7  C   UNL     1     117.899 120.511 118.559  1.00  0.00     0.047 A 
BRANCH   3   8
ATOM      8  C   UNL     1     119.957 121.483 121.545  1.00  0.00    -0.007 C 
ATOM      9  C   UNL     1     120.050 122.764 121.790  1.00  0.00    -0.033 C 
BRANCH   9  10
ATOM     10  C   UNL     1     120.471 123.355 123.090  1.00  0.00     0.033 C 
ATOM     11  C   UNL     1     121.906 123.783 122.987  1.00  0.00     0.009 C 
ENDBRANCH   9  10
BRANCH   9  12
ATOM     12  C   UNL     1     119.665 123.761 120.774  1.00  0.00    -0.022 A 
ATOM     13  C   UNL     1     120.486 124.083 119.724  1.00  0.00     0.008 A 
ATOM     14  C   UNL     1     118.458 124.378 120.904  1.00  0.00     0.008 A 
ATOM     15  C   UNL     1     120.084 125.026 118.811  1.00  0.00     0.001 A 
ATOM     16  C   UNL     1     118.009 125.344 119.998  1.00  0.00     0.001 A 
ATOM     17  C   UNL     1     118.854 125.646 118.954  1.00  0.00     0.000 A 
ENDBRANCH   9  12
BRANCH   8  18
ATOM     18  C   UNL     1     120.270 120.534 122.595  1.00  0.00    -0.018 A 
ATOM     19  C   UNL     1     119.443 120.339 123.683  1.00  0.00     0.009 A 
ATOM     20  C   UNL     1     121.466 119.824 122.541  1.00  0.00     0.009 A 
ATOM     21  C   UNL     1     119.822 119.460 124.665  1.00  0.00     0.001 A 
ATOM     22  C   UNL     1     121.861 118.938 123.517  1.00  0.00     0.001 A 
ATOM     23  C   UNL     1     121.010 118.758 124.603  1.00  0.00     0.000 A 
ENDBRANCH   8  18
ENDBRANCH   3   8
ENDBRANCH   1   2
BRANCH   1  24
ATOM     24  C   UNL     1     118.118 120.231 115.293  1.00  0.00     0.290 C 
BRANCH  24  25
ATOM     25  C   UNL     1     119.266 120.480 114.350  1.00  0.00     0.303 C 
BRANCH  25  26
ATOM     26  N   UNL     1     119.511 121.872 114.123  1.00  0.00    -0.337 N 
ATOM     27  C   UNL     1     120.601 122.122 113.206  1.00  0.00     0.332 C 
ATOM     28  C   UNL     1     119.804 122.597 115.342  1.00  0.00     0.332 C 
ATOM     29  H   UNL     1     118.658 122.352 113.706  1.00  0.00     0.347 HD
ENDBRANCH  25  26
ENDBRANCH  24  25
ENDBRANCH   1  24
TORSDOF 8
ENDMDL
MODEL 9
REMARK VINA RESULT:      -6.6      2.043      3.322
REMARK SMILES CC/C(=C(\c1ccccc1)c1ccc(OCC[NH+](C)C)cc1)c1ccccc1
REMARK SMILES IDX 15 1 14 2 11 3 12 4 22 5 13 6 21 7 4 8 3 9 2 10 1 11 23 12
REMARK SMILES IDX 24 13 28 14 25 15 27 16 26 17 5 18 6 19 10 20 7 21 9 22 8 23
REMARK SMILES IDX 16 24 17 25 18 26 19 27 20 28
REMARK H PARENT 18 29
ROOT
ATOM      1  O   UNL     1     121.259 119.132 125.575  1.00  0.00    -0.488 OA
ENDROOT
BRANCH   1   2
ATOM      2  C   UNL     1     121.227 119.597 124.273  1.00  0.00     0.119 A 
ATOM      3  C   UNL     1     121.097 120.649 121.621  1.00  0.00    -0.017 A 
ATOM      4  C   UNL     1     121.855 119.535 121.925  1.00  0.00     0.012 A 
ATOM      5  C   UNL     1     120.404 121.221 122.682  1.00  0.00     0.012 A 
ATOM      6  C   UNL     1     121.908 119.037 123.218  1.00  0.00     0.047 A 
ATOM      7  C   UNL     1     120.459 120.727 123.959  1.00  0.00     0.047 A 
BRANCH   3   8
ATOM      8  C   UNL     1     121.003 121.178 120.272  1.00  0.00    -0.007 C 
ATOM      9  C   UNL     1     121.928 121.938 119.745  1.00  0.00    -0.033 C 
BRANCH   9  10
ATOM     10  C   UNL     1     121.861 122.546 118.387  1.00  0.00     0.033 C 
ATOM     11  C   UNL     1     121.458 123.985 118.519  1.00  0.00     0.009 C 
ENDBRANCH   9  10
BRANCH   9  12
ATOM     12  C   UNL     1     123.189 122.206 120.461  1.00  0.00    -0.022 A 
ATOM     13  C   UNL     1     123.256 123.088 121.509  1.00  0.00     0.008 A 
ATOM     14  C   UNL     1     124.313 121.558 120.049  1.00  0.00     0.008 A 
ATOM     15  C   UNL     1     124.457 123.310 122.135  1.00  0.00     0.001 A 
ATOM     16  C   UNL     1     125.556 121.754 120.658  1.00  0.00     0.001 A 
ATOM     17  C   UNL     1     125.593 122.644 121.707  1.00  0.00     0.000 A 
ENDBRANCH   9  12
BRANCH   8  18
ATOM     18  C   UNL     1     119.812 120.874 119.505  1.00  0.00    -0.018 A 
ATOM     19  C   UNL     1     119.768 119.843 118.588  1.00  0.00     0.009 A 
ATOM     20  C   UNL     1     118.680 121.670 119.653  1.00  0.00     0.009 A 
ATOM     21  C   UNL     1     118.624 119.638 117.861  1.00  0.00     0.001 A 
ATOM     22  C   UNL     1     117.524 121.478 118.933  1.00  0.00     0.001 A 
ATOM     23  C   UNL     1     117.505 120.432 118.016  1.00  0.00     0.000 A 
ENDBRANCH   8  18
ENDBRANCH   3   8
ENDBRANCH   1   2
BRANCH   1  24
ATOM     24  C   UNL     1     121.488 119.840 126.742  1.00  0.00     0.290 C 
BRANCH  24  25
ATOM     25  C   UNL     1     122.806 120.565 126.820  1.00  0.00     0.303 C 
BRANCH  25  26
ATOM     26  N   UNL     1     122.674 121.982 126.667  1.00  0.00    -0.337 N 
ATOM     27  C   UNL     1     123.440 122.515 125.562  1.00  0.00     0.332 C 
ATOM     28  C   UNL     1     123.068 122.715 127.852  1.00  0.00     0.332 C 
ATOM     29  H   UNL     1     121.663 122.259 126.486  1.00  0.00     0.347 HD
ENDBRANCH  25  26
ENDBRANCH  24  25
ENDBRANCH   1  24
TORSDOF 8
ENDMDL
