MODEL 1
REMARK VINA RESULT:      -9.7      0.000      0.000
REMARK SMILES O=C(CCC[NH+]1CCC(O)(c2ccc(Cl)cc2)CC1)c1ccc(F)cc1
REMARK SMILES IDX 4 1 3 2 2 3 1 4 20 5 21 6 26 7 22 8 25 9 23 10 24 11 5 12
REMARK SMILES IDX 6 13 7 14 19 15 8 16 18 17 9 18 10 20 11 22 12 23 17 24
REMARK SMILES IDX 13 25 16 26 14 27 15 28
REMARK H PARENT 6 19 10 21
ROOT
ATOM      1  C   UNL     1      43.037  10.269 -38.496  1.00  0.00     0.070 C 
ENDROOT
BRANCH   1   2
ATOM      2  C   UNL     1      44.408  10.845 -38.216  1.00  0.00     0.087 C 
BRANCH   2   3
ATOM      3  C   UNL     1      44.807  10.793 -36.808  1.00  0.00     0.163 C 
ATOM      4  O   UNL     1      45.687   9.989 -36.404  1.00  0.00    -0.294 OA
BRANCH   3   5
ATOM      5  C   UNL     1      44.210  11.675 -35.783  1.00  0.00     0.018 A 
ATOM      6  C   UNL     1      44.700  12.953 -35.585  1.00  0.00     0.015 A 
ATOM      7  C   UNL     1      43.162  11.249 -35.008  1.00  0.00     0.015 A 
ATOM      8  C   UNL     1      44.140  13.768 -34.629  1.00  0.00     0.040 A 
ATOM      9  C   UNL     1      42.599  12.054 -34.055  1.00  0.00     0.040 A 
ATOM     10  C   UNL     1      43.092  13.317 -33.868  1.00  0.00     0.123 A 
ATOM     11  F   UNL     1      42.505  14.093 -32.903  1.00  0.00    -0.207 F 
ENDBRANCH   3   5
ENDBRANCH   2   3
ENDBRANCH   1   2
BRANCH   1  12
ATOM     12  C   UNL     1      43.004   8.866 -37.992  1.00  0.00     0.262 C 
BRANCH  12  13
ATOM     13  N   UNL     1      43.077   7.881 -39.064  1.00  0.00    -0.335 N 
ATOM     14  C   UNL     1      43.220   6.546 -38.570  1.00  0.00     0.265 C 
ATOM     15  C   UNL     1      41.932   7.989 -39.909  1.00  0.00     0.265 C 
ATOM     16  C   UNL     1      42.063   6.154 -37.692  1.00  0.00     0.102 C 
ATOM     17  C   UNL     1      40.905   6.945 -39.782  1.00  0.00     0.102 C 
ATOM     18  C   UNL     1      40.793   6.229 -38.486  1.00  0.00     0.100 C 
ATOM     19  H   UNL     1      43.980   8.110 -39.576  1.00  0.00     0.348 HD
BRANCH  18  20
ATOM     20  O   UNL     1      40.441   4.890 -38.784  1.00  0.00    -0.385 OA
ATOM     21  H   UNL     1      39.550   4.921 -39.214  1.00  0.00     0.211 HD
ENDBRANCH  18  20
BRANCH  18  22
ATOM     22  C   UNL     1      39.649   6.729 -37.644  1.00  0.00    -0.016 A 
ATOM     23  C   UNL     1      38.424   6.095 -37.624  1.00  0.00     0.008 A 
ATOM     24  C   UNL     1      39.751   7.845 -36.843  1.00  0.00     0.008 A 
ATOM     25  C   UNL     1      37.354   6.519 -36.869  1.00  0.00     0.021 A 
ATOM     26  C   UNL     1      38.691   8.290 -36.078  1.00  0.00     0.021 A 
ATOM     27  C   UNL     1      37.494   7.627 -36.091  1.00  0.00     0.041 A 
ATOM     28  Cl  UNL     1      36.149   8.181 -35.124  1.00  0.00    -0.084 Cl
ENDBRANCH  18  22
ENDBRANCH  12  13
ENDBRANCH   1  12
TORSDOF 7
ENDMDL
MODEL 2
REMARK VINA RESULT:      -9.6      2.580      3.501
REMARK SMILES O=C(CCC[NH+]1CCC(O)(c2ccc(Cl)cc2)CC1)c1ccc(F)cc1
REMARK SMILES IDX 4 1 3 2 2 3 1 4 20 5 21 6 26 7 22 8 25 9 23 10 24 11 5 12
REMARK SMILES IDX 6 13 7 14 19 15 8 16 18 17 9 18 10 20 11 22 12 23 17 24
REMARK SMILES IDX 13 25 16 26 14 27 15 28
REMARK H PARENT 6 19 10 21
ROOT
ATOM      1  C   UNL     1      43.734  11.042 -35.167  1.00  0.00     0.070 C 
ENDROOT
BRANCH   1   2
ATOM      2  C   UNL     1      44.530  12.256 -35.591  1.00  0.00     0.087 C 
BRANCH   2   3
ATOM      3  C   UNL     1      44.260  13.460 -34.802  1.00  0.00     0.163 C 
ATOM      4  O   UNL     1      43.221  13.565 -34.099  1.00  0.00    -0.294 OA
BRANCH   3   5
ATOM      5  C   UNL     1      45.180  14.616 -34.781  1.00  0.00     0.018 A 
ATOM      6  C   UNL     1      45.057  15.629 -35.714  1.00  0.00     0.015 A 
ATOM      7  C   UNL     1      46.173  14.712 -33.839  1.00  0.00     0.015 A 
ATOM      8  C   UNL     1      45.917  16.702 -35.689  1.00  0.00     0.040 A 
ATOM      9  C   UNL     1      47.033  15.777 -33.808  1.00  0.00     0.040 A 
ATOM     10  C   UNL     1      46.901  16.773 -34.736  1.00  0.00     0.123 A 
ATOM     11  F   UNL     1      47.781  17.821 -34.674  1.00  0.00    -0.207 F 
ENDBRANCH   3   5
ENDBRANCH   2   3
ENDBRANCH   1   2
BRANCH   1  12
ATOM     12  C   UNL     1      42.962  10.551 -36.344  1.00  0.00     0.262 C 
BRANCH  12  13
ATOM     13  N   UNL     1      43.796  10.359 -37.524  1.00  0.00    -0.335 N 
ATOM     14  C   UNL     1      44.541   9.138 -37.474  1.00  0.00     0.265 C 
ATOM     15  C   UNL     1      42.996  10.416 -38.704  1.00  0.00     0.265 C 
ATOM     16  C   UNL     1      43.636   7.941 -37.377  1.00  0.00     0.102 C 
ATOM     17  C   UNL     1      42.718   9.145 -39.387  1.00  0.00     0.102 C 
ATOM     18  C   UNL     1      42.743   7.899 -38.581  1.00  0.00     0.100 C 
ATOM     19  H   UNL     1      44.508  11.147 -37.479  1.00  0.00     0.348 HD
BRANCH  18  20
ATOM     20  O   UNL     1      43.262   6.878 -39.415  1.00  0.00    -0.385 OA
ATOM     21  H   UNL     1      44.033   7.271 -39.896  1.00  0.00     0.211 HD
ENDBRANCH  18  20
BRANCH  18  22
ATOM     22  C   UNL     1      41.363   7.411 -38.223  1.00  0.00    -0.016 A 
ATOM     23  C   UNL     1      40.712   6.448 -38.966  1.00  0.00     0.008 A 
ATOM     24  C   UNL     1      40.666   7.893 -37.137  1.00  0.00     0.008 A 
ATOM     25  C   UNL     1      39.453   5.976 -38.673  1.00  0.00     0.021 A 
ATOM     26  C   UNL     1      39.402   7.435 -36.824  1.00  0.00     0.021 A 
ATOM     27  C   UNL     1      38.797   6.477 -37.592  1.00  0.00     0.041 A 
ATOM     28  Cl  UNL     1      37.198   5.890 -37.202  1.00  0.00    -0.084 Cl
ENDBRANCH  18  22
ENDBRANCH  12  13
ENDBRANCH   1  12
TORSDOF 7
ENDMDL
MODEL 3
REMARK VINA RESULT:      -9.1      3.044      6.408
REMARK SMILES O=C(CCC[NH+]1CCC(O)(c2ccc(Cl)cc2)CC1)c1ccc(F)cc1
REMARK SMILES IDX 4 1 3 2 2 3 1 4 20 5 21 6 26 7 22 8 25 9 23 10 24 11 5 12
REMARK SMILES IDX 6 13 7 14 19 15 8 16 18 17 9 18 10 20 11 22 12 23 17 24
REMARK SMILES IDX 13 25 16 26 14 27 15 28
REMARK H PARENT 6 19 10 21
ROOT
ATOM      1  C   UNL     1      39.437   5.993 -37.722  1.00  0.00     0.070 C 
ENDROOT
BRANCH   1   2
ATOM      2  C   UNL     1      38.977   7.069 -36.764  1.00  0.00     0.087 C 
BRANCH   2   3
ATOM      3  C   UNL     1      37.565   6.977 -36.387  1.00  0.00     0.163 C 
ATOM      4  O   UNL     1      36.934   5.891 -36.463  1.00  0.00    -0.294 OA
BRANCH   3   5
ATOM      5  C   UNL     1      36.798   8.141 -35.896  1.00  0.00     0.018 A 
ATOM      6  C   UNL     1      35.731   7.967 -35.033  1.00  0.00     0.015 A 
ATOM      7  C   UNL     1      37.125   9.416 -36.281  1.00  0.00     0.015 A 
ATOM      8  C   UNL     1      35.022   9.054 -34.581  1.00  0.00     0.040 A 
ATOM      9  C   UNL     1      36.424  10.504 -35.834  1.00  0.00     0.040 A 
ATOM     10  C   UNL     1      35.370  10.318 -34.982  1.00  0.00     0.123 A 
ATOM     11  F   UNL     1      34.691  11.431 -34.558  1.00  0.00    -0.207 F 
ENDBRANCH   3   5
ENDBRANCH   2   3
ENDBRANCH   1   2
BRANCH   1  12
ATOM     12  C   UNL     1      40.884   5.733 -37.477  1.00  0.00     0.262 C 
BRANCH  12  13
ATOM     13  N   UNL     1      41.643   5.569 -38.710  1.00  0.00    -0.335 N 
ATOM     14  C   UNL     1      41.186   6.435 -39.753  1.00  0.00     0.265 C 
ATOM     15  C   UNL     1      43.034   5.767 -38.460  1.00  0.00     0.265 C 
ATOM     16  C   UNL     1      41.297   7.882 -39.359  1.00  0.00     0.102 C 
ATOM     17  C   UNL     1      43.625   7.029 -38.928  1.00  0.00     0.102 C 
ATOM     18  C   UNL     1      42.733   8.206 -39.073  1.00  0.00     0.100 C 
ATOM     19  H   UNL     1      41.427   4.577 -39.027  1.00  0.00     0.348 HD
BRANCH  18  20
ATOM     20  O   UNL     1      43.197   8.939 -40.193  1.00  0.00    -0.385 OA
ATOM     21  H   UNL     1      43.630   9.755 -39.837  1.00  0.00     0.211 HD
ENDBRANCH  18  20
BRANCH  18  22
ATOM     22  C   UNL     1      42.859   9.174 -37.926  1.00  0.00    -0.016 A 
ATOM     23  C   UNL     1      41.829   9.388 -37.033  1.00  0.00     0.008 A 
ATOM     24  C   UNL     1      44.003   9.906 -37.696  1.00  0.00     0.008 A 
ATOM     25  C   UNL     1      41.903  10.263 -35.973  1.00  0.00     0.021 A 
ATOM     26  C   UNL     1      44.100  10.790 -36.640  1.00  0.00     0.021 A 
ATOM     27  C   UNL     1      43.050  10.967 -35.779  1.00  0.00     0.041 A 
ATOM     28  Cl  UNL     1      43.165  12.082 -34.439  1.00  0.00    -0.084 Cl
ENDBRANCH  18  22
ENDBRANCH  12  13
ENDBRANCH   1  12
TORSDOF 7
ENDMDL
MODEL 4
REMARK VINA RESULT:      -9.0      3.065      6.386
REMARK SMILES O=C(CCC[NH+]1CCC(O)(c2ccc(Cl)cc2)CC1)c1ccc(F)cc1
REMARK SMILES IDX 4 1 3 2 2 3 1 4 20 5 21 6 26 7 22 8 25 9 23 10 24 11 5 12
REMARK SMILES IDX 6 13 7 14 19 15 8 16 18 17 9 18 10 20 11 22 12 23 17 24
REMARK SMILES IDX 13 25 16 26 14 27 15 28
REMARK H PARENT 6 19 10 21
ROOT
ATOM      1  C   UNL     1      39.390   6.209 -37.660  1.00  0.00     0.070 C 
ENDROOT
BRANCH   1   2
ATOM      2  C   UNL     1      38.873   6.832 -36.382  1.00  0.00     0.087 C 
BRANCH   2   3
ATOM      3  C   UNL     1      37.415   6.951 -36.316  1.00  0.00     0.163 C 
ATOM      4  O   UNL     1      36.663   5.998 -36.647  1.00  0.00    -0.294 OA
BRANCH   3   5
ATOM      5  C   UNL     1      36.740   8.184 -35.859  1.00  0.00     0.018 A 
ATOM      6  C   UNL     1      37.122   9.418 -36.354  1.00  0.00     0.015 A 
ATOM      7  C   UNL     1      35.725   8.135 -34.939  1.00  0.00     0.015 A 
ATOM      8  C   UNL     1      36.491  10.561 -35.925  1.00  0.00     0.040 A 
ATOM      9  C   UNL     1      35.091   9.269 -34.506  1.00  0.00     0.040 A 
ATOM     10  C   UNL     1      35.478  10.484 -35.003  1.00  0.00     0.123 A 
ATOM     11  F   UNL     1      34.822  11.597 -34.545  1.00  0.00    -0.207 F 
ENDBRANCH   3   5
ENDBRANCH   2   3
ENDBRANCH   1   2
BRANCH   1  12
ATOM     12  C   UNL     1      40.790   5.755 -37.430  1.00  0.00     0.262 C 
BRANCH  12  13
ATOM     13  N   UNL     1      41.539   5.587 -38.668  1.00  0.00    -0.335 N 
ATOM     14  C   UNL     1      41.079   6.457 -39.708  1.00  0.00     0.265 C 
ATOM     15  C   UNL     1      42.933   5.777 -38.429  1.00  0.00     0.265 C 
ATOM     16  C   UNL     1      41.201   7.903 -39.314  1.00  0.00     0.102 C 
ATOM     17  C   UNL     1      43.527   7.036 -38.901  1.00  0.00     0.102 C 
ATOM     18  C   UNL     1      42.641   8.219 -39.039  1.00  0.00     0.100 C 
ATOM     19  H   UNL     1      41.315   4.597 -38.984  1.00  0.00     0.348 HD
BRANCH  18  20
ATOM     20  O   UNL     1      43.101   8.949 -40.162  1.00  0.00    -0.385 OA
ATOM     21  H   UNL     1      42.940   8.379 -40.955  1.00  0.00     0.211 HD
ENDBRANCH  18  20
BRANCH  18  22
ATOM     22  C   UNL     1      42.781   9.186 -37.892  1.00  0.00    -0.016 A 
ATOM     23  C   UNL     1      43.930   9.923 -37.692  1.00  0.00     0.008 A 
ATOM     24  C   UNL     1      41.775   9.396 -36.974  1.00  0.00     0.008 A 
ATOM     25  C   UNL     1      44.097  10.815 -36.658  1.00  0.00     0.021 A 
ATOM     26  C   UNL     1      41.921  10.286 -35.929  1.00  0.00     0.021 A 
ATOM     27  C   UNL     1      43.081  10.995 -35.772  1.00  0.00     0.041 A 
ATOM     28  Cl  UNL     1      43.273  12.124 -34.453  1.00  0.00    -0.084 Cl
ENDBRANCH  18  22
ENDBRANCH  12  13
ENDBRANCH   1  12
TORSDOF 7
ENDMDL
MODEL 5
REMARK VINA RESULT:      -8.9      0.722      1.232
REMARK SMILES O=C(CCC[NH+]1CCC(O)(c2ccc(Cl)cc2)CC1)c1ccc(F)cc1
REMARK SMILES IDX 4 1 3 2 2 3 1 4 20 5 21 6 26 7 22 8 25 9 23 10 24 11 5 12
REMARK SMILES IDX 6 13 7 14 19 15 8 16 18 17 9 18 10 20 11 22 12 23 17 24
REMARK SMILES IDX 13 25 16 26 14 27 15 28
REMARK H PARENT 6 19 10 21
ROOT
ATOM      1  C   UNL     1      43.623   8.832 -37.732  1.00  0.00     0.070 C 
ENDROOT
BRANCH   1   2
ATOM      2  C   UNL     1      43.803  10.334 -37.723  1.00  0.00     0.087 C 
BRANCH   2   3
ATOM      3  C   UNL     1      44.617  10.836 -36.614  1.00  0.00     0.163 C 
ATOM      4  O   UNL     1      45.819  10.493 -36.473  1.00  0.00    -0.294 OA
BRANCH   3   5
ATOM      5  C   UNL     1      44.084  11.771 -35.601  1.00  0.00     0.018 A 
ATOM      6  C   UNL     1      44.685  13.000 -35.393  1.00  0.00     0.015 A 
ATOM      7  C   UNL     1      42.986  11.444 -34.846  1.00  0.00     0.015 A 
ATOM      8  C   UNL     1      44.184  13.864 -34.449  1.00  0.00     0.040 A 
ATOM      9  C   UNL     1      42.481  12.300 -33.904  1.00  0.00     0.040 A 
ATOM     10  C   UNL     1      43.084  13.512 -33.708  1.00  0.00     0.123 A 
ATOM     11  F   UNL     1      42.552  14.341 -32.754  1.00  0.00    -0.207 F 
ENDBRANCH   3   5
ENDBRANCH   2   3
ENDBRANCH   1   2
BRANCH   1  12
ATOM     12  C   UNL     1      42.262   8.524 -38.256  1.00  0.00     0.262 C 
BRANCH  12  13
ATOM     13  N   UNL     1      42.241   7.343 -39.110  1.00  0.00    -0.335 N 
ATOM     14  C   UNL     1      42.348   6.127 -38.363  1.00  0.00     0.265 C 
ATOM     15  C   UNL     1      41.064   7.341 -39.916  1.00  0.00     0.265 C 
ATOM     16  C   UNL     1      41.217   5.979 -37.382  1.00  0.00     0.102 C 
ATOM     17  C   UNL     1      39.999   6.399 -39.544  1.00  0.00     0.102 C 
ATOM     18  C   UNL     1      39.916   5.962 -38.128  1.00  0.00     0.100 C 
ATOM     19  H   UNL     1      43.129   7.417 -39.691  1.00  0.00     0.348 HD
BRANCH  18  20
ATOM     20  O   UNL     1      39.491   4.610 -38.138  1.00  0.00    -0.385 OA
ATOM     21  H   UNL     1      38.587   4.596 -37.735  1.00  0.00     0.211 HD
ENDBRANCH  18  20
BRANCH  18  22
ATOM     22  C   UNL     1      38.836   6.679 -37.362  1.00  0.00    -0.016 A 
ATOM     23  C   UNL     1      39.052   7.902 -36.763  1.00  0.00     0.008 A 
ATOM     24  C   UNL     1      37.568   6.162 -37.211  1.00  0.00     0.008 A 
ATOM     25  C   UNL     1      38.093   8.590 -36.055  1.00  0.00     0.021 A 
ATOM     26  C   UNL     1      36.590   6.833 -36.504  1.00  0.00     0.021 A 
ATOM     27  C   UNL     1      36.853   8.046 -35.927  1.00  0.00     0.041 A 
ATOM     28  Cl  UNL     1      35.620   8.903 -35.033  1.00  0.00    -0.084 Cl
ENDBRANCH  18  22
ENDBRANCH  12  13
ENDBRANCH   1  12
TORSDOF 7
ENDMDL
MODEL 6
REMARK VINA RESULT:      -8.8      0.923      1.372
REMARK SMILES O=C(CCC[NH+]1CCC(O)(c2ccc(Cl)cc2)CC1)c1ccc(F)cc1
REMARK SMILES IDX 4 1 3 2 2 3 1 4 20 5 21 6 26 7 22 8 25 9 23 10 24 11 5 12
REMARK SMILES IDX 6 13 7 14 19 15 8 16 18 17 9 18 10 20 11 22 12 23 17 24
REMARK SMILES IDX 13 25 16 26 14 27 15 28
REMARK H PARENT 6 19 10 21
ROOT
ATOM      1  C   UNL     1      43.430   8.811 -37.178  1.00  0.00     0.070 C 
ENDROOT
BRANCH   1   2
ATOM      2  C   UNL     1      44.688   9.433 -36.616  1.00  0.00     0.087 C 
BRANCH   2   3
ATOM      3  C   UNL     1      44.744  10.892 -36.733  1.00  0.00     0.163 C 
ATOM      4  O   UNL     1      45.280  11.452 -37.724  1.00  0.00    -0.294 OA
BRANCH   3   5
ATOM      5  C   UNL     1      44.178  11.791 -35.705  1.00  0.00     0.018 A 
ATOM      6  C   UNL     1      43.086  11.398 -34.953  1.00  0.00     0.015 A 
ATOM      7  C   UNL     1      44.720  13.030 -35.474  1.00  0.00     0.015 A 
ATOM      8  C   UNL     1      42.564  12.239 -33.999  1.00  0.00     0.040 A 
ATOM      9  C   UNL     1      44.206  13.873 -34.525  1.00  0.00     0.040 A 
ATOM     10  C   UNL     1      43.126  13.473 -33.787  1.00  0.00     0.123 A 
ATOM     11  F   UNL     1      42.638  14.345 -32.849  1.00  0.00    -0.207 F 
ENDBRANCH   3   5
ENDBRANCH   2   3
ENDBRANCH   1   2
BRANCH   1  12
ATOM     12  C   UNL     1      43.737   7.410 -37.584  1.00  0.00     0.262 C 
BRANCH  12  13
ATOM     13  N   UNL     1      43.586   7.192 -39.016  1.00  0.00    -0.335 N 
ATOM     14  C   UNL     1      43.269   5.832 -39.332  1.00  0.00     0.265 C 
ATOM     15  C   UNL     1      42.601   8.078 -39.546  1.00  0.00     0.265 C 
ATOM     16  C   UNL     1      41.983   5.399 -38.684  1.00  0.00     0.102 C 
ATOM     17  C   UNL     1      41.295   7.497 -39.891  1.00  0.00     0.102 C 
ATOM     18  C   UNL     1      40.865   6.269 -39.176  1.00  0.00     0.100 C 
ATOM     19  H   UNL     1      44.553   7.376 -39.419  1.00  0.00     0.348 HD
BRANCH  18  20
ATOM     20  O   UNL     1      40.141   5.483 -40.105  1.00  0.00    -0.385 OA
ATOM     21  H   UNL     1      40.404   5.796 -41.007  1.00  0.00     0.211 HD
ENDBRANCH  18  20
BRANCH  18  22
ATOM     22  C   UNL     1      39.869   6.553 -38.082  1.00  0.00    -0.016 A 
ATOM     23  C   UNL     1      38.634   5.941 -38.041  1.00  0.00     0.008 A 
ATOM     24  C   UNL     1      40.126   7.437 -37.058  1.00  0.00     0.008 A 
ATOM     25  C   UNL     1      37.696   6.172 -37.061  1.00  0.00     0.021 A 
ATOM     26  C   UNL     1      39.201   7.685 -36.064  1.00  0.00     0.021 A 
ATOM     27  C   UNL     1      37.987   7.052 -36.066  1.00  0.00     0.041 A 
ATOM     28  Cl  UNL     1      36.811   7.359 -34.810  1.00  0.00    -0.084 Cl
ENDBRANCH  18  22
ENDBRANCH  12  13
ENDBRANCH   1  12
TORSDOF 7
ENDMDL
MODEL 7
REMARK VINA RESULT:      -8.6      1.363      1.710
REMARK SMILES O=C(CCC[NH+]1CCC(O)(c2ccc(Cl)cc2)CC1)c1ccc(F)cc1
REMARK SMILES IDX 4 1 3 2 2 3 1 4 20 5 21 6 26 7 22 8 25 9 23 10 24 11 5 12
REMARK SMILES IDX 6 13 7 14 19 15 8 16 18 17 9 18 10 20 11 22 12 23 17 24
REMARK SMILES IDX 13 25 16 26 14 27 15 28
REMARK H PARENT 6 19 10 21
ROOT
ATOM      1  C   UNL     1      43.268   9.161 -37.420  1.00  0.00     0.070 C 
ENDROOT
BRANCH   1   2
ATOM      2  C   UNL     1      44.001   9.582 -36.166  1.00  0.00     0.087 C 
BRANCH   2   3
ATOM      3  C   UNL     1      43.244  10.491 -35.302  1.00  0.00     0.163 C 
ATOM      4  O   UNL     1      42.207  10.114 -34.699  1.00  0.00    -0.294 OA
BRANCH   3   5
ATOM      5  C   UNL     1      43.648  11.897 -35.086  1.00  0.00     0.018 A 
ATOM      6  C   UNL     1      42.941  12.704 -34.213  1.00  0.00     0.015 A 
ATOM      7  C   UNL     1      44.727  12.431 -35.742  1.00  0.00     0.015 A 
ATOM      8  C   UNL     1      43.321  14.010 -34.017  1.00  0.00     0.040 A 
ATOM      9  C   UNL     1      45.112  13.731 -35.551  1.00  0.00     0.040 A 
ATOM     10  C   UNL     1      44.405  14.520 -34.685  1.00  0.00     0.123 A 
ATOM     11  F   UNL     1      44.819  15.816 -34.522  1.00  0.00    -0.207 F 
ENDBRANCH   3   5
ENDBRANCH   2   3
ENDBRANCH   1   2
BRANCH   1  12
ATOM     12  C   UNL     1      43.615   7.742 -37.715  1.00  0.00     0.262 C 
BRANCH  12  13
ATOM     13  N   UNL     1      43.446   7.401 -39.122  1.00  0.00    -0.335 N 
ATOM     14  C   UNL     1      43.234   6.000 -39.323  1.00  0.00     0.265 C 
ATOM     15  C   UNL     1      42.379   8.161 -39.686  1.00  0.00     0.265 C 
ATOM     16  C   UNL     1      42.004   5.518 -38.604  1.00  0.00     0.102 C 
ATOM     17  C   UNL     1      41.117   7.454 -39.945  1.00  0.00     0.102 C 
ATOM     18  C   UNL     1      40.807   6.255 -39.126  1.00  0.00     0.100 C 
ATOM     19  H   UNL     1      44.384   7.630 -39.567  1.00  0.00     0.348 HD
BRANCH  18  20
ATOM     20  O   UNL     1      40.126   5.343 -39.969  1.00  0.00    -0.385 OA
ATOM     21  H   UNL     1      39.358   5.835 -40.355  1.00  0.00     0.211 HD
ENDBRANCH  18  20
BRANCH  18  22
ATOM     22  C   UNL     1      39.819   6.543 -38.026  1.00  0.00    -0.016 A 
ATOM     23  C   UNL     1      38.564   5.970 -38.001  1.00  0.00     0.008 A 
ATOM     24  C   UNL     1      40.103   7.392 -36.979  1.00  0.00     0.008 A 
ATOM     25  C   UNL     1      37.633   6.206 -37.016  1.00  0.00     0.021 A 
ATOM     26  C   UNL     1      39.184   7.645 -35.980  1.00  0.00     0.021 A 
ATOM     27  C   UNL     1      37.951   7.052 -35.999  1.00  0.00     0.041 A 
ATOM     28  Cl  UNL     1      36.784   7.365 -34.737  1.00  0.00    -0.084 Cl
ENDBRANCH  18  22
ENDBRANCH  12  13
ENDBRANCH   1  12
TORSDOF 7
ENDMDL
MODEL 8
REMARK VINA RESULT:      -8.6      0.786      1.567
REMARK SMILES O=C(CCC[NH+]1CCC(O)(c2ccc(Cl)cc2)CC1)c1ccc(F)cc1
REMARK SMILES IDX 4 1 3 2 2 3 1 4 20 5 21 6 26 7 22 8 25 9 23 10 24 11 5 12
REMARK SMILES IDX 6 13 7 14 19 15 8 16 18 17 9 18 10 20 11 22 12 23 17 24
REMARK SMILES IDX 13 25 16 26 14 27 15 28
REMARK H PARENT 6 19 10 21
ROOT
ATOM      1  C   UNL     1      43.347   9.438 -38.456  1.00  0.00     0.070 C 
ENDROOT
BRANCH   1   2
ATOM      2  C   UNL     1      43.959   9.402 -37.073  1.00  0.00     0.087 C 
BRANCH   2   3
ATOM      3  C   UNL     1      44.666  10.628 -36.695  1.00  0.00     0.163 C 
ATOM      4  O   UNL     1      45.772  10.934 -37.211  1.00  0.00    -0.294 OA
BRANCH   3   5
ATOM      5  C   UNL     1      44.130  11.575 -35.695  1.00  0.00     0.018 A 
ATOM      6  C   UNL     1      43.136  11.181 -34.817  1.00  0.00     0.015 A 
ATOM      7  C   UNL     1      44.603  12.859 -35.613  1.00  0.00     0.015 A 
ATOM      8  C   UNL     1      42.641  12.067 -33.889  1.00  0.00     0.040 A 
ATOM      9  C   UNL     1      44.116  13.747 -34.691  1.00  0.00     0.040 A 
ATOM     10  C   UNL     1      43.133  13.346 -33.829  1.00  0.00     0.123 A 
ATOM     11  F   UNL     1      42.668  14.263 -32.922  1.00  0.00    -0.207 F 
ENDBRANCH   3   5
ENDBRANCH   2   3
ENDBRANCH   1   2
BRANCH   1  12
ATOM     12  C   UNL     1      42.071   8.670 -38.427  1.00  0.00     0.262 C 
BRANCH  12  13
ATOM     13  N   UNL     1      42.126   7.454 -39.228  1.00  0.00    -0.335 N 
ATOM     14  C   UNL     1      42.353   6.285 -38.434  1.00  0.00     0.265 C 
ATOM     15  C   UNL     1      40.933   7.319 -39.999  1.00  0.00     0.265 C 
ATOM     16  C   UNL     1      41.264   6.089 -37.414  1.00  0.00     0.102 C 
ATOM     17  C   UNL     1      39.960   6.310 -39.555  1.00  0.00     0.102 C 
ATOM     18  C   UNL     1      39.950   5.931 -38.120  1.00  0.00     0.100 C 
ATOM     19  H   UNL     1      42.989   7.574 -39.837  1.00  0.00     0.348 HD
BRANCH  18  20
ATOM     20  O   UNL     1      39.639   4.551 -38.060  1.00  0.00    -0.385 OA
ATOM     21  H   UNL     1      39.439   4.265 -38.986  1.00  0.00     0.211 HD
ENDBRANCH  18  20
BRANCH  18  22
ATOM     22  C   UNL     1      38.834   6.591 -37.354  1.00  0.00    -0.016 A 
ATOM     23  C   UNL     1      39.026   7.754 -36.637  1.00  0.00     0.008 A 
ATOM     24  C   UNL     1      37.556   6.079 -37.319  1.00  0.00     0.008 A 
ATOM     25  C   UNL     1      38.034   8.387 -35.923  1.00  0.00     0.021 A 
ATOM     26  C   UNL     1      36.544   6.696 -36.610  1.00  0.00     0.021 A 
ATOM     27  C   UNL     1      36.784   7.850 -35.914  1.00  0.00     0.041 A 
ATOM     28  Cl  UNL     1      35.510   8.639 -35.016  1.00  0.00    -0.084 Cl
ENDBRANCH  18  22
ENDBRANCH  12  13
ENDBRANCH   1  12
TORSDOF 7
ENDMDL
MODEL 9
REMARK VINA RESULT:      -8.6      3.137      4.312
REMARK SMILES O=C(CCC[NH+]1CCC(O)(c2ccc(Cl)cc2)CC1)c1ccc(F)cc1
REMARK SMILES IDX 4 1 3 2 2 3 1 4 20 5 21 6 26 7 22 8 25 9 23 10 24 11 5 12
REMARK SMILES IDX 6 13 7 14 19 15 8 16 18 17 9 18 10 20 11 22 12 23 17 24
REMARK SMILES IDX 13 25 16 26 14 27 15 28
REMARK H PARENT 6 19 10 21
ROOT
ATOM      1  C   UNL     1      44.687  12.311 -35.069  1.00  0.00     0.070 C 
ENDROOT
BRANCH   1   2
ATOM      2  C   UNL     1      44.266  13.761 -35.156  1.00  0.00     0.087 C 
BRANCH   2   3
ATOM      3  C   UNL     1      45.314  14.715 -34.786  1.00  0.00     0.163 C 
ATOM      4  O   UNL     1      46.084  14.502 -33.815  1.00  0.00    -0.294 OA
BRANCH   3   5
ATOM      5  C   UNL     1      45.531  15.978 -35.524  1.00  0.00     0.018 A 
ATOM      6  C   UNL     1      46.560  16.831 -35.167  1.00  0.00     0.015 A 
ATOM      7  C   UNL     1      44.724  16.330 -36.575  1.00  0.00     0.015 A 
ATOM      8  C   UNL     1      46.756  18.004 -35.858  1.00  0.00     0.040 A 
ATOM      9  C   UNL     1      44.914  17.496 -37.268  1.00  0.00     0.040 A 
ATOM     10  C   UNL     1      45.934  18.332 -36.905  1.00  0.00     0.123 A 
ATOM     11  F   UNL     1      46.091  19.491 -37.620  1.00  0.00    -0.207 F 
ENDBRANCH   3   5
ENDBRANCH   2   3
ENDBRANCH   1   2
BRANCH   1  12
ATOM     12  C   UNL     1      43.873  11.525 -36.038  1.00  0.00     0.262 C 
BRANCH  12  13
ATOM     13  N   UNL     1      44.649  11.062 -37.181  1.00  0.00    -0.335 N 
ATOM     14  C   UNL     1      45.221   9.768 -36.966  1.00  0.00     0.265 C 
ATOM     15  C   UNL     1      43.843  11.070 -38.359  1.00  0.00     0.265 C 
ATOM     16  C   UNL     1      44.162   8.731 -36.707  1.00  0.00     0.102 C 
ATOM     17  C   UNL     1      43.380   9.769 -38.862  1.00  0.00     0.102 C 
ATOM     18  C   UNL     1      43.249   8.652 -37.894  1.00  0.00     0.100 C 
ATOM     19  H   UNL     1      45.464  11.743 -37.245  1.00  0.00     0.348 HD
BRANCH  18  20
ATOM     20  O   UNL     1      43.608   7.466 -38.582  1.00  0.00    -0.385 OA
ATOM     21  H   UNL     1      44.577   7.531 -38.769  1.00  0.00     0.211 HD
ENDBRANCH  18  20
BRANCH  18  22
ATOM     22  C   UNL     1      41.823   8.412 -37.473  1.00  0.00    -0.016 A 
ATOM     23  C   UNL     1      41.062   7.394 -38.010  1.00  0.00     0.008 A 
ATOM     24  C   UNL     1      41.188   9.191 -36.531  1.00  0.00     0.008 A 
ATOM     25  C   UNL     1      39.757   7.142 -37.653  1.00  0.00     0.021 A 
ATOM     26  C   UNL     1      39.880   8.958 -36.157  1.00  0.00     0.021 A 
ATOM     27  C   UNL     1      39.166   7.934 -36.718  1.00  0.00     0.041 A 
ATOM     28  Cl  UNL     1      37.510   7.631 -36.250  1.00  0.00    -0.084 Cl
ENDBRANCH  18  22
ENDBRANCH  12  13
ENDBRANCH   1  12
TORSDOF 7
ENDMDL
