MODEL 1
REMARK VINA RESULT:     -10.5      0.000      0.000
REMARK SMILES O=C1NCN(c2ccccc2)C12CC[NH+](CCCC(c1ccc(F)cc1)c1ccc(F)cc1)CC2
REMARK SMILES IDX 17 1 16 2 15 3 1 4 2 5 3 6 12 7 4 8 5 9 13 10 35 11 14 12
REMARK SMILES IDX 34 13 6 16 7 17 11 18 8 19 10 20 9 21 18 22 19 23 20 24
REMARK SMILES IDX 21 25 26 26 22 27 25 28 23 29 24 30 27 31 28 32 33 33 29 34
REMARK SMILES IDX 32 35 30 36 31 37
REMARK H PARENT 3 14 15 15
ROOT
ATOM      1  C   UNL     1      38.429   8.210 -35.835  1.00  0.00     0.062 C 
ENDROOT
BRANCH   1   2
ATOM      2  C   UNL     1      37.686   9.386 -36.396  1.00  0.00     0.262 C 
BRANCH   2   3
ATOM      3  N   UNL     1      36.300   9.370 -35.940  1.00  0.00    -0.335 N 
ATOM      4  O   UNL     1      33.255  10.281 -36.512  1.00  0.00    -0.272 OA
ATOM      5  C   UNL     1      32.989   9.964 -35.334  1.00  0.00     0.247 C 
ATOM      6  N   UNL     1      31.717  10.090 -34.748  1.00  0.00    -0.336 N 
ATOM      7  C   UNL     1      33.971   9.396 -34.335  1.00  0.00     0.131 C 
ATOM      8  C   UNL     1      31.713   9.223 -33.612  1.00  0.00     0.238 C 
ATOM      9  N   UNL     1      33.115   9.216 -33.165  1.00  0.00    -0.339 N 
ATOM     10  C   UNL     1      35.064  10.418 -34.095  1.00  0.00     0.100 C 
ATOM     11  C   UNL     1      34.505   8.128 -34.897  1.00  0.00     0.100 C 
ATOM     12  C   UNL     1      35.907  10.624 -35.331  1.00  0.00     0.265 C 
ATOM     13  C   UNL     1      35.979   8.238 -35.110  1.00  0.00     0.265 C 
ATOM     14  H   UNL     1      30.937  10.709 -35.099  1.00  0.00     0.165 HD
ATOM     15  H   UNL     1      35.746   9.274 -36.818  1.00  0.00     0.348 HD
BRANCH   9  16
ATOM     16  C   UNL     1      33.446   9.070 -31.794  1.00  0.00     0.039 A 
ATOM     17  C   UNL     1      34.539   8.334 -31.403  1.00  0.00     0.026 A 
ATOM     18  C   UNL     1      32.685   9.683 -30.847  1.00  0.00     0.026 A 
ATOM     19  C   UNL     1      34.887   8.200 -30.055  1.00  0.00     0.002 A 
ATOM     20  C   UNL     1      33.008   9.565 -29.523  1.00  0.00     0.002 A 
ATOM     21  C   UNL     1      34.095   8.834 -29.122  1.00  0.00     0.000 A 
ENDBRANCH   9  16
ENDBRANCH   2   3
ENDBRANCH   1   2
BRANCH   1  22
ATOM     22  C   UNL     1      39.893   8.295 -35.808  1.00  0.00     0.019 C 
BRANCH  22  23
ATOM     23  C   UNL     1      40.694   8.510 -37.006  1.00  0.00     0.049 C 
BRANCH  23  24
ATOM     24  C   UNL     1      41.844   9.471 -36.856  1.00  0.00    -0.040 A 
ATOM     25  C   UNL     1      42.569   9.747 -37.994  1.00  0.00     0.007 A 
ATOM     26  C   UNL     1      42.185  10.033 -35.655  1.00  0.00     0.007 A 
ATOM     27  C   UNL     1      43.647  10.594 -37.936  1.00  0.00     0.039 A 
ATOM     28  C   UNL     1      43.261  10.878 -35.601  1.00  0.00     0.039 A 
ATOM     29  C   UNL     1      44.014  11.175 -36.743  1.00  0.00     0.123 A 
ATOM     30  F   UNL     1      45.082  12.011 -36.698  1.00  0.00    -0.207 F 
ENDBRANCH  23  24
BRANCH  23  31
ATOM     31  C   UNL     1      41.063   7.397 -37.864  1.00  0.00    -0.040 A 
ATOM     32  C   UNL     1      42.322   6.908 -38.073  1.00  0.00     0.007 A 
ATOM     33  C   UNL     1      40.003   6.790 -38.550  1.00  0.00     0.007 A 
ATOM     34  C   UNL     1      42.494   5.834 -38.955  1.00  0.00     0.039 A 
ATOM     35  C   UNL     1      40.156   5.748 -39.406  1.00  0.00     0.039 A 
ATOM     36  C   UNL     1      41.429   5.267 -39.608  1.00  0.00     0.123 A 
ATOM     37  F   UNL     1      41.568   4.223 -40.469  1.00  0.00    -0.207 F 
ENDBRANCH  23  31
ENDBRANCH  22  23
ENDBRANCH   1  22
TORSDOF 7
ENDMDL
MODEL 2
REMARK VINA RESULT:     -10.4      1.865      3.251
REMARK SMILES O=C1NCN(c2ccccc2)C12CC[NH+](CCCC(c1ccc(F)cc1)c1ccc(F)cc1)CC2
REMARK SMILES IDX 17 1 16 2 15 3 1 4 2 5 3 6 12 7 4 8 5 9 13 10 35 11 14 12
REMARK SMILES IDX 34 13 6 16 7 17 11 18 8 19 10 20 9 21 18 22 19 23 20 24
REMARK SMILES IDX 21 25 26 26 22 27 25 28 23 29 24 30 27 31 28 32 33 33 29 34
REMARK SMILES IDX 32 35 30 36 31 37
REMARK H PARENT 3 14 15 15
ROOT
ATOM      1  C   UNL     1      38.225   8.209 -36.160  1.00  0.00     0.062 C 
ENDROOT
BRANCH   1   2
ATOM      2  C   UNL     1      37.404   9.407 -36.538  1.00  0.00     0.262 C 
BRANCH   2   3
ATOM      3  N   UNL     1      36.195   9.466 -35.724  1.00  0.00    -0.335 N 
ATOM      4  O   UNL     1      33.926   7.810 -34.131  1.00  0.00    -0.272 OA
ATOM      5  C   UNL     1      33.264   8.866 -34.072  1.00  0.00     0.247 C 
ATOM      6  N   UNL     1      31.999   8.975 -33.467  1.00  0.00    -0.336 N 
ATOM      7  C   UNL     1      33.693  10.203 -34.631  1.00  0.00     0.131 C 
ATOM      8  C   UNL     1      31.804  10.365 -33.197  1.00  0.00     0.238 C 
ATOM      9  N   UNL     1      32.555  11.043 -34.265  1.00  0.00    -0.339 N 
ATOM     10  C   UNL     1      33.851  10.073 -36.132  1.00  0.00     0.100 C 
ATOM     11  C   UNL     1      34.967  10.584 -33.965  1.00  0.00     0.100 C 
ATOM     12  C   UNL     1      35.003   9.163 -36.488  1.00  0.00     0.265 C 
ATOM     13  C   UNL     1      36.065  10.686 -34.973  1.00  0.00     0.265 C 
ATOM     14  H   UNL     1      31.344   8.173 -33.264  1.00  0.00     0.165 HD
ATOM     15  H   UNL     1      36.317   8.692 -35.035  1.00  0.00     0.348 HD
BRANCH   9  16
ATOM     16  C   UNL     1      32.130  12.295 -34.779  1.00  0.00     0.039 A 
ATOM     17  C   UNL     1      31.002  12.396 -35.557  1.00  0.00     0.026 A 
ATOM     18  C   UNL     1      32.835  13.421 -34.482  1.00  0.00     0.026 A 
ATOM     19  C   UNL     1      30.562  13.627 -36.052  1.00  0.00     0.002 A 
ATOM     20  C   UNL     1      32.422  14.635 -34.956  1.00  0.00     0.002 A 
ATOM     21  C   UNL     1      31.299  14.748 -35.734  1.00  0.00     0.000 A 
ENDBRANCH   9  16
ENDBRANCH   2   3
ENDBRANCH   1   2
BRANCH   1  22
ATOM     22  C   UNL     1      39.665   8.418 -35.972  1.00  0.00     0.019 C 
BRANCH  22  23
ATOM     23  C   UNL     1      40.590   8.589 -37.084  1.00  0.00     0.049 C 
BRANCH  23  24
ATOM     24  C   UNL     1      41.752   9.512 -36.829  1.00  0.00    -0.040 A 
ATOM     25  C   UNL     1      42.551   9.811 -37.910  1.00  0.00     0.007 A 
ATOM     26  C   UNL     1      42.035  10.018 -35.589  1.00  0.00     0.007 A 
ATOM     27  C   UNL     1      43.644  10.626 -37.755  1.00  0.00     0.039 A 
ATOM     28  C   UNL     1      43.126  10.831 -35.438  1.00  0.00     0.039 A 
ATOM     29  C   UNL     1      43.953  11.151 -36.521  1.00  0.00     0.123 A 
ATOM     30  F   UNL     1      45.037  11.956 -36.379  1.00  0.00    -0.207 F 
ENDBRANCH  23  24
BRANCH  23  31
ATOM     31  C   UNL     1      41.005   7.451 -37.888  1.00  0.00    -0.040 A 
ATOM     32  C   UNL     1      42.272   6.952 -38.007  1.00  0.00     0.007 A 
ATOM     33  C   UNL     1      39.984   6.829 -38.620  1.00  0.00     0.007 A 
ATOM     34  C   UNL     1      42.490   5.854 -38.848  1.00  0.00     0.039 A 
ATOM     35  C   UNL     1      40.184   5.764 -39.437  1.00  0.00     0.039 A 
ATOM     36  C   UNL     1      41.464   5.273 -39.549  1.00  0.00     0.123 A 
ATOM     37  F   UNL     1      41.649   4.205 -40.371  1.00  0.00    -0.207 F 
ENDBRANCH  23  31
ENDBRANCH  22  23
ENDBRANCH   1  22
TORSDOF 7
ENDMDL
MODEL 3
REMARK VINA RESULT:     -10.4      0.383      1.437
REMARK SMILES O=C1NCN(c2ccccc2)C12CC[NH+](CCCC(c1ccc(F)cc1)c1ccc(F)cc1)CC2
REMARK SMILES IDX 17 1 16 2 15 3 1 4 2 5 3 6 12 7 4 8 5 9 13 10 35 11 14 12
REMARK SMILES IDX 34 13 6 16 7 17 11 18 8 19 10 20 9 21 18 22 19 23 20 24
REMARK SMILES IDX 21 25 26 26 22 27 25 28 23 29 24 30 27 31 28 32 33 33 29 34
REMARK SMILES IDX 32 35 30 36 31 37
REMARK H PARENT 3 14 15 15
ROOT
ATOM      1  C   UNL     1      38.126   8.450 -36.218  1.00  0.00     0.062 C 
ENDROOT
BRANCH   1   2
ATOM      2  C   UNL     1      37.474   9.799 -36.139  1.00  0.00     0.262 C 
BRANCH   2   3
ATOM      3  N   UNL     1      36.086   9.662 -35.711  1.00  0.00    -0.335 N 
ATOM      4  O   UNL     1      32.990  10.350 -36.319  1.00  0.00    -0.272 OA
ATOM      5  C   UNL     1      32.728   9.980 -35.156  1.00  0.00     0.247 C 
ATOM      6  N   UNL     1      31.440   9.990 -34.592  1.00  0.00    -0.336 N 
ATOM      7  C   UNL     1      33.734   9.462 -34.153  1.00  0.00     0.131 C 
ATOM      8  C   UNL     1      31.484   9.092 -33.481  1.00  0.00     0.238 C 
ATOM      9  N   UNL     1      32.874   9.182 -33.006  1.00  0.00    -0.339 N 
ATOM     10  C   UNL     1      34.739  10.558 -33.863  1.00  0.00     0.100 C 
ATOM     11  C   UNL     1      34.375   8.255 -34.739  1.00  0.00     0.100 C 
ATOM     12  C   UNL     1      35.586  10.863 -35.076  1.00  0.00     0.265 C 
ATOM     13  C   UNL     1      35.840   8.485 -34.919  1.00  0.00     0.265 C 
ATOM     14  H   UNL     1      30.621  10.556 -34.941  1.00  0.00     0.165 HD
ATOM     15  H   UNL     1      35.557   9.549 -36.603  1.00  0.00     0.348 HD
BRANCH   9  16
ATOM     16  C   UNL     1      33.191   9.022 -31.633  1.00  0.00     0.039 A 
ATOM     17  C   UNL     1      32.481   9.683 -30.659  1.00  0.00     0.026 A 
ATOM     18  C   UNL     1      34.200   8.185 -31.267  1.00  0.00     0.026 A 
ATOM     19  C   UNL     1      32.772   9.517 -29.301  1.00  0.00     0.002 A 
ATOM     20  C   UNL     1      34.501   8.009 -29.944  1.00  0.00     0.002 A 
ATOM     21  C   UNL     1      33.800   8.662 -28.965  1.00  0.00     0.000 A 
ENDBRANCH   9  16
ENDBRANCH   2   3
ENDBRANCH   1   2
BRANCH   1  22
ATOM     22  C   UNL     1      39.587   8.405 -36.089  1.00  0.00     0.019 C 
BRANCH  22  23
ATOM     23  C   UNL     1      40.485   8.556 -37.227  1.00  0.00     0.049 C 
BRANCH  23  24
ATOM     24  C   UNL     1      41.701   9.413 -36.988  1.00  0.00    -0.040 A 
ATOM     25  C   UNL     1      41.918   9.828 -35.693  1.00  0.00     0.007 A 
ATOM     26  C   UNL     1      42.546   9.792 -37.996  1.00  0.00     0.007 A 
ATOM     27  C   UNL     1      42.990  10.631 -35.398  1.00  0.00     0.039 A 
ATOM     28  C   UNL     1      43.615  10.593 -37.697  1.00  0.00     0.039 A 
ATOM     29  C   UNL     1      43.859  11.028 -36.389  1.00  0.00     0.123 A 
ATOM     30  F   UNL     1      44.916  11.823 -36.085  1.00  0.00    -0.207 F 
ENDBRANCH  23  24
BRANCH  23  31
ATOM     31  C   UNL     1      40.816   7.419 -38.069  1.00  0.00    -0.040 A 
ATOM     32  C   UNL     1      39.947   6.675 -38.818  1.00  0.00     0.007 A 
ATOM     33  C   UNL     1      42.169   7.058 -38.085  1.00  0.00     0.007 A 
ATOM     34  C   UNL     1      40.445   5.596 -39.559  1.00  0.00     0.039 A 
ATOM     35  C   UNL     1      42.664   6.015 -38.799  1.00  0.00     0.039 A 
ATOM     36  C   UNL     1      41.778   5.274 -39.548  1.00  0.00     0.123 A 
ATOM     37  F   UNL     1      42.287   4.232 -40.259  1.00  0.00    -0.207 F 
ENDBRANCH  23  31
ENDBRANCH  22  23
ENDBRANCH   1  22
TORSDOF 7
ENDMDL
MODEL 4
REMARK VINA RESULT:     -10.3      2.347      3.279
REMARK SMILES O=C1NCN(c2ccccc2)C12CC[NH+](CCCC(c1ccc(F)cc1)c1ccc(F)cc1)CC2
REMARK SMILES IDX 17 1 16 2 15 3 1 4 2 5 3 6 12 7 4 8 5 9 13 10 35 11 14 12
REMARK SMILES IDX 34 13 6 16 7 17 11 18 8 19 10 20 9 21 18 22 19 23 20 24
REMARK SMILES IDX 21 25 26 26 22 27 25 28 23 29 24 30 27 31 28 32 33 33 29 34
REMARK SMILES IDX 32 35 30 36 31 37
REMARK H PARENT 3 14 15 15
ROOT
ATOM      1  C   UNL     1      40.326   6.132 -37.596  1.00  0.00     0.062 C 
ENDROOT
BRANCH   1   2
ATOM      2  C   UNL     1      38.936   5.581 -37.718  1.00  0.00     0.262 C 
BRANCH   2   3
ATOM      3  N   UNL     1      37.975   6.506 -37.127  1.00  0.00    -0.335 N 
ATOM      4  O   UNL     1      37.200   9.584 -36.532  1.00  0.00    -0.272 OA
ATOM      5  C   UNL     1      36.338   9.164 -35.733  1.00  0.00     0.247 C 
ATOM      6  N   UNL     1      35.489   9.990 -34.976  1.00  0.00    -0.336 N 
ATOM      7  C   UNL     1      36.053   7.710 -35.436  1.00  0.00     0.131 C 
ATOM      8  C   UNL     1      34.389   9.172 -34.575  1.00  0.00     0.238 C 
ATOM      9  N   UNL     1      34.970   7.825 -34.463  1.00  0.00    -0.339 N 
ATOM     10  C   UNL     1      37.297   7.084 -34.838  1.00  0.00     0.100 C 
ATOM     11  C   UNL     1      35.656   7.057 -36.712  1.00  0.00     0.100 C 
ATOM     12  C   UNL     1      38.419   7.018 -35.848  1.00  0.00     0.265 C 
ATOM     13  C   UNL     1      36.634   5.986 -37.070  1.00  0.00     0.265 C 
ATOM     14  H   UNL     1      35.656  11.011 -34.762  1.00  0.00     0.165 HD
ATOM     15  H   UNL     1      37.963   7.314 -37.787  1.00  0.00     0.348 HD
BRANCH   9  16
ATOM     16  C   UNL     1      34.480   6.892 -33.514  1.00  0.00     0.039 A 
ATOM     17  C   UNL     1      35.252   6.491 -32.450  1.00  0.00     0.026 A 
ATOM     18  C   UNL     1      33.218   6.399 -33.641  1.00  0.00     0.026 A 
ATOM     19  C   UNL     1      34.772   5.587 -31.496  1.00  0.00     0.002 A 
ATOM     20  C   UNL     1      32.729   5.515 -32.720  1.00  0.00     0.002 A 
ATOM     21  C   UNL     1      33.490   5.107 -31.655  1.00  0.00     0.000 A 
ENDBRANCH   9  16
ENDBRANCH   2   3
ENDBRANCH   1   2
BRANCH   1  22
ATOM     22  C   UNL     1      40.745   7.117 -38.599  1.00  0.00     0.019 C 
BRANCH  22  23
ATOM     23  C   UNL     1      42.066   7.731 -38.599  1.00  0.00     0.049 C 
BRANCH  23  24
ATOM     24  C   UNL     1      42.255   8.871 -37.633  1.00  0.00    -0.040 A 
ATOM     25  C   UNL     1      43.375   9.653 -37.812  1.00  0.00     0.007 A 
ATOM     26  C   UNL     1      41.384   9.120 -36.606  1.00  0.00     0.007 A 
ATOM     27  C   UNL     1      43.630  10.696 -36.958  1.00  0.00     0.039 A 
ATOM     28  C   UNL     1      41.642  10.163 -35.757  1.00  0.00     0.039 A 
ATOM     29  C   UNL     1      42.773  10.973 -35.918  1.00  0.00     0.123 A 
ATOM     30  F   UNL     1      43.036  12.007 -35.080  1.00  0.00    -0.207 F 
ENDBRANCH  23  24
BRANCH  23  31
ATOM     31  C   UNL     1      43.266   6.914 -38.669  1.00  0.00    -0.040 A 
ATOM     32  C   UNL     1      44.131   6.641 -37.646  1.00  0.00     0.007 A 
ATOM     33  C   UNL     1      43.553   6.375 -39.930  1.00  0.00     0.007 A 
ATOM     34  C   UNL     1      45.254   5.845 -37.903  1.00  0.00     0.039 A 
ATOM     35  C   UNL     1      44.637   5.601 -40.191  1.00  0.00     0.039 A 
ATOM     36  C   UNL     1      45.500   5.336 -39.153  1.00  0.00     0.123 A 
ATOM     37  F   UNL     1      46.582   4.559 -39.429  1.00  0.00    -0.207 F 
ENDBRANCH  23  31
ENDBRANCH  22  23
ENDBRANCH   1  22
TORSDOF 7
ENDMDL
MODEL 5
REMARK VINA RESULT:     -10.3      6.574      8.170
REMARK SMILES O=C1NCN(c2ccccc2)C12CC[NH+](CCCC(c1ccc(F)cc1)c1ccc(F)cc1)CC2
REMARK SMILES IDX 17 1 16 2 15 3 1 4 2 5 3 6 12 7 4 8 5 9 13 10 35 11 14 12
REMARK SMILES IDX 34 13 6 16 7 17 11 18 8 19 10 20 9 21 18 22 19 23 20 24
REMARK SMILES IDX 21 25 26 26 22 27 25 28 23 29 24 30 27 31 28 32 33 33 29 34
REMARK SMILES IDX 32 35 30 36 31 37
REMARK H PARENT 3 14 15 15
ROOT
ATOM      1  C   UNL     1      43.001   8.697 -31.974  1.00  0.00     0.062 C 
ENDROOT
BRANCH   1   2
ATOM      2  C   UNL     1      43.958   7.901 -31.138  1.00  0.00     0.262 C 
BRANCH   2   3
ATOM      3  N   UNL     1      43.230   6.942 -30.315  1.00  0.00    -0.335 N 
ATOM      4  O   UNL     1      40.861   4.752 -30.174  1.00  0.00    -0.272 OA
ATOM      5  C   UNL     1      40.962   4.792 -28.930  1.00  0.00     0.247 C 
ATOM      6  N   UNL     1      40.170   4.038 -28.046  1.00  0.00    -0.336 N 
ATOM      7  C   UNL     1      41.940   5.646 -28.157  1.00  0.00     0.131 C 
ATOM      8  C   UNL     1      40.878   4.004 -26.805  1.00  0.00     0.238 C 
ATOM      9  N   UNL     1      41.613   5.278 -26.781  1.00  0.00    -0.339 N 
ATOM     10  C   UNL     1      41.644   7.104 -28.446  1.00  0.00     0.100 C 
ATOM     11  C   UNL     1      43.312   5.259 -28.579  1.00  0.00     0.100 C 
ATOM     12  C   UNL     1      41.944   7.451 -29.886  1.00  0.00     0.265 C 
ATOM     13  C   UNL     1      44.002   6.420 -29.218  1.00  0.00     0.265 C 
ATOM     14  H   UNL     1      39.240   3.594 -28.280  1.00  0.00     0.165 HD
ATOM     15  H   UNL     1      43.038   6.147 -30.963  1.00  0.00     0.348 HD
BRANCH   9  16
ATOM     16  C   UNL     1      41.881   5.947 -25.560  1.00  0.00     0.039 A 
ATOM     17  C   UNL     1      43.167   6.264 -25.192  1.00  0.00     0.026 A 
ATOM     18  C   UNL     1      40.851   6.301 -24.744  1.00  0.00     0.026 A 
ATOM     19  C   UNL     1      43.441   6.942 -23.999  1.00  0.00     0.002 A 
ATOM     20  C   UNL     1      41.097   6.964 -23.573  1.00  0.00     0.002 A 
ATOM     21  C   UNL     1      42.375   7.286 -23.197  1.00  0.00     0.000 A 
ENDBRANCH   9  16
ENDBRANCH   2   3
ENDBRANCH   1   2
BRANCH   1  22
ATOM     22  C   UNL     1      43.565   9.458 -33.095  1.00  0.00     0.019 C 
BRANCH  22  23
ATOM     23  C   UNL     1      42.749  10.263 -33.993  1.00  0.00     0.049 C 
BRANCH  23  24
ATOM     24  C   UNL     1      43.296  11.628 -34.323  1.00  0.00    -0.040 A 
ATOM     25  C   UNL     1      42.684  12.701 -33.715  1.00  0.00     0.007 A 
ATOM     26  C   UNL     1      44.332  11.816 -35.198  1.00  0.00     0.007 A 
ATOM     27  C   UNL     1      43.108  13.978 -33.983  1.00  0.00     0.039 A 
ATOM     28  C   UNL     1      44.753  13.091 -35.462  1.00  0.00     0.039 A 
ATOM     29  C   UNL     1      44.148  14.200 -34.857  1.00  0.00     0.123 A 
ATOM     30  F   UNL     1      44.559  15.467 -35.114  1.00  0.00    -0.207 F 
ENDBRANCH  23  24
BRANCH  23  31
ATOM     31  C   UNL     1      42.116   9.669 -35.159  1.00  0.00    -0.040 A 
ATOM     32  C   UNL     1      42.599   9.663 -36.438  1.00  0.00     0.007 A 
ATOM     33  C   UNL     1      40.877   9.060 -34.924  1.00  0.00     0.007 A 
ATOM     34  C   UNL     1      41.839   9.056 -37.445  1.00  0.00     0.039 A 
ATOM     35  C   UNL     1      40.132   8.467 -35.891  1.00  0.00     0.039 A 
ATOM     36  C   UNL     1      40.629   8.469 -37.174  1.00  0.00     0.123 A 
ATOM     37  F   UNL     1      39.872   7.872 -38.134  1.00  0.00    -0.207 F 
ENDBRANCH  23  31
ENDBRANCH  22  23
ENDBRANCH   1  22
TORSDOF 7
ENDMDL
MODEL 6
REMARK VINA RESULT:     -10.2      6.574      8.217
REMARK SMILES O=C1NCN(c2ccccc2)C12CC[NH+](CCCC(c1ccc(F)cc1)c1ccc(F)cc1)CC2
REMARK SMILES IDX 17 1 16 2 15 3 1 4 2 5 3 6 12 7 4 8 5 9 13 10 35 11 14 12
REMARK SMILES IDX 34 13 6 16 7 17 11 18 8 19 10 20 9 21 18 22 19 23 20 24
REMARK SMILES IDX 21 25 26 26 22 27 25 28 23 29 24 30 27 31 28 32 33 33 29 34
REMARK SMILES IDX 32 35 30 36 31 37
REMARK H PARENT 3 14 15 15
ROOT
ATOM      1  C   UNL     1      43.003   8.657 -32.058  1.00  0.00     0.062 C 
ENDROOT
BRANCH   1   2
ATOM      2  C   UNL     1      43.951   7.892 -31.182  1.00  0.00     0.262 C 
BRANCH   2   3
ATOM      3  N   UNL     1      43.214   6.956 -30.341  1.00  0.00    -0.335 N 
ATOM      4  O   UNL     1      40.798   4.822 -30.146  1.00  0.00    -0.272 OA
ATOM      5  C   UNL     1      40.920   4.868 -28.904  1.00  0.00     0.247 C 
ATOM      6  N   UNL     1      40.126   4.138 -28.002  1.00  0.00    -0.336 N 
ATOM      7  C   UNL     1      41.930   5.705 -28.153  1.00  0.00     0.131 C 
ATOM      8  C   UNL     1      40.853   4.097 -26.773  1.00  0.00     0.238 C 
ATOM      9  N   UNL     1      41.618   5.353 -26.769  1.00  0.00    -0.339 N 
ATOM     10  C   UNL     1      41.664   7.167 -28.447  1.00  0.00     0.100 C 
ATOM     11  C   UNL     1      43.286   5.283 -28.595  1.00  0.00     0.100 C 
ATOM     12  C   UNL     1      41.947   7.497 -29.894  1.00  0.00     0.265 C 
ATOM     13  C   UNL     1      43.992   6.422 -29.253  1.00  0.00     0.265 C 
ATOM     14  H   UNL     1      39.182   3.715 -28.217  1.00  0.00     0.165 HD
ATOM     15  H   UNL     1      42.993   6.161 -30.979  1.00  0.00     0.348 HD
BRANCH   9  16
ATOM     16  C   UNL     1      41.921   6.024 -25.557  1.00  0.00     0.039 A 
ATOM     17  C   UNL     1      40.924   6.442 -24.709  1.00  0.00     0.026 A 
ATOM     18  C   UNL     1      43.220   6.240 -25.212  1.00  0.00     0.026 A 
ATOM     19  C   UNL     1      41.212   7.086 -23.501  1.00  0.00     0.002 A 
ATOM     20  C   UNL     1      43.524   6.867 -24.036  1.00  0.00     0.002 A 
ATOM     21  C   UNL     1      42.538   7.289 -23.182  1.00  0.00     0.000 A 
ENDBRANCH   9  16
ENDBRANCH   2   3
ENDBRANCH   1   2
BRANCH   1  22
ATOM     22  C   UNL     1      43.591   9.488 -33.114  1.00  0.00     0.019 C 
BRANCH  22  23
ATOM     23  C   UNL     1      42.788  10.281 -34.035  1.00  0.00     0.049 C 
BRANCH  23  24
ATOM     24  C   UNL     1      43.305  11.666 -34.324  1.00  0.00    -0.040 A 
ATOM     25  C   UNL     1      42.624  12.712 -33.742  1.00  0.00     0.007 A 
ATOM     26  C   UNL     1      44.379  11.897 -35.140  1.00  0.00     0.007 A 
ATOM     27  C   UNL     1      43.019  14.005 -33.976  1.00  0.00     0.039 A 
ATOM     28  C   UNL     1      44.770  13.189 -35.371  1.00  0.00     0.039 A 
ATOM     29  C   UNL     1      44.095  14.270 -34.791  1.00  0.00     0.123 A 
ATOM     30  F   UNL     1      44.476  15.553 -35.016  1.00  0.00    -0.207 F 
ENDBRANCH  23  24
BRANCH  23  31
ATOM     31  C   UNL     1      42.223   9.683 -35.233  1.00  0.00    -0.040 A 
ATOM     32  C   UNL     1      40.926   9.292 -35.419  1.00  0.00     0.007 A 
ATOM     33  C   UNL     1      43.125   9.484 -36.287  1.00  0.00     0.007 A 
ATOM     34  C   UNL     1      40.562   8.714 -36.641  1.00  0.00     0.039 A 
ATOM     35  C   UNL     1      42.784   8.926 -37.476  1.00  0.00     0.039 A 
ATOM     36  C   UNL     1      41.476   8.535 -37.649  1.00  0.00     0.123 A 
ATOM     37  F   UNL     1      41.148   7.978 -38.846  1.00  0.00    -0.207 F 
ENDBRANCH  23  31
ENDBRANCH  22  23
ENDBRANCH   1  22
TORSDOF 7
ENDMDL
MODEL 7
REMARK VINA RESULT:     -10.2      1.035      1.161
REMARK SMILES O=C1NCN(c2ccccc2)C12CC[NH+](CCCC(c1ccc(F)cc1)c1ccc(F)cc1)CC2
REMARK SMILES IDX 17 1 16 2 15 3 1 4 2 5 3 6 12 7 4 8 5 9 13 10 35 11 14 12
REMARK SMILES IDX 34 13 6 16 7 17 11 18 8 19 10 20 9 21 18 22 19 23 20 24
REMARK SMILES IDX 21 25 26 26 22 27 25 28 23 29 24 30 27 31 28 32 33 33 29 34
REMARK SMILES IDX 32 35 30 36 31 37
REMARK H PARENT 3 14 15 15
ROOT
ATOM      1  C   UNL     1      38.221   8.507 -36.351  1.00  0.00     0.062 C 
ENDROOT
BRANCH   1   2
ATOM      2  C   UNL     1      37.494   9.815 -36.242  1.00  0.00     0.262 C 
BRANCH   2   3
ATOM      3  N   UNL     1      36.128   9.594 -35.780  1.00  0.00    -0.335 N 
ATOM      4  O   UNL     1      33.100  10.711 -35.666  1.00  0.00    -0.272 OA
ATOM      5  C   UNL     1      32.868   9.857 -34.785  1.00  0.00     0.247 C 
ATOM      6  N   UNL     1      31.626   9.694 -34.147  1.00  0.00    -0.336 N 
ATOM      7  C   UNL     1      33.866   8.856 -34.250  1.00  0.00     0.131 C 
ATOM      8  C   UNL     1      31.634   8.379 -33.588  1.00  0.00     0.238 C 
ATOM      9  N   UNL     1      33.051   8.133 -33.277  1.00  0.00    -0.339 N 
ATOM     10  C   UNL     1      35.006   9.611 -33.595  1.00  0.00     0.100 C 
ATOM     11  C   UNL     1      34.329   8.024 -35.392  1.00  0.00     0.100 C 
ATOM     12  C   UNL     1      35.807  10.389 -34.613  1.00  0.00     0.265 C 
ATOM     13  C   UNL     1      35.797   8.205 -35.601  1.00  0.00     0.265 C 
ATOM     14  H   UNL     1      30.857  10.416 -34.105  1.00  0.00     0.165 HD
ATOM     15  H   UNL     1      35.536   9.953 -36.561  1.00  0.00     0.348 HD
BRANCH   9  16
ATOM     16  C   UNL     1      33.430   7.324 -32.176  1.00  0.00     0.039 A 
ATOM     17  C   UNL     1      34.215   6.209 -32.352  1.00  0.00     0.026 A 
ATOM     18  C   UNL     1      33.031   7.663 -30.920  1.00  0.00     0.026 A 
ATOM     19  C   UNL     1      34.612   5.415 -31.272  1.00  0.00     0.002 A 
ATOM     20  C   UNL     1      33.408   6.900 -29.849  1.00  0.00     0.002 A 
ATOM     21  C   UNL     1      34.191   5.787 -30.013  1.00  0.00     0.000 A 
ENDBRANCH   9  16
ENDBRANCH   2   3
ENDBRANCH   1   2
BRANCH   1  22
ATOM     22  C   UNL     1      39.669   8.526 -36.114  1.00  0.00     0.019 C 
BRANCH  22  23
ATOM     23  C   UNL     1      40.643   8.654 -37.189  1.00  0.00     0.049 C 
BRANCH  23  24
ATOM     24  C   UNL     1      41.814   9.556 -36.902  1.00  0.00    -0.040 A 
ATOM     25  C   UNL     1      42.648   9.841 -37.961  1.00  0.00     0.007 A 
ATOM     26  C   UNL     1      42.071  10.058 -35.655  1.00  0.00     0.007 A 
ATOM     27  C   UNL     1      43.751  10.635 -37.776  1.00  0.00     0.039 A 
ATOM     28  C   UNL     1      43.172  10.852 -35.474  1.00  0.00     0.039 A 
ATOM     29  C   UNL     1      44.035  11.156 -36.534  1.00  0.00     0.123 A 
ATOM     30  F   UNL     1      45.129  11.941 -36.362  1.00  0.00    -0.207 F 
ENDBRANCH  23  24
BRANCH  23  31
ATOM     31  C   UNL     1      41.065   7.492 -37.954  1.00  0.00    -0.040 A 
ATOM     32  C   UNL     1      42.341   7.021 -38.089  1.00  0.00     0.007 A 
ATOM     33  C   UNL     1      40.041   6.812 -38.626  1.00  0.00     0.007 A 
ATOM     34  C   UNL     1      42.565   5.892 -38.886  1.00  0.00     0.039 A 
ATOM     35  C   UNL     1      40.246   5.716 -39.401  1.00  0.00     0.039 A 
ATOM     36  C   UNL     1      41.535   5.254 -39.529  1.00  0.00     0.123 A 
ATOM     37  F   UNL     1      41.726   4.155 -40.308  1.00  0.00    -0.207 F 
ENDBRANCH  23  31
ENDBRANCH  22  23
ENDBRANCH   1  22
TORSDOF 7
ENDMDL
MODEL 8
REMARK VINA RESULT:     -10.2      0.564      1.009
REMARK SMILES O=C1NCN(c2ccccc2)C12CC[NH+](CCCC(c1ccc(F)cc1)c1ccc(F)cc1)CC2
REMARK SMILES IDX 17 1 16 2 15 3 1 4 2 5 3 6 12 7 4 8 5 9 13 10 35 11 14 12
REMARK SMILES IDX 34 13 6 16 7 17 11 18 8 19 10 20 9 21 18 22 19 23 20 24
REMARK SMILES IDX 21 25 26 26 22 27 25 28 23 29 24 30 27 31 28 32 33 33 29 34
REMARK SMILES IDX 32 35 30 36 31 37
REMARK H PARENT 3 14 15 15
ROOT
ATOM      1  C   UNL     1      38.478   8.802 -36.391  1.00  0.00     0.062 C 
ENDROOT
BRANCH   1   2
ATOM      2  C   UNL     1      37.560   7.643 -36.134  1.00  0.00     0.262 C 
BRANCH   2   3
ATOM      3  N   UNL     1      36.233   8.124 -35.767  1.00  0.00    -0.335 N 
ATOM      4  O   UNL     1      33.671   9.897 -36.616  1.00  0.00    -0.272 OA
ATOM      5  C   UNL     1      33.282   9.817 -35.432  1.00  0.00     0.247 C 
ATOM      6  N   UNL     1      32.105  10.409 -34.942  1.00  0.00    -0.336 N 
ATOM      7  C   UNL     1      33.996   9.078 -34.323  1.00  0.00     0.131 C 
ATOM      8  C   UNL     1      31.786   9.721 -33.731  1.00  0.00     0.238 C 
ATOM      9  N   UNL     1      33.095   9.314 -33.198  1.00  0.00    -0.339 N 
ATOM     10  C   UNL     1      35.355   9.714 -34.113  1.00  0.00     0.100 C 
ATOM     11  C   UNL     1      34.102   7.650 -34.726  1.00  0.00     0.100 C 
ATOM     12  C   UNL     1      36.254   9.498 -35.308  1.00  0.00     0.265 C 
ATOM     13  C   UNL     1      35.537   7.256 -34.855  1.00  0.00     0.265 C 
ATOM     14  H   UNL     1      31.580  11.203 -35.400  1.00  0.00     0.165 HD
ATOM     15  H   UNL     1      35.703   8.115 -36.666  1.00  0.00     0.348 HD
BRANCH   9  16
ATOM     16  C   UNL     1      33.320   9.223 -31.801  1.00  0.00     0.039 A 
ATOM     17  C   UNL     1      34.555   8.880 -31.303  1.00  0.00     0.026 A 
ATOM     18  C   UNL     1      32.308   9.498 -30.934  1.00  0.00     0.026 A 
ATOM     19  C   UNL     1      34.795   8.807 -29.927  1.00  0.00     0.002 A 
ATOM     20  C   UNL     1      32.521   9.432 -29.585  1.00  0.00     0.002 A 
ATOM     21  C   UNL     1      33.747   9.092 -29.077  1.00  0.00     0.000 A 
ENDBRANCH   9  16
ENDBRANCH   2   3
ENDBRANCH   1   2
BRANCH   1  22
ATOM     22  C   UNL     1      39.917   8.562 -36.235  1.00  0.00     0.019 C 
BRANCH  22  23
ATOM     23  C   UNL     1      40.858   8.657 -37.343  1.00  0.00     0.049 C 
BRANCH  23  24
ATOM     24  C   UNL     1      42.046   9.554 -37.114  1.00  0.00    -0.040 A 
ATOM     25  C   UNL     1      42.205  10.053 -35.840  1.00  0.00     0.007 A 
ATOM     26  C   UNL     1      42.920   9.891 -38.113  1.00  0.00     0.007 A 
ATOM     27  C   UNL     1      43.249  10.897 -35.557  1.00  0.00     0.039 A 
ATOM     28  C   UNL     1      43.960  10.733 -37.826  1.00  0.00     0.039 A 
ATOM     29  C   UNL     1      44.145  11.253 -36.539  1.00  0.00     0.123 A 
ATOM     30  F   UNL     1      45.174  12.090 -36.247  1.00  0.00    -0.207 F 
ENDBRANCH  23  24
BRANCH  23  31
ATOM     31  C   UNL     1      41.246   7.474 -38.094  1.00  0.00    -0.040 A 
ATOM     32  C   UNL     1      42.516   7.009 -38.288  1.00  0.00     0.007 A 
ATOM     33  C   UNL     1      40.191   6.764 -38.682  1.00  0.00     0.007 A 
ATOM     34  C   UNL     1      42.704   5.856 -39.060  1.00  0.00     0.039 A 
ATOM     35  C   UNL     1      40.361   5.645 -39.432  1.00  0.00     0.039 A 
ATOM     36  C   UNL     1      41.644   5.189 -39.621  1.00  0.00     0.123 A 
ATOM     37  F   UNL     1      41.800   4.067 -40.374  1.00  0.00    -0.207 F 
ENDBRANCH  23  31
ENDBRANCH  22  23
ENDBRANCH   1  22
TORSDOF 7
ENDMDL
MODEL 9
REMARK VINA RESULT:     -10.2      2.327      3.379
REMARK SMILES O=C1NCN(c2ccccc2)C12CC[NH+](CCCC(c1ccc(F)cc1)c1ccc(F)cc1)CC2
REMARK SMILES IDX 17 1 16 2 15 3 1 4 2 5 3 6 12 7 4 8 5 9 13 10 35 11 14 12
REMARK SMILES IDX 34 13 6 16 7 17 11 18 8 19 10 20 9 21 18 22 19 23 20 24
REMARK SMILES IDX 21 25 26 26 22 27 25 28 23 29 24 30 27 31 28 32 33 33 29 34
REMARK SMILES IDX 32 35 30 36 31 37
REMARK H PARENT 3 14 15 15
ROOT
ATOM      1  C   UNL     1      39.547   6.614 -38.386  1.00  0.00     0.062 C 
ENDROOT
BRANCH   1   2
ATOM      2  C   UNL     1      38.447   5.816 -37.751  1.00  0.00     0.262 C 
BRANCH   2   3
ATOM      3  N   UNL     1      37.509   6.703 -37.073  1.00  0.00    -0.335 N 
ATOM      4  O   UNL     1      36.755   9.740 -36.277  1.00  0.00    -0.272 OA
ATOM      5  C   UNL     1      35.924   9.273 -35.470  1.00  0.00     0.247 C 
ATOM      6  N   UNL     1      35.104  10.053 -34.637  1.00  0.00    -0.336 N 
ATOM      7  C   UNL     1      35.652   7.804 -35.245  1.00  0.00     0.131 C 
ATOM      8  C   UNL     1      34.020   9.210 -34.241  1.00  0.00     0.238 C 
ATOM      9  N   UNL     1      34.606   7.861 -34.226  1.00  0.00    -0.339 N 
ATOM     10  C   UNL     1      36.918   7.149 -34.731  1.00  0.00     0.100 C 
ATOM     11  C   UNL     1      35.207   7.222 -36.539  1.00  0.00     0.100 C 
ATOM     12  C   UNL     1      38.001   7.143 -35.784  1.00  0.00     0.265 C 
ATOM     13  C   UNL     1      36.172   6.176 -36.994  1.00  0.00     0.265 C 
ATOM     14  H   UNL     1      35.277  11.061 -34.372  1.00  0.00     0.165 HD
ATOM     15  H   UNL     1      37.471   7.547 -37.685  1.00  0.00     0.348 HD
BRANCH   9  16
ATOM     16  C   UNL     1      34.154   6.875 -33.313  1.00  0.00     0.039 A 
ATOM     17  C   UNL     1      32.941   6.251 -33.485  1.00  0.00     0.026 A 
ATOM     18  C   UNL     1      34.938   6.521 -32.259  1.00  0.00     0.026 A 
ATOM     19  C   UNL     1      32.494   5.263 -32.603  1.00  0.00     0.002 A 
ATOM     20  C   UNL     1      34.520   5.557 -31.383  1.00  0.00     0.002 A 
ATOM     21  C   UNL     1      33.313   4.929 -31.545  1.00  0.00     0.000 A 
ENDBRANCH   9  16
ENDBRANCH   2   3
ENDBRANCH   1   2
BRANCH   1  22
ATOM     22  C   UNL     1      40.921   6.145 -38.175  1.00  0.00     0.019 C 
BRANCH  22  23
ATOM     23  C   UNL     1      42.089   6.965 -38.469  1.00  0.00     0.049 C 
BRANCH  23  24
ATOM     24  C   UNL     1      42.192   8.253 -37.695  1.00  0.00    -0.040 A 
ATOM     25  C   UNL     1      41.288   8.433 -36.672  1.00  0.00     0.007 A 
ATOM     26  C   UNL     1      43.114   9.221 -37.993  1.00  0.00     0.007 A 
ATOM     27  C   UNL     1      41.302   9.590 -35.936  1.00  0.00     0.039 A 
ATOM     28  C   UNL     1      43.124  10.374 -37.256  1.00  0.00     0.039 A 
ATOM     29  C   UNL     1      42.217  10.581 -36.210  1.00  0.00     0.123 A 
ATOM     30  F   UNL     1      42.220  11.722 -35.475  1.00  0.00    -0.207 F 
ENDBRANCH  23  24
BRANCH  23  31
ATOM     31  C   UNL     1      43.400   6.359 -38.635  1.00  0.00    -0.040 A 
ATOM     32  C   UNL     1      44.369   6.231 -37.680  1.00  0.00     0.007 A 
ATOM     33  C   UNL     1      43.681   5.881 -39.922  1.00  0.00     0.007 A 
ATOM     34  C   UNL     1      45.587   5.634 -38.027  1.00  0.00     0.039 A 
ATOM     35  C   UNL     1      44.857   5.299 -40.270  1.00  0.00     0.039 A 
ATOM     36  C   UNL     1      45.824   5.178 -39.299  1.00  0.00     0.123 A 
ATOM     37  F   UNL     1      46.997   4.593 -39.662  1.00  0.00    -0.207 F 
ENDBRANCH  23  31
ENDBRANCH  22  23
ENDBRANCH   1  22
TORSDOF 7
ENDMDL
