MODEL 1
REMARK VINA RESULT:      -5.7      0.000      0.000
REMARK SMILES Clc1ccc(COC(Cn2ccnc2)c2ccc(Cl)cc2Cl)c(Cl)c1
REMARK SMILES IDX 7 1 6 2 5 3 2 4 3 5 25 6 4 7 23 8 1 9 24 10 8 11 9 12 10 13
REMARK SMILES IDX 11 14 14 15 12 16 13 17 15 18 16 19 21 20 17 21 20 22 18 23
REMARK SMILES IDX 22 24 19 25
REMARK H PARENT
ROOT
ATOM      1  O   UNL     1       3.326   7.328  17.094  1.00  0.00    -0.367 OA
ENDROOT
BRANCH   1   2
ATOM      2  C   UNL     1       3.480   7.065  15.787  1.00  0.00     0.198 C 
BRANCH   2   3
ATOM      3  C   UNL     1       4.643   7.732  15.161  1.00  0.00    -0.004 A 
ATOM      4  C   UNL     1       7.040   8.771  14.052  1.00  0.00     0.042 A 
ATOM      5  C   UNL     1       6.787   7.412  14.105  1.00  0.00     0.021 A 
ATOM      6  C   UNL     1       6.067   9.593  14.567  1.00  0.00     0.041 A 
ATOM      7  C   UNL     1       5.634   6.887  14.637  1.00  0.00     0.009 A 
ATOM      8  C   UNL     1       4.884   9.071  15.112  1.00  0.00     0.048 A 
ATOM      9  Cl  UNL     1       8.528   9.415  13.373  1.00  0.00    -0.084 Cl
ATOM     10  Cl  UNL     1       3.631  10.178  15.664  1.00  0.00    -0.084 Cl
ENDBRANCH   2   3
ENDBRANCH   1   2
BRANCH   1  11
ATOM     11  C   UNL     1       4.231   7.297  18.052  1.00  0.00     0.170 C 
BRANCH  11  12
ATOM     12  C   UNL     1       3.679   8.136  19.232  1.00  0.00     0.160 C 
BRANCH  12  13
ATOM     13  N   UNL     1       4.275   9.435  19.182  1.00  0.00    -0.335 N 
ATOM     14  C   UNL     1       3.748  10.598  19.594  1.00  0.00     0.107 A 
ATOM     15  C   UNL     1       5.507   9.666  18.686  1.00  0.00     0.199 A 
ATOM     16  C   UNL     1       4.705  11.556  19.330  1.00  0.00     0.130 A 
ATOM     17  N   UNL     1       5.772  10.961  18.774  1.00  0.00    -0.245 NA
ENDBRANCH  12  13
ENDBRANCH  11  12
BRANCH  11  18
ATOM     18  C   UNL     1       4.480   5.896  18.578  1.00  0.00     0.001 A 
ATOM     19  C   UNL     1       3.484   5.167  19.183  1.00  0.00     0.009 A 
ATOM     20  C   UNL     1       5.725   5.333  18.457  1.00  0.00     0.048 A 
ATOM     21  C   UNL     1       3.752   3.877  19.662  1.00  0.00     0.021 A 
ATOM     22  C   UNL     1       6.002   4.051  18.928  1.00  0.00     0.041 A 
ATOM     23  C   UNL     1       5.002   3.316  19.537  1.00  0.00     0.042 A 
ATOM     24  Cl  UNL     1       6.983   6.279  17.683  1.00  0.00    -0.084 Cl
ATOM     25  Cl  UNL     1       5.341   1.701  20.139  1.00  0.00    -0.084 Cl
ENDBRANCH  11  18
ENDBRANCH   1  11
TORSDOF 6
ENDMDL
MODEL 2
REMARK VINA RESULT:      -5.5      2.799      5.132
REMARK SMILES Clc1ccc(COC(Cn2ccnc2)c2ccc(Cl)cc2Cl)c(Cl)c1
REMARK SMILES IDX 7 1 6 2 5 3 2 4 3 5 25 6 4 7 23 8 1 9 24 10 8 11 9 12 10 13
REMARK SMILES IDX 11 14 14 15 12 16 13 17 15 18 16 19 21 20 17 21 20 22 18 23
REMARK SMILES IDX 22 24 19 25
REMARK H PARENT
ROOT
ATOM      1  O   UNL     1       5.589   5.696  16.503  1.00  0.00    -0.367 OA
ENDROOT
BRANCH   1   2
ATOM      2  C   UNL     1       5.121   6.134  15.325  1.00  0.00     0.198 C 
BRANCH   2   3
ATOM      3  C   UNL     1       6.030   7.055  14.608  1.00  0.00    -0.004 A 
ATOM      4  C   UNL     1       7.560   9.036  13.270  1.00  0.00     0.042 A 
ATOM      5  C   UNL     1       6.701   9.351  14.309  1.00  0.00     0.021 A 
ATOM      6  C   UNL     1       7.633   7.709  12.921  1.00  0.00     0.041 A 
ATOM      7  C   UNL     1       5.951   8.409  14.971  1.00  0.00     0.009 A 
ATOM      8  C   UNL     1       6.874   6.736  13.589  1.00  0.00     0.048 A 
ATOM      9  Cl  UNL     1       8.502  10.263  12.436  1.00  0.00    -0.084 Cl
ATOM     10  Cl  UNL     1       7.085   5.041  13.163  1.00  0.00    -0.084 Cl
ENDBRANCH   2   3
ENDBRANCH   1   2
BRANCH   1  11
ATOM     11  C   UNL     1       4.959   5.603  17.657  1.00  0.00     0.170 C 
BRANCH  11  12
ATOM     12  C   UNL     1       5.908   4.879  18.644  1.00  0.00     0.160 C 
BRANCH  12  13
ATOM     13  N   UNL     1       5.276   3.672  19.077  1.00  0.00    -0.335 N 
ATOM     14  C   UNL     1       4.016   3.273  18.843  1.00  0.00     0.107 A 
ATOM     15  C   UNL     1       5.899   2.733  19.818  1.00  0.00     0.199 A 
ATOM     16  C   UNL     1       3.888   2.051  19.470  1.00  0.00     0.130 A 
ATOM     17  N   UNL     1       5.054   1.742  20.060  1.00  0.00    -0.245 NA
ENDBRANCH  12  13
ENDBRANCH  11  12
BRANCH  11  18
ATOM     18  C   UNL     1       4.637   6.958  18.260  1.00  0.00     0.001 A 
ATOM     19  C   UNL     1       5.587   7.947  18.354  1.00  0.00     0.009 A 
ATOM     20  C   UNL     1       3.375   7.214  18.732  1.00  0.00     0.048 A 
ATOM     21  C   UNL     1       5.256   9.186  18.922  1.00  0.00     0.021 A 
ATOM     22  C   UNL     1       3.034   8.441  19.297  1.00  0.00     0.041 A 
ATOM     23  C   UNL     1       3.988   9.437  19.391  1.00  0.00     0.042 A 
ATOM     24  Cl  UNL     1       2.177   5.939  18.605  1.00  0.00    -0.084 Cl
ATOM     25  Cl  UNL     1       3.571  10.987  20.106  1.00  0.00    -0.084 Cl
ENDBRANCH  11  18
ENDBRANCH   1  11
TORSDOF 6
ENDMDL
MODEL 3
REMARK VINA RESULT:      -5.4      1.547      1.907
REMARK SMILES Clc1ccc(COC(Cn2ccnc2)c2ccc(Cl)cc2Cl)c(Cl)c1
REMARK SMILES IDX 7 1 6 2 5 3 2 4 3 5 25 6 4 7 23 8 1 9 24 10 8 11 9 12 10 13
REMARK SMILES IDX 11 14 14 15 12 16 13 17 15 18 16 19 21 20 17 21 20 22 18 23
REMARK SMILES IDX 22 24 19 25
REMARK H PARENT
ROOT
ATOM      1  O   UNL     1       3.471   7.552  17.110  1.00  0.00    -0.367 OA
ENDROOT
BRANCH   1   2
ATOM      2  C   UNL     1       3.663   8.065  15.885  1.00  0.00     0.198 C 
BRANCH   2   3
ATOM      3  C   UNL     1       4.541   7.255  15.013  1.00  0.00    -0.004 A 
ATOM      4  C   UNL     1       6.281   5.957  13.185  1.00  0.00     0.042 A 
ATOM      5  C   UNL     1       6.471   7.273  13.569  1.00  0.00     0.021 A 
ATOM      6  C   UNL     1       5.202   5.311  13.737  1.00  0.00     0.041 A 
ATOM      7  C   UNL     1       5.642   7.921  14.452  1.00  0.00     0.009 A 
ATOM      8  C   UNL     1       4.348   5.960  14.642  1.00  0.00     0.048 A 
ATOM      9  Cl  UNL     1       7.354   5.155  12.046  1.00  0.00    -0.084 Cl
ATOM     10  Cl  UNL     1       3.041   5.049  15.392  1.00  0.00    -0.084 Cl
ENDBRANCH   2   3
ENDBRANCH   1   2
BRANCH   1  11
ATOM     11  C   UNL     1       4.313   7.502  18.123  1.00  0.00     0.170 C 
BRANCH  11  12
ATOM     12  C   UNL     1       3.681   8.304  19.288  1.00  0.00     0.160 C 
BRANCH  12  13
ATOM     13  N   UNL     1       4.234   9.623  19.282  1.00  0.00    -0.335 N 
ATOM     14  C   UNL     1       3.674  10.752  19.742  1.00  0.00     0.107 A 
ATOM     15  C   UNL     1       5.454   9.912  18.784  1.00  0.00     0.199 A 
ATOM     16  C   UNL     1       4.597  11.749  19.507  1.00  0.00     0.130 A 
ATOM     17  N   UNL     1       5.678  11.211  18.919  1.00  0.00    -0.245 NA
ENDBRANCH  12  13
ENDBRANCH  11  12
BRANCH  11  18
ATOM     18  C   UNL     1       4.540   6.088  18.627  1.00  0.00     0.001 A 
ATOM     19  C   UNL     1       3.585   5.423  19.358  1.00  0.00     0.009 A 
ATOM     20  C   UNL     1       5.723   5.449  18.356  1.00  0.00     0.048 A 
ATOM     21  C   UNL     1       3.832   4.119  19.811  1.00  0.00     0.021 A 
ATOM     22  C   UNL     1       5.978   4.153  18.800  1.00  0.00     0.041 A 
ATOM     23  C   UNL     1       5.019   3.482  19.536  1.00  0.00     0.042 A 
ATOM     24  Cl  UNL     1       6.929   6.314  17.422  1.00  0.00    -0.084 Cl
ATOM     25  Cl  UNL     1       5.331   1.850  20.105  1.00  0.00    -0.084 Cl
ENDBRANCH  11  18
ENDBRANCH   1  11
TORSDOF 6
ENDMDL
MODEL 4
REMARK VINA RESULT:      -5.4      1.539      1.989
REMARK SMILES Clc1ccc(COC(Cn2ccnc2)c2ccc(Cl)cc2Cl)c(Cl)c1
REMARK SMILES IDX 7 1 6 2 5 3 2 4 3 5 25 6 4 7 23 8 1 9 24 10 8 11 9 12 10 13
REMARK SMILES IDX 11 14 14 15 12 16 13 17 15 18 16 19 21 20 17 21 20 22 18 23
REMARK SMILES IDX 22 24 19 25
REMARK H PARENT
ROOT
ATOM      1  O   UNL     1       4.318   7.062  16.066  1.00  0.00    -0.367 OA
ENDROOT
BRANCH   1   2
ATOM      2  C   UNL     1       4.178   7.995  15.111  1.00  0.00     0.198 C 
BRANCH   2   3
ATOM      3  C   UNL     1       5.427   8.710  14.767  1.00  0.00    -0.004 A 
ATOM      4  C   UNL     1       7.652  10.336  14.088  1.00  0.00     0.042 A 
ATOM      5  C   UNL     1       6.588  10.822  14.827  1.00  0.00     0.021 A 
ATOM      6  C   UNL     1       7.575   9.020  13.701  1.00  0.00     0.041 A 
ATOM      7  C   UNL     1       5.501  10.054  15.167  1.00  0.00     0.009 A 
ATOM      8  C   UNL     1       6.471   8.223  14.042  1.00  0.00     0.048 A 
ATOM      9  Cl  UNL     1       9.028  11.344  13.661  1.00  0.00    -0.084 Cl
ATOM     10  Cl  UNL     1       6.474   6.518  13.602  1.00  0.00    -0.084 Cl
ENDBRANCH   2   3
ENDBRANCH   1   2
BRANCH   1  11
ATOM     11  C   UNL     1       4.384   7.225  17.372  1.00  0.00     0.170 C 
BRANCH  11  12
ATOM     12  C   UNL     1       3.017   7.785  17.836  1.00  0.00     0.160 C 
BRANCH  12  13
ATOM     13  N   UNL     1       3.254   8.873  18.734  1.00  0.00    -0.335 N 
ATOM     14  C   UNL     1       4.162   9.855  18.615  1.00  0.00     0.107 A 
ATOM     15  C   UNL     1       2.560   9.057  19.876  1.00  0.00     0.199 A 
ATOM     16  C   UNL     1       3.999  10.651  19.730  1.00  0.00     0.130 A 
ATOM     17  N   UNL     1       3.013  10.141  20.486  1.00  0.00    -0.245 NA
ENDBRANCH  12  13
ENDBRANCH  11  12
BRANCH  11  18
ATOM     18  C   UNL     1       4.607   5.920  18.114  1.00  0.00     0.001 A 
ATOM     19  C   UNL     1       3.576   5.268  18.748  1.00  0.00     0.009 A 
ATOM     20  C   UNL     1       5.862   5.370  18.166  1.00  0.00     0.048 A 
ATOM     21  C   UNL     1       3.820   4.067  19.429  1.00  0.00     0.021 A 
ATOM     22  C   UNL     1       6.115   4.175  18.839  1.00  0.00     0.041 A 
ATOM     23  C   UNL     1       5.080   3.518  19.476  1.00  0.00     0.042 A 
ATOM     24  Cl  UNL     1       7.165   6.217  17.353  1.00  0.00    -0.084 Cl
ATOM     25  Cl  UNL     1       5.389   2.015  20.331  1.00  0.00    -0.084 Cl
ENDBRANCH  11  18
ENDBRANCH   1  11
TORSDOF 6
ENDMDL
MODEL 5
REMARK VINA RESULT:      -5.3      2.711      5.116
REMARK SMILES Clc1ccc(COC(Cn2ccnc2)c2ccc(Cl)cc2Cl)c(Cl)c1
REMARK SMILES IDX 7 1 6 2 5 3 2 4 3 5 25 6 4 7 23 8 1 9 24 10 8 11 9 12 10 13
REMARK SMILES IDX 11 14 14 15 12 16 13 17 15 18 16 19 21 20 17 21 20 22 18 23
REMARK SMILES IDX 22 24 19 25
REMARK H PARENT
ROOT
ATOM      1  O   UNL     1       5.586   6.665  16.002  1.00  0.00    -0.367 OA
ENDROOT
BRANCH   1   2
ATOM      2  C   UNL     1       5.240   7.455  14.974  1.00  0.00     0.198 C 
BRANCH   2   3
ATOM      3  C   UNL     1       6.281   8.425  14.570  1.00  0.00    -0.004 A 
ATOM      4  C   UNL     1       8.058  10.498  13.796  1.00  0.00     0.042 A 
ATOM      5  C   UNL     1       6.978  10.732  14.629  1.00  0.00     0.021 A 
ATOM      6  C   UNL     1       8.225   9.205  13.363  1.00  0.00     0.041 A 
ATOM      7  C   UNL     1       6.105   9.744  15.016  1.00  0.00     0.009 A 
ATOM      8  C   UNL     1       7.342   8.186  13.752  1.00  0.00     0.048 A 
ATOM      9  Cl  UNL     1       9.155  11.783  13.310  1.00  0.00    -0.084 Cl
ATOM     10  Cl  UNL     1       7.665   6.530  13.245  1.00  0.00    -0.084 Cl
ENDBRANCH   2   3
ENDBRANCH   1   2
BRANCH   1  11
ATOM     11  C   UNL     1       4.976   6.504  17.160  1.00  0.00     0.170 C 
BRANCH  11  12
ATOM     12  C   UNL     1       5.956   5.756  18.097  1.00  0.00     0.160 C 
BRANCH  12  13
ATOM     13  N   UNL     1       5.311   4.572  18.575  1.00  0.00    -0.335 N 
ATOM     14  C   UNL     1       5.841   3.589  19.320  1.00  0.00     0.107 A 
ATOM     15  C   UNL     1       4.019   4.278  18.321  1.00  0.00     0.199 A 
ATOM     16  C   UNL     1       4.824   2.678  19.514  1.00  0.00     0.130 A 
ATOM     17  N   UNL     1       3.719   3.122  18.893  1.00  0.00    -0.245 NA
ENDBRANCH  12  13
ENDBRANCH  11  12
BRANCH  11  18
ATOM     18  C   UNL     1       4.634   7.822  17.831  1.00  0.00     0.001 A 
ATOM     19  C   UNL     1       5.606   8.618  18.388  1.00  0.00     0.009 A 
ATOM     20  C   UNL     1       3.328   8.237  17.894  1.00  0.00     0.048 A 
ATOM     21  C   UNL     1       5.253   9.827  19.004  1.00  0.00     0.021 A 
ATOM     22  C   UNL     1       2.967   9.437  18.503  1.00  0.00     0.041 A 
ATOM     23  C   UNL     1       3.943  10.240  19.064  1.00  0.00     0.042 A 
ATOM     24  Cl  UNL     1       2.103   7.206  17.180  1.00  0.00    -0.084 Cl
ATOM     25  Cl  UNL     1       3.497  11.752  19.838  1.00  0.00    -0.084 Cl
ENDBRANCH  11  18
ENDBRANCH   1  11
TORSDOF 6
ENDMDL
MODEL 6
REMARK VINA RESULT:      -5.3      2.480      6.700
REMARK SMILES Clc1ccc(COC(Cn2ccnc2)c2ccc(Cl)cc2Cl)c(Cl)c1
REMARK SMILES IDX 7 1 6 2 5 3 2 4 3 5 25 6 4 7 23 8 1 9 24 10 8 11 9 12 10 13
REMARK SMILES IDX 11 14 14 15 12 16 13 17 15 18 16 19 21 20 17 21 20 22 18 23
REMARK SMILES IDX 22 24 19 25
REMARK H PARENT
ROOT
ATOM      1  O   UNL     1       4.291   7.861  16.822  1.00  0.00    -0.367 OA
ENDROOT
BRANCH   1   2
ATOM      2  C   UNL     1       4.685   7.636  18.085  1.00  0.00     0.198 C 
BRANCH   2   3
ATOM      3  C   UNL     1       4.788   6.205  18.447  1.00  0.00    -0.004 A 
ATOM      4  C   UNL     1       4.778   3.519  19.363  1.00  0.00     0.042 A 
ATOM      5  C   UNL     1       3.647   4.314  19.416  1.00  0.00     0.021 A 
ATOM      6  C   UNL     1       5.909   4.100  18.842  1.00  0.00     0.041 A 
ATOM      7  C   UNL     1       3.629   5.617  18.978  1.00  0.00     0.009 A 
ATOM      8  C   UNL     1       5.904   5.428  18.390  1.00  0.00     0.048 A 
ATOM      9  Cl  UNL     1       4.776   1.857  19.937  1.00  0.00    -0.084 Cl
ATOM     10  Cl  UNL     1       7.356   6.086  17.641  1.00  0.00    -0.084 Cl
ENDBRANCH   2   3
ENDBRANCH   1   2
BRANCH   1  11
ATOM     11  C   UNL     1       4.791   7.373  15.704  1.00  0.00     0.170 C 
BRANCH  11  12
ATOM     12  C   UNL     1       3.603   7.122  14.741  1.00  0.00     0.160 C 
BRANCH  12  13
ATOM     13  N   UNL     1       2.847   6.014  15.234  1.00  0.00    -0.335 N 
ATOM     14  C   UNL     1       1.572   6.010  15.655  1.00  0.00     0.107 A 
ATOM     15  C   UNL     1       3.347   4.766  15.347  1.00  0.00     0.199 A 
ATOM     16  C   UNL     1       1.307   4.710  16.032  1.00  0.00     0.130 A 
ATOM     17  N   UNL     1       2.409   3.968  15.835  1.00  0.00    -0.245 NA
ENDBRANCH  12  13
ENDBRANCH  11  12
BRANCH  11  18
ATOM     18  C   UNL     1       5.732   8.341  15.010  1.00  0.00     0.001 A 
ATOM     19  C   UNL     1       5.543   9.700  15.077  1.00  0.00     0.009 A 
ATOM     20  C   UNL     1       6.797   7.860  14.291  1.00  0.00     0.048 A 
ATOM     21  C   UNL     1       6.429  10.564  14.419  1.00  0.00     0.021 A 
ATOM     22  C   UNL     1       7.685   8.710  13.635  1.00  0.00     0.041 A 
ATOM     23  C   UNL     1       7.497  10.078  13.701  1.00  0.00     0.042 A 
ATOM     24  Cl  UNL     1       7.020   6.122  14.216  1.00  0.00    -0.084 Cl
ATOM     25  Cl  UNL     1       8.607  11.158  12.873  1.00  0.00    -0.084 Cl
ENDBRANCH  11  18
ENDBRANCH   1  11
TORSDOF 6
ENDMDL
MODEL 7
REMARK VINA RESULT:      -5.2      3.937      6.357
REMARK SMILES Clc1ccc(COC(Cn2ccnc2)c2ccc(Cl)cc2Cl)c(Cl)c1
REMARK SMILES IDX 7 1 6 2 5 3 2 4 3 5 25 6 4 7 23 8 1 9 24 10 8 11 9 12 10 13
REMARK SMILES IDX 11 14 14 15 12 16 13 17 15 18 16 19 21 20 17 21 20 22 18 23
REMARK SMILES IDX 22 24 19 25
REMARK H PARENT
ROOT
ATOM      1  O   UNL     1       8.201   7.407  13.598  1.00  0.00    -0.367 OA
ENDROOT
BRANCH   1   2
ATOM      2  C   UNL     1       8.549   8.496  12.895  1.00  0.00     0.198 C 
BRANCH   2   3
ATOM      3  C   UNL     1       7.595   9.622  13.000  1.00  0.00    -0.004 A 
ATOM      4  C   UNL     1       5.727  11.702  13.494  1.00  0.00     0.042 A 
ATOM      5  C   UNL     1       6.601  11.254  14.470  1.00  0.00     0.021 A 
ATOM      6  C   UNL     1       5.813  11.084  12.270  1.00  0.00     0.041 A 
ATOM      7  C   UNL     1       7.513  10.249  14.253  1.00  0.00     0.009 A 
ATOM      8  C   UNL     1       6.740  10.058  12.034  1.00  0.00     0.048 A 
ATOM      9  Cl  UNL     1       4.565  12.984  13.802  1.00  0.00    -0.084 Cl
ATOM     10  Cl  UNL     1       6.871   9.373  10.417  1.00  0.00    -0.084 Cl
ENDBRANCH   2   3
ENDBRANCH   1   2
BRANCH   1  11
ATOM     11  C   UNL     1       7.043   6.778  13.623  1.00  0.00     0.170 C 
BRANCH  11  12
ATOM     12  C   UNL     1       7.325   5.284  13.325  1.00  0.00     0.160 C 
BRANCH  12  13
ATOM     13  N   UNL     1       7.141   5.059  11.925  1.00  0.00    -0.335 N 
ATOM     14  C   UNL     1       6.579   5.882  11.026  1.00  0.00     0.107 A 
ATOM     15  C   UNL     1       7.528   3.929  11.299  1.00  0.00     0.199 A 
ATOM     16  C   UNL     1       6.636   5.213   9.821  1.00  0.00     0.130 A 
ATOM     17  N   UNL     1       7.220   4.020  10.014  1.00  0.00    -0.245 NA
ENDBRANCH  12  13
ENDBRANCH  11  12
BRANCH  11  18
ATOM     18  C   UNL     1       6.369   6.843  14.981  1.00  0.00     0.001 A 
ATOM     19  C   UNL     1       6.973   6.339  16.108  1.00  0.00     0.009 A 
ATOM     20  C   UNL     1       5.126   7.411  15.100  1.00  0.00     0.048 A 
ATOM     21  C   UNL     1       6.318   6.412  17.346  1.00  0.00     0.021 A 
ATOM     22  C   UNL     1       4.467   7.490  16.325  1.00  0.00     0.041 A 
ATOM     23  C   UNL     1       5.073   6.984  17.460  1.00  0.00     0.042 A 
ATOM     24  Cl  UNL     1       4.371   8.047  13.650  1.00  0.00    -0.084 Cl
ATOM     25  Cl  UNL     1       4.249   7.074  19.009  1.00  0.00    -0.084 Cl
ENDBRANCH  11  18
ENDBRANCH   1  11
TORSDOF 6
ENDMDL
MODEL 8
REMARK VINA RESULT:      -5.2      2.417      5.423
REMARK SMILES Clc1ccc(COC(Cn2ccnc2)c2ccc(Cl)cc2Cl)c(Cl)c1
REMARK SMILES IDX 7 1 6 2 5 3 2 4 3 5 25 6 4 7 23 8 1 9 24 10 8 11 9 12 10 13
REMARK SMILES IDX 11 14 14 15 12 16 13 17 15 18 16 19 21 20 17 21 20 22 18 23
REMARK SMILES IDX 22 24 19 25
REMARK H PARENT
ROOT
ATOM      1  O   UNL     1       5.825   8.785  16.746  1.00  0.00    -0.367 OA
ENDROOT
BRANCH   1   2
ATOM      2  C   UNL     1       5.011   8.505  17.775  1.00  0.00     0.198 C 
BRANCH   2   3
ATOM      3  C   UNL     1       5.125   7.122  18.288  1.00  0.00    -0.004 A 
ATOM      4  C   UNL     1       5.521   4.410  19.026  1.00  0.00     0.042 A 
ATOM      5  C   UNL     1       6.494   5.139  18.365  1.00  0.00     0.021 A 
ATOM      6  C   UNL     1       4.350   5.072  19.306  1.00  0.00     0.041 A 
ATOM      7  C   UNL     1       6.325   6.452  17.998  1.00  0.00     0.009 A 
ATOM      8  C   UNL     1       4.163   6.413  18.939  1.00  0.00     0.048 A 
ATOM      9  Cl  UNL     1       5.762   2.728  19.477  1.00  0.00    -0.084 Cl
ATOM     10  Cl  UNL     1       2.681   7.235  19.413  1.00  0.00    -0.084 Cl
ENDBRANCH   2   3
ENDBRANCH   1   2
BRANCH   1  11
ATOM     11  C   UNL     1       5.520   8.940  15.473  1.00  0.00     0.170 C 
BRANCH  11  12
ATOM     12  C   UNL     1       6.266  10.201  14.971  1.00  0.00     0.160 C 
BRANCH  12  13
ATOM     13  N   UNL     1       5.648  11.353  15.550  1.00  0.00    -0.335 N 
ATOM     14  C   UNL     1       6.179  12.219  16.427  1.00  0.00     0.107 A 
ATOM     15  C   UNL     1       4.384  11.734  15.273  1.00  0.00     0.199 A 
ATOM     16  C   UNL     1       5.191  13.148  16.680  1.00  0.00     0.130 A 
ATOM     17  N   UNL     1       4.102  12.829  15.963  1.00  0.00    -0.245 NA
ENDBRANCH  12  13
ENDBRANCH  11  12
BRANCH  11  18
ATOM     18  C   UNL     1       5.981   7.777  14.613  1.00  0.00     0.001 A 
ATOM     19  C   UNL     1       7.212   7.777  14.003  1.00  0.00     0.009 A 
ATOM     20  C   UNL     1       5.157   6.696  14.429  1.00  0.00     0.048 A 
ATOM     21  C   UNL     1       7.603   6.688  13.212  1.00  0.00     0.021 A 
ATOM     22  C   UNL     1       5.536   5.607  13.646  1.00  0.00     0.041 A 
ATOM     23  C   UNL     1       6.774   5.606  13.031  1.00  0.00     0.042 A 
ATOM     24  Cl  UNL     1       3.589   6.714  15.214  1.00  0.00    -0.084 Cl
ATOM     25  Cl  UNL     1       7.259   4.241  12.038  1.00  0.00    -0.084 Cl
ENDBRANCH  11  18
ENDBRANCH   1  11
TORSDOF 6
ENDMDL
MODEL 9
REMARK VINA RESULT:      -5.1     14.670     17.195
REMARK SMILES Clc1ccc(COC(Cn2ccnc2)c2ccc(Cl)cc2Cl)c(Cl)c1
REMARK SMILES IDX 7 1 6 2 5 3 2 4 3 5 25 6 4 7 23 8 1 9 24 10 8 11 9 12 10 13
REMARK SMILES IDX 11 14 14 15 12 16 13 17 15 18 16 19 21 20 17 21 20 22 18 23
REMARK SMILES IDX 22 24 19 25
REMARK H PARENT
ROOT
ATOM      1  O   UNL     1      11.602  -4.185  26.448  1.00  0.00    -0.367 OA
ENDROOT
BRANCH   1   2
ATOM      2  C   UNL     1      11.249  -3.354  25.456  1.00  0.00     0.198 C 
BRANCH   2   3
ATOM      3  C   UNL     1      10.856  -4.032  24.201  1.00  0.00    -0.004 A 
ATOM      4  C   UNL     1       9.825  -5.368  21.919  1.00  0.00     0.042 A 
ATOM      5  C   UNL     1       9.033  -4.556  22.712  1.00  0.00     0.021 A 
ATOM      6  C   UNL     1      11.140  -5.493  22.296  1.00  0.00     0.041 A 
ATOM      7  C   UNL     1       9.511  -3.899  23.821  1.00  0.00     0.009 A 
ATOM      8  C   UNL     1      11.641  -4.828  23.425  1.00  0.00     0.048 A 
ATOM      9  Cl  UNL     1       9.185  -6.202  20.510  1.00  0.00    -0.084 Cl
ATOM     10  Cl  UNL     1      13.358  -4.948  23.801  1.00  0.00    -0.084 Cl
ENDBRANCH   2   3
ENDBRANCH   1   2
BRANCH   1  11
ATOM     11  C   UNL     1      11.625  -3.955  27.746  1.00  0.00     0.170 C 
BRANCH  11  12
ATOM     12  C   UNL     1      10.840  -5.102  28.431  1.00  0.00     0.160 C 
BRANCH  12  13
ATOM     13  N   UNL     1      10.352  -4.628  29.689  1.00  0.00    -0.335 N 
ATOM     14  C   UNL     1      10.738  -5.007  30.917  1.00  0.00     0.107 A 
ATOM     15  C   UNL     1       9.387  -3.693  29.804  1.00  0.00     0.199 A 
ATOM     16  C   UNL     1       9.973  -4.267  31.794  1.00  0.00     0.130 A 
ATOM     17  N   UNL     1       9.153  -3.470  31.089  1.00  0.00    -0.245 NA
ENDBRANCH  12  13
ENDBRANCH  11  12
BRANCH  11  18
ATOM     18  C   UNL     1      13.030  -3.971  28.320  1.00  0.00     0.001 A 
ATOM     19  C   UNL     1      13.911  -4.987  28.035  1.00  0.00     0.009 A 
ATOM     20  C   UNL     1      13.441  -2.958  29.147  1.00  0.00     0.048 A 
ATOM     21  C   UNL     1      15.200  -4.972  28.587  1.00  0.00     0.021 A 
ATOM     22  C   UNL     1      14.720  -2.932  29.700  1.00  0.00     0.041 A 
ATOM     23  C   UNL     1      15.608  -3.952  29.414  1.00  0.00     0.042 A 
ATOM     24  Cl  UNL     1      12.302  -1.672  29.500  1.00  0.00    -0.084 Cl
ATOM     25  Cl  UNL     1      17.221  -3.932  30.110  1.00  0.00    -0.084 Cl
ENDBRANCH  11  18
ENDBRANCH   1  11
TORSDOF 6
ENDMDL
