MODEL 1
REMARK VINA RESULT:      -5.5      0.000      0.000
REMARK SMILES O=C1c2c([O-])ccc(O)c2C(=O)c2c(NCC[NH2+]CCO)ccc(NCCNCCO)c21
REMARK SMILES IDX 1 1 2 2 3 3 4 4 5 5 6 6 7 7 8 8 10 9 11 10 12 11 13 12 14 13
REMARK SMILES IDX 22 14 23 15 24 16 32 17 25 18 26 20 27 21 28 22 29 24 30 25
REMARK SMILES IDX 31 26 9 28 15 30 16 32 17 33 18 34 19 37 20 38 21 39
REMARK H PARENT 25 19 28 23 31 27 9 29 15 31 18 35 18 36 21 40
ROOT
ATOM      1  O   UNL     1      13.861  -5.999  27.994  1.00  0.00    -0.288 OA
ATOM      2  C   UNL     1      13.389  -5.470  26.958  1.00  0.00     0.196 C 
ATOM      3  C   UNL     1      11.964  -5.063  26.971  1.00  0.00     0.030 A 
ATOM      4  C   UNL     1      11.242  -5.290  28.127  1.00  0.00    -0.097 A 
ATOM      5  O   UNL     1      11.865  -5.884  29.220  1.00  0.00    -0.872 OA
ATOM      6  C   UNL     1       9.915  -4.919  28.163  1.00  0.00    -0.004 A 
ATOM      7  C   UNL     1       9.328  -4.338  27.074  1.00  0.00     0.046 A 
ATOM      8  C   UNL     1      10.030  -4.102  25.912  1.00  0.00     0.127 A 
ATOM      9  C   UNL     1      11.372  -4.482  25.888  1.00  0.00     0.075 A 
ATOM     10  C   UNL     1      12.161  -4.251  24.673  1.00  0.00     0.200 C 
ATOM     11  O   UNL     1      11.536  -3.712  23.728  1.00  0.00    -0.288 OA
ATOM     12  C   UNL     1      13.563  -4.643  24.635  1.00  0.00     0.059 A 
ATOM     13  C   UNL     1      14.249  -4.406  23.477  1.00  0.00     0.046 A 
ATOM     14  C   UNL     1      15.602  -4.801  23.478  1.00  0.00     0.028 A 
ATOM     15  C   UNL     1      16.184  -5.378  24.563  1.00  0.00     0.028 A 
ATOM     16  C   UNL     1      15.479  -5.622  25.754  1.00  0.00     0.046 A 
ATOM     17  C   UNL     1      14.162  -5.244  25.771  1.00  0.00     0.059 A 
ENDROOT
BRANCH  16  18
ATOM     18  N   UNL     1      16.199  -6.200  26.842  1.00  0.00    -0.383 N 
ATOM     19  H   UNL     1      16.016  -7.140  27.163  1.00  0.00     0.160 HD
BRANCH  18  20
ATOM     20  C   UNL     1      17.231  -5.469  27.553  1.00  0.00     0.128 C 
BRANCH  20  21
ATOM     21  C   UNL     1      16.844  -4.099  27.980  1.00  0.00     0.102 C 
BRANCH  21  22
ATOM     22  N   UNL     1      17.679  -3.619  29.089  1.00  0.00    -0.313 NA
ATOM     23  H   UNL     1      18.426  -4.343  29.227  1.00  0.00     0.122 HD
BRANCH  22  24
ATOM     24  C   UNL     1      16.849  -3.659  30.284  1.00  0.00     0.109 C 
BRANCH  24  25
ATOM     25  C   UNL     1      15.387  -3.502  29.940  1.00  0.00     0.171 C 
BRANCH  25  26
ATOM     26  O   UNL     1      14.875  -2.297  30.414  1.00  0.00    -0.395 OA
ATOM     27  H   UNL     1      13.881  -2.376  30.418  1.00  0.00     0.210 HD
ENDBRANCH  25  26
ENDBRANCH  24  25
ENDBRANCH  22  24
ENDBRANCH  21  22
ENDBRANCH  20  21
ENDBRANCH  18  20
ENDBRANCH  16  18
BRANCH   8  28
ATOM     28  O   UNL     1       9.425  -3.506  24.799  1.00  0.00    -0.507 OA
ATOM     29  H   UNL     1       9.908  -2.796  24.244  1.00  0.00     0.293 HD
ENDBRANCH   8  28
BRANCH  13  30
ATOM     30  N   UNL     1      13.730  -3.814  22.307  1.00  0.00    -0.379 N 
ATOM     31  H   UNL     1      12.865  -4.064  21.853  1.00  0.00     0.160 HD
BRANCH  30  32
ATOM     32  C   UNL     1      14.469  -2.726  21.633  1.00  0.00     0.174 C 
BRANCH  32  33
ATOM     33  C   UNL     1      13.566  -1.733  20.998  1.00  0.00     0.281 C 
BRANCH  33  34
ATOM     34  N   UNL     1      12.322  -1.532  21.674  1.00  0.00    -0.343 N 
ATOM     35  H   UNL     1      12.165  -2.194  22.468  1.00  0.00     0.346 HD
ATOM     36  H   UNL     1      12.343  -0.574  22.102  1.00  0.00     0.346 HD
BRANCH  34  37
ATOM     37  C   UNL     1      11.172  -1.571  20.804  1.00  0.00     0.289 C 
BRANCH  37  38
ATOM     38  C   UNL     1      11.046  -2.891  20.079  1.00  0.00     0.217 C 
BRANCH  38  39
ATOM     39  O   UNL     1      10.879  -3.898  21.014  1.00  0.00    -0.391 OA
ATOM     40  H   UNL     1      10.774  -4.754  20.505  1.00  0.00     0.210 HD
ENDBRANCH  38  39
ENDBRANCH  37  38
ENDBRANCH  34  37
ENDBRANCH  33  34
ENDBRANCH  32  33
ENDBRANCH  30  32
ENDBRANCH  13  30
TORSDOF 15
ENDMDL
MODEL 2
REMARK VINA RESULT:      -5.5      2.495      4.585
REMARK SMILES O=C1c2c([O-])ccc(O)c2C(=O)c2c(NCC[NH2+]CCO)ccc(NCCNCCO)c21
REMARK SMILES IDX 1 1 2 2 3 3 4 4 5 5 6 6 7 7 8 8 10 9 11 10 12 11 13 12 14 13
REMARK SMILES IDX 22 14 23 15 24 16 32 17 25 18 26 20 27 21 28 22 29 24 30 25
REMARK SMILES IDX 31 26 9 28 15 30 16 32 17 33 18 34 19 37 20 38 21 39
REMARK H PARENT 25 19 28 23 31 27 9 29 15 31 18 35 18 36 21 40
ROOT
ATOM      1  O   UNL     1      12.801  -5.309  29.151  1.00  0.00    -0.288 OA
ATOM      2  C   UNL     1      12.887  -5.133  27.911  1.00  0.00     0.196 C 
ATOM      3  C   UNL     1      14.224  -4.858  27.336  1.00  0.00     0.030 A 
ATOM      4  C   UNL     1      15.299  -4.816  28.202  1.00  0.00    -0.097 A 
ATOM      5  O   UNL     1      15.094  -5.028  29.562  1.00  0.00    -0.872 OA
ATOM      6  C   UNL     1      16.553  -4.564  27.691  1.00  0.00    -0.004 A 
ATOM      7  C   UNL     1      16.727  -4.359  26.350  1.00  0.00     0.046 A 
ATOM      8  C   UNL     1      15.669  -4.397  25.469  1.00  0.00     0.127 A 
ATOM      9  C   UNL     1      14.405  -4.653  25.999  1.00  0.00     0.075 A 
ATOM     10  C   UNL     1      13.246  -4.704  25.100  1.00  0.00     0.200 C 
ATOM     11  O   UNL     1      13.504  -4.504  23.889  1.00  0.00    -0.288 OA
ATOM     12  C   UNL     1      11.921  -4.971  25.641  1.00  0.00     0.059 A 
ATOM     13  C   UNL     1      10.878  -5.003  24.758  1.00  0.00     0.046 A 
ATOM     14  C   UNL     1       9.611  -5.262  25.320  1.00  0.00     0.028 A 
ATOM     15  C   UNL     1       9.442  -5.467  26.653  1.00  0.00     0.028 A 
ATOM     16  C   UNL     1      10.513  -5.433  27.562  1.00  0.00     0.046 A 
ATOM     17  C   UNL     1      11.753  -5.182  27.033  1.00  0.00     0.059 A 
ENDROOT
BRANCH  16  18
ATOM     18  N   UNL     1      10.226  -5.696  28.933  1.00  0.00    -0.383 N 
ATOM     19  H   UNL     1      10.459  -6.578  29.368  1.00  0.00     0.160 HD
BRANCH  18  20
ATOM     20  C   UNL     1       9.577  -4.715  29.784  1.00  0.00     0.128 C 
BRANCH  20  21
ATOM     21  C   UNL     1       9.965  -3.305  29.517  1.00  0.00     0.102 C 
BRANCH  21  22
ATOM     22  N   UNL     1      11.189  -2.933  30.238  1.00  0.00    -0.313 NA
ATOM     23  H   UNL     1      10.876  -2.440  31.110  1.00  0.00     0.122 HD
BRANCH  22  24
ATOM     24  C   UNL     1      11.864  -1.932  29.425  1.00  0.00     0.109 C 
BRANCH  24  25
ATOM     25  C   UNL     1      13.334  -1.854  29.762  1.00  0.00     0.171 C 
BRANCH  25  26
ATOM     26  O   UNL     1      13.701  -2.831  30.684  1.00  0.00    -0.395 OA
ATOM     27  H   UNL     1      12.862  -3.243  31.033  1.00  0.00     0.210 HD
ENDBRANCH  25  26
ENDBRANCH  24  25
ENDBRANCH  22  24
ENDBRANCH  21  22
ENDBRANCH  20  21
ENDBRANCH  18  20
ENDBRANCH  16  18
BRANCH   8  28
ATOM     28  O   UNL     1      15.851  -4.187  24.096  1.00  0.00    -0.507 OA
ATOM     29  H   UNL     1      16.532  -4.726  23.559  1.00  0.00     0.293 HD
ENDBRANCH   8  28
BRANCH  13  30
ATOM     30  N   UNL     1      10.960  -4.805  23.364  1.00  0.00    -0.379 N 
ATOM     31  H   UNL     1      11.529  -5.339  22.725  1.00  0.00     0.160 HD
BRANCH  30  32
ATOM     32  C   UNL     1      10.170  -3.738  22.716  1.00  0.00     0.174 C 
BRANCH  32  33
ATOM     33  C   UNL     1      10.923  -2.464  22.598  1.00  0.00     0.281 C 
BRANCH  33  34
ATOM     34  N   UNL     1      11.300  -2.109  21.265  1.00  0.00    -0.343 N 
ATOM     35  H   UNL     1      11.197  -2.890  20.578  1.00  0.00     0.346 HD
ATOM     36  H   UNL     1      10.645  -1.355  20.939  1.00  0.00     0.346 HD
BRANCH  34  37
ATOM     37  C   UNL     1      12.634  -1.571  21.158  1.00  0.00     0.289 C 
BRANCH  37  38
ATOM     38  C   UNL     1      13.671  -2.650  20.947  1.00  0.00     0.217 C 
BRANCH  38  39
ATOM     39  O   UNL     1      14.558  -2.629  22.010  1.00  0.00    -0.391 OA
ATOM     40  H   UNL     1      14.381  -3.452  22.552  1.00  0.00     0.210 HD
ENDBRANCH  38  39
ENDBRANCH  37  38
ENDBRANCH  34  37
ENDBRANCH  33  34
ENDBRANCH  32  33
ENDBRANCH  30  32
ENDBRANCH  13  30
TORSDOF 15
ENDMDL
MODEL 3
REMARK VINA RESULT:      -5.3      2.428      4.479
REMARK SMILES O=C1c2c([O-])ccc(O)c2C(=O)c2c(NCC[NH2+]CCO)ccc(NCCNCCO)c21
REMARK SMILES IDX 1 1 2 2 3 3 4 4 5 5 6 6 7 7 8 8 10 9 11 10 12 11 13 12 14 13
REMARK SMILES IDX 22 14 23 15 24 16 32 17 25 18 26 20 27 21 28 22 29 24 30 25
REMARK SMILES IDX 31 26 9 28 15 30 16 32 17 33 18 34 19 37 20 38 21 39
REMARK H PARENT 25 19 28 23 31 27 9 29 15 31 18 35 18 36 21 40
ROOT
ATOM      1  O   UNL     1      12.887  -6.262  28.469  1.00  0.00    -0.288 OA
ATOM      2  C   UNL     1      13.150  -5.764  27.347  1.00  0.00     0.196 C 
ATOM      3  C   UNL     1      14.529  -5.910  26.826  1.00  0.00     0.030 A 
ATOM      4  C   UNL     1      15.443  -6.590  27.608  1.00  0.00    -0.097 A 
ATOM      5  O   UNL     1      15.044  -7.105  28.838  1.00  0.00    -0.872 OA
ATOM      6  C   UNL     1      16.731  -6.739  27.144  1.00  0.00    -0.004 A 
ATOM      7  C   UNL     1      17.095  -6.223  25.932  1.00  0.00     0.046 A 
ATOM      8  C   UNL     1      16.201  -5.542  25.136  1.00  0.00     0.127 A 
ATOM      9  C   UNL     1      14.900  -5.398  25.617  1.00  0.00     0.075 A 
ATOM     10  C   UNL     1      13.910  -4.680  24.805  1.00  0.00     0.200 C 
ATOM     11  O   UNL     1      14.337  -4.243  23.710  1.00  0.00    -0.288 OA
ATOM     12  C   UNL     1      12.548  -4.522  25.296  1.00  0.00     0.059 A 
ATOM     13  C   UNL     1      11.670  -3.842  24.500  1.00  0.00     0.046 A 
ATOM     14  C   UNL     1      10.362  -3.709  25.010  1.00  0.00     0.028 A 
ATOM     15  C   UNL     1      10.003  -4.225  26.216  1.00  0.00     0.028 A 
ATOM     16  C   UNL     1      10.905  -4.923  27.035  1.00  0.00     0.046 A 
ATOM     17  C   UNL     1      12.181  -5.062  26.554  1.00  0.00     0.059 A 
ENDROOT
BRANCH  16  18
ATOM     18  N   UNL     1      10.410  -5.452  28.263  1.00  0.00    -0.383 N 
ATOM     19  H   UNL     1      10.368  -6.446  28.439  1.00  0.00     0.160 HD
BRANCH  18  20
ATOM     20  C   UNL     1       9.934  -4.593  29.332  1.00  0.00     0.128 C 
BRANCH  20  21
ATOM     21  C   UNL     1      10.960  -3.684  29.906  1.00  0.00     0.102 C 
BRANCH  21  22
ATOM     22  N   UNL     1      11.940  -4.416  30.719  1.00  0.00    -0.313 NA
ATOM     23  H   UNL     1      11.613  -4.336  31.713  1.00  0.00     0.122 HD
BRANCH  22  24
ATOM     24  C   UNL     1      13.188  -3.672  30.640  1.00  0.00     0.109 C 
BRANCH  24  25
ATOM     25  C   UNL     1      13.204  -2.757  29.440  1.00  0.00     0.171 C 
BRANCH  25  26
ATOM     26  O   UNL     1      14.473  -2.680  28.870  1.00  0.00    -0.395 OA
ATOM     27  H   UNL     1      14.843  -1.780  29.087  1.00  0.00     0.210 HD
ENDBRANCH  25  26
ENDBRANCH  24  25
ENDBRANCH  22  24
ENDBRANCH  21  22
ENDBRANCH  20  21
ENDBRANCH  18  20
ENDBRANCH  16  18
BRANCH   8  28
ATOM     28  O   UNL     1      16.578  -5.015  23.894  1.00  0.00    -0.507 OA
ATOM     29  H   UNL     1      17.342  -5.420  23.351  1.00  0.00     0.293 HD
ENDBRANCH   8  28
BRANCH  13  30
ATOM     30  N   UNL     1      11.953  -3.277  23.239  1.00  0.00    -0.379 N 
ATOM     31  H   UNL     1      12.847  -3.295  22.772  1.00  0.00     0.160 HD
BRANCH  30  32
ATOM     32  C   UNL     1      10.894  -2.579  22.482  1.00  0.00     0.174 C 
BRANCH  32  33
ATOM     33  C   UNL     1      10.904  -2.923  21.038  1.00  0.00     0.281 C 
BRANCH  33  34
ATOM     34  N   UNL     1      11.739  -4.032  20.690  1.00  0.00    -0.343 N 
ATOM     35  H   UNL     1      12.202  -4.482  21.512  1.00  0.00     0.346 HD
ATOM     36  H   UNL     1      11.126  -4.772  20.268  1.00  0.00     0.346 HD
BRANCH  34  37
ATOM     37  C   UNL     1      12.745  -3.719  19.705  1.00  0.00     0.289 C 
BRANCH  37  38
ATOM     38  C   UNL     1      14.146  -3.823  20.264  1.00  0.00     0.217 C 
BRANCH  38  39
ATOM     39  O   UNL     1      14.328  -2.818  21.198  1.00  0.00    -0.391 OA
ATOM     40  H   UNL     1      14.219  -3.236  22.101  1.00  0.00     0.210 HD
ENDBRANCH  38  39
ENDBRANCH  37  38
ENDBRANCH  34  37
ENDBRANCH  33  34
ENDBRANCH  32  33
ENDBRANCH  30  32
ENDBRANCH  13  30
TORSDOF 15
ENDMDL
MODEL 4
REMARK VINA RESULT:      -5.1      2.444      4.469
REMARK SMILES O=C1c2c([O-])ccc(O)c2C(=O)c2c(NCC[NH2+]CCO)ccc(NCCNCCO)c21
REMARK SMILES IDX 1 1 2 2 3 3 4 4 5 5 6 6 7 7 8 8 10 9 11 10 12 11 13 12 14 13
REMARK SMILES IDX 22 14 23 15 24 16 32 17 25 18 26 20 27 21 28 22 29 24 30 25
REMARK SMILES IDX 31 26 9 28 15 30 16 32 17 33 18 34 19 37 20 38 21 39
REMARK H PARENT 25 19 28 23 31 27 9 29 15 31 18 35 18 36 21 40
ROOT
ATOM      1  O   UNL     1      12.668  -6.039  28.436  1.00  0.00    -0.288 OA
ATOM      2  C   UNL     1      12.942  -5.592  27.296  1.00  0.00     0.196 C 
ATOM      3  C   UNL     1      14.329  -5.751  26.799  1.00  0.00     0.030 A 
ATOM      4  C   UNL     1      15.237  -6.386  27.624  1.00  0.00    -0.097 A 
ATOM      5  O   UNL     1      14.827  -6.846  28.871  1.00  0.00    -0.872 OA
ATOM      6  C   UNL     1      16.532  -6.547  27.183  1.00  0.00    -0.004 A 
ATOM      7  C   UNL     1      16.909  -6.085  25.952  1.00  0.00     0.046 A 
ATOM      8  C   UNL     1      16.019  -5.449  25.115  1.00  0.00     0.127 A 
ATOM      9  C   UNL     1      14.711  -5.293  25.572  1.00  0.00     0.075 A 
ATOM     10  C   UNL     1      13.727  -4.621  24.715  1.00  0.00     0.200 C 
ATOM     11  O   UNL     1      14.165  -4.233  23.605  1.00  0.00    -0.288 OA
ATOM     12  C   UNL     1      12.358  -4.452  25.181  1.00  0.00     0.059 A 
ATOM     13  C   UNL     1      11.484  -3.817  24.342  1.00  0.00     0.046 A 
ATOM     14  C   UNL     1      10.169  -3.670  24.830  1.00  0.00     0.028 A 
ATOM     15  C   UNL     1       9.798  -4.132  26.053  1.00  0.00     0.028 A 
ATOM     16  C   UNL     1      10.695  -4.784  26.916  1.00  0.00     0.046 A 
ATOM     17  C   UNL     1      11.978  -4.935  26.458  1.00  0.00     0.059 A 
ENDROOT
BRANCH  16  18
ATOM     18  N   UNL     1      10.188  -5.258  28.162  1.00  0.00    -0.383 N 
ATOM     19  H   UNL     1      10.037  -6.241  28.337  1.00  0.00     0.160 HD
BRANCH  18  20
ATOM     20  C   UNL     1       9.856  -4.356  29.249  1.00  0.00     0.128 C 
BRANCH  20  21
ATOM     21  C   UNL     1      10.739  -3.165  29.363  1.00  0.00     0.102 C 
BRANCH  21  22
ATOM     22  N   UNL     1      11.921  -3.443  30.188  1.00  0.00    -0.313 NA
ATOM     23  H   UNL     1      11.661  -3.180  31.170  1.00  0.00     0.122 HD
BRANCH  22  24
ATOM     24  C   UNL     1      12.950  -2.500  29.775  1.00  0.00     0.109 C 
BRANCH  24  25
ATOM     25  C   UNL     1      14.322  -3.130  29.826  1.00  0.00     0.171 C 
BRANCH  25  26
ATOM     26  O   UNL     1      14.272  -4.427  30.331  1.00  0.00    -0.395 OA
ATOM     27  H   UNL     1      15.199  -4.794  30.298  1.00  0.00     0.210 HD
ENDBRANCH  25  26
ENDBRANCH  24  25
ENDBRANCH  22  24
ENDBRANCH  21  22
ENDBRANCH  20  21
ENDBRANCH  18  20
ENDBRANCH  16  18
BRANCH   8  28
ATOM     28  O   UNL     1      16.408  -4.978  23.854  1.00  0.00    -0.507 OA
ATOM     29  H   UNL     1      16.845  -4.062  23.738  1.00  0.00     0.293 HD
ENDBRANCH   8  28
BRANCH  13  30
ATOM     30  N   UNL     1      11.779  -3.309  23.061  1.00  0.00    -0.379 N 
ATOM     31  H   UNL     1      12.441  -2.575  22.855  1.00  0.00     0.160 HD
BRANCH  30  32
ATOM     32  C   UNL     1      11.095  -3.852  21.869  1.00  0.00     0.174 C 
BRANCH  32  33
ATOM     33  C   UNL     1      10.843  -2.816  20.835  1.00  0.00     0.281 C 
BRANCH  33  34
ATOM     34  N   UNL     1      11.248  -3.177  19.512  1.00  0.00    -0.343 N 
ATOM     35  H   UNL     1      11.764  -2.419  19.010  1.00  0.00     0.346 HD
ATOM     36  H   UNL     1      11.924  -3.976  19.592  1.00  0.00     0.346 HD
BRANCH  34  37
ATOM     37  C   UNL     1      10.166  -3.634  18.674  1.00  0.00     0.289 C 
BRANCH  37  38
ATOM     38  C   UNL     1      10.531  -3.617  17.207  1.00  0.00     0.217 C 
BRANCH  38  39
ATOM     39  O   UNL     1      11.737  -4.277  17.041  1.00  0.00    -0.391 OA
ATOM     40  H   UNL     1      11.828  -4.914  17.808  1.00  0.00     0.210 HD
ENDBRANCH  38  39
ENDBRANCH  37  38
ENDBRANCH  34  37
ENDBRANCH  33  34
ENDBRANCH  32  33
ENDBRANCH  30  32
ENDBRANCH  13  30
TORSDOF 15
ENDMDL
MODEL 5
REMARK VINA RESULT:      -5.1      2.261      2.993
REMARK SMILES O=C1c2c([O-])ccc(O)c2C(=O)c2c(NCC[NH2+]CCO)ccc(NCCNCCO)c21
REMARK SMILES IDX 1 1 2 2 3 3 4 4 5 5 6 6 7 7 8 8 10 9 11 10 12 11 13 12 14 13
REMARK SMILES IDX 22 14 23 15 24 16 32 17 25 18 26 20 27 21 28 22 29 24 30 25
REMARK SMILES IDX 31 26 9 28 15 30 16 32 17 33 18 34 19 37 20 38 21 39
REMARK H PARENT 25 19 28 23 31 27 9 29 15 31 18 35 18 36 21 40
ROOT
ATOM      1  O   UNL     1      11.246  -5.990  27.243  1.00  0.00    -0.288 OA
ATOM      2  C   UNL     1      11.413  -5.761  26.020  1.00  0.00     0.196 C 
ATOM      3  C   UNL     1      10.287  -6.041  25.099  1.00  0.00     0.030 A 
ATOM      4  C   UNL     1       9.119  -6.537  25.645  1.00  0.00    -0.097 A 
ATOM      5  O   UNL     1       9.040  -6.753  27.017  1.00  0.00    -0.872 OA
ATOM      6  C   UNL     1       8.057  -6.805  24.808  1.00  0.00    -0.004 A 
ATOM      7  C   UNL     1       8.162  -6.583  23.463  1.00  0.00     0.046 A 
ATOM      8  C   UNL     1       9.317  -6.089  22.898  1.00  0.00     0.127 A 
ATOM      9  C   UNL     1      10.384  -5.822  23.756  1.00  0.00     0.075 A 
ATOM     10  C   UNL     1      11.636  -5.295  23.201  1.00  0.00     0.200 C 
ATOM     11  O   UNL     1      11.637  -5.124  21.958  1.00  0.00    -0.288 OA
ATOM     12  C   UNL     1      12.757  -5.012  24.086  1.00  0.00     0.059 A 
ATOM     13  C   UNL     1      13.900  -4.525  23.514  1.00  0.00     0.046 A 
ATOM     14  C   UNL     1      14.963  -4.266  24.403  1.00  0.00     0.028 A 
ATOM     15  C   UNL     1      14.855  -4.486  25.740  1.00  0.00     0.028 A 
ATOM     16  C   UNL     1      13.682  -4.987  26.328  1.00  0.00     0.046 A 
ATOM     17  C   UNL     1      12.638  -5.245  25.479  1.00  0.00     0.059 A 
ENDROOT
BRANCH  16  18
ATOM     18  N   UNL     1      13.668  -5.146  27.745  1.00  0.00    -0.383 N 
ATOM     19  H   UNL     1      13.218  -5.933  28.191  1.00  0.00     0.160 HD
BRANCH  18  20
ATOM     20  C   UNL     1      14.296  -4.183  28.632  1.00  0.00     0.128 C 
BRANCH  20  21
ATOM     21  C   UNL     1      13.406  -3.084  29.089  1.00  0.00     0.102 C 
BRANCH  21  22
ATOM     22  N   UNL     1      11.999  -3.353  28.761  1.00  0.00    -0.313 NA
ATOM     23  H   UNL     1      11.703  -2.593  28.101  1.00  0.00     0.122 HD
BRANCH  22  24
ATOM     24  C   UNL     1      11.239  -3.149  29.985  1.00  0.00     0.109 C 
BRANCH  24  25
ATOM     25  C   UNL     1      11.101  -4.435  30.764  1.00  0.00     0.171 C 
BRANCH  25  26
ATOM     26  O   UNL     1      11.349  -5.548  29.965  1.00  0.00    -0.395 OA
ATOM     27  H   UNL     1      12.311  -5.787  30.077  1.00  0.00     0.210 HD
ENDBRANCH  25  26
ENDBRANCH  24  25
ENDBRANCH  22  24
ENDBRANCH  21  22
ENDBRANCH  20  21
ENDBRANCH  18  20
ENDBRANCH  16  18
BRANCH   8  28
ATOM     28  O   UNL     1       9.421  -5.863  21.520  1.00  0.00    -0.507 OA
ATOM     29  H   UNL     1       9.696  -6.606  20.875  1.00  0.00     0.293 HD
ENDBRANCH   8  28
BRANCH  13  30
ATOM     30  N   UNL     1      14.100  -4.265  22.143  1.00  0.00    -0.379 N 
ATOM     31  H   UNL     1      13.920  -4.909  21.388  1.00  0.00     0.160 HD
BRANCH  30  32
ATOM     32  C   UNL     1      14.619  -2.954  21.702  1.00  0.00     0.174 C 
BRANCH  32  33
ATOM     33  C   UNL     1      13.657  -2.220  20.843  1.00  0.00     0.281 C 
BRANCH  33  34
ATOM     34  N   UNL     1      12.841  -1.268  21.531  1.00  0.00    -0.343 N 
ATOM     35  H   UNL     1      13.141  -1.093  22.517  1.00  0.00     0.346 HD
ATOM     36  H   UNL     1      12.938  -0.347  21.036  1.00  0.00     0.346 HD
BRANCH  34  37
ATOM     37  C   UNL     1      11.435  -1.592  21.526  1.00  0.00     0.289 C 
BRANCH  37  38
ATOM     38  C   UNL     1      10.985  -2.166  20.201  1.00  0.00     0.217 C 
BRANCH  38  39
ATOM     39  O   UNL     1      10.216  -3.292  20.443  1.00  0.00    -0.391 OA
ATOM     40  H   UNL     1       9.648  -3.436  19.632  1.00  0.00     0.210 HD
ENDBRANCH  38  39
ENDBRANCH  37  38
ENDBRANCH  34  37
ENDBRANCH  33  34
ENDBRANCH  32  33
ENDBRANCH  30  32
ENDBRANCH  13  30
TORSDOF 15
ENDMDL
MODEL 6
REMARK VINA RESULT:      -5.1      3.219      6.446
REMARK SMILES O=C1c2c([O-])ccc(O)c2C(=O)c2c(NCC[NH2+]CCO)ccc(NCCNCCO)c21
REMARK SMILES IDX 1 1 2 2 3 3 4 4 5 5 6 6 7 7 8 8 10 9 11 10 12 11 13 12 14 13
REMARK SMILES IDX 22 14 23 15 24 16 32 17 25 18 26 20 27 21 28 22 29 24 30 25
REMARK SMILES IDX 31 26 9 28 15 30 16 32 17 33 18 34 19 37 20 38 21 39
REMARK H PARENT 25 19 28 23 31 27 9 29 15 31 18 35 18 36 21 40
ROOT
ATOM      1  O   UNL     1       9.277  -3.843  27.904  1.00  0.00    -0.288 OA
ATOM      2  C   UNL     1      10.413  -3.950  27.379  1.00  0.00     0.196 C 
ATOM      3  C   UNL     1      11.593  -3.984  28.274  1.00  0.00     0.030 A 
ATOM      4  C   UNL     1      11.371  -3.898  29.635  1.00  0.00    -0.097 A 
ATOM      5  O   UNL     1      10.068  -3.785  30.111  1.00  0.00    -0.872 OA
ATOM      6  C   UNL     1      12.453  -3.930  30.487  1.00  0.00    -0.004 A 
ATOM      7  C   UNL     1      13.722  -4.043  29.992  1.00  0.00     0.046 A 
ATOM      8  C   UNL     1      13.966  -4.129  28.639  1.00  0.00     0.127 A 
ATOM      9  C   UNL     1      12.862  -4.097  27.787  1.00  0.00     0.075 A 
ATOM     10  C   UNL     1      13.072  -4.186  26.337  1.00  0.00     0.200 C 
ATOM     11  O   UNL     1      14.270  -4.287  25.978  1.00  0.00    -0.288 OA
ATOM     12  C   UNL     1      11.928  -4.153  25.437  1.00  0.00     0.059 A 
ATOM     13  C   UNL     1      12.183  -4.237  24.097  1.00  0.00     0.046 A 
ATOM     14  C   UNL     1      11.050  -4.200  23.258  1.00  0.00     0.028 A 
ATOM     15  C   UNL     1       9.789  -4.089  23.753  1.00  0.00     0.028 A 
ATOM     16  C   UNL     1       9.527  -4.002  25.131  1.00  0.00     0.046 A 
ATOM     17  C   UNL     1      10.616  -4.037  25.961  1.00  0.00     0.059 A 
ENDROOT
BRANCH  16  18
ATOM     18  N   UNL     1       8.163  -3.925  25.541  1.00  0.00    -0.383 N 
ATOM     19  H   UNL     1       7.836  -3.210  26.175  1.00  0.00     0.160 HD
BRANCH  18  20
ATOM     20  C   UNL     1       7.166  -4.871  25.074  1.00  0.00     0.128 C 
BRANCH  20  21
ATOM     21  C   UNL     1       5.760  -4.400  25.184  1.00  0.00     0.102 C 
BRANCH  21  22
ATOM     22  N   UNL     1       5.689  -2.950  25.407  1.00  0.00    -0.313 NA
ATOM     23  H   UNL     1       5.942  -2.797  26.414  1.00  0.00     0.122 HD
BRANCH  22  24
ATOM     24  C   UNL     1       4.289  -2.576  25.277  1.00  0.00     0.109 C 
BRANCH  24  25
ATOM     25  C   UNL     1       3.620  -2.486  26.628  1.00  0.00     0.171 C 
BRANCH  25  26
ATOM     26  O   UNL     1       3.683  -1.195  27.147  1.00  0.00    -0.395 OA
ATOM     27  H   UNL     1       3.355  -0.573  26.439  1.00  0.00     0.210 HD
ENDBRANCH  25  26
ENDBRANCH  24  25
ENDBRANCH  22  24
ENDBRANCH  21  22
ENDBRANCH  20  21
ENDBRANCH  18  20
ENDBRANCH  16  18
BRANCH   8  28
ATOM     28  O   UNL     1      15.268  -4.245  28.135  1.00  0.00    -0.507 OA
ATOM     29  H   UNL     1      16.077  -3.909  28.661  1.00  0.00     0.293 HD
ENDBRANCH   8  28
BRANCH  13  30
ATOM     30  N   UNL     1      13.452  -4.356  23.495  1.00  0.00    -0.379 N 
ATOM     31  H   UNL     1      14.170  -3.646  23.487  1.00  0.00     0.160 HD
BRANCH  30  32
ATOM     32  C   UNL     1      13.831  -5.600  22.795  1.00  0.00     0.174 C 
BRANCH  32  33
ATOM     33  C   UNL     1      13.941  -5.418  21.326  1.00  0.00     0.281 C 
BRANCH  33  34
ATOM     34  N   UNL     1      14.956  -4.501  20.908  1.00  0.00    -0.343 N 
ATOM     35  H   UNL     1      15.503  -4.092  21.699  1.00  0.00     0.346 HD
ATOM     36  H   UNL     1      15.650  -5.036  20.329  1.00  0.00     0.346 HD
BRANCH  34  37
ATOM     37  C   UNL     1      14.468  -3.427  20.077  1.00  0.00     0.289 C 
BRANCH  37  38
ATOM     38  C   UNL     1      14.530  -2.089  20.778  1.00  0.00     0.217 C 
BRANCH  38  39
ATOM     39  O   UNL     1      13.369  -1.917  21.512  1.00  0.00    -0.391 OA
ATOM     40  H   UNL     1      12.643  -2.405  21.026  1.00  0.00     0.210 HD
ENDBRANCH  38  39
ENDBRANCH  37  38
ENDBRANCH  34  37
ENDBRANCH  33  34
ENDBRANCH  32  33
ENDBRANCH  30  32
ENDBRANCH  13  30
TORSDOF 15
ENDMDL
MODEL 7
REMARK VINA RESULT:      -5.0      2.451      4.471
REMARK SMILES O=C1c2c([O-])ccc(O)c2C(=O)c2c(NCC[NH2+]CCO)ccc(NCCNCCO)c21
REMARK SMILES IDX 1 1 2 2 3 3 4 4 5 5 6 6 7 7 8 8 10 9 11 10 12 11 13 12 14 13
REMARK SMILES IDX 22 14 23 15 24 16 32 17 25 18 26 20 27 21 28 22 29 24 30 25
REMARK SMILES IDX 31 26 9 28 15 30 16 32 17 33 18 34 19 37 20 38 21 39
REMARK H PARENT 25 19 28 23 31 27 9 29 15 31 18 35 18 36 21 40
ROOT
ATOM      1  O   UNL     1      13.068  -5.368  28.808  1.00  0.00    -0.288 OA
ATOM      2  C   UNL     1      13.445  -5.039  27.657  1.00  0.00     0.196 C 
ATOM      3  C   UNL     1      14.888  -4.778  27.444  1.00  0.00     0.030 A 
ATOM      4  C   UNL     1      15.732  -4.914  28.529  1.00  0.00    -0.097 A 
ATOM      5  O   UNL     1      15.208  -5.286  29.763  1.00  0.00    -0.872 OA
ATOM      6  C   UNL     1      17.078  -4.678  28.355  1.00  0.00    -0.004 A 
ATOM      7  C   UNL     1      17.566  -4.314  27.131  1.00  0.00     0.046 A 
ATOM      8  C   UNL     1      16.742  -4.172  26.036  1.00  0.00     0.127 A 
ATOM      9  C   UNL     1      15.381  -4.415  26.225  1.00  0.00     0.075 A 
ATOM     10  C   UNL     1      14.463  -4.276  25.088  1.00  0.00     0.200 C 
ATOM     11  O   UNL     1      15.003  -3.940  24.007  1.00  0.00    -0.288 OA
ATOM     12  C   UNL     1      13.041  -4.527  25.272  1.00  0.00     0.059 A 
ATOM     13  C   UNL     1      12.232  -4.381  24.180  1.00  0.00     0.046 A 
ATOM     14  C   UNL     1      10.862  -4.630  24.398  1.00  0.00     0.028 A 
ATOM     15  C   UNL     1      10.380  -4.993  25.616  1.00  0.00     0.028 A 
ATOM     16  C   UNL     1      11.210  -5.143  26.740  1.00  0.00     0.046 A 
ATOM     17  C   UNL     1      12.546  -4.905  26.546  1.00  0.00     0.059 A 
ENDROOT
BRANCH  16  18
ATOM     18  N   UNL     1      10.603  -5.562  27.960  1.00  0.00    -0.383 N 
ATOM     19  H   UNL     1      10.701  -6.505  28.309  1.00  0.00     0.160 HD
BRANCH  18  20
ATOM     20  C   UNL     1       9.803  -4.660  28.769  1.00  0.00     0.128 C 
BRANCH  20  21
ATOM     21  C   UNL     1      10.286  -3.255  28.797  1.00  0.00     0.102 C 
BRANCH  21  22
ATOM     22  N   UNL     1      11.249  -3.033  29.885  1.00  0.00    -0.313 NA
ATOM     23  H   UNL     1      10.688  -2.702  30.708  1.00  0.00     0.122 HD
BRANCH  22  24
ATOM     24  C   UNL     1      12.082  -1.910  29.482  1.00  0.00     0.109 C 
BRANCH  24  25
ATOM     25  C   UNL     1      13.491  -2.059  30.005  1.00  0.00     0.171 C 
BRANCH  25  26
ATOM     26  O   UNL     1      13.621  -3.184  30.816  1.00  0.00    -0.395 OA
ATOM     27  H   UNL     1      12.782  -3.716  30.724  1.00  0.00     0.210 HD
ENDBRANCH  25  26
ENDBRANCH  24  25
ENDBRANCH  22  24
ENDBRANCH  21  22
ENDBRANCH  20  21
ENDBRANCH  18  20
ENDBRANCH  16  18
BRANCH   8  28
ATOM     28  O   UNL     1      17.245  -3.799  24.783  1.00  0.00    -0.507 OA
ATOM     29  H   UNL     1      16.878  -4.201  23.919  1.00  0.00     0.293 HD
ENDBRANCH   8  28
BRANCH  13  30
ATOM     30  N   UNL     1      12.643  -4.011  22.882  1.00  0.00    -0.379 N 
ATOM     31  H   UNL     1      13.596  -3.873  22.582  1.00  0.00     0.160 HD
BRANCH  30  32
ATOM     32  C   UNL     1      11.641  -3.786  21.820  1.00  0.00     0.174 C 
BRANCH  32  33
ATOM     33  C   UNL     1      11.490  -2.351  21.473  1.00  0.00     0.281 C 
BRANCH  33  34
ATOM     34  N   UNL     1      10.941  -2.099  20.177  1.00  0.00    -0.343 N 
ATOM     35  H   UNL     1      10.281  -1.289  20.151  1.00  0.00     0.346 HD
ATOM     36  H   UNL     1      11.734  -1.841  19.539  1.00  0.00     0.346 HD
BRANCH  34  37
ATOM     37  C   UNL     1      10.293  -3.244  19.585  1.00  0.00     0.289 C 
BRANCH  37  38
ATOM     38  C   UNL     1      10.789  -3.523  18.185  1.00  0.00     0.217 C 
BRANCH  38  39
ATOM     39  O   UNL     1      11.036  -4.880  18.063  1.00  0.00    -0.391 OA
ATOM     40  H   UNL     1      10.436  -5.221  17.338  1.00  0.00     0.210 HD
ENDBRANCH  38  39
ENDBRANCH  37  38
ENDBRANCH  34  37
ENDBRANCH  33  34
ENDBRANCH  32  33
ENDBRANCH  30  32
ENDBRANCH  13  30
TORSDOF 15
ENDMDL
MODEL 8
REMARK VINA RESULT:      -4.9      2.361      3.211
REMARK SMILES O=C1c2c([O-])ccc(O)c2C(=O)c2c(NCC[NH2+]CCO)ccc(NCCNCCO)c21
REMARK SMILES IDX 1 1 2 2 3 3 4 4 5 5 6 6 7 7 8 8 10 9 11 10 12 11 13 12 14 13
REMARK SMILES IDX 22 14 23 15 24 16 32 17 25 18 26 20 27 21 28 22 29 24 30 25
REMARK SMILES IDX 31 26 9 28 15 30 16 32 17 33 18 34 19 37 20 38 21 39
REMARK H PARENT 25 19 28 23 31 27 9 29 15 31 18 35 18 36 21 40
ROOT
ATOM      1  O   UNL     1      12.154  -5.903  27.678  1.00  0.00    -0.288 OA
ATOM      2  C   UNL     1      12.456  -5.454  26.546  1.00  0.00     0.196 C 
ATOM      3  C   UNL     1      11.416  -5.467  25.490  1.00  0.00     0.030 A 
ATOM      4  C   UNL     1      10.174  -5.974  25.819  1.00  0.00    -0.097 A 
ATOM      5  O   UNL     1       9.944  -6.446  27.108  1.00  0.00    -0.872 OA
ATOM      6  C   UNL     1       9.190  -5.996  24.855  1.00  0.00    -0.004 A 
ATOM      7  C   UNL     1       9.442  -5.525  23.596  1.00  0.00     0.046 A 
ATOM      8  C   UNL     1      10.674  -5.016  23.247  1.00  0.00     0.127 A 
ATOM      9  C   UNL     1      11.661  -4.999  24.232  1.00  0.00     0.075 A 
ATOM     10  C   UNL     1      12.989  -4.466  23.908  1.00  0.00     0.200 C 
ATOM     11  O   UNL     1      13.125  -4.058  22.730  1.00  0.00    -0.288 OA
ATOM     12  C   UNL     1      14.028  -4.443  24.928  1.00  0.00     0.059 A 
ATOM     13  C   UNL     1      15.247  -3.938  24.569  1.00  0.00     0.046 A 
ATOM     14  C   UNL     1      16.227  -3.934  25.583  1.00  0.00     0.028 A 
ATOM     15  C   UNL     1      15.972  -4.402  26.834  1.00  0.00     0.028 A 
ATOM     16  C   UNL     1      14.720  -4.921  27.203  1.00  0.00     0.046 A 
ATOM     17  C   UNL     1      13.755  -4.933  26.230  1.00  0.00     0.059 A 
ENDROOT
BRANCH  16  18
ATOM     18  N   UNL     1      14.554  -5.351  28.552  1.00  0.00    -0.383 N 
ATOM     19  H   UNL     1      14.090  -6.218  28.784  1.00  0.00     0.160 HD
BRANCH  18  20
ATOM     20  C   UNL     1      15.039  -4.566  29.673  1.00  0.00     0.128 C 
BRANCH  20  21
ATOM     21  C   UNL     1      13.990  -3.802  30.399  1.00  0.00     0.102 C 
BRANCH  21  22
ATOM     22  N   UNL     1      12.688  -4.480  30.342  1.00  0.00    -0.313 NA
ATOM     23  H   UNL     1      12.703  -5.069  29.474  1.00  0.00     0.122 HD
BRANCH  22  24
ATOM     24  C   UNL     1      11.689  -3.447  30.116  1.00  0.00     0.109 C 
BRANCH  24  25
ATOM     25  C   UNL     1      10.316  -4.046  29.925  1.00  0.00     0.171 C 
BRANCH  25  26
ATOM     26  O   UNL     1       9.884  -3.928  28.606  1.00  0.00    -0.395 OA
ATOM     27  H   UNL     1      10.687  -4.015  28.021  1.00  0.00     0.210 HD
ENDBRANCH  25  26
ENDBRANCH  24  25
ENDBRANCH  22  24
ENDBRANCH  21  22
ENDBRANCH  20  21
ENDBRANCH  18  20
ENDBRANCH  16  18
BRANCH   8  28
ATOM     28  O   UNL     1      10.929  -4.534  21.957  1.00  0.00    -0.507 OA
ATOM     29  H   UNL     1      11.369  -5.120  21.245  1.00  0.00     0.293 HD
ENDBRANCH   8  28
BRANCH  13  30
ATOM     30  N   UNL     1      15.599  -3.432  23.301  1.00  0.00    -0.379 N 
ATOM     31  H   UNL     1      15.137  -2.675  22.819  1.00  0.00     0.160 HD
BRANCH  30  32
ATOM     32  C   UNL     1      16.734  -4.015  22.556  1.00  0.00     0.174 C 
BRANCH  32  33
ATOM     33  C   UNL     1      16.938  -3.371  21.234  1.00  0.00     0.281 C 
BRANCH  33  34
ATOM     34  N   UNL     1      16.431  -4.113  20.120  1.00  0.00    -0.343 N 
ATOM     35  H   UNL     1      17.061  -4.097  19.285  1.00  0.00     0.346 HD
ATOM     36  H   UNL     1      16.368  -5.120  20.410  1.00  0.00     0.346 HD
BRANCH  34  37
ATOM     37  C   UNL     1      15.106  -3.718  19.709  1.00  0.00     0.289 C 
BRANCH  37  38
ATOM     38  C   UNL     1      14.221  -4.907  19.411  1.00  0.00     0.217 C 
BRANCH  38  39
ATOM     39  O   UNL     1      12.951  -4.648  19.899  1.00  0.00    -0.391 OA
ATOM     40  H   UNL     1      12.405  -5.472  19.741  1.00  0.00     0.210 HD
ENDBRANCH  38  39
ENDBRANCH  37  38
ENDBRANCH  34  37
ENDBRANCH  33  34
ENDBRANCH  32  33
ENDBRANCH  30  32
ENDBRANCH  13  30
TORSDOF 15
ENDMDL
MODEL 9
REMARK VINA RESULT:      -4.8      2.577      4.623
REMARK SMILES O=C1c2c([O-])ccc(O)c2C(=O)c2c(NCC[NH2+]CCO)ccc(NCCNCCO)c21
REMARK SMILES IDX 1 1 2 2 3 3 4 4 5 5 6 6 7 7 8 8 10 9 11 10 12 11 13 12 14 13
REMARK SMILES IDX 22 14 23 15 24 16 32 17 25 18 26 20 27 21 28 22 29 24 30 25
REMARK SMILES IDX 31 26 9 28 15 30 16 32 17 33 18 34 19 37 20 38 21 39
REMARK H PARENT 25 19 28 23 31 27 9 29 15 31 18 35 18 36 21 40
ROOT
ATOM      1  O   UNL     1      13.041  -5.453  28.997  1.00  0.00    -0.288 OA
ATOM      2  C   UNL     1      13.153  -5.163  27.781  1.00  0.00     0.196 C 
ATOM      3  C   UNL     1      14.511  -4.909  27.246  1.00  0.00     0.030 A 
ATOM      4  C   UNL     1      15.575  -5.008  28.122  1.00  0.00    -0.097 A 
ATOM      5  O   UNL     1      15.339  -5.338  29.453  1.00  0.00    -0.872 OA
ATOM      6  C   UNL     1      16.848  -4.777  27.648  1.00  0.00    -0.004 A 
ATOM      7  C   UNL     1      17.051  -4.455  26.335  1.00  0.00     0.046 A 
ATOM      8  C   UNL     1      16.005  -4.351  25.445  1.00  0.00     0.127 A 
ATOM      9  C   UNL     1      14.721  -4.587  25.937  1.00  0.00     0.075 A 
ATOM     10  C   UNL     1      13.574  -4.488  25.027  1.00  0.00     0.200 C 
ATOM     11  O   UNL     1      13.860  -4.188  23.843  1.00  0.00    -0.288 OA
ATOM     12  C   UNL     1      12.230  -4.733  25.528  1.00  0.00     0.059 A 
ATOM     13  C   UNL     1      11.199  -4.624  24.637  1.00  0.00     0.046 A 
ATOM     14  C   UNL     1       9.912  -4.866  25.160  1.00  0.00     0.028 A 
ATOM     15  C   UNL     1       9.714  -5.187  26.466  1.00  0.00     0.028 A 
ATOM     16  C   UNL     1      10.772  -5.298  27.383  1.00  0.00     0.046 A 
ATOM     17  C   UNL     1      12.030  -5.067  26.891  1.00  0.00     0.059 A 
ENDROOT
BRANCH  16  18
ATOM     18  N   UNL     1      10.452  -5.676  28.720  1.00  0.00    -0.383 N 
ATOM     19  H   UNL     1      10.839  -6.505  29.149  1.00  0.00     0.160 HD
BRANCH  18  20
ATOM     20  C   UNL     1       9.547  -4.894  29.543  1.00  0.00     0.128 C 
BRANCH  20  21
ATOM     21  C   UNL     1      10.211  -4.038  30.560  1.00  0.00     0.102 C 
BRANCH  21  22
ATOM     22  N   UNL     1      10.547  -2.714  30.020  1.00  0.00    -0.313 NA
ATOM     23  H   UNL     1      10.368  -2.766  28.988  1.00  0.00     0.122 HD
BRANCH  22  24
ATOM     24  C   UNL     1      11.984  -2.551  30.177  1.00  0.00     0.109 C 
BRANCH  24  25
ATOM     25  C   UNL     1      12.567  -1.727  29.054  1.00  0.00     0.171 C 
BRANCH  25  26
ATOM     26  O   UNL     1      13.960  -1.742  29.076  1.00  0.00    -0.395 OA
ATOM     27  H   UNL     1      14.269  -2.031  28.173  1.00  0.00     0.210 HD
ENDBRANCH  25  26
ENDBRANCH  24  25
ENDBRANCH  22  24
ENDBRANCH  21  22
ENDBRANCH  20  21
ENDBRANCH  18  20
ENDBRANCH  16  18
BRANCH   8  28
ATOM     28  O   UNL     1      16.217  -4.021  24.100  1.00  0.00    -0.507 OA
ATOM     29  H   UNL     1      15.472  -4.105  23.406  1.00  0.00     0.293 HD
ENDBRANCH   8  28
BRANCH  13  30
ATOM     30  N   UNL     1      11.310  -4.298  23.269  1.00  0.00    -0.379 N 
ATOM     31  H   UNL     1      11.734  -3.463  22.894  1.00  0.00     0.160 HD
BRANCH  30  32
ATOM     32  C   UNL     1      10.780  -5.216  22.240  1.00  0.00     0.174 C 
BRANCH  32  33
ATOM     33  C   UNL     1      10.784  -4.613  20.883  1.00  0.00     0.281 C 
BRANCH  33  34
ATOM     34  N   UNL     1      10.441  -3.225  20.840  1.00  0.00    -0.343 N 
ATOM     35  H   UNL     1       9.507  -3.038  20.411  1.00  0.00     0.346 HD
ATOM     36  H   UNL     1      10.374  -2.883  21.830  1.00  0.00     0.346 HD
BRANCH  34  37
ATOM     37  C   UNL     1      11.426  -2.401  20.184  1.00  0.00     0.289 C 
BRANCH  37  38
ATOM     38  C   UNL     1      12.270  -1.623  21.169  1.00  0.00     0.217 C 
BRANCH  38  39
ATOM     39  O   UNL     1      11.452  -1.160  22.185  1.00  0.00    -0.391 OA
ATOM     40  H   UNL     1      11.746  -1.617  23.026  1.00  0.00     0.210 HD
ENDBRANCH  38  39
ENDBRANCH  37  38
ENDBRANCH  34  37
ENDBRANCH  33  34
ENDBRANCH  32  33
ENDBRANCH  30  32
ENDBRANCH  13  30
TORSDOF 15
ENDMDL
