MODEL 1
REMARK VINA RESULT:      -4.0      0.000      0.000
REMARK SMILES O=S(=O)([N-]CC[NH2+]C/C=C/c1ccc(Br)cc1)c1cccc2cnccc12
REMARK SMILES IDX 6 1 5 2 4 3 2 4 1 5 3 6 18 7 19 8 27 9 20 10 26 11 22 12
REMARK SMILES IDX 21 13 25 14 23 15 24 16 7 17 8 20 9 21 10 22 11 23 12 24
REMARK SMILES IDX 17 25 13 26 16 27 14 28 15 29
REMARK H PARENT 7 18 7 19
ROOT
ATOM      1  C   UNL     1      15.654   3.404  21.740  1.00  0.00     0.238 C 
ENDROOT
BRANCH   1   2
ATOM      2  C   UNL     1      14.431   2.541  21.948  1.00  0.00    -0.070 C 
BRANCH   2   3
ATOM      3  N   UNL     1      14.729   1.440  22.837  1.00  0.00    -0.540 NA
BRANCH   3   4
ATOM      4  S   UNL     1      13.463   1.278  24.045  1.00  0.00     0.102 S 
ATOM      5  O   UNL     1      13.162  -0.140  24.073  1.00  0.00    -0.244 OA
ATOM      6  O   UNL     1      12.285   2.015  23.463  1.00  0.00    -0.244 OA
BRANCH   4   7
ATOM      7  C   UNL     1      14.004   2.083  25.435  1.00  0.00     0.056 A 
ATOM      8  C   UNL     1      15.341   2.386  25.585  1.00  0.00     0.019 A 
ATOM      9  C   UNL     1      13.148   2.454  26.449  1.00  0.00     0.002 A 
ATOM     10  C   UNL     1      15.780   3.043  26.725  1.00  0.00     0.002 A 
ATOM     11  C   UNL     1      11.813   2.151  26.295  1.00  0.00     0.030 A 
ATOM     12  C   UNL     1      13.563   3.116  27.605  1.00  0.00     0.001 A 
ATOM     13  C   UNL     1      14.910   3.409  27.732  1.00  0.00     0.010 A 
ATOM     14  C   UNL     1      10.938   2.507  27.279  1.00  0.00     0.111 A 
ATOM     15  C   UNL     1      12.653   3.462  28.583  1.00  0.00     0.119 A 
ATOM     16  N   UNL     1      11.368   3.141  28.380  1.00  0.00    -0.264 NA
ENDBRANCH   4   7
ENDBRANCH   3   4
ENDBRANCH   2   3
ENDBRANCH   1   2
BRANCH   1  17
ATOM     17  N   UNL     1      15.393   4.801  21.932  1.00  0.00    -0.344 N 
ATOM     18  H   UNL     1      15.568   5.319  21.066  1.00  0.00     0.346 HD
ATOM     19  H   UNL     1      14.401   4.911  22.251  1.00  0.00     0.346 HD
BRANCH  17  20
ATOM     20  C   UNL     1      16.227   5.266  23.018  1.00  0.00     0.289 C 
BRANCH  20  21
ATOM     21  C   UNL     1      15.462   5.724  24.182  1.00  0.00     0.034 C 
ATOM     22  C   UNL     1      14.150   5.581  24.200  1.00  0.00     0.009 C 
BRANCH  22  23
ATOM     23  C   UNL     1      13.284   5.996  25.297  1.00  0.00    -0.026 A 
ATOM     24  C   UNL     1      13.812   6.668  26.376  1.00  0.00     0.009 A 
ATOM     25  C   UNL     1      11.932   5.752  25.323  1.00  0.00     0.009 A 
ATOM     26  C   UNL     1      13.040   7.086  27.445  1.00  0.00     0.016 A 
ATOM     27  C   UNL     1      11.141   6.171  26.400  1.00  0.00     0.016 A 
ATOM     28  C   UNL     1      11.685   6.840  27.467  1.00  0.00     0.018 A 
ATOM     29  Br  UNL     1      10.583   7.404  28.930  1.00  0.00    -0.051 Br
ENDBRANCH  22  23
ENDBRANCH  20  21
ENDBRANCH  17  20
ENDBRANCH   1  17
TORSDOF 8
ENDMDL
MODEL 2
REMARK VINA RESULT:      -3.9      3.711      6.264
REMARK SMILES O=S(=O)([N-]CC[NH2+]C/C=C/c1ccc(Br)cc1)c1cccc2cnccc12
REMARK SMILES IDX 6 1 5 2 4 3 2 4 1 5 3 6 18 7 19 8 27 9 20 10 26 11 22 12
REMARK SMILES IDX 21 13 25 14 23 15 24 16 7 17 8 20 9 21 10 22 11 23 12 24
REMARK SMILES IDX 17 25 13 26 16 27 14 28 15 29
REMARK H PARENT 7 18 7 19
ROOT
ATOM      1  C   UNL     1      15.890   5.314  23.735  1.00  0.00     0.238 C 
ENDROOT
BRANCH   1   2
ATOM      2  C   UNL     1      14.861   6.219  24.373  1.00  0.00    -0.070 C 
BRANCH   2   3
ATOM      3  N   UNL     1      13.549   5.610  24.330  1.00  0.00    -0.540 NA
BRANCH   3   4
ATOM      4  S   UNL     1      12.974   5.298  25.961  1.00  0.00     0.102 S 
ATOM      5  O   UNL     1      14.179   5.178  26.757  1.00  0.00    -0.244 OA
ATOM      6  O   UNL     1      12.308   3.950  25.878  1.00  0.00    -0.244 OA
BRANCH   4   7
ATOM      7  C   UNL     1      11.814   6.484  26.308  1.00  0.00     0.056 A 
ATOM      8  C   UNL     1      10.495   6.288  25.955  1.00  0.00     0.019 A 
ATOM      9  C   UNL     1      12.137   7.665  26.940  1.00  0.00     0.002 A 
ATOM     10  C   UNL     1       9.549   7.261  26.239  1.00  0.00     0.002 A 
ATOM     11  C   UNL     1      13.455   7.856  27.291  1.00  0.00     0.030 A 
ATOM     12  C   UNL     1      11.205   8.660  27.237  1.00  0.00     0.001 A 
ATOM     13  C   UNL     1       9.888   8.440  26.872  1.00  0.00     0.010 A 
ATOM     14  C   UNL     1      13.808   9.014  27.921  1.00  0.00     0.111 A 
ATOM     15  C   UNL     1      11.594   9.821  27.874  1.00  0.00     0.119 A 
ATOM     16  N   UNL     1      12.890   9.952  28.192  1.00  0.00    -0.264 NA
ENDBRANCH   4   7
ENDBRANCH   3   4
ENDBRANCH   2   3
ENDBRANCH   1   2
BRANCH   1  17
ATOM     17  N   UNL     1      16.139   5.632  22.360  1.00  0.00    -0.344 N 
ATOM     18  H   UNL     1      15.504   6.371  22.043  1.00  0.00     0.346 HD
ATOM     19  H   UNL     1      17.142   5.921  22.262  1.00  0.00     0.346 HD
BRANCH  17  20
ATOM     20  C   UNL     1      15.986   4.420  21.586  1.00  0.00     0.289 C 
BRANCH  20  21
ATOM     21  C   UNL     1      15.600   3.260  22.395  1.00  0.00     0.034 C 
ATOM     22  C   UNL     1      15.107   2.186  21.806  1.00  0.00     0.009 C 
BRANCH  22  23
ATOM     23  C   UNL     1      14.689   0.975  22.501  1.00  0.00    -0.026 A 
ATOM     24  C   UNL     1      15.483  -0.150  22.463  1.00  0.00     0.009 A 
ATOM     25  C   UNL     1      13.519   0.881  23.215  1.00  0.00     0.009 A 
ATOM     26  C   UNL     1      15.139  -1.327  23.103  1.00  0.00     0.016 A 
ATOM     27  C   UNL     1      13.161  -0.306  23.867  1.00  0.00     0.016 A 
ATOM     28  C   UNL     1      13.964  -1.417  23.817  1.00  0.00     0.018 A 
ATOM     29  Br  UNL     1      13.454  -3.031  24.717  1.00  0.00    -0.051 Br
ENDBRANCH  22  23
ENDBRANCH  20  21
ENDBRANCH  17  20
ENDBRANCH   1  17
TORSDOF 8
ENDMDL
MODEL 3
REMARK VINA RESULT:      -3.8      6.008      8.307
REMARK SMILES O=S(=O)([N-]CC[NH2+]C/C=C/c1ccc(Br)cc1)c1cccc2cnccc12
REMARK SMILES IDX 6 1 5 2 4 3 2 4 1 5 3 6 18 7 19 8 27 9 20 10 26 11 22 12
REMARK SMILES IDX 21 13 25 14 23 15 24 16 7 17 8 20 9 21 10 22 11 23 12 24
REMARK SMILES IDX 17 25 13 26 16 27 14 28 15 29
REMARK H PARENT 7 18 7 19
ROOT
ATOM      1  C   UNL     1       9.188   1.957  24.082  1.00  0.00     0.238 C 
ENDROOT
BRANCH   1   2
ATOM      2  C   UNL     1      10.070   2.153  25.293  1.00  0.00    -0.070 C 
BRANCH   2   3
ATOM      3  N   UNL     1      11.427   1.739  25.009  1.00  0.00    -0.540 NA
BRANCH   3   4
ATOM      4  S   UNL     1      12.540   3.064  25.316  1.00  0.00     0.102 S 
ATOM      5  O   UNL     1      12.974   2.869  26.684  1.00  0.00    -0.244 OA
ATOM      6  O   UNL     1      11.687   4.303  25.246  1.00  0.00    -0.244 OA
BRANCH   4   7
ATOM      7  C   UNL     1      13.656   3.072  24.039  1.00  0.00     0.056 A 
ATOM      8  C   UNL     1      13.743   1.993  23.186  1.00  0.00     0.019 A 
ATOM      9  C   UNL     1      14.503   4.135  23.812  1.00  0.00     0.002 A 
ATOM     10  C   UNL     1      14.658   2.003  22.145  1.00  0.00     0.002 A 
ATOM     11  C   UNL     1      14.413   5.212  24.665  1.00  0.00     0.030 A 
ATOM     12  C   UNL     1      15.432   4.171  22.772  1.00  0.00     0.001 A 
ATOM     13  C   UNL     1      15.500   3.075  21.929  1.00  0.00     0.010 A 
ATOM     14  C   UNL     1      15.236   6.283  24.467  1.00  0.00     0.111 A 
ATOM     15  C   UNL     1      16.252   5.268  22.598  1.00  0.00     0.119 A 
ATOM     16  N   UNL     1      16.120   6.287  23.458  1.00  0.00    -0.264 NA
ENDBRANCH   4   7
ENDBRANCH   3   4
ENDBRANCH   2   3
ENDBRANCH   1   2
BRANCH   1  17
ATOM     17  N   UNL     1       8.391   0.768  24.158  1.00  0.00    -0.344 N 
ATOM     18  H   UNL     1       8.983  -0.065  24.080  1.00  0.00     0.346 HD
ATOM     19  H   UNL     1       7.862   0.780  25.062  1.00  0.00     0.346 HD
BRANCH  17  20
ATOM     20  C   UNL     1       7.401   0.826  23.104  1.00  0.00     0.289 C 
BRANCH  20  21
ATOM     21  C   UNL     1       6.043   1.070  23.597  1.00  0.00     0.034 C 
ATOM     22  C   UNL     1       5.029   0.397  23.083  1.00  0.00     0.009 C 
BRANCH  22  23
ATOM     23  C   UNL     1       3.638   0.551  23.489  1.00  0.00    -0.026 A 
ATOM     24  C   UNL     1       2.667   0.797  22.544  1.00  0.00     0.009 A 
ATOM     25  C   UNL     1       3.220   0.462  24.795  1.00  0.00     0.009 A 
ATOM     26  C   UNL     1       1.332   0.952  22.870  1.00  0.00     0.016 A 
ATOM     27  C   UNL     1       1.871   0.617  25.136  1.00  0.00     0.016 A 
ATOM     28  C   UNL     1       0.917   0.863  24.180  1.00  0.00     0.018 A 
ATOM     29  Br  UNL     1      -0.924   1.071  24.670  1.00  0.00    -0.051 Br
ENDBRANCH  22  23
ENDBRANCH  20  21
ENDBRANCH  17  20
ENDBRANCH   1  17
TORSDOF 8
ENDMDL
MODEL 4
REMARK VINA RESULT:      -3.7      5.326      7.728
REMARK SMILES O=S(=O)([N-]CC[NH2+]C/C=C/c1ccc(Br)cc1)c1cccc2cnccc12
REMARK SMILES IDX 6 1 5 2 4 3 2 4 1 5 3 6 18 7 19 8 27 9 20 10 26 11 22 12
REMARK SMILES IDX 21 13 25 14 23 15 24 16 7 17 8 20 9 21 10 22 11 23 12 24
REMARK SMILES IDX 17 25 13 26 16 27 14 28 15 29
REMARK H PARENT 7 18 7 19
ROOT
ATOM      1  C   UNL     1       9.512   1.868  25.301  1.00  0.00     0.238 C 
ENDROOT
BRANCH   1   2
ATOM      2  C   UNL     1      10.625   2.887  25.385  1.00  0.00    -0.070 C 
BRANCH   2   3
ATOM      3  N   UNL     1      11.837   2.279  25.891  1.00  0.00    -0.540 NA
BRANCH   3   4
ATOM      4  S   UNL     1      13.059   2.224  24.629  1.00  0.00     0.102 S 
ATOM      5  O   UNL     1      12.340   1.807  23.442  1.00  0.00    -0.244 OA
ATOM      6  O   UNL     1      13.992   1.120  25.049  1.00  0.00    -0.244 OA
BRANCH   4   7
ATOM      7  C   UNL     1      13.879   3.707  24.676  1.00  0.00     0.056 A 
ATOM      8  C   UNL     1      13.713   4.559  25.747  1.00  0.00     0.019 A 
ATOM      9  C   UNL     1      14.724   4.111  23.665  1.00  0.00     0.002 A 
ATOM     10  C   UNL     1      14.384   5.772  25.781  1.00  0.00     0.002 A 
ATOM     11  C   UNL     1      14.889   3.257  22.597  1.00  0.00     0.030 A 
ATOM     12  C   UNL     1      15.412   5.325  23.674  1.00  0.00     0.001 A 
ATOM     13  C   UNL     1      15.227   6.162  24.760  1.00  0.00     0.010 A 
ATOM     14  C   UNL     1      15.721   3.625  21.580  1.00  0.00     0.111 A 
ATOM     15  C   UNL     1      16.245   5.669  22.629  1.00  0.00     0.119 A 
ATOM     16  N   UNL     1      16.367   4.799  21.617  1.00  0.00    -0.264 NA
ENDBRANCH   4   7
ENDBRANCH   3   4
ENDBRANCH   2   3
ENDBRANCH   1   2
BRANCH   1  17
ATOM     17  N   UNL     1       9.618   1.018  24.152  1.00  0.00    -0.344 N 
ATOM     18  H   UNL     1      10.584   0.997  23.810  1.00  0.00     0.346 HD
ATOM     19  H   UNL     1       9.284   0.060  24.415  1.00  0.00     0.346 HD
BRANCH  17  20
ATOM     20  C   UNL     1       8.701   1.510  23.147  1.00  0.00     0.289 C 
BRANCH  20  21
ATOM     21  C   UNL     1       7.300   1.482  23.578  1.00  0.00     0.034 C 
ATOM     22  C   UNL     1       6.439   0.698  22.956  1.00  0.00     0.009 C 
BRANCH  22  23
ATOM     23  C   UNL     1       5.025   0.584  23.291  1.00  0.00    -0.026 A 
ATOM     24  C   UNL     1       4.077   0.588  22.292  1.00  0.00     0.009 A 
ATOM     25  C   UNL     1       4.564   0.469  24.580  1.00  0.00     0.009 A 
ATOM     26  C   UNL     1       2.723   0.483  22.550  1.00  0.00     0.016 A 
ATOM     27  C   UNL     1       3.194   0.363  24.852  1.00  0.00     0.016 A 
ATOM     28  C   UNL     1       2.263   0.368  23.843  1.00  0.00     0.018 A 
ATOM     29  Br  UNL     1       0.394   0.220  24.240  1.00  0.00    -0.051 Br
ENDBRANCH  22  23
ENDBRANCH  20  21
ENDBRANCH  17  20
ENDBRANCH   1  17
TORSDOF 8
ENDMDL
MODEL 5
REMARK VINA RESULT:      -3.6      2.796      5.559
REMARK SMILES O=S(=O)([N-]CC[NH2+]C/C=C/c1ccc(Br)cc1)c1cccc2cnccc12
REMARK SMILES IDX 6 1 5 2 4 3 2 4 1 5 3 6 18 7 19 8 27 9 20 10 26 11 22 12
REMARK SMILES IDX 21 13 25 14 23 15 24 16 7 17 8 20 9 21 10 22 11 23 12 24
REMARK SMILES IDX 17 25 13 26 16 27 14 28 15 29
REMARK H PARENT 7 18 7 19
ROOT
ATOM      1  C   UNL     1       8.987   1.970  25.183  1.00  0.00     0.238 C 
ENDROOT
BRANCH   1   2
ATOM      2  C   UNL     1      10.302   2.020  24.440  1.00  0.00    -0.070 C 
BRANCH   2   3
ATOM      3  N   UNL     1      11.402   1.717  25.328  1.00  0.00    -0.540 NA
BRANCH   3   4
ATOM      4  S   UNL     1      12.462   3.111  25.476  1.00  0.00     0.102 S 
ATOM      5  O   UNL     1      12.887   3.103  26.862  1.00  0.00    -0.244 OA
ATOM      6  O   UNL     1      11.564   4.298  25.248  1.00  0.00    -0.244 OA
BRANCH   4   7
ATOM      7  C   UNL     1      13.592   3.005  24.216  1.00  0.00     0.056 A 
ATOM      8  C   UNL     1      13.685   1.854  23.464  1.00  0.00     0.019 A 
ATOM      9  C   UNL     1      14.443   4.042  23.905  1.00  0.00     0.002 A 
ATOM     10  C   UNL     1      14.612   1.770  22.436  1.00  0.00     0.002 A 
ATOM     11  C   UNL     1      14.346   5.191  24.658  1.00  0.00     0.030 A 
ATOM     12  C   UNL     1      15.384   3.985  22.876  1.00  0.00     0.001 A 
ATOM     13  C   UNL     1      15.459   2.818  22.135  1.00  0.00     0.010 A 
ATOM     14  C   UNL     1      15.173   6.239  24.374  1.00  0.00     0.111 A 
ATOM     15  C   UNL     1      16.208   5.061  22.614  1.00  0.00     0.119 A 
ATOM     16  N   UNL     1      16.068   6.152  23.379  1.00  0.00    -0.264 NA
ENDBRANCH   4   7
ENDBRANCH   3   4
ENDBRANCH   2   3
ENDBRANCH   1   2
BRANCH   1  17
ATOM     17  N   UNL     1       9.151   1.933  26.607  1.00  0.00    -0.344 N 
ATOM     18  H   UNL     1       9.466   1.005  26.906  1.00  0.00     0.346 HD
ATOM     19  H   UNL     1       9.835   2.678  26.882  1.00  0.00     0.346 HD
BRANCH  17  20
ATOM     20  C   UNL     1       7.887   2.295  27.211  1.00  0.00     0.289 C 
BRANCH  20  21
ATOM     21  C   UNL     1       7.621   3.736  27.181  1.00  0.00     0.034 C 
ATOM     22  C   UNL     1       8.618   4.589  27.326  1.00  0.00     0.009 C 
BRANCH  22  23
ATOM     23  C   UNL     1       8.480   6.040  27.314  1.00  0.00    -0.026 A 
ATOM     24  C   UNL     1       7.871   6.683  28.368  1.00  0.00     0.009 A 
ATOM     25  C   UNL     1       8.932   6.831  26.286  1.00  0.00     0.009 A 
ATOM     26  C   UNL     1       7.711   8.056  28.412  1.00  0.00     0.016 A 
ATOM     27  C   UNL     1       8.775   8.223  26.320  1.00  0.00     0.016 A 
ATOM     28  C   UNL     1       8.166   8.846  27.380  1.00  0.00     0.018 A 
ATOM     29  Br  UNL     1       7.963  10.752  27.405  1.00  0.00    -0.051 Br
ENDBRANCH  22  23
ENDBRANCH  20  21
ENDBRANCH  17  20
ENDBRANCH   1  17
TORSDOF 8
ENDMDL
MODEL 6
REMARK VINA RESULT:      -3.5      5.335      7.906
REMARK SMILES O=S(=O)([N-]CC[NH2+]C/C=C/c1ccc(Br)cc1)c1cccc2cnccc12
REMARK SMILES IDX 6 1 5 2 4 3 2 4 1 5 3 6 18 7 19 8 27 9 20 10 26 11 22 12
REMARK SMILES IDX 21 13 25 14 23 15 24 16 7 17 8 20 9 21 10 22 11 23 12 24
REMARK SMILES IDX 17 25 13 26 16 27 14 28 15 29
REMARK H PARENT 7 18 7 19
ROOT
ATOM      1  C   UNL     1       9.851   2.021  26.113  1.00  0.00     0.238 C 
ENDROOT
BRANCH   1   2
ATOM      2  C   UNL     1      10.585   3.145  26.807  1.00  0.00    -0.070 C 
BRANCH   2   3
ATOM      3  N   UNL     1      12.013   2.914  26.782  1.00  0.00    -0.540 NA
BRANCH   3   4
ATOM      4  S   UNL     1      12.804   4.122  25.780  1.00  0.00     0.102 S 
ATOM      5  O   UNL     1      13.599   4.903  26.706  1.00  0.00    -0.244 OA
ATOM      6  O   UNL     1      11.680   4.979  25.258  1.00  0.00    -0.244 OA
BRANCH   4   7
ATOM      7  C   UNL     1      13.529   3.292  24.492  1.00  0.00     0.056 A 
ATOM      8  C   UNL     1      13.162   1.994  24.209  1.00  0.00     0.019 A 
ATOM      9  C   UNL     1      14.494   3.871  23.697  1.00  0.00     0.002 A 
ATOM     10  C   UNL     1      13.759   1.318  23.156  1.00  0.00     0.002 A 
ATOM     11  C   UNL     1      14.857   5.169  23.982  1.00  0.00     0.030 A 
ATOM     12  C   UNL     1      15.110   3.214  22.631  1.00  0.00     0.001 A 
ATOM     13  C   UNL     1      14.725   1.911  22.368  1.00  0.00     0.010 A 
ATOM     14  C   UNL     1      15.808   5.772  23.212  1.00  0.00     0.111 A 
ATOM     15  C   UNL     1      16.071   3.852  21.872  1.00  0.00     0.119 A 
ATOM     16  N   UNL     1      16.383   5.114  22.195  1.00  0.00    -0.264 NA
ENDBRANCH   4   7
ENDBRANCH   3   4
ENDBRANCH   2   3
ENDBRANCH   1   2
BRANCH   1  17
ATOM     17  N   UNL     1       8.882   2.488  25.165  1.00  0.00    -0.344 N 
ATOM     18  H   UNL     1       7.935   2.399  25.548  1.00  0.00     0.346 HD
ATOM     19  H   UNL     1       9.106   3.482  24.924  1.00  0.00     0.346 HD
BRANCH  17  20
ATOM     20  C   UNL     1       9.045   1.724  23.947  1.00  0.00     0.289 C 
BRANCH  20  21
ATOM     21  C   UNL     1       7.782   1.213  23.409  1.00  0.00     0.034 C 
ATOM     22  C   UNL     1       6.746   1.049  24.211  1.00  0.00     0.009 C 
BRANCH  22  23
ATOM     23  C   UNL     1       5.442   0.551  23.795  1.00  0.00    -0.026 A 
ATOM     24  C   UNL     1       5.245   0.138  22.496  1.00  0.00     0.009 A 
ATOM     25  C   UNL     1       4.364   0.462  24.641  1.00  0.00     0.009 A 
ATOM     26  C   UNL     1       4.030  -0.344  22.043  1.00  0.00     0.016 A 
ATOM     27  C   UNL     1       3.129  -0.025  24.193  1.00  0.00     0.016 A 
ATOM     28  C   UNL     1       2.951  -0.431  22.895  1.00  0.00     0.018 A 
ATOM     29  Br  UNL     1       1.252  -1.095  22.304  1.00  0.00    -0.051 Br
ENDBRANCH  22  23
ENDBRANCH  20  21
ENDBRANCH  17  20
ENDBRANCH   1  17
TORSDOF 8
ENDMDL
MODEL 7
REMARK VINA RESULT:      -3.5      4.913      7.206
REMARK SMILES O=S(=O)([N-]CC[NH2+]C/C=C/c1ccc(Br)cc1)c1cccc2cnccc12
REMARK SMILES IDX 6 1 5 2 4 3 2 4 1 5 3 6 18 7 19 8 27 9 20 10 26 11 22 12
REMARK SMILES IDX 21 13 25 14 23 15 24 16 7 17 8 20 9 21 10 22 11 23 12 24
REMARK SMILES IDX 17 25 13 26 16 27 14 28 15 29
REMARK H PARENT 7 18 7 19
ROOT
ATOM      1  C   UNL     1      11.611   0.737  23.463  1.00  0.00     0.238 C 
ENDROOT
BRANCH   1   2
ATOM      2  C   UNL     1      12.899   0.093  23.921  1.00  0.00    -0.070 C 
BRANCH   2   3
ATOM      3  N   UNL     1      13.990   0.450  23.041  1.00  0.00    -0.540 NA
BRANCH   3   4
ATOM      4  S   UNL     1      15.480   0.610  23.960  1.00  0.00     0.102 S 
ATOM      5  O   UNL     1      16.507   0.079  23.086  1.00  0.00    -0.244 OA
ATOM      6  O   UNL     1      15.307  -0.321  25.131  1.00  0.00    -0.244 OA
BRANCH   4   7
ATOM      7  C   UNL     1      15.546   2.211  24.513  1.00  0.00     0.056 A 
ATOM      8  C   UNL     1      15.352   2.493  25.848  1.00  0.00     0.019 A 
ATOM      9  C   UNL     1      15.789   3.270  23.666  1.00  0.00     0.002 A 
ATOM     10  C   UNL     1      15.405   3.804  26.296  1.00  0.00     0.002 A 
ATOM     11  C   UNL     1      15.984   2.985  22.332  1.00  0.00     0.030 A 
ATOM     12  C   UNL     1      15.848   4.598  24.090  1.00  0.00     0.001 A 
ATOM     13  C   UNL     1      15.649   4.855  25.436  1.00  0.00     0.010 A 
ATOM     14  C   UNL     1      16.229   4.011  21.467  1.00  0.00     0.111 A 
ATOM     15  C   UNL     1      16.097   5.615  23.190  1.00  0.00     0.119 A 
ATOM     16  N   UNL     1      16.278   5.278  21.905  1.00  0.00    -0.264 NA
ENDBRANCH   4   7
ENDBRANCH   3   4
ENDBRANCH   2   3
ENDBRANCH   1   2
BRANCH   1  17
ATOM     17  N   UNL     1      10.581   0.698  24.459  1.00  0.00    -0.344 N 
ATOM     18  H   UNL     1      10.033  -0.164  24.374  1.00  0.00     0.346 HD
ATOM     19  H   UNL     1      11.029   0.775  25.403  1.00  0.00     0.346 HD
BRANCH  17  20
ATOM     20  C   UNL     1       9.759   1.878  24.299  1.00  0.00     0.289 C 
BRANCH  20  21
ATOM     21  C   UNL     1       8.436   1.591  23.737  1.00  0.00     0.034 C 
ATOM     22  C   UNL     1       7.581   0.852  24.419  1.00  0.00     0.009 C 
BRANCH  22  23
ATOM     23  C   UNL     1       6.241   0.500  23.967  1.00  0.00    -0.026 A 
ATOM     24  C   UNL     1       6.061  -0.079  22.731  1.00  0.00     0.009 A 
ATOM     25  C   UNL     1       5.112   0.715  24.719  1.00  0.00     0.009 A 
ATOM     26  C   UNL     1       4.814  -0.435  22.249  1.00  0.00     0.016 A 
ATOM     27  C   UNL     1       3.844   0.358  24.241  1.00  0.00     0.016 A 
ATOM     28  C   UNL     1       3.684  -0.218  23.006  1.00  0.00     0.018 A 
ATOM     29  Br  UNL     1       1.939  -0.698  22.373  1.00  0.00    -0.051 Br
ENDBRANCH  22  23
ENDBRANCH  20  21
ENDBRANCH  17  20
ENDBRANCH   1  17
TORSDOF 8
ENDMDL
MODEL 8
REMARK VINA RESULT:      -3.5      2.151      4.711
REMARK SMILES O=S(=O)([N-]CC[NH2+]C/C=C/c1ccc(Br)cc1)c1cccc2cnccc12
REMARK SMILES IDX 6 1 5 2 4 3 2 4 1 5 3 6 18 7 19 8 27 9 20 10 26 11 22 12
REMARK SMILES IDX 21 13 25 14 23 15 24 16 7 17 8 20 9 21 10 22 11 23 12 24
REMARK SMILES IDX 17 25 13 26 16 27 14 28 15 29
REMARK H PARENT 7 18 7 19
ROOT
ATOM      1  C   UNL     1      11.302   1.259  24.067  1.00  0.00     0.238 C 
ENDROOT
BRANCH   1   2
ATOM      2  C   UNL     1      12.245   0.130  23.722  1.00  0.00    -0.070 C 
BRANCH   2   3
ATOM      3  N   UNL     1      13.373   0.112  24.628  1.00  0.00    -0.540 NA
BRANCH   3   4
ATOM      4  S   UNL     1      14.771   0.857  23.868  1.00  0.00     0.102 S 
ATOM      5  O   UNL     1      14.661   0.500  22.467  1.00  0.00    -0.244 OA
ATOM      6  O   UNL     1      15.955   0.141  24.462  1.00  0.00    -0.244 OA
BRANCH   4   7
ATOM      7  C   UNL     1      14.788   2.481  24.355  1.00  0.00     0.056 A 
ATOM      8  C   UNL     1      14.240   2.847  25.566  1.00  0.00     0.019 A 
ATOM      9  C   UNL     1      15.335   3.476  23.575  1.00  0.00     0.002 A 
ATOM     10  C   UNL     1      14.253   4.176  25.960  1.00  0.00     0.002 A 
ATOM     11  C   UNL     1      15.882   3.106  22.367  1.00  0.00     0.030 A 
ATOM     12  C   UNL     1      15.362   4.820  23.948  1.00  0.00     0.001 A 
ATOM     13  C   UNL     1      14.805   5.162  25.168  1.00  0.00     0.010 A 
ATOM     14  C   UNL     1      16.435   4.067  21.570  1.00  0.00     0.111 A 
ATOM     15  C   UNL     1      15.927   5.769  23.120  1.00  0.00     0.119 A 
ATOM     16  N   UNL     1      16.445   5.351  21.956  1.00  0.00    -0.264 NA
ENDBRANCH   4   7
ENDBRANCH   3   4
ENDBRANCH   2   3
ENDBRANCH   1   2
BRANCH   1  17
ATOM     17  N   UNL     1       9.968   0.809  24.338  1.00  0.00    -0.344 N 
ATOM     18  H   UNL     1       9.322   1.152  23.620  1.00  0.00     0.346 HD
ATOM     19  H   UNL     1       9.973  -0.238  24.382  1.00  0.00     0.346 HD
BRANCH  17  20
ATOM     20  C   UNL     1       9.601   1.271  25.659  1.00  0.00     0.289 C 
BRANCH  20  21
ATOM     21  C   UNL     1       9.303   2.706  25.710  1.00  0.00     0.034 C 
ATOM     22  C   UNL     1      10.099   3.516  26.383  1.00  0.00     0.009 C 
BRANCH  22  23
ATOM     23  C   UNL     1       9.908   4.956  26.506  1.00  0.00    -0.026 A 
ATOM     24  C   UNL     1      10.972   5.810  26.324  1.00  0.00     0.009 A 
ATOM     25  C   UNL     1       8.697   5.533  26.800  1.00  0.00     0.009 A 
ATOM     26  C   UNL     1      10.852   7.184  26.428  1.00  0.00     0.016 A 
ATOM     27  C   UNL     1       8.563   6.923  26.908  1.00  0.00     0.016 A 
ATOM     28  C   UNL     1       9.635   7.759  26.724  1.00  0.00     0.018 A 
ATOM     29  Br  UNL     1       9.429   9.658  26.875  1.00  0.00    -0.051 Br
ENDBRANCH  22  23
ENDBRANCH  20  21
ENDBRANCH  17  20
ENDBRANCH   1  17
TORSDOF 8
ENDMDL
MODEL 9
REMARK VINA RESULT:      -3.5      3.240      5.257
REMARK SMILES O=S(=O)([N-]CC[NH2+]C/C=C/c1ccc(Br)cc1)c1cccc2cnccc12
REMARK SMILES IDX 6 1 5 2 4 3 2 4 1 5 3 6 18 7 19 8 27 9 20 10 26 11 22 12
REMARK SMILES IDX 21 13 25 14 23 15 24 16 7 17 8 20 9 21 10 22 11 23 12 24
REMARK SMILES IDX 17 25 13 26 16 27 14 28 15 29
REMARK H PARENT 7 18 7 19
ROOT
ATOM      1  C   UNL     1      16.530   1.562  24.032  1.00  0.00     0.238 C 
ENDROOT
BRANCH   1   2
ATOM      2  C   UNL     1      16.334   3.056  23.921  1.00  0.00    -0.070 C 
BRANCH   2   3
ATOM      3  N   UNL     1      16.229   3.656  25.233  1.00  0.00    -0.540 NA
BRANCH   3   4
ATOM      4  S   UNL     1      15.738   5.338  25.091  1.00  0.00     0.102 S 
ATOM      5  O   UNL     1      16.214   5.749  23.786  1.00  0.00    -0.244 OA
ATOM      6  O   UNL     1      16.532   6.057  26.149  1.00  0.00    -0.244 OA
BRANCH   4   7
ATOM      7  C   UNL     1      14.089   5.402  25.478  1.00  0.00     0.056 A 
ATOM      8  C   UNL     1      13.309   4.269  25.383  1.00  0.00     0.019 A 
ATOM      9  C   UNL     1      13.477   6.566  25.892  1.00  0.00     0.002 A 
ATOM     10  C   UNL     1      11.960   4.327  25.699  1.00  0.00     0.002 A 
ATOM     11  C   UNL     1      14.260   7.695  25.986  1.00  0.00     0.030 A 
ATOM     12  C   UNL     1      12.123   6.651  26.216  1.00  0.00     0.001 A 
ATOM     13  C   UNL     1      11.361   5.500  26.112  1.00  0.00     0.010 A 
ATOM     14  C   UNL     1      13.686   8.864  26.395  1.00  0.00     0.111 A 
ATOM     15  C   UNL     1      11.571   7.848  26.625  1.00  0.00     0.119 A 
ATOM     16  N   UNL     1      12.380   8.914  26.699  1.00  0.00    -0.264 NA
ENDBRANCH   4   7
ENDBRANCH   3   4
ENDBRANCH   2   3
ENDBRANCH   1   2
BRANCH   1  17
ATOM     17  N   UNL     1      15.742   0.823  23.089  1.00  0.00    -0.344 N 
ATOM     18  H   UNL     1      16.348   0.314  22.438  1.00  0.00     0.346 HD
ATOM     19  H   UNL     1      15.115   0.172  23.618  1.00  0.00     0.346 HD
BRANCH  17  20
ATOM     20  C   UNL     1      14.876   1.758  22.403  1.00  0.00     0.289 C 
BRANCH  20  21
ATOM     21  C   UNL     1      13.532   1.837  22.983  1.00  0.00     0.034 C 
ATOM     22  C   UNL     1      13.120   0.895  23.812  1.00  0.00     0.009 C 
BRANCH  22  23
ATOM     23  C   UNL     1      11.811   0.864  24.450  1.00  0.00    -0.026 A 
ATOM     24  C   UNL     1      10.740   1.498  23.859  1.00  0.00     0.009 A 
ATOM     25  C   UNL     1      11.568   0.223  25.641  1.00  0.00     0.009 A 
ATOM     26  C   UNL     1       9.475   1.502  24.417  1.00  0.00     0.016 A 
ATOM     27  C   UNL     1      10.290   0.221  26.215  1.00  0.00     0.016 A 
ATOM     28  C   UNL     1       9.236   0.859  25.612  1.00  0.00     0.018 A 
ATOM     29  Br  UNL     1       7.496   0.842  26.416  1.00  0.00    -0.051 Br
ENDBRANCH  22  23
ENDBRANCH  20  21
ENDBRANCH  17  20
ENDBRANCH   1  17
TORSDOF 8
ENDMDL
