MODEL 1
REMARK VINA RESULT:      -7.1      0.000      0.000
REMARK SMILES O=C(CCC[NH+]1CCC(O)(c2ccc(Cl)cc2)CC1)c1ccc(F)cc1
REMARK SMILES IDX 4 1 3 2 2 3 1 4 20 5 21 6 26 7 22 8 25 9 23 10 24 11 5 12
REMARK SMILES IDX 6 13 7 14 19 15 8 16 18 17 9 18 10 20 11 22 12 23 17 24
REMARK SMILES IDX 13 25 16 26 14 27 15 28
REMARK H PARENT 6 19 10 21
ROOT
ATOM      1  C   UNL     1       0.953  13.542 -11.451  1.00  0.00     0.070 C 
ENDROOT
BRANCH   1   2
ATOM      2  C   UNL     1      -0.148  12.514 -11.585  1.00  0.00     0.087 C 
BRANCH   2   3
ATOM      3  C   UNL     1      -0.287  11.625 -10.430  1.00  0.00     0.163 C 
ATOM      4  O   UNL     1       0.638  10.844 -10.087  1.00  0.00    -0.294 OA
BRANCH   3   5
ATOM      5  C   UNL     1      -1.510  11.591  -9.600  1.00  0.00     0.018 A 
ATOM      6  C   UNL     1      -1.435  11.769  -8.230  1.00  0.00     0.015 A 
ATOM      7  C   UNL     1      -2.742  11.382 -10.165  1.00  0.00     0.015 A 
ATOM      8  C   UNL     1      -2.576  11.735  -7.465  1.00  0.00     0.040 A 
ATOM      9  C   UNL     1      -3.883  11.348  -9.409  1.00  0.00     0.040 A 
ATOM     10  C   UNL     1      -3.795  11.525  -8.056  1.00  0.00     0.123 A 
ATOM     11  F   UNL     1      -4.959  11.482  -7.332  1.00  0.00    -0.207 F 
ENDBRANCH   3   5
ENDBRANCH   2   3
ENDBRANCH   1   2
BRANCH   1  12
ATOM     12  C   UNL     1       2.168  13.024 -12.140  1.00  0.00     0.262 C 
BRANCH  12  13
ATOM     13  N   UNL     1       2.691  13.952 -13.134  1.00  0.00    -0.335 N 
ATOM     14  C   UNL     1       3.634  14.875 -12.578  1.00  0.00     0.265 C 
ATOM     15  C   UNL     1       3.268  13.233 -14.223  1.00  0.00     0.265 C 
ATOM     16  C   UNL     1       4.816  14.164 -11.978  1.00  0.00     0.102 C 
ATOM     17  C   UNL     1       4.736  13.202 -14.302  1.00  0.00     0.102 C 
ATOM     18  C   UNL     1       5.507  13.369 -13.045  1.00  0.00     0.100 C 
ATOM     19  H   UNL     1       1.848  14.528 -13.432  1.00  0.00     0.348 HD
BRANCH  18  20
ATOM     20  O   UNL     1       6.678  14.095 -13.373  1.00  0.00    -0.385 OA
ATOM     21  H   UNL     1       7.409  13.716 -12.824  1.00  0.00     0.211 HD
ENDBRANCH  18  20
BRANCH  18  22
ATOM     22  C   UNL     1       6.027  12.063 -12.505  1.00  0.00    -0.016 A 
ATOM     23  C   UNL     1       6.534  11.949 -11.228  1.00  0.00     0.008 A 
ATOM     24  C   UNL     1       6.029  10.903 -13.249  1.00  0.00     0.008 A 
ATOM     25  C   UNL     1       7.019  10.775 -10.697  1.00  0.00     0.021 A 
ATOM     26  C   UNL     1       6.510   9.714 -12.738  1.00  0.00     0.021 A 
ATOM     27  C   UNL     1       7.004   9.651 -11.463  1.00  0.00     0.041 A 
ATOM     28  Cl  UNL     1       7.613   8.150 -10.808  1.00  0.00    -0.084 Cl
ENDBRANCH  18  22
ENDBRANCH  12  13
ENDBRANCH   1  12
TORSDOF 7
ENDMDL
MODEL 2
REMARK VINA RESULT:      -6.9      0.727      1.227
REMARK SMILES O=C(CCC[NH+]1CCC(O)(c2ccc(Cl)cc2)CC1)c1ccc(F)cc1
REMARK SMILES IDX 4 1 3 2 2 3 1 4 20 5 21 6 26 7 22 8 25 9 23 10 24 11 5 12
REMARK SMILES IDX 6 13 7 14 19 15 8 16 18 17 9 18 10 20 11 22 12 23 17 24
REMARK SMILES IDX 13 25 16 26 14 27 15 28
REMARK H PARENT 6 19 10 21
ROOT
ATOM      1  C   UNL     1       1.739  12.830 -11.965  1.00  0.00     0.070 C 
ENDROOT
BRANCH   1   2
ATOM      2  C   UNL     1       0.448  13.020 -11.200  1.00  0.00     0.087 C 
BRANCH   2   3
ATOM      3  C   UNL     1      -0.013  11.825 -10.489  1.00  0.00     0.163 C 
ATOM      4  O   UNL     1       0.785  10.913 -10.150  1.00  0.00    -0.294 OA
BRANCH   3   5
ATOM      5  C   UNL     1      -1.431  11.617 -10.128  1.00  0.00     0.018 A 
ATOM      6  C   UNL     1      -2.408  11.582 -11.107  1.00  0.00     0.015 A 
ATOM      7  C   UNL     1      -1.810  11.453  -8.820  1.00  0.00     0.015 A 
ATOM      8  C   UNL     1      -3.725  11.388 -10.763  1.00  0.00     0.040 A 
ATOM      9  C   UNL     1      -3.120  11.259  -8.470  1.00  0.00     0.040 A 
ATOM     10  C   UNL     1      -4.077  11.227  -9.448  1.00  0.00     0.123 A 
ATOM     11  F   UNL     1      -5.377  11.034  -9.059  1.00  0.00    -0.207 F 
ENDBRANCH   3   5
ENDBRANCH   2   3
ENDBRANCH   1   2
BRANCH   1  12
ATOM     12  C   UNL     1       2.579  14.046 -11.779  1.00  0.00     0.262 C 
BRANCH  12  13
ATOM     13  N   UNL     1       2.976  14.655 -13.042  1.00  0.00    -0.335 N 
ATOM     14  C   UNL     1       4.180  15.421 -12.926  1.00  0.00     0.265 C 
ATOM     15  C   UNL     1       3.108  13.654 -14.050  1.00  0.00     0.265 C 
ATOM     16  C   UNL     1       5.333  14.572 -12.467  1.00  0.00     0.102 C 
ATOM     17  C   UNL     1       4.473  13.281 -14.448  1.00  0.00     0.102 C 
ATOM     18  C   UNL     1       5.567  13.477 -13.464  1.00  0.00     0.100 C 
ATOM     19  H   UNL     1       2.200  15.348 -13.260  1.00  0.00     0.348 HD
BRANCH  18  20
ATOM     20  O   UNL     1       6.718  13.856 -14.196  1.00  0.00    -0.385 OA
ATOM     21  H   UNL     1       7.421  14.063 -13.531  1.00  0.00     0.211 HD
ENDBRANCH  18  20
BRANCH  18  22
ATOM     22  C   UNL     1       5.972  12.195 -12.785  1.00  0.00    -0.016 A 
ATOM     23  C   UNL     1       6.329  12.154 -11.453  1.00  0.00     0.008 A 
ATOM     24  C   UNL     1       6.012  10.987 -13.446  1.00  0.00     0.008 A 
ATOM     25  C   UNL     1       6.705  11.005 -10.795  1.00  0.00     0.021 A 
ATOM     26  C   UNL     1       6.387   9.821 -12.807  1.00  0.00     0.021 A 
ATOM     27  C   UNL     1       6.732   9.831 -11.483  1.00  0.00     0.041 A 
ATOM     28  Cl  UNL     1       7.205   8.361 -10.666  1.00  0.00    -0.084 Cl
ENDBRANCH  18  22
ENDBRANCH  12  13
ENDBRANCH   1  12
TORSDOF 7
ENDMDL
MODEL 3
REMARK VINA RESULT:      -6.8     13.071     15.027
REMARK SMILES O=C(CCC[NH+]1CCC(O)(c2ccc(Cl)cc2)CC1)c1ccc(F)cc1
REMARK SMILES IDX 4 1 3 2 2 3 1 4 20 5 21 6 26 7 22 8 25 9 23 10 24 11 5 12
REMARK SMILES IDX 6 13 7 14 19 15 8 16 18 17 9 18 10 20 11 22 12 23 17 24
REMARK SMILES IDX 13 25 16 26 14 27 15 28
REMARK H PARENT 6 19 10 21
ROOT
ATOM      1  C   UNL     1      -2.393   1.168 -12.057  1.00  0.00     0.070 C 
ENDROOT
BRANCH   1   2
ATOM      2  C   UNL     1      -2.618   0.811 -10.605  1.00  0.00     0.087 C 
BRANCH   2   3
ATOM      3  C   UNL     1      -3.830   1.391 -10.022  1.00  0.00     0.163 C 
ATOM      4  O   UNL     1      -3.888   2.606  -9.700  1.00  0.00    -0.294 OA
BRANCH   3   5
ATOM      5  C   UNL     1      -5.051   0.594  -9.778  1.00  0.00     0.018 A 
ATOM      6  C   UNL     1      -5.523   0.407  -8.492  1.00  0.00     0.015 A 
ATOM      7  C   UNL     1      -5.741   0.023 -10.817  1.00  0.00     0.015 A 
ATOM      8  C   UNL     1      -6.659  -0.335  -8.272  1.00  0.00     0.040 A 
ATOM      9  C   UNL     1      -6.873  -0.717 -10.607  1.00  0.00     0.040 A 
ATOM     10  C   UNL     1      -7.330  -0.895  -9.329  1.00  0.00     0.123 A 
ATOM     11  F   UNL     1      -8.465  -1.644  -9.158  1.00  0.00    -0.207 F 
ENDBRANCH   3   5
ENDBRANCH   2   3
ENDBRANCH   1   2
BRANCH   1  12
ATOM     12  C   UNL     1      -1.172   0.459 -12.533  1.00  0.00     0.262 C 
BRANCH  12  13
ATOM     13  N   UNL     1      -1.449  -0.478 -13.614  1.00  0.00    -0.335 N 
ATOM     14  C   UNL     1      -0.589  -1.622 -13.580  1.00  0.00     0.265 C 
ATOM     15  C   UNL     1      -2.820  -0.873 -13.581  1.00  0.00     0.265 C 
ATOM     16  C   UNL     1      -0.733  -2.384 -12.292  1.00  0.00     0.102 C 
ATOM     17  C   UNL     1      -3.114  -2.227 -13.089  1.00  0.00     0.102 C 
ATOM     18  C   UNL     1      -2.149  -2.856 -12.153  1.00  0.00     0.100 C 
ATOM     19  H   UNL     1      -1.204   0.056 -14.500  1.00  0.00     0.348 HD
BRANCH  18  20
ATOM     20  O   UNL     1      -2.129  -4.240 -12.449  1.00  0.00    -0.385 OA
ATOM     21  H   UNL     1      -1.947  -4.709 -11.597  1.00  0.00     0.211 HD
ENDBRANCH  18  20
BRANCH  18  22
ATOM     22  C   UNL     1      -2.608  -2.796 -10.719  1.00  0.00    -0.016 A 
ATOM     23  C   UNL     1      -3.888  -3.150 -10.345  1.00  0.00     0.008 A 
ATOM     24  C   UNL     1      -1.784  -2.386  -9.695  1.00  0.00     0.008 A 
ATOM     25  C   UNL     1      -4.347  -3.109  -9.048  1.00  0.00     0.021 A 
ATOM     26  C   UNL     1      -2.222  -2.336  -8.386  1.00  0.00     0.021 A 
ATOM     27  C   UNL     1      -3.502  -2.698  -8.064  1.00  0.00     0.041 A 
ATOM     28  Cl  UNL     1      -4.064  -2.641  -6.411  1.00  0.00    -0.084 Cl
ENDBRANCH  18  22
ENDBRANCH  12  13
ENDBRANCH   1  12
TORSDOF 7
ENDMDL
MODEL 4
REMARK VINA RESULT:      -6.6     13.715     16.509
REMARK SMILES O=C(CCC[NH+]1CCC(O)(c2ccc(Cl)cc2)CC1)c1ccc(F)cc1
REMARK SMILES IDX 4 1 3 2 2 3 1 4 20 5 21 6 26 7 22 8 25 9 23 10 24 11 5 12
REMARK SMILES IDX 6 13 7 14 19 15 8 16 18 17 9 18 10 20 11 22 12 23 17 24
REMARK SMILES IDX 13 25 16 26 14 27 15 28
REMARK H PARENT 6 19 10 21
ROOT
ATOM      1  C   UNL     1      -5.821  -0.661  -7.763  1.00  0.00     0.070 C 
ENDROOT
BRANCH   1   2
ATOM      2  C   UNL     1      -5.914   0.212  -8.995  1.00  0.00     0.087 C 
BRANCH   2   3
ATOM      3  C   UNL     1      -5.190  -0.307 -10.157  1.00  0.00     0.163 C 
ATOM      4  O   UNL     1      -5.487  -1.415 -10.675  1.00  0.00    -0.294 OA
BRANCH   3   5
ATOM      5  C   UNL     1      -4.078   0.431 -10.791  1.00  0.00     0.018 A 
ATOM      6  C   UNL     1      -3.534  -0.008 -11.985  1.00  0.00     0.015 A 
ATOM      7  C   UNL     1      -3.561   1.563 -10.214  1.00  0.00     0.015 A 
ATOM      8  C   UNL     1      -2.499   0.683 -12.569  1.00  0.00     0.040 A 
ATOM      9  C   UNL     1      -2.530   2.256 -10.790  1.00  0.00     0.040 A 
ATOM     10  C   UNL     1      -2.000   1.812 -11.971  1.00  0.00     0.123 A 
ATOM     11  F   UNL     1      -0.968   2.531 -12.515  1.00  0.00    -0.207 F 
ENDBRANCH   3   5
ENDBRANCH   2   3
ENDBRANCH   1   2
BRANCH   1  12
ATOM     12  C   UNL     1      -6.997  -1.576  -7.743  1.00  0.00     0.262 C 
BRANCH  12  13
ATOM     13  N   UNL     1      -6.921  -2.568  -6.679  1.00  0.00    -0.335 N 
ATOM     14  C   UNL     1      -7.111  -3.903  -7.161  1.00  0.00     0.265 C 
ATOM     15  C   UNL     1      -5.678  -2.452  -5.987  1.00  0.00     0.265 C 
ATOM     16  C   UNL     1      -6.073  -4.275  -8.183  1.00  0.00     0.102 C 
ATOM     17  C   UNL     1      -4.665  -3.484  -6.253  1.00  0.00     0.102 C 
ATOM     18  C   UNL     1      -4.712  -4.190  -7.557  1.00  0.00     0.100 C 
ATOM     19  H   UNL     1      -7.753  -2.354  -6.053  1.00  0.00     0.348 HD
BRANCH  18  20
ATOM     20  O   UNL     1      -4.311  -5.527  -7.318  1.00  0.00    -0.385 OA
ATOM     21  H   UNL     1      -5.099  -6.096  -7.500  1.00  0.00     0.211 HD
ENDBRANCH  18  20
BRANCH  18  22
ATOM     22  C   UNL     1      -3.691  -3.672  -8.535  1.00  0.00    -0.016 A 
ATOM     23  C   UNL     1      -2.900  -2.577  -8.256  1.00  0.00     0.008 A 
ATOM     24  C   UNL     1      -3.483  -4.254  -9.766  1.00  0.00     0.008 A 
ATOM     25  C   UNL     1      -1.956  -2.072  -9.121  1.00  0.00     0.021 A 
ATOM     26  C   UNL     1      -2.542  -3.765 -10.651  1.00  0.00     0.021 A 
ATOM     27  C   UNL     1      -1.780  -2.675 -10.328  1.00  0.00     0.041 A 
ATOM     28  Cl  UNL     1      -0.586  -2.050 -11.441  1.00  0.00    -0.084 Cl
ENDBRANCH  18  22
ENDBRANCH  12  13
ENDBRANCH   1  12
TORSDOF 7
ENDMDL
MODEL 5
REMARK VINA RESULT:      -6.5     13.415     16.046
REMARK SMILES O=C(CCC[NH+]1CCC(O)(c2ccc(Cl)cc2)CC1)c1ccc(F)cc1
REMARK SMILES IDX 4 1 3 2 2 3 1 4 20 5 21 6 26 7 22 8 25 9 23 10 24 11 5 12
REMARK SMILES IDX 6 13 7 14 19 15 8 16 18 17 9 18 10 20 11 22 12 23 17 24
REMARK SMILES IDX 13 25 16 26 14 27 15 28
REMARK H PARENT 6 19 10 21
ROOT
ATOM      1  C   UNL     1      -3.791   0.788  -9.815  1.00  0.00     0.070 C 
ENDROOT
BRANCH   1   2
ATOM      2  C   UNL     1      -3.108   1.924 -10.543  1.00  0.00     0.087 C 
BRANCH   2   3
ATOM      3  C   UNL     1      -2.538   1.553 -11.840  1.00  0.00     0.163 C 
ATOM      4  O   UNL     1      -2.337   2.410 -12.739  1.00  0.00    -0.294 OA
BRANCH   3   5
ATOM      5  C   UNL     1      -2.166   0.162 -12.172  1.00  0.00     0.018 A 
ATOM      6  C   UNL     1      -3.032  -0.645 -12.888  1.00  0.00     0.015 A 
ATOM      7  C   UNL     1      -0.959  -0.360 -11.781  1.00  0.00     0.015 A 
ATOM      8  C   UNL     1      -2.680  -1.938 -13.194  1.00  0.00     0.040 A 
ATOM      9  C   UNL     1      -0.602  -1.647 -12.082  1.00  0.00     0.040 A 
ATOM     10  C   UNL     1      -1.467  -2.435 -12.791  1.00  0.00     0.123 A 
ATOM     11  F   UNL     1      -1.074  -3.718 -13.071  1.00  0.00    -0.207 F 
ENDBRANCH   3   5
ENDBRANCH   2   3
ENDBRANCH   1   2
BRANCH   1  12
ATOM     12  C   UNL     1      -5.215   0.737 -10.252  1.00  0.00     0.262 C 
BRANCH  12  13
ATOM     13  N   UNL     1      -6.134   0.485  -9.150  1.00  0.00    -0.335 N 
ATOM     14  C   UNL     1      -7.062  -0.565  -9.441  1.00  0.00     0.265 C 
ATOM     15  C   UNL     1      -5.405   0.201  -7.957  1.00  0.00     0.265 C 
ATOM     16  C   UNL     1      -6.356  -1.862  -9.728  1.00  0.00     0.102 C 
ATOM     17  C   UNL     1      -5.374  -1.198  -7.509  1.00  0.00     0.102 C 
ATOM     18  C   UNL     1      -5.552  -2.263  -8.527  1.00  0.00     0.100 C 
ATOM     19  H   UNL     1      -6.707   1.378  -9.070  1.00  0.00     0.348 HD
BRANCH  18  20
ATOM     20  O   UNL     1      -6.276  -3.311  -7.907  1.00  0.00    -0.385 OA
ATOM     21  H   UNL     1      -5.614  -3.859  -7.416  1.00  0.00     0.211 HD
ENDBRANCH  18  20
BRANCH  18  22
ATOM     22  C   UNL     1      -4.251  -2.906  -8.930  1.00  0.00    -0.016 A 
ATOM     23  C   UNL     1      -3.036  -2.465  -8.446  1.00  0.00     0.008 A 
ATOM     24  C   UNL     1      -4.189  -3.970  -9.802  1.00  0.00     0.008 A 
ATOM     25  C   UNL     1      -1.826  -3.024  -8.788  1.00  0.00     0.021 A 
ATOM     26  C   UNL     1      -2.987  -4.547 -10.160  1.00  0.00     0.021 A 
ATOM     27  C   UNL     1      -1.807  -4.073  -9.653  1.00  0.00     0.041 A 
ATOM     28  Cl  UNL     1      -0.281  -4.798 -10.100  1.00  0.00    -0.084 Cl
ENDBRANCH  18  22
ENDBRANCH  12  13
ENDBRANCH   1  12
TORSDOF 7
ENDMDL
MODEL 6
REMARK VINA RESULT:      -6.3      1.291      1.615
REMARK SMILES O=C(CCC[NH+]1CCC(O)(c2ccc(Cl)cc2)CC1)c1ccc(F)cc1
REMARK SMILES IDX 4 1 3 2 2 3 1 4 20 5 21 6 26 7 22 8 25 9 23 10 24 11 5 12
REMARK SMILES IDX 6 13 7 14 19 15 8 16 18 17 9 18 10 20 11 22 12 23 17 24
REMARK SMILES IDX 13 25 16 26 14 27 15 28
REMARK H PARENT 6 19 10 21
ROOT
ATOM      1  C   UNL     1       0.492  12.841 -12.740  1.00  0.00     0.070 C 
ENDROOT
BRANCH   1   2
ATOM      2  C   UNL     1      -0.257  11.608 -12.284  1.00  0.00     0.087 C 
BRANCH   2   3
ATOM      3  C   UNL     1      -1.637  11.861 -11.866  1.00  0.00     0.163 C 
ATOM      4  O   UNL     1      -2.530  12.168 -12.698  1.00  0.00    -0.294 OA
BRANCH   3   5
ATOM      5  C   UNL     1      -2.066  11.772 -10.455  1.00  0.00     0.018 A 
ATOM      6  C   UNL     1      -3.326  11.299 -10.132  1.00  0.00     0.015 A 
ATOM      7  C   UNL     1      -1.230  12.153  -9.436  1.00  0.00     0.015 A 
ATOM      8  C   UNL     1      -3.719  11.219  -8.817  1.00  0.00     0.040 A 
ATOM      9  C   UNL     1      -1.615  12.076  -8.124  1.00  0.00     0.040 A 
ATOM     10  C   UNL     1      -2.863  11.607  -7.818  1.00  0.00     0.123 A 
ATOM     11  F   UNL     1      -3.212  11.547  -6.494  1.00  0.00    -0.207 F 
ENDBRANCH   3   5
ENDBRANCH   2   3
ENDBRANCH   1   2
BRANCH   1  12
ATOM     12  C   UNL     1       1.879  12.439 -13.110  1.00  0.00     0.262 C 
BRANCH  12  13
ATOM     13  N   UNL     1       2.400  13.194 -14.242  1.00  0.00    -0.335 N 
ATOM     14  C   UNL     1       3.246  14.275 -13.835  1.00  0.00     0.265 C 
ATOM     15  C   UNL     1       3.088  12.323 -15.138  1.00  0.00     0.265 C 
ATOM     16  C   UNL     1       4.432  13.784 -13.052  1.00  0.00     0.102 C 
ATOM     17  C   UNL     1       4.556  12.387 -15.141  1.00  0.00     0.102 C 
ATOM     18  C   UNL     1       5.238  12.852 -13.907  1.00  0.00     0.100 C 
ATOM     19  H   UNL     1       1.542  13.636 -14.687  1.00  0.00     0.348 HD
BRANCH  18  20
ATOM     20  O   UNL     1       6.377  13.587 -14.317  1.00  0.00    -0.385 OA
ATOM     21  H   UNL     1       6.126  14.055 -15.152  1.00  0.00     0.211 HD
ENDBRANCH  18  20
BRANCH  18  22
ATOM     22  C   UNL     1       5.806  11.718 -13.096  1.00  0.00    -0.016 A 
ATOM     23  C   UNL     1       5.963  11.803 -11.728  1.00  0.00     0.008 A 
ATOM     24  C   UNL     1       6.205  10.528 -13.664  1.00  0.00     0.008 A 
ATOM     25  C   UNL     1       6.479  10.791 -10.951  1.00  0.00     0.021 A 
ATOM     26  C   UNL     1       6.725   9.499 -12.905  1.00  0.00     0.021 A 
ATOM     27  C   UNL     1       6.861   9.631 -11.549  1.00  0.00     0.041 A 
ATOM     28  Cl  UNL     1       7.517   8.333 -10.581  1.00  0.00    -0.084 Cl
ENDBRANCH  18  22
ENDBRANCH  12  13
ENDBRANCH   1  12
TORSDOF 7
ENDMDL
MODEL 7
REMARK VINA RESULT:      -6.2     13.796     16.535
REMARK SMILES O=C(CCC[NH+]1CCC(O)(c2ccc(Cl)cc2)CC1)c1ccc(F)cc1
REMARK SMILES IDX 4 1 3 2 2 3 1 4 20 5 21 6 26 7 22 8 25 9 23 10 24 11 5 12
REMARK SMILES IDX 6 13 7 14 19 15 8 16 18 17 9 18 10 20 11 22 12 23 17 24
REMARK SMILES IDX 13 25 16 26 14 27 15 28
REMARK H PARENT 6 19 10 21
ROOT
ATOM      1  C   UNL     1      -7.010  -0.018  -8.815  1.00  0.00     0.070 C 
ENDROOT
BRANCH   1   2
ATOM      2  C   UNL     1      -6.445   0.582 -10.083  1.00  0.00     0.087 C 
BRANCH   2   3
ATOM      3  C   UNL     1      -4.982   0.630 -10.128  1.00  0.00     0.163 C 
ATOM      4  O   UNL     1      -4.311   1.106  -9.177  1.00  0.00    -0.294 OA
BRANCH   3   5
ATOM      5  C   UNL     1      -4.209   0.125 -11.282  1.00  0.00     0.018 A 
ATOM      6  C   UNL     1      -4.590  -1.036 -11.930  1.00  0.00     0.015 A 
ATOM      7  C   UNL     1      -3.100   0.793 -11.736  1.00  0.00     0.015 A 
ATOM      8  C   UNL     1      -3.865  -1.500 -13.002  1.00  0.00     0.040 A 
ATOM      9  C   UNL     1      -2.374   0.338 -12.804  1.00  0.00     0.040 A 
ATOM     10  C   UNL     1      -2.761  -0.812 -13.436  1.00  0.00     0.123 A 
ATOM     11  F   UNL     1      -2.007  -1.238 -14.499  1.00  0.00    -0.207 F 
ENDBRANCH   3   5
ENDBRANCH   2   3
ENDBRANCH   1   2
BRANCH   1  12
ATOM     12  C   UNL     1      -7.092  -1.496  -8.990  1.00  0.00     0.262 C 
BRANCH  12  13
ATOM     13  N   UNL     1      -7.122  -2.213  -7.722  1.00  0.00    -0.335 N 
ATOM     14  C   UNL     1      -7.132  -3.633  -7.896  1.00  0.00     0.265 C 
ATOM     15  C   UNL     1      -6.024  -1.810  -6.904  1.00  0.00     0.265 C 
ATOM     16  C   UNL     1      -5.913  -4.108  -8.639  1.00  0.00     0.102 C 
ATOM     17  C   UNL     1      -4.909  -2.757  -6.768  1.00  0.00     0.102 C 
ATOM     18  C   UNL     1      -4.686  -3.737  -7.860  1.00  0.00     0.100 C 
ATOM     19  H   UNL     1      -8.061  -1.957  -7.292  1.00  0.00     0.348 HD
BRANCH  18  20
ATOM     20  O   UNL     1      -4.233  -4.934  -7.255  1.00  0.00    -0.385 OA
ATOM     21  H   UNL     1      -4.377  -5.657  -7.916  1.00  0.00     0.211 HD
ENDBRANCH  18  20
BRANCH  18  22
ATOM     22  C   UNL     1      -3.557  -3.340  -8.775  1.00  0.00    -0.016 A 
ATOM     23  C   UNL     1      -3.171  -4.122  -9.843  1.00  0.00     0.008 A 
ATOM     24  C   UNL     1      -2.840  -2.176  -8.604  1.00  0.00     0.008 A 
ATOM     25  C   UNL     1      -2.145  -3.796 -10.701  1.00  0.00     0.021 A 
ATOM     26  C   UNL     1      -1.806  -1.829  -9.451  1.00  0.00     0.021 A 
ATOM     27  C   UNL     1      -1.461  -2.639 -10.499  1.00  0.00     0.041 A 
ATOM     28  Cl  UNL     1      -0.156  -2.205 -11.578  1.00  0.00    -0.084 Cl
ENDBRANCH  18  22
ENDBRANCH  12  13
ENDBRANCH   1  12
TORSDOF 7
ENDMDL
MODEL 8
REMARK VINA RESULT:      -6.2     13.292     15.044
REMARK SMILES O=C(CCC[NH+]1CCC(O)(c2ccc(Cl)cc2)CC1)c1ccc(F)cc1
REMARK SMILES IDX 4 1 3 2 2 3 1 4 20 5 21 6 26 7 22 8 25 9 23 10 24 11 5 12
REMARK SMILES IDX 6 13 7 14 19 15 8 16 18 17 9 18 10 20 11 22 12 23 17 24
REMARK SMILES IDX 13 25 16 26 14 27 15 28
REMARK H PARENT 6 19 10 21
ROOT
ATOM      1  C   UNL     1      -2.497   0.326 -12.881  1.00  0.00     0.070 C 
ENDROOT
BRANCH   1   2
ATOM      2  C   UNL     1      -2.921   1.199 -11.721  1.00  0.00     0.087 C 
BRANCH   2   3
ATOM      3  C   UNL     1      -3.153   0.470 -10.472  1.00  0.00     0.163 C 
ATOM      4  O   UNL     1      -2.200  -0.003  -9.800  1.00  0.00    -0.294 OA
BRANCH   3   5
ATOM      5  C   UNL     1      -4.508   0.246  -9.925  1.00  0.00     0.018 A 
ATOM      6  C   UNL     1      -4.715   0.197  -8.559  1.00  0.00     0.015 A 
ATOM      7  C   UNL     1      -5.587   0.083 -10.756  1.00  0.00     0.015 A 
ATOM      8  C   UNL     1      -5.977  -0.011  -8.057  1.00  0.00     0.040 A 
ATOM      9  C   UNL     1      -6.848  -0.124 -10.264  1.00  0.00     0.040 A 
ATOM     10  C   UNL     1      -7.039  -0.171  -8.910  1.00  0.00     0.123 A 
ATOM     11  F   UNL     1      -8.315  -0.383  -8.455  1.00  0.00    -0.207 F 
ENDBRANCH   3   5
ENDBRANCH   2   3
ENDBRANCH   1   2
BRANCH   1  12
ATOM     12  C   UNL     1      -1.009   0.338 -12.960  1.00  0.00     0.262 C 
BRANCH  12  13
ATOM     13  N   UNL     1      -0.486  -0.649 -13.896  1.00  0.00    -0.335 N 
ATOM     14  C   UNL     1       0.586  -1.417 -13.340  1.00  0.00     0.265 C 
ATOM     15  C   UNL     1      -1.537  -1.500 -14.350  1.00  0.00     0.265 C 
ATOM     16  C   UNL     1       0.149  -2.167 -12.112  1.00  0.00     0.102 C 
ATOM     17  C   UNL     1      -1.575  -2.865 -13.806  1.00  0.00     0.102 C 
ATOM     18  C   UNL     1      -0.963  -3.105 -12.475  1.00  0.00     0.100 C 
ATOM     19  H   UNL     1      -0.065  -0.072 -14.684  1.00  0.00     0.348 HD
BRANCH  18  20
ATOM     20  O   UNL     1      -0.385  -4.397 -12.513  1.00  0.00    -0.385 OA
ATOM     21  H   UNL     1      -1.127  -5.034 -12.662  1.00  0.00     0.211 HD
ENDBRANCH  18  20
BRANCH  18  22
ATOM     22  C   UNL     1      -1.986  -3.194 -11.374  1.00  0.00    -0.016 A 
ATOM     23  C   UNL     1      -3.340  -3.229 -11.634  1.00  0.00     0.008 A 
ATOM     24  C   UNL     1      -1.637  -3.247 -10.042  1.00  0.00     0.008 A 
ATOM     25  C   UNL     1      -4.307  -3.310 -10.657  1.00  0.00     0.021 A 
ATOM     26  C   UNL     1      -2.589  -3.328  -9.045  1.00  0.00     0.021 A 
ATOM     27  C   UNL     1      -3.922  -3.360  -9.353  1.00  0.00     0.041 A 
ATOM     28  Cl  UNL     1      -5.133  -3.465  -8.098  1.00  0.00    -0.084 Cl
ENDBRANCH  18  22
ENDBRANCH  12  13
ENDBRANCH   1  12
TORSDOF 7
ENDMDL
MODEL 9
REMARK VINA RESULT:      -6.2     14.209     16.549
REMARK SMILES O=C(CCC[NH+]1CCC(O)(c2ccc(Cl)cc2)CC1)c1ccc(F)cc1
REMARK SMILES IDX 4 1 3 2 2 3 1 4 20 5 21 6 26 7 22 8 25 9 23 10 24 11 5 12
REMARK SMILES IDX 6 13 7 14 19 15 8 16 18 17 9 18 10 20 11 22 12 23 17 24
REMARK SMILES IDX 13 25 16 26 14 27 15 28
REMARK H PARENT 6 19 10 21
ROOT
ATOM      1  C   UNL     1      -4.478   0.706 -10.253  1.00  0.00     0.070 C 
ENDROOT
BRANCH   1   2
ATOM      2  C   UNL     1      -5.032   0.173  -8.950  1.00  0.00     0.087 C 
BRANCH   2   3
ATOM      3  C   UNL     1      -6.493   0.090  -8.906  1.00  0.00     0.163 C 
ATOM      4  O   UNL     1      -7.206   1.119  -8.776  1.00  0.00    -0.294 OA
BRANCH   3   5
ATOM      5  C   UNL     1      -7.217  -1.194  -9.011  1.00  0.00     0.018 A 
ATOM      6  C   UNL     1      -7.118  -1.964 -10.155  1.00  0.00     0.015 A 
ATOM      7  C   UNL     1      -8.001  -1.650  -7.982  1.00  0.00     0.015 A 
ATOM      8  C   UNL     1      -7.795  -3.158 -10.247  1.00  0.00     0.040 A 
ATOM      9  C   UNL     1      -8.677  -2.838  -8.065  1.00  0.00     0.040 A 
ATOM     10  C   UNL     1      -8.571  -3.591  -9.202  1.00  0.00     0.123 A 
ATOM     11  F   UNL     1      -9.264  -4.772  -9.250  1.00  0.00    -0.207 F 
ENDBRANCH   3   5
ENDBRANCH   2   3
ENDBRANCH   1   2
BRANCH   1  12
ATOM     12  C   UNL     1      -3.001   0.503 -10.254  1.00  0.00     0.262 C 
BRANCH  12  13
ATOM     13  N   UNL     1      -2.567  -0.469 -11.249  1.00  0.00    -0.335 N 
ATOM     14  C   UNL     1      -1.385  -1.170 -10.849  1.00  0.00     0.265 C 
ATOM     15  C   UNL     1      -3.625  -1.381 -11.538  1.00  0.00     0.265 C 
ATOM     16  C   UNL     1      -1.598  -1.923  -9.564  1.00  0.00     0.102 C 
ATOM     17  C   UNL     1      -3.509  -2.738 -10.984  1.00  0.00     0.102 C 
ATOM     18  C   UNL     1      -2.698  -2.924  -9.755  1.00  0.00     0.100 C 
ATOM     19  H   UNL     1      -2.296   0.117 -12.094  1.00  0.00     0.348 HD
BRANCH  18  20
ATOM     20  O   UNL     1      -2.062  -4.184  -9.867  1.00  0.00    -0.385 OA
ATOM     21  H   UNL     1      -1.614  -4.353  -9.000  1.00  0.00     0.211 HD
ENDBRANCH  18  20
BRANCH  18  22
ATOM     22  C   UNL     1      -3.545  -3.050  -8.515  1.00  0.00    -0.016 A 
ATOM     23  C   UNL     1      -3.337  -2.260  -7.404  1.00  0.00     0.008 A 
ATOM     24  C   UNL     1      -4.575  -3.959  -8.412  1.00  0.00     0.008 A 
ATOM     25  C   UNL     1      -4.087  -2.344  -6.253  1.00  0.00     0.021 A 
ATOM     26  C   UNL     1      -5.340  -4.062  -7.267  1.00  0.00     0.021 A 
ATOM     27  C   UNL     1      -5.096  -3.254  -6.189  1.00  0.00     0.041 A 
ATOM     28  Cl  UNL     1      -6.061  -3.376  -4.738  1.00  0.00    -0.084 Cl
ENDBRANCH  18  22
ENDBRANCH  12  13
ENDBRANCH   1  12
TORSDOF 7
ENDMDL
