MODEL 1
REMARK VINA RESULT:      -4.2      0.000      0.000
REMARK SMILES O=C1c2c([O-])ccc(O)c2C(=O)c2c(NCC[NH2+]CCO)ccc(NCCNCCO)c21
REMARK SMILES IDX 1 1 2 2 3 3 4 4 5 5 6 6 7 7 8 8 10 9 11 10 12 11 13 12 14 13
REMARK SMILES IDX 22 14 23 15 24 16 32 17 25 18 26 20 27 21 28 22 29 24 30 25
REMARK SMILES IDX 31 26 9 28 15 30 16 32 17 33 18 34 19 37 20 38 21 39
REMARK H PARENT 25 19 28 23 31 27 9 29 15 31 18 35 18 36 21 40
ROOT
ATOM      1  O   UNL     1      38.952   3.031 101.097  1.00  0.00    -0.288 OA
ATOM      2  C   UNL     1      39.645   2.131 101.632  1.00  0.00     0.196 C 
ATOM      3  C   UNL     1      40.927   1.762 100.988  1.00  0.00     0.030 A 
ATOM      4  C   UNL     1      41.283   2.435  99.834  1.00  0.00    -0.097 A 
ATOM      5  O   UNL     1      40.441   3.419  99.326  1.00  0.00    -0.872 OA
ATOM      6  C   UNL     1      42.472   2.110  99.218  1.00  0.00    -0.004 A 
ATOM      7  C   UNL     1      43.281   1.140  99.740  1.00  0.00     0.046 A 
ATOM      8  C   UNL     1      42.945   0.457 100.888  1.00  0.00     0.127 A 
ATOM      9  C   UNL     1      41.739   0.795 101.503  1.00  0.00     0.075 A 
ATOM     10  C   UNL     1      41.338   0.095 102.729  1.00  0.00     0.200 C 
ATOM     11  O   UNL     1      42.144  -0.778 103.131  1.00  0.00    -0.288 OA
ATOM     12  C   UNL     1      40.082   0.439 103.380  1.00  0.00     0.059 A 
ATOM     13  C   UNL     1      39.758  -0.246 104.517  1.00  0.00     0.046 A 
ATOM     14  C   UNL     1      38.533   0.113 105.118  1.00  0.00     0.028 A 
ATOM     15  C   UNL     1      37.732   1.080 104.597  1.00  0.00     0.028 A 
ATOM     16  C   UNL     1      38.064   1.785 103.428  1.00  0.00     0.046 A 
ATOM     17  C   UNL     1      39.251   1.448 102.831  1.00  0.00     0.059 A 
ENDROOT
BRANCH  16  18
ATOM     18  N   UNL     1      37.166   2.803 102.991  1.00  0.00    -0.383 N 
ATOM     19  H   UNL     1      37.429   3.778 102.981  1.00  0.00     0.160 HD
BRANCH  18  20
ATOM     20  C   UNL     1      35.820   2.498 102.542  1.00  0.00     0.128 C 
BRANCH  20  21
ATOM     21  C   UNL     1      35.322   3.360 101.437  1.00  0.00     0.102 C 
BRANCH  21  22
ATOM     22  N   UNL     1      36.075   3.139 100.195  1.00  0.00    -0.313 NA
ATOM     23  H   UNL     1      37.058   2.917 100.485  1.00  0.00     0.122 HD
BRANCH  22  24
ATOM     24  C   UNL     1      36.132   4.421  99.508  1.00  0.00     0.109 C 
BRANCH  24  25
ATOM     25  C   UNL     1      36.755   5.482 100.383  1.00  0.00     0.171 C 
BRANCH  25  26
ATOM     26  O   UNL     1      38.144   5.484 100.276  1.00  0.00    -0.395 OA
ATOM     27  H   UNL     1      38.504   5.953 101.080  1.00  0.00     0.210 HD
ENDBRANCH  25  26
ENDBRANCH  24  25
ENDBRANCH  22  24
ENDBRANCH  21  22
ENDBRANCH  20  21
ENDBRANCH  18  20
ENDBRANCH  16  18
BRANCH   8  28
ATOM     28  O   UNL     1      43.776  -0.537 101.420  1.00  0.00    -0.507 OA
ATOM     29  H   UNL     1      44.510  -0.975 100.861  1.00  0.00     0.293 HD
ENDBRANCH   8  28
BRANCH  13  30
ATOM     30  N   UNL     1      40.525  -1.259 105.128  1.00  0.00    -0.379 N 
ATOM     31  H   UNL     1      41.467  -1.157 105.477  1.00  0.00     0.160 HD
BRANCH  30  32
ATOM     32  C   UNL     1      39.966  -2.615 105.302  1.00  0.00     0.174 C 
BRANCH  32  33
ATOM     33  C   UNL     1      39.556  -3.232 104.015  1.00  0.00     0.281 C 
BRANCH  33  34
ATOM     34  N   UNL     1      40.617  -3.422 103.074  1.00  0.00    -0.343 N 
ATOM     35  H   UNL     1      41.419  -2.765 103.209  1.00  0.00     0.346 HD
ATOM     36  H   UNL     1      41.009  -4.384 103.226  1.00  0.00     0.346 HD
BRANCH  34  37
ATOM     37  C   UNL     1      40.194  -3.361 101.697  1.00  0.00     0.289 C 
BRANCH  37  38
ATOM     38  C   UNL     1      41.361  -3.221 100.745  1.00  0.00     0.217 C 
BRANCH  38  39
ATOM     39  O   UNL     1      42.530  -3.157 101.483  1.00  0.00    -0.391 OA
ATOM     40  H   UNL     1      42.265  -3.020 102.438  1.00  0.00     0.210 HD
ENDBRANCH  38  39
ENDBRANCH  37  38
ENDBRANCH  34  37
ENDBRANCH  33  34
ENDBRANCH  32  33
ENDBRANCH  30  32
ENDBRANCH  13  30
TORSDOF 15
ENDMDL
MODEL 2
REMARK VINA RESULT:      -4.0      1.879      6.124
REMARK SMILES O=C1c2c([O-])ccc(O)c2C(=O)c2c(NCC[NH2+]CCO)ccc(NCCNCCO)c21
REMARK SMILES IDX 1 1 2 2 3 3 4 4 5 5 6 6 7 7 8 8 10 9 11 10 12 11 13 12 14 13
REMARK SMILES IDX 22 14 23 15 24 16 32 17 25 18 26 20 27 21 28 22 29 24 30 25
REMARK SMILES IDX 31 26 9 28 15 30 16 32 17 33 18 34 19 37 20 38 21 39
REMARK H PARENT 25 19 28 23 31 27 9 29 15 31 18 35 18 36 21 40
ROOT
ATOM      1  O   UNL     1      41.968  -2.333 102.258  1.00  0.00    -0.288 OA
ATOM      2  C   UNL     1      41.600  -1.191 101.889  1.00  0.00     0.196 C 
ATOM      3  C   UNL     1      42.377  -0.518 100.822  1.00  0.00     0.030 A 
ATOM      4  C   UNL     1      43.462  -1.193 100.296  1.00  0.00    -0.097 A 
ATOM      5  O   UNL     1      43.783  -2.459 100.777  1.00  0.00    -0.872 OA
ATOM      6  C   UNL     1      44.200  -0.589  99.302  1.00  0.00    -0.004 A 
ATOM      7  C   UNL     1      43.863   0.655  98.847  1.00  0.00     0.046 A 
ATOM      8  C   UNL     1      42.786   1.345  99.358  1.00  0.00     0.127 A 
ATOM      9  C   UNL     1      42.047   0.723 100.363  1.00  0.00     0.075 A 
ATOM     10  C   UNL     1      40.889   1.419 100.938  1.00  0.00     0.200 C 
ATOM     11  O   UNL     1      40.658   2.554 100.457  1.00  0.00    -0.288 OA
ATOM     12  C   UNL     1      40.109   0.779 101.989  1.00  0.00     0.059 A 
ATOM     13  C   UNL     1      39.044   1.474 102.489  1.00  0.00     0.046 A 
ATOM     14  C   UNL     1      38.315   0.823 103.506  1.00  0.00     0.028 A 
ATOM     15  C   UNL     1      38.653  -0.415 103.955  1.00  0.00     0.028 A 
ATOM     16  C   UNL     1      39.748  -1.129 103.441  1.00  0.00     0.046 A 
ATOM     17  C   UNL     1      40.468  -0.512 102.452  1.00  0.00     0.059 A 
ENDROOT
BRANCH  16  18
ATOM     18  N   UNL     1      39.988  -2.435 103.962  1.00  0.00    -0.383 N 
ATOM     19  H   UNL     1      40.467  -3.144 103.425  1.00  0.00     0.160 HD
BRANCH  18  20
ATOM     20  C   UNL     1      39.554  -2.824 105.292  1.00  0.00     0.128 C 
BRANCH  20  21
ATOM     21  C   UNL     1      40.592  -2.693 106.348  1.00  0.00     0.102 C 
BRANCH  21  22
ATOM     22  N   UNL     1      40.556  -1.369 106.983  1.00  0.00    -0.313 NA
ATOM     23  H   UNL     1      41.130  -1.449 107.858  1.00  0.00     0.122 HD
BRANCH  22  24
ATOM     24  C   UNL     1      39.184  -1.150 107.415  1.00  0.00     0.109 C 
BRANCH  24  25
ATOM     25  C   UNL     1      38.889   0.322 107.574  1.00  0.00     0.171 C 
BRANCH  25  26
ATOM     26  O   UNL     1      39.846   1.109 106.936  1.00  0.00    -0.395 OA
ATOM     27  H   UNL     1      39.881   0.821 105.982  1.00  0.00     0.210 HD
ENDBRANCH  25  26
ENDBRANCH  24  25
ENDBRANCH  22  24
ENDBRANCH  21  22
ENDBRANCH  20  21
ENDBRANCH  18  20
ENDBRANCH  16  18
BRANCH   8  28
ATOM     28  O   UNL     1      42.443   2.620  98.889  1.00  0.00    -0.507 OA
ATOM     29  H   UNL     1      43.039   3.431  99.062  1.00  0.00     0.293 HD
ENDBRANCH   8  28
BRANCH  13  30
ATOM     30  N   UNL     1      38.621   2.757 102.085  1.00  0.00    -0.379 N 
ATOM     31  H   UNL     1      39.179   3.597 102.110  1.00  0.00     0.160 HD
BRANCH  30  32
ATOM     32  C   UNL     1      37.251   2.961 101.570  1.00  0.00     0.174 C 
BRANCH  32  33
ATOM     33  C   UNL     1      37.194   3.981 100.492  1.00  0.00     0.281 C 
BRANCH  33  34
ATOM     34  N   UNL     1      38.430   4.652 100.233  1.00  0.00    -0.343 N 
ATOM     35  H   UNL     1      38.767   5.233 101.033  1.00  0.00     0.346 HD
ATOM     36  H   UNL     1      39.166   3.918 100.084  1.00  0.00     0.346 HD
BRANCH  34  37
ATOM     37  C   UNL     1      38.414   5.466  99.042  1.00  0.00     0.289 C 
BRANCH  37  38
ATOM     38  C   UNL     1      39.628   5.232  98.172  1.00  0.00     0.217 C 
BRANCH  38  39
ATOM     39  O   UNL     1      39.895   3.875  98.137  1.00  0.00    -0.391 OA
ATOM     40  H   UNL     1      40.059   3.634  97.179  1.00  0.00     0.210 HD
ENDBRANCH  38  39
ENDBRANCH  37  38
ENDBRANCH  34  37
ENDBRANCH  33  34
ENDBRANCH  32  33
ENDBRANCH  30  32
ENDBRANCH  13  30
TORSDOF 15
ENDMDL
MODEL 3
REMARK VINA RESULT:      -3.9     16.391     19.168
REMARK SMILES O=C1c2c([O-])ccc(O)c2C(=O)c2c(NCC[NH2+]CCO)ccc(NCCNCCO)c21
REMARK SMILES IDX 1 1 2 2 3 3 4 4 5 5 6 6 7 7 8 8 10 9 11 10 12 11 13 12 14 13
REMARK SMILES IDX 22 14 23 15 24 16 32 17 25 18 26 20 27 21 28 22 29 24 30 25
REMARK SMILES IDX 31 26 9 28 15 30 16 32 17 33 18 34 19 37 20 38 21 39
REMARK H PARENT 25 19 28 23 31 27 9 29 15 31 18 35 18 36 21 40
ROOT
ATOM      1  O   UNL     1      36.168   9.526 115.573  1.00  0.00    -0.288 OA
ATOM      2  C   UNL     1      35.708  10.692 115.628  1.00  0.00     0.196 C 
ATOM      3  C   UNL     1      35.487  11.417 114.355  1.00  0.00     0.030 A 
ATOM      4  C   UNL     1      35.802  10.760 113.180  1.00  0.00    -0.097 A 
ATOM      5  O   UNL     1      36.306   9.464 113.232  1.00  0.00    -0.872 OA
ATOM      6  C   UNL     1      35.604  11.412 111.983  1.00  0.00    -0.004 A 
ATOM      7  C   UNL     1      35.107  12.685 111.961  1.00  0.00     0.046 A 
ATOM      8  C   UNL     1      34.787  13.358 113.120  1.00  0.00     0.127 A 
ATOM      9  C   UNL     1      34.991  12.687 114.325  1.00  0.00     0.075 A 
ATOM     10  C   UNL     1      34.665  13.362 115.587  1.00  0.00     0.200 C 
ATOM     11  O   UNL     1      34.215  14.527 115.465  1.00  0.00    -0.288 OA
ATOM     12  C   UNL     1      34.874  12.672 116.852  1.00  0.00     0.059 A 
ATOM     13  C   UNL     1      34.556  13.350 117.995  1.00  0.00     0.046 A 
ATOM     14  C   UNL     1      34.773  12.650 119.200  1.00  0.00     0.028 A 
ATOM     15  C   UNL     1      35.267  11.383 119.218  1.00  0.00     0.028 A 
ATOM     16  C   UNL     1      35.595  10.686 118.043  1.00  0.00     0.046 A 
ATOM     17  C   UNL     1      35.389  11.352 116.863  1.00  0.00     0.059 A 
ENDROOT
BRANCH  16  18
ATOM     18  N   UNL     1      36.071   9.349 118.179  1.00  0.00    -0.383 N 
ATOM     19  H   UNL     1      36.961   9.058 117.800  1.00  0.00     0.160 HD
BRANCH  18  20
ATOM     20  C   UNL     1      35.303   8.326 118.865  1.00  0.00     0.128 C 
BRANCH  20  21
ATOM     21  C   UNL     1      35.174   7.043 118.126  1.00  0.00     0.102 C 
BRANCH  21  22
ATOM     22  N   UNL     1      35.945   7.057 116.876  1.00  0.00    -0.313 NA
ATOM     23  H   UNL     1      35.482   7.765 116.255  1.00  0.00     0.122 HD
BRANCH  22  24
ATOM     24  C   UNL     1      35.737   5.763 116.243  1.00  0.00     0.109 C 
BRANCH  24  25
ATOM     25  C   UNL     1      35.906   5.853 114.745  1.00  0.00     0.171 C 
BRANCH  25  26
ATOM     26  O   UNL     1      34.940   5.107 114.074  1.00  0.00    -0.395 OA
ATOM     27  H   UNL     1      35.273   4.955 113.146  1.00  0.00     0.210 HD
ENDBRANCH  25  26
ENDBRANCH  24  25
ENDBRANCH  22  24
ENDBRANCH  21  22
ENDBRANCH  20  21
ENDBRANCH  18  20
ENDBRANCH  16  18
BRANCH   8  28
ATOM     28  O   UNL     1      34.277  14.663 113.093  1.00  0.00    -0.507 OA
ATOM     29  H   UNL     1      34.456  15.290 112.308  1.00  0.00     0.293 HD
ENDBRANCH   8  28
BRANCH  13  30
ATOM     30  N   UNL     1      34.039  14.660 118.071  1.00  0.00    -0.379 N 
ATOM     31  H   UNL     1      33.063  14.912 118.035  1.00  0.00     0.160 HD
BRANCH  30  32
ATOM     32  C   UNL     1      34.951  15.813 118.215  1.00  0.00     0.174 C 
BRANCH  32  33
ATOM     33  C   UNL     1      36.381  15.422 118.134  1.00  0.00     0.281 C 
BRANCH  33  34
ATOM     34  N   UNL     1      37.043  15.806 116.926  1.00  0.00    -0.343 N 
ATOM     35  H   UNL     1      36.723  15.273 116.085  1.00  0.00     0.346 HD
ATOM     36  H   UNL     1      36.800  16.810 116.736  1.00  0.00     0.346 HD
BRANCH  34  37
ATOM     37  C   UNL     1      38.482  15.736 117.000  1.00  0.00     0.289 C 
BRANCH  37  38
ATOM     38  C   UNL     1      39.056  14.723 116.036  1.00  0.00     0.217 C 
BRANCH  38  39
ATOM     39  O   UNL     1      38.922  13.460 116.587  1.00  0.00    -0.391 OA
ATOM     40  H   UNL     1      38.350  13.557 117.403  1.00  0.00     0.210 HD
ENDBRANCH  38  39
ENDBRANCH  37  38
ENDBRANCH  34  37
ENDBRANCH  33  34
ENDBRANCH  32  33
ENDBRANCH  30  32
ENDBRANCH  13  30
TORSDOF 15
ENDMDL
MODEL 4
REMARK VINA RESULT:      -3.8      5.585      9.228
REMARK SMILES O=C1c2c([O-])ccc(O)c2C(=O)c2c(NCC[NH2+]CCO)ccc(NCCNCCO)c21
REMARK SMILES IDX 1 1 2 2 3 3 4 4 5 5 6 6 7 7 8 8 10 9 11 10 12 11 13 12 14 13
REMARK SMILES IDX 22 14 23 15 24 16 32 17 25 18 26 20 27 21 28 22 29 24 30 25
REMARK SMILES IDX 31 26 9 28 15 30 16 32 17 33 18 34 19 37 20 38 21 39
REMARK H PARENT 25 19 28 23 31 27 9 29 15 31 18 35 18 36 21 40
ROOT
ATOM      1  O   UNL     1      40.071  -1.010 107.249  1.00  0.00    -0.288 OA
ATOM      2  C   UNL     1      38.906  -0.843 107.684  1.00  0.00     0.196 C 
ATOM      3  C   UNL     1      38.495  -1.602 108.889  1.00  0.00     0.030 A 
ATOM      4  C   UNL     1      39.424  -2.448 109.462  1.00  0.00    -0.097 A 
ATOM      5  O   UNL     1      40.692  -2.557 108.900  1.00  0.00    -0.872 OA
ATOM      6  C   UNL     1      39.066  -3.163 110.584  1.00  0.00    -0.004 A 
ATOM      7  C   UNL     1      37.813  -3.036 111.116  1.00  0.00     0.046 A 
ATOM      8  C   UNL     1      36.872  -2.199 110.560  1.00  0.00     0.127 A 
ATOM      9  C   UNL     1      37.247  -1.480 109.425  1.00  0.00     0.075 A 
ATOM     10  C   UNL     1      36.277  -0.575 108.796  1.00  0.00     0.200 C 
ATOM     11  O   UNL     1      35.156  -0.525 109.356  1.00  0.00    -0.288 OA
ATOM     12  C   UNL     1      36.657   0.181 107.611  1.00  0.00     0.059 A 
ATOM     13  C   UNL     1      35.714   1.007 107.066  1.00  0.00     0.046 A 
ATOM     14  C   UNL     1      36.118   1.720 105.919  1.00  0.00     0.028 A 
ATOM     15  C   UNL     1      37.365   1.593 105.393  1.00  0.00     0.028 A 
ATOM     16  C   UNL     1      38.334   0.744 105.952  1.00  0.00     0.046 A 
ATOM     17  C   UNL     1      37.959   0.043 107.068  1.00  0.00     0.059 A 
ENDROOT
BRANCH  16  18
ATOM     18  N   UNL     1      39.622   0.716 105.339  1.00  0.00    -0.383 N 
ATOM     19  H   UNL     1      40.471   0.818 105.875  1.00  0.00     0.160 HD
BRANCH  18  20
ATOM     20  C   UNL     1      39.786   0.543 103.907  1.00  0.00     0.128 C 
BRANCH  20  21
ATOM     21  C   UNL     1      40.188  -0.825 103.486  1.00  0.00     0.102 C 
BRANCH  21  22
ATOM     22  N   UNL     1      41.032  -0.797 102.284  1.00  0.00    -0.313 NA
ATOM     23  H   UNL     1      41.216  -1.800 102.033  1.00  0.00     0.122 HD
BRANCH  22  24
ATOM     24  C   UNL     1      42.314  -0.238 102.687  1.00  0.00     0.109 C 
BRANCH  24  25
ATOM     25  C   UNL     1      43.186   0.049 101.489  1.00  0.00     0.171 C 
BRANCH  25  26
ATOM     26  O   UNL     1      43.945   1.204 101.671  1.00  0.00    -0.395 OA
ATOM     27  H   UNL     1      44.867   0.917 101.919  1.00  0.00     0.210 HD
ENDBRANCH  25  26
ENDBRANCH  24  25
ENDBRANCH  22  24
ENDBRANCH  21  22
ENDBRANCH  20  21
ENDBRANCH  18  20
ENDBRANCH  16  18
BRANCH   8  28
ATOM     28  O   UNL     1      35.589  -2.071 111.108  1.00  0.00    -0.507 OA
ATOM     29  H   UNL     1      35.415  -1.493 111.932  1.00  0.00     0.293 HD
ENDBRANCH   8  28
BRANCH  13  30
ATOM     30  N   UNL     1      34.401   1.203 107.543  1.00  0.00    -0.379 N 
ATOM     31  H   UNL     1      33.675   0.503 107.576  1.00  0.00     0.160 HD
BRANCH  30  32
ATOM     32  C   UNL     1      33.983   2.525 108.051  1.00  0.00     0.174 C 
BRANCH  32  33
ATOM     33  C   UNL     1      33.329   2.444 109.382  1.00  0.00     0.281 C 
BRANCH  33  34
ATOM     34  N   UNL     1      34.188   2.034 110.450  1.00  0.00    -0.343 N 
ATOM     35  H   UNL     1      34.863   1.283 110.180  1.00  0.00     0.346 HD
ATOM     36  H   UNL     1      34.775   2.860 110.721  1.00  0.00     0.346 HD
BRANCH  34  37
ATOM     37  C   UNL     1      33.484   1.620 111.639  1.00  0.00     0.289 C 
BRANCH  37  38
ATOM     38  C   UNL     1      33.709   2.566 112.796  1.00  0.00     0.217 C 
BRANCH  38  39
ATOM     39  O   UNL     1      34.335   1.876 113.819  1.00  0.00    -0.391 OA
ATOM     40  H   UNL     1      35.147   1.443 113.424  1.00  0.00     0.210 HD
ENDBRANCH  38  39
ENDBRANCH  37  38
ENDBRANCH  34  37
ENDBRANCH  33  34
ENDBRANCH  32  33
ENDBRANCH  30  32
ENDBRANCH  13  30
TORSDOF 15
ENDMDL
MODEL 5
REMARK VINA RESULT:      -3.8      3.124      6.699
REMARK SMILES O=C1c2c([O-])ccc(O)c2C(=O)c2c(NCC[NH2+]CCO)ccc(NCCNCCO)c21
REMARK SMILES IDX 1 1 2 2 3 3 4 4 5 5 6 6 7 7 8 8 10 9 11 10 12 11 13 12 14 13
REMARK SMILES IDX 22 14 23 15 24 16 32 17 25 18 26 20 27 21 28 22 29 24 30 25
REMARK SMILES IDX 31 26 9 28 15 30 16 32 17 33 18 34 19 37 20 38 21 39
REMARK H PARENT 25 19 28 23 31 27 9 29 15 31 18 35 18 36 21 40
ROOT
ATOM      1  O   UNL     1      41.171   1.915 100.314  1.00  0.00    -0.288 OA
ATOM      2  C   UNL     1      40.110   2.229 100.905  1.00  0.00     0.196 C 
ATOM      3  C   UNL     1      39.258   3.280 100.300  1.00  0.00     0.030 A 
ATOM      4  C   UNL     1      39.686   3.850  99.117  1.00  0.00    -0.097 A 
ATOM      5  O   UNL     1      40.881   3.426  98.543  1.00  0.00    -0.872 OA
ATOM      6  C   UNL     1      38.911   4.828  98.534  1.00  0.00    -0.004 A 
ATOM      7  C   UNL     1      37.741   5.226  99.119  1.00  0.00     0.046 A 
ATOM      8  C   UNL     1      37.296   4.671 100.298  1.00  0.00     0.127 A 
ATOM      9  C   UNL     1      38.090   3.681 100.878  1.00  0.00     0.075 A 
ATOM     10  C   UNL     1      37.657   3.059 102.135  1.00  0.00     0.200 C 
ATOM     11  O   UNL     1      36.572   3.489 102.595  1.00  0.00    -0.288 OA
ATOM     12  C   UNL     1      38.477   2.025 102.750  1.00  0.00     0.059 A 
ATOM     13  C   UNL     1      38.027   1.483 103.922  1.00  0.00     0.046 A 
ATOM     14  C   UNL     1      38.849   0.487 104.488  1.00  0.00     0.028 A 
ATOM     15  C   UNL     1      40.011   0.093 103.903  1.00  0.00     0.028 A 
ATOM     16  C   UNL     1      40.475   0.650 102.699  1.00  0.00     0.046 A 
ATOM     17  C   UNL     1      39.688   1.620 102.135  1.00  0.00     0.059 A 
ENDROOT
BRANCH  16  18
ATOM     18  N   UNL     1      41.689   0.136 102.157  1.00  0.00    -0.383 N 
ATOM     19  H   UNL     1      42.475   0.734 101.945  1.00  0.00     0.160 HD
BRANCH  18  20
ATOM     20  C   UNL     1      41.866  -1.277 101.873  1.00  0.00     0.128 C 
BRANCH  20  21
ATOM     21  C   UNL     1      43.124  -1.616 101.157  1.00  0.00     0.102 C 
BRANCH  21  22
ATOM     22  N   UNL     1      43.914  -0.416 100.850  1.00  0.00    -0.313 NA
ATOM     23  H   UNL     1      43.239   0.388 100.858  1.00  0.00     0.122 HD
BRANCH  22  24
ATOM     24  C   UNL     1      44.365  -0.555  99.473  1.00  0.00     0.109 C 
BRANCH  24  25
ATOM     25  C   UNL     1      43.337  -0.021  98.504  1.00  0.00     0.171 C 
BRANCH  25  26
ATOM     26  O   UNL     1      43.270   1.370  98.542  1.00  0.00    -0.395 OA
ATOM     27  H   UNL     1      43.553   1.657  99.453  1.00  0.00     0.210 HD
ENDBRANCH  25  26
ENDBRANCH  24  25
ENDBRANCH  22  24
ENDBRANCH  21  22
ENDBRANCH  20  21
ENDBRANCH  18  20
ENDBRANCH  16  18
BRANCH   8  28
ATOM     28  O   UNL     1      36.097   5.080 100.895  1.00  0.00    -0.507 OA
ATOM     29  H   UNL     1      35.565   5.875 100.536  1.00  0.00     0.293 HD
ENDBRANCH   8  28
BRANCH  13  30
ATOM     30  N   UNL     1      36.838   1.827 104.597  1.00  0.00    -0.379 N 
ATOM     31  H   UNL     1      35.929   1.937 104.173  1.00  0.00     0.160 HD
BRANCH  30  32
ATOM     32  C   UNL     1      36.852   2.065 106.055  1.00  0.00     0.174 C 
BRANCH  32  33
ATOM     33  C   UNL     1      35.637   1.541 106.729  1.00  0.00     0.281 C 
BRANCH  33  34
ATOM     34  N   UNL     1      34.410   2.149 106.314  1.00  0.00    -0.343 N 
ATOM     35  H   UNL     1      34.542   3.031 105.770  1.00  0.00     0.346 HD
ATOM     36  H   UNL     1      33.929   1.481 105.662  1.00  0.00     0.346 HD
BRANCH  34  37
ATOM     37  C   UNL     1      33.490   2.405 107.396  1.00  0.00     0.289 C 
BRANCH  37  38
ATOM     38  C   UNL     1      34.195   2.547 108.726  1.00  0.00     0.217 C 
BRANCH  38  39
ATOM     39  O   UNL     1      33.376   3.254 109.589  1.00  0.00    -0.391 OA
ATOM     40  H   UNL     1      33.224   2.671 110.389  1.00  0.00     0.210 HD
ENDBRANCH  38  39
ENDBRANCH  37  38
ENDBRANCH  34  37
ENDBRANCH  33  34
ENDBRANCH  32  33
ENDBRANCH  30  32
ENDBRANCH  13  30
TORSDOF 15
ENDMDL
MODEL 6
REMARK VINA RESULT:      -3.7      2.548      5.786
REMARK SMILES O=C1c2c([O-])ccc(O)c2C(=O)c2c(NCC[NH2+]CCO)ccc(NCCNCCO)c21
REMARK SMILES IDX 1 1 2 2 3 3 4 4 5 5 6 6 7 7 8 8 10 9 11 10 12 11 13 12 14 13
REMARK SMILES IDX 22 14 23 15 24 16 32 17 25 18 26 20 27 21 28 22 29 24 30 25
REMARK SMILES IDX 31 26 9 28 15 30 16 32 17 33 18 34 19 37 20 38 21 39
REMARK H PARENT 25 19 28 23 31 27 9 29 15 31 18 35 18 36 21 40
ROOT
ATOM      1  O   UNL     1      37.938  -0.086 104.010  1.00  0.00    -0.288 OA
ATOM      2  C   UNL     1      38.631   0.571 103.196  1.00  0.00     0.196 C 
ATOM      3  C   UNL     1      38.013   1.750 102.546  1.00  0.00     0.030 A 
ATOM      4  C   UNL     1      36.706   2.055 102.878  1.00  0.00    -0.097 A 
ATOM      5  O   UNL     1      36.028   1.259 103.796  1.00  0.00    -0.872 OA
ATOM      6  C   UNL     1      36.110   3.147 102.287  1.00  0.00    -0.004 A 
ATOM      7  C   UNL     1      36.800   3.912 101.389  1.00  0.00     0.046 A 
ATOM      8  C   UNL     1      38.102   3.626 101.043  1.00  0.00     0.127 A 
ATOM      9  C   UNL     1      38.695   2.518 101.649  1.00  0.00     0.075 A 
ATOM     10  C   UNL     1      40.081   2.173 101.313  1.00  0.00     0.200 C 
ATOM     11  O   UNL     1      40.632   2.933 100.480  1.00  0.00    -0.288 OA
ATOM     12  C   UNL     1      40.712   1.019 101.938  1.00  0.00     0.059 A 
ATOM     13  C   UNL     1      42.003   0.743 101.586  1.00  0.00     0.046 A 
ATOM     14  C   UNL     1      42.578  -0.383 102.211  1.00  0.00     0.028 A 
ATOM     15  C   UNL     1      41.889  -1.141 103.104  1.00  0.00     0.028 A 
ATOM     16  C   UNL     1      40.562  -0.858 103.466  1.00  0.00     0.046 A 
ATOM     17  C   UNL     1      39.987   0.233 102.869  1.00  0.00     0.059 A 
ENDROOT
BRANCH  16  18
ATOM     18  N   UNL     1      39.948  -1.700 104.441  1.00  0.00    -0.383 N 
ATOM     19  H   UNL     1      38.979  -1.977 104.373  1.00  0.00     0.160 HD
BRANCH  18  20
ATOM     20  C   UNL     1      40.679  -2.204 105.589  1.00  0.00     0.128 C 
BRANCH  20  21
ATOM     21  C   UNL     1      40.073  -1.876 106.906  1.00  0.00     0.102 C 
BRANCH  21  22
ATOM     22  N   UNL     1      38.800  -1.160 106.755  1.00  0.00    -0.313 NA
ATOM     23  H   UNL     1      38.783  -0.800 105.769  1.00  0.00     0.122 HD
BRANCH  22  24
ATOM     24  C   UNL     1      38.875   0.012 107.614  1.00  0.00     0.109 C 
BRANCH  24  25
ATOM     25  C   UNL     1      39.105   1.268 106.809  1.00  0.00     0.171 C 
BRANCH  25  26
ATOM     26  O   UNL     1      37.911   1.785 106.312  1.00  0.00    -0.395 OA
ATOM     27  H   UNL     1      37.556   2.422 106.992  1.00  0.00     0.210 HD
ENDBRANCH  25  26
ENDBRANCH  24  25
ENDBRANCH  22  24
ENDBRANCH  21  22
ENDBRANCH  20  21
ENDBRANCH  18  20
ENDBRANCH  16  18
BRANCH   8  28
ATOM     28  O   UNL     1      38.806   4.413 100.123  1.00  0.00    -0.507 OA
ATOM     29  H   UNL     1      39.823   4.505 100.165  1.00  0.00     0.293 HD
ENDBRANCH   8  28
BRANCH  13  30
ATOM     30  N   UNL     1      42.793   1.473 100.673  1.00  0.00    -0.379 N 
ATOM     31  H   UNL     1      43.046   2.446 100.758  1.00  0.00     0.160 HD
BRANCH  30  32
ATOM     32  C   UNL     1      43.327   0.817  99.461  1.00  0.00     0.174 C 
BRANCH  32  33
ATOM     33  C   UNL     1      42.261   0.451  98.495  1.00  0.00     0.281 C 
BRANCH  33  34
ATOM     34  N   UNL     1      42.050  -0.955  98.336  1.00  0.00    -0.343 N 
ATOM     35  H   UNL     1      42.460  -1.344  97.457  1.00  0.00     0.346 HD
ATOM     36  H   UNL     1      42.548  -1.442  99.122  1.00  0.00     0.346 HD
BRANCH  34  37
ATOM     37  C   UNL     1      40.665  -1.351  98.417  1.00  0.00     0.289 C 
BRANCH  37  38
ATOM     38  C   UNL     1      40.343  -2.041  99.723  1.00  0.00     0.217 C 
BRANCH  38  39
ATOM     39  O   UNL     1      39.082  -1.645 100.135  1.00  0.00    -0.391 OA
ATOM     40  H   UNL     1      39.211  -1.018 100.905  1.00  0.00     0.210 HD
ENDBRANCH  38  39
ENDBRANCH  37  38
ENDBRANCH  34  37
ENDBRANCH  33  34
ENDBRANCH  32  33
ENDBRANCH  30  32
ENDBRANCH  13  30
TORSDOF 15
ENDMDL
MODEL 7
REMARK VINA RESULT:      -3.7     15.732     18.622
REMARK SMILES O=C1c2c([O-])ccc(O)c2C(=O)c2c(NCC[NH2+]CCO)ccc(NCCNCCO)c21
REMARK SMILES IDX 1 1 2 2 3 3 4 4 5 5 6 6 7 7 8 8 10 9 11 10 12 11 13 12 14 13
REMARK SMILES IDX 22 14 23 15 24 16 32 17 25 18 26 20 27 21 28 22 29 24 30 25
REMARK SMILES IDX 31 26 9 28 15 30 16 32 17 33 18 34 19 37 20 38 21 39
REMARK H PARENT 25 19 28 23 31 27 9 29 15 31 18 35 18 36 21 40
ROOT
ATOM      1  O   UNL     1      36.047   9.997 113.142  1.00  0.00    -0.288 OA
ATOM      2  C   UNL     1      35.684  10.975 113.839  1.00  0.00     0.196 C 
ATOM      3  C   UNL     1      35.619  12.307 113.192  1.00  0.00     0.030 A 
ATOM      4  C   UNL     1      35.959  12.389 111.856  1.00  0.00    -0.097 A 
ATOM      5  O   UNL     1      36.346  11.239 111.174  1.00  0.00    -0.872 OA
ATOM      6  C   UNL     1      35.905  13.616 111.232  1.00  0.00    -0.004 A 
ATOM      7  C   UNL     1      35.521  14.729 111.925  1.00  0.00     0.046 A 
ATOM      8  C   UNL     1      35.177  14.670 113.258  1.00  0.00     0.127 A 
ATOM      9  C   UNL     1      35.236  13.422 113.878  1.00  0.00     0.075 A 
ATOM     10  C   UNL     1      34.879  13.309 115.297  1.00  0.00     0.200 C 
ATOM     11  O   UNL     1      34.540  14.383 115.848  1.00  0.00    -0.288 OA
ATOM     12  C   UNL     1      34.937  12.011 115.956  1.00  0.00     0.059 A 
ATOM     13  C   UNL     1      34.596  11.965 117.279  1.00  0.00     0.046 A 
ATOM     14  C   UNL     1      34.666  10.692 117.882  1.00  0.00     0.028 A 
ATOM     15  C   UNL     1      35.047   9.586 117.189  1.00  0.00     0.028 A 
ATOM     16  C   UNL     1      35.398   9.633 115.829  1.00  0.00     0.046 A 
ATOM     17  C   UNL     1      35.336  10.863 115.227  1.00  0.00     0.059 A 
ENDROOT
BRANCH  16  18
ATOM     18  N   UNL     1      35.748   8.406 115.194  1.00  0.00    -0.383 N 
ATOM     19  H   UNL     1      36.194   8.381 114.288  1.00  0.00     0.160 HD
BRANCH  18  20
ATOM     20  C   UNL     1      35.479   7.119 115.809  1.00  0.00     0.128 C 
BRANCH  20  21
ATOM     21  C   UNL     1      35.828   5.942 114.970  1.00  0.00     0.102 C 
BRANCH  21  22
ATOM     22  N   UNL     1      34.658   5.421 114.251  1.00  0.00    -0.313 NA
ATOM     23  H   UNL     1      33.887   6.115 114.408  1.00  0.00     0.122 HD
BRANCH  22  24
ATOM     24  C   UNL     1      34.255   4.203 114.937  1.00  0.00     0.109 C 
BRANCH  24  25
ATOM     25  C   UNL     1      33.963   3.094 113.955  1.00  0.00     0.171 C 
BRANCH  25  26
ATOM     26  O   UNL     1      34.763   3.190 112.819  1.00  0.00    -0.395 OA
ATOM     27  H   UNL     1      35.270   4.046 112.883  1.00  0.00     0.210 HD
ENDBRANCH  25  26
ENDBRANCH  24  25
ENDBRANCH  22  24
ENDBRANCH  21  22
ENDBRANCH  20  21
ENDBRANCH  18  20
ENDBRANCH  16  18
BRANCH   8  28
ATOM     28  O   UNL     1      34.784  15.814 113.965  1.00  0.00    -0.507 OA
ATOM     29  H   UNL     1      33.937  15.824 114.536  1.00  0.00     0.293 HD
ENDBRANCH   8  28
BRANCH  13  30
ATOM     30  N   UNL     1      34.189  13.056 118.074  1.00  0.00    -0.379 N 
ATOM     31  H   UNL     1      33.273  13.479 118.070  1.00  0.00     0.160 HD
BRANCH  30  32
ATOM     32  C   UNL     1      35.137  13.685 119.016  1.00  0.00     0.174 C 
BRANCH  32  33
ATOM     33  C   UNL     1      34.925  15.149 119.145  1.00  0.00     0.281 C 
BRANCH  33  34
ATOM     34  N   UNL     1      35.613  15.944 118.174  1.00  0.00    -0.343 N 
ATOM     35  H   UNL     1      35.070  16.093 117.294  1.00  0.00     0.346 HD
ATOM     36  H   UNL     1      35.753  16.899 118.587  1.00  0.00     0.346 HD
BRANCH  34  37
ATOM     37  C   UNL     1      36.923  15.446 117.833  1.00  0.00     0.289 C 
BRANCH  37  38
ATOM     38  C   UNL     1      37.637  16.342 116.846  1.00  0.00     0.217 C 
BRANCH  38  39
ATOM     39  O   UNL     1      38.994  16.076 116.905  1.00  0.00    -0.391 OA
ATOM     40  H   UNL     1      39.369  16.274 115.999  1.00  0.00     0.210 HD
ENDBRANCH  38  39
ENDBRANCH  37  38
ENDBRANCH  34  37
ENDBRANCH  33  34
ENDBRANCH  32  33
ENDBRANCH  30  32
ENDBRANCH  13  30
TORSDOF 15
ENDMDL
MODEL 8
REMARK VINA RESULT:      -3.6      2.712      7.450
REMARK SMILES O=C1c2c([O-])ccc(O)c2C(=O)c2c(NCC[NH2+]CCO)ccc(NCCNCCO)c21
REMARK SMILES IDX 1 1 2 2 3 3 4 4 5 5 6 6 7 7 8 8 10 9 11 10 12 11 13 12 14 13
REMARK SMILES IDX 22 14 23 15 24 16 32 17 25 18 26 20 27 21 28 22 29 24 30 25
REMARK SMILES IDX 31 26 9 28 15 30 16 32 17 33 18 34 19 37 20 38 21 39
REMARK H PARENT 25 19 28 23 31 27 9 29 15 31 18 35 18 36 21 40
ROOT
ATOM      1  O   UNL     1      40.699   0.348 101.946  1.00  0.00    -0.288 OA
ATOM      2  C   UNL     1      39.722   1.111 102.148  1.00  0.00     0.196 C 
ATOM      3  C   UNL     1      38.998   0.992 103.435  1.00  0.00     0.030 A 
ATOM      4  C   UNL     1      39.445   0.046 104.338  1.00  0.00    -0.097 A 
ATOM      5  O   UNL     1      40.541  -0.748 104.014  1.00  0.00    -0.872 OA
ATOM      6  C   UNL     1      38.789  -0.083 105.542  1.00  0.00    -0.004 A 
ATOM      7  C   UNL     1      37.715   0.711 105.835  1.00  0.00     0.046 A 
ATOM      8  C   UNL     1      37.253   1.659 104.949  1.00  0.00     0.127 A 
ATOM      9  C   UNL     1      37.926   1.780 103.734  1.00  0.00     0.075 A 
ATOM     10  C   UNL     1      37.471   2.777 102.758  1.00  0.00     0.200 C 
ATOM     11  O   UNL     1      36.480   3.458 103.116  1.00  0.00    -0.288 OA
ATOM     12  C   UNL     1      38.166   2.913 101.485  1.00  0.00     0.059 A 
ATOM     13  C   UNL     1      37.697   3.856 100.613  1.00  0.00     0.046 A 
ATOM     14  C   UNL     1      38.394   3.956  99.392  1.00  0.00     0.028 A 
ATOM     15  C   UNL     1      39.462   3.166  99.104  1.00  0.00     0.028 A 
ATOM     16  C   UNL     1      39.944   2.197 100.000  1.00  0.00     0.046 A 
ATOM     17  C   UNL     1      39.279   2.085 101.193  1.00  0.00     0.059 A 
ENDROOT
BRANCH  16  18
ATOM     18  N   UNL     1      41.094   1.449  99.609  1.00  0.00    -0.383 N 
ATOM     19  H   UNL     1      41.048   0.456  99.424  1.00  0.00     0.160 HD
BRANCH  18  20
ATOM     20  C   UNL     1      42.398   2.068  99.459  1.00  0.00     0.128 C 
BRANCH  20  21
ATOM     21  C   UNL     1      43.409   1.230  98.761  1.00  0.00     0.102 C 
BRANCH  21  22
ATOM     22  N   UNL     1      42.803   0.428  97.690  1.00  0.00    -0.313 NA
ATOM     23  H   UNL     1      41.778   0.378  97.907  1.00  0.00     0.122 HD
BRANCH  22  24
ATOM     24  C   UNL     1      43.317  -0.925  97.841  1.00  0.00     0.109 C 
BRANCH  24  25
ATOM     25  C   UNL     1      44.629  -0.933  98.588  1.00  0.00     0.171 C 
BRANCH  25  26
ATOM     26  O   UNL     1      44.757  -2.066  99.388  1.00  0.00    -0.395 OA
ATOM     27  H   UNL     1      45.451  -1.867 100.077  1.00  0.00     0.210 HD
ENDBRANCH  25  26
ENDBRANCH  24  25
ENDBRANCH  22  24
ENDBRANCH  21  22
ENDBRANCH  20  21
ENDBRANCH  18  20
ENDBRANCH  16  18
BRANCH   8  28
ATOM     28  O   UNL     1      36.152   2.471 105.253  1.00  0.00    -0.507 OA
ATOM     29  H   UNL     1      36.036   3.394 104.830  1.00  0.00     0.293 HD
ENDBRANCH   8  28
BRANCH  13  30
ATOM     30  N   UNL     1      36.601   4.717 100.827  1.00  0.00    -0.379 N 
ATOM     31  H   UNL     1      36.564   5.469 101.499  1.00  0.00     0.160 HD
BRANCH  30  32
ATOM     32  C   UNL     1      35.366   4.561 100.032  1.00  0.00     0.174 C 
BRANCH  32  33
ATOM     33  C   UNL     1      34.915   3.149  99.950  1.00  0.00     0.281 C 
BRANCH  33  34
ATOM     34  N   UNL     1      34.226   2.669 101.108  1.00  0.00    -0.343 N 
ATOM     35  H   UNL     1      33.814   1.716 100.986  1.00  0.00     0.346 HD
ATOM     36  H   UNL     1      34.929   2.579 101.882  1.00  0.00     0.346 HD
BRANCH  34  37
ATOM     37  C   UNL     1      33.197   3.561 101.586  1.00  0.00     0.289 C 
BRANCH  37  38
ATOM     38  C   UNL     1      32.711   3.185 102.968  1.00  0.00     0.217 C 
BRANCH  38  39
ATOM     39  O   UNL     1      33.780   3.240 103.845  1.00  0.00    -0.391 OA
ATOM     40  H   UNL     1      34.517   2.696 103.441  1.00  0.00     0.210 HD
ENDBRANCH  38  39
ENDBRANCH  37  38
ENDBRANCH  34  37
ENDBRANCH  33  34
ENDBRANCH  32  33
ENDBRANCH  30  32
ENDBRANCH  13  30
TORSDOF 15
ENDMDL
MODEL 9
REMARK VINA RESULT:      -3.6      2.770      7.611
REMARK SMILES O=C1c2c([O-])ccc(O)c2C(=O)c2c(NCC[NH2+]CCO)ccc(NCCNCCO)c21
REMARK SMILES IDX 1 1 2 2 3 3 4 4 5 5 6 6 7 7 8 8 10 9 11 10 12 11 13 12 14 13
REMARK SMILES IDX 22 14 23 15 24 16 32 17 25 18 26 20 27 21 28 22 29 24 30 25
REMARK SMILES IDX 31 26 9 28 15 30 16 32 17 33 18 34 19 37 20 38 21 39
REMARK H PARENT 25 19 28 23 31 27 9 29 15 31 18 35 18 36 21 40
ROOT
ATOM      1  O   UNL     1      41.000  -1.162 104.012  1.00  0.00    -0.288 OA
ATOM      2  C   UNL     1      40.110  -0.279 103.963  1.00  0.00     0.196 C 
ATOM      3  C   UNL     1      39.237  -0.101 105.148  1.00  0.00     0.030 A 
ATOM      4  C   UNL     1      39.461  -0.920 106.238  1.00  0.00    -0.097 A 
ATOM      5  O   UNL     1      40.479  -1.867 106.188  1.00  0.00    -0.872 OA
ATOM      6  C   UNL     1      38.663  -0.773 107.352  1.00  0.00    -0.004 A 
ATOM      7  C   UNL     1      37.670   0.166 107.374  1.00  0.00     0.046 A 
ATOM      8  C   UNL     1      37.431   0.992 106.299  1.00  0.00     0.127 A 
ATOM      9  C   UNL     1      38.245   0.834 105.178  1.00  0.00     0.075 A 
ATOM     10  C   UNL     1      38.028   1.691 104.007  1.00  0.00     0.200 C 
ATOM     11  O   UNL     1      37.095   2.522 104.121  1.00  0.00    -0.288 OA
ATOM     12  C   UNL     1      38.871   1.536 102.830  1.00  0.00     0.059 A 
ATOM     13  C   UNL     1      38.623   2.359 101.767  1.00  0.00     0.046 A 
ATOM     14  C   UNL     1      39.458   2.177 100.646  1.00  0.00     0.028 A 
ATOM     15  C   UNL     1      40.446   1.243 100.628  1.00  0.00     0.028 A 
ATOM     16  C   UNL     1      40.702   0.396 101.719  1.00  0.00     0.046 A 
ATOM     17  C   UNL     1      39.899   0.559 102.818  1.00  0.00     0.059 A 
ENDROOT
BRANCH  16  18
ATOM     18  N   UNL     1      41.786  -0.523 101.603  1.00  0.00    -0.383 N 
ATOM     19  H   UNL     1      42.185  -0.983 102.409  1.00  0.00     0.160 HD
BRANCH  18  20
ATOM     20  C   UNL     1      42.384  -0.846 100.320  1.00  0.00     0.128 C 
BRANCH  20  21
ATOM     21  C   UNL     1      43.829  -1.192 100.376  1.00  0.00     0.102 C 
BRANCH  21  22
ATOM     22  N   UNL     1      44.628  -0.327  99.498  1.00  0.00    -0.313 NA
ATOM     23  H   UNL     1      44.004   0.472  99.228  1.00  0.00     0.122 HD
BRANCH  22  24
ATOM     24  C   UNL     1      44.871  -1.082  98.278  1.00  0.00     0.109 C 
BRANCH  24  25
ATOM     25  C   UNL     1      46.331  -1.046  97.894  1.00  0.00     0.171 C 
BRANCH  25  26
ATOM     26  O   UNL     1      46.766   0.255  97.653  1.00  0.00    -0.395 OA
ATOM     27  H   UNL     1      47.062   0.636  98.525  1.00  0.00     0.210 HD
ENDBRANCH  25  26
ENDBRANCH  24  25
ENDBRANCH  22  24
ENDBRANCH  21  22
ENDBRANCH  20  21
ENDBRANCH  18  20
ENDBRANCH  16  18
BRANCH   8  28
ATOM     28  O   UNL     1      36.412   1.954 106.326  1.00  0.00    -0.507 OA
ATOM     29  H   UNL     1      36.197   2.481 107.174  1.00  0.00     0.293 HD
ENDBRANCH   8  28
BRANCH  13  30
ATOM     30  N   UNL     1      37.625   3.354 101.699  1.00  0.00    -0.379 N 
ATOM     31  H   UNL     1      37.513   4.122 102.343  1.00  0.00     0.160 HD
BRANCH  30  32
ATOM     32  C   UNL     1      36.622   3.328 100.615  1.00  0.00     0.174 C 
BRANCH  32  33
ATOM     33  C   UNL     1      35.264   3.700 101.086  1.00  0.00     0.281 C 
BRANCH  33  34
ATOM     34  N   UNL     1      34.290   2.655 101.001  1.00  0.00    -0.343 N 
ATOM     35  H   UNL     1      33.361   2.977 100.647  1.00  0.00     0.346 HD
ATOM     36  H   UNL     1      34.635   1.955 100.298  1.00  0.00     0.346 HD
BRANCH  34  37
ATOM     37  C   UNL     1      34.094   1.937 102.236  1.00  0.00     0.289 C 
BRANCH  37  38
ATOM     38  C   UNL     1      33.587   2.832 103.344  1.00  0.00     0.217 C 
BRANCH  38  39
ATOM     39  O   UNL     1      34.364   2.627 104.472  1.00  0.00    -0.391 OA
ATOM     40  H   UNL     1      33.740   2.601 105.254  1.00  0.00     0.210 HD
ENDBRANCH  38  39
ENDBRANCH  37  38
ENDBRANCH  34  37
ENDBRANCH  33  34
ENDBRANCH  32  33
ENDBRANCH  30  32
ENDBRANCH  13  30
TORSDOF 15
ENDMDL
