MODEL 1
REMARK VINA RESULT:      -6.6      0.000      0.000
REMARK SMILES Cc1c(OCC(F)(F)F)ccnc1C[S+](O)c1nc2ccccc2[n-]1
REMARK SMILES IDX 1 1 2 2 3 3 10 4 11 5 12 6 13 7 4 8 5 9 6 10 7 11 8 12 9 13
REMARK SMILES IDX 14 14 15 15 16 16 17 18 18 19 25 20 19 21 24 22 20 23 23 24
REMARK SMILES IDX 21 25 22 26
REMARK H PARENT 16 17
ROOT
ATOM      1  C   UNL     1     -55.856   3.923  15.016  1.00  0.00     0.050 C 
ATOM      2  C   UNL     1     -56.377   5.276  15.328  1.00  0.00     0.018 A 
ATOM      3  C   UNL     1     -56.978   5.522  16.564  1.00  0.00     0.126 A 
ATOM      4  C   UNL     1     -57.458   6.791  16.801  1.00  0.00     0.067 A 
ATOM      5  C   UNL     1     -57.348   7.776  15.849  1.00  0.00     0.115 A 
ATOM      6  N   UNL     1     -56.770   7.504  14.686  1.00  0.00    -0.256 NA
ATOM      7  C   UNL     1     -56.273   6.273  14.386  1.00  0.00     0.100 A 
ENDROOT
BRANCH   3   8
ATOM      8  O   UNL     1     -57.056   4.486  17.478  1.00  0.00    -0.484 OA
BRANCH   8   9
ATOM      9  C   UNL     1     -58.214   4.210  18.211  1.00  0.00     0.344 C 
BRANCH   9  10
ATOM     10  C   UNL     1     -57.884   4.394  19.678  1.00  0.00     0.422 C 
ATOM     11  F   UNL     1     -59.066   4.697  20.331  1.00  0.00    -0.167 F 
ATOM     12  F   UNL     1     -56.994   5.432  19.859  1.00  0.00    -0.167 F 
ATOM     13  F   UNL     1     -57.379   3.231  20.221  1.00  0.00    -0.167 F 
ENDBRANCH   9  10
ENDBRANCH   8   9
ENDBRANCH   3   8
BRANCH   7  14
ATOM     14  C   UNL     1     -55.625   6.062  13.059  1.00  0.00     0.380 C 
BRANCH  14  15
ATOM     15  S   UNL     1     -54.045   6.717  13.086  1.00  0.00     0.181 S 
BRANCH  15  16
ATOM     16  O   UNL     1     -53.767   8.174  13.730  1.00  0.00    -0.182 OA
ATOM     17  H   UNL     1     -54.634   8.655  13.878  1.00  0.00     0.283 HD
ENDBRANCH  15  16
BRANCH  15  18
ATOM     18  C   UNL     1     -52.720   5.715  12.691  1.00  0.00     0.179 A 
ATOM     19  N   UNL     1     -51.816   5.775  11.704  1.00  0.00    -0.390 NA
ATOM     20  N   UNL     1     -52.392   4.607  13.410  1.00  0.00    -0.390 NA
ATOM     21  C   UNL     1     -50.960   4.744  11.809  1.00  0.00    -0.035 A 
ATOM     22  C   UNL     1     -51.323   3.991  12.899  1.00  0.00    -0.035 A 
ATOM     23  C   UNL     1     -49.855   4.333  11.070  1.00  0.00     0.004 A 
ATOM     24  C   UNL     1     -50.600   2.848  13.250  1.00  0.00     0.004 A 
ATOM     25  C   UNL     1     -49.132   3.214  11.397  1.00  0.00     0.000 A 
ATOM     26  C   UNL     1     -49.509   2.472  12.493  1.00  0.00     0.000 A 
ENDBRANCH  15  18
ENDBRANCH  14  15
ENDBRANCH   7  14
TORSDOF 7
ENDMDL
MODEL 2
REMARK VINA RESULT:      -6.5      5.034      8.837
REMARK SMILES Cc1c(OCC(F)(F)F)ccnc1C[S+](O)c1nc2ccccc2[n-]1
REMARK SMILES IDX 1 1 2 2 3 3 10 4 11 5 12 6 13 7 4 8 5 9 6 10 7 11 8 12 9 13
REMARK SMILES IDX 14 14 15 15 16 16 17 18 18 19 25 20 19 21 24 22 20 23 23 24
REMARK SMILES IDX 21 25 22 26
REMARK H PARENT 16 17
ROOT
ATOM      1  C   UNL     1     -51.506   2.850  13.502  1.00  0.00     0.050 C 
ATOM      2  C   UNL     1     -51.604   4.133  12.764  1.00  0.00     0.018 A 
ATOM      3  C   UNL     1     -50.554   4.545  11.942  1.00  0.00     0.126 A 
ATOM      4  C   UNL     1     -50.687   5.750  11.289  1.00  0.00     0.067 A 
ATOM      5  C   UNL     1     -51.817   6.516  11.446  1.00  0.00     0.115 A 
ATOM      6  N   UNL     1     -52.794   6.092  12.236  1.00  0.00    -0.256 NA
ATOM      7  C   UNL     1     -52.729   4.911  12.910  1.00  0.00     0.100 A 
ENDROOT
BRANCH   3   8
ATOM      8  O   UNL     1     -49.444   3.725  11.827  1.00  0.00    -0.484 OA
BRANCH   8   9
ATOM      9  C   UNL     1     -48.799   3.492  10.609  1.00  0.00     0.344 C 
BRANCH   9  10
ATOM     10  C   UNL     1     -48.681   1.992  10.432  1.00  0.00     0.422 C 
ATOM     11  F   UNL     1     -47.384   1.727  10.027  1.00  0.00    -0.167 F 
ATOM     12  F   UNL     1     -49.554   1.537   9.465  1.00  0.00    -0.167 F 
ATOM     13  F   UNL     1     -48.902   1.334  11.624  1.00  0.00    -0.167 F 
ENDBRANCH   9  10
ENDBRANCH   8   9
ENDBRANCH   3   8
BRANCH   7  14
ATOM     14  C   UNL     1     -53.883   4.505  13.764  1.00  0.00     0.380 C 
BRANCH  14  15
ATOM     15  S   UNL     1     -54.205   5.734  14.909  1.00  0.00     0.181 S 
BRANCH  15  16
ATOM     16  O   UNL     1     -53.787   7.268  14.613  1.00  0.00    -0.182 OA
ATOM     17  H   UNL     1     -53.591   7.742  15.474  1.00  0.00     0.283 HD
ENDBRANCH  15  16
BRANCH  15  18
ATOM     18  C   UNL     1     -55.218   5.389  16.240  1.00  0.00     0.179 A 
ATOM     19  N   UNL     1     -55.853   6.184  17.111  1.00  0.00    -0.390 NA
ATOM     20  N   UNL     1     -55.532   4.120  16.620  1.00  0.00    -0.390 NA
ATOM     21  C   UNL     1     -56.535   5.436  17.995  1.00  0.00    -0.035 A 
ATOM     22  C   UNL     1     -56.334   4.113  17.687  1.00  0.00    -0.035 A 
ATOM     23  C   UNL     1     -57.348   5.737  19.085  1.00  0.00     0.004 A 
ATOM     24  C   UNL     1     -56.931   3.104  18.448  1.00  0.00     0.004 A 
ATOM     25  C   UNL     1     -57.942   4.762  19.844  1.00  0.00     0.000 A 
ATOM     26  C   UNL     1     -57.731   3.441  19.520  1.00  0.00     0.000 A 
ENDBRANCH  15  18
ENDBRANCH  14  15
ENDBRANCH   7  14
TORSDOF 7
ENDMDL
MODEL 3
REMARK VINA RESULT:      -6.5      0.302      1.394
REMARK SMILES Cc1c(OCC(F)(F)F)ccnc1C[S+](O)c1nc2ccccc2[n-]1
REMARK SMILES IDX 1 1 2 2 3 3 10 4 11 5 12 6 13 7 4 8 5 9 6 10 7 11 8 12 9 13
REMARK SMILES IDX 14 14 15 15 16 16 17 18 18 19 25 20 19 21 24 22 20 23 23 24
REMARK SMILES IDX 21 25 22 26
REMARK H PARENT 16 17
ROOT
ATOM      1  C   UNL     1     -55.631   4.345  15.197  1.00  0.00     0.050 C 
ATOM      2  C   UNL     1     -56.283   5.668  15.351  1.00  0.00     0.018 A 
ATOM      3  C   UNL     1     -56.923   5.993  16.548  1.00  0.00     0.126 A 
ATOM      4  C   UNL     1     -57.526   7.228  16.637  1.00  0.00     0.067 A 
ATOM      5  C   UNL     1     -57.495   8.106  15.581  1.00  0.00     0.115 A 
ATOM      6  N   UNL     1     -56.876   7.762  14.458  1.00  0.00    -0.256 NA
ATOM      7  C   UNL     1     -56.260   6.558  14.303  1.00  0.00     0.100 A 
ENDROOT
BRANCH   3   8
ATOM      8  O   UNL     1     -56.917   5.064  17.574  1.00  0.00    -0.484 OA
BRANCH   8   9
ATOM      9  C   UNL     1     -58.088   4.588  18.170  1.00  0.00     0.344 C 
BRANCH   9  10
ATOM     10  C   UNL     1     -57.890   4.630  19.671  1.00  0.00     0.422 C 
ATOM     11  F   UNL     1     -57.060   5.704  19.945  1.00  0.00    -0.167 F 
ATOM     12  F   UNL     1     -57.290   3.474  20.125  1.00  0.00    -0.167 F 
ATOM     13  F   UNL     1     -59.087   4.836  20.323  1.00  0.00    -0.167 F 
ENDBRANCH   9  10
ENDBRANCH   8   9
ENDBRANCH   3   8
BRANCH   7  14
ATOM     14  C   UNL     1     -55.574   6.263  13.011  1.00  0.00     0.380 C 
BRANCH  14  15
ATOM     15  S   UNL     1     -53.942   6.766  13.105  1.00  0.00     0.181 S 
BRANCH  15  16
ATOM     16  O   UNL     1     -53.561   8.232  13.670  1.00  0.00    -0.182 OA
ATOM     17  H   UNL     1     -53.604   8.907  12.930  1.00  0.00     0.283 HD
ENDBRANCH  15  16
BRANCH  15  18
ATOM     18  C   UNL     1     -52.700   5.618  12.867  1.00  0.00     0.179 A 
ATOM     19  N   UNL     1     -52.367   4.507  13.537  1.00  0.00    -0.390 NA
ATOM     20  N   UNL     1     -51.794   5.709  11.854  1.00  0.00    -0.390 NA
ATOM     21  C   UNL     1     -51.298   3.932  12.962  1.00  0.00    -0.035 A 
ATOM     22  C   UNL     1     -50.925   4.696  11.884  1.00  0.00    -0.035 A 
ATOM     23  C   UNL     1     -50.556   2.788  13.240  1.00  0.00     0.004 A 
ATOM     24  C   UNL     1     -49.833   4.330  11.092  1.00  0.00     0.004 A 
ATOM     25  C   UNL     1     -49.481   2.411  12.476  1.00  0.00     0.000 A 
ATOM     26  C   UNL     1     -49.121   3.188  11.398  1.00  0.00     0.000 A 
ENDBRANCH  15  18
ENDBRANCH  14  15
ENDBRANCH   7  14
TORSDOF 7
ENDMDL
MODEL 4
REMARK VINA RESULT:      -6.4      5.149      8.789
REMARK SMILES Cc1c(OCC(F)(F)F)ccnc1C[S+](O)c1nc2ccccc2[n-]1
REMARK SMILES IDX 1 1 2 2 3 3 10 4 11 5 12 6 13 7 4 8 5 9 6 10 7 11 8 12 9 13
REMARK SMILES IDX 14 14 15 15 16 16 17 18 18 19 25 20 19 21 24 22 20 23 23 24
REMARK SMILES IDX 21 25 22 26
REMARK H PARENT 16 17
ROOT
ATOM      1  C   UNL     1     -52.233   3.123  12.928  1.00  0.00     0.050 C 
ATOM      2  C   UNL     1     -51.917   4.449  12.342  1.00  0.00     0.018 A 
ATOM      3  C   UNL     1     -50.746   4.622  11.603  1.00  0.00     0.126 A 
ATOM      4  C   UNL     1     -50.491   5.875  11.091  1.00  0.00     0.067 A 
ATOM      5  C   UNL     1     -51.363   6.915  11.305  1.00  0.00     0.115 A 
ATOM      6  N   UNL     1     -52.467   6.712  12.012  1.00  0.00    -0.256 NA
ATOM      7  C   UNL     1     -52.781   5.499  12.546  1.00  0.00     0.100 A 
ENDROOT
BRANCH   3   8
ATOM      8  O   UNL     1     -49.910   3.533  11.425  1.00  0.00    -0.484 OA
BRANCH   8   9
ATOM      9  C   UNL     1     -49.849   2.814  10.228  1.00  0.00     0.344 C 
BRANCH   9  10
ATOM     10  C   UNL     1     -48.511   2.105  10.185  1.00  0.00     0.422 C 
ATOM     11  F   UNL     1     -48.539   1.116  11.154  1.00  0.00    -0.167 F 
ATOM     12  F   UNL     1     -47.480   2.977  10.465  1.00  0.00    -0.167 F 
ATOM     13  F   UNL     1     -48.310   1.503   8.962  1.00  0.00    -0.167 F 
ENDBRANCH   9  10
ENDBRANCH   8   9
ENDBRANCH   3   8
BRANCH   7  14
ATOM     14  C   UNL     1     -54.053   5.359  13.313  1.00  0.00     0.380 C 
BRANCH  14  15
ATOM     15  S   UNL     1     -53.958   6.287  14.748  1.00  0.00     0.181 S 
BRANCH  15  16
ATOM     16  O   UNL     1     -53.142   7.683  14.775  1.00  0.00    -0.182 OA
ATOM     17  H   UNL     1     -53.769   8.450  14.624  1.00  0.00     0.283 HD
ENDBRANCH  15  16
BRANCH  15  18
ATOM     18  C   UNL     1     -54.960   5.882  16.070  1.00  0.00     0.179 A 
ATOM     19  N   UNL     1     -55.766   6.622  16.842  1.00  0.00    -0.390 NA
ATOM     20  N   UNL     1     -55.065   4.614  16.556  1.00  0.00    -0.390 NA
ATOM     21  C   UNL     1     -56.349   5.843  17.769  1.00  0.00    -0.035 A 
ATOM     22  C   UNL     1     -55.904   4.555  17.592  1.00  0.00    -0.035 A 
ATOM     23  C   UNL     1     -57.254   6.086  18.798  1.00  0.00     0.004 A 
ATOM     24  C   UNL     1     -56.351   3.524  18.423  1.00  0.00     0.004 A 
ATOM     25  C   UNL     1     -57.706   5.088  19.624  1.00  0.00     0.000 A 
ATOM     26  C   UNL     1     -57.250   3.803  19.432  1.00  0.00     0.000 A 
ENDBRANCH  15  18
ENDBRANCH  14  15
ENDBRANCH   7  14
TORSDOF 7
ENDMDL
MODEL 5
REMARK VINA RESULT:      -6.3      1.905      2.552
REMARK SMILES Cc1c(OCC(F)(F)F)ccnc1C[S+](O)c1nc2ccccc2[n-]1
REMARK SMILES IDX 1 1 2 2 3 3 10 4 11 5 12 6 13 7 4 8 5 9 6 10 7 11 8 12 9 13
REMARK SMILES IDX 14 14 15 15 16 16 17 18 18 19 25 20 19 21 24 22 20 23 23 24
REMARK SMILES IDX 21 25 22 26
REMARK H PARENT 16 17
ROOT
ATOM      1  C   UNL     1     -57.096   5.844  15.754  1.00  0.00     0.050 C 
ATOM      2  C   UNL     1     -57.052   4.362  15.697  1.00  0.00     0.018 A 
ATOM      3  C   UNL     1     -57.854   3.609  16.556  1.00  0.00     0.126 A 
ATOM      4  C   UNL     1     -57.767   2.237  16.474  1.00  0.00     0.067 A 
ATOM      5  C   UNL     1     -56.918   1.636  15.576  1.00  0.00     0.115 A 
ATOM      6  N   UNL     1     -56.171   2.386  14.775  1.00  0.00    -0.256 NA
ATOM      7  C   UNL     1     -56.208   3.747  14.803  1.00  0.00     0.100 A 
ENDROOT
BRANCH   3   8
ATOM      8  O   UNL     1     -58.688   4.276  17.437  1.00  0.00    -0.484 OA
BRANCH   8   9
ATOM      9  C   UNL     1     -59.173   3.691  18.609  1.00  0.00     0.344 C 
BRANCH   9  10
ATOM     10  C   UNL     1     -58.281   4.138  19.749  1.00  0.00     0.422 C 
ATOM     11  F   UNL     1     -59.051   4.925  20.588  1.00  0.00    -0.167 F 
ATOM     12  F   UNL     1     -57.220   4.886  19.283  1.00  0.00    -0.167 F 
ATOM     13  F   UNL     1     -57.825   3.058  20.473  1.00  0.00    -0.167 F 
ENDBRANCH   9  10
ENDBRANCH   8   9
ENDBRANCH   3   8
BRANCH   7  14
ATOM     14  C   UNL     1     -55.345   4.509  13.854  1.00  0.00     0.380 C 
BRANCH  14  15
ATOM     15  S   UNL     1     -53.712   4.396  14.352  1.00  0.00     0.181 S 
BRANCH  15  16
ATOM     16  O   UNL     1     -53.314   4.542  15.912  1.00  0.00    -0.182 OA
ATOM     17  H   UNL     1     -53.160   5.506  16.139  1.00  0.00     0.283 HD
ENDBRANCH  15  16
BRANCH  15  18
ATOM     18  C   UNL     1     -52.537   3.850  13.240  1.00  0.00     0.179 A 
ATOM     19  N   UNL     1     -52.492   3.873  11.902  1.00  0.00    -0.390 NA
ATOM     20  N   UNL     1     -51.376   3.253  13.626  1.00  0.00    -0.390 NA
ATOM     21  C   UNL     1     -51.348   3.313  11.476  1.00  0.00    -0.035 A 
ATOM     22  C   UNL     1     -50.627   2.913  12.574  1.00  0.00    -0.035 A 
ATOM     23  C   UNL     1     -50.800   3.083  10.217  1.00  0.00     0.004 A 
ATOM     24  C   UNL     1     -49.383   2.294  12.427  1.00  0.00     0.004 A 
ATOM     25  C   UNL     1     -49.580   2.478  10.050  1.00  0.00     0.000 A 
ATOM     26  C   UNL     1     -48.872   2.084  11.163  1.00  0.00     0.000 A 
ENDBRANCH  15  18
ENDBRANCH  14  15
ENDBRANCH   7  14
TORSDOF 7
ENDMDL
MODEL 6
REMARK VINA RESULT:      -6.3      5.022      8.838
REMARK SMILES Cc1c(OCC(F)(F)F)ccnc1C[S+](O)c1nc2ccccc2[n-]1
REMARK SMILES IDX 1 1 2 2 3 3 10 4 11 5 12 6 13 7 4 8 5 9 6 10 7 11 8 12 9 13
REMARK SMILES IDX 14 14 15 15 16 16 17 18 18 19 25 20 19 21 24 22 20 23 23 24
REMARK SMILES IDX 21 25 22 26
REMARK H PARENT 16 17
ROOT
ATOM      1  C   UNL     1     -51.506   2.895  13.101  1.00  0.00     0.050 C 
ATOM      2  C   UNL     1     -51.488   4.249  12.496  1.00  0.00     0.018 A 
ATOM      3  C   UNL     1     -50.371   4.675  11.776  1.00  0.00     0.126 A 
ATOM      4  C   UNL     1     -50.397   5.945  11.245  1.00  0.00     0.067 A 
ATOM      5  C   UNL     1     -51.487   6.761  11.423  1.00  0.00     0.115 A 
ATOM      6  N   UNL     1     -52.532   6.322  12.114  1.00  0.00    -0.256 NA
ATOM      7  C   UNL     1     -52.573   5.077  12.664  1.00  0.00     0.100 A 
ENDROOT
BRANCH   3   8
ATOM      8  O   UNL     1     -49.305   3.803  11.634  1.00  0.00    -0.484 OA
BRANCH   8   9
ATOM      9  C   UNL     1     -48.730   3.506  10.395  1.00  0.00     0.344 C 
BRANCH   9  10
ATOM     10  C   UNL     1     -49.051   2.060  10.075  1.00  0.00     0.422 C 
ATOM     11  F   UNL     1     -48.141   1.639   9.121  1.00  0.00    -0.167 F 
ATOM     12  F   UNL     1     -50.325   1.937   9.562  1.00  0.00    -0.167 F 
ATOM     13  F   UNL     1     -48.904   1.263  11.190  1.00  0.00    -0.167 F 
ENDBRANCH   9  10
ENDBRANCH   8   9
ENDBRANCH   3   8
BRANCH   7  14
ATOM     14  C   UNL     1     -53.796   4.661  13.410  1.00  0.00     0.380 C 
BRANCH  14  15
ATOM     15  S   UNL     1     -54.056   5.730  14.720  1.00  0.00     0.181 S 
BRANCH  15  16
ATOM     16  O   UNL     1     -53.602   7.280  14.623  1.00  0.00    -0.182 OA
ATOM     17  H   UNL     1     -54.366   7.877  14.877  1.00  0.00     0.283 HD
ENDBRANCH  15  16
BRANCH  15  18
ATOM     18  C   UNL     1     -55.047   5.233  16.018  1.00  0.00     0.179 A 
ATOM     19  N   UNL     1     -54.775   4.568  17.149  1.00  0.00    -0.390 NA
ATOM     20  N   UNL     1     -56.386   5.476  16.061  1.00  0.00    -0.390 NA
ATOM     21  C   UNL     1     -55.901   4.407  17.864  1.00  0.00    -0.035 A 
ATOM     22  C   UNL     1     -56.937   4.986  17.173  1.00  0.00    -0.035 A 
ATOM     23  C   UNL     1     -56.186   3.806  19.087  1.00  0.00     0.004 A 
ATOM     24  C   UNL     1     -58.237   4.969  17.688  1.00  0.00     0.004 A 
ATOM     25  C   UNL     1     -57.454   3.778  19.609  1.00  0.00     0.000 A 
ATOM     26  C   UNL     1     -58.481   4.364  18.903  1.00  0.00     0.000 A 
ENDBRANCH  15  18
ENDBRANCH  14  15
ENDBRANCH   7  14
TORSDOF 7
ENDMDL
MODEL 7
REMARK VINA RESULT:      -6.2      4.828      8.545
REMARK SMILES Cc1c(OCC(F)(F)F)ccnc1C[S+](O)c1nc2ccccc2[n-]1
REMARK SMILES IDX 1 1 2 2 3 3 10 4 11 5 12 6 13 7 4 8 5 9 6 10 7 11 8 12 9 13
REMARK SMILES IDX 14 14 15 15 16 16 17 18 18 19 25 20 19 21 24 22 20 23 23 24
REMARK SMILES IDX 21 25 22 26
REMARK H PARENT 16 17
ROOT
ATOM      1  C   UNL     1     -53.521   2.782  13.185  1.00  0.00     0.050 C 
ATOM      2  C   UNL     1     -53.041   4.101  12.705  1.00  0.00     0.018 A 
ATOM      3  C   UNL     1     -51.847   4.188  11.989  1.00  0.00     0.126 A 
ATOM      4  C   UNL     1     -51.437   5.437  11.577  1.00  0.00     0.067 A 
ATOM      5  C   UNL     1     -52.183   6.554  11.865  1.00  0.00     0.115 A 
ATOM      6  N   UNL     1     -53.313   6.432  12.548  1.00  0.00    -0.256 NA
ATOM      7  C   UNL     1     -53.778   5.228  12.985  1.00  0.00     0.100 A 
ENDROOT
BRANCH   3   8
ATOM      8  O   UNL     1     -51.144   3.023  11.732  1.00  0.00    -0.484 OA
BRANCH   8   9
ATOM      9  C   UNL     1     -50.288   2.882  10.637  1.00  0.00     0.344 C 
BRANCH   9  10
ATOM     10  C   UNL     1     -49.023   2.208  11.126  1.00  0.00     0.422 C 
ATOM     11  F   UNL     1     -47.980   3.095  10.926  1.00  0.00    -0.167 F 
ATOM     12  F   UNL     1     -48.770   1.053  10.415  1.00  0.00    -0.167 F 
ATOM     13  F   UNL     1     -49.099   1.932  12.475  1.00  0.00    -0.167 F 
ENDBRANCH   9  10
ENDBRANCH   8   9
ENDBRANCH   3   8
BRANCH   7  14
ATOM     14  C   UNL     1     -55.068   5.183  13.731  1.00  0.00     0.380 C 
BRANCH  14  15
ATOM     15  S   UNL     1     -54.859   5.890  15.275  1.00  0.00     0.181 S 
BRANCH  15  16
ATOM     16  O   UNL     1     -54.020   7.262  15.448  1.00  0.00    -0.182 OA
ATOM     17  H   UNL     1     -54.433   7.829  16.164  1.00  0.00     0.283 HD
ENDBRANCH  15  16
BRANCH  15  18
ATOM     18  C   UNL     1     -55.772   5.302  16.592  1.00  0.00     0.179 A 
ATOM     19  N   UNL     1     -56.450   5.928  17.563  1.00  0.00    -0.390 NA
ATOM     20  N   UNL     1     -55.934   3.973  16.844  1.00  0.00    -0.390 NA
ATOM     21  C   UNL     1     -57.010   5.023  18.383  1.00  0.00    -0.035 A 
ATOM     22  C   UNL     1     -56.684   3.769  17.930  1.00  0.00    -0.035 A 
ATOM     23  C   UNL     1     -57.803   5.120  19.524  1.00  0.00     0.004 A 
ATOM     24  C   UNL     1     -57.137   2.627  18.597  1.00  0.00     0.004 A 
ATOM     25  C   UNL     1     -58.258   4.013  20.193  1.00  0.00     0.000 A 
ATOM     26  C   UNL     1     -57.922   2.763  19.723  1.00  0.00     0.000 A 
ENDBRANCH  15  18
ENDBRANCH  14  15
ENDBRANCH   7  14
TORSDOF 7
ENDMDL
MODEL 8
REMARK VINA RESULT:      -6.2      5.483      9.181
REMARK SMILES Cc1c(OCC(F)(F)F)ccnc1C[S+](O)c1nc2ccccc2[n-]1
REMARK SMILES IDX 1 1 2 2 3 3 10 4 11 5 12 6 13 7 4 8 5 9 6 10 7 11 8 12 9 13
REMARK SMILES IDX 14 14 15 15 16 16 17 18 18 19 25 20 19 21 24 22 20 23 23 24
REMARK SMILES IDX 21 25 22 26
REMARK H PARENT 16 17
ROOT
ATOM      1  C   UNL     1     -50.802   2.564  13.102  1.00  0.00     0.050 C 
ATOM      2  C   UNL     1     -51.025   3.880  12.456  1.00  0.00     0.018 A 
ATOM      3  C   UNL     1     -50.035   4.432  11.642  1.00  0.00     0.126 A 
ATOM      4  C   UNL     1     -50.284   5.663  11.075  1.00  0.00     0.067 A 
ATOM      5  C   UNL     1     -51.468   6.319  11.308  1.00  0.00     0.115 A 
ATOM      6  N   UNL     1     -52.386   5.763  12.088  1.00  0.00    -0.256 NA
ATOM      7  C   UNL     1     -52.205   4.549  12.679  1.00  0.00     0.100 A 
ENDROOT
BRANCH   3   8
ATOM      8  O   UNL     1     -48.865   3.718  11.448  1.00  0.00    -0.484 OA
BRANCH   8   9
ATOM      9  C   UNL     1     -48.728   2.745  10.454  1.00  0.00     0.344 C 
BRANCH   9  10
ATOM     10  C   UNL     1     -47.659   3.218   9.491  1.00  0.00     0.422 C 
ATOM     11  F   UNL     1     -47.775   2.456   8.342  1.00  0.00    -0.167 F 
ATOM     12  F   UNL     1     -46.399   3.039  10.022  1.00  0.00    -0.167 F 
ATOM     13  F   UNL     1     -47.851   4.540   9.150  1.00  0.00    -0.167 F 
ENDBRANCH   9  10
ENDBRANCH   8   9
ENDBRANCH   3   8
BRANCH   7  14
ATOM     14  C   UNL     1     -53.299   3.992  13.526  1.00  0.00     0.380 C 
BRANCH  14  15
ATOM     15  S   UNL     1     -54.458   5.213  13.836  1.00  0.00     0.181 S 
BRANCH  15  16
ATOM     16  O   UNL     1     -55.041   6.121  12.631  1.00  0.00    -0.182 OA
ATOM     17  H   UNL     1     -56.001   6.349  12.808  1.00  0.00     0.283 HD
ENDBRANCH  15  16
BRANCH  15  18
ATOM     18  C   UNL     1     -55.206   5.282  15.369  1.00  0.00     0.179 A 
ATOM     19  N   UNL     1     -55.659   6.310  16.098  1.00  0.00    -0.390 NA
ATOM     20  N   UNL     1     -55.455   4.174  16.121  1.00  0.00    -0.390 NA
ATOM     21  C   UNL     1     -56.169   5.857  17.256  1.00  0.00    -0.035 A 
ATOM     22  C   UNL     1     -56.042   4.490  17.278  1.00  0.00    -0.035 A 
ATOM     23  C   UNL     1     -56.761   6.476  18.354  1.00  0.00     0.004 A 
ATOM     24  C   UNL     1     -56.494   3.747  18.372  1.00  0.00     0.004 A 
ATOM     25  C   UNL     1     -57.211   5.766  19.437  1.00  0.00     0.000 A 
ATOM     26  C   UNL     1     -57.076   4.396  19.442  1.00  0.00     0.000 A 
ENDBRANCH  15  18
ENDBRANCH  14  15
ENDBRANCH   7  14
TORSDOF 7
ENDMDL
MODEL 9
REMARK VINA RESULT:      -6.2      4.869      8.700
REMARK SMILES Cc1c(OCC(F)(F)F)ccnc1C[S+](O)c1nc2ccccc2[n-]1
REMARK SMILES IDX 1 1 2 2 3 3 10 4 11 5 12 6 13 7 4 8 5 9 6 10 7 11 8 12 9 13
REMARK SMILES IDX 14 14 15 15 16 16 17 18 18 19 25 20 19 21 24 22 20 23 23 24
REMARK SMILES IDX 21 25 22 26
REMARK H PARENT 16 17
ROOT
ATOM      1  C   UNL     1     -52.069   3.036  13.352  1.00  0.00     0.050 C 
ATOM      2  C   UNL     1     -52.243   4.404  12.808  1.00  0.00     0.018 A 
ATOM      3  C   UNL     1     -51.230   4.981  12.040  1.00  0.00     0.126 A 
ATOM      4  C   UNL     1     -51.434   6.260  11.569  1.00  0.00     0.067 A 
ATOM      5  C   UNL     1     -52.595   6.938  11.849  1.00  0.00     0.115 A 
ATOM      6  N   UNL     1     -53.536   6.356  12.582  1.00  0.00    -0.256 NA
ATOM      7  C   UNL     1     -53.401   5.096  13.079  1.00  0.00     0.100 A 
ENDROOT
BRANCH   3   8
ATOM      8  O   UNL     1     -50.085   4.244  11.795  1.00  0.00    -0.484 OA
BRANCH   8   9
ATOM      9  C   UNL     1     -49.812   3.660  10.554  1.00  0.00     0.344 C 
BRANCH   9  10
ATOM     10  C   UNL     1     -48.897   2.477  10.794  1.00  0.00     0.422 C 
ATOM     11  F   UNL     1     -49.021   2.126  12.127  1.00  0.00    -0.167 F 
ATOM     12  F   UNL     1     -47.582   2.809  10.540  1.00  0.00    -0.167 F 
ATOM     13  F   UNL     1     -49.275   1.396  10.027  1.00  0.00    -0.167 F 
ENDBRANCH   9  10
ENDBRANCH   8   9
ENDBRANCH   3   8
BRANCH   7  14
ATOM     14  C   UNL     1     -54.517   4.515  13.879  1.00  0.00     0.380 C 
BRANCH  14  15
ATOM     15  S   UNL     1     -54.784   5.477  15.268  1.00  0.00     0.181 S 
BRANCH  15  16
ATOM     16  O   UNL     1     -54.210   6.987  15.348  1.00  0.00    -0.182 OA
ATOM     17  H   UNL     1     -53.311   7.036  14.907  1.00  0.00     0.283 HD
ENDBRANCH  15  16
BRANCH  15  18
ATOM     18  C   UNL     1     -55.895   4.946  16.450  1.00  0.00     0.179 A 
ATOM     19  N   UNL     1     -57.225   5.070  16.549  1.00  0.00    -0.390 NA
ATOM     20  N   UNL     1     -55.517   4.258  17.563  1.00  0.00    -0.390 NA
ATOM     21  C   UNL     1     -57.654   4.482  17.679  1.00  0.00    -0.035 A 
ATOM     22  C   UNL     1     -56.566   3.960  18.334  1.00  0.00    -0.035 A 
ATOM     23  C   UNL     1     -58.908   4.317  18.261  1.00  0.00     0.004 A 
ATOM     24  C   UNL     1     -56.718   3.284  19.547  1.00  0.00     0.004 A 
ATOM     25  C   UNL     1     -59.079   3.657  19.451  1.00  0.00     0.000 A 
ATOM     26  C   UNL     1     -57.977   3.140  20.094  1.00  0.00     0.000 A 
ENDBRANCH  15  18
ENDBRANCH  14  15
ENDBRANCH   7  14
TORSDOF 7
ENDMDL
