MODEL 1
REMARK VINA RESULT:      -7.1      0.000      0.000
REMARK SMILES O=C(CCC[NH+]1CCC(O)(c2ccc(Cl)cc2)CC1)c1ccc(F)cc1
REMARK SMILES IDX 4 1 3 2 2 3 1 4 20 5 21 6 26 7 22 8 25 9 23 10 24 11 5 12
REMARK SMILES IDX 6 13 7 14 19 15 8 16 18 17 9 18 10 20 11 22 12 23 17 24
REMARK SMILES IDX 13 25 16 26 14 27 15 28
REMARK H PARENT 6 19 10 21
ROOT
ATOM      1  C   UNL     1     146.563 162.745 119.645  1.00  0.00     0.070 C 
ENDROOT
BRANCH   1   2
ATOM      2  C   UNL     1     145.249 163.442 119.372  1.00  0.00     0.087 C 
BRANCH   2   3
ATOM      3  C   UNL     1     144.204 163.169 120.361  1.00  0.00     0.163 C 
ATOM      4  O   UNL     1     143.972 163.963 121.309  1.00  0.00    -0.294 OA
BRANCH   3   5
ATOM      5  C   UNL     1     143.363 161.954 120.309  1.00  0.00     0.018 A 
ATOM      6  C   UNL     1     143.017 161.391 119.094  1.00  0.00     0.015 A 
ATOM      7  C   UNL     1     142.909 161.360 121.459  1.00  0.00     0.015 A 
ATOM      8  C   UNL     1     142.234 160.262 119.053  1.00  0.00     0.040 A 
ATOM      9  C   UNL     1     142.129 160.235 121.425  1.00  0.00     0.040 A 
ATOM     10  C   UNL     1     141.793 159.687 120.217  1.00  0.00     0.123 A 
ATOM     11  F   UNL     1     141.009 158.562 120.224  1.00  0.00    -0.207 F 
ENDBRANCH   3   5
ENDBRANCH   2   3
ENDBRANCH   1   2
BRANCH   1  12
ATOM     12  C   UNL     1     147.639 163.459 118.901  1.00  0.00     0.262 C 
BRANCH  12  13
ATOM     13  N   UNL     1     148.885 163.538 119.652  1.00  0.00    -0.335 N 
ATOM     14  C   UNL     1     149.898 162.677 119.122  1.00  0.00     0.265 C 
ATOM     15  C   UNL     1     149.344 164.889 119.701  1.00  0.00     0.265 C 
ATOM     16  C   UNL     1     150.224 163.019 117.694  1.00  0.00     0.102 C 
ATOM     17  C   UNL     1     150.490 165.238 118.850  1.00  0.00     0.102 C 
ATOM     18  C   UNL     1     150.724 164.431 117.627  1.00  0.00     0.100 C 
ATOM     19  H   UNL     1     148.642 163.159 120.615  1.00  0.00     0.348 HD
BRANCH  18  20
ATOM     20  O   UNL     1     152.127 164.339 117.455  1.00  0.00    -0.385 OA
ATOM     21  H   UNL     1     152.346 163.374 117.436  1.00  0.00     0.211 HD
ENDBRANCH  18  20
BRANCH  18  22
ATOM     22  C   UNL     1     150.247 165.122 116.376  1.00  0.00    -0.016 A 
ATOM     23  C   UNL     1     148.919 165.130 116.005  1.00  0.00     0.008 A 
ATOM     24  C   UNL     1     151.103 165.787 115.525  1.00  0.00     0.008 A 
ATOM     25  C   UNL     1     148.443 165.748 114.871  1.00  0.00     0.021 A 
ATOM     26  C   UNL     1     150.649 166.414 114.382  1.00  0.00     0.021 A 
ATOM     27  C   UNL     1     149.319 166.394 114.056  1.00  0.00     0.041 A 
ATOM     28  Cl  UNL     1     148.736 167.187 112.613  1.00  0.00    -0.084 Cl
ENDBRANCH  18  22
ENDBRANCH  12  13
ENDBRANCH   1  12
TORSDOF 7
ENDMDL
MODEL 2
REMARK VINA RESULT:      -7.0      0.693      1.159
REMARK SMILES O=C(CCC[NH+]1CCC(O)(c2ccc(Cl)cc2)CC1)c1ccc(F)cc1
REMARK SMILES IDX 4 1 3 2 2 3 1 4 20 5 21 6 26 7 22 8 25 9 23 10 24 11 5 12
REMARK SMILES IDX 6 13 7 14 19 15 8 16 18 17 9 18 10 20 11 22 12 23 17 24
REMARK SMILES IDX 13 25 16 26 14 27 15 28
REMARK H PARENT 6 19 10 21
ROOT
ATOM      1  C   UNL     1     147.035 162.597 119.315  1.00  0.00     0.070 C 
ENDROOT
BRANCH   1   2
ATOM      2  C   UNL     1     145.898 163.130 120.158  1.00  0.00     0.087 C 
BRANCH   2   3
ATOM      3  C   UNL     1     144.583 163.046 119.518  1.00  0.00     0.163 C 
ATOM      4  O   UNL     1     144.220 163.882 118.651  1.00  0.00    -0.294 OA
BRANCH   3   5
ATOM      5  C   UNL     1     143.609 161.984 119.847  1.00  0.00     0.018 A 
ATOM      6  C   UNL     1     143.018 161.238 118.843  1.00  0.00     0.015 A 
ATOM      7  C   UNL     1     143.269 161.715 121.148  1.00  0.00     0.015 A 
ATOM      8  C   UNL     1     142.112 160.252 119.156  1.00  0.00     0.040 A 
ATOM      9  C   UNL     1     142.368 160.734 121.468  1.00  0.00     0.040 A 
ATOM     10  C   UNL     1     141.791 160.003 120.466  1.00  0.00     0.123 A 
ATOM     11  F   UNL     1     140.892 159.032 120.824  1.00  0.00    -0.207 F 
ENDBRANCH   3   5
ENDBRANCH   2   3
ENDBRANCH   1   2
BRANCH   1  12
ATOM     12  C   UNL     1     147.906 163.741 118.922  1.00  0.00     0.262 C 
BRANCH  12  13
ATOM     13  N   UNL     1     149.209 163.706 119.573  1.00  0.00    -0.335 N 
ATOM     14  C   UNL     1     150.096 162.758 118.970  1.00  0.00     0.265 C 
ATOM     15  C   UNL     1     149.790 165.009 119.581  1.00  0.00     0.265 C 
ATOM     16  C   UNL     1     150.339 163.072 117.519  1.00  0.00     0.102 C 
ATOM     17  C   UNL     1     150.893 165.256 118.641  1.00  0.00     0.102 C 
ATOM     18  C   UNL     1     150.957 164.434 117.407  1.00  0.00     0.100 C 
ATOM     19  H   UNL     1     149.009 163.347 120.554  1.00  0.00     0.348 HD
BRANCH  18  20
ATOM     20  O   UNL     1     152.329 164.216 117.127  1.00  0.00    -0.385 OA
ATOM     21  H   UNL     1     152.388 163.989 116.165  1.00  0.00     0.211 HD
ENDBRANCH  18  20
BRANCH  18  22
ATOM     22  C   UNL     1     150.449 165.168 116.194  1.00  0.00    -0.016 A 
ATOM     23  C   UNL     1     151.284 165.910 115.384  1.00  0.00     0.008 A 
ATOM     24  C   UNL     1     149.124 165.146 115.816  1.00  0.00     0.008 A 
ATOM     25  C   UNL     1     150.859 166.595 114.269  1.00  0.00     0.021 A 
ATOM     26  C   UNL     1     148.676 165.826 114.701  1.00  0.00     0.021 A 
ATOM     27  C   UNL     1     149.543 166.549 113.929  1.00  0.00     0.041 A 
ATOM     28  Cl  UNL     1     148.984 167.410 112.515  1.00  0.00    -0.084 Cl
ENDBRANCH  18  22
ENDBRANCH  12  13
ENDBRANCH   1  12
TORSDOF 7
ENDMDL
MODEL 3
REMARK VINA RESULT:      -6.8      2.655      3.843
REMARK SMILES O=C(CCC[NH+]1CCC(O)(c2ccc(Cl)cc2)CC1)c1ccc(F)cc1
REMARK SMILES IDX 4 1 3 2 2 3 1 4 20 5 21 6 26 7 22 8 25 9 23 10 24 11 5 12
REMARK SMILES IDX 6 13 7 14 19 15 8 16 18 17 9 18 10 20 11 22 12 23 17 24
REMARK SMILES IDX 13 25 16 26 14 27 15 28
REMARK H PARENT 6 19 10 21
ROOT
ATOM      1  C   UNL     1     149.407 164.408 118.416  1.00  0.00     0.070 C 
ENDROOT
BRANCH   1   2
ATOM      2  C   UNL     1     148.993 163.661 119.664  1.00  0.00     0.087 C 
BRANCH   2   3
ATOM      3  C   UNL     1     147.880 162.729 119.467  1.00  0.00     0.163 C 
ATOM      4  O   UNL     1     148.065 161.485 119.429  1.00  0.00    -0.294 OA
BRANCH   3   5
ATOM      5  C   UNL     1     146.484 163.185 119.305  1.00  0.00     0.018 A 
ATOM      6  C   UNL     1     145.466 162.610 120.045  1.00  0.00     0.015 A 
ATOM      7  C   UNL     1     146.165 164.185 118.422  1.00  0.00     0.015 A 
ATOM      8  C   UNL     1     144.170 163.039 119.889  1.00  0.00     0.040 A 
ATOM      9  C   UNL     1     144.876 164.618 118.261  1.00  0.00     0.040 A 
ATOM     10  C   UNL     1     143.879 164.041 118.998  1.00  0.00     0.123 A 
ATOM     11  F   UNL     1     142.601 164.499 118.808  1.00  0.00    -0.207 F 
ENDBRANCH   3   5
ENDBRANCH   2   3
ENDBRANCH   1   2
BRANCH   1  12
ATOM     12  C   UNL     1     150.390 163.572 117.671  1.00  0.00     0.262 C 
BRANCH  12  13
ATOM     13  N   UNL     1     151.611 164.296 117.342  1.00  0.00    -0.335 N 
ATOM     14  C   UNL     1     152.156 163.904 116.078  1.00  0.00     0.265 C 
ATOM     15  C   UNL     1     151.372 165.702 117.377  1.00  0.00     0.265 C 
ATOM     16  C   UNL     1     151.185 164.151 114.957  1.00  0.00     0.102 C 
ATOM     17  C   UNL     1     151.282 166.398 116.085  1.00  0.00     0.102 C 
ATOM     18  C   UNL     1     150.862 165.614 114.897  1.00  0.00     0.100 C 
ATOM     19  H   UNL     1     152.312 163.987 118.080  1.00  0.00     0.348 HD
BRANCH  18  20
ATOM     20  O   UNL     1     151.581 166.126 113.789  1.00  0.00    -0.385 OA
ATOM     21  H   UNL     1     151.081 165.855 112.979  1.00  0.00     0.211 HD
ENDBRANCH  18  20
BRANCH  18  22
ATOM     22  C   UNL     1     149.418 165.841 114.532  1.00  0.00    -0.016 A 
ATOM     23  C   UNL     1     149.048 166.657 113.484  1.00  0.00     0.008 A 
ATOM     24  C   UNL     1     148.379 165.252 115.219  1.00  0.00     0.008 A 
ATOM     25  C   UNL     1     147.742 166.892 113.119  1.00  0.00     0.021 A 
ATOM     26  C   UNL     1     147.061 165.473 114.872  1.00  0.00     0.021 A 
ATOM     27  C   UNL     1     146.744 166.292 113.822  1.00  0.00     0.041 A 
ATOM     28  Cl  UNL     1     145.079 166.575 113.374  1.00  0.00    -0.084 Cl
ENDBRANCH  18  22
ENDBRANCH  12  13
ENDBRANCH   1  12
TORSDOF 7
ENDMDL
MODEL 4
REMARK VINA RESULT:      -6.7      2.727      3.795
REMARK SMILES O=C(CCC[NH+]1CCC(O)(c2ccc(Cl)cc2)CC1)c1ccc(F)cc1
REMARK SMILES IDX 4 1 3 2 2 3 1 4 20 5 21 6 26 7 22 8 25 9 23 10 24 11 5 12
REMARK SMILES IDX 6 13 7 14 19 15 8 16 18 17 9 18 10 20 11 22 12 23 17 24
REMARK SMILES IDX 13 25 16 26 14 27 15 28
REMARK H PARENT 6 19 10 21
ROOT
ATOM      1  C   UNL     1     150.160 163.288 119.326  1.00  0.00     0.070 C 
ENDROOT
BRANCH   1   2
ATOM      2  C   UNL     1     148.865 163.427 120.095  1.00  0.00     0.087 C 
BRANCH   2   3
ATOM      3  C   UNL     1     147.756 162.636 119.556  1.00  0.00     0.163 C 
ATOM      4  O   UNL     1     147.897 161.420 119.266  1.00  0.00    -0.294 OA
BRANCH   3   5
ATOM      5  C   UNL     1     146.415 163.210 119.321  1.00  0.00     0.018 A 
ATOM      6  C   UNL     1     145.325 162.771 120.052  1.00  0.00     0.015 A 
ATOM      7  C   UNL     1     146.219 164.187 118.379  1.00  0.00     0.015 A 
ATOM      8  C   UNL     1     144.080 163.309 119.828  1.00  0.00     0.040 A 
ATOM      9  C   UNL     1     144.982 164.728 118.151  1.00  0.00     0.040 A 
ATOM     10  C   UNL     1     143.912 164.286 118.880  1.00  0.00     0.123 A 
ATOM     11  F   UNL     1     142.689 164.849 118.622  1.00  0.00    -0.207 F 
ENDBRANCH   3   5
ENDBRANCH   2   3
ENDBRANCH   1   2
BRANCH   1  12
ATOM     12  C   UNL     1     150.044 164.071 118.063  1.00  0.00     0.262 C 
BRANCH  12  13
ATOM     13  N   UNL     1     151.331 164.544 117.573  1.00  0.00    -0.335 N 
ATOM     14  C   UNL     1     151.767 163.837 116.407  1.00  0.00     0.265 C 
ATOM     15  C   UNL     1     151.276 165.948 117.322  1.00  0.00     0.265 C 
ATOM     16  C   UNL     1     150.787 163.981 115.275  1.00  0.00     0.102 C 
ATOM     17  C   UNL     1     151.219 166.375 115.917  1.00  0.00     0.102 C 
ATOM     18  C   UNL     1     150.651 165.432 114.922  1.00  0.00     0.100 C 
ATOM     19  H   UNL     1     152.019 164.299 118.346  1.00  0.00     0.348 HD
BRANCH  18  20
ATOM     20  O   UNL     1     151.380 165.611 113.721  1.00  0.00    -0.385 OA
ATOM     21  H   UNL     1     151.381 166.582 113.533  1.00  0.00     0.211 HD
ENDBRANCH  18  20
BRANCH  18  22
ATOM     22  C   UNL     1     149.233 165.773 114.543  1.00  0.00    -0.016 A 
ATOM     23  C   UNL     1     148.150 165.269 115.232  1.00  0.00     0.008 A 
ATOM     24  C   UNL     1     148.929 166.606 113.488  1.00  0.00     0.008 A 
ATOM     25  C   UNL     1     146.841 165.555 114.917  1.00  0.00     0.021 A 
ATOM     26  C   UNL     1     147.623 166.907 113.154  1.00  0.00     0.021 A 
ATOM     27  C   UNL     1     146.581 166.382 113.869  1.00  0.00     0.041 A 
ATOM     28  Cl  UNL     1     144.926 166.759 113.454  1.00  0.00    -0.084 Cl
ENDBRANCH  18  22
ENDBRANCH  12  13
ENDBRANCH   1  12
TORSDOF 7
ENDMDL
MODEL 5
REMARK VINA RESULT:      -6.4      1.094      1.758
REMARK SMILES O=C(CCC[NH+]1CCC(O)(c2ccc(Cl)cc2)CC1)c1ccc(F)cc1
REMARK SMILES IDX 4 1 3 2 2 3 1 4 20 5 21 6 26 7 22 8 25 9 23 10 24 11 5 12
REMARK SMILES IDX 6 13 7 14 19 15 8 16 18 17 9 18 10 20 11 22 12 23 17 24
REMARK SMILES IDX 13 25 16 26 14 27 15 28
REMARK H PARENT 6 19 10 21
ROOT
ATOM      1  C   UNL     1     146.939 162.584 119.367  1.00  0.00     0.070 C 
ENDROOT
BRANCH   1   2
ATOM      2  C   UNL     1     145.747 163.195 120.069  1.00  0.00     0.087 C 
BRANCH   2   3
ATOM      3  C   UNL     1     144.636 163.543 119.181  1.00  0.00     0.163 C 
ATOM      4  O   UNL     1     144.623 164.623 118.536  1.00  0.00    -0.294 OA
BRANCH   3   5
ATOM      5  C   UNL     1     143.471 162.654 118.985  1.00  0.00     0.018 A 
ATOM      6  C   UNL     1     143.320 161.513 119.752  1.00  0.00     0.015 A 
ATOM      7  C   UNL     1     142.516 162.938 118.042  1.00  0.00     0.015 A 
ATOM      8  C   UNL     1     142.235 160.691 119.565  1.00  0.00     0.040 A 
ATOM      9  C   UNL     1     141.432 162.125 117.850  1.00  0.00     0.040 A 
ATOM     10  C   UNL     1     141.294 160.999 118.615  1.00  0.00     0.123 A 
ATOM     11  F   UNL     1     140.197 160.208 118.392  1.00  0.00    -0.207 F 
ENDBRANCH   3   5
ENDBRANCH   2   3
ENDBRANCH   1   2
BRANCH   1  12
ATOM     12  C   UNL     1     147.858 163.683 118.958  1.00  0.00     0.262 C 
BRANCH  12  13
ATOM     13  N   UNL     1     149.149 163.618 119.632  1.00  0.00    -0.335 N 
ATOM     14  C   UNL     1     150.041 162.684 119.016  1.00  0.00     0.265 C 
ATOM     15  C   UNL     1     149.737 164.917 119.693  1.00  0.00     0.265 C 
ATOM     16  C   UNL     1     150.314 163.044 117.581  1.00  0.00     0.102 C 
ATOM     17  C   UNL     1     150.860 165.186 118.784  1.00  0.00     0.102 C 
ATOM     18  C   UNL     1     150.943 164.404 117.525  1.00  0.00     0.100 C 
ATOM     19  H   UNL     1     148.927 163.229 120.597  1.00  0.00     0.348 HD
BRANCH  18  20
ATOM     20  O   UNL     1     152.318 164.187 117.265  1.00  0.00    -0.385 OA
ATOM     21  H   UNL     1     152.521 163.267 117.569  1.00  0.00     0.211 HD
ENDBRANCH  18  20
BRANCH  18  22
ATOM     22  C   UNL     1     150.463 165.181 116.327  1.00  0.00    -0.016 A 
ATOM     23  C   UNL     1     151.295 166.023 115.619  1.00  0.00     0.008 A 
ATOM     24  C   UNL     1     149.168 165.101 115.863  1.00  0.00     0.008 A 
ATOM     25  C   UNL     1     150.896 166.749 114.520  1.00  0.00     0.021 A 
ATOM     26  C   UNL     1     148.745 165.820 114.763  1.00  0.00     0.021 A 
ATOM     27  C   UNL     1     149.609 166.643 114.093  1.00  0.00     0.041 A 
ATOM     28  Cl  UNL     1     149.082 167.556 112.699  1.00  0.00    -0.084 Cl
ENDBRANCH  18  22
ENDBRANCH  12  13
ENDBRANCH   1  12
TORSDOF 7
ENDMDL
MODEL 6
REMARK VINA RESULT:      -6.4      1.628      2.050
REMARK SMILES O=C(CCC[NH+]1CCC(O)(c2ccc(Cl)cc2)CC1)c1ccc(F)cc1
REMARK SMILES IDX 4 1 3 2 2 3 1 4 20 5 21 6 26 7 22 8 25 9 23 10 24 11 5 12
REMARK SMILES IDX 6 13 7 14 19 15 8 16 18 17 9 18 10 20 11 22 12 23 17 24
REMARK SMILES IDX 13 25 16 26 14 27 15 28
REMARK H PARENT 6 19 10 21
ROOT
ATOM      1  C   UNL     1     146.780 162.712 119.566  1.00  0.00     0.070 C 
ENDROOT
BRANCH   1   2
ATOM      2  C   UNL     1     145.432 163.390 119.458  1.00  0.00     0.087 C 
BRANCH   2   3
ATOM      3  C   UNL     1     144.291 162.506 119.703  1.00  0.00     0.163 C 
ATOM      4  O   UNL     1     144.261 161.731 120.694  1.00  0.00    -0.294 OA
BRANCH   3   5
ATOM      5  C   UNL     1     143.112 162.468 118.812  1.00  0.00     0.018 A 
ATOM      6  C   UNL     1     142.227 161.406 118.862  1.00  0.00     0.015 A 
ATOM      7  C   UNL     1     142.869 163.481 117.919  1.00  0.00     0.015 A 
ATOM      8  C   UNL     1     141.134 161.378 118.030  1.00  0.00     0.040 A 
ATOM      9  C   UNL     1     141.782 163.459 117.088  1.00  0.00     0.040 A 
ATOM     10  C   UNL     1     140.913 162.403 117.147  1.00  0.00     0.123 A 
ATOM     11  F   UNL     1     139.838 162.416 116.297  1.00  0.00    -0.207 F 
ENDBRANCH   3   5
ENDBRANCH   2   3
ENDBRANCH   1   2
BRANCH   1  12
ATOM     12  C   UNL     1     147.797 163.577 118.904  1.00  0.00     0.262 C 
BRANCH  12  13
ATOM     13  N   UNL     1     149.071 163.592 119.611  1.00  0.00    -0.335 N 
ATOM     14  C   UNL     1     150.028 162.698 119.033  1.00  0.00     0.265 C 
ATOM     15  C   UNL     1     149.587 164.921 119.666  1.00  0.00     0.265 C 
ATOM     16  C   UNL     1     150.318 163.051 117.600  1.00  0.00     0.102 C 
ATOM     17  C   UNL     1     150.717 165.237 118.781  1.00  0.00     0.102 C 
ATOM     18  C   UNL     1     150.875 164.442 117.537  1.00  0.00     0.100 C 
ATOM     19  H   UNL     1     148.845 163.206 120.576  1.00  0.00     0.348 HD
BRANCH  18  20
ATOM     20  O   UNL     1     152.265 164.295 117.315  1.00  0.00    -0.385 OA
ATOM     21  H   UNL     1     152.685 165.156 117.568  1.00  0.00     0.211 HD
ENDBRANCH  18  20
BRANCH  18  22
ATOM     22  C   UNL     1     150.385 165.174 116.315  1.00  0.00    -0.016 A 
ATOM     23  C   UNL     1     149.071 165.105 115.898  1.00  0.00     0.008 A 
ATOM     24  C   UNL     1     151.212 165.954 115.538  1.00  0.00     0.008 A 
ATOM     25  C   UNL     1     148.584 165.757 114.789  1.00  0.00     0.021 A 
ATOM     26  C   UNL     1     150.746 166.617 114.420  1.00  0.00     0.021 A 
ATOM     27  C   UNL     1     149.433 166.518 114.047  1.00  0.00     0.041 A 
ATOM     28  Cl  UNL     1     148.834 167.356 112.635  1.00  0.00    -0.084 Cl
ENDBRANCH  18  22
ENDBRANCH  12  13
ENDBRANCH   1  12
TORSDOF 7
ENDMDL
MODEL 7
REMARK VINA RESULT:      -6.2      2.024      2.728
REMARK SMILES O=C(CCC[NH+]1CCC(O)(c2ccc(Cl)cc2)CC1)c1ccc(F)cc1
REMARK SMILES IDX 4 1 3 2 2 3 1 4 20 5 21 6 26 7 22 8 25 9 23 10 24 11 5 12
REMARK SMILES IDX 6 13 7 14 19 15 8 16 18 17 9 18 10 20 11 22 12 23 17 24
REMARK SMILES IDX 13 25 16 26 14 27 15 28
REMARK H PARENT 6 19 10 21
ROOT
ATOM      1  C   UNL     1     148.903 163.353 119.588  1.00  0.00     0.070 C 
ENDROOT
BRANCH   1   2
ATOM      2  C   UNL     1     147.583 162.616 119.543  1.00  0.00     0.087 C 
BRANCH   2   3
ATOM      3  C   UNL     1     146.475 163.397 118.989  1.00  0.00     0.163 C 
ATOM      4  O   UNL     1     146.650 164.202 118.037  1.00  0.00    -0.294 OA
BRANCH   3   5
ATOM      5  C   UNL     1     145.095 163.290 119.505  1.00  0.00     0.018 A 
ATOM      6  C   UNL     1     144.161 164.270 119.222  1.00  0.00     0.015 A 
ATOM      7  C   UNL     1     144.709 162.222 120.274  1.00  0.00     0.015 A 
ATOM      8  C   UNL     1     142.878 164.164 119.706  1.00  0.00     0.040 A 
ATOM      9  C   UNL     1     143.433 162.109 120.759  1.00  0.00     0.040 A 
ATOM     10  C   UNL     1     142.518 163.085 120.472  1.00  0.00     0.123 A 
ATOM     11  F   UNL     1     141.252 162.939 120.977  1.00  0.00    -0.207 F 
ENDBRANCH   3   5
ENDBRANCH   2   3
ENDBRANCH   1   2
BRANCH   1  12
ATOM     12  C   UNL     1     149.307 163.682 118.191  1.00  0.00     0.262 C 
BRANCH  12  13
ATOM     13  N   UNL     1     150.702 164.089 118.089  1.00  0.00    -0.335 N 
ATOM     14  C   UNL     1     151.386 163.434 117.016  1.00  0.00     0.265 C 
ATOM     15  C   UNL     1     150.792 165.507 117.955  1.00  0.00     0.265 C 
ATOM     16  C   UNL     1     150.744 163.731 115.688  1.00  0.00     0.102 C 
ATOM     17  C   UNL     1     151.127 166.034 116.625  1.00  0.00     0.102 C 
ATOM     18  C   UNL     1     150.785 165.209 115.440  1.00  0.00     0.100 C 
ATOM     19  H   UNL     1     151.150 163.739 118.988  1.00  0.00     0.348 HD
BRANCH  18  20
ATOM     20  O   UNL     1     151.811 165.414 114.485  1.00  0.00    -0.385 OA
ATOM     21  H   UNL     1     152.664 165.431 114.986  1.00  0.00     0.211 HD
ENDBRANCH  18  20
BRANCH  18  22
ATOM     22  C   UNL     1     149.537 165.682 114.742  1.00  0.00    -0.016 A 
ATOM     23  C   UNL     1     148.282 165.245 115.111  1.00  0.00     0.008 A 
ATOM     24  C   UNL     1     149.568 166.578 113.696  1.00  0.00     0.008 A 
ATOM     25  C   UNL     1     147.118 165.652 114.501  1.00  0.00     0.021 A 
ATOM     26  C   UNL     1     148.413 167.000 113.067  1.00  0.00     0.021 A 
ATOM     27  C   UNL     1     147.190 166.538 113.471  1.00  0.00     0.041 A 
ATOM     28  Cl  UNL     1     145.724 167.069 112.682  1.00  0.00    -0.084 Cl
ENDBRANCH  18  22
ENDBRANCH  12  13
ENDBRANCH   1  12
TORSDOF 7
ENDMDL
MODEL 8
REMARK VINA RESULT:      -6.1      4.426      9.065
REMARK SMILES O=C(CCC[NH+]1CCC(O)(c2ccc(Cl)cc2)CC1)c1ccc(F)cc1
REMARK SMILES IDX 4 1 3 2 2 3 1 4 20 5 21 6 26 7 22 8 25 9 23 10 24 11 5 12
REMARK SMILES IDX 6 13 7 14 19 15 8 16 18 17 9 18 10 20 11 22 12 23 17 24
REMARK SMILES IDX 13 25 16 26 14 27 15 28
REMARK H PARENT 6 19 10 21
ROOT
ATOM      1  C   UNL     1     146.703 163.241 119.012  1.00  0.00     0.070 C 
ENDROOT
BRANCH   1   2
ATOM      2  C   UNL     1     147.782 162.545 119.812  1.00  0.00     0.087 C 
BRANCH   2   3
ATOM      3  C   UNL     1     149.023 162.308 119.073  1.00  0.00     0.163 C 
ATOM      4  O   UNL     1     149.498 161.150 118.940  1.00  0.00    -0.294 OA
BRANCH   3   5
ATOM      5  C   UNL     1     149.789 163.402 118.440  1.00  0.00     0.018 A 
ATOM      6  C   UNL     1     150.145 164.523 119.169  1.00  0.00     0.015 A 
ATOM      7  C   UNL     1     150.165 163.333 117.123  1.00  0.00     0.015 A 
ATOM      8  C   UNL     1     150.857 165.537 118.574  1.00  0.00     0.040 A 
ATOM      9  C   UNL     1     150.875 164.339 116.524  1.00  0.00     0.040 A 
ATOM     10  C   UNL     1     151.220 165.442 117.255  1.00  0.00     0.123 A 
ATOM     11  F   UNL     1     151.929 166.430 116.620  1.00  0.00    -0.207 F 
ENDBRANCH   3   5
ENDBRANCH   2   3
ENDBRANCH   1   2
BRANCH   1  12
ATOM     12  C   UNL     1     145.385 162.947 119.641  1.00  0.00     0.262 C 
BRANCH  12  13
ATOM     13  N   UNL     1     144.610 164.150 119.915  1.00  0.00    -0.335 N 
ATOM     14  C   UNL     1     144.009 164.694 118.735  1.00  0.00     0.265 C 
ATOM     15  C   UNL     1     143.622 163.881 120.909  1.00  0.00     0.265 C 
ATOM     16  C   UNL     1     143.076 163.709 118.085  1.00  0.00     0.102 C 
ATOM     17  C   UNL     1     142.229 163.767 120.454  1.00  0.00     0.102 C 
ATOM     18  C   UNL     1     141.984 163.355 119.049  1.00  0.00     0.100 C 
ATOM     19  H   UNL     1     145.328 164.862 120.242  1.00  0.00     0.348 HD
BRANCH  18  20
ATOM     20  O   UNL     1     140.834 164.054 118.608  1.00  0.00    -0.385 OA
ATOM     21  H   UNL     1     140.323 164.299 119.420  1.00  0.00     0.211 HD
ENDBRANCH  18  20
BRANCH  18  22
ATOM     22  C   UNL     1     141.597 161.904 118.929  1.00  0.00    -0.016 A 
ATOM     23  C   UNL     1     140.459 161.503 118.261  1.00  0.00     0.008 A 
ATOM     24  C   UNL     1     142.350 160.889 119.477  1.00  0.00     0.008 A 
ATOM     25  C   UNL     1     140.070 160.189 118.129  1.00  0.00     0.021 A 
ATOM     26  C   UNL     1     141.979 159.564 119.358  1.00  0.00     0.021 A 
ATOM     27  C   UNL     1     140.840 159.216 118.684  1.00  0.00     0.041 A 
ATOM     28  Cl  UNL     1     140.365 157.542 118.527  1.00  0.00    -0.084 Cl
ENDBRANCH  18  22
ENDBRANCH  12  13
ENDBRANCH   1  12
TORSDOF 7
ENDMDL
MODEL 9
REMARK VINA RESULT:      -6.0      4.316      9.126
REMARK SMILES O=C(CCC[NH+]1CCC(O)(c2ccc(Cl)cc2)CC1)c1ccc(F)cc1
REMARK SMILES IDX 4 1 3 2 2 3 1 4 20 5 21 6 26 7 22 8 25 9 23 10 24 11 5 12
REMARK SMILES IDX 6 13 7 14 19 15 8 16 18 17 9 18 10 20 11 22 12 23 17 24
REMARK SMILES IDX 13 25 16 26 14 27 15 28
REMARK H PARENT 6 19 10 21
ROOT
ATOM      1  C   UNL     1     147.003 162.690 119.647  1.00  0.00     0.070 C 
ENDROOT
BRANCH   1   2
ATOM      2  C   UNL     1     147.634 163.857 118.921  1.00  0.00     0.087 C 
BRANCH   2   3
ATOM      3  C   UNL     1     149.094 163.790 118.826  1.00  0.00     0.163 C 
ATOM      4  O   UNL     1     149.800 163.438 119.806  1.00  0.00    -0.294 OA
BRANCH   3   5
ATOM      5  C   UNL     1     149.823 164.127 117.585  1.00  0.00     0.018 A 
ATOM      6  C   UNL     1     150.911 163.373 117.183  1.00  0.00     0.015 A 
ATOM      7  C   UNL     1     149.441 165.190 116.807  1.00  0.00     0.015 A 
ATOM      8  C   UNL     1     151.585 163.692 116.029  1.00  0.00     0.040 A 
ATOM      9  C   UNL     1     150.107 165.514 115.656  1.00  0.00     0.040 A 
ATOM     10  C   UNL     1     151.181 164.760 115.268  1.00  0.00     0.123 A 
ATOM     11  F   UNL     1     151.824 165.117 114.111  1.00  0.00    -0.207 F 
ENDBRANCH   3   5
ENDBRANCH   2   3
ENDBRANCH   1   2
BRANCH   1  12
ATOM     12  C   UNL     1     145.539 162.698 119.368  1.00  0.00     0.262 C 
BRANCH  12  13
ATOM     13  N   UNL     1     144.886 163.919 119.820  1.00  0.00    -0.335 N 
ATOM     14  C   UNL     1     144.201 164.597 118.762  1.00  0.00     0.265 C 
ATOM     15  C   UNL     1     143.995 163.630 120.897  1.00  0.00     0.265 C 
ATOM     16  C   UNL     1     143.134 163.731 118.149  1.00  0.00     0.102 C 
ATOM     17  C   UNL     1     142.556 163.641 120.597  1.00  0.00     0.102 C 
ATOM     18  C   UNL     1     142.131 163.365 119.202  1.00  0.00     0.100 C 
ATOM     19  H   UNL     1     145.684 164.556 120.116  1.00  0.00     0.348 HD
BRANCH  18  20
ATOM     20  O   UNL     1     140.993 164.170 118.950  1.00  0.00    -0.385 OA
ATOM     21  H   UNL     1     140.384 163.630 118.386  1.00  0.00     0.211 HD
ENDBRANCH  18  20
BRANCH  18  22
ATOM     22  C   UNL     1     141.631 161.957 119.016  1.00  0.00    -0.016 A 
ATOM     23  C   UNL     1     142.259 160.874 119.596  1.00  0.00     0.008 A 
ATOM     24  C   UNL     1     140.520 161.660 118.257  1.00  0.00     0.008 A 
ATOM     25  C   UNL     1     141.834 159.573 119.451  1.00  0.00     0.021 A 
ATOM     26  C   UNL     1     140.076 160.362 118.097  1.00  0.00     0.021 A 
ATOM     27  C   UNL     1     140.733 159.320 118.694  1.00  0.00     0.041 A 
ATOM     28  Cl  UNL     1     140.177 157.676 118.498  1.00  0.00    -0.084 Cl
ENDBRANCH  18  22
ENDBRANCH  12  13
ENDBRANCH   1  12
TORSDOF 7
ENDMDL
