MODEL 1
REMARK VINA RESULT:      -5.3      0.000      0.000
REMARK SMILES CC/C(=C(\c1ccccc1)c1ccc(OCC[NH+](C)C)cc1)c1ccccc1
REMARK SMILES IDX 15 1 14 2 11 3 12 4 22 5 13 6 21 7 4 8 3 9 2 10 1 11 23 12
REMARK SMILES IDX 24 13 28 14 25 15 27 16 26 17 5 18 6 19 10 20 7 21 9 22 8 23
REMARK SMILES IDX 16 24 17 25 18 26 19 27 20 28
REMARK H PARENT 18 29
ROOT
ATOM      1  O   UNL     1     141.544 154.109 119.498  1.00  0.00    -0.488 OA
ENDROOT
BRANCH   1   2
ATOM      2  C   UNL     1     141.308 155.467 119.612  1.00  0.00     0.119 A 
ATOM      3  C   UNL     1     140.809 158.277 119.729  1.00  0.00    -0.017 A 
ATOM      4  C   UNL     1     140.956 157.516 120.872  1.00  0.00     0.012 A 
ATOM      5  C   UNL     1     140.921 157.591 118.524  1.00  0.00     0.012 A 
ATOM      6  C   UNL     1     141.198 156.153 120.798  1.00  0.00     0.047 A 
ATOM      7  C   UNL     1     141.159 156.244 118.454  1.00  0.00     0.047 A 
BRANCH   3   8
ATOM      8  C   UNL     1     140.580 159.710 119.775  1.00  0.00    -0.007 C 
ATOM      9  C   UNL     1     139.394 160.241 119.622  1.00  0.00    -0.033 C 
BRANCH   9  10
ATOM     10  C   UNL     1     139.110 161.702 119.613  1.00  0.00     0.033 C 
ATOM     11  C   UNL     1     139.123 162.191 118.194  1.00  0.00     0.009 C 
ENDBRANCH   9  10
BRANCH   9  12
ATOM     12  C   UNL     1     138.193 159.395 119.507  1.00  0.00    -0.022 A 
ATOM     13  C   UNL     1     137.497 158.968 120.609  1.00  0.00     0.008 A 
ATOM     14  C   UNL     1     137.780 159.028 118.263  1.00  0.00     0.008 A 
ATOM     15  C   UNL     1     136.390 158.173 120.449  1.00  0.00     0.001 A 
ATOM     16  C   UNL     1     136.659 158.219 118.053  1.00  0.00     0.001 A 
ATOM     17  C   UNL     1     135.981 157.806 119.177  1.00  0.00     0.000 A 
ENDBRANCH   9  12
BRANCH   8  18
ATOM     18  C   UNL     1     141.727 160.575 119.963  1.00  0.00    -0.018 A 
ATOM     19  C   UNL     1     142.526 160.979 118.912  1.00  0.00     0.009 A 
ATOM     20  C   UNL     1     142.076 160.981 121.248  1.00  0.00     0.009 A 
ATOM     21  C   UNL     1     143.625 161.758 119.165  1.00  0.00     0.001 A 
ATOM     22  C   UNL     1     143.174 161.764 121.519  1.00  0.00     0.001 A 
ATOM     23  C   UNL     1     143.963 162.158 120.443  1.00  0.00     0.000 A 
ENDBRANCH   8  18
ENDBRANCH   3   8
ENDBRANCH   1   2
BRANCH   1  24
ATOM     24  C   UNL     1     141.036 153.075 120.265  1.00  0.00     0.290 C 
BRANCH  24  25
ATOM     25  C   UNL     1     139.627 152.652 119.941  1.00  0.00     0.303 C 
BRANCH  25  26
ATOM     26  N   UNL     1     139.436 152.363 118.552  1.00  0.00    -0.337 N 
ATOM     27  C   UNL     1     138.521 153.272 117.896  1.00  0.00     0.332 C 
ATOM     28  C   UNL     1     138.944 151.021 118.319  1.00  0.00     0.332 C 
ATOM     29  H   UNL     1     140.351 152.426 118.014  1.00  0.00     0.347 HD
ENDBRANCH  25  26
ENDBRANCH  24  25
ENDBRANCH   1  24
TORSDOF 8
ENDMDL
MODEL 2
REMARK VINA RESULT:      -5.2      7.255     11.559
REMARK SMILES CC/C(=C(\c1ccccc1)c1ccc(OCC[NH+](C)C)cc1)c1ccccc1
REMARK SMILES IDX 15 1 14 2 11 3 12 4 22 5 13 6 21 7 4 8 3 9 2 10 1 11 23 12
REMARK SMILES IDX 24 13 28 14 25 15 27 16 26 17 5 18 6 19 10 20 7 21 9 22 8 23
REMARK SMILES IDX 16 24 17 25 18 26 19 27 20 28
REMARK H PARENT 18 29
ROOT
ATOM      1  O   UNL     1     149.112 165.602 114.913  1.00  0.00    -0.488 OA
ENDROOT
BRANCH   1   2
ATOM      2  C   UNL     1     147.928 165.565 115.628  1.00  0.00     0.119 A 
ATOM      3  C   UNL     1     145.547 165.496 117.204  1.00  0.00    -0.017 A 
ATOM      4  C   UNL     1     145.506 165.542 115.824  1.00  0.00     0.012 A 
ATOM      5  C   UNL     1     146.817 165.483 117.773  1.00  0.00     0.012 A 
ATOM      6  C   UNL     1     146.670 165.575 115.073  1.00  0.00     0.047 A 
ATOM      7  C   UNL     1     147.966 165.517 117.029  1.00  0.00     0.047 A 
BRANCH   3   8
ATOM      8  C   UNL     1     144.344 165.435 118.015  1.00  0.00    -0.007 C 
ATOM      9  C   UNL     1     143.671 166.502 118.360  1.00  0.00    -0.033 C 
BRANCH   9  10
ATOM     10  C   UNL     1     142.461 166.502 119.228  1.00  0.00     0.033 C 
ATOM     11  C   UNL     1     141.248 166.713 118.370  1.00  0.00     0.009 C 
ENDBRANCH   9  10
BRANCH   9  12
ATOM     12  C   UNL     1     144.036 167.832 117.840  1.00  0.00    -0.022 A 
ATOM     13  C   UNL     1     143.674 168.246 116.584  1.00  0.00     0.008 A 
ATOM     14  C   UNL     1     144.765 168.659 118.640  1.00  0.00     0.008 A 
ATOM     15  C   UNL     1     144.048 169.490 116.143  1.00  0.00     0.001 A 
ATOM     16  C   UNL     1     145.167 169.933 118.232  1.00  0.00     0.001 A 
ATOM     17  C   UNL     1     144.789 170.321 116.967  1.00  0.00     0.000 A 
ENDBRANCH   9  12
BRANCH   8  18
ATOM     18  C   UNL     1     143.908 164.136 118.484  1.00  0.00    -0.018 A 
ATOM     19  C   UNL     1     142.876 163.443 117.882  1.00  0.00     0.009 A 
ATOM     20  C   UNL     1     144.508 163.576 119.608  1.00  0.00     0.009 A 
ATOM     21  C   UNL     1     142.480 162.239 118.406  1.00  0.00     0.001 A 
ATOM     22  C   UNL     1     144.124 162.370 120.146  1.00  0.00     0.001 A 
ATOM     23  C   UNL     1     143.082 161.690 119.521  1.00  0.00     0.000 A 
ENDBRANCH   8  18
ENDBRANCH   3   8
ENDBRANCH   1   2
BRANCH   1  24
ATOM     24  C   UNL     1     150.330 166.142 115.283  1.00  0.00     0.290 C 
BRANCH  24  25
ATOM     25  C   UNL     1     151.500 165.193 115.266  1.00  0.00     0.303 C 
BRANCH  25  26
ATOM     26  N   UNL     1     151.756 164.601 116.545  1.00  0.00    -0.337 N 
ATOM     27  C   UNL     1     151.063 163.347 116.748  1.00  0.00     0.332 C 
ATOM     28  C   UNL     1     151.399 165.469 117.648  1.00  0.00     0.332 C 
ATOM     29  H   UNL     1     152.790 164.390 116.673  1.00  0.00     0.347 HD
ENDBRANCH  25  26
ENDBRANCH  24  25
ENDBRANCH   1  24
TORSDOF 8
ENDMDL
MODEL 3
REMARK VINA RESULT:      -5.2      3.921      7.695
REMARK SMILES CC/C(=C(\c1ccccc1)c1ccc(OCC[NH+](C)C)cc1)c1ccccc1
REMARK SMILES IDX 15 1 14 2 11 3 12 4 22 5 13 6 21 7 4 8 3 9 2 10 1 11 23 12
REMARK SMILES IDX 24 13 28 14 25 15 27 16 26 17 5 18 6 19 10 20 7 21 9 22 8 23
REMARK SMILES IDX 16 24 17 25 18 26 19 27 20 28
REMARK H PARENT 18 29
ROOT
ATOM      1  O   UNL     1     145.291 162.984 120.061  1.00  0.00    -0.488 OA
ENDROOT
BRANCH   1   2
ATOM      2  C   UNL     1     144.171 162.175 120.003  1.00  0.00     0.119 A 
ATOM      3  C   UNL     1     141.847 160.514 120.000  1.00  0.00    -0.017 A 
ATOM      4  C   UNL     1     142.469 160.897 118.828  1.00  0.00     0.012 A 
ATOM      5  C   UNL     1     142.423 160.985 121.175  1.00  0.00     0.012 A 
ATOM      6  C   UNL     1     143.596 161.704 118.846  1.00  0.00     0.047 A 
ATOM      7  C   UNL     1     143.536 161.782 121.191  1.00  0.00     0.047 A 
BRANCH   3   8
ATOM      8  C   UNL     1     140.680 159.649 120.013  1.00  0.00    -0.007 C 
ATOM      9  C   UNL     1     139.462 160.109 120.138  1.00  0.00    -0.033 C 
BRANCH   9  10
ATOM     10  C   UNL     1     138.236 159.267 120.205  1.00  0.00     0.033 C 
ATOM     11  C   UNL     1     137.859 159.071 121.644  1.00  0.00     0.009 C 
ENDBRANCH   9  10
BRANCH   9  12
ATOM     12  C   UNL     1     139.196 161.559 120.158  1.00  0.00    -0.022 A 
ATOM     13  C   UNL     1     139.179 162.279 121.325  1.00  0.00     0.008 A 
ATOM     14  C   UNL     1     138.951 162.184 118.973  1.00  0.00     0.008 A 
ATOM     15  C   UNL     1     138.916 163.625 121.289  1.00  0.00     0.001 A 
ATOM     16  C   UNL     1     138.679 163.553 118.891  1.00  0.00     0.001 A 
ATOM     17  C   UNL     1     138.669 164.250 120.078  1.00  0.00     0.000 A 
ENDBRANCH   9  12
BRANCH   8  18
ATOM     18  C   UNL     1     140.894 158.220 119.918  1.00  0.00    -0.018 A 
ATOM     19  C   UNL     1     141.199 157.445 121.020  1.00  0.00     0.009 A 
ATOM     20  C   UNL     1     140.841 157.600 118.673  1.00  0.00     0.009 A 
ATOM     21  C   UNL     1     141.437 156.105 120.854  1.00  0.00     0.001 A 
ATOM     22  C   UNL     1     141.075 156.257 118.489  1.00  0.00     0.001 A 
ATOM     23  C   UNL     1     141.380 155.498 119.615  1.00  0.00     0.000 A 
ENDBRANCH   8  18
ENDBRANCH   3   8
ENDBRANCH   1   2
BRANCH   1  24
ATOM     24  C   UNL     1     146.606 162.663 119.775  1.00  0.00     0.290 C 
BRANCH  24  25
ATOM     25  C   UNL     1     147.290 163.546 118.764  1.00  0.00     0.303 C 
BRANCH  25  26
ATOM     26  N   UNL     1     148.608 163.934 119.164  1.00  0.00    -0.337 N 
ATOM     27  C   UNL     1     149.263 164.809 118.216  1.00  0.00     0.332 C 
ATOM     28  C   UNL     1     149.488 162.803 119.378  1.00  0.00     0.332 C 
ATOM     29  H   UNL     1     148.594 164.460 120.088  1.00  0.00     0.347 HD
ENDBRANCH  25  26
ENDBRANCH  24  25
ENDBRANCH   1  24
TORSDOF 8
ENDMDL
MODEL 4
REMARK VINA RESULT:      -5.1      7.165     11.437
REMARK SMILES CC/C(=C(\c1ccccc1)c1ccc(OCC[NH+](C)C)cc1)c1ccccc1
REMARK SMILES IDX 15 1 14 2 11 3 12 4 22 5 13 6 21 7 4 8 3 9 2 10 1 11 23 12
REMARK SMILES IDX 24 13 28 14 25 15 27 16 26 17 5 18 6 19 10 20 7 21 9 22 8 23
REMARK SMILES IDX 16 24 17 25 18 26 19 27 20 28
REMARK H PARENT 18 29
ROOT
ATOM      1  O   UNL     1     148.786 165.639 114.774  1.00  0.00    -0.488 OA
ENDROOT
BRANCH   1   2
ATOM      2  C   UNL     1     147.647 165.589 115.556  1.00  0.00     0.119 A 
ATOM      3  C   UNL     1     145.362 165.474 117.266  1.00  0.00    -0.017 A 
ATOM      4  C   UNL     1     145.244 165.698 115.908  1.00  0.00     0.012 A 
ATOM      5  C   UNL     1     146.658 165.308 117.744  1.00  0.00     0.012 A 
ATOM      6  C   UNL     1     146.363 165.750 115.091  1.00  0.00     0.047 A 
ATOM      7  C   UNL     1     147.762 165.361 116.935  1.00  0.00     0.047 A 
BRANCH   3   8
ATOM      8  C   UNL     1     144.207 165.390 118.142  1.00  0.00    -0.007 C 
ATOM      9  C   UNL     1     143.526 166.442 118.517  1.00  0.00    -0.033 C 
BRANCH   9  10
ATOM     10  C   UNL     1     142.366 166.418 119.449  1.00  0.00     0.033 C 
ATOM     11  C   UNL     1     141.100 166.343 118.647  1.00  0.00     0.009 C 
ENDBRANCH   9  10
BRANCH   9  12
ATOM     12  C   UNL     1     143.829 167.777 117.971  1.00  0.00    -0.022 A 
ATOM     13  C   UNL     1     144.788 168.587 118.521  1.00  0.00     0.008 A 
ATOM     14  C   UNL     1     143.119 168.207 116.891  1.00  0.00     0.008 A 
ATOM     15  C   UNL     1     145.025 169.826 117.980  1.00  0.00     0.001 A 
ATOM     16  C   UNL     1     143.327 169.461 116.309  1.00  0.00     0.001 A 
ATOM     17  C   UNL     1     144.295 170.252 116.883  1.00  0.00     0.000 A 
ENDBRANCH   9  12
BRANCH   8  18
ATOM     18  C   UNL     1     143.829 164.083 118.641  1.00  0.00    -0.018 A 
ATOM     19  C   UNL     1     144.394 163.535 119.775  1.00  0.00     0.009 A 
ATOM     20  C   UNL     1     142.900 163.323 117.936  1.00  0.00     0.009 A 
ATOM     21  C   UNL     1     144.026 162.274 120.167  1.00  0.00     0.001 A 
ATOM     22  C   UNL     1     142.519 162.057 118.315  1.00  0.00     0.001 A 
ATOM     23  C   UNL     1     143.102 161.527 119.462  1.00  0.00     0.000 A 
ENDBRANCH   8  18
ENDBRANCH   3   8
ENDBRANCH   1   2
BRANCH   1  24
ATOM     24  C   UNL     1     150.065 165.206 115.078  1.00  0.00     0.290 C 
BRANCH  24  25
ATOM     25  C   UNL     1     150.796 166.009 116.123  1.00  0.00     0.303 C 
BRANCH  25  26
ATOM     26  N   UNL     1     151.569 165.195 117.011  1.00  0.00    -0.337 N 
ATOM     27  C   UNL     1     151.387 163.776 116.798  1.00  0.00     0.332 C 
ATOM     28  C   UNL     1     151.283 165.457 118.407  1.00  0.00     0.332 C 
ATOM     29  H   UNL     1     152.611 165.379 116.897  1.00  0.00     0.347 HD
ENDBRANCH  25  26
ENDBRANCH  24  25
ENDBRANCH   1  24
TORSDOF 8
ENDMDL
MODEL 5
REMARK VINA RESULT:      -5.0      1.633      2.130
REMARK SMILES CC/C(=C(\c1ccccc1)c1ccc(OCC[NH+](C)C)cc1)c1ccccc1
REMARK SMILES IDX 15 1 14 2 11 3 12 4 22 5 13 6 21 7 4 8 3 9 2 10 1 11 23 12
REMARK SMILES IDX 24 13 28 14 25 15 27 16 26 17 5 18 6 19 10 20 7 21 9 22 8 23
REMARK SMILES IDX 16 24 17 25 18 26 19 27 20 28
REMARK H PARENT 18 29
ROOT
ATOM      1  O   UNL     1     140.550 154.698 120.121  1.00  0.00    -0.488 OA
ENDROOT
BRANCH   1   2
ATOM      2  C   UNL     1     140.522 156.076 120.006  1.00  0.00     0.119 A 
ATOM      3  C   UNL     1     140.497 158.911 119.656  1.00  0.00    -0.017 A 
ATOM      4  C   UNL     1     140.091 158.320 120.837  1.00  0.00     0.012 A 
ATOM      5  C   UNL     1     140.917 158.042 118.655  1.00  0.00     0.012 A 
ATOM      6  C   UNL     1     140.109 156.942 120.991  1.00  0.00     0.047 A 
ATOM      7  C   UNL     1     140.934 156.681 118.809  1.00  0.00     0.047 A 
BRANCH   3   8
ATOM      8  C   UNL     1     140.511 160.352 119.474  1.00  0.00    -0.007 C 
ATOM      9  C   UNL     1     139.480 161.017 119.022  1.00  0.00    -0.033 C 
BRANCH   9  10
ATOM     10  C   UNL     1     139.457 162.485 118.772  1.00  0.00     0.033 C 
ATOM     11  C   UNL     1     139.659 162.731 117.305  1.00  0.00     0.009 C 
ENDBRANCH   9  10
BRANCH   9  12
ATOM     12  C   UNL     1     138.191 160.346 118.778  1.00  0.00    -0.022 A 
ATOM     13  C   UNL     1     137.920 159.699 117.600  1.00  0.00     0.008 A 
ATOM     14  C   UNL     1     137.248 160.388 119.759  1.00  0.00     0.008 A 
ATOM     15  C   UNL     1     136.699 159.098 117.419  1.00  0.00     0.001 A 
ATOM     16  C   UNL     1     135.992 159.790 119.617  1.00  0.00     0.001 A 
ATOM     17  C   UNL     1     135.748 159.148 118.425  1.00  0.00     0.000 A 
ENDBRANCH   9  12
BRANCH   8  18
ATOM     18  C   UNL     1     141.738 161.060 119.776  1.00  0.00    -0.018 A 
ATOM     19  C   UNL     1     142.717 161.279 118.827  1.00  0.00     0.009 A 
ATOM     20  C   UNL     1     141.973 161.500 121.076  1.00  0.00     0.009 A 
ATOM     21  C   UNL     1     143.876 161.914 119.191  1.00  0.00     0.001 A 
ATOM     22  C   UNL     1     143.129 162.141 121.458  1.00  0.00     0.001 A 
ATOM     23  C   UNL     1     144.100 162.349 120.483  1.00  0.00     0.000 A 
ENDBRANCH   8  18
ENDBRANCH   3   8
ENDBRANCH   1   2
BRANCH   1  24
ATOM     24  C   UNL     1     140.972 153.928 121.190  1.00  0.00     0.290 C 
BRANCH  24  25
ATOM     25  C   UNL     1     142.388 153.419 121.113  1.00  0.00     0.303 C 
BRANCH  25  26
ATOM     26  N   UNL     1     142.738 152.941 119.810  1.00  0.00    -0.337 N 
ATOM     27  C   UNL     1     142.750 151.498 119.711  1.00  0.00     0.332 C 
ATOM     28  C   UNL     1     144.037 153.409 119.369  1.00  0.00     0.332 C 
ATOM     29  H   UNL     1     142.050 153.282 119.074  1.00  0.00     0.347 HD
ENDBRANCH  25  26
ENDBRANCH  24  25
ENDBRANCH   1  24
TORSDOF 8
ENDMDL
MODEL 6
REMARK VINA RESULT:      -4.9      7.693     11.951
REMARK SMILES CC/C(=C(\c1ccccc1)c1ccc(OCC[NH+](C)C)cc1)c1ccccc1
REMARK SMILES IDX 15 1 14 2 11 3 12 4 22 5 13 6 21 7 4 8 3 9 2 10 1 11 23 12
REMARK SMILES IDX 24 13 28 14 25 15 27 16 26 17 5 18 6 19 10 20 7 21 9 22 8 23
REMARK SMILES IDX 16 24 17 25 18 26 19 27 20 28
REMARK H PARENT 18 29
ROOT
ATOM      1  O   UNL     1     149.014 165.565 114.653  1.00  0.00    -0.488 OA
ENDROOT
BRANCH   1   2
ATOM      2  C   UNL     1     147.857 165.554 115.411  1.00  0.00     0.119 A 
ATOM      3  C   UNL     1     145.534 165.535 117.072  1.00  0.00    -0.017 A 
ATOM      4  C   UNL     1     145.443 165.599 115.695  1.00  0.00     0.012 A 
ATOM      5  C   UNL     1     146.822 165.479 117.594  1.00  0.00     0.012 A 
ATOM      6  C   UNL     1     146.580 165.608 114.903  1.00  0.00     0.047 A 
ATOM      7  C   UNL     1     147.944 165.488 116.809  1.00  0.00     0.047 A 
BRANCH   3   8
ATOM      8  C   UNL     1     144.360 165.500 117.926  1.00  0.00    -0.007 C 
ATOM      9  C   UNL     1     143.719 166.580 118.292  1.00  0.00    -0.033 C 
BRANCH   9  10
ATOM     10  C   UNL     1     142.542 166.606 119.202  1.00  0.00     0.033 C 
ATOM     11  C   UNL     1     141.303 166.833 118.387  1.00  0.00     0.009 C 
ENDBRANCH   9  10
BRANCH   9  12
ATOM     12  C   UNL     1     144.091 167.901 117.754  1.00  0.00    -0.022 A 
ATOM     13  C   UNL     1     143.762 168.287 116.480  1.00  0.00     0.008 A 
ATOM     14  C   UNL     1     144.792 168.749 118.557  1.00  0.00     0.008 A 
ATOM     15  C   UNL     1     144.141 169.524 116.025  1.00  0.00     0.001 A 
ATOM     16  C   UNL     1     145.198 170.018 118.134  1.00  0.00     0.001 A 
ATOM     17  C   UNL     1     144.853 170.377 116.851  1.00  0.00     0.000 A 
ENDBRANCH   9  12
BRANCH   8  18
ATOM     18  C   UNL     1     143.915 164.210 118.415  1.00  0.00    -0.018 A 
ATOM     19  C   UNL     1     142.856 163.531 117.846  1.00  0.00     0.009 A 
ATOM     20  C   UNL     1     144.537 163.647 119.525  1.00  0.00     0.009 A 
ATOM     21  C   UNL     1     142.456 162.337 118.387  1.00  0.00     0.001 A 
ATOM     22  C   UNL     1     144.149 162.450 120.080  1.00  0.00     0.001 A 
ATOM     23  C   UNL     1     143.080 161.784 119.489  1.00  0.00     0.000 A 
ENDBRANCH   8  18
ENDBRANCH   3   8
ENDBRANCH   1   2
BRANCH   1  24
ATOM     24  C   UNL     1     149.887 166.613 114.422  1.00  0.00     0.290 C 
BRANCH  24  25
ATOM     25  C   UNL     1     151.120 166.641 115.287  1.00  0.00     0.303 C 
BRANCH  25  26
ATOM     26  N   UNL     1     152.247 166.007 114.674  1.00  0.00    -0.337 N 
ATOM     27  C   UNL     1     152.250 166.110 113.231  1.00  0.00     0.332 C 
ATOM     28  C   UNL     1     152.348 164.599 115.001  1.00  0.00     0.332 C 
ATOM     29  H   UNL     1     153.161 166.440 115.002  1.00  0.00     0.347 HD
ENDBRANCH  25  26
ENDBRANCH  24  25
ENDBRANCH   1  24
TORSDOF 8
ENDMDL
MODEL 7
REMARK VINA RESULT:      -4.8      2.039      2.800
REMARK SMILES CC/C(=C(\c1ccccc1)c1ccc(OCC[NH+](C)C)cc1)c1ccccc1
REMARK SMILES IDX 15 1 14 2 11 3 12 4 22 5 13 6 21 7 4 8 3 9 2 10 1 11 23 12
REMARK SMILES IDX 24 13 28 14 25 15 27 16 26 17 5 18 6 19 10 20 7 21 9 22 8 23
REMARK SMILES IDX 16 24 17 25 18 26 19 27 20 28
REMARK H PARENT 18 29
ROOT
ATOM      1  O   UNL     1     140.570 155.678 120.234  1.00  0.00    -0.488 OA
ENDROOT
BRANCH   1   2
ATOM      2  C   UNL     1     140.676 157.035 119.984  1.00  0.00     0.119 A 
ATOM      3  C   UNL     1     140.894 159.854 119.585  1.00  0.00    -0.017 A 
ATOM      4  C   UNL     1     140.925 158.965 118.529  1.00  0.00     0.012 A 
ATOM      5  C   UNL     1     140.748 159.291 120.849  1.00  0.00     0.012 A 
ATOM      6  C   UNL     1     140.818 157.600 118.739  1.00  0.00     0.047 A 
ATOM      7  C   UNL     1     140.643 157.941 121.054  1.00  0.00     0.047 A 
BRANCH   3   8
ATOM      8  C   UNL     1     140.979 161.291 119.394  1.00  0.00    -0.007 C 
ATOM      9  C   UNL     1     140.017 161.990 118.847  1.00  0.00    -0.033 C 
BRANCH   9  10
ATOM     10  C   UNL     1     140.071 163.454 118.584  1.00  0.00     0.033 C 
ATOM     11  C   UNL     1     139.155 164.154 119.545  1.00  0.00     0.009 C 
ENDBRANCH   9  10
BRANCH   9  12
ATOM     12  C   UNL     1     138.729 161.364 118.498  1.00  0.00    -0.022 A 
ATOM     13  C   UNL     1     137.829 160.970 119.454  1.00  0.00     0.008 A 
ATOM     14  C   UNL     1     138.445 161.169 117.180  1.00  0.00     0.008 A 
ATOM     15  C   UNL     1     136.648 160.383 119.076  1.00  0.00     0.001 A 
ATOM     16  C   UNL     1     137.255 160.575 116.750  1.00  0.00     0.001 A 
ATOM     17  C   UNL     1     136.371 160.191 117.732  1.00  0.00     0.000 A 
ENDBRANCH   9  12
BRANCH   8  18
ATOM     18  C   UNL     1     142.201 161.957 119.795  1.00  0.00    -0.018 A 
ATOM     19  C   UNL     1     142.266 162.771 120.909  1.00  0.00     0.009 A 
ATOM     20  C   UNL     1     143.345 161.819 119.015  1.00  0.00     0.009 A 
ATOM     21  C   UNL     1     143.442 163.411 121.206  1.00  0.00     0.001 A 
ATOM     22  C   UNL     1     144.533 162.451 119.299  1.00  0.00     0.001 A 
ATOM     23  C   UNL     1     144.573 163.266 120.427  1.00  0.00     0.000 A 
ENDBRANCH   8  18
ENDBRANCH   3   8
ENDBRANCH   1   2
BRANCH   1  24
ATOM     24  C   UNL     1     141.435 154.662 119.869  1.00  0.00     0.290 C 
BRANCH  24  25
ATOM     25  C   UNL     1     142.625 154.460 120.771  1.00  0.00     0.303 C 
BRANCH  25  26
ATOM     26  N   UNL     1     143.387 153.295 120.437  1.00  0.00    -0.337 N 
ATOM     27  C   UNL     1     144.259 153.486 119.298  1.00  0.00     0.332 C 
ATOM     28  C   UNL     1     142.558 152.142 120.151  1.00  0.00     0.332 C 
ATOM     29  H   UNL     1     144.016 153.000 121.243  1.00  0.00     0.347 HD
ENDBRANCH  25  26
ENDBRANCH  24  25
ENDBRANCH   1  24
TORSDOF 8
ENDMDL
MODEL 8
REMARK VINA RESULT:      -4.8      7.360     11.686
REMARK SMILES CC/C(=C(\c1ccccc1)c1ccc(OCC[NH+](C)C)cc1)c1ccccc1
REMARK SMILES IDX 15 1 14 2 11 3 12 4 22 5 13 6 21 7 4 8 3 9 2 10 1 11 23 12
REMARK SMILES IDX 24 13 28 14 25 15 27 16 26 17 5 18 6 19 10 20 7 21 9 22 8 23
REMARK SMILES IDX 16 24 17 25 18 26 19 27 20 28
REMARK H PARENT 18 29
ROOT
ATOM      1  O   UNL     1     148.959 165.432 115.242  1.00  0.00    -0.488 OA
ENDROOT
BRANCH   1   2
ATOM      2  C   UNL     1     147.656 165.502 115.699  1.00  0.00     0.119 A 
ATOM      3  C   UNL     1     145.005 165.637 116.754  1.00  0.00    -0.017 A 
ATOM      4  C   UNL     1     145.260 165.792 115.405  1.00  0.00     0.012 A 
ATOM      5  C   UNL     1     146.115 165.410 117.560  1.00  0.00     0.012 A 
ATOM      6  C   UNL     1     146.552 165.724 114.909  1.00  0.00     0.047 A 
ATOM      7  C   UNL     1     147.391 165.344 117.068  1.00  0.00     0.047 A 
BRANCH   3   8
ATOM      8  C   UNL     1     143.659 165.679 117.299  1.00  0.00    -0.007 C 
ATOM      9  C   UNL     1     143.091 166.789 117.694  1.00  0.00    -0.033 C 
BRANCH   9  10
ATOM     10  C   UNL     1     141.736 166.883 118.303  1.00  0.00     0.033 C 
ATOM     11  C   UNL     1     141.868 166.804 119.796  1.00  0.00     0.009 C 
ENDBRANCH   9  10
BRANCH   9  12
ATOM     12  C   UNL     1     143.753 168.092 117.497  1.00  0.00    -0.022 A 
ATOM     13  C   UNL     1     143.630 168.800 116.329  1.00  0.00     0.008 A 
ATOM     14  C   UNL     1     144.513 168.588 118.512  1.00  0.00     0.008 A 
ATOM     15  C   UNL     1     144.274 170.004 116.193  1.00  0.00     0.001 A 
ATOM     16  C   UNL     1     145.187 169.809 118.416  1.00  0.00     0.001 A 
ATOM     17  C   UNL     1     145.044 170.497 117.233  1.00  0.00     0.000 A 
ENDBRANCH   9  12
BRANCH   8  18
ATOM     18  C   UNL     1     142.945 164.426 117.438  1.00  0.00    -0.018 A 
ATOM     19  C   UNL     1     141.991 164.016 116.528  1.00  0.00     0.009 A 
ATOM     20  C   UNL     1     143.184 163.621 118.548  1.00  0.00     0.009 A 
ATOM     21  C   UNL     1     141.317 162.842 116.744  1.00  0.00     0.001 A 
ATOM     22  C   UNL     1     142.518 162.440 118.780  1.00  0.00     0.001 A 
ATOM     23  C   UNL     1     141.562 162.048 117.848  1.00  0.00     0.000 A 
ENDBRANCH   8  18
ENDBRANCH   3   8
ENDBRANCH   1   2
BRANCH   1  24
ATOM     24  C   UNL     1     149.913 166.433 115.189  1.00  0.00     0.290 C 
BRANCH  24  25
ATOM     25  C   UNL     1     151.101 166.253 116.098  1.00  0.00     0.303 C 
BRANCH  25  26
ATOM     26  N   UNL     1     151.001 165.088 116.923  1.00  0.00    -0.337 N 
ATOM     27  C   UNL     1     151.268 165.348 118.321  1.00  0.00     0.332 C 
ATOM     28  C   UNL     1     151.896 164.027 116.509  1.00  0.00     0.332 C 
ATOM     29  H   UNL     1     150.025 164.667 116.882  1.00  0.00     0.347 HD
ENDBRANCH  25  26
ENDBRANCH  24  25
ENDBRANCH   1  24
TORSDOF 8
ENDMDL
MODEL 9
REMARK VINA RESULT:      -4.6      9.682     13.040
REMARK SMILES CC/C(=C(\c1ccccc1)c1ccc(OCC[NH+](C)C)cc1)c1ccccc1
REMARK SMILES IDX 15 1 14 2 11 3 12 4 22 5 13 6 21 7 4 8 3 9 2 10 1 11 23 12
REMARK SMILES IDX 24 13 28 14 25 15 27 16 26 17 5 18 6 19 10 20 7 21 9 22 8 23
REMARK SMILES IDX 16 24 17 25 18 26 19 27 20 28
REMARK H PARENT 18 29
ROOT
ATOM      1  O   UNL     1     143.898 166.627 108.446  1.00  0.00    -0.488 OA
ENDROOT
BRANCH   1   2
ATOM      2  C   UNL     1     142.884 166.121 109.238  1.00  0.00     0.119 A 
ATOM      3  C   UNL     1     140.776 164.987 110.797  1.00  0.00    -0.017 A 
ATOM      4  C   UNL     1     141.476 166.100 111.220  1.00  0.00     0.012 A 
ATOM      5  C   UNL     1     141.160 164.458 109.569  1.00  0.00     0.012 A 
ATOM      6  C   UNL     1     142.497 166.638 110.452  1.00  0.00     0.047 A 
ATOM      7  C   UNL     1     142.169 164.991 108.812  1.00  0.00     0.047 A 
BRANCH   3   8
ATOM      8  C   UNL     1     139.687 164.416 111.569  1.00  0.00    -0.007 C 
ATOM      9  C   UNL     1     138.437 164.755 111.386  1.00  0.00    -0.033 C 
BRANCH   9  10
ATOM     10  C   UNL     1     137.288 164.238 112.179  1.00  0.00     0.033 C 
ATOM     11  C   UNL     1     136.880 165.279 113.179  1.00  0.00     0.009 C 
ENDBRANCH   9  10
BRANCH   9  12
ATOM     12  C   UNL     1     138.050 165.662 110.291  1.00  0.00    -0.022 A 
ATOM     13  C   UNL     1     137.589 165.194 109.087  1.00  0.00     0.008 A 
ATOM     14  C   UNL     1     138.170 167.004 110.493  1.00  0.00     0.008 A 
ATOM     15  C   UNL     1     137.251 166.081 108.096  1.00  0.00     0.001 A 
ATOM     16  C   UNL     1     137.838 167.942 109.512  1.00  0.00     0.001 A 
ATOM     17  C   UNL     1     137.377 167.443 108.315  1.00  0.00     0.000 A 
ENDBRANCH   9  12
BRANCH   8  18
ATOM     18  C   UNL     1     140.019 163.460 112.606  1.00  0.00    -0.018 A 
ATOM     19  C   UNL     1     140.234 163.839 113.916  1.00  0.00     0.009 A 
ATOM     20  C   UNL     1     140.177 162.118 112.276  1.00  0.00     0.009 A 
ATOM     21  C   UNL     1     140.593 162.890 114.839  1.00  0.00     0.001 A 
ATOM     22  C   UNL     1     140.535 161.153 113.189  1.00  0.00     0.001 A 
ATOM     23  C   UNL     1     140.746 161.559 114.503  1.00  0.00     0.000 A 
ENDBRANCH   8  18
ENDBRANCH   3   8
ENDBRANCH   1   2
BRANCH   1  24
ATOM     24  C   UNL     1     144.736 167.700 108.694  1.00  0.00     0.290 C 
BRANCH  24  25
ATOM     25  C   UNL     1     146.211 167.394 108.685  1.00  0.00     0.303 C 
BRANCH  25  26
ATOM     26  N   UNL     1     146.686 166.899 109.942  1.00  0.00    -0.337 N 
ATOM     27  C   UNL     1     146.051 167.522 111.083  1.00  0.00     0.332 C 
ATOM     28  C   UNL     1     148.116 167.062 110.107  1.00  0.00     0.332 C 
ATOM     29  H   UNL     1     146.507 165.855 110.039  1.00  0.00     0.347 HD
ENDBRANCH  25  26
ENDBRANCH  24  25
ENDBRANCH   1  24
TORSDOF 8
ENDMDL
