MODEL 1
REMARK VINA RESULT:      -5.4      0.000      0.000
REMARK SMILES CC/C(=C(\c1ccccc1)c1ccc(OCC[NH+](C)C)cc1)c1ccccc1
REMARK SMILES IDX 15 1 14 2 11 3 12 4 22 5 13 6 21 7 4 8 3 9 2 10 1 11 23 12
REMARK SMILES IDX 24 13 28 14 25 15 27 16 26 17 5 18 6 19 10 20 7 21 9 22 8 23
REMARK SMILES IDX 16 24 17 25 18 26 19 27 20 28
REMARK H PARENT 18 29
ROOT
ATOM      1  O   UNL     1       7.189   2.103   9.256  1.00  0.00    -0.488 OA
ENDROOT
BRANCH   1   2
ATOM      2  C   UNL     1       8.563   2.021   9.387  1.00  0.00     0.119 A 
ATOM      3  C   UNL     1      11.393   1.909   9.761  1.00  0.00    -0.017 A 
ATOM      4  C   UNL     1      10.774   1.284   8.696  1.00  0.00     0.012 A 
ATOM      5  C   UNL     1      10.554   2.594  10.634  1.00  0.00     0.012 A 
ATOM      6  C   UNL     1       9.400   1.347   8.529  1.00  0.00     0.047 A 
ATOM      7  C   UNL     1       9.196   2.655  10.467  1.00  0.00     0.047 A 
BRANCH   3   8
ATOM      8  C   UNL     1      12.833   1.880   9.948  1.00  0.00    -0.007 C 
ATOM      9  C   UNL     1      13.402   1.272  10.957  1.00  0.00    -0.033 C 
BRANCH   9  10
ATOM     10  C   UNL     1      14.866   1.251  11.223  1.00  0.00     0.033 C 
ATOM     11  C   UNL     1      15.411  -0.094  10.840  1.00  0.00     0.009 C 
ENDBRANCH   9  10
BRANCH   9  12
ATOM     12  C   UNL     1      12.608   0.472  11.907  1.00  0.00    -0.022 A 
ATOM     13  C   UNL     1      11.999  -0.700  11.540  1.00  0.00     0.008 A 
ATOM     14  C   UNL     1      12.477   0.932  13.183  1.00  0.00     0.008 A 
ATOM     15  C   UNL     1      11.262  -1.401  12.461  1.00  0.00     0.001 A 
ATOM     16  C   UNL     1      11.736   0.250  14.152  1.00  0.00     0.001 A 
ATOM     17  C   UNL     1      11.137  -0.923  13.755  1.00  0.00     0.000 A 
ENDBRANCH   9  12
BRANCH   8  18
ATOM     18  C   UNL     1      13.655   2.591   8.991  1.00  0.00    -0.018 A 
ATOM     19  C   UNL     1      14.275   1.954   7.934  1.00  0.00     0.009 A 
ATOM     20  C   UNL     1      13.876   3.955   9.157  1.00  0.00     0.009 A 
ATOM     21  C   UNL     1      15.079   2.678   7.092  1.00  0.00     0.001 A 
ATOM     22  C   UNL     1      14.679   4.697   8.321  1.00  0.00     0.001 A 
ATOM     23  C   UNL     1      15.292   4.032   7.263  1.00  0.00     0.000 A 
ENDBRANCH   8  18
ENDBRANCH   3   8
ENDBRANCH   1   2
BRANCH   1  24
ATOM     24  C   UNL     1       6.425   2.038   8.104  1.00  0.00     0.290 C 
BRANCH  24  25
ATOM     25  C   UNL     1       5.399   0.935   8.060  1.00  0.00     0.303 C 
BRANCH  25  26
ATOM     26  N   UNL     1       4.054   1.423   8.090  1.00  0.00    -0.337 N 
ATOM     27  C   UNL     1       3.449   1.362   9.403  1.00  0.00     0.332 C 
ATOM     28  C   UNL     1       3.177   0.711   7.184  1.00  0.00     0.332 C 
ATOM     29  H   UNL     1       4.004   2.442   7.790  1.00  0.00     0.347 HD
ENDBRANCH  25  26
ENDBRANCH  24  25
ENDBRANCH   1  24
TORSDOF 8
ENDMDL
MODEL 2
REMARK VINA RESULT:      -5.3      0.904      4.498
REMARK SMILES CC/C(=C(\c1ccccc1)c1ccc(OCC[NH+](C)C)cc1)c1ccccc1
REMARK SMILES IDX 15 1 14 2 11 3 12 4 22 5 13 6 21 7 4 8 3 9 2 10 1 11 23 12
REMARK SMILES IDX 24 13 28 14 25 15 27 16 26 17 5 18 6 19 10 20 7 21 9 22 8 23
REMARK SMILES IDX 16 24 17 25 18 26 19 27 20 28
REMARK H PARENT 18 29
ROOT
ATOM      1  O   UNL     1       7.442   1.856   8.210  1.00  0.00    -0.488 OA
ENDROOT
BRANCH   1   2
ATOM      2  C   UNL     1       8.656   1.726   8.859  1.00  0.00     0.119 A 
ATOM      3  C   UNL     1      11.185   1.364  10.135  1.00  0.00    -0.017 A 
ATOM      4  C   UNL     1      10.375   2.446  10.420  1.00  0.00     0.012 A 
ATOM      5  C   UNL     1      10.692   0.467   9.193  1.00  0.00     0.012 A 
ATOM      6  C   UNL     1       9.150   2.607   9.792  1.00  0.00     0.047 A 
ATOM      7  C   UNL     1       9.482   0.629   8.574  1.00  0.00     0.047 A 
BRANCH   3   8
ATOM      8  C   UNL     1      12.462   1.156  10.795  1.00  0.00    -0.007 C 
ATOM      9  C   UNL     1      13.588   1.619  10.317  1.00  0.00    -0.033 C 
BRANCH   9  10
ATOM     10  C   UNL     1      14.928   1.395  10.925  1.00  0.00     0.033 C 
ATOM     11  C   UNL     1      15.629   0.303  10.170  1.00  0.00     0.009 C 
ENDBRANCH   9  10
BRANCH   9  12
ATOM     12  C   UNL     1      13.607   2.488   9.127  1.00  0.00    -0.022 A 
ATOM     13  C   UNL     1      13.423   1.992   7.861  1.00  0.00     0.008 A 
ATOM     14  C   UNL     1      13.826   3.820   9.306  1.00  0.00     0.008 A 
ATOM     15  C   UNL     1      13.460   2.843   6.786  1.00  0.00     0.001 A 
ATOM     16  C   UNL     1      13.872   4.722   8.238  1.00  0.00     0.001 A 
ATOM     17  C   UNL     1      13.684   4.196   6.981  1.00  0.00     0.000 A 
ENDBRANCH   9  12
BRANCH   8  18
ATOM     18  C   UNL     1      12.476   0.370  12.012  1.00  0.00    -0.018 A 
ATOM     19  C   UNL     1      12.565  -1.008  11.999  1.00  0.00     0.009 A 
ATOM     20  C   UNL     1      12.348   1.009  13.242  1.00  0.00     0.009 A 
ATOM     21  C   UNL     1      12.525  -1.695  13.185  1.00  0.00     0.001 A 
ATOM     22  C   UNL     1      12.308   0.335  14.440  1.00  0.00     0.001 A 
ATOM     23  C   UNL     1      12.399  -1.053  14.401  1.00  0.00     0.000 A 
ENDBRANCH   8  18
ENDBRANCH   3   8
ENDBRANCH   1   2
BRANCH   1  24
ATOM     24  C   UNL     1       6.258   1.178   8.443  1.00  0.00     0.290 C 
BRANCH  24  25
ATOM     25  C   UNL     1       5.135   2.000   9.018  1.00  0.00     0.303 C 
BRANCH  25  26
ATOM     26  N   UNL     1       3.849   1.606   8.530  1.00  0.00    -0.337 N 
ATOM     27  C   UNL     1       3.096   0.807   9.473  1.00  0.00     0.332 C 
ATOM     28  C   UNL     1       3.921   0.853   7.295  1.00  0.00     0.332 C 
ATOM     29  H   UNL     1       3.242   2.452   8.311  1.00  0.00     0.347 HD
ENDBRANCH  25  26
ENDBRANCH  24  25
ENDBRANCH   1  24
TORSDOF 8
ENDMDL
MODEL 3
REMARK VINA RESULT:      -5.3      1.079      4.619
REMARK SMILES CC/C(=C(\c1ccccc1)c1ccc(OCC[NH+](C)C)cc1)c1ccccc1
REMARK SMILES IDX 15 1 14 2 11 3 12 4 22 5 13 6 21 7 4 8 3 9 2 10 1 11 23 12
REMARK SMILES IDX 24 13 28 14 25 15 27 16 26 17 5 18 6 19 10 20 7 21 9 22 8 23
REMARK SMILES IDX 16 24 17 25 18 26 19 27 20 28
REMARK H PARENT 18 29
ROOT
ATOM      1  O   UNL     1       7.381   1.838   8.375  1.00  0.00    -0.488 OA
ENDROOT
BRANCH   1   2
ATOM      2  C   UNL     1       8.609   1.719   9.000  1.00  0.00     0.119 A 
ATOM      3  C   UNL     1      11.166   1.378  10.227  1.00  0.00    -0.017 A 
ATOM      4  C   UNL     1      10.368   2.472  10.499  1.00  0.00     0.012 A 
ATOM      5  C   UNL     1      10.646   0.457   9.322  1.00  0.00     0.012 A 
ATOM      6  C   UNL     1       9.129   2.623   9.896  1.00  0.00     0.047 A 
ATOM      7  C   UNL     1       9.422   0.609   8.726  1.00  0.00     0.047 A 
BRANCH   3   8
ATOM      8  C   UNL     1      12.456   1.181  10.862  1.00  0.00    -0.007 C 
ATOM      9  C   UNL     1      13.571   1.641  10.356  1.00  0.00    -0.033 C 
BRANCH   9  10
ATOM     10  C   UNL     1      14.924   1.428  10.939  1.00  0.00     0.033 C 
ATOM     11  C   UNL     1      15.583   0.281  10.230  1.00  0.00     0.009 C 
ENDBRANCH   9  10
BRANCH   9  12
ATOM     12  C   UNL     1      13.563   2.497   9.156  1.00  0.00    -0.022 A 
ATOM     13  C   UNL     1      13.686   3.860   9.234  1.00  0.00     0.008 A 
ATOM     14  C   UNL     1      13.418   1.900   7.940  1.00  0.00     0.008 A 
ATOM     15  C   UNL     1      13.663   4.613   8.087  1.00  0.00     0.001 A 
ATOM     16  C   UNL     1      13.388   2.628   6.747  1.00  0.00     0.001 A 
ATOM     17  C   UNL     1      13.514   3.994   6.857  1.00  0.00     0.000 A 
ENDBRANCH   9  12
BRANCH   8  18
ATOM     18  C   UNL     1      12.498   0.408  12.087  1.00  0.00    -0.018 A 
ATOM     19  C   UNL     1      12.526  -0.972  12.088  1.00  0.00     0.009 A 
ATOM     20  C   UNL     1      12.460   1.066  13.313  1.00  0.00     0.009 A 
ATOM     21  C   UNL     1      12.516  -1.643  13.284  1.00  0.00     0.001 A 
ATOM     22  C   UNL     1      12.451   0.409  14.521  1.00  0.00     0.001 A 
ATOM     23  C   UNL     1      12.480  -0.983  14.496  1.00  0.00     0.000 A 
ENDBRANCH   8  18
ENDBRANCH   3   8
ENDBRANCH   1   2
BRANCH   1  24
ATOM     24  C   UNL     1       6.162   2.197   8.922  1.00  0.00     0.290 C 
BRANCH  24  25
ATOM     25  C   UNL     1       5.635   1.288  10.001  1.00  0.00     0.303 C 
BRANCH  25  26
ATOM     26  N   UNL     1       4.208   1.318  10.109  1.00  0.00    -0.337 N 
ATOM     27  C   UNL     1       3.678   0.319  11.011  1.00  0.00     0.332 C 
ATOM     28  C   UNL     1       3.543   1.138   8.834  1.00  0.00     0.332 C 
ATOM     29  H   UNL     1       3.868   2.257  10.476  1.00  0.00     0.347 HD
ENDBRANCH  25  26
ENDBRANCH  24  25
ENDBRANCH   1  24
TORSDOF 8
ENDMDL
MODEL 4
REMARK VINA RESULT:      -5.2      1.158      4.558
REMARK SMILES CC/C(=C(\c1ccccc1)c1ccc(OCC[NH+](C)C)cc1)c1ccccc1
REMARK SMILES IDX 15 1 14 2 11 3 12 4 22 5 13 6 21 7 4 8 3 9 2 10 1 11 23 12
REMARK SMILES IDX 24 13 28 14 25 15 27 16 26 17 5 18 6 19 10 20 7 21 9 22 8 23
REMARK SMILES IDX 16 24 17 25 18 26 19 27 20 28
REMARK H PARENT 18 29
ROOT
ATOM      1  O   UNL     1       7.356   2.084   8.490  1.00  0.00    -0.488 OA
ENDROOT
BRANCH   1   2
ATOM      2  C   UNL     1       8.592   1.818   9.050  1.00  0.00     0.119 A 
ATOM      3  C   UNL     1      11.136   1.368  10.270  1.00  0.00    -0.017 A 
ATOM      4  C   UNL     1      10.566   0.446   9.415  1.00  0.00     0.012 A 
ATOM      5  C   UNL     1      10.397   2.525  10.496  1.00  0.00     0.012 A 
ATOM      6  C   UNL     1       9.330   0.679   8.831  1.00  0.00     0.047 A 
ATOM      7  C   UNL     1       9.176   2.753   9.918  1.00  0.00     0.047 A 
BRANCH   3   8
ATOM      8  C   UNL     1      12.439   1.162  10.877  1.00  0.00    -0.007 C 
ATOM      9  C   UNL     1      13.548   1.588  10.330  1.00  0.00    -0.033 C 
BRANCH   9  10
ATOM     10  C   UNL     1      14.912   1.364  10.883  1.00  0.00     0.033 C 
ATOM     11  C   UNL     1      15.576   0.264  10.108  1.00  0.00     0.009 C 
ENDBRANCH   9  10
BRANCH   9  12
ATOM     12  C   UNL     1      13.525   2.412   9.108  1.00  0.00    -0.022 A 
ATOM     13  C   UNL     1      13.323   1.867   7.867  1.00  0.00     0.008 A 
ATOM     14  C   UNL     1      13.721   3.754   9.233  1.00  0.00     0.008 A 
ATOM     15  C   UNL     1      13.320   2.677   6.760  1.00  0.00     0.001 A 
ATOM     16  C   UNL     1      13.727   4.616   8.133  1.00  0.00     0.001 A 
ATOM     17  C   UNL     1      13.521   4.040   6.900  1.00  0.00     0.000 A 
ENDBRANCH   9  12
BRANCH   8  18
ATOM     18  C   UNL     1      12.498   0.421  12.120  1.00  0.00    -0.018 A 
ATOM     19  C   UNL     1      12.449   1.042  13.352  1.00  0.00     0.009 A 
ATOM     20  C   UNL     1      12.658  -0.961  12.087  1.00  0.00     0.009 A 
ATOM     21  C   UNL     1      12.559   0.286  14.491  1.00  0.00     0.001 A 
ATOM     22  C   UNL     1      12.767  -1.735  13.218  1.00  0.00     0.001 A 
ATOM     23  C   UNL     1      12.715  -1.086  14.448  1.00  0.00     0.000 A 
ENDBRANCH   8  18
ENDBRANCH   3   8
ENDBRANCH   1   2
BRANCH   1  24
ATOM     24  C   UNL     1       6.132   2.219   9.120  1.00  0.00     0.290 C 
BRANCH  24  25
ATOM     25  C   UNL     1       5.507   0.942   9.619  1.00  0.00     0.303 C 
BRANCH  25  26
ATOM     26  N   UNL     1       4.333   1.165  10.405  1.00  0.00    -0.337 N 
ATOM     27  C   UNL     1       4.309   0.402  11.635  1.00  0.00     0.332 C 
ATOM     28  C   UNL     1       3.110   0.860   9.691  1.00  0.00     0.332 C 
ATOM     29  H   UNL     1       4.246   2.186  10.691  1.00  0.00     0.347 HD
ENDBRANCH  25  26
ENDBRANCH  24  25
ENDBRANCH   1  24
TORSDOF 8
ENDMDL
MODEL 5
REMARK VINA RESULT:      -5.2      3.695      7.504
REMARK SMILES CC/C(=C(\c1ccccc1)c1ccc(OCC[NH+](C)C)cc1)c1ccccc1
REMARK SMILES IDX 15 1 14 2 11 3 12 4 22 5 13 6 21 7 4 8 3 9 2 10 1 11 23 12
REMARK SMILES IDX 24 13 28 14 25 15 27 16 26 17 5 18 6 19 10 20 7 21 9 22 8 23
REMARK SMILES IDX 16 24 17 25 18 26 19 27 20 28
REMARK H PARENT 18 29
ROOT
ATOM      1  O   UNL     1      15.019   4.431   6.610  1.00  0.00    -0.488 OA
ENDROOT
BRANCH   1   2
ATOM      2  C   UNL     1      14.111   3.763   7.411  1.00  0.00     0.119 A 
ATOM      3  C   UNL     1      12.207   2.315   8.972  1.00  0.00    -0.017 A 
ATOM      4  C   UNL     1      13.017   3.285   9.529  1.00  0.00     0.012 A 
ATOM      5  C   UNL     1      12.376   2.091   7.610  1.00  0.00     0.012 A 
ATOM      6  C   UNL     1      13.937   3.979   8.757  1.00  0.00     0.047 A 
ATOM      7  C   UNL     1      13.285   2.777   6.850  1.00  0.00     0.047 A 
BRANCH   3   8
ATOM      8  C   UNL     1      11.219   1.589   9.750  1.00  0.00    -0.007 C 
ATOM      9  C   UNL     1      11.534   0.602  10.549  1.00  0.00    -0.033 C 
BRANCH   9  10
ATOM     10  C   UNL     1      10.559  -0.206  11.331  1.00  0.00     0.033 C 
ATOM     11  C   UNL     1      10.334  -1.512  10.627  1.00  0.00     0.009 C 
ENDBRANCH   9  10
BRANCH   9  12
ATOM     12  C   UNL     1      12.943   0.244  10.793  1.00  0.00    -0.022 A 
ATOM     13  C   UNL     1      13.672  -0.492   9.895  1.00  0.00     0.008 A 
ATOM     14  C   UNL     1      13.519   0.655  11.957  1.00  0.00     0.008 A 
ATOM     15  C   UNL     1      14.978  -0.807  10.176  1.00  0.00     0.001 A 
ATOM     16  C   UNL     1      14.845   0.356  12.283  1.00  0.00     0.001 A 
ATOM     17  C   UNL     1      15.552  -0.383  11.362  1.00  0.00     0.000 A 
ENDBRANCH   9  12
BRANCH   8  18
ATOM     18  C   UNL     1       9.827   1.962   9.596  1.00  0.00    -0.018 A 
ATOM     19  C   UNL     1       9.012   1.390   8.640  1.00  0.00     0.009 A 
ATOM     20  C   UNL     1       9.294   2.964  10.400  1.00  0.00     0.009 A 
ATOM     21  C   UNL     1       7.717   1.822   8.515  1.00  0.00     0.001 A 
ATOM     22  C   UNL     1       7.997   3.410  10.290  1.00  0.00     0.001 A 
ATOM     23  C   UNL     1       7.195   2.817   9.319  1.00  0.00     0.000 A 
ENDBRANCH   8  18
ENDBRANCH   3   8
ENDBRANCH   1   2
BRANCH   1  24
ATOM     24  C   UNL     1      16.324   4.087   6.308  1.00  0.00     0.290 C 
BRANCH  24  25
ATOM     25  C   UNL     1      16.984   4.904   5.229  1.00  0.00     0.303 C 
BRANCH  25  26
ATOM     26  N   UNL     1      18.031   4.198   4.555  1.00  0.00    -0.337 N 
ATOM     27  C   UNL     1      19.285   4.201   5.277  1.00  0.00     0.332 C 
ATOM     28  C   UNL     1      18.301   4.720   3.231  1.00  0.00     0.332 C 
ATOM     29  H   UNL     1      17.777   3.175   4.410  1.00  0.00     0.347 HD
ENDBRANCH  25  26
ENDBRANCH  24  25
ENDBRANCH   1  24
TORSDOF 8
ENDMDL
MODEL 6
REMARK VINA RESULT:      -5.2      1.076      4.646
REMARK SMILES CC/C(=C(\c1ccccc1)c1ccc(OCC[NH+](C)C)cc1)c1ccccc1
REMARK SMILES IDX 15 1 14 2 11 3 12 4 22 5 13 6 21 7 4 8 3 9 2 10 1 11 23 12
REMARK SMILES IDX 24 13 28 14 25 15 27 16 26 17 5 18 6 19 10 20 7 21 9 22 8 23
REMARK SMILES IDX 16 24 17 25 18 26 19 27 20 28
REMARK H PARENT 18 29
ROOT
ATOM      1  O   UNL     1       7.327   1.836   8.322  1.00  0.00    -0.488 OA
ENDROOT
BRANCH   1   2
ATOM      2  C   UNL     1       8.555   1.723   8.949  1.00  0.00     0.119 A 
ATOM      3  C   UNL     1      11.110   1.391  10.181  1.00  0.00    -0.017 A 
ATOM      4  C   UNL     1      10.322   2.498  10.427  1.00  0.00     0.012 A 
ATOM      5  C   UNL     1      10.581   0.453   9.300  1.00  0.00     0.012 A 
ATOM      6  C   UNL     1       9.084   2.645   9.821  1.00  0.00     0.047 A 
ATOM      7  C   UNL     1       9.358   0.600   8.702  1.00  0.00     0.047 A 
BRANCH   3   8
ATOM      8  C   UNL     1      12.400   1.199  10.820  1.00  0.00    -0.007 C 
ATOM      9  C   UNL     1      13.517   1.639  10.301  1.00  0.00    -0.033 C 
BRANCH   9  10
ATOM     10  C   UNL     1      14.869   1.429  10.888  1.00  0.00     0.033 C 
ATOM     11  C   UNL     1      15.578   0.361  10.107  1.00  0.00     0.009 C 
ENDBRANCH   9  10
BRANCH   9  12
ATOM     12  C   UNL     1      13.515   2.465   9.081  1.00  0.00    -0.022 A 
ATOM     13  C   UNL     1      13.274   1.931   7.841  1.00  0.00     0.008 A 
ATOM     14  C   UNL     1      13.772   3.797   9.205  1.00  0.00     0.008 A 
ATOM     15  C   UNL     1      13.292   2.743   6.735  1.00  0.00     0.001 A 
ATOM     16  C   UNL     1      13.801   4.660   8.105  1.00  0.00     0.001 A 
ATOM     17  C   UNL     1      13.555   4.095   6.875  1.00  0.00     0.000 A 
ENDBRANCH   9  12
BRANCH   8  18
ATOM     18  C   UNL     1      12.437   0.456  12.063  1.00  0.00    -0.018 A 
ATOM     19  C   UNL     1      12.417   1.078  13.295  1.00  0.00     0.009 A 
ATOM     20  C   UNL     1      12.544  -0.931  12.029  1.00  0.00     0.009 A 
ATOM     21  C   UNL     1      12.503   0.318  14.433  1.00  0.00     0.001 A 
ATOM     22  C   UNL     1      12.630  -1.709  13.160  1.00  0.00     0.001 A 
ATOM     23  C   UNL     1      12.608  -1.058  14.390  1.00  0.00     0.000 A 
ENDBRANCH   8  18
ENDBRANCH   3   8
ENDBRANCH   1   2
BRANCH   1  24
ATOM     24  C   UNL     1       6.102   2.170   8.872  1.00  0.00     0.290 C 
BRANCH  24  25
ATOM     25  C   UNL     1       4.900   1.520   8.238  1.00  0.00     0.303 C 
BRANCH  25  26
ATOM     26  N   UNL     1       5.221   0.310   7.545  1.00  0.00    -0.337 N 
ATOM     27  C   UNL     1       4.704   0.265   6.194  1.00  0.00     0.332 C 
ATOM     28  C   UNL     1       4.738  -0.874   8.225  1.00  0.00     0.332 C 
ATOM     29  H   UNL     1       6.274   0.179   7.461  1.00  0.00     0.347 HD
ENDBRANCH  25  26
ENDBRANCH  24  25
ENDBRANCH   1  24
TORSDOF 8
ENDMDL
MODEL 7
REMARK VINA RESULT:      -5.2      1.588      4.949
REMARK SMILES CC/C(=C(\c1ccccc1)c1ccc(OCC[NH+](C)C)cc1)c1ccccc1
REMARK SMILES IDX 15 1 14 2 11 3 12 4 22 5 13 6 21 7 4 8 3 9 2 10 1 11 23 12
REMARK SMILES IDX 24 13 28 14 25 15 27 16 26 17 5 18 6 19 10 20 7 21 9 22 8 23
REMARK SMILES IDX 16 24 17 25 18 26 19 27 20 28
REMARK H PARENT 18 29
ROOT
ATOM      1  O   UNL     1       7.288   1.879   8.653  1.00  0.00    -0.488 OA
ENDROOT
BRANCH   1   2
ATOM      2  C   UNL     1       8.539   1.750   9.227  1.00  0.00     0.119 A 
ATOM      3  C   UNL     1      11.141   1.386  10.348  1.00  0.00    -0.017 A 
ATOM      4  C   UNL     1      10.375   2.499  10.634  1.00  0.00     0.012 A 
ATOM      5  C   UNL     1      10.566   0.458   9.486  1.00  0.00     0.012 A 
ATOM      6  C   UNL     1       9.114   2.662  10.082  1.00  0.00     0.047 A 
ATOM      7  C   UNL     1       9.320   0.621   8.941  1.00  0.00     0.047 A 
BRANCH   3   8
ATOM      8  C   UNL     1      12.454   1.178  10.931  1.00  0.00    -0.007 C 
ATOM      9  C   UNL     1      13.553   1.617  10.373  1.00  0.00    -0.033 C 
BRANCH   9  10
ATOM     10  C   UNL     1      14.926   1.391  10.901  1.00  0.00     0.033 C 
ATOM     11  C   UNL     1      15.584   0.309  10.096  1.00  0.00     0.009 C 
ENDBRANCH   9  10
BRANCH   9  12
ATOM     12  C   UNL     1      13.506   2.459   9.164  1.00  0.00    -0.022 A 
ATOM     13  C   UNL     1      13.682   3.818   9.218  1.00  0.00     0.008 A 
ATOM     14  C   UNL     1      13.269   1.855   7.967  1.00  0.00     0.008 A 
ATOM     15  C   UNL     1      13.619   4.558   8.064  1.00  0.00     0.001 A 
ATOM     16  C   UNL     1      13.196   2.570   6.768  1.00  0.00     0.001 A 
ATOM     17  C   UNL     1      13.377   3.931   6.853  1.00  0.00     0.000 A 
ENDBRANCH   9  12
BRANCH   8  18
ATOM     18  C   UNL     1      12.537   0.418  12.162  1.00  0.00    -0.018 A 
ATOM     19  C   UNL     1      12.467   1.017  13.404  1.00  0.00     0.009 A 
ATOM     20  C   UNL     1      12.742  -0.957  12.106  1.00  0.00     0.009 A 
ATOM     21  C   UNL     1      12.600   0.246  14.530  1.00  0.00     0.001 A 
ATOM     22  C   UNL     1      12.876  -1.746  13.225  1.00  0.00     0.001 A 
ATOM     23  C   UNL     1      12.802  -1.119  14.465  1.00  0.00     0.000 A 
ENDBRANCH   8  18
ENDBRANCH   3   8
ENDBRANCH   1   2
BRANCH   1  24
ATOM     24  C   UNL     1       6.502   0.906   8.062  1.00  0.00     0.290 C 
BRANCH  24  25
ATOM     25  C   UNL     1       6.243   1.080   6.588  1.00  0.00     0.303 C 
BRANCH  25  26
ATOM     26  N   UNL     1       7.446   1.143   5.814  1.00  0.00    -0.337 N 
ATOM     27  C   UNL     1       7.271   1.788   4.530  1.00  0.00     0.332 C 
ATOM     28  C   UNL     1       8.022  -0.161   5.560  1.00  0.00     0.332 C 
ATOM     29  H   UNL     1       8.203   1.694   6.319  1.00  0.00     0.347 HD
ENDBRANCH  25  26
ENDBRANCH  24  25
ENDBRANCH   1  24
TORSDOF 8
ENDMDL
MODEL 8
REMARK VINA RESULT:      -5.2      1.409      4.767
REMARK SMILES CC/C(=C(\c1ccccc1)c1ccc(OCC[NH+](C)C)cc1)c1ccccc1
REMARK SMILES IDX 15 1 14 2 11 3 12 4 22 5 13 6 21 7 4 8 3 9 2 10 1 11 23 12
REMARK SMILES IDX 24 13 28 14 25 15 27 16 26 17 5 18 6 19 10 20 7 21 9 22 8 23
REMARK SMILES IDX 16 24 17 25 18 26 19 27 20 28
REMARK H PARENT 18 29
ROOT
ATOM      1  O   UNL     1       7.246   2.004   8.386  1.00  0.00    -0.488 OA
ENDROOT
BRANCH   1   2
ATOM      2  C   UNL     1       8.478   1.854   8.997  1.00  0.00     0.119 A 
ATOM      3  C   UNL     1      11.039   1.448  10.194  1.00  0.00    -0.017 A 
ATOM      4  C   UNL     1      10.270   2.559  10.481  1.00  0.00     0.012 A 
ATOM      5  C   UNL     1      10.488   0.544   9.291  1.00  0.00     0.012 A 
ATOM      6  C   UNL     1       9.029   2.741   9.891  1.00  0.00     0.047 A 
ATOM      7  C   UNL     1       9.262   0.727   8.710  1.00  0.00     0.047 A 
BRANCH   3   8
ATOM      8  C   UNL     1      12.332   1.218  10.815  1.00  0.00    -0.007 C 
ATOM      9  C   UNL     1      13.453   1.636  10.287  1.00  0.00    -0.033 C 
BRANCH   9  10
ATOM     10  C   UNL     1      14.807   1.387  10.855  1.00  0.00     0.033 C 
ATOM     11  C   UNL     1      15.473   0.300  10.063  1.00  0.00     0.009 C 
ENDBRANCH   9  10
BRANCH   9  12
ATOM     12  C   UNL     1      13.456   2.476   9.076  1.00  0.00    -0.022 A 
ATOM     13  C   UNL     1      13.161   1.967   7.838  1.00  0.00     0.008 A 
ATOM     14  C   UNL     1      13.773   3.794   9.208  1.00  0.00     0.008 A 
ATOM     15  C   UNL     1      13.187   2.790   6.740  1.00  0.00     0.001 A 
ATOM     16  C   UNL     1      13.812   4.668   8.117  1.00  0.00     0.001 A 
ATOM     17  C   UNL     1      13.511   4.129   6.887  1.00  0.00     0.000 A 
ENDBRANCH   9  12
BRANCH   8  18
ATOM     18  C   UNL     1      12.366   0.460  12.049  1.00  0.00    -0.018 A 
ATOM     19  C   UNL     1      12.379   1.069  13.288  1.00  0.00     0.009 A 
ATOM     20  C   UNL     1      12.437  -0.929  11.999  1.00  0.00     0.009 A 
ATOM     21  C   UNL     1      12.460   0.294  14.417  1.00  0.00     0.001 A 
ATOM     22  C   UNL     1      12.518  -1.721  13.120  1.00  0.00     0.001 A 
ATOM     23  C   UNL     1      12.528  -1.084  14.357  1.00  0.00     0.000 A 
ENDBRANCH   8  18
ENDBRANCH   3   8
ENDBRANCH   1   2
BRANCH   1  24
ATOM     24  C   UNL     1       6.098   1.252   8.558  1.00  0.00     0.290 C 
BRANCH  24  25
ATOM     25  C   UNL     1       5.361   1.469   9.854  1.00  0.00     0.303 C 
BRANCH  25  26
ATOM     26  N   UNL     1       5.610   0.439  10.817  1.00  0.00    -0.337 N 
ATOM     27  C   UNL     1       4.408  -0.220  11.278  1.00  0.00     0.332 C 
ATOM     28  C   UNL     1       6.308   0.923  11.991  1.00  0.00     0.332 C 
ATOM     29  H   UNL     1       6.230  -0.325  10.414  1.00  0.00     0.347 HD
ENDBRANCH  25  26
ENDBRANCH  24  25
ENDBRANCH   1  24
TORSDOF 8
ENDMDL
MODEL 9
REMARK VINA RESULT:      -5.2      1.207      4.509
REMARK SMILES CC/C(=C(\c1ccccc1)c1ccc(OCC[NH+](C)C)cc1)c1ccccc1
REMARK SMILES IDX 15 1 14 2 11 3 12 4 22 5 13 6 21 7 4 8 3 9 2 10 1 11 23 12
REMARK SMILES IDX 24 13 28 14 25 15 27 16 26 17 5 18 6 19 10 20 7 21 9 22 8 23
REMARK SMILES IDX 16 24 17 25 18 26 19 27 20 28
REMARK H PARENT 18 29
ROOT
ATOM      1  O   UNL     1       7.158   1.827   9.173  1.00  0.00    -0.488 OA
ENDROOT
BRANCH   1   2
ATOM      2  C   UNL     1       8.462   1.701   9.614  1.00  0.00     0.119 A 
ATOM      3  C   UNL     1      11.161   1.334  10.474  1.00  0.00    -0.017 A 
ATOM      4  C   UNL     1      10.486   2.521  10.681  1.00  0.00     0.012 A 
ATOM      5  C   UNL     1      10.445   0.334   9.825  1.00  0.00     0.012 A 
ATOM      6  C   UNL     1       9.177   2.684  10.258  1.00  0.00     0.047 A 
ATOM      7  C   UNL     1       9.151   0.497   9.407  1.00  0.00     0.047 A 
BRANCH   3   8
ATOM      8  C   UNL     1      12.525   1.127  10.928  1.00  0.00    -0.007 C 
ATOM      9  C   UNL     1      13.565   1.551  10.258  1.00  0.00    -0.033 C 
BRANCH   9  10
ATOM     10  C   UNL     1      14.983   1.325  10.653  1.00  0.00     0.033 C 
ATOM     11  C   UNL     1      15.596   0.330   9.711  1.00  0.00     0.009 C 
ENDBRANCH   9  10
BRANCH   9  12
ATOM     12  C   UNL     1      13.403   2.376   9.048  1.00  0.00    -0.022 A 
ATOM     13  C   UNL     1      13.005   1.839   7.850  1.00  0.00     0.008 A 
ATOM     14  C   UNL     1      13.671   3.708   9.136  1.00  0.00     0.008 A 
ATOM     15  C   UNL     1      12.879   2.650   6.750  1.00  0.00     0.001 A 
ATOM     16  C   UNL     1      13.557   4.570   8.040  1.00  0.00     0.001 A 
ATOM     17  C   UNL     1      13.155   4.003   6.853  1.00  0.00     0.000 A 
ENDBRANCH   9  12
BRANCH   8  18
ATOM     18  C   UNL     1      12.725   0.385  12.157  1.00  0.00    -0.018 A 
ATOM     19  C   UNL     1      13.097  -0.944  12.164  1.00  0.00     0.009 A 
ATOM     20  C   UNL     1      12.491   1.008  13.379  1.00  0.00     0.009 A 
ATOM     21  C   UNL     1      13.223  -1.601  13.361  1.00  0.00     0.001 A 
ATOM     22  C   UNL     1      12.614   0.366  14.589  1.00  0.00     0.001 A 
ATOM     23  C   UNL     1      12.990  -0.974  14.569  1.00  0.00     0.000 A 
ENDBRANCH   8  18
ENDBRANCH   3   8
ENDBRANCH   1   2
BRANCH   1  24
ATOM     24  C   UNL     1       6.698   2.136   7.905  1.00  0.00     0.290 C 
BRANCH  24  25
ATOM     25  C   UNL     1       6.136   0.984   7.114  1.00  0.00     0.303 C 
BRANCH  25  26
ATOM     26  N   UNL     1       5.090   0.291   7.803  1.00  0.00    -0.337 N 
ATOM     27  C   UNL     1       4.706  -0.950   7.168  1.00  0.00     0.332 C 
ATOM     28  C   UNL     1       3.888   1.087   7.947  1.00  0.00     0.332 C 
ATOM     29  H   UNL     1       5.382   0.037   8.794  1.00  0.00     0.347 HD
ENDBRANCH  25  26
ENDBRANCH  24  25
ENDBRANCH   1  24
TORSDOF 8
ENDMDL
