MODEL 1
REMARK VINA RESULT:      -7.5      0.000      0.000
REMARK SMILES CC(C)C[C@@H](C=O)NC(=O)[C@H](CC(C)C)NC(=O)[C@H](CC(C)C)NC(=O)OCc1ccccc1
REMARK SMILES IDX 16 1 17 2 18 3 11 5 9 6 8 7 10 8 5 10 4 11 2 12 1 13 3 14
REMARK SMILES IDX 6 15 7 16 12 17 13 18 14 19 15 20 19 21 20 22 21 23 22 24
REMARK SMILES IDX 23 25 24 26 25 27 26 28 27 30 28 31 29 32 30 33 34 34 31 35
REMARK SMILES IDX 33 36 32 37
REMARK H PARENT 16 4 8 9 24 29
ROOT
ATOM      1  N   UNL     1      41.201  41.702   5.164  1.00  0.00    -0.343 N 
ATOM      2  C   UNL     1      41.816  42.568   6.129  1.00  0.00     0.243 C 
ATOM      3  O   UNL     1      42.567  43.490   5.681  1.00  0.00    -0.273 OA
ATOM      4  H   UNL     1      40.576  40.957   5.557  1.00  0.00     0.164 HD
ENDROOT
BRANCH   1   5
ATOM      5  C   UNL     1      41.423  41.867   3.724  1.00  0.00     0.171 C 
BRANCH   5   6
ATOM      6  C   UNL     1      40.095  41.529   3.044  1.00  0.00     0.243 C 
ATOM      7  N   UNL     1      39.047  42.465   2.971  1.00  0.00    -0.345 N 
ATOM      8  O   UNL     1      39.950  40.395   2.548  1.00  0.00    -0.273 OA
ATOM      9  H   UNL     1      39.203  43.404   3.396  1.00  0.00     0.164 HD
BRANCH   7  10
ATOM     10  C   UNL     1      37.768  42.160   2.323  1.00  0.00     0.146 C 
BRANCH  10  11
ATOM     11  C   UNL     1      36.787  41.743   3.392  1.00  0.00     0.035 C 
BRANCH  11  12
ATOM     12  C   UNL     1      36.440  40.279   3.346  1.00  0.00    -0.015 C 
ATOM     13  C   UNL     1      36.521  39.735   1.933  1.00  0.00     0.007 C 
ATOM     14  C   UNL     1      35.022  40.084   3.832  1.00  0.00     0.007 C 
ENDBRANCH  11  12
ENDBRANCH  10  11
BRANCH  10  15
ATOM     15  C   UNL     1      37.354  43.348   1.550  1.00  0.00     0.248 C 
ATOM     16  O   UNL     1      36.236  43.826   1.615  1.00  0.00    -0.301 OA
ENDBRANCH  10  15
ENDBRANCH   7  10
ENDBRANCH   5   6
BRANCH   5  17
ATOM     17  C   UNL     1      42.497  41.012   3.159  1.00  0.00     0.038 C 
BRANCH  17  18
ATOM     18  C   UNL     1      43.771  41.713   2.824  1.00  0.00    -0.015 C 
ATOM     19  C   UNL     1      44.857  41.347   3.854  1.00  0.00     0.007 C 
ATOM     20  C   UNL     1      43.682  43.196   2.779  1.00  0.00     0.007 C 
ENDBRANCH  17  18
ENDBRANCH   5  17
ENDBRANCH   1   5
BRANCH   2  21
ATOM     21  C   UNL     1      41.592  42.401   7.596  1.00  0.00     0.175 C 
BRANCH  21  22
ATOM     22  C   UNL     1      42.595  43.188   8.390  1.00  0.00     0.038 C 
BRANCH  22  23
ATOM     23  C   UNL     1      42.052  44.424   9.015  1.00  0.00    -0.015 C 
ATOM     24  C   UNL     1      43.071  45.503   9.237  1.00  0.00     0.007 C 
ATOM     25  C   UNL     1      40.791  44.947   8.339  1.00  0.00     0.007 C 
ENDBRANCH  22  23
ENDBRANCH  21  22
BRANCH  21  26
ATOM     26  N   UNL     1      41.578  41.009   7.879  1.00  0.00    -0.310 N 
ATOM     27  C   UNL     1      40.993  40.531   9.080  1.00  0.00     0.408 C 
ATOM     28  O   UNL     1      40.477  41.361   9.902  1.00  0.00    -0.225 OA
ATOM     29  H   UNL     1      41.988  40.332   7.225  1.00  0.00     0.167 HD
BRANCH  27  30
ATOM     30  O   UNL     1      40.935  39.221   9.437  1.00  0.00    -0.445 OA
BRANCH  30  31
ATOM     31  C   UNL     1      41.814  38.450  10.187  1.00  0.00     0.270 C 
BRANCH  31  32
ATOM     32  C   UNL     1      41.525  37.000  10.065  1.00  0.00    -0.011 A 
ATOM     33  C   UNL     1      40.237  36.504  10.054  1.00  0.00     0.007 A 
ATOM     34  C   UNL     1      42.546  36.071   9.938  1.00  0.00     0.007 A 
ATOM     35  C   UNL     1      39.946  35.169   9.925  1.00  0.00     0.000 A 
ATOM     36  C   UNL     1      42.262  34.721   9.806  1.00  0.00     0.000 A 
ATOM     37  C   UNL     1      40.971  34.250   9.798  1.00  0.00     0.000 A 
ENDBRANCH  31  32
ENDBRANCH  30  31
ENDBRANCH  27  30
ENDBRANCH  21  26
ENDBRANCH   2  21
TORSDOF 15
ENDMDL
MODEL 2
REMARK VINA RESULT:      -7.4      3.148      5.727
REMARK SMILES CC(C)C[C@@H](C=O)NC(=O)[C@H](CC(C)C)NC(=O)[C@H](CC(C)C)NC(=O)OCc1ccccc1
REMARK SMILES IDX 16 1 17 2 18 3 11 5 9 6 8 7 10 8 5 10 4 11 2 12 1 13 3 14
REMARK SMILES IDX 6 15 7 16 12 17 13 18 14 19 15 20 19 21 20 22 21 23 22 24
REMARK SMILES IDX 23 25 24 26 25 27 26 28 27 30 28 31 29 32 30 33 34 34 31 35
REMARK SMILES IDX 33 36 32 37
REMARK H PARENT 16 4 8 9 24 29
ROOT
ATOM      1  N   UNL     1      41.832  40.256   8.169  1.00  0.00    -0.343 N 
ATOM      2  C   UNL     1      41.284  39.850   9.431  1.00  0.00     0.243 C 
ATOM      3  O   UNL     1      40.429  40.623   9.965  1.00  0.00    -0.273 OA
ATOM      4  H   UNL     1      42.525  39.595   7.742  1.00  0.00     0.164 HD
ENDROOT
BRANCH   1   5
ATOM      5  C   UNL     1      41.428  41.506   7.517  1.00  0.00     0.171 C 
BRANCH   5   6
ATOM      6  C   UNL     1      41.629  41.290   6.015  1.00  0.00     0.243 C 
ATOM      7  N   UNL     1      42.911  41.287   5.438  1.00  0.00    -0.345 N 
ATOM      8  O   UNL     1      40.624  41.114   5.298  1.00  0.00    -0.273 OA
ATOM      9  H   UNL     1      43.729  41.437   6.066  1.00  0.00     0.164 HD
BRANCH   7  10
ATOM     10  C   UNL     1      43.123  41.081   4.002  1.00  0.00     0.146 C 
BRANCH  10  11
ATOM     11  C   UNL     1      44.135  42.095   3.525  1.00  0.00     0.035 C 
BRANCH  11  12
ATOM     12  C   UNL     1      43.602  43.504   3.498  1.00  0.00    -0.015 C 
ATOM     13  C   UNL     1      42.153  43.537   3.056  1.00  0.00     0.007 C 
ATOM     14  C   UNL     1      44.402  44.324   2.511  1.00  0.00     0.007 C 
ENDBRANCH  11  12
ENDBRANCH  10  11
BRANCH  10  15
ATOM     15  C   UNL     1      43.531  39.677   3.798  1.00  0.00     0.248 C 
ATOM     16  O   UNL     1      44.674  39.289   3.953  1.00  0.00    -0.301 OA
ENDBRANCH  10  15
ENDBRANCH   7  10
ENDBRANCH   5   6
BRANCH   5  17
ATOM     17  C   UNL     1      42.189  42.705   7.947  1.00  0.00     0.038 C 
BRANCH  17  18
ATOM     18  C   UNL     1      42.175  43.854   6.995  1.00  0.00    -0.015 C 
ATOM     19  C   UNL     1      43.534  44.580   7.028  1.00  0.00     0.007 C 
ATOM     20  C   UNL     1      41.121  44.871   7.249  1.00  0.00     0.007 C 
ENDBRANCH  17  18
ENDBRANCH   5  17
ENDBRANCH   1   5
BRANCH   2  21
ATOM     21  C   UNL     1      41.694  38.577  10.097  1.00  0.00     0.175 C 
BRANCH  21  22
ATOM     22  C   UNL     1      43.188  38.424  10.096  1.00  0.00     0.038 C 
BRANCH  22  23
ATOM     23  C   UNL     1      43.673  37.117   9.575  1.00  0.00    -0.015 C 
ATOM     24  C   UNL     1      45.023  37.174   8.922  1.00  0.00     0.007 C 
ATOM     25  C   UNL     1      43.564  35.980  10.582  1.00  0.00     0.007 C 
ENDBRANCH  22  23
ENDBRANCH  21  22
BRANCH  21  26
ATOM     26  N   UNL     1      40.993  37.512   9.472  1.00  0.00    -0.310 N 
ATOM     27  C   UNL     1      40.085  36.720  10.222  1.00  0.00     0.408 C 
ATOM     28  O   UNL     1      39.903  36.973  11.460  1.00  0.00    -0.225 OA
ATOM     29  H   UNL     1      41.129  37.300   8.477  1.00  0.00     0.167 HD
BRANCH  27  30
ATOM     30  O   UNL     1      39.372  35.681   9.712  1.00  0.00    -0.445 OA
BRANCH  30  31
ATOM     31  C   UNL     1      38.931  34.508  10.311  1.00  0.00     0.270 C 
BRANCH  31  32
ATOM     32  C   UNL     1      40.057  33.628  10.709  1.00  0.00    -0.011 A 
ATOM     33  C   UNL     1      40.647  32.744   9.828  1.00  0.00     0.007 A 
ATOM     34  C   UNL     1      40.584  33.670  11.990  1.00  0.00     0.007 A 
ATOM     35  C   UNL     1      41.702  31.934  10.170  1.00  0.00     0.000 A 
ATOM     36  C   UNL     1      41.649  32.855  12.344  1.00  0.00     0.000 A 
ATOM     37  C   UNL     1      42.221  31.982  11.450  1.00  0.00     0.000 A 
ENDBRANCH  31  32
ENDBRANCH  30  31
ENDBRANCH  27  30
ENDBRANCH  21  26
ENDBRANCH   2  21
TORSDOF 15
ENDMDL
MODEL 3
REMARK VINA RESULT:      -7.4      3.125      5.827
REMARK SMILES CC(C)C[C@@H](C=O)NC(=O)[C@H](CC(C)C)NC(=O)[C@H](CC(C)C)NC(=O)OCc1ccccc1
REMARK SMILES IDX 16 1 17 2 18 3 11 5 9 6 8 7 10 8 5 10 4 11 2 12 1 13 3 14
REMARK SMILES IDX 6 15 7 16 12 17 13 18 14 19 15 20 19 21 20 22 21 23 22 24
REMARK SMILES IDX 23 25 24 26 25 27 26 28 27 30 28 31 29 32 30 33 34 34 31 35
REMARK SMILES IDX 33 36 32 37
REMARK H PARENT 16 4 8 9 24 29
ROOT
ATOM      1  N   UNL     1      41.782  40.360   8.015  1.00  0.00    -0.343 N 
ATOM      2  C   UNL     1      41.266  40.008   9.306  1.00  0.00     0.243 C 
ATOM      3  O   UNL     1      40.474  40.836   9.856  1.00  0.00    -0.273 OA
ATOM      4  H   UNL     1      42.423  39.655   7.576  1.00  0.00     0.164 HD
ENDROOT
BRANCH   1   5
ATOM      5  C   UNL     1      41.416  41.615   7.351  1.00  0.00     0.171 C 
BRANCH   5   6
ATOM      6  C   UNL     1      41.559  41.363   5.848  1.00  0.00     0.243 C 
ATOM      7  N   UNL     1      42.788  41.534   5.188  1.00  0.00    -0.345 N 
ATOM      8  O   UNL     1      40.554  40.997   5.207  1.00  0.00    -0.273 OA
ATOM      9  H   UNL     1      43.607  41.840   5.755  1.00  0.00     0.164 HD
BRANCH   7  10
ATOM     10  C   UNL     1      42.945  41.296   3.749  1.00  0.00     0.146 C 
BRANCH  10  11
ATOM     11  C   UNL     1      43.138  42.631   3.070  1.00  0.00     0.035 C 
BRANCH  11  12
ATOM     12  C   UNL     1      43.681  43.695   3.986  1.00  0.00    -0.015 C 
ATOM     13  C   UNL     1      43.009  45.031   3.742  1.00  0.00     0.007 C 
ATOM     14  C   UNL     1      45.160  43.872   3.727  1.00  0.00     0.007 C 
ENDBRANCH  11  12
ENDBRANCH  10  11
BRANCH  10  15
ATOM     15  C   UNL     1      44.065  40.353   3.562  1.00  0.00     0.248 C 
ATOM     16  O   UNL     1      44.016  39.188   3.909  1.00  0.00    -0.301 OA
ENDBRANCH  10  15
ENDBRANCH   7  10
ENDBRANCH   5   6
BRANCH   5  17
ATOM     17  C   UNL     1      42.246  42.785   7.734  1.00  0.00     0.038 C 
BRANCH  17  18
ATOM     18  C   UNL     1      41.492  43.984   8.202  1.00  0.00    -0.015 C 
ATOM     19  C   UNL     1      41.113  44.869   6.998  1.00  0.00     0.007 C 
ATOM     20  C   UNL     1      42.215  44.844   9.176  1.00  0.00     0.007 C 
ENDBRANCH  17  18
ENDBRANCH   5  17
ENDBRANCH   1   5
BRANCH   2  21
ATOM     21  C   UNL     1      41.638  38.730   9.985  1.00  0.00     0.175 C 
BRANCH  21  22
ATOM     22  C   UNL     1      43.074  38.377   9.724  1.00  0.00     0.038 C 
BRANCH  22  23
ATOM     23  C   UNL     1      43.508  37.084  10.318  1.00  0.00    -0.015 C 
ATOM     24  C   UNL     1      43.147  35.877   9.503  1.00  0.00     0.007 C 
ATOM     25  C   UNL     1      44.968  37.073  10.755  1.00  0.00     0.007 C 
ENDBRANCH  22  23
ENDBRANCH  21  22
BRANCH  21  26
ATOM     26  N   UNL     1      40.705  37.737   9.584  1.00  0.00    -0.310 N 
ATOM     27  C   UNL     1      39.953  37.030  10.558  1.00  0.00     0.408 C 
ATOM     28  O   UNL     1      40.120  37.297  11.795  1.00  0.00    -0.225 OA
ATOM     29  H   UNL     1      40.560  37.516   8.591  1.00  0.00     0.167 HD
BRANCH  27  30
ATOM     30  O   UNL     1      39.041  36.064  10.271  1.00  0.00    -0.445 OA
BRANCH  30  31
ATOM     31  C   UNL     1      39.164  34.902   9.520  1.00  0.00     0.270 C 
BRANCH  31  32
ATOM     32  C   UNL     1      40.079  33.922  10.156  1.00  0.00    -0.011 A 
ATOM     33  C   UNL     1      40.737  32.950   9.429  1.00  0.00     0.007 A 
ATOM     34  C   UNL     1      40.329  33.952  11.519  1.00  0.00     0.007 A 
ATOM     35  C   UNL     1      41.601  32.046   9.995  1.00  0.00     0.000 A 
ATOM     36  C   UNL     1      41.201  33.043  12.098  1.00  0.00     0.000 A 
ATOM     37  C   UNL     1      41.846  32.083  11.354  1.00  0.00     0.000 A 
ENDBRANCH  31  32
ENDBRANCH  30  31
ENDBRANCH  27  30
ENDBRANCH  21  26
ENDBRANCH   2  21
TORSDOF 15
ENDMDL
MODEL 4
REMARK VINA RESULT:      -7.4      1.096      1.905
REMARK SMILES CC(C)C[C@@H](C=O)NC(=O)[C@H](CC(C)C)NC(=O)[C@H](CC(C)C)NC(=O)OCc1ccccc1
REMARK SMILES IDX 16 1 17 2 18 3 11 5 9 6 8 7 10 8 5 10 4 11 2 12 1 13 3 14
REMARK SMILES IDX 6 15 7 16 12 17 13 18 14 19 15 20 19 21 20 22 21 23 22 24
REMARK SMILES IDX 23 25 24 26 25 27 26 28 27 30 28 31 29 32 30 33 34 34 31 35
REMARK SMILES IDX 33 36 32 37
REMARK H PARENT 16 4 8 9 24 29
ROOT
ATOM      1  N   UNL     1      41.283  41.523   5.290  1.00  0.00    -0.343 N 
ATOM      2  C   UNL     1      41.799  42.476   6.230  1.00  0.00     0.243 C 
ATOM      3  O   UNL     1      42.430  43.471   5.756  1.00  0.00    -0.273 OA
ATOM      4  H   UNL     1      40.754  40.718   5.705  1.00  0.00     0.164 HD
ENDROOT
BRANCH   1   5
ATOM      5  C   UNL     1      41.470  41.683   3.845  1.00  0.00     0.171 C 
BRANCH   5   6
ATOM      6  C   UNL     1      40.090  41.495   3.211  1.00  0.00     0.243 C 
ATOM      7  N   UNL     1      39.184  40.533   3.693  1.00  0.00    -0.345 N 
ATOM      8  O   UNL     1      39.774  42.218   2.245  1.00  0.00    -0.273 OA
ATOM      9  H   UNL     1      39.481  39.947   4.502  1.00  0.00     0.164 HD
BRANCH   7  10
ATOM     10  C   UNL     1      37.858  40.339   3.099  1.00  0.00     0.146 C 
BRANCH  10  11
ATOM     11  C   UNL     1      37.147  41.671   3.092  1.00  0.00     0.035 C 
BRANCH  11  12
ATOM     12  C   UNL     1      35.674  41.565   3.387  1.00  0.00    -0.015 C 
ATOM     13  C   UNL     1      35.327  40.216   3.984  1.00  0.00     0.007 C 
ATOM     14  C   UNL     1      34.893  41.713   2.101  1.00  0.00     0.007 C 
ENDBRANCH  11  12
ENDBRANCH  10  11
BRANCH  10  15
ATOM     15  C   UNL     1      38.039  39.741   1.762  1.00  0.00     0.248 C 
ATOM     16  O   UNL     1      38.075  38.539   1.572  1.00  0.00    -0.301 OA
ENDBRANCH  10  15
ENDBRANCH   7  10
ENDBRANCH   5   6
BRANCH   5  17
ATOM     17  C   UNL     1      42.427  40.728   3.232  1.00  0.00     0.038 C 
BRANCH  17  18
ATOM     18  C   UNL     1      43.794  40.713   3.829  1.00  0.00    -0.015 C 
ATOM     19  C   UNL     1      44.519  42.036   3.512  1.00  0.00     0.007 C 
ATOM     20  C   UNL     1      44.672  39.605   3.369  1.00  0.00     0.007 C 
ENDBRANCH  17  18
ENDBRANCH   5  17
ENDBRANCH   1   5
BRANCH   2  21
ATOM     21  C   UNL     1      41.611  42.314   7.703  1.00  0.00     0.175 C 
BRANCH  21  22
ATOM     22  C   UNL     1      42.620  43.121   8.470  1.00  0.00     0.038 C 
BRANCH  22  23
ATOM     23  C   UNL     1      42.367  44.587   8.467  1.00  0.00    -0.015 C 
ATOM     24  C   UNL     1      41.065  44.991   9.093  1.00  0.00     0.007 C 
ATOM     25  C   UNL     1      43.539  45.409   8.987  1.00  0.00     0.007 C 
ENDBRANCH  22  23
ENDBRANCH  21  22
BRANCH  21  26
ATOM     26  N   UNL     1      41.624  40.925   7.994  1.00  0.00    -0.310 N 
ATOM     27  C   UNL     1      40.976  40.433   9.157  1.00  0.00     0.408 C 
ATOM     28  O   UNL     1      40.380  41.249   9.937  1.00  0.00    -0.225 OA
ATOM     29  H   UNL     1      42.098  40.258   7.373  1.00  0.00     0.167 HD
BRANCH  27  30
ATOM     30  O   UNL     1      40.938  39.123   9.518  1.00  0.00    -0.445 OA
BRANCH  30  31
ATOM     31  C   UNL     1      41.918  38.311  10.074  1.00  0.00     0.270 C 
BRANCH  31  32
ATOM     32  C   UNL     1      41.512  36.884  10.095  1.00  0.00    -0.011 A 
ATOM     33  C   UNL     1      42.414  35.859   9.890  1.00  0.00     0.007 A 
ATOM     34  C   UNL     1      40.199  36.513  10.341  1.00  0.00     0.007 A 
ATOM     35  C   UNL     1      42.063  34.532   9.922  1.00  0.00     0.000 A 
ATOM     36  C   UNL     1      39.837  35.175  10.376  1.00  0.00     0.000 A 
ATOM     37  C   UNL     1      40.752  34.171  10.169  1.00  0.00     0.000 A 
ENDBRANCH  31  32
ENDBRANCH  30  31
ENDBRANCH  27  30
ENDBRANCH  21  26
ENDBRANCH   2  21
TORSDOF 15
ENDMDL
MODEL 5
REMARK VINA RESULT:      -7.3      3.205      5.877
REMARK SMILES CC(C)C[C@@H](C=O)NC(=O)[C@H](CC(C)C)NC(=O)[C@H](CC(C)C)NC(=O)OCc1ccccc1
REMARK SMILES IDX 16 1 17 2 18 3 11 5 9 6 8 7 10 8 5 10 4 11 2 12 1 13 3 14
REMARK SMILES IDX 6 15 7 16 12 17 13 18 14 19 15 20 19 21 20 22 21 23 22 24
REMARK SMILES IDX 23 25 24 26 25 27 26 28 27 30 28 31 29 32 30 33 34 34 31 35
REMARK SMILES IDX 33 36 32 37
REMARK H PARENT 16 4 8 9 24 29
ROOT
ATOM      1  N   UNL     1      41.782  40.422   8.238  1.00  0.00    -0.343 N 
ATOM      2  C   UNL     1      41.204  40.015   9.486  1.00  0.00     0.243 C 
ATOM      3  O   UNL     1      40.347  40.795  10.007  1.00  0.00    -0.273 OA
ATOM      4  H   UNL     1      42.476  39.755   7.822  1.00  0.00     0.164 HD
ENDROOT
BRANCH   1   5
ATOM      5  C   UNL     1      41.405  41.679   7.584  1.00  0.00     0.171 C 
BRANCH   5   6
ATOM      6  C   UNL     1      41.599  41.456   6.083  1.00  0.00     0.243 C 
ATOM      7  N   UNL     1      42.745  41.920   5.413  1.00  0.00    -0.345 N 
ATOM      8  O   UNL     1      40.713  40.848   5.451  1.00  0.00    -0.273 OA
ATOM      9  H   UNL     1      43.466  42.424   5.972  1.00  0.00     0.164 HD
BRANCH   7  10
ATOM     10  C   UNL     1      42.949  41.715   3.975  1.00  0.00     0.146 C 
BRANCH  10  11
ATOM     11  C   UNL     1      43.134  43.067   3.329  1.00  0.00     0.035 C 
BRANCH  11  12
ATOM     12  C   UNL     1      44.577  43.487   3.222  1.00  0.00    -0.015 C 
ATOM     13  C   UNL     1      45.029  44.231   4.463  1.00  0.00     0.007 C 
ATOM     14  C   UNL     1      44.742  44.418   2.043  1.00  0.00     0.007 C 
ENDBRANCH  11  12
ENDBRANCH  10  11
BRANCH  10  15
ATOM     15  C   UNL     1      44.095  40.800   3.804  1.00  0.00     0.248 C 
ATOM     16  O   UNL     1      43.988  39.687   3.323  1.00  0.00    -0.301 OA
ENDBRANCH  10  15
ENDBRANCH   7  10
ENDBRANCH   5   6
BRANCH   5  17
ATOM     17  C   UNL     1      42.194  42.862   8.012  1.00  0.00     0.038 C 
BRANCH  17  18
ATOM     18  C   UNL     1      41.552  44.187   7.768  1.00  0.00    -0.015 C 
ATOM     19  C   UNL     1      42.517  45.102   6.988  1.00  0.00     0.007 C 
ATOM     20  C   UNL     1      41.134  44.921   8.992  1.00  0.00     0.007 C 
ENDBRANCH  17  18
ENDBRANCH   5  17
ENDBRANCH   1   5
BRANCH   2  21
ATOM     21  C   UNL     1      41.586  38.735  10.155  1.00  0.00     0.175 C 
BRANCH  21  22
ATOM     22  C   UNL     1      43.076  38.632  10.313  1.00  0.00     0.038 C 
BRANCH  22  23
ATOM     23  C   UNL     1      43.622  37.260  10.126  1.00  0.00    -0.015 C 
ATOM     24  C   UNL     1      44.249  37.022   8.784  1.00  0.00     0.007 C 
ATOM     25  C   UNL     1      44.513  36.797  11.272  1.00  0.00     0.007 C 
ENDBRANCH  22  23
ENDBRANCH  21  22
BRANCH  21  26
ATOM     26  N   UNL     1      40.997  37.669   9.424  1.00  0.00    -0.310 N 
ATOM     27  C   UNL     1      40.117  36.763  10.071  1.00  0.00     0.408 C 
ATOM     28  O   UNL     1      39.859  36.915  11.312  1.00  0.00    -0.225 OA
ATOM     29  H   UNL     1      41.195  37.538   8.425  1.00  0.00     0.167 HD
BRANCH  27  30
ATOM     30  O   UNL     1      39.508  35.714   9.456  1.00  0.00    -0.445 OA
BRANCH  30  31
ATOM     31  C   UNL     1      39.972  34.432   9.188  1.00  0.00     0.270 C 
BRANCH  31  32
ATOM     32  C   UNL     1      40.910  33.950  10.230  1.00  0.00    -0.011 A 
ATOM     33  C   UNL     1      42.280  34.064  10.097  1.00  0.00     0.007 A 
ATOM     34  C   UNL     1      40.449  33.375  11.403  1.00  0.00     0.007 A 
ATOM     35  C   UNL     1      43.166  33.640  11.056  1.00  0.00     0.000 A 
ATOM     36  C   UNL     1      41.336  32.945  12.378  1.00  0.00     0.000 A 
ATOM     37  C   UNL     1      42.697  33.069  12.224  1.00  0.00     0.000 A 
ENDBRANCH  31  32
ENDBRANCH  30  31
ENDBRANCH  27  30
ENDBRANCH  21  26
ENDBRANCH   2  21
TORSDOF 15
ENDMDL
MODEL 6
REMARK VINA RESULT:      -7.3      0.759      1.272
REMARK SMILES CC(C)C[C@@H](C=O)NC(=O)[C@H](CC(C)C)NC(=O)[C@H](CC(C)C)NC(=O)OCc1ccccc1
REMARK SMILES IDX 16 1 17 2 18 3 11 5 9 6 8 7 10 8 5 10 4 11 2 12 1 13 3 14
REMARK SMILES IDX 6 15 7 16 12 17 13 18 14 19 15 20 19 21 20 22 21 23 22 24
REMARK SMILES IDX 23 25 24 26 25 27 26 28 27 30 28 31 29 32 30 33 34 34 31 35
REMARK SMILES IDX 33 36 32 37
REMARK H PARENT 16 4 8 9 24 29
ROOT
ATOM      1  N   UNL     1      40.999  41.439   5.077  1.00  0.00    -0.343 N 
ATOM      2  C   UNL     1      41.820  42.090   6.057  1.00  0.00     0.243 C 
ATOM      3  O   UNL     1      42.857  42.690   5.635  1.00  0.00    -0.273 OA
ATOM      4  H   UNL     1      40.142  40.962   5.449  1.00  0.00     0.164 HD
ENDROOT
BRANCH   1   5
ATOM      5  C   UNL     1      41.334  41.461   3.650  1.00  0.00     0.171 C 
BRANCH   5   6
ATOM      6  C   UNL     1      40.015  41.267   2.898  1.00  0.00     0.243 C 
ATOM      7  N   UNL     1      38.876  42.034   3.202  1.00  0.00    -0.345 N 
ATOM      8  O   UNL     1      39.963  40.407   1.997  1.00  0.00    -0.273 OA
ATOM      9  H   UNL     1      38.956  42.744   3.960  1.00  0.00     0.164 HD
BRANCH   7  10
ATOM     10  C   UNL     1      37.605  41.864   2.492  1.00  0.00     0.146 C 
BRANCH  10  11
ATOM     11  C   UNL     1      36.733  40.936   3.304  1.00  0.00     0.035 C 
BRANCH  11  12
ATOM     12  C   UNL     1      35.292  40.936   2.868  1.00  0.00    -0.015 C 
ATOM     13  C   UNL     1      34.357  40.783   4.051  1.00  0.00     0.007 C 
ATOM     14  C   UNL     1      35.049  39.769   1.938  1.00  0.00     0.007 C 
ENDBRANCH  11  12
ENDBRANCH  10  11
BRANCH  10  15
ATOM     15  C   UNL     1      37.023  43.203   2.271  1.00  0.00     0.248 C 
ATOM     16  O   UNL     1      36.744  43.631   1.166  1.00  0.00    -0.301 OA
ENDBRANCH  10  15
ENDBRANCH   7  10
ENDBRANCH   5   6
BRANCH   5  17
ATOM     17  C   UNL     1      42.301  40.419   3.222  1.00  0.00     0.038 C 
BRANCH  17  18
ATOM     18  C   UNL     1      43.627  40.922   2.757  1.00  0.00    -0.015 C 
ATOM     19  C   UNL     1      44.755  40.253   3.566  1.00  0.00     0.007 C 
ATOM     20  C   UNL     1      43.816  42.393   2.862  1.00  0.00     0.007 C 
ENDBRANCH  17  18
ENDBRANCH   5  17
ENDBRANCH   1   5
BRANCH   2  21
ATOM     21  C   UNL     1      41.482  42.068   7.512  1.00  0.00     0.175 C 
BRANCH  21  22
ATOM     22  C   UNL     1      42.378  42.988   8.290  1.00  0.00     0.038 C 
BRANCH  22  23
ATOM     23  C   UNL     1      41.902  44.396   8.363  1.00  0.00    -0.015 C 
ATOM     24  C   UNL     1      41.758  44.928   9.758  1.00  0.00     0.007 C 
ATOM     25  C   UNL     1      42.672  45.348   7.456  1.00  0.00     0.007 C 
ENDBRANCH  22  23
ENDBRANCH  21  22
BRANCH  21  26
ATOM     26  N   UNL     1      41.508  40.716   7.945  1.00  0.00    -0.310 N 
ATOM     27  C   UNL     1      40.902  40.349   9.175  1.00  0.00     0.408 C 
ATOM     28  O   UNL     1      40.333  41.243   9.887  1.00  0.00    -0.225 OA
ATOM     29  H   UNL     1      41.961  39.987   7.380  1.00  0.00     0.167 HD
BRANCH  27  30
ATOM     30  O   UNL     1      40.879  39.083   9.671  1.00  0.00    -0.445 OA
BRANCH  30  31
ATOM     31  C   UNL     1      41.904  38.292  10.175  1.00  0.00     0.270 C 
BRANCH  31  32
ATOM     32  C   UNL     1      41.484  36.879  10.343  1.00  0.00    -0.011 A 
ATOM     33  C   UNL     1      42.345  35.824  10.120  1.00  0.00     0.007 A 
ATOM     34  C   UNL     1      40.201  36.555  10.755  1.00  0.00     0.007 A 
ATOM     35  C   UNL     1      41.983  34.510  10.287  1.00  0.00     0.000 A 
ATOM     36  C   UNL     1      39.826  35.231  10.926  1.00  0.00     0.000 A 
ATOM     37  C   UNL     1      40.701  34.195  10.698  1.00  0.00     0.000 A 
ENDBRANCH  31  32
ENDBRANCH  30  31
ENDBRANCH  27  30
ENDBRANCH  21  26
ENDBRANCH   2  21
TORSDOF 15
ENDMDL
MODEL 7
REMARK VINA RESULT:      -7.2      0.825      1.190
REMARK SMILES CC(C)C[C@@H](C=O)NC(=O)[C@H](CC(C)C)NC(=O)[C@H](CC(C)C)NC(=O)OCc1ccccc1
REMARK SMILES IDX 16 1 17 2 18 3 11 5 9 6 8 7 10 8 5 10 4 11 2 12 1 13 3 14
REMARK SMILES IDX 6 15 7 16 12 17 13 18 14 19 15 20 19 21 20 22 21 23 22 24
REMARK SMILES IDX 23 25 24 26 25 27 26 28 27 30 28 31 29 32 30 33 34 34 31 35
REMARK SMILES IDX 33 36 32 37
REMARK H PARENT 16 4 8 9 24 29
ROOT
ATOM      1  N   UNL     1      41.387  42.377   5.270  1.00  0.00    -0.343 N 
ATOM      2  C   UNL     1      41.949  43.182   6.315  1.00  0.00     0.243 C 
ATOM      3  O   UNL     1      42.656  44.177   5.960  1.00  0.00    -0.273 OA
ATOM      4  H   UNL     1      40.797  41.569   5.588  1.00  0.00     0.164 HD
ENDROOT
BRANCH   1   5
ATOM      5  C   UNL     1      41.610  42.681   3.853  1.00  0.00     0.171 C 
BRANCH   5   6
ATOM      6  C   UNL     1      40.454  42.033   3.088  1.00  0.00     0.243 C 
ATOM      7  N   UNL     1      39.169  42.603   3.078  1.00  0.00    -0.345 N 
ATOM      8  O   UNL     1      40.670  40.975   2.464  1.00  0.00    -0.273 OA
ATOM      9  H   UNL     1      39.024  43.488   3.610  1.00  0.00     0.164 HD
BRANCH   7  10
ATOM     10  C   UNL     1      38.049  41.998   2.350  1.00  0.00     0.146 C 
BRANCH  10  11
ATOM     11  C   UNL     1      37.225  41.200   3.332  1.00  0.00     0.035 C 
BRANCH  11  12
ATOM     12  C   UNL     1      36.820  39.847   2.812  1.00  0.00    -0.015 C 
ATOM     13  C   UNL     1      37.689  39.420   1.645  1.00  0.00     0.007 C 
ATOM     14  C   UNL     1      35.391  39.905   2.321  1.00  0.00     0.007 C 
ENDBRANCH  11  12
ENDBRANCH  10  11
BRANCH  10  15
ATOM     15  C   UNL     1      37.306  43.081   1.674  1.00  0.00     0.248 C 
ATOM     16  O   UNL     1      37.848  44.060   1.197  1.00  0.00    -0.301 OA
ENDBRANCH  10  15
ENDBRANCH   7  10
ENDBRANCH   5   6
BRANCH   5  17
ATOM     17  C   UNL     1      42.899  42.186   3.307  1.00  0.00     0.038 C 
BRANCH  17  18
ATOM     18  C   UNL     1      43.815  43.233   2.767  1.00  0.00    -0.015 C 
ATOM     19  C   UNL     1      45.029  43.401   3.702  1.00  0.00     0.007 C 
ATOM     20  C   UNL     1      43.202  44.576   2.588  1.00  0.00     0.007 C 
ENDBRANCH  17  18
ENDBRANCH   5  17
ENDBRANCH   1   5
BRANCH   2  21
ATOM     21  C   UNL     1      41.724  42.874   7.759  1.00  0.00     0.175 C 
BRANCH  21  22
ATOM     22  C   UNL     1      42.567  43.752   8.638  1.00  0.00     0.038 C 
BRANCH  22  23
ATOM     23  C   UNL     1      41.833  44.885   9.264  1.00  0.00    -0.015 C 
ATOM     24  C   UNL     1      42.672  46.103   9.513  1.00  0.00     0.007 C 
ATOM     25  C   UNL     1      40.520  45.219   8.567  1.00  0.00     0.007 C 
ENDBRANCH  22  23
ENDBRANCH  21  22
BRANCH  21  26
ATOM     26  N   UNL     1      41.931  41.481   7.944  1.00  0.00    -0.310 N 
ATOM     27  C   UNL     1      41.316  40.807   9.031  1.00  0.00     0.408 C 
ATOM     28  O   UNL     1      40.574  41.461   9.838  1.00  0.00    -0.225 OA
ATOM     29  H   UNL     1      42.525  40.944   7.301  1.00  0.00     0.167 HD
BRANCH  27  30
ATOM     30  O   UNL     1      41.458  39.480   9.290  1.00  0.00    -0.445 OA
BRANCH  30  31
ATOM     31  C   UNL     1      41.003  38.713  10.355  1.00  0.00     0.270 C 
BRANCH  31  32
ATOM     32  C   UNL     1      41.180  37.261  10.111  1.00  0.00    -0.011 A 
ATOM     33  C   UNL     1      42.424  36.694   9.916  1.00  0.00     0.007 A 
ATOM     34  C   UNL     1      40.096  36.398  10.086  1.00  0.00     0.007 A 
ATOM     35  C   UNL     1      42.612  35.350   9.706  1.00  0.00     0.000 A 
ATOM     36  C   UNL     1      40.277  35.040   9.875  1.00  0.00     0.000 A 
ATOM     37  C   UNL     1      41.525  34.497   9.684  1.00  0.00     0.000 A 
ENDBRANCH  31  32
ENDBRANCH  30  31
ENDBRANCH  27  30
ENDBRANCH  21  26
ENDBRANCH   2  21
TORSDOF 15
ENDMDL
MODEL 8
REMARK VINA RESULT:      -6.9      1.352      1.544
REMARK SMILES CC(C)C[C@@H](C=O)NC(=O)[C@H](CC(C)C)NC(=O)[C@H](CC(C)C)NC(=O)OCc1ccccc1
REMARK SMILES IDX 16 1 17 2 18 3 11 5 9 6 8 7 10 8 5 10 4 11 2 12 1 13 3 14
REMARK SMILES IDX 6 15 7 16 12 17 13 18 14 19 15 20 19 21 20 22 21 23 22 24
REMARK SMILES IDX 23 25 24 26 25 27 26 28 27 30 28 31 29 32 30 33 34 34 31 35
REMARK SMILES IDX 33 36 32 37
REMARK H PARENT 16 4 8 9 24 29
ROOT
ATOM      1  N   UNL     1      41.579  42.818   5.155  1.00  0.00    -0.343 N 
ATOM      2  C   UNL     1      42.238  43.352   6.312  1.00  0.00     0.243 C 
ATOM      3  O   UNL     1      43.210  44.143   6.109  1.00  0.00    -0.273 OA
ATOM      4  H   UNL     1      40.771  42.177   5.348  1.00  0.00     0.164 HD
ENDROOT
BRANCH   1   5
ATOM      5  C   UNL     1      42.001  43.166   3.795  1.00  0.00     0.171 C 
BRANCH   5   6
ATOM      6  C   UNL     1      40.727  43.529   3.030  1.00  0.00     0.243 C 
ATOM      7  N   UNL     1      39.531  42.810   3.211  1.00  0.00    -0.345 N 
ATOM      8  O   UNL     1      40.763  44.485   2.230  1.00  0.00    -0.273 OA
ATOM      9  H   UNL     1      39.537  42.017   3.887  1.00  0.00     0.164 HD
BRANCH   7  10
ATOM     10  C   UNL     1      38.300  43.143   2.488  1.00  0.00     0.146 C 
BRANCH  10  11
ATOM     11  C   UNL     1      37.340  41.987   2.637  1.00  0.00     0.035 C 
BRANCH  11  12
ATOM     12  C   UNL     1      38.024  40.647   2.704  1.00  0.00    -0.015 C 
ATOM     13  C   UNL     1      37.686  39.793   1.499  1.00  0.00     0.007 C 
ATOM     14  C   UNL     1      37.557  39.907   3.937  1.00  0.00     0.007 C 
ENDBRANCH  11  12
ENDBRANCH  10  11
BRANCH  10  15
ATOM     15  C   UNL     1      37.792  44.424   3.018  1.00  0.00     0.248 C 
ATOM     16  O   UNL     1      37.336  44.544   4.140  1.00  0.00    -0.301 OA
ENDBRANCH  10  15
ENDBRANCH   7  10
ENDBRANCH   5   6
BRANCH   5  17
ATOM     17  C   UNL     1      42.719  42.087   3.071  1.00  0.00     0.038 C 
BRANCH  17  18
ATOM     18  C   UNL     1      43.771  41.375   3.854  1.00  0.00    -0.015 C 
ATOM     19  C   UNL     1      45.052  42.229   3.910  1.00  0.00     0.007 C 
ATOM     20  C   UNL     1      44.151  40.037   3.330  1.00  0.00     0.007 C 
ENDBRANCH  17  18
ENDBRANCH   5  17
ENDBRANCH   1   5
BRANCH   2  21
ATOM     21  C   UNL     1      41.810  42.997   7.699  1.00  0.00     0.175 C 
BRANCH  21  22
ATOM     22  C   UNL     1      42.673  43.678   8.722  1.00  0.00     0.038 C 
BRANCH  22  23
ATOM     23  C   UNL     1      42.092  44.926   9.286  1.00  0.00    -0.015 C 
ATOM     24  C   UNL     1      43.015  46.108   9.253  1.00  0.00     0.007 C 
ATOM     25  C   UNL     1      40.709  45.256   8.739  1.00  0.00     0.007 C 
ENDBRANCH  22  23
ENDBRANCH  21  22
BRANCH  21  26
ATOM     26  N   UNL     1      41.784  41.581   7.798  1.00  0.00    -0.310 N 
ATOM     27  C   UNL     1      41.175  40.955   8.917  1.00  0.00     0.408 C 
ATOM     28  O   UNL     1      40.649  41.675   9.831  1.00  0.00    -0.225 OA
ATOM     29  H   UNL     1      42.202  40.991   7.069  1.00  0.00     0.167 HD
BRANCH  27  30
ATOM     30  O   UNL     1      41.104  39.610   9.099  1.00  0.00    -0.445 OA
BRANCH  30  31
ATOM     31  C   UNL     1      40.865  38.865  10.247  1.00  0.00     0.270 C 
BRANCH  31  32
ATOM     32  C   UNL     1      41.489  37.521  10.179  1.00  0.00    -0.011 A 
ATOM     33  C   UNL     1      40.743  36.360  10.214  1.00  0.00     0.007 A 
ATOM     34  C   UNL     1      42.861  37.371  10.057  1.00  0.00     0.007 A 
ATOM     35  C   UNL     1      41.298  35.107  10.134  1.00  0.00     0.000 A 
ATOM     36  C   UNL     1      43.431  36.110   9.976  1.00  0.00     0.000 A 
ATOM     37  C   UNL     1      42.667  34.967  10.013  1.00  0.00     0.000 A 
ENDBRANCH  31  32
ENDBRANCH  30  31
ENDBRANCH  27  30
ENDBRANCH  21  26
ENDBRANCH   2  21
TORSDOF 15
ENDMDL
MODEL 9
REMARK VINA RESULT:      -6.9      2.387      5.269
REMARK SMILES CC(C)C[C@@H](C=O)NC(=O)[C@H](CC(C)C)NC(=O)[C@H](CC(C)C)NC(=O)OCc1ccccc1
REMARK SMILES IDX 16 1 17 2 18 3 11 5 9 6 8 7 10 8 5 10 4 11 2 12 1 13 3 14
REMARK SMILES IDX 6 15 7 16 12 17 13 18 14 19 15 20 19 21 20 22 21 23 22 24
REMARK SMILES IDX 23 25 24 26 25 27 26 28 27 30 28 31 29 32 30 33 34 34 31 35
REMARK SMILES IDX 33 36 32 37
REMARK H PARENT 16 4 8 9 24 29
ROOT
ATOM      1  N   UNL     1      41.933  40.472   8.184  1.00  0.00    -0.343 N 
ATOM      2  C   UNL     1      41.288  40.079   9.404  1.00  0.00     0.243 C 
ATOM      3  O   UNL     1      40.430  40.882   9.887  1.00  0.00    -0.273 OA
ATOM      4  H   UNL     1      42.627  39.786   7.797  1.00  0.00     0.164 HD
ENDROOT
BRANCH   1   5
ATOM      5  C   UNL     1      41.621  41.740   7.517  1.00  0.00     0.171 C 
BRANCH   5   6
ATOM      6  C   UNL     1      42.074  41.583   6.064  1.00  0.00     0.243 C 
ATOM      7  N   UNL     1      41.568  40.559   5.243  1.00  0.00    -0.345 N 
ATOM      8  O   UNL     1      42.911  42.387   5.610  1.00  0.00    -0.273 OA
ATOM      9  H   UNL     1      40.869  39.905   5.655  1.00  0.00     0.164 HD
BRANCH   7  10
ATOM     10  C   UNL     1      41.988  40.393   3.848  1.00  0.00     0.146 C 
BRANCH  10  11
ATOM     11  C   UNL     1      41.498  41.587   3.064  1.00  0.00     0.035 C 
BRANCH  11  12
ATOM     12  C   UNL     1      40.015  41.815   3.188  1.00  0.00    -0.015 C 
ATOM     13  C   UNL     1      39.231  40.798   2.384  1.00  0.00     0.007 C 
ATOM     14  C   UNL     1      39.673  43.187   2.651  1.00  0.00     0.007 C 
ENDBRANCH  11  12
ENDBRANCH  10  11
BRANCH  10  15
ATOM     15  C   UNL     1      43.454  40.217   3.831  1.00  0.00     0.248 C 
ATOM     16  O   UNL     1      43.998  39.159   4.085  1.00  0.00    -0.301 OA
ENDBRANCH  10  15
ENDBRANCH   7  10
ENDBRANCH   5   6
BRANCH   5  17
ATOM     17  C   UNL     1      42.278  42.931   8.111  1.00  0.00     0.038 C 
BRANCH  17  18
ATOM     18  C   UNL     1      41.366  44.053   8.480  1.00  0.00    -0.015 C 
ATOM     19  C   UNL     1      41.004  44.870   7.225  1.00  0.00     0.007 C 
ATOM     20  C   UNL     1      41.909  45.002   9.487  1.00  0.00     0.007 C 
ENDBRANCH  17  18
ENDBRANCH   5  17
ENDBRANCH   1   5
BRANCH   2  21
ATOM     21  C   UNL     1      41.604  38.788  10.085  1.00  0.00     0.175 C 
BRANCH  21  22
ATOM     22  C   UNL     1      43.085  38.537  10.107  1.00  0.00     0.038 C 
BRANCH  22  23
ATOM     23  C   UNL     1      43.492  37.211   9.569  1.00  0.00    -0.015 C 
ATOM     24  C   UNL     1      44.780  37.226   8.799  1.00  0.00     0.007 C 
ATOM     25  C   UNL     1      43.449  36.093  10.603  1.00  0.00     0.007 C 
ENDBRANCH  22  23
ENDBRANCH  21  22
BRANCH  21  26
ATOM     26  N   UNL     1      40.843  37.767   9.457  1.00  0.00    -0.310 N 
ATOM     27  C   UNL     1      40.057  36.880  10.240  1.00  0.00     0.408 C 
ATOM     28  O   UNL     1      40.038  37.011  11.509  1.00  0.00    -0.225 OA
ATOM     29  H   UNL     1      40.848  37.653   8.437  1.00  0.00     0.167 HD
BRANCH  27  30
ATOM     30  O   UNL     1      39.299  35.874   9.729  1.00  0.00    -0.445 OA
BRANCH  30  31
ATOM     31  C   UNL     1      38.851  34.695  10.312  1.00  0.00     0.270 C 
BRANCH  31  32
ATOM     32  C   UNL     1      39.970  33.780  10.647  1.00  0.00    -0.011 A 
ATOM     33  C   UNL     1      40.530  32.931   9.714  1.00  0.00     0.007 A 
ATOM     34  C   UNL     1      40.519  33.750  11.919  1.00  0.00     0.007 A 
ATOM     35  C   UNL     1      41.577  32.089   9.998  1.00  0.00     0.000 A 
ATOM     36  C   UNL     1      41.576  32.903  12.214  1.00  0.00     0.000 A 
ATOM     37  C   UNL     1      42.119  32.066  11.269  1.00  0.00     0.000 A 
ENDBRANCH  31  32
ENDBRANCH  30  31
ENDBRANCH  27  30
ENDBRANCH  21  26
ENDBRANCH   2  21
TORSDOF 15
ENDMDL
