MODEL 1
REMARK VINA RESULT:      -8.3      0.000      0.000
REMARK SMILES O=S(=O)([N-]CC[NH2+]C/C=C/c1ccc(Br)cc1)c1cccc2cnccc12
REMARK SMILES IDX 6 1 5 2 4 3 2 4 1 5 3 6 18 7 19 8 27 9 20 10 26 11 22 12
REMARK SMILES IDX 21 13 25 14 23 15 24 16 7 17 8 20 9 21 10 22 11 23 12 24
REMARK SMILES IDX 17 25 13 26 16 27 14 28 15 29
REMARK H PARENT 7 18 7 19
ROOT
ATOM      1  C   UNL     1      26.336  10.370   8.789  1.00  0.00     0.238 C 
ENDROOT
BRANCH   1   2
ATOM      2  C   UNL     1      27.345  11.456   8.496  1.00  0.00    -0.070 C 
BRANCH   2   3
ATOM      3  N   UNL     1      27.236  12.528   9.462  1.00  0.00    -0.540 NA
BRANCH   3   4
ATOM      4  S   UNL     1      28.764  13.387   9.586  1.00  0.00     0.102 S 
ATOM      5  O   UNL     1      29.759  12.433   9.138  1.00  0.00    -0.244 OA
ATOM      6  O   UNL     1      28.948  13.628  11.061  1.00  0.00    -0.244 OA
BRANCH   4   7
ATOM      7  C   UNL     1      28.559  14.871   8.792  1.00  0.00     0.056 A 
ATOM      8  C   UNL     1      27.313  15.248   8.337  1.00  0.00     0.019 A 
ATOM      9  C   UNL     1      29.607  15.737   8.572  1.00  0.00     0.002 A 
ATOM     10  C   UNL     1      27.149  16.461   7.686  1.00  0.00     0.002 A 
ATOM     11  C   UNL     1      30.850  15.358   9.029  1.00  0.00     0.030 A 
ATOM     12  C   UNL     1      29.470  16.963   7.921  1.00  0.00     0.001 A 
ATOM     13  C   UNL     1      28.209  17.319   7.474  1.00  0.00     0.010 A 
ATOM     14  C   UNL     1      31.910  16.195   8.830  1.00  0.00     0.111 A 
ATOM     15  C   UNL     1      30.562  17.787   7.734  1.00  0.00     0.119 A 
ATOM     16  N   UNL     1      31.746  17.367   8.199  1.00  0.00    -0.264 NA
ENDBRANCH   4   7
ENDBRANCH   3   4
ENDBRANCH   2   3
ENDBRANCH   1   2
BRANCH   1  17
ATOM     17  N   UNL     1      26.313   9.344   7.788  1.00  0.00    -0.344 N 
ATOM     18  H   UNL     1      25.358   8.998   7.653  1.00  0.00     0.346 HD
ATOM     19  H   UNL     1      26.707   9.737   6.901  1.00  0.00     0.346 HD
BRANCH  17  20
ATOM     20  C   UNL     1      27.214   8.292   8.205  1.00  0.00     0.289 C 
BRANCH  20  21
ATOM     21  C   UNL     1      27.543   8.342   9.633  1.00  0.00     0.034 C 
ATOM     22  C   UNL     1      27.227   7.325  10.413  1.00  0.00     0.009 C 
BRANCH  22  23
ATOM     23  C   UNL     1      27.501   7.258  11.843  1.00  0.00    -0.026 A 
ATOM     24  C   UNL     1      26.514   7.576  12.750  1.00  0.00     0.009 A 
ATOM     25  C   UNL     1      28.718   6.887  12.361  1.00  0.00     0.009 A 
ATOM     26  C   UNL     1      26.715   7.530  14.117  1.00  0.00     0.016 A 
ATOM     27  C   UNL     1      28.932   6.837  13.744  1.00  0.00     0.016 A 
ATOM     28  C   UNL     1      27.937   7.157  14.632  1.00  0.00     0.018 A 
ATOM     29  Br  UNL     1      28.253   7.082  16.521  1.00  0.00    -0.051 Br
ENDBRANCH  22  23
ENDBRANCH  20  21
ENDBRANCH  17  20
ENDBRANCH   1  17
TORSDOF 8
ENDMDL
MODEL 2
REMARK VINA RESULT:      -8.2      5.610      6.572
REMARK SMILES O=S(=O)([N-]CC[NH2+]C/C=C/c1ccc(Br)cc1)c1cccc2cnccc12
REMARK SMILES IDX 6 1 5 2 4 3 2 4 1 5 3 6 18 7 19 8 27 9 20 10 26 11 22 12
REMARK SMILES IDX 21 13 25 14 23 15 24 16 7 17 8 20 9 21 10 22 11 23 12 24
REMARK SMILES IDX 17 25 13 26 16 27 14 28 15 29
REMARK H PARENT 7 18 7 19
ROOT
ATOM      1  C   UNL     1      24.831   9.418   7.673  1.00  0.00     0.238 C 
ENDROOT
BRANCH   1   2
ATOM      2  C   UNL     1      24.213   8.156   7.117  1.00  0.00    -0.070 C 
BRANCH   2   3
ATOM      3  N   UNL     1      24.070   8.248   5.680  1.00  0.00    -0.540 NA
BRANCH   3   4
ATOM      4  S   UNL     1      25.404   7.424   4.886  1.00  0.00     0.102 S 
ATOM      5  O   UNL     1      24.770   6.463   4.006  1.00  0.00    -0.244 OA
ATOM      6  O   UNL     1      26.108   6.683   5.992  1.00  0.00    -0.244 OA
BRANCH   4   7
ATOM      7  C   UNL     1      26.427   8.627   4.270  1.00  0.00     0.056 A 
ATOM      8  C   UNL     1      26.052   9.953   4.326  1.00  0.00     0.019 A 
ATOM      9  C   UNL     1      27.647   8.333   3.700  1.00  0.00     0.002 A 
ATOM     10  C   UNL     1      26.890  10.934   3.819  1.00  0.00     0.002 A 
ATOM     11  C   UNL     1      28.019   7.008   3.647  1.00  0.00     0.030 A 
ATOM     12  C   UNL     1      28.509   9.300   3.184  1.00  0.00     0.001 A 
ATOM     13  C   UNL     1      28.109  10.623   3.251  1.00  0.00     0.010 A 
ATOM     14  C   UNL     1      29.222   6.682   3.091  1.00  0.00     0.111 A 
ATOM     15  C   UNL     1      29.720   8.938   2.626  1.00  0.00     0.119 A 
ATOM     16  N   UNL     1      30.029   7.635   2.602  1.00  0.00    -0.264 NA
ENDBRANCH   4   7
ENDBRANCH   3   4
ENDBRANCH   2   3
ENDBRANCH   1   2
BRANCH   1  17
ATOM     17  N   UNL     1      26.179   9.229   8.123  1.00  0.00    -0.344 N 
ATOM     18  H   UNL     1      26.830   9.287   7.334  1.00  0.00     0.346 HD
ATOM     19  H   UNL     1      26.391   9.953   8.850  1.00  0.00     0.346 HD
BRANCH  17  20
ATOM     20  C   UNL     1      26.252   7.947   8.790  1.00  0.00     0.289 C 
BRANCH  20  21
ATOM     21  C   UNL     1      26.469   8.056  10.235  1.00  0.00     0.034 C 
ATOM     22  C   UNL     1      27.299   7.224  10.837  1.00  0.00     0.009 C 
BRANCH  22  23
ATOM     23  C   UNL     1      27.596   7.234  12.264  1.00  0.00    -0.026 A 
ATOM     24  C   UNL     1      26.629   7.612  13.167  1.00  0.00     0.009 A 
ATOM     25  C   UNL     1      28.818   6.878  12.781  1.00  0.00     0.009 A 
ATOM     26  C   UNL     1      26.853   7.640  14.532  1.00  0.00     0.016 A 
ATOM     27  C   UNL     1      29.056   6.903  14.161  1.00  0.00     0.016 A 
ATOM     28  C   UNL     1      28.080   7.283  15.046  1.00  0.00     0.018 A 
ATOM     29  Br  UNL     1      28.428   7.310  16.931  1.00  0.00    -0.051 Br
ENDBRANCH  22  23
ENDBRANCH  20  21
ENDBRANCH  17  20
ENDBRANCH   1  17
TORSDOF 8
ENDMDL
MODEL 3
REMARK VINA RESULT:      -7.8      5.342      7.524
REMARK SMILES O=S(=O)([N-]CC[NH2+]C/C=C/c1ccc(Br)cc1)c1cccc2cnccc12
REMARK SMILES IDX 6 1 5 2 4 3 2 4 1 5 3 6 18 7 19 8 27 9 20 10 26 11 22 12
REMARK SMILES IDX 21 13 25 14 23 15 24 16 7 17 8 20 9 21 10 22 11 23 12 24
REMARK SMILES IDX 17 25 13 26 16 27 14 28 15 29
REMARK H PARENT 7 18 7 19
ROOT
ATOM      1  C   UNL     1      26.371   8.258   9.918  1.00  0.00     0.238 C 
ENDROOT
BRANCH   1   2
ATOM      2  C   UNL     1      26.933   9.089   8.788  1.00  0.00    -0.070 C 
BRANCH   2   3
ATOM      3  N   UNL     1      25.881   9.833   8.129  1.00  0.00    -0.540 NA
BRANCH   3   4
ATOM      4  S   UNL     1      25.953   9.573   6.392  1.00  0.00     0.102 S 
ATOM      5  O   UNL     1      27.369   9.533   6.086  1.00  0.00    -0.244 OA
ATOM      6  O   UNL     1      25.359  10.821   5.795  1.00  0.00    -0.244 OA
BRANCH   4   7
ATOM      7  C   UNL     1      24.950   8.249   6.052  1.00  0.00     0.056 A 
ATOM      8  C   UNL     1      24.147   7.716   7.037  1.00  0.00     0.019 A 
ATOM      9  C   UNL     1      24.902   7.666   4.804  1.00  0.00     0.002 A 
ATOM     10  C   UNL     1      23.330   6.632   6.755  1.00  0.00     0.002 A 
ATOM     11  C   UNL     1      25.705   8.203   3.822  1.00  0.00     0.030 A 
ATOM     12  C   UNL     1      24.089   6.576   4.494  1.00  0.00     0.001 A 
ATOM     13  C   UNL     1      23.292   6.059   5.501  1.00  0.00     0.010 A 
ATOM     14  C   UNL     1      25.679   7.651   2.574  1.00  0.00     0.111 A 
ATOM     15  C   UNL     1      24.086   6.039   3.222  1.00  0.00     0.119 A 
ATOM     16  N   UNL     1      24.888   6.602   2.307  1.00  0.00    -0.264 NA
ENDBRANCH   4   7
ENDBRANCH   3   4
ENDBRANCH   2   3
ENDBRANCH   1   2
BRANCH   1  17
ATOM     17  N   UNL     1      26.857   6.909   9.915  1.00  0.00    -0.344 N 
ATOM     18  H   UNL     1      26.094   6.254  10.111  1.00  0.00     0.346 HD
ATOM     19  H   UNL     1      27.298   6.717   8.984  1.00  0.00     0.346 HD
BRANCH  17  20
ATOM     20  C   UNL     1      27.916   6.814  10.897  1.00  0.00     0.289 C 
BRANCH  20  21
ATOM     21  C   UNL     1      27.508   7.253  12.234  1.00  0.00     0.034 C 
ATOM     22  C   UNL     1      28.236   6.919  13.283  1.00  0.00     0.009 C 
BRANCH  22  23
ATOM     23  C   UNL     1      27.934   7.295  14.659  1.00  0.00    -0.026 A 
ATOM     24  C   UNL     1      26.755   7.942  14.954  1.00  0.00     0.009 A 
ATOM     25  C   UNL     1      28.776   7.036  15.713  1.00  0.00     0.009 A 
ATOM     26  C   UNL     1      26.414   8.322  16.239  1.00  0.00     0.016 A 
ATOM     27  C   UNL     1      28.441   7.417  17.019  1.00  0.00     0.016 A 
ATOM     28  C   UNL     1      27.262   8.062  17.293  1.00  0.00     0.018 A 
ATOM     29  Br  UNL     1      26.824   8.573  19.088  1.00  0.00    -0.051 Br
ENDBRANCH  22  23
ENDBRANCH  20  21
ENDBRANCH  17  20
ENDBRANCH   1  17
TORSDOF 8
ENDMDL
MODEL 4
REMARK VINA RESULT:      -7.8      5.570      7.168
REMARK SMILES O=S(=O)([N-]CC[NH2+]C/C=C/c1ccc(Br)cc1)c1cccc2cnccc12
REMARK SMILES IDX 6 1 5 2 4 3 2 4 1 5 3 6 18 7 19 8 27 9 20 10 26 11 22 12
REMARK SMILES IDX 21 13 25 14 23 15 24 16 7 17 8 20 9 21 10 22 11 23 12 24
REMARK SMILES IDX 17 25 13 26 16 27 14 28 15 29
REMARK H PARENT 7 18 7 19
ROOT
ATOM      1  C   UNL     1      26.076   8.069  10.077  1.00  0.00     0.238 C 
ENDROOT
BRANCH   1   2
ATOM      2  C   UNL     1      25.612   8.953   8.943  1.00  0.00    -0.070 C 
BRANCH   2   3
ATOM      3  N   UNL     1      25.659   8.238   7.686  1.00  0.00    -0.540 NA
BRANCH   3   4
ATOM      4  S   UNL     1      26.967   8.856   6.687  1.00  0.00     0.102 S 
ATOM      5  O   UNL     1      28.117   8.053   7.052  1.00  0.00    -0.244 OA
ATOM      6  O   UNL     1      27.182  10.266   7.170  1.00  0.00    -0.244 OA
BRANCH   4   7
ATOM      7  C   UNL     1      26.394   8.884   5.092  1.00  0.00     0.056 A 
ATOM      8  C   UNL     1      26.677   9.956   4.272  1.00  0.00     0.019 A 
ATOM      9  C   UNL     1      25.637   7.861   4.565  1.00  0.00     0.002 A 
ATOM     10  C   UNL     1      26.205   9.977   2.969  1.00  0.00     0.002 A 
ATOM     11  C   UNL     1      25.357   6.791   5.387  1.00  0.00     0.030 A 
ATOM     12  C   UNL     1      25.150   7.856   3.258  1.00  0.00     0.001 A 
ATOM     13  C   UNL     1      25.448   8.944   2.455  1.00  0.00     0.010 A 
ATOM     14  C   UNL     1      24.611   5.759   4.896  1.00  0.00     0.111 A 
ATOM     15  C   UNL     1      24.397   6.797   2.790  1.00  0.00     0.119 A 
ATOM     16  N   UNL     1      24.157   5.784   3.634  1.00  0.00    -0.264 NA
ENDBRANCH   4   7
ENDBRANCH   3   4
ENDBRANCH   2   3
ENDBRANCH   1   2
BRANCH   1  17
ATOM     17  N   UNL     1      26.917   6.993   9.640  1.00  0.00    -0.344 N 
ATOM     18  H   UNL     1      26.359   6.152   9.466  1.00  0.00     0.346 HD
ATOM     19  H   UNL     1      27.427   7.300   8.778  1.00  0.00     0.346 HD
BRANCH  17  20
ATOM     20  C   UNL     1      27.923   6.773  10.655  1.00  0.00     0.289 C 
BRANCH  20  21
ATOM     21  C   UNL     1      27.485   7.157  12.001  1.00  0.00     0.034 C 
ATOM     22  C   UNL     1      28.295   6.980  13.028  1.00  0.00     0.009 C 
BRANCH  22  23
ATOM     23  C   UNL     1      27.973   7.322  14.408  1.00  0.00    -0.026 A 
ATOM     24  C   UNL     1      26.741   7.853  14.718  1.00  0.00     0.009 A 
ATOM     25  C   UNL     1      28.848   7.142  15.452  1.00  0.00     0.009 A 
ATOM     26  C   UNL     1      26.379   8.195  16.008  1.00  0.00     0.016 A 
ATOM     27  C   UNL     1      28.492   7.486  16.763  1.00  0.00     0.016 A 
ATOM     28  C   UNL     1      27.259   8.014  17.052  1.00  0.00     0.018 A 
ATOM     29  Br  UNL     1      26.794   8.476  18.853  1.00  0.00    -0.051 Br
ENDBRANCH  22  23
ENDBRANCH  20  21
ENDBRANCH  17  20
ENDBRANCH   1  17
TORSDOF 8
ENDMDL
MODEL 5
REMARK VINA RESULT:      -7.8      6.034      6.932
REMARK SMILES O=S(=O)([N-]CC[NH2+]C/C=C/c1ccc(Br)cc1)c1cccc2cnccc12
REMARK SMILES IDX 6 1 5 2 4 3 2 4 1 5 3 6 18 7 19 8 27 9 20 10 26 11 22 12
REMARK SMILES IDX 21 13 25 14 23 15 24 16 7 17 8 20 9 21 10 22 11 23 12 24
REMARK SMILES IDX 17 25 13 26 16 27 14 28 15 29
REMARK H PARENT 7 18 7 19
ROOT
ATOM      1  C   UNL     1      24.259   8.029   7.987  1.00  0.00     0.238 C 
ENDROOT
BRANCH   1   2
ATOM      2  C   UNL     1      23.721   7.784   6.596  1.00  0.00    -0.070 C 
BRANCH   2   3
ATOM      3  N   UNL     1      24.649   8.268   5.598  1.00  0.00    -0.540 NA
BRANCH   3   4
ATOM      4  S   UNL     1      25.232   6.932   4.616  1.00  0.00     0.102 S 
ATOM      5  O   UNL     1      24.189   6.717   3.633  1.00  0.00    -0.244 OA
ATOM      6  O   UNL     1      25.268   5.756   5.556  1.00  0.00    -0.244 OA
BRANCH   4   7
ATOM      7  C   UNL     1      26.811   7.325   4.140  1.00  0.00     0.056 A 
ATOM      8  C   UNL     1      27.807   6.372   4.183  1.00  0.00     0.019 A 
ATOM      9  C   UNL     1      27.154   8.587   3.704  1.00  0.00     0.002 A 
ATOM     10  C   UNL     1      29.097   6.698   3.795  1.00  0.00     0.002 A 
ATOM     11  C   UNL     1      26.157   9.536   3.661  1.00  0.00     0.030 A 
ATOM     12  C   UNL     1      28.443   8.941   3.307  1.00  0.00     0.001 A 
ATOM     13  C   UNL     1      29.425   7.966   3.360  1.00  0.00     0.010 A 
ATOM     14  C   UNL     1      26.461  10.795   3.231  1.00  0.00     0.111 A 
ATOM     15  C   UNL     1      28.721  10.224   2.878  1.00  0.00     0.119 A 
ATOM     16  N   UNL     1      27.711  11.105   2.858  1.00  0.00    -0.264 NA
ENDBRANCH   4   7
ENDBRANCH   3   4
ENDBRANCH   2   3
ENDBRANCH   1   2
BRANCH   1  17
ATOM     17  N   UNL     1      25.365   7.179   8.317  1.00  0.00    -0.344 N 
ATOM     18  H   UNL     1      25.189   6.690   9.200  1.00  0.00     0.346 HD
ATOM     19  H   UNL     1      25.511   6.504   7.528  1.00  0.00     0.346 HD
BRANCH  17  20
ATOM     20  C   UNL     1      26.555   7.999   8.380  1.00  0.00     0.289 C 
BRANCH  20  21
ATOM     21  C   UNL     1      27.146   8.061   9.720  1.00  0.00     0.034 C 
ATOM     22  C   UNL     1      26.617   7.355  10.702  1.00  0.00     0.009 C 
BRANCH  22  23
ATOM     23  C   UNL     1      27.113   7.334  12.072  1.00  0.00    -0.026 A 
ATOM     24  C   UNL     1      28.435   7.037  12.322  1.00  0.00     0.009 A 
ATOM     25  C   UNL     1      26.324   7.601  13.164  1.00  0.00     0.009 A 
ATOM     26  C   UNL     1      28.962   7.003  13.600  1.00  0.00     0.016 A 
ATOM     27  C   UNL     1      26.848   7.569  14.463  1.00  0.00     0.016 A 
ATOM     28  C   UNL     1      28.167   7.270  14.692  1.00  0.00     0.018 A 
ATOM     29  Br  UNL     1      28.863   7.233  16.478  1.00  0.00    -0.051 Br
ENDBRANCH  22  23
ENDBRANCH  20  21
ENDBRANCH  17  20
ENDBRANCH   1  17
TORSDOF 8
ENDMDL
MODEL 6
REMARK VINA RESULT:      -7.8      5.717      7.709
REMARK SMILES O=S(=O)([N-]CC[NH2+]C/C=C/c1ccc(Br)cc1)c1cccc2cnccc12
REMARK SMILES IDX 6 1 5 2 4 3 2 4 1 5 3 6 18 7 19 8 27 9 20 10 26 11 22 12
REMARK SMILES IDX 21 13 25 14 23 15 24 16 7 17 8 20 9 21 10 22 11 23 12 24
REMARK SMILES IDX 17 25 13 26 16 27 14 28 15 29
REMARK H PARENT 7 18 7 19
ROOT
ATOM      1  C   UNL     1      26.246   8.171   9.889  1.00  0.00     0.238 C 
ENDROOT
BRANCH   1   2
ATOM      2  C   UNL     1      26.325   8.974   8.612  1.00  0.00    -0.070 C 
BRANCH   2   3
ATOM      3  N   UNL     1      26.949   8.200   7.561  1.00  0.00    -0.540 NA
BRANCH   3   4
ATOM      4  S   UNL     1      25.929   8.191   6.129  1.00  0.00     0.102 S 
ATOM      5  O   UNL     1      25.318   9.505   6.106  1.00  0.00    -0.244 OA
ATOM      6  O   UNL     1      24.868   7.164   6.424  1.00  0.00    -0.244 OA
BRANCH   4   7
ATOM      7  C   UNL     1      26.894   7.655   4.843  1.00  0.00     0.056 A 
ATOM      8  C   UNL     1      28.255   7.510   5.009  1.00  0.00     0.019 A 
ATOM      9  C   UNL     1      26.367   7.352   3.606  1.00  0.00     0.002 A 
ATOM     10  C   UNL     1      29.041   7.073   3.954  1.00  0.00     0.002 A 
ATOM     11  C   UNL     1      25.007   7.497   3.444  1.00  0.00     0.030 A 
ATOM     12  C   UNL     1      27.134   6.910   2.528  1.00  0.00     0.001 A 
ATOM     13  C   UNL     1      28.498   6.773   2.721  1.00  0.00     0.010 A 
ATOM     14  C   UNL     1      24.452   7.203   2.232  1.00  0.00     0.111 A 
ATOM     15  C   UNL     1      26.543   6.622   1.314  1.00  0.00     0.119 A 
ATOM     16  N   UNL     1      25.216   6.782   1.214  1.00  0.00    -0.264 NA
ENDBRANCH   4   7
ENDBRANCH   3   4
ENDBRANCH   2   3
ENDBRANCH   1   2
BRANCH   1  17
ATOM     17  N   UNL     1      26.911   6.904   9.796  1.00  0.00    -0.344 N 
ATOM     18  H   UNL     1      26.253   6.141   9.981  1.00  0.00     0.346 HD
ATOM     19  H   UNL     1      27.335   6.822   8.841  1.00  0.00     0.346 HD
BRANCH  17  20
ATOM     20  C   UNL     1      28.012   6.908  10.734  1.00  0.00     0.289 C 
BRANCH  20  21
ATOM     21  C   UNL     1      27.635   7.380  12.070  1.00  0.00     0.034 C 
ATOM     22  C   UNL     1      28.207   6.851  13.136  1.00  0.00     0.009 C 
BRANCH  22  23
ATOM     23  C   UNL     1      27.916   7.235  14.511  1.00  0.00    -0.026 A 
ATOM     24  C   UNL     1      26.730   7.866  14.815  1.00  0.00     0.009 A 
ATOM     25  C   UNL     1      28.776   7.001  15.557  1.00  0.00     0.009 A 
ATOM     26  C   UNL     1      26.400   8.253  16.101  1.00  0.00     0.016 A 
ATOM     27  C   UNL     1      28.452   7.390  16.863  1.00  0.00     0.016 A 
ATOM     28  C   UNL     1      27.265   8.017  17.147  1.00  0.00     0.018 A 
ATOM     29  Br  UNL     1      26.842   8.539  18.942  1.00  0.00    -0.051 Br
ENDBRANCH  22  23
ENDBRANCH  20  21
ENDBRANCH  17  20
ENDBRANCH   1  17
TORSDOF 8
ENDMDL
MODEL 7
REMARK VINA RESULT:      -7.8      0.468      1.019
REMARK SMILES O=S(=O)([N-]CC[NH2+]C/C=C/c1ccc(Br)cc1)c1cccc2cnccc12
REMARK SMILES IDX 6 1 5 2 4 3 2 4 1 5 3 6 18 7 19 8 27 9 20 10 26 11 22 12
REMARK SMILES IDX 21 13 25 14 23 15 24 16 7 17 8 20 9 21 10 22 11 23 12 24
REMARK SMILES IDX 17 25 13 26 16 27 14 28 15 29
REMARK H PARENT 7 18 7 19
ROOT
ATOM      1  C   UNL     1      26.649  10.341   8.663  1.00  0.00     0.238 C 
ENDROOT
BRANCH   1   2
ATOM      2  C   UNL     1      27.584  11.501   8.411  1.00  0.00    -0.070 C 
BRANCH   2   3
ATOM      3  N   UNL     1      27.401  12.530   9.411  1.00  0.00    -0.540 NA
BRANCH   3   4
ATOM      4  S   UNL     1      28.892  13.436   9.625  1.00  0.00     0.102 S 
ATOM      5  O   UNL     1      29.925  12.575   9.085  1.00  0.00    -0.244 OA
ATOM      6  O   UNL     1      29.069  13.532  11.118  1.00  0.00    -0.244 OA
BRANCH   4   7
ATOM      7  C   UNL     1      28.623  14.983   8.986  1.00  0.00     0.056 A 
ATOM      8  C   UNL     1      27.356  15.363   8.600  1.00  0.00     0.019 A 
ATOM      9  C   UNL     1      29.640  15.899   8.829  1.00  0.00     0.002 A 
ATOM     10  C   UNL     1      27.140  16.628   8.075  1.00  0.00     0.002 A 
ATOM     11  C   UNL     1      30.905  15.516   9.217  1.00  0.00     0.030 A 
ATOM     12  C   UNL     1      29.451  17.178   8.305  1.00  0.00     0.001 A 
ATOM     13  C   UNL     1      28.169  17.536   7.924  1.00  0.00     0.010 A 
ATOM     14  C   UNL     1      31.935  16.401   9.077  1.00  0.00     0.111 A 
ATOM     15  C   UNL     1      30.513  18.050   8.174  1.00  0.00     0.119 A 
ATOM     16  N   UNL     1      31.721  17.623   8.568  1.00  0.00    -0.264 NA
ENDBRANCH   4   7
ENDBRANCH   3   4
ENDBRANCH   2   3
ENDBRANCH   1   2
BRANCH   1  17
ATOM     17  N   UNL     1      27.095   9.121   8.056  1.00  0.00    -0.344 N 
ATOM     18  H   UNL     1      27.041   9.190   7.035  1.00  0.00     0.346 HD
ATOM     19  H   UNL     1      28.073   8.929   8.376  1.00  0.00     0.346 HD
BRANCH  17  20
ATOM     20  C   UNL     1      26.277   8.043   8.568  1.00  0.00     0.289 C 
BRANCH  20  21
ATOM     21  C   UNL     1      26.308   7.935  10.029  1.00  0.00     0.034 C 
ATOM     22  C   UNL     1      27.416   7.549  10.634  1.00  0.00     0.009 C 
BRANCH  22  23
ATOM     23  C   UNL     1      27.569   7.405  12.076  1.00  0.00    -0.026 A 
ATOM     24  C   UNL     1      28.722   6.860  12.596  1.00  0.00     0.009 A 
ATOM     25  C   UNL     1      26.607   7.790  12.978  1.00  0.00     0.009 A 
ATOM     26  C   UNL     1      28.923   6.698  13.955  1.00  0.00     0.016 A 
ATOM     27  C   UNL     1      26.800   7.631  14.356  1.00  0.00     0.016 A 
ATOM     28  C   UNL     1      27.956   7.085  14.856  1.00  0.00     0.018 A 
ATOM     29  Br  UNL     1      28.199   6.878  16.746  1.00  0.00    -0.051 Br
ENDBRANCH  22  23
ENDBRANCH  20  21
ENDBRANCH  17  20
ENDBRANCH   1  17
TORSDOF 8
ENDMDL
MODEL 8
REMARK VINA RESULT:      -7.8      5.307      8.630
REMARK SMILES O=S(=O)([N-]CC[NH2+]C/C=C/c1ccc(Br)cc1)c1cccc2cnccc12
REMARK SMILES IDX 6 1 5 2 4 3 2 4 1 5 3 6 18 7 19 8 27 9 20 10 26 11 22 12
REMARK SMILES IDX 21 13 25 14 23 15 24 16 7 17 8 20 9 21 10 22 11 23 12 24
REMARK SMILES IDX 17 25 13 26 16 27 14 28 15 29
REMARK H PARENT 7 18 7 19
ROOT
ATOM      1  C   UNL     1      26.176  10.149   7.964  1.00  0.00     0.238 C 
ENDROOT
BRANCH   1   2
ATOM      2  C   UNL     1      25.070   9.189   7.593  1.00  0.00    -0.070 C 
BRANCH   2   3
ATOM      3  N   UNL     1      25.016   9.001   6.160  1.00  0.00    -0.540 NA
BRANCH   3   4
ATOM      4  S   UNL     1      24.492   7.366   5.783  1.00  0.00     0.102 S 
ATOM      5  O   UNL     1      23.152   7.276   6.328  1.00  0.00    -0.244 OA
ATOM      6  O   UNL     1      25.406   6.479   6.587  1.00  0.00    -0.244 OA
BRANCH   4   7
ATOM      7  C   UNL     1      24.780   7.127   4.130  1.00  0.00     0.056 A 
ATOM      8  C   UNL     1      25.105   8.195   3.320  1.00  0.00     0.019 A 
ATOM      9  C   UNL     1      24.698   5.883   3.543  1.00  0.00     0.002 A 
ATOM     10  C   UNL     1      25.338   7.995   1.968  1.00  0.00     0.002 A 
ATOM     11  C   UNL     1      24.373   4.819   4.355  1.00  0.00     0.030 A 
ATOM     12  C   UNL     1      24.927   5.655   2.186  1.00  0.00     0.001 A 
ATOM     13  C   UNL     1      25.252   6.743   1.395  1.00  0.00     0.010 A 
ATOM     14  C   UNL     1      24.286   3.572   3.806  1.00  0.00     0.111 A 
ATOM     15  C   UNL     1      24.830   4.382   1.660  1.00  0.00     0.119 A 
ATOM     16  N   UNL     1      24.511   3.385   2.497  1.00  0.00    -0.264 NA
ENDBRANCH   4   7
ENDBRANCH   3   4
ENDBRANCH   2   3
ENDBRANCH   1   2
BRANCH   1  17
ATOM     17  N   UNL     1      27.478   9.669   7.601  1.00  0.00    -0.344 N 
ATOM     18  H   UNL     1      27.578   9.645   6.582  1.00  0.00     0.346 HD
ATOM     19  H   UNL     1      28.196  10.291   8.043  1.00  0.00     0.346 HD
BRANCH  17  20
ATOM     20  C   UNL     1      27.651   8.360   8.193  1.00  0.00     0.289 C 
BRANCH  20  21
ATOM     21  C   UNL     1      27.843   8.401   9.645  1.00  0.00     0.034 C 
ATOM     22  C   UNL     1      27.423   7.394  10.389  1.00  0.00     0.009 C 
BRANCH  22  23
ATOM     23  C   UNL     1      27.557   7.320  11.839  1.00  0.00    -0.026 A 
ATOM     24  C   UNL     1      28.763   6.968  12.403  1.00  0.00     0.009 A 
ATOM     25  C   UNL     1      26.525   7.587  12.705  1.00  0.00     0.009 A 
ATOM     26  C   UNL     1      28.949   6.881  13.770  1.00  0.00     0.016 A 
ATOM     27  C   UNL     1      26.703   7.501  14.092  1.00  0.00     0.016 A 
ATOM     28  C   UNL     1      27.912   7.149  14.636  1.00  0.00     0.018 A 
ATOM     29  Br  UNL     1      28.132   7.039  16.537  1.00  0.00    -0.051 Br
ENDBRANCH  22  23
ENDBRANCH  20  21
ENDBRANCH  17  20
ENDBRANCH   1  17
TORSDOF 8
ENDMDL
MODEL 9
REMARK VINA RESULT:      -7.7      6.612     10.418
REMARK SMILES O=S(=O)([N-]CC[NH2+]C/C=C/c1ccc(Br)cc1)c1cccc2cnccc12
REMARK SMILES IDX 6 1 5 2 4 3 2 4 1 5 3 6 18 7 19 8 27 9 20 10 26 11 22 12
REMARK SMILES IDX 21 13 25 14 23 15 24 16 7 17 8 20 9 21 10 22 11 23 12 24
REMARK SMILES IDX 17 25 13 26 16 27 14 28 15 29
REMARK H PARENT 7 18 7 19
ROOT
ATOM      1  C   UNL     1      26.205  10.327   3.841  1.00  0.00     0.238 C 
ENDROOT
BRANCH   1   2
ATOM      2  C   UNL     1      27.464   9.502   3.706  1.00  0.00    -0.070 C 
BRANCH   2   3
ATOM      3  N   UNL     1      27.141   8.106   3.505  1.00  0.00    -0.540 NA
BRANCH   3   4
ATOM      4  S   UNL     1      27.247   7.235   5.028  1.00  0.00     0.102 S 
ATOM      5  O   UNL     1      28.608   7.449   5.478  1.00  0.00    -0.244 OA
ATOM      6  O   UNL     1      27.079   5.787   4.651  1.00  0.00    -0.244 OA
BRANCH   4   7
ATOM      7  C   UNL     1      25.929   7.733   5.971  1.00  0.00     0.056 A 
ATOM      8  C   UNL     1      24.650   7.337   5.639  1.00  0.00     0.019 A 
ATOM      9  C   UNL     1      26.081   8.536   7.080  1.00  0.00     0.002 A 
ATOM     10  C   UNL     1      23.575   7.748   6.411  1.00  0.00     0.002 A 
ATOM     11  C   UNL     1      27.360   8.927   7.409  1.00  0.00     0.030 A 
ATOM     12  C   UNL     1      25.017   8.962   7.874  1.00  0.00     0.001 A 
ATOM     13  C   UNL     1      23.743   8.553   7.520  1.00  0.00     0.010 A 
ATOM     14  C   UNL     1      27.546   9.721   8.503  1.00  0.00     0.111 A 
ATOM     15  C   UNL     1      25.237   9.767   8.975  1.00  0.00     0.119 A 
ATOM     16  N   UNL     1      26.502  10.116   9.246  1.00  0.00    -0.264 NA
ENDBRANCH   4   7
ENDBRANCH   3   4
ENDBRANCH   2   3
ENDBRANCH   1   2
BRANCH   1  17
ATOM     17  N   UNL     1      26.420  11.568   4.526  1.00  0.00    -0.344 N 
ATOM     18  H   UNL     1      25.733  11.686   5.277  1.00  0.00     0.346 HD
ATOM     19  H   UNL     1      27.400  11.576   4.898  1.00  0.00     0.346 HD
BRANCH  17  20
ATOM     20  C   UNL     1      26.344  12.634   3.551  1.00  0.00     0.289 C 
BRANCH  20  21
ATOM     21  C   UNL     1      25.254  13.580   3.810  1.00  0.00     0.034 C 
ATOM     22  C   UNL     1      24.375  13.842   2.860  1.00  0.00     0.009 C 
BRANCH  22  23
ATOM     23  C   UNL     1      23.252  14.760   2.998  1.00  0.00    -0.026 A 
ATOM     24  C   UNL     1      23.475  16.074   3.346  1.00  0.00     0.009 A 
ATOM     25  C   UNL     1      21.945  14.388   2.795  1.00  0.00     0.009 A 
ATOM     26  C   UNL     1      22.449  16.991   3.490  1.00  0.00     0.016 A 
ATOM     27  C   UNL     1      20.899  15.309   2.939  1.00  0.00     0.016 A 
ATOM     28  C   UNL     1      21.140  16.614   3.287  1.00  0.00     0.018 A 
ATOM     29  Br  UNL     1      19.693  17.856   3.477  1.00  0.00    -0.051 Br
ENDBRANCH  22  23
ENDBRANCH  20  21
ENDBRANCH  17  20
ENDBRANCH   1  17
TORSDOF 8
ENDMDL
