MODEL 1
REMARK VINA RESULT:      -8.0      0.000      0.000
REMARK SMILES O=c1c([O-])c(-c2ccccc2)oc2cc([O-])cc([O-])c12
REMARK SMILES IDX 1 1 2 2 3 3 4 4 5 5 12 6 13 7 14 8 15 9 16 10 17 11 18 12
REMARK SMILES IDX 19 13 20 14 6 15 7 16 11 17 8 18 10 19 9 20
REMARK H PARENT
ROOT
ATOM      1  O   UNL     1     -24.545 -37.596 -21.298  1.00  0.00    -0.290 OA
ATOM      2  C   UNL     1     -24.817 -36.623 -20.565  1.00  0.00     0.184 A 
ATOM      3  C   UNL     1     -26.178 -36.264 -20.475  1.00  0.00    -0.014 A 
ATOM      4  O   UNL     1     -27.113 -36.976 -21.174  1.00  0.00    -0.867 OA
ATOM      5  C   UNL     1     -26.508 -35.205 -19.681  1.00  0.00     0.130 A 
ATOM      6  O   UNL     1     -25.525 -34.554 -19.024  1.00  0.00    -0.457 OA
ATOM      7  C   UNL     1     -24.288 -34.873 -19.101  1.00  0.00     0.137 A 
ATOM      8  C   UNL     1     -23.338 -34.173 -18.408  1.00  0.00     0.039 A 
ATOM      9  C   UNL     1     -21.998 -34.490 -18.468  1.00  0.00    -0.106 A 
ATOM     10  O   UNL     1     -21.053 -33.756 -17.750  1.00  0.00    -0.872 OA
ATOM     11  C   UNL     1     -21.597 -35.565 -19.263  1.00  0.00    -0.016 A 
ATOM     12  C   UNL     1     -22.523 -36.288 -19.970  1.00  0.00    -0.094 A 
ATOM     13  O   UNL     1     -22.118 -37.347 -20.753  1.00  0.00    -0.872 OA
ATOM     14  C   UNL     1     -23.846 -35.933 -19.877  1.00  0.00     0.056 A 
ENDROOT
BRANCH   5  15
ATOM     15  C   UNL     1     -27.872 -34.740 -19.508  1.00  0.00     0.017 A 
ATOM     16  C   UNL     1     -28.412 -33.567 -19.931  1.00  0.00     0.012 A 
ATOM     17  C   UNL     1     -28.766 -35.583 -18.827  1.00  0.00     0.012 A 
ATOM     18  C   UNL     1     -29.736 -33.215 -19.716  1.00  0.00     0.001 A 
ATOM     19  C   UNL     1     -30.082 -35.249 -18.605  1.00  0.00     0.001 A 
ATOM     20  C   UNL     1     -30.589 -34.051 -19.050  1.00  0.00     0.000 A 
ENDBRANCH   5  15
TORSDOF 1
ENDMDL
MODEL 2
REMARK VINA RESULT:      -7.1      4.328      7.077
REMARK SMILES O=c1c([O-])c(-c2ccccc2)oc2cc([O-])cc([O-])c12
REMARK SMILES IDX 1 1 2 2 3 3 4 4 5 5 12 6 13 7 14 8 15 9 16 10 17 11 18 12
REMARK SMILES IDX 19 13 20 14 6 15 7 16 11 17 8 18 10 19 9 20
REMARK H PARENT
ROOT
ATOM      1  O   UNL     1     -17.339 -37.924 -18.662  1.00  0.00    -0.290 OA
ATOM      2  C   UNL     1     -17.743 -36.744 -18.720  1.00  0.00     0.184 A 
ATOM      3  C   UNL     1     -19.141 -36.555 -18.679  1.00  0.00    -0.014 A 
ATOM      4  O   UNL     1     -19.967 -37.640 -18.580  1.00  0.00    -0.867 OA
ATOM      5  C   UNL     1     -19.614 -35.277 -18.739  1.00  0.00     0.130 A 
ATOM      6  O   UNL     1     -18.732 -34.261 -18.837  1.00  0.00    -0.457 OA
ATOM      7  C   UNL     1     -17.463 -34.424 -18.875  1.00  0.00     0.137 A 
ATOM      8  C   UNL     1     -16.620 -33.350 -18.974  1.00  0.00     0.039 A 
ATOM      9  C   UNL     1     -15.250 -33.489 -19.017  1.00  0.00    -0.106 A 
ATOM     10  O   UNL     1     -14.417 -32.374 -19.118  1.00  0.00    -0.872 OA
ATOM     11  C   UNL     1     -14.703 -34.773 -18.958  1.00  0.00    -0.016 A 
ATOM     12  C   UNL     1     -15.519 -35.870 -18.860  1.00  0.00    -0.094 A 
ATOM     13  O   UNL     1     -14.971 -37.134 -18.802  1.00  0.00    -0.872 OA
ATOM     14  C   UNL     1     -16.878 -35.678 -18.819  1.00  0.00     0.056 A 
ENDROOT
BRANCH   5  15
ATOM     15  C   UNL     1     -21.029 -34.956 -18.706  1.00  0.00     0.017 A 
ATOM     16  C   UNL     1     -21.731 -34.388 -17.691  1.00  0.00     0.012 A 
ATOM     17  C   UNL     1     -21.792 -35.256 -19.848  1.00  0.00     0.012 A 
ATOM     18  C   UNL     1     -23.089 -34.118 -17.758  1.00  0.00     0.001 A 
ATOM     19  C   UNL     1     -23.141 -34.996 -19.931  1.00  0.00     0.001 A 
ATOM     20  C   UNL     1     -23.813 -34.419 -18.879  1.00  0.00     0.000 A 
ENDBRANCH   5  15
TORSDOF 1
ENDMDL
MODEL 3
REMARK VINA RESULT:      -6.9      0.541      1.168
REMARK SMILES O=c1c([O-])c(-c2ccccc2)oc2cc([O-])cc([O-])c12
REMARK SMILES IDX 1 1 2 2 3 3 4 4 5 5 12 6 13 7 14 8 15 9 16 10 17 11 18 12
REMARK SMILES IDX 19 13 20 14 6 15 7 16 11 17 8 18 10 19 9 20
REMARK H PARENT
ROOT
ATOM      1  O   UNL     1     -24.962 -37.480 -21.797  1.00  0.00    -0.290 OA
ATOM      2  C   UNL     1     -25.121 -36.646 -20.882  1.00  0.00     0.184 A 
ATOM      3  C   UNL     1     -26.438 -36.189 -20.668  1.00  0.00    -0.014 A 
ATOM      4  O   UNL     1     -27.455 -36.666 -21.449  1.00  0.00    -0.867 OA
ATOM      5  C   UNL     1     -26.644 -35.277 -19.674  1.00  0.00     0.130 A 
ATOM      6  O   UNL     1     -25.587 -34.856 -18.949  1.00  0.00    -0.457 OA
ATOM      7  C   UNL     1     -24.389 -35.265 -19.137  1.00  0.00     0.137 A 
ATOM      8  C   UNL     1     -23.359 -34.800 -18.365  1.00  0.00     0.039 A 
ATOM      9  C   UNL     1     -22.058 -35.219 -18.541  1.00  0.00    -0.106 A 
ATOM     10  O   UNL     1     -21.029 -34.725 -17.737  1.00  0.00    -0.872 OA
ATOM     11  C   UNL     1     -21.783 -36.153 -19.542  1.00  0.00    -0.016 A 
ATOM     12  C   UNL     1     -22.791 -36.639 -20.333  1.00  0.00    -0.094 A 
ATOM     13  O   UNL     1     -22.510 -37.560 -21.319  1.00  0.00    -0.872 OA
ATOM     14  C   UNL     1     -24.070 -36.191 -20.118  1.00  0.00     0.056 A 
ENDROOT
BRANCH   5  15
ATOM     15  C   UNL     1     -27.952 -34.733 -19.359  1.00  0.00     0.017 A 
ATOM     16  C   UNL     1     -28.915 -35.281 -18.573  1.00  0.00     0.012 A 
ATOM     17  C   UNL     1     -28.292 -33.490 -19.919  1.00  0.00     0.012 A 
ATOM     18  C   UNL     1     -30.140 -34.677 -18.331  1.00  0.00     0.001 A 
ATOM     19  C   UNL     1     -29.502 -32.876 -19.690  1.00  0.00     0.001 A 
ATOM     20  C   UNL     1     -30.450 -33.466 -18.887  1.00  0.00     0.000 A 
ENDBRANCH   5  15
TORSDOF 1
ENDMDL
MODEL 4
REMARK VINA RESULT:      -6.8      9.234     12.889
REMARK SMILES O=c1c([O-])c(-c2ccccc2)oc2cc([O-])cc([O-])c12
REMARK SMILES IDX 1 1 2 2 3 3 4 4 5 5 12 6 13 7 14 8 15 9 16 10 17 11 18 12
REMARK SMILES IDX 19 13 20 14 6 15 7 16 11 17 8 18 10 19 9 20
REMARK H PARENT
ROOT
ATOM      1  O   UNL     1     -16.976 -33.215 -18.367  1.00  0.00    -0.290 OA
ATOM      2  C   UNL     1     -15.860 -33.658 -18.709  1.00  0.00     0.184 A 
ATOM      3  C   UNL     1     -14.786 -32.743 -18.692  1.00  0.00    -0.014 A 
ATOM      4  O   UNL     1     -15.008 -31.447 -18.314  1.00  0.00    -0.867 OA
ATOM      5  C   UNL     1     -13.554 -33.197 -19.060  1.00  0.00     0.130 A 
ATOM      6  O   UNL     1     -13.419 -34.490 -19.421  1.00  0.00    -0.457 OA
ATOM      7  C   UNL     1     -14.387 -35.327 -19.439  1.00  0.00     0.137 A 
ATOM      8  C   UNL     1     -14.185 -36.627 -19.815  1.00  0.00     0.039 A 
ATOM      9  C   UNL     1     -15.204 -37.554 -19.846  1.00  0.00    -0.106 A 
ATOM     10  O   UNL     1     -14.966 -38.873 -20.234  1.00  0.00    -0.872 OA
ATOM     11  C   UNL     1     -16.490 -37.150 -19.479  1.00  0.00    -0.016 A 
ATOM     12  C   UNL     1     -16.727 -35.855 -19.098  1.00  0.00    -0.094 A 
ATOM     13  O   UNL     1     -17.999 -35.465 -18.738  1.00  0.00    -0.872 OA
ATOM     14  C   UNL     1     -15.678 -34.970 -19.083  1.00  0.00     0.056 A 
ENDROOT
BRANCH   5  15
ATOM     15  C   UNL     1     -12.374 -32.352 -19.084  1.00  0.00     0.017 A 
ATOM     16  C   UNL     1     -11.464 -32.220 -20.084  1.00  0.00     0.012 A 
ATOM     17  C   UNL     1     -12.116 -31.562 -17.951  1.00  0.00     0.012 A 
ATOM     18  C   UNL     1     -10.364 -31.379 -20.010  1.00  0.00     0.001 A 
ATOM     19  C   UNL     1     -11.030 -30.722 -17.860  1.00  0.00     0.001 A 
ATOM     20  C   UNL     1     -10.132 -30.619 -18.897  1.00  0.00     0.000 A 
ENDBRANCH   5  15
TORSDOF 1
ENDMDL
MODEL 5
REMARK VINA RESULT:      -6.4      4.165      6.860
REMARK SMILES O=c1c([O-])c(-c2ccccc2)oc2cc([O-])cc([O-])c12
REMARK SMILES IDX 1 1 2 2 3 3 4 4 5 5 12 6 13 7 14 8 15 9 16 10 17 11 18 12
REMARK SMILES IDX 19 13 20 14 6 15 7 16 11 17 8 18 10 19 9 20
REMARK H PARENT
ROOT
ATOM      1  O   UNL     1     -17.599 -38.057 -18.745  1.00  0.00    -0.290 OA
ATOM      2  C   UNL     1     -18.002 -36.875 -18.766  1.00  0.00     0.184 A 
ATOM      3  C   UNL     1     -19.397 -36.684 -18.668  1.00  0.00    -0.014 A 
ATOM      4  O   UNL     1     -20.222 -37.770 -18.558  1.00  0.00    -0.867 OA
ATOM      5  C   UNL     1     -19.869 -35.405 -18.688  1.00  0.00     0.130 A 
ATOM      6  O   UNL     1     -18.989 -34.389 -18.801  1.00  0.00    -0.457 OA
ATOM      7  C   UNL     1     -17.722 -34.553 -18.890  1.00  0.00     0.137 A 
ATOM      8  C   UNL     1     -16.881 -33.480 -19.001  1.00  0.00     0.039 A 
ATOM      9  C   UNL     1     -15.513 -33.621 -19.099  1.00  0.00    -0.106 A 
ATOM     10  O   UNL     1     -14.682 -32.506 -19.212  1.00  0.00    -0.872 OA
ATOM     11  C   UNL     1     -14.968 -34.906 -19.084  1.00  0.00    -0.016 A 
ATOM     12  C   UNL     1     -15.783 -36.003 -18.974  1.00  0.00    -0.094 A 
ATOM     13  O   UNL     1     -15.236 -37.269 -18.960  1.00  0.00    -0.872 OA
ATOM     14  C   UNL     1     -17.138 -35.810 -18.879  1.00  0.00     0.056 A 
ENDROOT
BRANCH   5  15
ATOM     15  C   UNL     1     -21.281 -35.081 -18.596  1.00  0.00     0.017 A 
ATOM     16  C   UNL     1     -22.335 -35.820 -19.032  1.00  0.00     0.012 A 
ATOM     17  C   UNL     1     -21.631 -33.865 -17.986  1.00  0.00     0.012 A 
ATOM     18  C   UNL     1     -23.656 -35.420 -18.894  1.00  0.00     0.001 A 
ATOM     19  C   UNL     1     -22.937 -33.454 -17.841  1.00  0.00     0.001 A 
ATOM     20  C   UNL     1     -23.975 -34.232 -18.297  1.00  0.00     0.000 A 
ENDBRANCH   5  15
TORSDOF 1
ENDMDL
MODEL 6
REMARK VINA RESULT:      -6.2      0.972      1.048
REMARK SMILES O=c1c([O-])c(-c2ccccc2)oc2cc([O-])cc([O-])c12
REMARK SMILES IDX 1 1 2 2 3 3 4 4 5 5 12 6 13 7 14 8 15 9 16 10 17 11 18 12
REMARK SMILES IDX 19 13 20 14 6 15 7 16 11 17 8 18 10 19 9 20
REMARK H PARENT
ROOT
ATOM      1  O   UNL     1     -25.737 -37.162 -21.950  1.00  0.00    -0.290 OA
ATOM      2  C   UNL     1     -25.769 -36.384 -20.974  1.00  0.00     0.184 A 
ATOM      3  C   UNL     1     -27.021 -35.814 -20.663  1.00  0.00    -0.014 A 
ATOM      4  O   UNL     1     -28.114 -36.129 -21.423  1.00  0.00    -0.867 OA
ATOM      5  C   UNL     1     -27.089 -34.961 -19.601  1.00  0.00     0.130 A 
ATOM      6  O   UNL     1     -25.964 -34.702 -18.903  1.00  0.00    -0.457 OA
ATOM      7  C   UNL     1     -24.823 -35.214 -19.178  1.00  0.00     0.137 A 
ATOM      8  C   UNL     1     -23.719 -34.912 -18.430  1.00  0.00     0.039 A 
ATOM      9  C   UNL     1     -22.476 -35.445 -18.698  1.00  0.00    -0.106 A 
ATOM     10  O   UNL     1     -21.369 -35.117 -17.917  1.00  0.00    -0.872 OA
ATOM     11  C   UNL     1     -22.343 -36.327 -19.773  1.00  0.00    -0.016 A 
ATOM     12  C   UNL     1     -23.430 -36.651 -20.543  1.00  0.00    -0.094 A 
ATOM     13  O   UNL     1     -23.288 -37.522 -21.602  1.00  0.00    -0.872 OA
ATOM     14  C   UNL     1     -24.645 -36.094 -20.234  1.00  0.00     0.056 A 
ENDROOT
BRANCH   5  15
ATOM     15  C   UNL     1     -28.319 -34.313 -19.184  1.00  0.00     0.017 A 
ATOM     16  C   UNL     1     -28.856 -33.160 -19.664  1.00  0.00     0.012 A 
ATOM     17  C   UNL     1     -29.066 -34.928 -18.166  1.00  0.00     0.012 A 
ATOM     18  C   UNL     1     -30.045 -32.621 -19.196  1.00  0.00     0.001 A 
ATOM     19  C   UNL     1     -30.247 -34.406 -17.691  1.00  0.00     0.001 A 
ATOM     20  C   UNL     1     -30.757 -33.236 -18.203  1.00  0.00     0.000 A 
ENDBRANCH   5  15
TORSDOF 1
ENDMDL
MODEL 7
REMARK VINA RESULT:      -6.2      4.838      9.424
REMARK SMILES O=c1c([O-])c(-c2ccccc2)oc2cc([O-])cc([O-])c12
REMARK SMILES IDX 1 1 2 2 3 3 4 4 5 5 12 6 13 7 14 8 15 9 16 10 17 11 18 12
REMARK SMILES IDX 19 13 20 14 6 15 7 16 11 17 8 18 10 19 9 20
REMARK H PARENT
ROOT
ATOM      1  O   UNL     1     -18.534 -37.871 -18.435  1.00  0.00    -0.290 OA
ATOM      2  C   UNL     1     -18.560 -36.633 -18.591  1.00  0.00     0.184 A 
ATOM      3  C   UNL     1     -17.314 -35.992 -18.756  1.00  0.00    -0.014 A 
ATOM      4  O   UNL     1     -16.165 -36.734 -18.738  1.00  0.00    -0.867 OA
ATOM      5  C   UNL     1     -17.310 -34.639 -18.929  1.00  0.00     0.130 A 
ATOM      6  O   UNL     1     -18.487 -33.981 -18.933  1.00  0.00    -0.457 OA
ATOM      7  C   UNL     1     -19.622 -34.554 -18.784  1.00  0.00     0.137 A 
ATOM      8  C   UNL     1     -20.782 -33.829 -18.799  1.00  0.00     0.039 A 
ATOM      9  C   UNL     1     -22.020 -34.414 -18.642  1.00  0.00    -0.106 A 
ATOM     10  O   UNL     1     -23.186 -33.647 -18.661  1.00  0.00    -0.872 OA
ATOM     11  C   UNL     1     -22.091 -35.797 -18.461  1.00  0.00    -0.016 A 
ATOM     12  C   UNL     1     -20.948 -36.553 -18.441  1.00  0.00    -0.094 A 
ATOM     13  O   UNL     1     -21.027 -37.917 -18.262  1.00  0.00    -0.872 OA
ATOM     14  C   UNL     1     -19.739 -35.923 -18.603  1.00  0.00     0.056 A 
ENDROOT
BRANCH   5  15
ATOM     15  C   UNL     1     -16.093 -33.868 -19.107  1.00  0.00     0.017 A 
ATOM     16  C   UNL     1     -15.739 -32.714 -18.484  1.00  0.00     0.012 A 
ATOM     17  C   UNL     1     -15.147 -34.350 -20.028  1.00  0.00     0.012 A 
ATOM     18  C   UNL     1     -14.545 -32.052 -18.725  1.00  0.00     0.001 A 
ATOM     19  C   UNL     1     -13.958 -33.705 -20.279  1.00  0.00     0.001 A 
ATOM     20  C   UNL     1     -13.638 -32.537 -19.626  1.00  0.00     0.000 A 
ENDBRANCH   5  15
TORSDOF 1
ENDMDL
MODEL 8
REMARK VINA RESULT:      -5.9      5.009      9.633
REMARK SMILES O=c1c([O-])c(-c2ccccc2)oc2cc([O-])cc([O-])c12
REMARK SMILES IDX 1 1 2 2 3 3 4 4 5 5 12 6 13 7 14 8 15 9 16 10 17 11 18 12
REMARK SMILES IDX 19 13 20 14 6 15 7 16 11 17 8 18 10 19 9 20
REMARK H PARENT
ROOT
ATOM      1  O   UNL     1     -18.568 -38.079 -18.597  1.00  0.00    -0.290 OA
ATOM      2  C   UNL     1     -18.470 -36.835 -18.648  1.00  0.00     0.184 A 
ATOM      3  C   UNL     1     -17.164 -36.310 -18.746  1.00  0.00    -0.014 A 
ATOM      4  O   UNL     1     -16.094 -37.161 -18.780  1.00  0.00    -0.867 OA
ATOM      5  C   UNL     1     -17.024 -34.954 -18.805  1.00  0.00     0.130 A 
ATOM      6  O   UNL     1     -18.131 -34.184 -18.765  1.00  0.00    -0.457 OA
ATOM      7  C   UNL     1     -19.319 -34.652 -18.676  1.00  0.00     0.137 A 
ATOM      8  C   UNL     1     -20.402 -33.817 -18.641  1.00  0.00     0.039 A 
ATOM      9  C   UNL     1     -21.694 -34.287 -18.545  1.00  0.00    -0.106 A 
ATOM     10  O   UNL     1     -22.778 -33.409 -18.511  1.00  0.00    -0.872 OA
ATOM     11  C   UNL     1     -21.903 -35.667 -18.483  1.00  0.00    -0.016 A 
ATOM     12  C   UNL     1     -20.840 -36.531 -18.515  1.00  0.00    -0.094 A 
ATOM     13  O   UNL     1     -21.056 -37.891 -18.452  1.00  0.00    -0.872 OA
ATOM     14  C   UNL     1     -19.573 -36.013 -18.611  1.00  0.00     0.056 A 
ENDROOT
BRANCH   5  15
ATOM     15  C   UNL     1     -15.734 -34.296 -18.906  1.00  0.00     0.017 A 
ATOM     16  C   UNL     1     -14.504 -34.873 -18.929  1.00  0.00     0.012 A 
ATOM     17  C   UNL     1     -15.724 -32.894 -18.994  1.00  0.00     0.012 A 
ATOM     18  C   UNL     1     -13.325 -34.152 -19.031  1.00  0.00     0.001 A 
ATOM     19  C   UNL     1     -14.563 -32.163 -19.095  1.00  0.00     0.001 A 
ATOM     20  C   UNL     1     -13.337 -32.787 -19.115  1.00  0.00     0.000 A 
ENDBRANCH   5  15
TORSDOF 1
ENDMDL
MODEL 9
REMARK VINA RESULT:      -5.7      1.758      6.052
REMARK SMILES O=c1c([O-])c(-c2ccccc2)oc2cc([O-])cc([O-])c12
REMARK SMILES IDX 1 1 2 2 3 3 4 4 5 5 12 6 13 7 14 8 15 9 16 10 17 11 18 12
REMARK SMILES IDX 19 13 20 14 6 15 7 16 11 17 8 18 10 19 9 20
REMARK H PARENT
ROOT
ATOM      1  O   UNL     1     -28.137 -37.365 -20.595  1.00  0.00    -0.290 OA
ATOM      2  C   UNL     1     -27.650 -36.375 -20.011  1.00  0.00     0.184 A 
ATOM      3  C   UNL     1     -26.242 -36.304 -19.958  1.00  0.00    -0.014 A 
ATOM      4  O   UNL     1     -25.493 -37.293 -20.534  1.00  0.00    -0.867 OA
ATOM      5  C   UNL     1     -25.680 -35.234 -19.326  1.00  0.00     0.130 A 
ATOM      6  O   UNL     1     -26.489 -34.301 -18.783  1.00  0.00    -0.457 OA
ATOM      7  C   UNL     1     -27.767 -34.358 -18.826  1.00  0.00     0.137 A 
ATOM      8  C   UNL     1     -28.533 -33.378 -18.256  1.00  0.00     0.039 A 
ATOM      9  C   UNL     1     -29.911 -33.408 -18.283  1.00  0.00    -0.106 A 
ATOM     10  O   UNL     1     -30.664 -32.393 -17.692  1.00  0.00    -0.872 OA
ATOM     11  C   UNL     1     -30.546 -34.478 -18.917  1.00  0.00    -0.016 A 
ATOM     12  C   UNL     1     -29.808 -35.477 -19.498  1.00  0.00    -0.094 A 
ATOM     13  O   UNL     1     -30.444 -36.530 -20.120  1.00  0.00    -0.872 OA
ATOM     14  C   UNL     1     -28.439 -35.400 -19.444  1.00  0.00     0.056 A 
ENDROOT
BRANCH   5  15
ATOM     15  C   UNL     1     -24.245 -35.050 -19.207  1.00  0.00     0.017 A 
ATOM     16  C   UNL     1     -23.271 -35.558 -20.007  1.00  0.00     0.012 A 
ATOM     17  C   UNL     1     -23.777 -34.255 -18.147  1.00  0.00     0.012 A 
ATOM     18  C   UNL     1     -21.919 -35.320 -19.808  1.00  0.00     0.001 A 
ATOM     19  C   UNL     1     -22.439 -34.010 -17.935  1.00  0.00     0.001 A 
ATOM     20  C   UNL     1     -21.485 -34.544 -18.770  1.00  0.00     0.000 A 
ENDBRANCH   5  15
TORSDOF 1
ENDMDL
