MODEL 1
REMARK VINA RESULT:      -5.6      0.000      0.000
REMARK SMILES O=C(CCCN1CCC(O)(c2ccc(Cl)cc2)CC1)c1ccc(F)cc1
REMARK SMILES IDX 4 1 3 2 2 3 1 4 20 5 21 6 26 7 22 8 25 9 23 10 24 11 5 12
REMARK SMILES IDX 6 13 7 14 19 15 8 16 18 17 9 18 10 19 11 21 12 22 17 23
REMARK SMILES IDX 13 24 16 25 14 26 15 27
REMARK H PARENT 10 20
ROOT
ATOM      1  C   UNL     1      18.143  -0.250   7.165  1.00  0.00     0.024 C 
ENDROOT
BRANCH   1   2
ATOM      2  C   UNL     1      17.977   0.956   6.274  1.00  0.00     0.082 C 
BRANCH   2   3
ATOM      3  C   UNL     1      17.231   0.674   5.026  1.00  0.00     0.162 C 
ATOM      4  O   UNL     1      16.025   1.006   4.914  1.00  0.00    -0.294 OA
BRANCH   3   5
ATOM      5  C   UNL     1      17.856   0.008   3.886  1.00  0.00     0.018 A 
ATOM      6  C   UNL     1      17.660  -1.359   3.706  1.00  0.00     0.015 A 
ATOM      7  C   UNL     1      18.620   0.698   3.002  1.00  0.00     0.015 A 
ATOM      8  C   UNL     1      18.255  -1.973   2.625  1.00  0.00     0.040 A 
ATOM      9  C   UNL     1      19.207   0.058   1.927  1.00  0.00     0.040 A 
ATOM     10  C   UNL     1      19.041  -1.293   1.709  1.00  0.00     0.123 A 
ATOM     11  F   UNL     1      19.611  -1.935   0.658  1.00  0.00    -0.207 F 
ENDBRANCH   3   5
ENDBRANCH   2   3
ENDBRANCH   1   2
BRANCH   1  12
ATOM     12  C   UNL     1      17.003  -0.568   8.035  1.00  0.00     0.085 C 
BRANCH  12  13
ATOM     13  N   UNL     1      15.959  -1.325   7.483  1.00  0.00    -0.303 NA
ATOM     14  C   UNL     1      14.731  -1.298   8.181  1.00  0.00     0.088 C 
ATOM     15  C   UNL     1      16.239  -2.548   6.851  1.00  0.00     0.088 C 
ATOM     16  C   UNL     1      13.758  -2.292   7.582  1.00  0.00     0.056 C 
ATOM     17  C   UNL     1      15.260  -2.744   5.696  1.00  0.00     0.056 C 
ATOM     18  C   UNL     1      13.914  -2.211   6.076  1.00  0.00     0.092 C 
BRANCH  18  19
ATOM     19  O   UNL     1      13.938  -0.815   5.801  1.00  0.00    -0.385 OA
ATOM     20  H   UNL     1      13.764  -0.741   4.833  1.00  0.00     0.211 HD
ENDBRANCH  18  19
BRANCH  18  21
ATOM     21  C   UNL     1      12.774  -2.844   5.370  1.00  0.00    -0.016 A 
ATOM     22  C   UNL     1      12.807  -2.942   3.973  1.00  0.00     0.008 A 
ATOM     23  C   UNL     1      11.658  -3.348   5.985  1.00  0.00     0.008 A 
ATOM     24  C   UNL     1      11.780  -3.511   3.253  1.00  0.00     0.021 A 
ATOM     25  C   UNL     1      10.613  -3.927   5.254  1.00  0.00     0.021 A 
ATOM     26  C   UNL     1      10.664  -4.013   3.883  1.00  0.00     0.041 A 
ATOM     27  Cl  UNL     1       9.345  -4.745   2.958  1.00  0.00    -0.084 Cl
ENDBRANCH  18  21
ENDBRANCH  12  13
ENDBRANCH   1  12
TORSDOF 7
ENDMDL
MODEL 2
REMARK VINA RESULT:      -5.6      3.356      4.708
REMARK SMILES O=C(CCCN1CCC(O)(c2ccc(Cl)cc2)CC1)c1ccc(F)cc1
REMARK SMILES IDX 4 1 3 2 2 3 1 4 20 5 21 6 26 7 22 8 25 9 23 10 24 11 5 12
REMARK SMILES IDX 6 13 7 14 19 15 8 16 18 17 9 18 10 19 11 21 12 22 17 23
REMARK SMILES IDX 13 24 16 25 14 26 15 27
REMARK H PARENT 10 20
ROOT
ATOM      1  C   UNL     1      14.936  -3.694   1.976  1.00  0.00     0.024 C 
ENDROOT
BRANCH   1   2
ATOM      2  C   UNL     1      15.640  -3.933   3.289  1.00  0.00     0.082 C 
BRANCH   2   3
ATOM      3  C   UNL     1      16.636  -2.890   3.628  1.00  0.00     0.162 C 
ATOM      4  O   UNL     1      16.368  -2.001   4.472  1.00  0.00    -0.294 OA
BRANCH   3   5
ATOM      5  C   UNL     1      17.956  -2.850   3.003  1.00  0.00     0.018 A 
ATOM      6  C   UNL     1      18.874  -3.860   3.286  1.00  0.00     0.015 A 
ATOM      7  C   UNL     1      18.301  -1.849   2.155  1.00  0.00     0.015 A 
ATOM      8  C   UNL     1      20.114  -3.808   2.688  1.00  0.00     0.040 A 
ATOM      9  C   UNL     1      19.553  -1.820   1.570  1.00  0.00     0.040 A 
ATOM     10  C   UNL     1      20.492  -2.797   1.819  1.00  0.00     0.123 A 
ATOM     11  F   UNL     1      21.725  -2.782   1.252  1.00  0.00    -0.207 F 
ENDBRANCH   3   5
ENDBRANCH   2   3
ENDBRANCH   1   2
BRANCH   1  12
ATOM     12  C   UNL     1      13.719  -4.483   1.748  1.00  0.00     0.085 C 
BRANCH  12  13
ATOM     13  N   UNL     1      12.671  -4.339   2.669  1.00  0.00    -0.303 NA
ATOM     14  C   UNL     1      11.819  -5.455   2.827  1.00  0.00     0.088 C 
ATOM     15  C   UNL     1      12.029  -3.096   2.811  1.00  0.00     0.088 C 
ATOM     16  C   UNL     1      10.638  -5.101   3.706  1.00  0.00     0.056 C 
ATOM     17  C   UNL     1      11.609  -2.919   4.267  1.00  0.00     0.056 C 
ATOM     18  C   UNL     1      11.168  -4.234   4.832  1.00  0.00     0.092 C 
BRANCH  18  19
ATOM     19  O   UNL     1      12.345  -4.904   5.266  1.00  0.00    -0.385 OA
ATOM     20  H   UNL     1      12.024  -5.723   5.712  1.00  0.00     0.211 HD
ENDBRANCH  18  19
BRANCH  18  21
ATOM     21  C   UNL     1      10.202  -4.134   5.952  1.00  0.00    -0.016 A 
ATOM     22  C   UNL     1       9.120  -5.024   6.001  1.00  0.00     0.008 A 
ATOM     23  C   UNL     1      10.275  -3.215   6.966  1.00  0.00     0.008 A 
ATOM     24  C   UNL     1       8.182  -4.983   7.009  1.00  0.00     0.021 A 
ATOM     25  C   UNL     1       9.321  -3.172   7.991  1.00  0.00     0.021 A 
ATOM     26  C   UNL     1       8.267  -4.054   8.022  1.00  0.00     0.041 A 
ATOM     27  Cl  UNL     1       7.062  -4.002   9.316  1.00  0.00    -0.084 Cl
ENDBRANCH  18  21
ENDBRANCH  12  13
ENDBRANCH   1  12
TORSDOF 7
ENDMDL
MODEL 3
REMARK VINA RESULT:      -5.5      0.401      1.340
REMARK SMILES O=C(CCCN1CCC(O)(c2ccc(Cl)cc2)CC1)c1ccc(F)cc1
REMARK SMILES IDX 4 1 3 2 2 3 1 4 20 5 21 6 26 7 22 8 25 9 23 10 24 11 5 12
REMARK SMILES IDX 6 13 7 14 19 15 8 16 18 17 9 18 10 19 11 21 12 22 17 23
REMARK SMILES IDX 13 24 16 25 14 26 15 27
REMARK H PARENT 10 20
ROOT
ATOM      1  C   UNL     1      18.154  -0.240   7.130  1.00  0.00     0.024 C 
ENDROOT
BRANCH   1   2
ATOM      2  C   UNL     1      18.092   0.880   6.121  1.00  0.00     0.082 C 
BRANCH   2   3
ATOM      3  C   UNL     1      17.457   0.492   4.840  1.00  0.00     0.162 C 
ATOM      4  O   UNL     1      16.255   0.776   4.611  1.00  0.00    -0.294 OA
BRANCH   3   5
ATOM      5  C   UNL     1      18.189  -0.229   3.802  1.00  0.00     0.018 A 
ATOM      6  C   UNL     1      19.227   0.412   3.131  1.00  0.00     0.015 A 
ATOM      7  C   UNL     1      17.875  -1.510   3.483  1.00  0.00     0.015 A 
ATOM      8  C   UNL     1      19.908  -0.282   2.155  1.00  0.00     0.040 A 
ATOM      9  C   UNL     1      18.573  -2.184   2.499  1.00  0.00     0.040 A 
ATOM     10  C   UNL     1      19.608  -1.590   1.809  1.00  0.00     0.123 A 
ATOM     11  F   UNL     1      20.303  -2.239   0.841  1.00  0.00    -0.207 F 
ENDBRANCH   3   5
ENDBRANCH   2   3
ENDBRANCH   1   2
BRANCH   1  12
ATOM     12  C   UNL     1      16.940  -0.456   7.927  1.00  0.00     0.085 C 
BRANCH  12  13
ATOM     13  N   UNL     1      15.913  -1.217   7.349  1.00  0.00    -0.303 NA
ATOM     14  C   UNL     1      14.702  -1.286   8.074  1.00  0.00     0.088 C 
ATOM     15  C   UNL     1      16.225  -2.384   6.631  1.00  0.00     0.088 C 
ATOM     16  C   UNL     1      13.755  -2.277   7.432  1.00  0.00     0.056 C 
ATOM     17  C   UNL     1      15.228  -2.544   5.488  1.00  0.00     0.056 C 
ATOM     18  C   UNL     1      13.870  -2.092   5.932  1.00  0.00     0.092 C 
BRANCH  18  19
ATOM     19  O   UNL     1      13.834  -0.682   5.749  1.00  0.00    -0.385 OA
ATOM     20  H   UNL     1      13.899  -0.303   6.657  1.00  0.00     0.211 HD
ENDBRANCH  18  19
BRANCH  18  21
ATOM     21  C   UNL     1      12.740  -2.724   5.210  1.00  0.00    -0.016 A 
ATOM     22  C   UNL     1      11.873  -3.573   5.909  1.00  0.00     0.008 A 
ATOM     23  C   UNL     1      12.470  -2.548   3.878  1.00  0.00     0.008 A 
ATOM     24  C   UNL     1      10.807  -4.198   5.300  1.00  0.00     0.021 A 
ATOM     25  C   UNL     1      11.387  -3.184   3.256  1.00  0.00     0.021 A 
ATOM     26  C   UNL     1      10.547  -4.013   3.961  1.00  0.00     0.041 A 
ATOM     27  Cl  UNL     1       9.178  -4.816   3.178  1.00  0.00    -0.084 Cl
ENDBRANCH  18  21
ENDBRANCH  12  13
ENDBRANCH   1  12
TORSDOF 7
ENDMDL
MODEL 4
REMARK VINA RESULT:      -5.5      5.116      9.240
REMARK SMILES O=C(CCCN1CCC(O)(c2ccc(Cl)cc2)CC1)c1ccc(F)cc1
REMARK SMILES IDX 4 1 3 2 2 3 1 4 20 5 21 6 26 7 22 8 25 9 23 10 24 11 5 12
REMARK SMILES IDX 6 13 7 14 19 15 8 16 18 17 9 18 10 19 11 21 12 22 17 23
REMARK SMILES IDX 13 24 16 25 14 26 15 27
REMARK H PARENT 10 20
ROOT
ATOM      1  C   UNL     1      16.584  -3.432   3.704  1.00  0.00     0.024 C 
ENDROOT
BRANCH   1   2
ATOM      2  C   UNL     1      15.652  -3.674   2.543  1.00  0.00     0.082 C 
BRANCH   2   3
ATOM      3  C   UNL     1      14.753  -4.836   2.734  1.00  0.00     0.162 C 
ATOM      4  O   UNL     1      15.221  -5.963   3.029  1.00  0.00    -0.294 OA
BRANCH   3   5
ATOM      5  C   UNL     1      13.304  -4.724   2.588  1.00  0.00     0.018 A 
ATOM      6  C   UNL     1      12.780  -3.819   1.668  1.00  0.00     0.015 A 
ATOM      7  C   UNL     1      12.463  -5.485   3.333  1.00  0.00     0.015 A 
ATOM      8  C   UNL     1      11.411  -3.726   1.543  1.00  0.00     0.040 A 
ATOM      9  C   UNL     1      11.094  -5.371   3.189  1.00  0.00     0.040 A 
ATOM     10  C   UNL     1      10.530  -4.490   2.291  1.00  0.00     0.123 A 
ATOM     11  F   UNL     1       9.188  -4.368   2.138  1.00  0.00    -0.207 F 
ENDBRANCH   3   5
ENDBRANCH   2   3
ENDBRANCH   1   2
BRANCH   1  12
ATOM     12  C   UNL     1      16.924  -2.029   3.973  1.00  0.00     0.085 C 
BRANCH  12  13
ATOM     13  N   UNL     1      18.087  -1.519   3.378  1.00  0.00    -0.303 NA
ATOM     14  C   UNL     1      18.456  -0.207   3.749  1.00  0.00     0.088 C 
ATOM     15  C   UNL     1      18.399  -1.854   2.049  1.00  0.00     0.088 C 
ATOM     16  C   UNL     1      19.614   0.279   2.903  1.00  0.00     0.056 C 
ATOM     17  C   UNL     1      19.915  -1.941   1.901  1.00  0.00     0.056 C 
ATOM     18  C   UNL     1      20.568  -0.889   2.745  1.00  0.00     0.092 C 
BRANCH  18  19
ATOM     19  O   UNL     1      20.677  -1.432   4.056  1.00  0.00    -0.385 OA
ATOM     20  H   UNL     1      20.680  -0.651   4.658  1.00  0.00     0.211 HD
ENDBRANCH  18  19
BRANCH  18  21
ATOM     21  C   UNL     1      21.901  -0.451   2.269  1.00  0.00    -0.016 A 
ATOM     22  C   UNL     1      22.064   0.861   1.806  1.00  0.00     0.008 A 
ATOM     23  C   UNL     1      23.017  -1.247   2.234  1.00  0.00     0.008 A 
ATOM     24  C   UNL     1      23.272   1.332   1.343  1.00  0.00     0.021 A 
ATOM     25  C   UNL     1      24.247  -0.769   1.762  1.00  0.00     0.021 A 
ATOM     26  C   UNL     1      24.386   0.522   1.312  1.00  0.00     0.041 A 
ATOM     27  Cl  UNL     1      25.938   1.127   0.717  1.00  0.00    -0.084 Cl
ENDBRANCH  18  21
ENDBRANCH  12  13
ENDBRANCH   1  12
TORSDOF 7
ENDMDL
MODEL 5
REMARK VINA RESULT:      -5.5      4.979      9.084
REMARK SMILES O=C(CCCN1CCC(O)(c2ccc(Cl)cc2)CC1)c1ccc(F)cc1
REMARK SMILES IDX 4 1 3 2 2 3 1 4 20 5 21 6 26 7 22 8 25 9 23 10 24 11 5 12
REMARK SMILES IDX 6 13 7 14 19 15 8 16 18 17 9 18 10 19 11 21 12 22 17 23
REMARK SMILES IDX 13 24 16 25 14 26 15 27
REMARK H PARENT 10 20
ROOT
ATOM      1  C   UNL     1      16.429  -3.307   3.094  1.00  0.00     0.024 C 
ENDROOT
BRANCH   1   2
ATOM      2  C   UNL     1      16.079  -4.639   3.709  1.00  0.00     0.082 C 
BRANCH   2   3
ATOM      3  C   UNL     1      14.640  -4.789   4.025  1.00  0.00     0.162 C 
ATOM      4  O   UNL     1      14.274  -5.380   5.071  1.00  0.00    -0.294 OA
BRANCH   3   5
ATOM      5  C   UNL     1      13.597  -4.264   3.147  1.00  0.00     0.018 A 
ATOM      6  C   UNL     1      12.667  -3.362   3.658  1.00  0.00     0.015 A 
ATOM      7  C   UNL     1      13.522  -4.640   1.846  1.00  0.00     0.015 A 
ATOM      8  C   UNL     1      11.691  -2.876   2.816  1.00  0.00     0.040 A 
ATOM      9  C   UNL     1      12.531  -4.138   1.023  1.00  0.00     0.040 A 
ATOM     10  C   UNL     1      11.590  -3.243   1.485  1.00  0.00     0.123 A 
ATOM     11  F   UNL     1      10.612  -2.742   0.689  1.00  0.00    -0.207 F 
ENDBRANCH   3   5
ENDBRANCH   2   3
ENDBRANCH   1   2
BRANCH   1  12
ATOM     12  C   UNL     1      17.284  -2.429   3.904  1.00  0.00     0.085 C 
BRANCH  12  13
ATOM     13  N   UNL     1      18.555  -2.118   3.400  1.00  0.00    -0.303 NA
ATOM     14  C   UNL     1      18.614  -1.748   2.038  1.00  0.00     0.088 C 
ATOM     15  C   UNL     1      19.682  -2.822   3.858  1.00  0.00     0.088 C 
ATOM     16  C   UNL     1      20.052  -1.617   1.585  1.00  0.00     0.056 C 
ATOM     17  C   UNL     1      20.881  -1.878   3.879  1.00  0.00     0.056 C 
ATOM     18  C   UNL     1      20.812  -0.943   2.711  1.00  0.00     0.092 C 
BRANCH  18  19
ATOM     19  O   UNL     1      19.972   0.135   3.104  1.00  0.00    -0.385 OA
ATOM     20  H   UNL     1      19.422  -0.223   3.840  1.00  0.00     0.211 HD
ENDBRANCH  18  19
BRANCH  18  21
ATOM     21  C   UNL     1      22.123  -0.422   2.256  1.00  0.00    -0.016 A 
ATOM     22  C   UNL     1      22.221   0.915   1.848  1.00  0.00     0.008 A 
ATOM     23  C   UNL     1      23.276  -1.159   2.192  1.00  0.00     0.008 A 
ATOM     24  C   UNL     1      23.406   1.463   1.407  1.00  0.00     0.021 A 
ATOM     25  C   UNL     1      24.482  -0.603   1.744  1.00  0.00     0.021 A 
ATOM     26  C   UNL     1      24.557   0.711   1.348  1.00  0.00     0.041 A 
ATOM     27  Cl  UNL     1      26.079   1.415   0.783  1.00  0.00    -0.084 Cl
ENDBRANCH  18  21
ENDBRANCH  12  13
ENDBRANCH   1  12
TORSDOF 7
ENDMDL
MODEL 6
REMARK VINA RESULT:      -5.5      3.262      6.739
REMARK SMILES O=C(CCCN1CCC(O)(c2ccc(Cl)cc2)CC1)c1ccc(F)cc1
REMARK SMILES IDX 4 1 3 2 2 3 1 4 20 5 21 6 26 7 22 8 25 9 23 10 24 11 5 12
REMARK SMILES IDX 6 13 7 14 19 15 8 16 18 17 9 18 10 19 11 21 12 22 17 23
REMARK SMILES IDX 13 24 16 25 14 26 15 27
REMARK H PARENT 10 20
ROOT
ATOM      1  C   UNL     1      10.702  -3.820   6.583  1.00  0.00     0.024 C 
ENDROOT
BRANCH   1   2
ATOM      2  C   UNL     1      10.196  -5.067   5.902  1.00  0.00     0.082 C 
BRANCH   2   3
ATOM      3  C   UNL     1      10.032  -4.919   4.437  1.00  0.00     0.162 C 
ATOM      4  O   UNL     1       8.902  -5.048   3.905  1.00  0.00    -0.294 OA
BRANCH   3   5
ATOM      5  C   UNL     1      11.161  -4.620   3.559  1.00  0.00     0.018 A 
ATOM      6  C   UNL     1      12.302  -5.416   3.624  1.00  0.00     0.015 A 
ATOM      7  C   UNL     1      11.114  -3.584   2.685  1.00  0.00     0.015 A 
ATOM      8  C   UNL     1      13.357  -5.121   2.788  1.00  0.00     0.040 A 
ATOM      9  C   UNL     1      12.188  -3.309   1.859  1.00  0.00     0.040 A 
ATOM     10  C   UNL     1      13.337  -4.070   1.887  1.00  0.00     0.123 A 
ATOM     11  F   UNL     1      14.399  -3.812   1.082  1.00  0.00    -0.207 F 
ENDBRANCH   3   5
ENDBRANCH   2   3
ENDBRANCH   1   2
BRANCH   1  12
ATOM     12  C   UNL     1      12.018  -3.929   7.228  1.00  0.00     0.085 C 
BRANCH  12  13
ATOM     13  N   UNL     1      13.077  -3.201   6.665  1.00  0.00    -0.303 NA
ATOM     14  C   UNL     1      14.217  -3.025   7.481  1.00  0.00     0.088 C 
ATOM     15  C   UNL     1      12.807  -2.123   5.806  1.00  0.00     0.088 C 
ATOM     16  C   UNL     1      15.198  -2.078   6.823  1.00  0.00     0.056 C 
ATOM     17  C   UNL     1      13.899  -2.051   4.742  1.00  0.00     0.056 C 
ATOM     18  C   UNL     1      15.220  -2.418   5.346  1.00  0.00     0.092 C 
BRANCH  18  19
ATOM     19  O   UNL     1      15.300  -3.837   5.314  1.00  0.00    -0.385 OA
ATOM     20  H   UNL     1      14.625  -4.118   4.652  1.00  0.00     0.211 HD
ENDBRANCH  18  19
BRANCH  18  21
ATOM     21  C   UNL     1      16.398  -1.831   4.663  1.00  0.00    -0.016 A 
ATOM     22  C   UNL     1      16.816  -0.540   5.012  1.00  0.00     0.008 A 
ATOM     23  C   UNL     1      17.126  -2.459   3.686  1.00  0.00     0.008 A 
ATOM     24  C   UNL     1      17.897   0.068   4.413  1.00  0.00     0.021 A 
ATOM     25  C   UNL     1      18.225  -1.841   3.076  1.00  0.00     0.021 A 
ATOM     26  C   UNL     1      18.620  -0.574   3.433  1.00  0.00     0.041 A 
ATOM     27  Cl  UNL     1      20.009   0.207   2.664  1.00  0.00    -0.084 Cl
ENDBRANCH  18  21
ENDBRANCH  12  13
ENDBRANCH   1  12
TORSDOF 7
ENDMDL
MODEL 7
REMARK VINA RESULT:      -5.5      4.396      6.882
REMARK SMILES O=C(CCCN1CCC(O)(c2ccc(Cl)cc2)CC1)c1ccc(F)cc1
REMARK SMILES IDX 4 1 3 2 2 3 1 4 20 5 21 6 26 7 22 8 25 9 23 10 24 11 5 12
REMARK SMILES IDX 6 13 7 14 19 15 8 16 18 17 9 18 10 19 11 21 12 22 17 23
REMARK SMILES IDX 13 24 16 25 14 26 15 27
REMARK H PARENT 10 20
ROOT
ATOM      1  C   UNL     1      14.829  -3.736   2.117  1.00  0.00     0.024 C 
ENDROOT
BRANCH   1   2
ATOM      2  C   UNL     1      14.044  -5.019   2.004  1.00  0.00     0.082 C 
BRANCH   2   3
ATOM      3  C   UNL     1      12.622  -4.816   1.643  1.00  0.00     0.162 C 
ATOM      4  O   UNL     1      12.308  -4.343   0.523  1.00  0.00    -0.294 OA
BRANCH   3   5
ATOM      5  C   UNL     1      11.536  -5.153   2.561  1.00  0.00     0.018 A 
ATOM      6  C   UNL     1      10.391  -4.360   2.581  1.00  0.00     0.015 A 
ATOM      7  C   UNL     1      11.626  -6.222   3.392  1.00  0.00     0.015 A 
ATOM      8  C   UNL     1       9.376  -4.691   3.452  1.00  0.00     0.040 A 
ATOM      9  C   UNL     1      10.594  -6.531   4.257  1.00  0.00     0.040 A 
ATOM     10  C   UNL     1       9.442  -5.776   4.311  1.00  0.00     0.123 A 
ATOM     11  F   UNL     1       8.421  -6.068   5.155  1.00  0.00    -0.207 F 
ENDBRANCH   3   5
ENDBRANCH   2   3
ENDBRANCH   1   2
BRANCH   1  12
ATOM     12  C   UNL     1      15.492  -3.499   3.406  1.00  0.00     0.085 C 
BRANCH  12  13
ATOM     13  N   UNL     1      14.687  -3.478   4.554  1.00  0.00    -0.303 NA
ATOM     14  C   UNL     1      14.523  -2.222   5.180  1.00  0.00     0.088 C 
ATOM     15  C   UNL     1      14.700  -4.569   5.439  1.00  0.00     0.088 C 
ATOM     16  C   UNL     1      13.788  -2.376   6.495  1.00  0.00     0.056 C 
ATOM     17  C   UNL     1      13.307  -4.739   6.039  1.00  0.00     0.056 C 
ATOM     18  C   UNL     1      12.688  -3.395   6.270  1.00  0.00     0.092 C 
BRANCH  18  19
ATOM     19  O   UNL     1      12.095  -3.004   5.037  1.00  0.00    -0.385 OA
ATOM     20  H   UNL     1      11.263  -3.529   4.975  1.00  0.00     0.211 HD
ENDBRANCH  18  19
BRANCH  18  21
ATOM     21  C   UNL     1      11.674  -3.358   7.351  1.00  0.00    -0.016 A 
ATOM     22  C   UNL     1      12.099  -3.343   8.686  1.00  0.00     0.008 A 
ATOM     23  C   UNL     1      10.319  -3.344   7.148  1.00  0.00     0.008 A 
ATOM     24  C   UNL     1      11.212  -3.315   9.739  1.00  0.00     0.021 A 
ATOM     25  C   UNL     1       9.415  -3.317   8.219  1.00  0.00     0.021 A 
ATOM     26  C   UNL     1       9.852  -3.303   9.522  1.00  0.00     0.041 A 
ATOM     27  Cl  UNL     1       8.712  -3.267  10.874  1.00  0.00    -0.084 Cl
ENDBRANCH  18  21
ENDBRANCH  12  13
ENDBRANCH   1  12
TORSDOF 7
ENDMDL
MODEL 8
REMARK VINA RESULT:      -5.4      3.344      4.911
REMARK SMILES O=C(CCCN1CCC(O)(c2ccc(Cl)cc2)CC1)c1ccc(F)cc1
REMARK SMILES IDX 4 1 3 2 2 3 1 4 20 5 21 6 26 7 22 8 25 9 23 10 24 11 5 12
REMARK SMILES IDX 6 13 7 14 19 15 8 16 18 17 9 18 10 19 11 21 12 22 17 23
REMARK SMILES IDX 13 24 16 25 14 26 15 27
REMARK H PARENT 10 20
ROOT
ATOM      1  C   UNL     1      14.750  -3.883   2.262  1.00  0.00     0.024 C 
ENDROOT
BRANCH   1   2
ATOM      2  C   UNL     1      15.411  -3.630   3.594  1.00  0.00     0.082 C 
BRANCH   2   3
ATOM      3  C   UNL     1      16.891  -3.624   3.532  1.00  0.00     0.162 C 
ATOM      4  O   UNL     1      17.547  -4.649   3.843  1.00  0.00    -0.294 OA
BRANCH   3   5
ATOM      5  C   UNL     1      17.642  -2.443   3.113  1.00  0.00     0.018 A 
ATOM      6  C   UNL     1      17.551  -1.276   3.866  1.00  0.00     0.015 A 
ATOM      7  C   UNL     1      18.425  -2.467   2.005  1.00  0.00     0.015 A 
ATOM      8  C   UNL     1      18.266  -0.171   3.458  1.00  0.00     0.040 A 
ATOM      9  C   UNL     1      19.131  -1.344   1.616  1.00  0.00     0.040 A 
ATOM     10  C   UNL     1      19.072  -0.167   2.331  1.00  0.00     0.123 A 
ATOM     11  F   UNL     1      19.760   0.943   1.962  1.00  0.00    -0.207 F 
ENDBRANCH   3   5
ENDBRANCH   2   3
ENDBRANCH   1   2
BRANCH   1  12
ATOM     12  C   UNL     1      13.933  -5.100   2.172  1.00  0.00     0.085 C 
BRANCH  12  13
ATOM     13  N   UNL     1      12.764  -5.154   2.944  1.00  0.00    -0.303 NA
ATOM     14  C   UNL     1      12.627  -6.274   3.795  1.00  0.00     0.088 C 
ATOM     15  C   UNL     1      11.552  -4.678   2.416  1.00  0.00     0.088 C 
ATOM     16  C   UNL     1      11.251  -6.296   4.427  1.00  0.00     0.056 C 
ATOM     17  C   UNL     1      10.724  -4.069   3.543  1.00  0.00     0.056 C 
ATOM     18  C   UNL     1      10.911  -4.866   4.798  1.00  0.00     0.092 C 
BRANCH  18  19
ATOM     19  O   UNL     1      12.093  -4.374   5.417  1.00  0.00    -0.385 OA
ATOM     20  H   UNL     1      11.944  -3.405   5.521  1.00  0.00     0.211 HD
ENDBRANCH  18  19
BRANCH  18  21
ATOM     21  C   UNL     1       9.777  -4.799   5.750  1.00  0.00    -0.016 A 
ATOM     22  C   UNL     1       9.869  -3.951   6.861  1.00  0.00     0.008 A 
ATOM     23  C   UNL     1       8.618  -5.521   5.635  1.00  0.00     0.008 A 
ATOM     24  C   UNL     1       8.856  -3.844   7.789  1.00  0.00     0.021 A 
ATOM     25  C   UNL     1       7.588  -5.415   6.579  1.00  0.00     0.021 A 
ATOM     26  C   UNL     1       7.697  -4.577   7.663  1.00  0.00     0.041 A 
ATOM     27  Cl  UNL     1       6.396  -4.440   8.854  1.00  0.00    -0.084 Cl
ENDBRANCH  18  21
ENDBRANCH  12  13
ENDBRANCH   1  12
TORSDOF 7
ENDMDL
MODEL 9
REMARK VINA RESULT:      -5.4      3.506      6.784
REMARK SMILES O=C(CCCN1CCC(O)(c2ccc(Cl)cc2)CC1)c1ccc(F)cc1
REMARK SMILES IDX 4 1 3 2 2 3 1 4 20 5 21 6 26 7 22 8 25 9 23 10 24 11 5 12
REMARK SMILES IDX 6 13 7 14 19 15 8 16 18 17 9 18 10 19 11 21 12 22 17 23
REMARK SMILES IDX 13 24 16 25 14 26 15 27
REMARK H PARENT 10 20
ROOT
ATOM      1  C   UNL     1       9.083  -5.065   5.692  1.00  0.00     0.024 C 
ENDROOT
BRANCH   1   2
ATOM      2  C   UNL     1       9.788  -5.835   4.603  1.00  0.00     0.082 C 
BRANCH   2   3
ATOM      3  C   UNL     1       9.895  -5.094   3.324  1.00  0.00     0.162 C 
ATOM      4  O   UNL     1       8.864  -4.786   2.677  1.00  0.00    -0.294 OA
BRANCH   3   5
ATOM      5  C   UNL     1      11.185  -4.693   2.769  1.00  0.00     0.018 A 
ATOM      6  C   UNL     1      11.264  -3.538   1.995  1.00  0.00     0.015 A 
ATOM      7  C   UNL     1      12.304  -5.428   2.994  1.00  0.00     0.015 A 
ATOM      8  C   UNL     1      12.489  -3.174   1.479  1.00  0.00     0.040 A 
ATOM      9  C   UNL     1      13.520  -5.041   2.463  1.00  0.00     0.040 A 
ATOM     10  C   UNL     1      13.646  -3.905   1.693  1.00  0.00     0.123 A 
ATOM     11  F   UNL     1      14.833  -3.513   1.165  1.00  0.00    -0.207 F 
ENDBRANCH   3   5
ENDBRANCH   2   3
ENDBRANCH   1   2
BRANCH   1  12
ATOM     12  C   UNL     1       9.853  -4.844   6.923  1.00  0.00     0.085 C 
BRANCH  12  13
ATOM     13  N   UNL     1      11.049  -4.119   6.818  1.00  0.00    -0.303 NA
ATOM     14  C   UNL     1      11.924  -4.193   7.925  1.00  0.00     0.088 C 
ATOM     15  C   UNL     1      11.062  -2.882   6.151  1.00  0.00     0.088 C 
ATOM     16  C   UNL     1      13.079  -3.229   7.753  1.00  0.00     0.056 C 
ATOM     17  C   UNL     1      12.407  -2.711   5.451  1.00  0.00     0.056 C 
ATOM     18  C   UNL     1      13.497  -3.293   6.297  1.00  0.00     0.092 C 
BRANCH  18  19
ATOM     19  O   UNL     1      13.537  -4.684   6.005  1.00  0.00    -0.385 OA
ATOM     20  H   UNL     1      12.844  -4.822   5.317  1.00  0.00     0.211 HD
ENDBRANCH  18  19
BRANCH  18  21
ATOM     21  C   UNL     1      14.836  -2.694   6.082  1.00  0.00    -0.016 A 
ATOM     22  C   UNL     1      15.369  -2.662   4.787  1.00  0.00     0.008 A 
ATOM     23  C   UNL     1      15.621  -2.162   7.071  1.00  0.00     0.008 A 
ATOM     24  C   UNL     1      16.609  -2.126   4.516  1.00  0.00     0.021 A 
ATOM     25  C   UNL     1      16.883  -1.618   6.798  1.00  0.00     0.021 A 
ATOM     26  C   UNL     1      17.388  -1.595   5.519  1.00  0.00     0.041 A 
ATOM     27  Cl  UNL     1      18.980  -0.908   5.172  1.00  0.00    -0.084 Cl
ENDBRANCH  18  21
ENDBRANCH  12  13
ENDBRANCH   1  12
TORSDOF 7
ENDMDL
