MODEL 1
REMARK VINA RESULT:      -7.4      0.000      0.000
REMARK SMILES O=C(CCC[NH+]1CCC(O)(c2ccc(Cl)cc2)CC1)c1ccc(F)cc1
REMARK SMILES IDX 4 1 3 2 2 3 1 4 20 5 21 6 26 7 22 8 25 9 23 10 24 11 5 12
REMARK SMILES IDX 6 13 7 14 19 15 8 16 18 17 9 18 10 20 11 22 12 23 17 24
REMARK SMILES IDX 13 25 16 26 14 27 15 28
REMARK H PARENT 6 19 10 21
ROOT
ATOM      1  C   UNL     1     112.104 121.233 110.162  1.00  0.00     0.070 C 
ENDROOT
BRANCH   1   2
ATOM      2  C   UNL     1     111.282 122.106 111.085  1.00  0.00     0.087 C 
BRANCH   2   3
ATOM      3  C   UNL     1     111.891 123.403 111.388  1.00  0.00     0.163 C 
ATOM      4  O   UNL     1     112.637 123.988 110.561  1.00  0.00    -0.294 OA
BRANCH   3   5
ATOM      5  C   UNL     1     111.667 124.102 112.671  1.00  0.00     0.018 A 
ATOM      6  C   UNL     1     112.552 125.073 113.105  1.00  0.00     0.015 A 
ATOM      7  C   UNL     1     110.583 123.808 113.457  1.00  0.00     0.015 A 
ATOM      8  C   UNL     1     112.339 125.719 114.299  1.00  0.00     0.040 A 
ATOM      9  C   UNL     1     110.364 124.447 114.648  1.00  0.00     0.040 A 
ATOM     10  C   UNL     1     111.246 125.405 115.066  1.00  0.00     0.123 A 
ATOM     11  F   UNL     1     110.994 126.022 116.265  1.00  0.00    -0.207 F 
ENDBRANCH   3   5
ENDBRANCH   2   3
ENDBRANCH   1   2
BRANCH   1  12
ATOM     12  C   UNL     1     111.384 121.114 108.863  1.00  0.00     0.262 C 
BRANCH  12  13
ATOM     13  N   UNL     1     111.213 122.397 108.193  1.00  0.00    -0.335 N 
ATOM     14  C   UNL     1     112.343 122.748 107.388  1.00  0.00     0.265 C 
ATOM     15  C   UNL     1     110.018 122.389 107.414  1.00  0.00     0.265 C 
ATOM     16  C   UNL     1     112.597 121.724 106.316  1.00  0.00     0.102 C 
ATOM     17  C   UNL     1     110.171 122.285 105.956  1.00  0.00     0.102 C 
ATOM     18  C   UNL     1     111.394 121.633 105.425  1.00  0.00     0.100 C 
ATOM     19  H   UNL     1     111.176 123.108 108.983  1.00  0.00     0.348 HD
BRANCH  18  20
ATOM     20  O   UNL     1     111.740 122.313 104.233  1.00  0.00    -0.385 OA
ATOM     21  H   UNL     1     111.388 123.234 104.320  1.00  0.00     0.211 HD
ENDBRANCH  18  20
BRANCH  18  22
ATOM     22  C   UNL     1     111.149 120.215 104.979  1.00  0.00    -0.016 A 
ATOM     23  C   UNL     1     112.158 119.276 104.937  1.00  0.00     0.008 A 
ATOM     24  C   UNL     1     109.907 119.767 104.586  1.00  0.00     0.008 A 
ATOM     25  C   UNL     1     111.976 117.972 104.536  1.00  0.00     0.021 A 
ATOM     26  C   UNL     1     109.700 118.464 104.179  1.00  0.00     0.021 A 
ATOM     27  C   UNL     1     110.734 117.568 104.155  1.00  0.00     0.041 A 
ATOM     28  Cl  UNL     1     110.481 115.917 103.643  1.00  0.00    -0.084 Cl
ENDBRANCH  18  22
ENDBRANCH  12  13
ENDBRANCH   1  12
TORSDOF 7
ENDMDL
MODEL 2
REMARK VINA RESULT:      -7.4      3.212      4.696
REMARK SMILES O=C(CCC[NH+]1CCC(O)(c2ccc(Cl)cc2)CC1)c1ccc(F)cc1
REMARK SMILES IDX 4 1 3 2 2 3 1 4 20 5 21 6 26 7 22 8 25 9 23 10 24 11 5 12
REMARK SMILES IDX 6 13 7 14 19 15 8 16 18 17 9 18 10 20 11 22 12 23 17 24
REMARK SMILES IDX 13 25 16 26 14 27 15 28
REMARK H PARENT 6 19 10 21
ROOT
ATOM      1  C   UNL     1     109.874 122.607 105.418  1.00  0.00     0.070 C 
ENDROOT
BRANCH   1   2
ATOM      2  C   UNL     1     109.475 123.475 106.590  1.00  0.00     0.087 C 
BRANCH   2   3
ATOM      3  C   UNL     1     109.238 122.737 107.833  1.00  0.00     0.163 C 
ATOM      4  O   UNL     1     108.336 121.864 107.917  1.00  0.00    -0.294 OA
BRANCH   3   5
ATOM      5  C   UNL     1     110.036 122.968 109.055  1.00  0.00     0.018 A 
ATOM      6  C   UNL     1     111.408 123.129 108.978  1.00  0.00     0.015 A 
ATOM      7  C   UNL     1     109.440 123.029 110.288  1.00  0.00     0.015 A 
ATOM      8  C   UNL     1     112.145 123.343 110.118  1.00  0.00     0.040 A 
ATOM      9  C   UNL     1     110.167 123.242 111.429  1.00  0.00     0.040 A 
ATOM     10  C   UNL     1     111.523 123.399 111.340  1.00  0.00     0.123 A 
ATOM     11  F   UNL     1     112.217 123.608 112.503  1.00  0.00    -0.207 F 
ENDBRANCH   3   5
ENDBRANCH   2   3
ENDBRANCH   1   2
BRANCH   1  12
ATOM     12  C   UNL     1     111.352 122.417 105.454  1.00  0.00     0.262 C 
BRANCH  12  13
ATOM     13  N   UNL     1     111.796 121.292 104.641  1.00  0.00    -0.335 N 
ATOM     14  C   UNL     1     113.145 120.910 104.927  1.00  0.00     0.265 C 
ATOM     15  C   UNL     1     110.910 120.186 104.808  1.00  0.00     0.265 C 
ATOM     16  C   UNL     1     113.313 120.505 106.366  1.00  0.00     0.102 C 
ATOM     17  C   UNL     1     111.391 119.061 105.622  1.00  0.00     0.102 C 
ATOM     18  C   UNL     1     112.421 119.335 106.655  1.00  0.00     0.100 C 
ATOM     19  H   UNL     1     111.794 121.664 103.645  1.00  0.00     0.348 HD
BRANCH  18  20
ATOM     20  O   UNL     1     113.269 118.202 106.704  1.00  0.00    -0.385 OA
ATOM     21  H   UNL     1     113.262 117.883 107.641  1.00  0.00     0.211 HD
ENDBRANCH  18  20
BRANCH  18  22
ATOM     22  C   UNL     1     111.843 119.418 108.044  1.00  0.00    -0.016 A 
ATOM     23  C   UNL     1     112.625 119.684 109.148  1.00  0.00     0.008 A 
ATOM     24  C   UNL     1     110.502 119.233 108.300  1.00  0.00     0.008 A 
ATOM     25  C   UNL     1     112.137 119.768 110.432  1.00  0.00     0.021 A 
ATOM     26  C   UNL     1     109.989 119.312 109.580  1.00  0.00     0.021 A 
ATOM     27  C   UNL     1     110.807 119.579 110.644  1.00  0.00     0.041 A 
ATOM     28  Cl  UNL     1     110.166 119.683 112.266  1.00  0.00    -0.084 Cl
ENDBRANCH  18  22
ENDBRANCH  12  13
ENDBRANCH   1  12
TORSDOF 7
ENDMDL
MODEL 3
REMARK VINA RESULT:      -7.3      1.602      2.207
REMARK SMILES O=C(CCC[NH+]1CCC(O)(c2ccc(Cl)cc2)CC1)c1ccc(F)cc1
REMARK SMILES IDX 4 1 3 2 2 3 1 4 20 5 21 6 26 7 22 8 25 9 23 10 24 11 5 12
REMARK SMILES IDX 6 13 7 14 19 15 8 16 18 17 9 18 10 20 11 22 12 23 17 24
REMARK SMILES IDX 13 25 16 26 14 27 15 28
REMARK H PARENT 6 19 10 21
ROOT
ATOM      1  C   UNL     1     110.303 121.823 109.409  1.00  0.00     0.070 C 
ENDROOT
BRANCH   1   2
ATOM      2  C   UNL     1     110.578 123.219 109.922  1.00  0.00     0.087 C 
BRANCH   2   3
ATOM      3  C   UNL     1     111.659 123.297 110.907  1.00  0.00     0.163 C 
ATOM      4  O   UNL     1     112.793 122.802 110.679  1.00  0.00    -0.294 OA
BRANCH   3   5
ATOM      5  C   UNL     1     111.488 123.956 112.219  1.00  0.00     0.018 A 
ATOM      6  C   UNL     1     112.388 124.917 112.645  1.00  0.00     0.015 A 
ATOM      7  C   UNL     1     110.439 123.634 113.041  1.00  0.00     0.015 A 
ATOM      8  C   UNL     1     112.224 125.526 113.866  1.00  0.00     0.040 A 
ATOM      9  C   UNL     1     110.268 124.236 114.258  1.00  0.00     0.040 A 
ATOM     10  C   UNL     1     111.165 125.185 114.668  1.00  0.00     0.123 A 
ATOM     11  F   UNL     1     110.963 125.764 115.894  1.00  0.00    -0.207 F 
ENDBRANCH   3   5
ENDBRANCH   2   3
ENDBRANCH   1   2
BRANCH   1  12
ATOM     12  C   UNL     1     110.904 121.693 108.051  1.00  0.00     0.262 C 
BRANCH  12  13
ATOM     13  N   UNL     1     112.342 121.459 108.091  1.00  0.00    -0.335 N 
ATOM     14  C   UNL     1     112.675 120.200 108.684  1.00  0.00     0.265 C 
ATOM     15  C   UNL     1     112.893 121.563 106.779  1.00  0.00     0.265 C 
ATOM     16  C   UNL     1     112.065 119.053 107.925  1.00  0.00     0.102 C 
ATOM     17  C   UNL     1     113.276 120.310 106.113  1.00  0.00     0.102 C 
ATOM     18  C   UNL     1     112.582 119.062 106.518  1.00  0.00     0.100 C 
ATOM     19  H   UNL     1     112.716 122.208 108.746  1.00  0.00     0.348 HD
BRANCH  18  20
ATOM     20  O   UNL     1     113.536 118.018 106.447  1.00  0.00    -0.385 OA
ATOM     21  H   UNL     1     113.090 117.258 105.994  1.00  0.00     0.211 HD
ENDBRANCH  18  20
BRANCH  18  22
ATOM     22  C   UNL     1     111.514 118.649 105.539  1.00  0.00    -0.016 A 
ATOM     23  C   UNL     1     110.209 119.082 105.654  1.00  0.00     0.008 A 
ATOM     24  C   UNL     1     111.770 117.816 104.473  1.00  0.00     0.008 A 
ATOM     25  C   UNL     1     109.205 118.728 104.783  1.00  0.00     0.021 A 
ATOM     26  C   UNL     1     110.778 117.446 103.586  1.00  0.00     0.021 A 
ATOM     27  C   UNL     1     109.497 117.902 103.741  1.00  0.00     0.041 A 
ATOM     28  Cl  UNL     1     108.236 117.442 102.623  1.00  0.00    -0.084 Cl
ENDBRANCH  18  22
ENDBRANCH  12  13
ENDBRANCH   1  12
TORSDOF 7
ENDMDL
MODEL 4
REMARK VINA RESULT:      -7.1      5.424     10.221
REMARK SMILES O=C(CCC[NH+]1CCC(O)(c2ccc(Cl)cc2)CC1)c1ccc(F)cc1
REMARK SMILES IDX 4 1 3 2 2 3 1 4 20 5 21 6 26 7 22 8 25 9 23 10 24 11 5 12
REMARK SMILES IDX 6 13 7 14 19 15 8 16 18 17 9 18 10 20 11 22 12 23 17 24
REMARK SMILES IDX 13 25 16 26 14 27 15 28
REMARK H PARENT 6 19 10 21
ROOT
ATOM      1  C   UNL     1     111.462 118.218 105.036  1.00  0.00     0.070 C 
ENDROOT
BRANCH   1   2
ATOM      2  C   UNL     1     111.291 117.563 103.683  1.00  0.00     0.087 C 
BRANCH   2   3
ATOM      3  C   UNL     1     110.356 116.436 103.672  1.00  0.00     0.163 C 
ATOM      4  O   UNL     1     109.476 116.304 104.562  1.00  0.00    -0.294 OA
BRANCH   3   5
ATOM      5  C   UNL     1     110.385 115.392 102.626  1.00  0.00     0.018 A 
ATOM      6  C   UNL     1     111.561 115.100 101.959  1.00  0.00     0.015 A 
ATOM      7  C   UNL     1     109.253 114.693 102.294  1.00  0.00     0.015 A 
ATOM      8  C   UNL     1     111.581 114.128 100.987  1.00  0.00     0.040 A 
ATOM      9  C   UNL     1     109.266 113.724 101.327  1.00  0.00     0.040 A 
ATOM     10  C   UNL     1     110.435 113.443 100.674  1.00  0.00     0.123 A 
ATOM     11  F   UNL     1     110.407 112.468  99.710  1.00  0.00    -0.207 F 
ENDBRANCH   3   5
ENDBRANCH   2   3
ENDBRANCH   1   2
BRANCH   1  12
ATOM     12  C   UNL     1     110.860 119.580 104.979  1.00  0.00     0.262 C 
BRANCH  12  13
ATOM     13  N   UNL     1     111.843 120.620 104.704  1.00  0.00    -0.335 N 
ATOM     14  C   UNL     1     111.392 121.918 105.104  1.00  0.00     0.265 C 
ATOM     15  C   UNL     1     113.085 120.299 105.330  1.00  0.00     0.265 C 
ATOM     16  C   UNL     1     111.098 121.972 106.578  1.00  0.00     0.102 C 
ATOM     17  C   UNL     1     113.444 121.064 106.533  1.00  0.00     0.102 C 
ATOM     18  C   UNL     1     112.348 121.651 107.343  1.00  0.00     0.100 C 
ATOM     19  H   UNL     1     111.919 120.642 103.644  1.00  0.00     0.348 HD
BRANCH  18  20
ATOM     20  O   UNL     1     112.823 122.886 107.847  1.00  0.00    -0.385 OA
ATOM     21  H   UNL     1     112.024 123.420 108.086  1.00  0.00     0.211 HD
ENDBRANCH  18  20
BRANCH  18  22
ATOM     22  C   UNL     1     112.042 120.845 108.578  1.00  0.00    -0.016 A 
ATOM     23  C   UNL     1     112.095 119.467 108.584  1.00  0.00     0.008 A 
ATOM     24  C   UNL     1     111.692 121.429 109.775  1.00  0.00     0.008 A 
ATOM     25  C   UNL     1     111.823 118.694 109.690  1.00  0.00     0.021 A 
ATOM     26  C   UNL     1     111.414 120.674 110.898  1.00  0.00     0.021 A 
ATOM     27  C   UNL     1     111.481 119.308 110.854  1.00  0.00     0.041 A 
ATOM     28  Cl  UNL     1     111.133 118.346 112.270  1.00  0.00    -0.084 Cl
ENDBRANCH  18  22
ENDBRANCH  12  13
ENDBRANCH   1  12
TORSDOF 7
ENDMDL
MODEL 5
REMARK VINA RESULT:      -7.0      1.212      1.883
REMARK SMILES O=C(CCC[NH+]1CCC(O)(c2ccc(Cl)cc2)CC1)c1ccc(F)cc1
REMARK SMILES IDX 4 1 3 2 2 3 1 4 20 5 21 6 26 7 22 8 25 9 23 10 24 11 5 12
REMARK SMILES IDX 6 13 7 14 19 15 8 16 18 17 9 18 10 20 11 22 12 23 17 24
REMARK SMILES IDX 13 25 16 26 14 27 15 28
REMARK H PARENT 6 19 10 21
ROOT
ATOM      1  C   UNL     1     110.993 121.150 111.099  1.00  0.00     0.070 C 
ENDROOT
BRANCH   1   2
ATOM      2  C   UNL     1     111.508 122.312 111.918  1.00  0.00     0.087 C 
BRANCH   2   3
ATOM      3  C   UNL     1     110.481 122.992 112.711  1.00  0.00     0.163 C 
ATOM      4  O   UNL     1     109.263 122.696 112.602  1.00  0.00    -0.294 OA
BRANCH   3   5
ATOM      5  C   UNL     1     110.808 124.058 113.682  1.00  0.00     0.018 A 
ATOM      6  C   UNL     1     110.054 124.217 114.831  1.00  0.00     0.015 A 
ATOM      7  C   UNL     1     111.861 124.910 113.468  1.00  0.00     0.015 A 
ATOM      8  C   UNL     1     110.363 125.210 115.729  1.00  0.00     0.040 A 
ATOM      9  C   UNL     1     112.175 125.902 114.359  1.00  0.00     0.040 A 
ATOM     10  C   UNL     1     111.422 126.049 115.491  1.00  0.00     0.123 A 
ATOM     11  F   UNL     1     111.765 127.054 116.358  1.00  0.00    -0.207 F 
ENDBRANCH   3   5
ENDBRANCH   2   3
ENDBRANCH   1   2
BRANCH   1  12
ATOM     12  C   UNL     1     111.401 121.355 109.681  1.00  0.00     0.262 C 
BRANCH  12  13
ATOM     13  N   UNL     1     111.008 122.660 109.164  1.00  0.00    -0.335 N 
ATOM     14  C   UNL     1     112.063 123.302 108.441  1.00  0.00     0.265 C 
ATOM     15  C   UNL     1     109.840 122.535 108.354  1.00  0.00     0.265 C 
ATOM     16  C   UNL     1     112.505 122.479 107.262  1.00  0.00     0.102 C 
ATOM     17  C   UNL     1     110.021 122.641 106.899  1.00  0.00     0.102 C 
ATOM     18  C   UNL     1     111.345 122.286 106.332  1.00  0.00     0.100 C 
ATOM     19  H   UNL     1     110.837 123.250 110.032  1.00  0.00     0.348 HD
BRANCH  18  20
ATOM     20  O   UNL     1     111.573 123.159 105.240  1.00  0.00    -0.385 OA
ATOM     21  H   UNL     1     111.664 124.069 105.619  1.00  0.00     0.211 HD
ENDBRANCH  18  20
BRANCH  18  22
ATOM     22  C   UNL     1     111.362 120.913 105.712  1.00  0.00    -0.016 A 
ATOM     23  C   UNL     1     110.260 120.384 105.074  1.00  0.00     0.008 A 
ATOM     24  C   UNL     1     112.475 120.101 105.742  1.00  0.00     0.008 A 
ATOM     25  C   UNL     1     110.234 119.136 104.496  1.00  0.00     0.021 A 
ATOM     26  C   UNL     1     112.472 118.845 105.170  1.00  0.00     0.021 A 
ATOM     27  C   UNL     1     111.353 118.364 104.547  1.00  0.00     0.041 A 
ATOM     28  Cl  UNL     1     111.342 116.776 103.818  1.00  0.00    -0.084 Cl
ENDBRANCH  18  22
ENDBRANCH  12  13
ENDBRANCH   1  12
TORSDOF 7
ENDMDL
MODEL 6
REMARK VINA RESULT:      -7.0      1.425      1.962
REMARK SMILES O=C(CCC[NH+]1CCC(O)(c2ccc(Cl)cc2)CC1)c1ccc(F)cc1
REMARK SMILES IDX 4 1 3 2 2 3 1 4 20 5 21 6 26 7 22 8 25 9 23 10 24 11 5 12
REMARK SMILES IDX 6 13 7 14 19 15 8 16 18 17 9 18 10 20 11 22 12 23 17 24
REMARK SMILES IDX 13 25 16 26 14 27 15 28
REMARK H PARENT 6 19 10 21
ROOT
ATOM      1  C   UNL     1     109.390 123.287 108.876  1.00  0.00     0.070 C 
ENDROOT
BRANCH   1   2
ATOM      2  C   UNL     1     109.311 122.431 110.120  1.00  0.00     0.087 C 
BRANCH   2   3
ATOM      3  C   UNL     1     110.584 122.273 110.826  1.00  0.00     0.163 C 
ATOM      4  O   UNL     1     111.297 121.248 110.674  1.00  0.00    -0.294 OA
BRANCH   3   5
ATOM      5  C   UNL     1     111.108 123.299 111.753  1.00  0.00     0.018 A 
ATOM      6  C   UNL     1     112.288 123.964 111.470  1.00  0.00     0.015 A 
ATOM      7  C   UNL     1     110.440 123.615 112.908  1.00  0.00     0.015 A 
ATOM      8  C   UNL     1     112.769 124.917 112.336  1.00  0.00     0.040 A 
ATOM      9  C   UNL     1     110.914 124.563 113.775  1.00  0.00     0.040 A 
ATOM     10  C   UNL     1     112.081 125.214 113.485  1.00  0.00     0.123 A 
ATOM     11  F   UNL     1     112.525 126.155 114.378  1.00  0.00    -0.207 F 
ENDBRANCH   3   5
ENDBRANCH   2   3
ENDBRANCH   1   2
BRANCH   1  12
ATOM     12  C   UNL     1     109.953 122.461 107.771  1.00  0.00     0.262 C 
BRANCH  12  13
ATOM     13  N   UNL     1     111.061 123.115 107.087  1.00  0.00    -0.335 N 
ATOM     14  C   UNL     1     112.333 122.588 107.479  1.00  0.00     0.265 C 
ATOM     15  C   UNL     1     110.889 123.023 105.673  1.00  0.00     0.265 C 
ATOM     16  C   UNL     1     112.439 121.118 107.179  1.00  0.00     0.102 C 
ATOM     17  C   UNL     1     111.746 122.069 104.955  1.00  0.00     0.102 C 
ATOM     18  C   UNL     1     112.274 120.902 105.704  1.00  0.00     0.100 C 
ATOM     19  H   UNL     1     111.033 124.120 107.432  1.00  0.00     0.348 HD
BRANCH  18  20
ATOM     20  O   UNL     1     113.572 120.642 105.202  1.00  0.00    -0.385 OA
ATOM     21  H   UNL     1     113.454 120.266 104.294  1.00  0.00     0.211 HD
ENDBRANCH  18  20
BRANCH  18  22
ATOM     22  C   UNL     1     111.511 119.635 105.418  1.00  0.00    -0.016 A 
ATOM     23  C   UNL     1     110.400 119.269 106.149  1.00  0.00     0.008 A 
ATOM     24  C   UNL     1     111.872 118.765 104.413  1.00  0.00     0.008 A 
ATOM     25  C   UNL     1     109.676 118.121 105.921  1.00  0.00     0.021 A 
ATOM     26  C   UNL     1     111.161 117.607 104.166  1.00  0.00     0.021 A 
ATOM     27  C   UNL     1     110.064 117.287 104.919  1.00  0.00     0.041 A 
ATOM     28  Cl  UNL     1     109.158 115.825 104.611  1.00  0.00    -0.084 Cl
ENDBRANCH  18  22
ENDBRANCH  12  13
ENDBRANCH   1  12
TORSDOF 7
ENDMDL
MODEL 7
REMARK VINA RESULT:      -7.0      2.828      4.245
REMARK SMILES O=C(CCC[NH+]1CCC(O)(c2ccc(Cl)cc2)CC1)c1ccc(F)cc1
REMARK SMILES IDX 4 1 3 2 2 3 1 4 20 5 21 6 26 7 22 8 25 9 23 10 24 11 5 12
REMARK SMILES IDX 6 13 7 14 19 15 8 16 18 17 9 18 10 20 11 22 12 23 17 24
REMARK SMILES IDX 13 25 16 26 14 27 15 28
REMARK H PARENT 6 19 10 21
ROOT
ATOM      1  C   UNL     1     112.183 120.732 109.993  1.00  0.00     0.070 C 
ENDROOT
BRANCH   1   2
ATOM      2  C   UNL     1     111.389 121.661 110.884  1.00  0.00     0.087 C 
BRANCH   2   3
ATOM      3  C   UNL     1     111.903 123.031 110.938  1.00  0.00     0.163 C 
ATOM      4  O   UNL     1     112.415 123.581 109.929  1.00  0.00    -0.294 OA
BRANCH   3   5
ATOM      5  C   UNL     1     111.854 123.847 112.169  1.00  0.00     0.018 A 
ATOM      6  C   UNL     1     112.921 124.655 112.520  1.00  0.00     0.015 A 
ATOM      7  C   UNL     1     110.755 123.824 112.989  1.00  0.00     0.015 A 
ATOM      8  C   UNL     1     112.869 125.411 113.666  1.00  0.00     0.040 A 
ATOM      9  C   UNL     1     110.695 124.575 114.132  1.00  0.00     0.040 A 
ATOM     10  C   UNL     1     111.757 125.370 114.468  1.00  0.00     0.123 A 
ATOM     11  F   UNL     1     111.662 126.105 115.622  1.00  0.00    -0.207 F 
ENDBRANCH   3   5
ENDBRANCH   2   3
ENDBRANCH   1   2
BRANCH   1  12
ATOM     12  C   UNL     1     111.276 120.204 108.935  1.00  0.00     0.262 C 
BRANCH  12  13
ATOM     13  N   UNL     1     111.902 120.176 107.619  1.00  0.00    -0.335 N 
ATOM     14  C   UNL     1     111.011 119.709 106.600  1.00  0.00     0.265 C 
ATOM     15  C   UNL     1     112.415 121.466 107.292  1.00  0.00     0.265 C 
ATOM     16  C   UNL     1     109.793 120.584 106.487  1.00  0.00     0.102 C 
ATOM     17  C   UNL     1     111.668 122.251 106.298  1.00  0.00     0.102 C 
ATOM     18  C   UNL     1     110.218 121.979 106.139  1.00  0.00     0.100 C 
ATOM     19  H   UNL     1     112.670 119.445 107.704  1.00  0.00     0.348 HD
BRANCH  18  20
ATOM     20  O   UNL     1     109.915 122.146 104.766  1.00  0.00    -0.385 OA
ATOM     21  H   UNL     1     108.928 122.186 104.697  1.00  0.00     0.211 HD
ENDBRANCH  18  20
BRANCH  18  22
ATOM     22  C   UNL     1     109.356 123.003 106.830  1.00  0.00    -0.016 A 
ATOM     23  C   UNL     1     108.766 124.045 106.146  1.00  0.00     0.008 A 
ATOM     24  C   UNL     1     109.103 122.965 108.184  1.00  0.00     0.008 A 
ATOM     25  C   UNL     1     107.973 125.000 106.740  1.00  0.00     0.021 A 
ATOM     26  C   UNL     1     108.311 123.912 108.802  1.00  0.00     0.021 A 
ATOM     27  C   UNL     1     107.746 124.929 108.079  1.00  0.00     0.041 A 
ATOM     28  Cl  UNL     1     106.741 126.130 108.852  1.00  0.00    -0.084 Cl
ENDBRANCH  18  22
ENDBRANCH  12  13
ENDBRANCH   1  12
TORSDOF 7
ENDMDL
MODEL 8
REMARK VINA RESULT:      -7.0      3.841      6.031
REMARK SMILES O=C(CCC[NH+]1CCC(O)(c2ccc(Cl)cc2)CC1)c1ccc(F)cc1
REMARK SMILES IDX 4 1 3 2 2 3 1 4 20 5 21 6 26 7 22 8 25 9 23 10 24 11 5 12
REMARK SMILES IDX 6 13 7 14 19 15 8 16 18 17 9 18 10 20 11 22 12 23 17 24
REMARK SMILES IDX 13 25 16 26 14 27 15 28
REMARK H PARENT 6 19 10 21
ROOT
ATOM      1  C   UNL     1     112.104 119.396 104.998  1.00  0.00     0.070 C 
ENDROOT
BRANCH   1   2
ATOM      2  C   UNL     1     112.571 118.733 106.275  1.00  0.00     0.087 C 
BRANCH   2   3
ATOM      3  C   UNL     1     112.605 119.622 107.438  1.00  0.00     0.163 C 
ATOM      4  O   UNL     1     113.322 120.656 107.454  1.00  0.00    -0.294 OA
BRANCH   3   5
ATOM      5  C   UNL     1     111.807 119.365 108.655  1.00  0.00     0.018 A 
ATOM      6  C   UNL     1     112.415 119.314 109.897  1.00  0.00     0.015 A 
ATOM      7  C   UNL     1     110.451 119.172 108.583  1.00  0.00     0.015 A 
ATOM      8  C   UNL     1     111.667 119.074 111.024  1.00  0.00     0.040 A 
ATOM      9  C   UNL     1     109.699 118.933 109.702  1.00  0.00     0.040 A 
ATOM     10  C   UNL     1     110.312 118.885 110.924  1.00  0.00     0.123 A 
ATOM     11  F   UNL     1     109.526 118.641 112.021  1.00  0.00    -0.207 F 
ENDBRANCH   3   5
ENDBRANCH   2   3
ENDBRANCH   1   2
BRANCH   1  12
ATOM     12  C   UNL     1     110.769 120.009 105.247  1.00  0.00     0.262 C 
BRANCH  12  13
ATOM     13  N   UNL     1     110.530 121.189 104.425  1.00  0.00    -0.335 N 
ATOM     14  C   UNL     1     109.185 121.666 104.533  1.00  0.00     0.265 C 
ATOM     15  C   UNL     1     111.461 122.217 104.759  1.00  0.00     0.265 C 
ATOM     16  C   UNL     1     108.843 122.041 105.949  1.00  0.00     0.102 C 
ATOM     17  C   UNL     1     110.952 123.353 105.541  1.00  0.00     0.102 C 
ATOM     18  C   UNL     1     109.767 123.130 106.408  1.00  0.00     0.100 C 
ATOM     19  H   UNL     1     110.647 120.846 103.425  1.00  0.00     0.348 HD
BRANCH  18  20
ATOM     20  O   UNL     1     109.006 124.324 106.381  1.00  0.00    -0.385 OA
ATOM     21  H   UNL     1     109.651 125.072 106.438  1.00  0.00     0.211 HD
ENDBRANCH  18  20
BRANCH  18  22
ATOM     22  C   UNL     1     110.133 122.962 107.859  1.00  0.00    -0.016 A 
ATOM     23  C   UNL     1     111.430 123.100 108.308  1.00  0.00     0.008 A 
ATOM     24  C   UNL     1     109.200 122.661 108.828  1.00  0.00     0.008 A 
ATOM     25  C   UNL     1     111.805 122.955 109.624  1.00  0.00     0.021 A 
ATOM     26  C   UNL     1     109.553 122.510 110.154  1.00  0.00     0.021 A 
ATOM     27  C   UNL     1     110.855 122.658 110.551  1.00  0.00     0.041 A 
ATOM     28  Cl  UNL     1     111.310 122.471 112.227  1.00  0.00    -0.084 Cl
ENDBRANCH  18  22
ENDBRANCH  12  13
ENDBRANCH   1  12
TORSDOF 7
ENDMDL
MODEL 9
REMARK VINA RESULT:      -7.0      5.468     10.439
REMARK SMILES O=C(CCC[NH+]1CCC(O)(c2ccc(Cl)cc2)CC1)c1ccc(F)cc1
REMARK SMILES IDX 4 1 3 2 2 3 1 4 20 5 21 6 26 7 22 8 25 9 23 10 24 11 5 12
REMARK SMILES IDX 6 13 7 14 19 15 8 16 18 17 9 18 10 20 11 22 12 23 17 24
REMARK SMILES IDX 13 25 16 26 14 27 15 28
REMARK H PARENT 6 19 10 21
ROOT
ATOM      1  C   UNL     1     111.874 117.720 104.781  1.00  0.00     0.070 C 
ENDROOT
BRANCH   1   2
ATOM      2  C   UNL     1     111.031 117.537 103.539  1.00  0.00     0.087 C 
BRANCH   2   3
ATOM      3  C   UNL     1     110.286 116.276 103.496  1.00  0.00     0.163 C 
ATOM      4  O   UNL     1     109.419 115.996 104.363  1.00  0.00    -0.294 OA
BRANCH   3   5
ATOM      5  C   UNL     1     110.504 115.263 102.442  1.00  0.00     0.018 A 
ATOM      6  C   UNL     1     111.742 115.129 101.841  1.00  0.00     0.015 A 
ATOM      7  C   UNL     1     109.488 114.436 102.037  1.00  0.00     0.015 A 
ATOM      8  C   UNL     1     111.937 114.186 100.861  1.00  0.00     0.040 A 
ATOM      9  C   UNL     1     109.674 113.493 101.062  1.00  0.00     0.040 A 
ATOM     10  C   UNL     1     110.904 113.370 100.475  1.00  0.00     0.123 A 
ATOM     11  F   UNL     1     111.052 112.417  99.501  1.00  0.00    -0.207 F 
ENDBRANCH   3   5
ENDBRANCH   2   3
ENDBRANCH   1   2
BRANCH   1  12
ATOM     12  C   UNL     1     111.539 119.040 105.386  1.00  0.00     0.262 C 
BRANCH  12  13
ATOM     13  N   UNL     1     112.402 120.114 104.912  1.00  0.00    -0.335 N 
ATOM     14  C   UNL     1     111.716 121.366 104.813  1.00  0.00     0.265 C 
ATOM     15  C   UNL     1     113.549 120.229 105.753  1.00  0.00     0.265 C 
ATOM     16  C   UNL     1     111.167 121.801 106.144  1.00  0.00     0.102 C 
ATOM     17  C   UNL     1     113.588 121.370 106.679  1.00  0.00     0.102 C 
ATOM     18  C   UNL     1     112.298 121.959 107.117  1.00  0.00     0.100 C 
ATOM     19  H   UNL     1     112.657 119.832 103.918  1.00  0.00     0.348 HD
BRANCH  18  20
ATOM     20  O   UNL     1     112.504 123.354 107.249  1.00  0.00    -0.385 OA
ATOM     21  H   UNL     1     113.200 123.471 107.943  1.00  0.00     0.211 HD
ENDBRANCH  18  20
BRANCH  18  22
ATOM     22  C   UNL     1     111.897 121.516 108.499  1.00  0.00    -0.016 A 
ATOM     23  C   UNL     1     111.867 122.388 109.568  1.00  0.00     0.008 A 
ATOM     24  C   UNL     1     111.536 120.217 108.785  1.00  0.00     0.008 A 
ATOM     25  C   UNL     1     111.508 122.024 110.845  1.00  0.00     0.021 A 
ATOM     26  C   UNL     1     111.172 119.829 110.059  1.00  0.00     0.021 A 
ATOM     27  C   UNL     1     111.158 120.732 111.087  1.00  0.00     0.041 A 
ATOM     28  Cl  UNL     1     110.697 120.249 112.702  1.00  0.00    -0.084 Cl
ENDBRANCH  18  22
ENDBRANCH  12  13
ENDBRANCH   1  12
TORSDOF 7
ENDMDL
