MODEL 1
REMARK VINA RESULT:      -5.7      0.000      0.000
REMARK SMILES Cc1c(OCC(F)(F)F)ccnc1C[S+](O)c1nc2ccccc2[n-]1
REMARK SMILES IDX 1 1 2 2 3 3 10 4 11 5 12 6 13 7 4 8 5 9 6 10 7 11 8 12 9 13
REMARK SMILES IDX 14 14 15 15 16 16 17 18 18 19 25 20 19 21 24 22 20 23 23 24
REMARK SMILES IDX 21 25 22 26
REMARK H PARENT 16 17
ROOT
ATOM      1  C   UNL     1      59.754  28.101  15.667  1.00  0.00     0.050 C 
ATOM      2  C   UNL     1      59.713  29.315  14.816  1.00  0.00     0.018 A 
ATOM      3  C   UNL     1      60.849  29.705  14.104  1.00  0.00     0.126 A 
ATOM      4  C   UNL     1      60.765  30.846  13.339  1.00  0.00     0.067 A 
ATOM      5  C   UNL     1      59.601  31.573  13.282  1.00  0.00     0.115 A 
ATOM      6  N   UNL     1      58.541  31.172  13.972  1.00  0.00    -0.256 NA
ATOM      7  C   UNL     1      58.554  30.053  14.748  1.00  0.00     0.100 A 
ENDROOT
BRANCH   3   8
ATOM      8  O   UNL     1      61.990  28.927  14.205  1.00  0.00    -0.484 OA
BRANCH   8   9
ATOM      9  C   UNL     1      63.211  29.432  14.661  1.00  0.00     0.344 C 
BRANCH   9  10
ATOM     10  C   UNL     1      64.273  29.045  13.653  1.00  0.00     0.422 C 
ATOM     11  F   UNL     1      65.424  28.746  14.362  1.00  0.00    -0.167 F 
ATOM     12  F   UNL     1      64.538  30.087  12.788  1.00  0.00    -0.167 F 
ATOM     13  F   UNL     1      63.900  27.921  12.948  1.00  0.00    -0.167 F 
ENDBRANCH   9  10
ENDBRANCH   8   9
ENDBRANCH   3   8
BRANCH   7  14
ATOM     14  C   UNL     1      57.310  29.668  15.475  1.00  0.00     0.380 C 
BRANCH  14  15
ATOM     15  S   UNL     1      55.945  30.197  14.590  1.00  0.00     0.181 S 
BRANCH  15  16
ATOM     16  O   UNL     1      55.992  30.283  12.976  1.00  0.00    -0.182 OA
ATOM     17  H   UNL     1      56.776  30.836  12.684  1.00  0.00     0.283 HD
ENDBRANCH  15  16
BRANCH  15  18
ATOM     18  C   UNL     1      54.446  30.362  15.389  1.00  0.00     0.179 A 
ATOM     19  N   UNL     1      54.013  29.926  16.580  1.00  0.00    -0.390 NA
ATOM     20  N   UNL     1      53.389  31.028  14.847  1.00  0.00    -0.390 NA
ATOM     21  C   UNL     1      52.739  30.309  16.768  1.00  0.00    -0.035 A 
ATOM     22  C   UNL     1      52.332  31.015  15.662  1.00  0.00    -0.035 A 
ATOM     23  C   UNL     1      51.825  30.133  17.803  1.00  0.00     0.004 A 
ATOM     24  C   UNL     1      51.039  31.539  15.585  1.00  0.00     0.004 A 
ATOM     25  C   UNL     1      50.551  30.639  17.747  1.00  0.00     0.000 A 
ATOM     26  C   UNL     1      50.161  31.345  16.631  1.00  0.00     0.000 A 
ENDBRANCH  15  18
ENDBRANCH  14  15
ENDBRANCH   7  14
TORSDOF 7
ENDMDL
MODEL 2
REMARK VINA RESULT:      -5.4      0.350      1.419
REMARK SMILES Cc1c(OCC(F)(F)F)ccnc1C[S+](O)c1nc2ccccc2[n-]1
REMARK SMILES IDX 1 1 2 2 3 3 10 4 11 5 12 6 13 7 4 8 5 9 6 10 7 11 8 12 9 13
REMARK SMILES IDX 14 14 15 15 16 16 17 18 18 19 25 20 19 21 24 22 20 23 23 24
REMARK SMILES IDX 21 25 22 26
REMARK H PARENT 16 17
ROOT
ATOM      1  C   UNL     1      59.812  28.621  16.205  1.00  0.00     0.050 C 
ATOM      2  C   UNL     1      59.820  29.605  15.096  1.00  0.00     0.018 A 
ATOM      3  C   UNL     1      60.966  29.764  14.315  1.00  0.00     0.126 A 
ATOM      4  C   UNL     1      60.928  30.700  13.305  1.00  0.00     0.067 A 
ATOM      5  C   UNL     1      59.798  31.449  13.080  1.00  0.00     0.115 A 
ATOM      6  N   UNL     1      58.728  31.269  13.843  1.00  0.00    -0.256 NA
ATOM      7  C   UNL     1      58.696  30.361  14.857  1.00  0.00     0.100 A 
ENDROOT
BRANCH   3   8
ATOM      8  O   UNL     1      62.070  28.977  14.595  1.00  0.00    -0.484 OA
BRANCH   8   9
ATOM      9  C   UNL     1      63.349  29.508  14.785  1.00  0.00     0.344 C 
BRANCH   9  10
ATOM     10  C   UNL     1      64.251  28.927  13.717  1.00  0.00     0.422 C 
ATOM     11  F   UNL     1      63.546  27.915  13.088  1.00  0.00    -0.167 F 
ATOM     12  F   UNL     1      65.397  28.395  14.272  1.00  0.00    -0.167 F 
ATOM     13  F   UNL     1      64.574  29.877  12.771  1.00  0.00    -0.167 F 
ENDBRANCH   9  10
ENDBRANCH   8   9
ENDBRANCH   3   8
BRANCH   7  14
ATOM     14  C   UNL     1      57.443  30.216  15.653  1.00  0.00     0.380 C 
BRANCH  14  15
ATOM     15  S   UNL     1      56.089  30.422  14.627  1.00  0.00     0.181 S 
BRANCH  15  16
ATOM     16  O   UNL     1      56.232  30.239  13.027  1.00  0.00    -0.182 OA
ATOM     17  H   UNL     1      55.916  31.067  12.558  1.00  0.00     0.283 HD
ENDBRANCH  15  16
BRANCH  15  18
ATOM     18  C   UNL     1      54.532  30.542  15.316  1.00  0.00     0.179 A 
ATOM     19  N   UNL     1      53.400  31.108  14.877  1.00  0.00    -0.390 NA
ATOM     20  N   UNL     1      54.221  30.023  16.536  1.00  0.00    -0.390 NA
ATOM     21  C   UNL     1      52.426  30.944  15.789  1.00  0.00    -0.035 A 
ATOM     22  C   UNL     1      52.945  30.250  16.855  1.00  0.00    -0.035 A 
ATOM     23  C   UNL     1      51.087  31.321  15.844  1.00  0.00     0.004 A 
ATOM     24  C   UNL     1      52.148  29.934  17.958  1.00  0.00     0.004 A 
ATOM     25  C   UNL     1      50.288  31.021  16.918  1.00  0.00     0.000 A 
ATOM     26  C   UNL     1      50.825  30.324  17.977  1.00  0.00     0.000 A 
ENDBRANCH  15  18
ENDBRANCH  14  15
ENDBRANCH   7  14
TORSDOF 7
ENDMDL
MODEL 3
REMARK VINA RESULT:      -5.4      5.680      9.092
REMARK SMILES Cc1c(OCC(F)(F)F)ccnc1C[S+](O)c1nc2ccccc2[n-]1
REMARK SMILES IDX 1 1 2 2 3 3 10 4 11 5 12 6 13 7 4 8 5 9 6 10 7 11 8 12 9 13
REMARK SMILES IDX 14 14 15 15 16 16 17 18 18 19 25 20 19 21 24 22 20 23 23 24
REMARK SMILES IDX 21 25 22 26
REMARK H PARENT 16 17
ROOT
ATOM      1  C   UNL     1      55.644  30.300  13.517  1.00  0.00     0.050 C 
ATOM      2  C   UNL     1      55.885  30.358  14.980  1.00  0.00     0.018 A 
ATOM      3  C   UNL     1      54.839  30.681  15.845  1.00  0.00     0.126 A 
ATOM      4  C   UNL     1      55.116  30.735  17.193  1.00  0.00     0.067 A 
ATOM      5  C   UNL     1      56.381  30.481  17.663  1.00  0.00     0.115 A 
ATOM      6  N   UNL     1      57.351  30.177  16.810  1.00  0.00    -0.256 NA
ATOM      7  C   UNL     1      57.146  30.105  15.466  1.00  0.00     0.100 A 
ENDROOT
BRANCH   3   8
ATOM      8  O   UNL     1      53.587  30.926  15.305  1.00  0.00    -0.484 OA
BRANCH   8   9
ATOM      9  C   UNL     1      52.875  32.102  15.552  1.00  0.00     0.344 C 
BRANCH   9  10
ATOM     10  C   UNL     1      51.403  31.747  15.599  1.00  0.00     0.422 C 
ATOM     11  F   UNL     1      50.740  32.630  14.764  1.00  0.00    -0.167 F 
ATOM     12  F   UNL     1      50.902  31.878  16.877  1.00  0.00    -0.167 F 
ATOM     13  F   UNL     1      51.188  30.468  15.129  1.00  0.00    -0.167 F 
ENDBRANCH   9  10
ENDBRANCH   8   9
ENDBRANCH   3   8
BRANCH   7  14
ATOM     14  C   UNL     1      58.292  29.740  14.583  1.00  0.00     0.380 C 
BRANCH  14  15
ATOM     15  S   UNL     1      59.509  28.979  15.514  1.00  0.00     0.181 S 
BRANCH  15  16
ATOM     16  O   UNL     1      60.355  29.817  16.609  1.00  0.00    -0.182 OA
ATOM     17  H   UNL     1      59.992  29.646  17.527  1.00  0.00     0.283 HD
ENDBRANCH  15  16
BRANCH  15  18
ATOM     18  C   UNL     1      59.638  27.277  15.488  1.00  0.00     0.179 A 
ATOM     19  N   UNL     1      60.452  26.451  14.819  1.00  0.00    -0.390 NA
ATOM     20  N   UNL     1      58.831  26.464  16.225  1.00  0.00    -0.390 NA
ATOM     21  C   UNL     1      60.162  25.176  15.130  1.00  0.00    -0.035 A 
ATOM     22  C   UNL     1      59.125  25.176  16.030  1.00  0.00    -0.035 A 
ATOM     23  C   UNL     1      60.685  23.947  14.736  1.00  0.00     0.004 A 
ATOM     24  C   UNL     1      58.613  23.976  16.531  1.00  0.00     0.004 A 
ATOM     25  C   UNL     1      60.197  22.759  15.216  1.00  0.00     0.000 A 
ATOM     26  C   UNL     1      59.157  22.778  16.118  1.00  0.00     0.000 A 
ENDBRANCH  15  18
ENDBRANCH  14  15
ENDBRANCH   7  14
TORSDOF 7
ENDMDL
MODEL 4
REMARK VINA RESULT:      -5.4      6.202     10.244
REMARK SMILES Cc1c(OCC(F)(F)F)ccnc1C[S+](O)c1nc2ccccc2[n-]1
REMARK SMILES IDX 1 1 2 2 3 3 10 4 11 5 12 6 13 7 4 8 5 9 6 10 7 11 8 12 9 13
REMARK SMILES IDX 14 14 15 15 16 16 17 18 18 19 25 20 19 21 24 22 20 23 23 24
REMARK SMILES IDX 21 25 22 26
REMARK H PARENT 16 17
ROOT
ATOM      1  C   UNL     1      53.284  29.539  17.898  1.00  0.00     0.050 C 
ATOM      2  C   UNL     1      52.851  30.546  16.899  1.00  0.00     0.018 A 
ATOM      3  C   UNL     1      51.512  30.935  16.838  1.00  0.00     0.126 A 
ATOM      4  C   UNL     1      51.157  31.863  15.884  1.00  0.00     0.067 A 
ATOM      5  C   UNL     1      52.094  32.384  15.025  1.00  0.00     0.115 A 
ATOM      6  N   UNL     1      53.358  31.990  15.113  1.00  0.00    -0.256 NA
ATOM      7  C   UNL     1      53.777  31.077  16.032  1.00  0.00     0.100 A 
ENDROOT
BRANCH   3   8
ATOM      8  O   UNL     1      50.619  30.371  17.734  1.00  0.00    -0.484 OA
BRANCH   8   9
ATOM      9  C   UNL     1      50.070  31.083  18.804  1.00  0.00     0.344 C 
BRANCH   9  10
ATOM     10  C   UNL     1      48.650  31.454  18.429  1.00  0.00     0.422 C 
ATOM     11  F   UNL     1      48.665  32.777  18.020  1.00  0.00    -0.167 F 
ATOM     12  F   UNL     1      47.803  31.330  19.510  1.00  0.00    -0.167 F 
ATOM     13  F   UNL     1      48.200  30.685  17.377  1.00  0.00    -0.167 F 
ENDBRANCH   9  10
ENDBRANCH   8   9
ENDBRANCH   3   8
BRANCH   7  14
ATOM     14  C   UNL     1      55.221  30.706  16.070  1.00  0.00     0.380 C 
BRANCH  14  15
ATOM     15  S   UNL     1      55.786  30.453  14.475  1.00  0.00     0.181 S 
BRANCH  15  16
ATOM     16  O   UNL     1      54.762  30.469  13.224  1.00  0.00    -0.182 OA
ATOM     17  H   UNL     1      53.859  30.784  13.525  1.00  0.00     0.283 HD
ENDBRANCH  15  16
BRANCH  15  18
ATOM     18  C   UNL     1      57.467  30.464  14.174  1.00  0.00     0.179 A 
ATOM     19  N   UNL     1      58.271  31.379  13.617  1.00  0.00    -0.390 NA
ATOM     20  N   UNL     1      58.282  29.422  14.497  1.00  0.00    -0.390 NA
ATOM     21  C   UNL     1      59.534  30.923  13.597  1.00  0.00    -0.035 A 
ATOM     22  C   UNL     1      59.550  29.670  14.158  1.00  0.00    -0.035 A 
ATOM     23  C   UNL     1      60.741  31.451  13.144  1.00  0.00     0.004 A 
ATOM     24  C   UNL     1      60.743  28.951  14.270  1.00  0.00     0.004 A 
ATOM     25  C   UNL     1      61.922  30.762  13.245  1.00  0.00     0.000 A 
ATOM     26  C   UNL     1      61.919  29.507  13.811  1.00  0.00     0.000 A 
ENDBRANCH  15  18
ENDBRANCH  14  15
ENDBRANCH   7  14
TORSDOF 7
ENDMDL
MODEL 5
REMARK VINA RESULT:      -5.3      2.366      3.554
REMARK SMILES Cc1c(OCC(F)(F)F)ccnc1C[S+](O)c1nc2ccccc2[n-]1
REMARK SMILES IDX 1 1 2 2 3 3 10 4 11 5 12 6 13 7 4 8 5 9 6 10 7 11 8 12 9 13
REMARK SMILES IDX 14 14 15 15 16 16 17 18 18 19 25 20 19 21 24 22 20 23 23 24
REMARK SMILES IDX 21 25 22 26
REMARK H PARENT 16 17
ROOT
ATOM      1  C   UNL     1      57.144  30.558  13.427  1.00  0.00     0.050 C 
ATOM      2  C   UNL     1      57.298  29.846  14.719  1.00  0.00     0.018 A 
ATOM      3  C   UNL     1      58.462  29.122  14.980  1.00  0.00     0.126 A 
ATOM      4  C   UNL     1      58.552  28.468  16.189  1.00  0.00     0.067 A 
ATOM      5  C   UNL     1      57.527  28.529  17.101  1.00  0.00     0.115 A 
ATOM      6  N   UNL     1      56.435  29.228  16.818  1.00  0.00    -0.256 NA
ATOM      7  C   UNL     1      56.281  29.899  15.643  1.00  0.00     0.100 A 
ENDROOT
BRANCH   3   8
ATOM      8  O   UNL     1      59.457  29.102  14.018  1.00  0.00    -0.484 OA
BRANCH   8   9
ATOM      9  C   UNL     1      60.754  29.563  14.260  1.00  0.00     0.344 C 
BRANCH   9  10
ATOM     10  C   UNL     1      60.923  30.871  13.514  1.00  0.00     0.422 C 
ATOM     11  F   UNL     1      62.275  31.027  13.261  1.00  0.00    -0.167 F 
ATOM     12  F   UNL     1      60.483  31.935  14.273  1.00  0.00    -0.167 F 
ATOM     13  F   UNL     1      60.261  30.839  12.305  1.00  0.00    -0.167 F 
ENDBRANCH   9  10
ENDBRANCH   8   9
ENDBRANCH   3   8
BRANCH   7  14
ATOM     14  C   UNL     1      55.026  30.673  15.417  1.00  0.00     0.380 C 
BRANCH  14  15
ATOM     15  S   UNL     1      54.371  31.150  16.924  1.00  0.00     0.181 S 
BRANCH  15  16
ATOM     16  O   UNL     1      55.256  32.000  17.977  1.00  0.00    -0.182 OA
ATOM     17  H   UNL     1      55.343  31.496  18.839  1.00  0.00     0.283 HD
ENDBRANCH  15  16
BRANCH  15  18
ATOM     18  C   UNL     1      52.695  30.971  17.198  1.00  0.00     0.179 A 
ATOM     19  N   UNL     1      51.625  31.377  16.502  1.00  0.00    -0.390 NA
ATOM     20  N   UNL     1      52.189  30.326  18.286  1.00  0.00    -0.390 NA
ATOM     21  C   UNL     1      50.501  30.997  17.132  1.00  0.00    -0.035 A 
ATOM     22  C   UNL     1      50.854  30.324  18.276  1.00  0.00    -0.035 A 
ATOM     23  C   UNL     1      49.145  31.150  16.856  1.00  0.00     0.004 A 
ATOM     24  C   UNL     1      49.877  29.809  19.132  1.00  0.00     0.004 A 
ATOM     25  C   UNL     1      48.171  30.653  17.683  1.00  0.00     0.000 A 
ATOM     26  C   UNL     1      48.543  29.980  18.825  1.00  0.00     0.000 A 
ENDBRANCH  15  18
ENDBRANCH  14  15
ENDBRANCH   7  14
TORSDOF 7
ENDMDL
MODEL 6
REMARK VINA RESULT:      -5.3      5.280      9.880
REMARK SMILES Cc1c(OCC(F)(F)F)ccnc1C[S+](O)c1nc2ccccc2[n-]1
REMARK SMILES IDX 1 1 2 2 3 3 10 4 11 5 12 6 13 7 4 8 5 9 6 10 7 11 8 12 9 13
REMARK SMILES IDX 14 14 15 15 16 16 17 18 18 19 25 20 19 21 24 22 20 23 23 24
REMARK SMILES IDX 21 25 22 26
REMARK H PARENT 16 17
ROOT
ATOM      1  C   UNL     1      55.360  30.230  13.472  1.00  0.00     0.050 C 
ATOM      2  C   UNL     1      55.525  30.440  14.932  1.00  0.00     0.018 A 
ATOM      3  C   UNL     1      54.478  30.981  15.679  1.00  0.00     0.126 A 
ATOM      4  C   UNL     1      54.684  31.169  17.028  1.00  0.00     0.067 A 
ATOM      5  C   UNL     1      55.882  30.834  17.611  1.00  0.00     0.115 A 
ATOM      6  N   UNL     1      56.855  30.321  16.868  1.00  0.00    -0.256 NA
ATOM      7  C   UNL     1      56.718  30.108  15.530  1.00  0.00     0.100 A 
ENDROOT
BRANCH   3   8
ATOM      8  O   UNL     1      53.297  31.297  15.030  1.00  0.00    -0.484 OA
BRANCH   8   9
ATOM      9  C   UNL     1      52.038  30.998  15.561  1.00  0.00     0.344 C 
BRANCH   9  10
ATOM     10  C   UNL     1      51.276  32.300  15.697  1.00  0.00     0.422 C 
ATOM     11  F   UNL     1      49.935  32.012  15.510  1.00  0.00    -0.167 F 
ATOM     12  F   UNL     1      51.676  33.210  14.741  1.00  0.00    -0.167 F 
ATOM     13  F   UNL     1      51.430  32.833  16.959  1.00  0.00    -0.167 F 
ENDBRANCH   9  10
ENDBRANCH   8   9
ENDBRANCH   3   8
BRANCH   7  14
ATOM     14  C   UNL     1      57.858  29.511  14.777  1.00  0.00     0.380 C 
BRANCH  14  15
ATOM     15  S   UNL     1      59.219  30.543  14.891  1.00  0.00     0.181 S 
BRANCH  15  16
ATOM     16  O   UNL     1      59.108  31.975  15.634  1.00  0.00    -0.182 OA
ATOM     17  H   UNL     1      59.883  32.098  16.257  1.00  0.00     0.283 HD
ENDBRANCH  15  16
BRANCH  15  18
ATOM     18  C   UNL     1      60.760  29.940  14.470  1.00  0.00     0.179 A 
ATOM     19  N   UNL     1      61.240  28.693  14.383  1.00  0.00    -0.390 NA
ATOM     20  N   UNL     1      61.804  30.749  14.140  1.00  0.00    -0.390 NA
ATOM     21  C   UNL     1      62.532  28.728  14.013  1.00  0.00    -0.035 A 
ATOM     22  C   UNL     1      62.900  30.041  13.856  1.00  0.00    -0.035 A 
ATOM     23  C   UNL     1      63.491  27.747  13.777  1.00  0.00     0.004 A 
ATOM     24  C   UNL     1      64.201  30.377  13.469  1.00  0.00     0.004 A 
ATOM     25  C   UNL     1      64.772  28.055  13.397  1.00  0.00     0.000 A 
ATOM     26  C   UNL     1      65.124  29.377  13.243  1.00  0.00     0.000 A 
ENDBRANCH  15  18
ENDBRANCH  14  15
ENDBRANCH   7  14
TORSDOF 7
ENDMDL
MODEL 7
REMARK VINA RESULT:      -5.2      2.274      3.113
REMARK SMILES Cc1c(OCC(F)(F)F)ccnc1C[S+](O)c1nc2ccccc2[n-]1
REMARK SMILES IDX 1 1 2 2 3 3 10 4 11 5 12 6 13 7 4 8 5 9 6 10 7 11 8 12 9 13
REMARK SMILES IDX 14 14 15 15 16 16 17 18 18 19 25 20 19 21 24 22 20 23 23 24
REMARK SMILES IDX 21 25 22 26
REMARK H PARENT 16 17
ROOT
ATOM      1  C   UNL     1      57.099  30.341  13.920  1.00  0.00     0.050 C 
ATOM      2  C   UNL     1      57.717  29.719  15.116  1.00  0.00     0.018 A 
ATOM      3  C   UNL     1      58.952  29.078  15.008  1.00  0.00     0.126 A 
ATOM      4  C   UNL     1      59.478  28.505  16.145  1.00  0.00     0.067 A 
ATOM      5  C   UNL     1      58.804  28.563  17.340  1.00  0.00     0.115 A 
ATOM      6  N   UNL     1      57.632  29.181  17.405  1.00  0.00    -0.256 NA
ATOM      7  C   UNL     1      57.055  29.770  16.321  1.00  0.00     0.100 A 
ENDROOT
BRANCH   3   8
ATOM      8  O   UNL     1      59.579  29.055  13.774  1.00  0.00    -0.484 OA
BRANCH   8   9
ATOM      9  C   UNL     1      60.962  29.189  13.625  1.00  0.00     0.344 C 
BRANCH   9  10
ATOM     10  C   UNL     1      61.263  30.660  13.424  1.00  0.00     0.422 C 
ATOM     11  F   UNL     1      62.529  30.749  12.872  1.00  0.00    -0.167 F 
ATOM     12  F   UNL     1      61.250  31.337  14.626  1.00  0.00    -0.167 F 
ATOM     13  F   UNL     1      60.369  31.232  12.544  1.00  0.00    -0.167 F 
ENDBRANCH   9  10
ENDBRANCH   8   9
ENDBRANCH   3   8
BRANCH   7  14
ATOM     14  C   UNL     1      55.742  30.458  16.490  1.00  0.00     0.380 C 
BRANCH  14  15
ATOM     15  S   UNL     1      54.585  29.341  17.074  1.00  0.00     0.181 S 
BRANCH  15  16
ATOM     16  O   UNL     1      55.049  27.926  17.704  1.00  0.00    -0.182 OA
ATOM     17  H   UNL     1      55.317  28.048  18.663  1.00  0.00     0.283 HD
ENDBRANCH  15  16
BRANCH  15  18
ATOM     18  C   UNL     1      52.962  29.838  17.250  1.00  0.00     0.179 A 
ATOM     19  N   UNL     1      52.042  29.578  18.189  1.00  0.00    -0.390 NA
ATOM     20  N   UNL     1      52.334  30.646  16.351  1.00  0.00    -0.390 NA
ATOM     21  C   UNL     1      50.892  30.201  17.884  1.00  0.00    -0.035 A 
ATOM     22  C   UNL     1      51.071  30.887  16.708  1.00  0.00    -0.035 A 
ATOM     23  C   UNL     1      49.645  30.274  18.499  1.00  0.00     0.004 A 
ATOM     24  C   UNL     1      50.029  31.634  16.150  1.00  0.00     0.004 A 
ATOM     25  C   UNL     1      48.610  31.000  17.968  1.00  0.00     0.000 A 
ATOM     26  C   UNL     1      48.807  31.682  16.788  1.00  0.00     0.000 A 
ENDBRANCH  15  18
ENDBRANCH  14  15
ENDBRANCH   7  14
TORSDOF 7
ENDMDL
MODEL 8
REMARK VINA RESULT:      -5.2      0.914      1.150
REMARK SMILES Cc1c(OCC(F)(F)F)ccnc1C[S+](O)c1nc2ccccc2[n-]1
REMARK SMILES IDX 1 1 2 2 3 3 10 4 11 5 12 6 13 7 4 8 5 9 6 10 7 11 8 12 9 13
REMARK SMILES IDX 14 14 15 15 16 16 17 18 18 19 25 20 19 21 24 22 20 23 23 24
REMARK SMILES IDX 21 25 22 26
REMARK H PARENT 16 17
ROOT
ATOM      1  C   UNL     1      60.595  28.589  15.213  1.00  0.00     0.050 C 
ATOM      2  C   UNL     1      60.326  29.955  14.700  1.00  0.00     0.018 A 
ATOM      3  C   UNL     1      61.390  30.794  14.366  1.00  0.00     0.126 A 
ATOM      4  C   UNL     1      61.089  32.058  13.907  1.00  0.00     0.067 A 
ATOM      5  C   UNL     1      59.785  32.471  13.785  1.00  0.00     0.115 A 
ATOM      6  N   UNL     1      58.800  31.645  14.112  1.00  0.00    -0.256 NA
ATOM      7  C   UNL     1      59.026  30.383  14.571  1.00  0.00     0.100 A 
ENDROOT
BRANCH   3   8
ATOM      8  O   UNL     1      62.681  30.315  14.512  1.00  0.00    -0.484 OA
BRANCH   8   9
ATOM      9  C   UNL     1      63.491  29.979  13.423  1.00  0.00     0.344 C 
BRANCH   9  10
ATOM     10  C   UNL     1      64.172  28.666  13.747  1.00  0.00     0.422 C 
ATOM     11  F   UNL     1      65.341  28.616  13.006  1.00  0.00    -0.167 F 
ATOM     12  F   UNL     1      63.376  27.595  13.398  1.00  0.00    -0.167 F 
ATOM     13  F   UNL     1      64.507  28.598  15.083  1.00  0.00    -0.167 F 
ENDBRANCH   9  10
ENDBRANCH   8   9
ENDBRANCH   3   8
BRANCH   7  14
ATOM     14  C   UNL     1      57.856  29.517  14.899  1.00  0.00     0.380 C 
BRANCH  14  15
ATOM     15  S   UNL     1      56.439  30.192  14.220  1.00  0.00     0.181 S 
BRANCH  15  16
ATOM     16  O   UNL     1      56.347  30.494  12.634  1.00  0.00    -0.182 OA
ATOM     17  H   UNL     1      56.502  29.651  12.114  1.00  0.00     0.283 HD
ENDBRANCH  15  16
BRANCH  15  18
ATOM     18  C   UNL     1      55.022  30.285  15.168  1.00  0.00     0.179 A 
ATOM     19  N   UNL     1      54.768  29.930  16.434  1.00  0.00    -0.390 NA
ATOM     20  N   UNL     1      53.846  30.782  14.693  1.00  0.00    -0.390 NA
ATOM     21  C   UNL     1      53.485  30.198  16.732  1.00  0.00    -0.035 A 
ATOM     22  C   UNL     1      52.888  30.743  15.622  1.00  0.00    -0.035 A 
ATOM     23  C   UNL     1      52.710  30.036  17.878  1.00  0.00     0.004 A 
ATOM     24  C   UNL     1      51.544  31.123  15.647  1.00  0.00     0.004 A 
ATOM     25  C   UNL     1      51.389  30.402  17.923  1.00  0.00     0.000 A 
ATOM     26  C   UNL     1      50.807  30.948  16.801  1.00  0.00     0.000 A 
ENDBRANCH  15  18
ENDBRANCH  14  15
ENDBRANCH   7  14
TORSDOF 7
ENDMDL
MODEL 9
REMARK VINA RESULT:      -5.2      5.678      9.632
REMARK SMILES Cc1c(OCC(F)(F)F)ccnc1C[S+](O)c1nc2ccccc2[n-]1
REMARK SMILES IDX 1 1 2 2 3 3 10 4 11 5 12 6 13 7 4 8 5 9 6 10 7 11 8 12 9 13
REMARK SMILES IDX 14 14 15 15 16 16 17 18 18 19 25 20 19 21 24 22 20 23 23 24
REMARK SMILES IDX 21 25 22 26
REMARK H PARENT 16 17
ROOT
ATOM      1  C   UNL     1      56.635  30.415  13.763  1.00  0.00     0.050 C 
ATOM      2  C   UNL     1      56.540  29.853  15.133  1.00  0.00     0.018 A 
ATOM      3  C   UNL     1      55.326  29.899  15.820  1.00  0.00     0.126 A 
ATOM      4  C   UNL     1      55.292  29.376  17.094  1.00  0.00     0.067 A 
ATOM      5  C   UNL     1      56.417  28.830  17.662  1.00  0.00     0.115 A 
ATOM      6  N   UNL     1      57.553  28.803  16.978  1.00  0.00    -0.256 NA
ATOM      7  C   UNL     1      57.657  29.301  15.715  1.00  0.00     0.100 A 
ENDROOT
BRANCH   3   8
ATOM      8  O   UNL     1      54.230  30.462  15.190  1.00  0.00    -0.484 OA
BRANCH   8   9
ATOM      9  C   UNL     1      52.956  29.891  15.233  1.00  0.00     0.344 C 
BRANCH   9  10
ATOM     10  C   UNL     1      51.987  30.961  15.690  1.00  0.00     0.422 C 
ATOM     11  F   UNL     1      51.992  30.956  17.075  1.00  0.00    -0.167 F 
ATOM     12  F   UNL     1      50.708  30.695  15.247  1.00  0.00    -0.167 F 
ATOM     13  F   UNL     1      52.392  32.209  15.264  1.00  0.00    -0.167 F 
ENDBRANCH   9  10
ENDBRANCH   8   9
ENDBRANCH   3   8
BRANCH   7  14
ATOM     14  C   UNL     1      58.971  29.214  15.013  1.00  0.00     0.380 C 
BRANCH  14  15
ATOM     15  S   UNL     1      60.070  28.319  15.971  1.00  0.00     0.181 S 
BRANCH  15  16
ATOM     16  O   UNL     1      60.375  28.752  17.499  1.00  0.00    -0.182 OA
ATOM     17  H   UNL     1      59.872  28.158  18.131  1.00  0.00     0.283 HD
ENDBRANCH  15  16
BRANCH  15  18
ATOM     18  C   UNL     1      60.628  26.807  15.407  1.00  0.00     0.179 A 
ATOM     19  N   UNL     1      59.984  25.675  15.093  1.00  0.00    -0.390 NA
ATOM     20  N   UNL     1      61.946  26.540  15.190  1.00  0.00    -0.390 NA
ATOM     21  C   UNL     1      60.868  24.744  14.696  1.00  0.00    -0.035 A 
ATOM     22  C   UNL     1      62.127  25.291  14.756  1.00  0.00    -0.035 A 
ATOM     23  C   UNL     1      60.749  23.425  14.267  1.00  0.00     0.004 A 
ATOM     24  C   UNL     1      63.250  24.541  14.394  1.00  0.00     0.004 A 
ATOM     25  C   UNL     1      61.837  22.673  13.907  1.00  0.00     0.000 A 
ATOM     26  C   UNL     1      63.091  23.237  13.972  1.00  0.00     0.000 A 
ENDBRANCH  15  18
ENDBRANCH  14  15
ENDBRANCH   7  14
TORSDOF 7
ENDMDL
