MODEL 1
REMARK VINA RESULT:      -7.5      0.000      0.000
REMARK SMILES COc1ccc(-c2cc3ccc(O)cc3oc2=O)cc1
REMARK SMILES IDX 7 1 8 2 9 3 10 4 11 5 12 6 14 7 15 8 16 9 17 10 18 11 6 12
REMARK SMILES IDX 3 13 4 14 20 15 5 16 19 17 2 18 1 19 13 20
REMARK H PARENT 13 21
ROOT
ATOM      1  C   UNL     1      26.487  30.661  35.990  1.00  0.00     0.068 A 
ATOM      2  C   UNL     1      27.133  29.655  35.284  1.00  0.00     0.028 A 
ATOM      3  C   UNL     1      26.407  28.564  34.862  1.00  0.00     0.018 A 
ATOM      4  C   UNL     1      27.033  27.541  34.152  1.00  0.00     0.016 A 
ATOM      5  C   UNL     1      26.310  26.449  33.730  1.00  0.00     0.047 A 
ATOM      6  C   UNL     1      24.953  26.332  33.995  1.00  0.00     0.119 A 
ATOM      7  C   UNL     1      24.355  27.355  34.699  1.00  0.00     0.094 A 
ATOM      8  C   UNL     1      25.051  28.453  35.130  1.00  0.00     0.142 A 
ATOM      9  O   UNL     1      24.477  29.425  35.800  1.00  0.00    -0.422 OA
ATOM     10  C   UNL     1      25.136  30.480  36.218  1.00  0.00     0.344 A 
ATOM     11  O   UNL     1      24.528  31.378  36.854  1.00  0.00    -0.246 OA
ENDROOT
BRANCH   1  12
ATOM     12  C   UNL     1      27.208  31.838  36.459  1.00  0.00    -0.011 A 
ATOM     13  C   UNL     1      28.590  34.079  37.369  1.00  0.00     0.118 A 
ATOM     14  C   UNL     1      28.584  32.919  38.103  1.00  0.00     0.047 A 
ATOM     15  C   UNL     1      27.907  34.125  36.179  1.00  0.00     0.047 A 
ATOM     16  C   UNL     1      27.893  31.792  37.652  1.00  0.00     0.013 A 
ATOM     17  C   UNL     1      27.220  33.004  35.731  1.00  0.00     0.013 A 
BRANCH  13  18
ATOM     18  O   UNL     1      29.292  35.169  37.862  1.00  0.00    -0.497 OA
ATOM     19  C   UNL     1      29.687  35.241  39.216  1.00  0.00     0.278 C 
ENDBRANCH  13  18
ENDBRANCH   1  12
BRANCH   6  20
ATOM     20  O   UNL     1      24.213  25.236  33.575  1.00  0.00    -0.508 OA
ATOM     21  H   UNL     1      23.216  25.375  33.405  1.00  0.00     0.293 HD
ENDBRANCH   6  20
TORSDOF 3
ENDMDL
MODEL 2
REMARK VINA RESULT:      -7.5      1.659      2.512
REMARK SMILES COc1ccc(-c2cc3ccc(O)cc3oc2=O)cc1
REMARK SMILES IDX 7 1 8 2 9 3 10 4 11 5 12 6 14 7 15 8 16 9 17 10 18 11 6 12
REMARK SMILES IDX 3 13 4 14 20 15 5 16 19 17 2 18 1 19 13 20
REMARK H PARENT 13 21
ROOT
ATOM      1  C   UNL     1      25.911  30.832  36.304  1.00  0.00     0.068 A 
ATOM      2  C   UNL     1      24.527  30.930  36.340  1.00  0.00     0.028 A 
ATOM      3  C   UNL     1      23.770  29.839  35.974  1.00  0.00     0.018 A 
ATOM      4  C   UNL     1      22.379  29.914  36.001  1.00  0.00     0.016 A 
ATOM      5  C   UNL     1      21.620  28.826  35.635  1.00  0.00     0.047 A 
ATOM      6  C   UNL     1      22.208  27.636  35.231  1.00  0.00     0.119 A 
ATOM      7  C   UNL     1      23.586  27.585  35.211  1.00  0.00     0.094 A 
ATOM      8  C   UNL     1      24.364  28.653  35.571  1.00  0.00     0.142 A 
ATOM      9  O   UNL     1      25.676  28.600  35.551  1.00  0.00    -0.422 OA
ATOM     10  C   UNL     1      26.429  29.618  35.893  1.00  0.00     0.344 A 
ATOM     11  O   UNL     1      27.680  29.503  35.852  1.00  0.00    -0.246 OA
ENDROOT
BRANCH   1  12
ATOM     12  C   UNL     1      26.759  31.954  36.682  1.00  0.00    -0.011 A 
ATOM     13  C   UNL     1      28.380  34.097  37.421  1.00  0.00     0.118 A 
ATOM     14  C   UNL     1      27.904  33.225  38.368  1.00  0.00     0.047 A 
ATOM     15  C   UNL     1      28.049  33.903  36.102  1.00  0.00     0.047 A 
ATOM     16  C   UNL     1      27.091  32.149  38.005  1.00  0.00     0.013 A 
ATOM     17  C   UNL     1      27.241  32.833  35.741  1.00  0.00     0.013 A 
BRANCH  13  18
ATOM     18  O   UNL     1      29.184  35.148  37.835  1.00  0.00    -0.497 OA
ATOM     19  C   UNL     1      29.660  35.234  39.162  1.00  0.00     0.278 C 
ENDBRANCH  13  18
ENDBRANCH   1  12
BRANCH   6  20
ATOM     20  O   UNL     1      21.455  26.532  34.859  1.00  0.00    -0.508 OA
ATOM     21  H   UNL     1      21.955  25.714  34.509  1.00  0.00     0.293 HD
ENDBRANCH   6  20
TORSDOF 3
ENDMDL
MODEL 3
REMARK VINA RESULT:      -7.4      0.234      1.077
REMARK SMILES COc1ccc(-c2cc3ccc(O)cc3oc2=O)cc1
REMARK SMILES IDX 7 1 8 2 9 3 10 4 11 5 12 6 14 7 15 8 16 9 17 10 18 11 6 12
REMARK SMILES IDX 3 13 4 14 20 15 5 16 19 17 2 18 1 19 13 20
REMARK H PARENT 13 21
ROOT
ATOM      1  C   UNL     1      26.319  30.705  35.983  1.00  0.00     0.068 A 
ATOM      2  C   UNL     1      26.951  29.668  35.310  1.00  0.00     0.028 A 
ATOM      3  C   UNL     1      26.198  28.605  34.864  1.00  0.00     0.018 A 
ATOM      4  C   UNL     1      26.810  27.552  34.186  1.00  0.00     0.016 A 
ATOM      5  C   UNL     1      26.060  26.488  33.739  1.00  0.00     0.047 A 
ATOM      6  C   UNL     1      24.690  26.430  33.946  1.00  0.00     0.119 A 
ATOM      7  C   UNL     1      24.106  27.483  34.619  1.00  0.00     0.094 A 
ATOM      8  C   UNL     1      24.829  28.553  35.074  1.00  0.00     0.142 A 
ATOM      9  O   UNL     1      24.269  29.553  35.715  1.00  0.00    -0.422 OA
ATOM     10  C   UNL     1      24.953  30.582  36.154  1.00  0.00     0.344 A 
ATOM     11  O   UNL     1      24.357  31.509  36.760  1.00  0.00    -0.246 OA
ENDROOT
BRANCH   1  12
ATOM     12  C   UNL     1      27.068  31.854  36.476  1.00  0.00    -0.011 A 
ATOM     13  C   UNL     1      28.497  34.057  37.405  1.00  0.00     0.118 A 
ATOM     14  C   UNL     1      27.989  34.045  36.130  1.00  0.00     0.047 A 
ATOM     15  C   UNL     1      28.294  32.972  38.221  1.00  0.00     0.047 A 
ATOM     16  C   UNL     1      27.271  32.943  35.658  1.00  0.00     0.013 A 
ATOM     17  C   UNL     1      27.580  31.877  37.752  1.00  0.00     0.013 A 
BRANCH  13  18
ATOM     18  O   UNL     1      29.201  35.177  37.823  1.00  0.00    -0.497 OA
ATOM     19  C   UNL     1      29.905  35.190  39.048  1.00  0.00     0.278 C 
ENDBRANCH  13  18
ENDBRANCH   1  12
BRANCH   6  20
ATOM     20  O   UNL     1      23.923  25.364  33.501  1.00  0.00    -0.508 OA
ATOM     21  H   UNL     1      24.275  24.825  32.709  1.00  0.00     0.293 HD
ENDBRANCH   6  20
TORSDOF 3
ENDMDL
MODEL 4
REMARK VINA RESULT:      -7.4      1.661      2.685
REMARK SMILES COc1ccc(-c2cc3ccc(O)cc3oc2=O)cc1
REMARK SMILES IDX 7 1 8 2 9 3 10 4 11 5 12 6 14 7 15 8 16 9 17 10 18 11 6 12
REMARK SMILES IDX 3 13 4 14 20 15 5 16 19 17 2 18 1 19 13 20
REMARK H PARENT 13 21
ROOT
ATOM      1  C   UNL     1      25.888  30.808  36.305  1.00  0.00     0.068 A 
ATOM      2  C   UNL     1      24.506  30.929  36.248  1.00  0.00     0.028 A 
ATOM      3  C   UNL     1      23.756  29.839  35.865  1.00  0.00     0.018 A 
ATOM      4  C   UNL     1      22.367  29.936  35.801  1.00  0.00     0.016 A 
ATOM      5  C   UNL     1      21.615  28.849  35.418  1.00  0.00     0.047 A 
ATOM      6  C   UNL     1      22.207  27.639  35.086  1.00  0.00     0.119 A 
ATOM      7  C   UNL     1      23.582  27.566  35.156  1.00  0.00     0.094 A 
ATOM      8  C   UNL     1      24.354  28.633  35.535  1.00  0.00     0.142 A 
ATOM      9  O   UNL     1      25.663  28.559  35.601  1.00  0.00    -0.422 OA
ATOM     10  C   UNL     1      26.411  29.575  35.962  1.00  0.00     0.344 A 
ATOM     11  O   UNL     1      27.660  29.440  36.005  1.00  0.00    -0.246 OA
ENDROOT
BRANCH   1  12
ATOM     12  C   UNL     1      26.729  31.929  36.704  1.00  0.00    -0.011 A 
ATOM     13  C   UNL     1      28.339  34.076  37.452  1.00  0.00     0.118 A 
ATOM     14  C   UNL     1      28.069  33.838  36.128  1.00  0.00     0.047 A 
ATOM     15  C   UNL     1      27.807  33.245  38.408  1.00  0.00     0.047 A 
ATOM     16  C   UNL     1      27.262  32.762  35.746  1.00  0.00     0.013 A 
ATOM     17  C   UNL     1      27.006  32.177  38.028  1.00  0.00     0.013 A 
BRANCH  13  18
ATOM     18  O   UNL     1      29.145  35.157  37.777  1.00  0.00    -0.497 OA
ATOM     19  C   UNL     1      29.864  35.203  38.992  1.00  0.00     0.278 C 
ENDBRANCH  13  18
ENDBRANCH   1  12
BRANCH   6  20
ATOM     20  O   UNL     1      21.460  26.536  34.698  1.00  0.00    -0.508 OA
ATOM     21  H   UNL     1      21.595  25.667  35.217  1.00  0.00     0.293 HD
ENDBRANCH   6  20
TORSDOF 3
ENDMDL
MODEL 5
REMARK VINA RESULT:      -7.4      2.878      3.272
REMARK SMILES COc1ccc(-c2cc3ccc(O)cc3oc2=O)cc1
REMARK SMILES IDX 7 1 8 2 9 3 10 4 11 5 12 6 14 7 15 8 16 9 17 10 18 11 6 12
REMARK SMILES IDX 3 13 4 14 20 15 5 16 19 17 2 18 1 19 13 20
REMARK H PARENT 13 21
ROOT
ATOM      1  C   UNL     1      25.718  31.602  35.739  1.00  0.00     0.068 A 
ATOM      2  C   UNL     1      24.703  30.875  36.350  1.00  0.00     0.028 A 
ATOM      3  C   UNL     1      23.625  30.470  35.595  1.00  0.00     0.018 A 
ATOM      4  C   UNL     1      22.595  29.741  36.185  1.00  0.00     0.016 A 
ATOM      5  C   UNL     1      21.516  29.335  35.433  1.00  0.00     0.047 A 
ATOM      6  C   UNL     1      21.421  29.636  34.083  1.00  0.00     0.119 A 
ATOM      7  C   UNL     1      22.451  30.359  33.520  1.00  0.00     0.094 A 
ATOM      8  C   UNL     1      23.536  30.775  34.245  1.00  0.00     0.142 A 
ATOM      9  O   UNL     1      24.515  31.463  33.706  1.00  0.00    -0.422 OA
ATOM     10  C   UNL     1      25.558  31.866  34.392  1.00  0.00     0.344 A 
ATOM     11  O   UNL     1      26.463  32.521  33.816  1.00  0.00    -0.246 OA
ENDROOT
BRANCH   1  12
ATOM     12  C   UNL     1      26.881  32.054  36.491  1.00  0.00    -0.011 A 
ATOM     13  C   UNL     1      29.097  32.933  37.933  1.00  0.00     0.118 A 
ATOM     14  C   UNL     1      27.941  33.674  37.913  1.00  0.00     0.047 A 
ATOM     15  C   UNL     1      29.151  31.752  37.235  1.00  0.00     0.047 A 
ATOM     16  C   UNL     1      26.827  33.239  37.192  1.00  0.00     0.013 A 
ATOM     17  C   UNL     1      28.043  31.320  36.519  1.00  0.00     0.013 A 
BRANCH  13  18
ATOM     18  O   UNL     1      30.174  33.410  38.665  1.00  0.00    -0.497 OA
ATOM     19  C   UNL     1      30.243  34.758  39.082  1.00  0.00     0.278 C 
ENDBRANCH  13  18
ENDBRANCH   1  12
BRANCH   6  20
ATOM     20  O   UNL     1      20.338  29.233  33.313  1.00  0.00    -0.508 OA
ATOM     21  H   UNL     1      20.416  29.326  32.300  1.00  0.00     0.293 HD
ENDBRANCH   6  20
TORSDOF 3
ENDMDL
MODEL 6
REMARK VINA RESULT:      -7.4      4.036      5.443
REMARK SMILES COc1ccc(-c2cc3ccc(O)cc3oc2=O)cc1
REMARK SMILES IDX 7 1 8 2 9 3 10 4 11 5 12 6 14 7 15 8 16 9 17 10 18 11 6 12
REMARK SMILES IDX 3 13 4 14 20 15 5 16 19 17 2 18 1 19 13 20
REMARK H PARENT 13 21
ROOT
ATOM      1  C   UNL     1      24.431  29.286  31.829  1.00  0.00     0.068 A 
ATOM      2  C   UNL     1      23.090  29.051  32.102  1.00  0.00     0.028 A 
ATOM      3  C   UNL     1      22.399  28.150  31.323  1.00  0.00     0.018 A 
ATOM      4  C   UNL     1      21.052  27.897  31.578  1.00  0.00     0.016 A 
ATOM      5  C   UNL     1      20.358  26.999  30.801  1.00  0.00     0.047 A 
ATOM      6  C   UNL     1      20.968  26.325  29.753  1.00  0.00     0.119 A 
ATOM      7  C   UNL     1      22.300  26.591  29.519  1.00  0.00     0.094 A 
ATOM      8  C   UNL     1      23.014  27.480  30.277  1.00  0.00     0.142 A 
ATOM      9  O   UNL     1      24.283  27.730  30.051  1.00  0.00    -0.422 OA
ATOM     10  C   UNL     1      24.975  28.581  30.772  1.00  0.00     0.344 A 
ATOM     11  O   UNL     1      26.188  28.775  30.504  1.00  0.00    -0.246 OA
ENDROOT
BRANCH   1  12
ATOM     12  C   UNL     1      25.210  30.228  32.622  1.00  0.00    -0.011 A 
ATOM     13  C   UNL     1      26.695  32.041  34.129  1.00  0.00     0.118 A 
ATOM     14  C   UNL     1      25.901  32.479  33.098  1.00  0.00     0.047 A 
ATOM     15  C   UNL     1      26.750  30.699  34.413  1.00  0.00     0.047 A 
ATOM     16  C   UNL     1      25.155  31.574  32.338  1.00  0.00     0.013 A 
ATOM     17  C   UNL     1      26.008  29.801  33.657  1.00  0.00     0.013 A 
BRANCH  13  18
ATOM     18  O   UNL     1      27.414  32.981  34.852  1.00  0.00    -0.497 OA
ATOM     19  C   UNL     1      27.300  33.076  36.256  1.00  0.00     0.278 C 
ENDBRANCH  13  18
ENDBRANCH   1  12
BRANCH   6  20
ATOM     20  O   UNL     1      20.279  25.416  28.962  1.00  0.00    -0.508 OA
ATOM     21  H   UNL     1      19.260  25.474  28.953  1.00  0.00     0.293 HD
ENDBRANCH   6  20
TORSDOF 3
ENDMDL
MODEL 7
REMARK VINA RESULT:      -7.4      4.047      5.351
REMARK SMILES COc1ccc(-c2cc3ccc(O)cc3oc2=O)cc1
REMARK SMILES IDX 7 1 8 2 9 3 10 4 11 5 12 6 14 7 15 8 16 9 17 10 18 11 6 12
REMARK SMILES IDX 3 13 4 14 20 15 5 16 19 17 2 18 1 19 13 20
REMARK H PARENT 13 21
ROOT
ATOM      1  C   UNL     1      24.419  29.310  31.814  1.00  0.00     0.068 A 
ATOM      2  C   UNL     1      23.078  29.075  32.086  1.00  0.00     0.028 A 
ATOM      3  C   UNL     1      22.389  28.167  31.313  1.00  0.00     0.018 A 
ATOM      4  C   UNL     1      21.042  27.914  31.567  1.00  0.00     0.016 A 
ATOM      5  C   UNL     1      20.351  27.008  30.796  1.00  0.00     0.047 A 
ATOM      6  C   UNL     1      20.965  26.327  29.755  1.00  0.00     0.119 A 
ATOM      7  C   UNL     1      22.297  26.592  29.522  1.00  0.00     0.094 A 
ATOM      8  C   UNL     1      23.008  27.489  30.274  1.00  0.00     0.142 A 
ATOM      9  O   UNL     1      24.277  27.740  30.049  1.00  0.00    -0.422 OA
ATOM     10  C   UNL     1      24.966  28.597  30.764  1.00  0.00     0.344 A 
ATOM     11  O   UNL     1      26.179  28.791  30.497  1.00  0.00    -0.246 OA
ENDROOT
BRANCH   1  12
ATOM     12  C   UNL     1      25.195  30.260  32.600  1.00  0.00    -0.011 A 
ATOM     13  C   UNL     1      26.685  32.064  34.113  1.00  0.00     0.118 A 
ATOM     14  C   UNL     1      26.730  30.720  34.389  1.00  0.00     0.047 A 
ATOM     15  C   UNL     1      25.897  32.513  33.082  1.00  0.00     0.047 A 
ATOM     16  C   UNL     1      25.986  29.810  33.634  1.00  0.00     0.013 A 
ATOM     17  C   UNL     1      25.158  31.608  32.332  1.00  0.00     0.013 A 
BRANCH  13  18
ATOM     18  O   UNL     1      27.444  32.924  34.893  1.00  0.00    -0.497 OA
ATOM     19  C   UNL     1      27.630  32.697  36.274  1.00  0.00     0.278 C 
ENDBRANCH  13  18
ENDBRANCH   1  12
BRANCH   6  20
ATOM     20  O   UNL     1      20.279  25.410  28.971  1.00  0.00    -0.508 OA
ATOM     21  H   UNL     1      20.613  24.446  28.968  1.00  0.00     0.293 HD
ENDBRANCH   6  20
TORSDOF 3
ENDMDL
MODEL 8
REMARK VINA RESULT:      -7.4      2.869      3.209
REMARK SMILES COc1ccc(-c2cc3ccc(O)cc3oc2=O)cc1
REMARK SMILES IDX 7 1 8 2 9 3 10 4 11 5 12 6 14 7 15 8 16 9 17 10 18 11 6 12
REMARK SMILES IDX 3 13 4 14 20 15 5 16 19 17 2 18 1 19 13 20
REMARK H PARENT 13 21
ROOT
ATOM      1  C   UNL     1      25.709  31.606  35.686  1.00  0.00     0.068 A 
ATOM      2  C   UNL     1      24.675  30.907  36.295  1.00  0.00     0.028 A 
ATOM      3  C   UNL     1      23.614  30.483  35.526  1.00  0.00     0.018 A 
ATOM      4  C   UNL     1      22.564  29.780  36.115  1.00  0.00     0.016 A 
ATOM      5  C   UNL     1      21.502  29.355  35.350  1.00  0.00     0.047 A 
ATOM      6  C   UNL     1      21.442  29.610  33.988  1.00  0.00     0.119 A 
ATOM      7  C   UNL     1      22.492  30.307  33.427  1.00  0.00     0.094 A 
ATOM      8  C   UNL     1      23.560  30.741  34.165  1.00  0.00     0.142 A 
ATOM      9  O   UNL     1      24.558  31.404  33.628  1.00  0.00    -0.422 OA
ATOM     10  C   UNL     1      25.585  31.824  34.327  1.00  0.00     0.344 A 
ATOM     11  O   UNL     1      26.509  32.454  33.752  1.00  0.00    -0.246 OA
ENDROOT
BRANCH   1  12
ATOM     12  C   UNL     1      26.856  32.078  36.451  1.00  0.00    -0.011 A 
ATOM     13  C   UNL     1      29.057  32.966  37.910  1.00  0.00     0.118 A 
ATOM     14  C   UNL     1      29.099  31.763  37.251  1.00  0.00     0.047 A 
ATOM     15  C   UNL     1      27.918  33.731  37.844  1.00  0.00     0.047 A 
ATOM     16  C   UNL     1      27.998  31.311  36.518  1.00  0.00     0.013 A 
ATOM     17  C   UNL     1      26.825  33.282  37.114  1.00  0.00     0.013 A 
BRANCH  13  18
ATOM     18  O   UNL     1      30.177  33.367  38.623  1.00  0.00    -0.497 OA
ATOM     19  C   UNL     1      30.265  34.655  39.195  1.00  0.00     0.278 C 
ENDBRANCH  13  18
ENDBRANCH   1  12
BRANCH   6  20
ATOM     20  O   UNL     1      20.377  29.187  33.205  1.00  0.00    -0.508 OA
ATOM     21  H   UNL     1      20.292  28.187  33.022  1.00  0.00     0.293 HD
ENDBRANCH   6  20
TORSDOF 3
ENDMDL
MODEL 9
REMARK VINA RESULT:      -7.4      1.937      2.166
REMARK SMILES COc1ccc(-c2cc3ccc(O)cc3oc2=O)cc1
REMARK SMILES IDX 7 1 8 2 9 3 10 4 11 5 12 6 14 7 15 8 16 9 17 10 18 11 6 12
REMARK SMILES IDX 3 13 4 14 20 15 5 16 19 17 2 18 1 19 13 20
REMARK H PARENT 13 21
ROOT
ATOM      1  C   UNL     1      27.005  30.785  35.136  1.00  0.00     0.068 A 
ATOM      2  C   UNL     1      27.085  29.402  35.230  1.00  0.00     0.028 A 
ATOM      3  C   UNL     1      26.752  28.637  34.135  1.00  0.00     0.018 A 
ATOM      4  C   UNL     1      26.824  27.247  34.206  1.00  0.00     0.016 A 
ATOM      5  C   UNL     1      26.492  26.480  33.113  1.00  0.00     0.047 A 
ATOM      6  C   UNL     1      26.078  27.059  31.922  1.00  0.00     0.119 A 
ATOM      7  C   UNL     1      26.013  28.435  31.874  1.00  0.00     0.094 A 
ATOM      8  C   UNL     1      26.339  29.221  32.947  1.00  0.00     0.142 A 
ATOM      9  O   UNL     1      26.276  30.532  32.898  1.00  0.00    -0.422 OA
ATOM     10  C   UNL     1      26.586  31.293  33.921  1.00  0.00     0.344 A 
ATOM     11  O   UNL     1      26.505  32.543  33.809  1.00  0.00    -0.246 OA
ENDROOT
BRANCH   1  12
ATOM     12  C   UNL     1      27.346  31.641  36.264  1.00  0.00    -0.011 A 
ATOM     13  C   UNL     1      28.015  33.278  38.417  1.00  0.00     0.118 A 
ATOM     14  C   UNL     1      28.985  32.831  37.555  1.00  0.00     0.047 A 
ATOM     15  C   UNL     1      26.709  32.911  38.208  1.00  0.00     0.047 A 
ATOM     16  C   UNL     1      28.657  32.010  36.473  1.00  0.00     0.013 A 
ATOM     17  C   UNL     1      26.383  32.095  37.133  1.00  0.00     0.013 A 
BRANCH  13  18
ATOM     18  O   UNL     1      28.396  34.092  39.474  1.00  0.00    -0.497 OA
ATOM     19  C   UNL     1      29.617  34.801  39.457  1.00  0.00     0.278 C 
ENDBRANCH  13  18
ENDBRANCH   1  12
BRANCH   6  20
ATOM     20  O   UNL     1      25.739  26.297  30.813  1.00  0.00    -0.508 OA
ATOM     21  H   UNL     1      26.496  25.843  30.301  1.00  0.00     0.293 HD
ENDBRANCH   6  20
TORSDOF 3
ENDMDL
