MODEL 1
REMARK VINA RESULT:      -5.0      0.000      0.000
REMARK SMILES CC/C(=C(\c1ccccc1)c1ccc(OCC[NH+](C)C)cc1)c1ccccc1
REMARK SMILES IDX 15 1 14 2 11 3 12 4 22 5 13 6 21 7 4 8 3 9 2 10 1 11 23 12
REMARK SMILES IDX 24 13 28 14 25 15 27 16 26 17 5 18 6 19 10 20 7 21 9 22 8 23
REMARK SMILES IDX 16 24 17 25 18 26 19 27 20 28
REMARK H PARENT 18 29
ROOT
ATOM      1  O   UNL     1      15.571  -6.183 -30.056  1.00  0.00    -0.488 OA
ENDROOT
BRANCH   1   2
ATOM      2  C   UNL     1      15.530  -6.172 -28.674  1.00  0.00     0.119 A 
ATOM      3  C   UNL     1      15.556  -6.185 -25.818  1.00  0.00    -0.017 A 
ATOM      4  C   UNL     1      14.465  -5.732 -26.533  1.00  0.00     0.012 A 
ATOM      5  C   UNL     1      16.634  -6.634 -26.573  1.00  0.00     0.012 A 
ATOM      6  C   UNL     1      14.468  -5.731 -27.919  1.00  0.00     0.047 A 
ATOM      7  C   UNL     1      16.635  -6.632 -27.943  1.00  0.00     0.047 A 
BRANCH   3   8
ATOM      8  C   UNL     1      15.572  -6.220 -24.366  1.00  0.00    -0.007 C 
ATOM      9  C   UNL     1      15.740  -5.149 -23.635  1.00  0.00    -0.033 C 
BRANCH   9  10
ATOM     10  C   UNL     1      15.812  -5.134 -22.148  1.00  0.00     0.033 C 
ATOM     11  C   UNL     1      17.204  -4.754 -21.733  1.00  0.00     0.009 C 
ENDBRANCH   9  10
BRANCH   9  12
ATOM     12  C   UNL     1      15.808  -3.812 -24.253  1.00  0.00    -0.022 A 
ATOM     13  C   UNL     1      14.745  -2.945 -24.228  1.00  0.00     0.008 A 
ATOM     14  C   UNL     1      16.964  -3.446 -24.871  1.00  0.00     0.008 A 
ATOM     15  C   UNL     1      14.856  -1.716 -24.826  1.00  0.00     0.001 A 
ATOM     16  C   UNL     1      17.121  -2.204 -25.494  1.00  0.00     0.001 A 
ATOM     17  C   UNL     1      16.038  -1.356 -25.452  1.00  0.00     0.000 A 
ENDBRANCH   9  12
BRANCH   8  18
ATOM     18  C   UNL     1      15.431  -7.508 -23.717  1.00  0.00    -0.018 A 
ATOM     19  C   UNL     1      16.518  -8.222 -23.253  1.00  0.00     0.009 A 
ATOM     20  C   UNL     1      14.168  -8.079 -23.595  1.00  0.00     0.009 A 
ATOM     21  C   UNL     1      16.319  -9.457 -22.691  1.00  0.00     0.001 A 
ATOM     22  C   UNL     1      13.951  -9.316 -23.033  1.00  0.00     0.001 A 
ATOM     23  C   UNL     1      15.062 -10.016 -22.572  1.00  0.00     0.000 A 
ENDBRANCH   8  18
ENDBRANCH   3   8
ENDBRANCH   1   2
BRANCH   1  24
ATOM     24  C   UNL     1      16.389  -5.455 -30.903  1.00  0.00     0.290 C 
BRANCH  24  25
ATOM     25  C   UNL     1      16.273  -3.957 -30.798  1.00  0.00     0.303 C 
BRANCH  25  26
ATOM     26  N   UNL     1      15.496  -3.382 -31.853  1.00  0.00    -0.337 N 
ATOM     27  C   UNL     1      16.273  -2.572 -32.766  1.00  0.00     0.332 C 
ATOM     28  C   UNL     1      14.411  -2.554 -31.367  1.00  0.00     0.332 C 
ATOM     29  H   UNL     1      15.033  -4.133 -32.447  1.00  0.00     0.347 HD
ENDBRANCH  25  26
ENDBRANCH  24  25
ENDBRANCH   1  24
TORSDOF 8
ENDMDL
MODEL 2
REMARK VINA RESULT:      -4.8      1.710      2.626
REMARK SMILES CC/C(=C(\c1ccccc1)c1ccc(OCC[NH+](C)C)cc1)c1ccccc1
REMARK SMILES IDX 15 1 14 2 11 3 12 4 22 5 13 6 21 7 4 8 3 9 2 10 1 11 23 12
REMARK SMILES IDX 24 13 28 14 25 15 27 16 26 17 5 18 6 19 10 20 7 21 9 22 8 23
REMARK SMILES IDX 16 24 17 25 18 26 19 27 20 28
REMARK H PARENT 18 29
ROOT
ATOM      1  O   UNL     1      15.519  -5.162 -29.346  1.00  0.00    -0.488 OA
ENDROOT
BRANCH   1   2
ATOM      2  C   UNL     1      15.643  -5.388 -27.987  1.00  0.00     0.119 A 
ATOM      3  C   UNL     1      15.784  -5.875 -25.176  1.00  0.00    -0.017 A 
ATOM      4  C   UNL     1      16.914  -5.624 -25.929  1.00  0.00     0.012 A 
ATOM      5  C   UNL     1      14.579  -5.874 -25.871  1.00  0.00     0.012 A 
ATOM      6  C   UNL     1      16.829  -5.389 -27.292  1.00  0.00     0.047 A 
ATOM      7  C   UNL     1      14.497  -5.642 -27.219  1.00  0.00     0.047 A 
BRANCH   3   8
ATOM      8  C   UNL     1      15.839  -6.100 -23.743  1.00  0.00    -0.007 C 
ATOM      9  C   UNL     1      16.041  -5.135 -22.883  1.00  0.00    -0.033 C 
BRANCH   9  10
ATOM     10  C   UNL     1      16.154  -5.315 -21.410  1.00  0.00     0.033 C 
ATOM     11  C   UNL     1      15.111  -4.472 -20.736  1.00  0.00     0.009 C 
ENDBRANCH   9  10
BRANCH   9  12
ATOM     12  C   UNL     1      16.107  -3.729 -23.322  1.00  0.00    -0.022 A 
ATOM     13  C   UNL     1      17.292  -3.040 -23.378  1.00  0.00     0.008 A 
ATOM     14  C   UNL     1      14.947  -3.107 -23.669  1.00  0.00     0.008 A 
ATOM     15  C   UNL     1      17.298  -1.730 -23.785  1.00  0.00     0.001 A 
ATOM     16  C   UNL     1      14.907  -1.774 -24.088  1.00  0.00     0.001 A 
ATOM     17  C   UNL     1      16.111  -1.109 -24.135  1.00  0.00     0.000 A 
ENDBRANCH   9  12
BRANCH   8  18
ATOM     18  C   UNL     1      15.701  -7.460 -23.264  1.00  0.00    -0.018 A 
ATOM     19  C   UNL     1      16.751  -8.356 -23.275  1.00  0.00     0.009 A 
ATOM     20  C   UNL     1      14.460  -7.907 -22.820  1.00  0.00     0.009 A 
ATOM     21  C   UNL     1      16.541  -9.643 -22.852  1.00  0.00     0.001 A 
ATOM     22  C   UNL     1      14.231  -9.194 -22.391  1.00  0.00     0.001 A 
ATOM     23  C   UNL     1      15.306 -10.078 -22.411  1.00  0.00     0.000 A 
ENDBRANCH   8  18
ENDBRANCH   3   8
ENDBRANCH   1   2
BRANCH   1  24
ATOM     24  C   UNL     1      16.250  -5.712 -30.385  1.00  0.00     0.290 C 
BRANCH  24  25
ATOM     25  C   UNL     1      16.094  -7.198 -30.579  1.00  0.00     0.303 C 
BRANCH  25  26
ATOM     26  N   UNL     1      17.295  -7.926 -30.301  1.00  0.00    -0.337 N 
ATOM     27  C   UNL     1      17.244  -8.667 -29.059  1.00  0.00     0.332 C 
ATOM     28  C   UNL     1      18.467  -7.077 -30.242  1.00  0.00     0.332 C 
ATOM     29  H   UNL     1      17.501  -8.640 -31.062  1.00  0.00     0.347 HD
ENDBRANCH  25  26
ENDBRANCH  24  25
ENDBRANCH   1  24
TORSDOF 8
ENDMDL
MODEL 3
REMARK VINA RESULT:      -4.8      3.171      6.790
REMARK SMILES CC/C(=C(\c1ccccc1)c1ccc(OCC[NH+](C)C)cc1)c1ccccc1
REMARK SMILES IDX 15 1 14 2 11 3 12 4 22 5 13 6 21 7 4 8 3 9 2 10 1 11 23 12
REMARK SMILES IDX 24 13 28 14 25 15 27 16 26 17 5 18 6 19 10 20 7 21 9 22 8 23
REMARK SMILES IDX 16 24 17 25 18 26 19 27 20 28
REMARK H PARENT 18 29
ROOT
ATOM      1  O   UNL     1      14.559  -9.622 -23.384  1.00  0.00    -0.488 OA
ENDROOT
BRANCH   1   2
ATOM      2  C   UNL     1      14.961  -8.705 -24.338  1.00  0.00     0.119 A 
ATOM      3  C   UNL     1      15.897  -6.856 -26.304  1.00  0.00    -0.017 A 
ATOM      4  C   UNL     1      14.569  -6.909 -25.928  1.00  0.00     0.012 A 
ATOM      5  C   UNL     1      16.745  -7.756 -25.665  1.00  0.00     0.012 A 
ATOM      6  C   UNL     1      14.130  -7.812 -24.973  1.00  0.00     0.047 A 
ATOM      7  C   UNL     1      16.309  -8.647 -24.721  1.00  0.00     0.047 A 
BRANCH   3   8
ATOM      8  C   UNL     1      16.390  -5.905 -27.284  1.00  0.00    -0.007 C 
ATOM      9  C   UNL     1      16.509  -4.627 -27.030  1.00  0.00    -0.033 C 
BRANCH   9  10
ATOM     10  C   UNL     1      16.963  -3.603 -28.011  1.00  0.00     0.033 C 
ATOM     11  C   UNL     1      15.781  -3.139 -28.810  1.00  0.00     0.009 C 
ENDBRANCH   9  10
BRANCH   9  12
ATOM     12  C   UNL     1      16.257  -4.095 -25.679  1.00  0.00    -0.022 A 
ATOM     13  C   UNL     1      17.214  -4.117 -24.698  1.00  0.00     0.008 A 
ATOM     14  C   UNL     1      15.026  -3.577 -25.411  1.00  0.00     0.008 A 
ATOM     15  C   UNL     1      16.925  -3.617 -23.454  1.00  0.00     0.001 A 
ATOM     16  C   UNL     1      14.688  -3.059 -24.158  1.00  0.00     0.001 A 
ATOM     17  C   UNL     1      15.669  -3.094 -23.194  1.00  0.00     0.000 A 
ENDBRANCH   9  12
BRANCH   8  18
ATOM     18  C   UNL     1      16.723  -6.402 -28.603  1.00  0.00    -0.018 A 
ATOM     19  C   UNL     1      15.757  -6.722 -29.537  1.00  0.00     0.009 A 
ATOM     20  C   UNL     1      18.056  -6.615 -28.939  1.00  0.00     0.009 A 
ATOM     21  C   UNL     1      16.138  -7.233 -30.750  1.00  0.00     0.001 A 
ATOM     22  C   UNL     1      18.457  -7.126 -30.151  1.00  0.00     0.001 A 
ATOM     23  C   UNL     1      17.465  -7.440 -31.075  1.00  0.00     0.000 A 
ENDBRANCH   8  18
ENDBRANCH   3   8
ENDBRANCH   1   2
BRANCH   1  24
ATOM     24  C   UNL     1      14.884  -9.671 -22.039  1.00  0.00     0.290 C 
BRANCH  24  25
ATOM     25  C   UNL     1      14.888  -8.348 -21.319  1.00  0.00     0.303 C 
BRANCH  25  26
ATOM     26  N   UNL     1      16.197  -7.943 -20.904  1.00  0.00    -0.337 N 
ATOM     27  C   UNL     1      16.345  -7.858 -19.468  1.00  0.00     0.332 C 
ATOM     28  C   UNL     1      16.589  -6.659 -21.449  1.00  0.00     0.332 C 
ATOM     29  H   UNL     1      16.939  -8.629 -21.237  1.00  0.00     0.347 HD
ENDBRANCH  25  26
ENDBRANCH  24  25
ENDBRANCH   1  24
TORSDOF 8
ENDMDL
MODEL 4
REMARK VINA RESULT:      -4.7      0.929      1.703
REMARK SMILES CC/C(=C(\c1ccccc1)c1ccc(OCC[NH+](C)C)cc1)c1ccccc1
REMARK SMILES IDX 15 1 14 2 11 3 12 4 22 5 13 6 21 7 4 8 3 9 2 10 1 11 23 12
REMARK SMILES IDX 24 13 28 14 25 15 27 16 26 17 5 18 6 19 10 20 7 21 9 22 8 23
REMARK SMILES IDX 16 24 17 25 18 26 19 27 20 28
REMARK H PARENT 18 29
ROOT
ATOM      1  O   UNL     1      15.674  -5.666 -30.016  1.00  0.00    -0.488 OA
ENDROOT
BRANCH   1   2
ATOM      2  C   UNL     1      15.701  -5.811 -28.641  1.00  0.00     0.119 A 
ATOM      3  C   UNL     1      15.642  -6.088 -25.798  1.00  0.00    -0.017 A 
ATOM      4  C   UNL     1      16.786  -6.338 -26.530  1.00  0.00     0.012 A 
ATOM      5  C   UNL     1      14.527  -5.693 -26.531  1.00  0.00     0.012 A 
ATOM      6  C   UNL     1      16.799  -6.199 -27.909  1.00  0.00     0.047 A 
ATOM      7  C   UNL     1      14.542  -5.557 -27.894  1.00  0.00     0.047 A 
BRANCH   3   8
ATOM      8  C   UNL     1      15.605  -6.201 -24.351  1.00  0.00    -0.007 C 
ATOM      9  C   UNL     1      15.759  -5.173 -23.558  1.00  0.00    -0.033 C 
BRANCH   9  10
ATOM     10  C   UNL     1      15.777  -5.239 -22.071  1.00  0.00     0.033 C 
ATOM     11  C   UNL     1      17.199  -5.153 -21.599  1.00  0.00     0.009 C 
ENDBRANCH   9  10
BRANCH   9  12
ATOM     12  C   UNL     1      15.863  -3.805 -24.099  1.00  0.00    -0.022 A 
ATOM     13  C   UNL     1      14.787  -2.956 -24.141  1.00  0.00     0.008 A 
ATOM     14  C   UNL     1      17.069  -3.392 -24.577  1.00  0.00     0.008 A 
ATOM     15  C   UNL     1      14.934  -1.697 -24.664  1.00  0.00     0.001 A 
ATOM     16  C   UNL     1      17.264  -2.118 -25.119  1.00  0.00     0.001 A 
ATOM     17  C   UNL     1      16.167  -1.289 -25.147  1.00  0.00     0.000 A 
ENDBRANCH   9  12
BRANCH   8  18
ATOM     18  C   UNL     1      15.428  -7.520 -23.779  1.00  0.00    -0.018 A 
ATOM     19  C   UNL     1      14.179  -8.069 -23.563  1.00  0.00     0.009 A 
ATOM     20  C   UNL     1      16.544  -8.251 -23.383  1.00  0.00     0.009 A 
ATOM     21  C   UNL     1      14.081  -9.303 -22.974  1.00  0.00     0.001 A 
ATOM     22  C   UNL     1      16.464  -9.490 -22.792  1.00  0.00     0.001 A 
ATOM     23  C   UNL     1      15.194 -10.022 -22.586  1.00  0.00     0.000 A 
ENDBRANCH   8  18
ENDBRANCH   3   8
ENDBRANCH   1   2
BRANCH   1  24
ATOM     24  C   UNL     1      15.931  -4.536 -30.772  1.00  0.00     0.290 C 
BRANCH  24  25
ATOM     25  C   UNL     1      17.315  -3.957 -30.634  1.00  0.00     0.303 C 
BRANCH  25  26
ATOM     26  N   UNL     1      17.327  -2.698 -29.952  1.00  0.00    -0.337 N 
ATOM     27  C   UNL     1      18.089  -2.718 -28.722  1.00  0.00     0.332 C 
ATOM     28  C   UNL     1      15.999  -2.223 -29.622  1.00  0.00     0.332 C 
ATOM     29  H   UNL     1      17.759  -1.935 -30.554  1.00  0.00     0.347 HD
ENDBRANCH  25  26
ENDBRANCH  24  25
ENDBRANCH   1  24
TORSDOF 8
ENDMDL
MODEL 5
REMARK VINA RESULT:      -4.7      1.035      1.667
REMARK SMILES CC/C(=C(\c1ccccc1)c1ccc(OCC[NH+](C)C)cc1)c1ccccc1
REMARK SMILES IDX 15 1 14 2 11 3 12 4 22 5 13 6 21 7 4 8 3 9 2 10 1 11 23 12
REMARK SMILES IDX 24 13 28 14 25 15 27 16 26 17 5 18 6 19 10 20 7 21 9 22 8 23
REMARK SMILES IDX 16 24 17 25 18 26 19 27 20 28
REMARK H PARENT 18 29
ROOT
ATOM      1  O   UNL     1      15.654  -5.457 -29.641  1.00  0.00    -0.488 OA
ENDROOT
BRANCH   1   2
ATOM      2  C   UNL     1      15.616  -5.602 -28.267  1.00  0.00     0.119 A 
ATOM      3  C   UNL     1      15.653  -5.911 -25.427  1.00  0.00    -0.017 A 
ATOM      4  C   UNL     1      14.487  -5.635 -26.114  1.00  0.00     0.012 A 
ATOM      5  C   UNL     1      16.802  -6.029 -26.203  1.00  0.00     0.012 A 
ATOM      6  C   UNL     1      14.485  -5.488 -27.492  1.00  0.00     0.047 A 
ATOM      7  C   UNL     1      16.798  -5.883 -27.565  1.00  0.00     0.047 A 
BRANCH   3   8
ATOM      8  C   UNL     1      15.681  -6.094 -23.987  1.00  0.00    -0.007 C 
ATOM      9  C   UNL     1      15.833  -5.100 -23.151  1.00  0.00    -0.033 C 
BRANCH   9  10
ATOM     10  C   UNL     1      15.916  -5.236 -21.671  1.00  0.00     0.033 C 
ATOM     11  C   UNL     1      17.359  -5.198 -21.260  1.00  0.00     0.009 C 
ENDBRANCH   9  10
BRANCH   9  12
ATOM     12  C   UNL     1      15.868  -3.706 -23.628  1.00  0.00    -0.022 A 
ATOM     13  C   UNL     1      17.015  -3.132 -24.112  1.00  0.00     0.008 A 
ATOM     14  C   UNL     1      14.719  -2.976 -23.569  1.00  0.00     0.008 A 
ATOM     15  C   UNL     1      16.997  -1.826 -24.534  1.00  0.00     0.001 A 
ATOM     16  C   UNL     1      14.656  -1.644 -23.988  1.00  0.00     0.001 A 
ATOM     17  C   UNL     1      15.822  -1.095 -24.469  1.00  0.00     0.000 A 
ENDBRANCH   9  12
BRANCH   8  18
ATOM     18  C   UNL     1      15.573  -7.445 -23.473  1.00  0.00    -0.018 A 
ATOM     19  C   UNL     1      16.677  -8.247 -23.269  1.00  0.00     0.009 A 
ATOM     20  C   UNL     1      14.314  -7.981 -23.218  1.00  0.00     0.009 A 
ATOM     21  C   UNL     1      16.501  -9.533 -22.826  1.00  0.00     0.001 A 
ATOM     22  C   UNL     1      14.119  -9.268 -22.772  1.00  0.00     0.001 A 
ATOM     23  C   UNL     1      15.249 -10.057 -22.574  1.00  0.00     0.000 A 
ENDBRANCH   8  18
ENDBRANCH   3   8
ENDBRANCH   1   2
BRANCH   1  24
ATOM     24  C   UNL     1      15.503  -4.307 -30.395  1.00  0.00     0.290 C 
BRANCH  24  25
ATOM     25  C   UNL     1      16.387  -4.200 -31.611  1.00  0.00     0.303 C 
BRANCH  25  26
ATOM     26  N   UNL     1      17.510  -5.085 -31.563  1.00  0.00    -0.337 N 
ATOM     27  C   UNL     1      18.713  -4.462 -31.055  1.00  0.00     0.332 C 
ATOM     28  C   UNL     1      17.836  -5.650 -32.857  1.00  0.00     0.332 C 
ATOM     29  H   UNL     1      17.320  -5.919 -30.930  1.00  0.00     0.347 HD
ENDBRANCH  25  26
ENDBRANCH  24  25
ENDBRANCH   1  24
TORSDOF 8
ENDMDL
MODEL 6
REMARK VINA RESULT:      -4.6      3.313      6.740
REMARK SMILES CC/C(=C(\c1ccccc1)c1ccc(OCC[NH+](C)C)cc1)c1ccccc1
REMARK SMILES IDX 15 1 14 2 11 3 12 4 22 5 13 6 21 7 4 8 3 9 2 10 1 11 23 12
REMARK SMILES IDX 24 13 28 14 25 15 27 16 26 17 5 18 6 19 10 20 7 21 9 22 8 23
REMARK SMILES IDX 16 24 17 25 18 26 19 27 20 28
REMARK H PARENT 18 29
ROOT
ATOM      1  O   UNL     1      15.334  -9.396 -22.928  1.00  0.00    -0.488 OA
ENDROOT
BRANCH   1   2
ATOM      2  C   UNL     1      15.539  -8.524 -23.981  1.00  0.00     0.119 A 
ATOM      3  C   UNL     1      16.078  -6.743 -26.148  1.00  0.00    -0.017 A 
ATOM      4  C   UNL     1      14.788  -7.029 -25.745  1.00  0.00     0.012 A 
ATOM      5  C   UNL     1      17.092  -7.374 -25.434  1.00  0.00     0.012 A 
ATOM      6  C   UNL     1      14.543  -7.895 -24.691  1.00  0.00     0.047 A 
ATOM      7  C   UNL     1      16.847  -8.230 -24.394  1.00  0.00     0.047 A 
BRANCH   3   8
ATOM      8  C   UNL     1      16.366  -5.821 -27.233  1.00  0.00    -0.007 C 
ATOM      9  C   UNL     1      16.293  -4.523 -27.094  1.00  0.00    -0.033 C 
BRANCH   9  10
ATOM     10  C   UNL     1      16.531  -3.535 -28.182  1.00  0.00     0.033 C 
ATOM     11  C   UNL     1      17.898  -2.940 -28.008  1.00  0.00     0.009 C 
ENDBRANCH   9  10
BRANCH   9  12
ATOM     12  C   UNL     1      16.025  -3.914 -25.779  1.00  0.00    -0.022 A 
ATOM     13  C   UNL     1      14.795  -3.403 -25.452  1.00  0.00     0.008 A 
ATOM     14  C   UNL     1      17.043  -3.855 -24.876  1.00  0.00     0.008 A 
ATOM     15  C   UNL     1      14.600  -2.837 -24.217  1.00  0.00     0.001 A 
ATOM     16  C   UNL     1      16.888  -3.287 -23.608  1.00  0.00     0.001 A 
ATOM     17  C   UNL     1      15.643  -2.784 -23.308  1.00  0.00     0.000 A 
ENDBRANCH   9  12
BRANCH   8  18
ATOM     18  C   UNL     1      16.709  -6.380 -28.525  1.00  0.00    -0.018 A 
ATOM     19  C   UNL     1      18.018  -6.569 -28.922  1.00  0.00     0.009 A 
ATOM     20  C   UNL     1      15.696  -6.698 -29.424  1.00  0.00     0.009 A 
ATOM     21  C   UNL     1      18.275  -7.057 -30.177  1.00  0.00     0.001 A 
ATOM     22  C   UNL     1      15.936  -7.190 -30.686  1.00  0.00     0.001 A 
ATOM     23  C   UNL     1      17.263  -7.372 -31.063  1.00  0.00     0.000 A 
ENDBRANCH   8  18
ENDBRANCH   3   8
ENDBRANCH   1   2
BRANCH   1  24
ATOM     24  C   UNL     1      15.409  -9.146 -21.569  1.00  0.00     0.290 C 
BRANCH  24  25
ATOM     25  C   UNL     1      14.587  -7.987 -21.070  1.00  0.00     0.303 C 
BRANCH  25  26
ATOM     26  N   UNL     1      15.372  -6.991 -20.405  1.00  0.00    -0.337 N 
ATOM     27  C   UNL     1      16.741  -7.397 -20.176  1.00  0.00     0.332 C 
ATOM     28  C   UNL     1      14.821  -6.604 -19.122  1.00  0.00     0.332 C 
ATOM     29  H   UNL     1      15.421  -6.094 -20.974  1.00  0.00     0.347 HD
ENDBRANCH  25  26
ENDBRANCH  24  25
ENDBRANCH   1  24
TORSDOF 8
ENDMDL
MODEL 7
REMARK VINA RESULT:      -4.6      3.255      5.620
REMARK SMILES CC/C(=C(\c1ccccc1)c1ccc(OCC[NH+](C)C)cc1)c1ccccc1
REMARK SMILES IDX 15 1 14 2 11 3 12 4 22 5 13 6 21 7 4 8 3 9 2 10 1 11 23 12
REMARK SMILES IDX 24 13 28 14 25 15 27 16 26 17 5 18 6 19 10 20 7 21 9 22 8 23
REMARK SMILES IDX 16 24 17 25 18 26 19 27 20 28
REMARK H PARENT 18 29
ROOT
ATOM      1  O   UNL     1      18.181  -1.950 -23.582  1.00  0.00    -0.488 OA
ENDROOT
BRANCH   1   2
ATOM      2  C   UNL     1      17.693  -3.179 -23.177  1.00  0.00     0.119 A 
ATOM      3  C   UNL     1      16.576  -5.674 -22.347  1.00  0.00    -0.017 A 
ATOM      4  C   UNL     1      17.928  -5.525 -22.586  1.00  0.00     0.012 A 
ATOM      5  C   UNL     1      15.798  -4.536 -22.535  1.00  0.00     0.012 A 
ATOM      6  C   UNL     1      18.455  -4.308 -22.988  1.00  0.00     0.047 A 
ATOM      7  C   UNL     1      16.320  -3.334 -22.933  1.00  0.00     0.047 A 
BRANCH   3   8
ATOM      8  C   UNL     1      16.000  -6.930 -21.901  1.00  0.00    -0.007 C 
ATOM      9  C   UNL     1      15.596  -7.856 -22.732  1.00  0.00    -0.033 C 
BRANCH   9  10
ATOM     10  C   UNL     1      14.956  -9.139 -22.331  1.00  0.00     0.033 C 
ATOM     11  C   UNL     1      13.486  -9.060 -22.621  1.00  0.00     0.009 C 
ENDBRANCH   9  10
BRANCH   9  12
ATOM     12  C   UNL     1      15.815  -7.722 -24.183  1.00  0.00    -0.022 A 
ATOM     13  C   UNL     1      15.028  -6.917 -24.965  1.00  0.00     0.008 A 
ATOM     14  C   UNL     1      16.828  -8.434 -24.750  1.00  0.00     0.008 A 
ATOM     15  C   UNL     1      15.267  -6.835 -26.314  1.00  0.00     0.001 A 
ATOM     16  C   UNL     1      17.106  -8.381 -26.119  1.00  0.00     0.001 A 
ATOM     17  C   UNL     1      16.300  -7.564 -26.879  1.00  0.00     0.000 A 
ENDBRANCH   9  12
BRANCH   8  18
ATOM     18  C   UNL     1      15.838  -7.133 -20.476  1.00  0.00    -0.018 A 
ATOM     19  C   UNL     1      14.739  -6.664 -19.784  1.00  0.00     0.009 A 
ATOM     20  C   UNL     1      16.840  -7.780 -19.758  1.00  0.00     0.009 A 
ATOM     21  C   UNL     1      14.671  -6.849 -18.427  1.00  0.00     0.001 A 
ATOM     22  C   UNL     1      16.787  -7.975 -18.398  1.00  0.00     0.001 A 
ATOM     23  C   UNL     1      15.669  -7.494 -17.723  1.00  0.00     0.000 A 
ENDBRANCH   8  18
ENDBRANCH   3   8
ENDBRANCH   1   2
BRANCH   1  24
ATOM     24  C   UNL     1      17.896  -1.243 -24.737  1.00  0.00     0.290 C 
BRANCH  24  25
ATOM     25  C   UNL     1      16.878  -0.142 -24.596  1.00  0.00     0.303 C 
BRANCH  25  26
ATOM     26  N   UNL     1      15.684  -0.386 -25.346  1.00  0.00    -0.337 N 
ATOM     27  C   UNL     1      15.523   0.502 -26.477  1.00  0.00     0.332 C 
ATOM     28  C   UNL     1      14.483  -0.277 -24.544  1.00  0.00     0.332 C 
ATOM     29  H   UNL     1      15.671  -1.373 -25.743  1.00  0.00     0.347 HD
ENDBRANCH  25  26
ENDBRANCH  24  25
ENDBRANCH   1  24
TORSDOF 8
ENDMDL
MODEL 8
REMARK VINA RESULT:      -4.5      0.833      1.592
REMARK SMILES CC/C(=C(\c1ccccc1)c1ccc(OCC[NH+](C)C)cc1)c1ccccc1
REMARK SMILES IDX 15 1 14 2 11 3 12 4 22 5 13 6 21 7 4 8 3 9 2 10 1 11 23 12
REMARK SMILES IDX 24 13 28 14 25 15 27 16 26 17 5 18 6 19 10 20 7 21 9 22 8 23
REMARK SMILES IDX 16 24 17 25 18 26 19 27 20 28
REMARK H PARENT 18 29
ROOT
ATOM      1  O   UNL     1      15.633  -6.835 -30.348  1.00  0.00    -0.488 OA
ENDROOT
BRANCH   1   2
ATOM      2  C   UNL     1      15.656  -6.738 -28.968  1.00  0.00     0.119 A 
ATOM      3  C   UNL     1      15.809  -6.587 -26.120  1.00  0.00    -0.017 A 
ATOM      4  C   UNL     1      14.748  -6.048 -26.821  1.00  0.00     0.012 A 
ATOM      5  C   UNL     1      16.791  -7.206 -26.886  1.00  0.00     0.012 A 
ATOM      6  C   UNL     1      14.688  -6.129 -28.204  1.00  0.00     0.047 A 
ATOM      7  C   UNL     1      16.730  -7.285 -28.252  1.00  0.00     0.047 A 
BRANCH   3   8
ATOM      8  C   UNL     1      15.886  -6.538 -24.671  1.00  0.00    -0.007 C 
ATOM      9  C   UNL     1      16.329  -5.493 -24.022  1.00  0.00    -0.033 C 
BRANCH   9  10
ATOM     10  C   UNL     1      16.475  -5.406 -22.543  1.00  0.00     0.033 C 
ATOM     11  C   UNL     1      15.431  -4.471 -22.006  1.00  0.00     0.009 C 
ENDBRANCH   9  10
BRANCH   9  12
ATOM     12  C   UNL     1      16.670  -4.247 -24.732  1.00  0.00    -0.022 A 
ATOM     13  C   UNL     1      17.953  -3.958 -25.120  1.00  0.00     0.008 A 
ATOM     14  C   UNL     1      15.669  -3.361 -24.993  1.00  0.00     0.008 A 
ATOM     15  C   UNL     1      18.219  -2.779 -25.769  1.00  0.00     0.001 A 
ATOM     16  C   UNL     1      15.895  -2.148 -25.652  1.00  0.00     0.001 A 
ATOM     17  C   UNL     1      17.192  -1.887 -26.030  1.00  0.00     0.000 A 
ENDBRANCH   9  12
BRANCH   8  18
ATOM     18  C   UNL     1      15.488  -7.718 -23.931  1.00  0.00    -0.018 A 
ATOM     19  C   UNL     1      14.163  -8.057 -23.740  1.00  0.00     0.009 A 
ATOM     20  C   UNL     1      16.462  -8.521 -23.345  1.00  0.00     0.009 A 
ATOM     21  C   UNL     1      13.853  -9.161 -22.989  1.00  0.00     0.001 A 
ATOM     22  C   UNL     1      16.169  -9.632 -22.589  1.00  0.00     0.001 A 
ATOM     23  C   UNL     1      14.827  -9.953 -22.412  1.00  0.00     0.000 A 
ENDBRANCH   8  18
ENDBRANCH   3   8
ENDBRANCH   1   2
BRANCH   1  24
ATOM     24  C   UNL     1      16.613  -6.478 -31.257  1.00  0.00     0.290 C 
BRANCH  24  25
ATOM     25  C   UNL     1      17.144  -5.074 -31.129  1.00  0.00     0.303 C 
BRANCH  25  26
ATOM     26  N   UNL     1      16.166  -4.077 -31.444  1.00  0.00    -0.337 N 
ATOM     27  C   UNL     1      16.565  -3.202 -32.526  1.00  0.00     0.332 C 
ATOM     28  C   UNL     1      15.837  -3.234 -30.313  1.00  0.00     0.332 C 
ATOM     29  H   UNL     1      15.247  -4.518 -31.746  1.00  0.00     0.347 HD
ENDBRANCH  25  26
ENDBRANCH  24  25
ENDBRANCH   1  24
TORSDOF 8
ENDMDL
MODEL 9
REMARK VINA RESULT:      -4.5      0.681      1.309
REMARK SMILES CC/C(=C(\c1ccccc1)c1ccc(OCC[NH+](C)C)cc1)c1ccccc1
REMARK SMILES IDX 15 1 14 2 11 3 12 4 22 5 13 6 21 7 4 8 3 9 2 10 1 11 23 12
REMARK SMILES IDX 24 13 28 14 25 15 27 16 26 17 5 18 6 19 10 20 7 21 9 22 8 23
REMARK SMILES IDX 16 24 17 25 18 26 19 27 20 28
REMARK H PARENT 18 29
ROOT
ATOM      1  O   UNL     1      15.535  -6.083 -29.924  1.00  0.00    -0.488 OA
ENDROOT
BRANCH   1   2
ATOM      2  C   UNL     1      15.632  -6.144 -28.546  1.00  0.00     0.119 A 
ATOM      3  C   UNL     1      15.716  -6.252 -25.693  1.00  0.00    -0.017 A 
ATOM      4  C   UNL     1      16.837  -6.491 -26.463  1.00  0.00     0.012 A 
ATOM      5  C   UNL     1      14.550  -5.955 -26.392  1.00  0.00     0.012 A 
ATOM      6  C   UNL     1      16.780  -6.435 -27.847  1.00  0.00     0.047 A 
ATOM      7  C   UNL     1      14.496  -5.900 -27.759  1.00  0.00     0.047 A 
BRANCH   3   8
ATOM      8  C   UNL     1      15.751  -6.280 -24.241  1.00  0.00    -0.007 C 
ATOM      9  C   UNL     1      15.976  -5.212 -23.519  1.00  0.00    -0.033 C 
BRANCH   9  10
ATOM     10  C   UNL     1      16.070  -5.193 -22.034  1.00  0.00     0.033 C 
ATOM     11  C   UNL     1      15.296  -4.017 -21.514  1.00  0.00     0.009 C 
ENDBRANCH   9  10
BRANCH   9  12
ATOM     12  C   UNL     1      16.092  -3.883 -24.145  1.00  0.00    -0.022 A 
ATOM     13  C   UNL     1      14.990  -3.129 -24.459  1.00  0.00     0.008 A 
ATOM     14  C   UNL     1      17.337  -3.409 -24.424  1.00  0.00     0.008 A 
ATOM     15  C   UNL     1      15.153  -1.901 -25.050  1.00  0.00     0.001 A 
ATOM     16  C   UNL     1      17.549  -2.165 -25.026  1.00  0.00     0.001 A 
ATOM     17  C   UNL     1      16.425  -1.430 -25.328  1.00  0.00     0.000 A 
ENDBRANCH   9  12
BRANCH   8  18
ATOM     18  C   UNL     1      15.565  -7.557 -23.583  1.00  0.00    -0.018 A 
ATOM     19  C   UNL     1      16.624  -8.383 -23.263  1.00  0.00     0.009 A 
ATOM     20  C   UNL     1      14.276  -8.001 -23.301  1.00  0.00     0.009 A 
ATOM     21  C   UNL     1      16.375  -9.600 -22.683  1.00  0.00     0.001 A 
ATOM     22  C   UNL     1      14.008  -9.218 -22.719  1.00  0.00     0.001 A 
ATOM     23  C   UNL     1      15.093 -10.032 -22.405  1.00  0.00     0.000 A 
ENDBRANCH   8  18
ENDBRANCH   3   8
ENDBRANCH   1   2
BRANCH   1  24
ATOM     24  C   UNL     1      16.538  -6.210 -30.868  1.00  0.00     0.290 C 
BRANCH  24  25
ATOM     25  C   UNL     1      16.833  -4.976 -31.680  1.00  0.00     0.303 C 
BRANCH  25  26
ATOM     26  N   UNL     1      16.654  -3.765 -30.939  1.00  0.00    -0.337 N 
ATOM     27  C   UNL     1      15.866  -2.773 -31.638  1.00  0.00     0.332 C 
ATOM     28  C   UNL     1      17.908  -3.135 -30.578  1.00  0.00     0.332 C 
ATOM     29  H   UNL     1      16.152  -3.944 -30.019  1.00  0.00     0.347 HD
ENDBRANCH  25  26
ENDBRANCH  24  25
ENDBRANCH   1  24
TORSDOF 8
ENDMDL
