MODEL 1
REMARK VINA RESULT:      -7.0      0.000      0.000
REMARK SMILES O=C(CCCN1CCC(O)(c2ccc(Cl)cc2)CC1)c1ccc(F)cc1
REMARK SMILES IDX 4 1 3 2 2 3 1 4 20 5 21 6 26 7 22 8 25 9 23 10 24 11 5 12
REMARK SMILES IDX 6 13 7 14 19 15 8 16 18 17 9 18 10 19 11 21 12 22 17 23
REMARK SMILES IDX 13 24 16 25 14 26 15 27
REMARK H PARENT 10 20
ROOT
ATOM      1  C   UNL     1     -20.296   3.520   3.267  1.00  0.00     0.024 C 
ENDROOT
BRANCH   1   2
ATOM      2  C   UNL     1     -19.061   3.037   2.548  1.00  0.00     0.082 C 
BRANCH   2   3
ATOM      3  C   UNL     1     -18.167   2.209   3.391  1.00  0.00     0.162 C 
ATOM      4  O   UNL     1     -17.012   1.914   2.998  1.00  0.00    -0.294 OA
BRANCH   3   5
ATOM      5  C   UNL     1     -18.584   1.707   4.697  1.00  0.00     0.018 A 
ATOM      6  C   UNL     1     -18.327   2.470   5.834  1.00  0.00     0.015 A 
ATOM      7  C   UNL     1     -19.215   0.512   4.820  1.00  0.00     0.015 A 
ATOM      8  C   UNL     1     -18.728   1.982   7.058  1.00  0.00     0.040 A 
ATOM      9  C   UNL     1     -19.605   0.045   6.061  1.00  0.00     0.040 A 
ATOM     10  C   UNL     1     -19.373   0.766   7.213  1.00  0.00     0.123 A 
ATOM     11  F   UNL     1     -19.751   0.320   8.438  1.00  0.00    -0.207 F 
ENDBRANCH   3   5
ENDBRANCH   2   3
ENDBRANCH   1   2
BRANCH   1  12
ATOM     12  C   UNL     1     -20.176   4.815   3.951  1.00  0.00     0.085 C 
BRANCH  12  13
ATOM     13  N   UNL     1     -21.149   5.133   4.909  1.00  0.00    -0.303 NA
ATOM     14  C   UNL     1     -22.059   4.105   5.242  1.00  0.00     0.088 C 
ATOM     15  C   UNL     1     -21.697   6.427   4.949  1.00  0.00     0.088 C 
ATOM     16  C   UNL     1     -23.154   4.636   6.143  1.00  0.00     0.056 C 
ATOM     17  C   UNL     1     -22.007   6.790   6.398  1.00  0.00     0.056 C 
ATOM     18  C   UNL     1     -22.495   5.579   7.131  1.00  0.00     0.092 C 
BRANCH  18  19
ATOM     19  O   UNL     1     -21.339   4.876   7.569  1.00  0.00    -0.385 OA
ATOM     20  H   UNL     1     -21.003   5.390   8.341  1.00  0.00     0.211 HD
ENDBRANCH  18  19
BRANCH  18  21
ATOM     21  C   UNL     1     -23.377   5.869   8.288  1.00  0.00    -0.016 A 
ATOM     22  C   UNL     1     -23.565   7.198   8.687  1.00  0.00     0.008 A 
ATOM     23  C   UNL     1     -24.034   4.918   9.024  1.00  0.00     0.008 A 
ATOM     24  C   UNL     1     -24.364   7.538   9.756  1.00  0.00     0.021 A 
ATOM     25  C   UNL     1     -24.847   5.262  10.112  1.00  0.00     0.021 A 
ATOM     26  C   UNL     1     -25.019   6.573  10.488  1.00  0.00     0.041 A 
ATOM     27  Cl  UNL     1     -26.045   7.010  11.861  1.00  0.00    -0.084 Cl
ENDBRANCH  18  21
ENDBRANCH  12  13
ENDBRANCH   1  12
TORSDOF 7
ENDMDL
MODEL 2
REMARK VINA RESULT:      -6.9      1.187      1.948
REMARK SMILES O=C(CCCN1CCC(O)(c2ccc(Cl)cc2)CC1)c1ccc(F)cc1
REMARK SMILES IDX 4 1 3 2 2 3 1 4 20 5 21 6 26 7 22 8 25 9 23 10 24 11 5 12
REMARK SMILES IDX 6 13 7 14 19 15 8 16 18 17 9 18 10 19 11 21 12 22 17 23
REMARK SMILES IDX 13 24 16 25 14 26 15 27
REMARK H PARENT 10 20
ROOT
ATOM      1  C   UNL     1     -19.495   3.542   1.983  1.00  0.00     0.024 C 
ENDROOT
BRANCH   1   2
ATOM      2  C   UNL     1     -19.155   2.108   2.308  1.00  0.00     0.082 C 
BRANCH   2   3
ATOM      3  C   UNL     1     -18.196   1.963   3.427  1.00  0.00     0.162 C 
ATOM      4  O   UNL     1     -16.973   2.186   3.253  1.00  0.00    -0.294 OA
BRANCH   3   5
ATOM      5  C   UNL     1     -18.625   1.559   4.764  1.00  0.00     0.018 A 
ATOM      6  C   UNL     1     -19.238   0.321   4.937  1.00  0.00     0.015 A 
ATOM      7  C   UNL     1     -18.434   2.369   5.836  1.00  0.00     0.015 A 
ATOM      8  C   UNL     1     -19.635  -0.045   6.205  1.00  0.00     0.040 A 
ATOM      9  C   UNL     1     -18.844   1.978   7.097  1.00  0.00     0.040 A 
ATOM     10  C   UNL     1     -19.454   0.761   7.316  1.00  0.00     0.123 A 
ATOM     11  F   UNL     1     -19.861   0.364   8.548  1.00  0.00    -0.207 F 
ENDBRANCH   3   5
ENDBRANCH   2   3
ENDBRANCH   1   2
BRANCH   1  12
ATOM     12  C   UNL     1     -20.900   3.926   2.167  1.00  0.00     0.085 C 
BRANCH  12  13
ATOM     13  N   UNL     1     -21.308   4.293   3.458  1.00  0.00    -0.303 NA
ATOM     14  C   UNL     1     -20.562   5.320   4.081  1.00  0.00     0.088 C 
ATOM     15  C   UNL     1     -21.800   3.318   4.341  1.00  0.00     0.088 C 
ATOM     16  C   UNL     1     -20.992   5.487   5.523  1.00  0.00     0.056 C 
ATOM     17  C   UNL     1     -22.876   3.945   5.223  1.00  0.00     0.056 C 
ATOM     18  C   UNL     1     -22.502   5.357   5.554  1.00  0.00     0.092 C 
BRANCH  18  19
ATOM     19  O   UNL     1     -22.945   6.159   4.465  1.00  0.00    -0.385 OA
ATOM     20  H   UNL     1     -23.537   6.835   4.869  1.00  0.00     0.211 HD
ENDBRANCH  18  19
BRANCH  18  21
ATOM     21  C   UNL     1     -23.073   5.869   6.822  1.00  0.00    -0.016 A 
ATOM     22  C   UNL     1     -22.897   7.218   7.155  1.00  0.00     0.008 A 
ATOM     23  C   UNL     1     -23.772   5.110   7.725  1.00  0.00     0.008 A 
ATOM     24  C   UNL     1     -23.395   7.758   8.320  1.00  0.00     0.021 A 
ATOM     25  C   UNL     1     -24.279   5.658   8.911  1.00  0.00     0.021 A 
ATOM     26  C   UNL     1     -24.095   6.985   9.219  1.00  0.00     0.041 A 
ATOM     27  Cl  UNL     1     -24.735   7.679  10.715  1.00  0.00    -0.084 Cl
ENDBRANCH  18  21
ENDBRANCH  12  13
ENDBRANCH   1  12
TORSDOF 7
ENDMDL
MODEL 3
REMARK VINA RESULT:      -6.5      1.353      2.129
REMARK SMILES O=C(CCCN1CCC(O)(c2ccc(Cl)cc2)CC1)c1ccc(F)cc1
REMARK SMILES IDX 4 1 3 2 2 3 1 4 20 5 21 6 26 7 22 8 25 9 23 10 24 11 5 12
REMARK SMILES IDX 6 13 7 14 19 15 8 16 18 17 9 18 10 19 11 21 12 22 17 23
REMARK SMILES IDX 13 24 16 25 14 26 15 27
REMARK H PARENT 10 20
ROOT
ATOM      1  C   UNL     1     -19.630   1.890   2.446  1.00  0.00     0.024 C 
ENDROOT
BRANCH   1   2
ATOM      2  C   UNL     1     -18.152   1.878   2.746  1.00  0.00     0.082 C 
BRANCH   2   3
ATOM      3  C   UNL     1     -17.813   2.396   4.092  1.00  0.00     0.162 C 
ATOM      4  O   UNL     1     -16.972   3.318   4.228  1.00  0.00    -0.294 OA
BRANCH   3   5
ATOM      5  C   UNL     1     -18.434   1.865   5.303  1.00  0.00     0.018 A 
ATOM      6  C   UNL     1     -19.012   0.598   5.272  1.00  0.00     0.015 A 
ATOM      7  C   UNL     1     -18.456   2.584   6.453  1.00  0.00     0.015 A 
ATOM      8  C   UNL     1     -19.593   0.112   6.423  1.00  0.00     0.040 A 
ATOM      9  C   UNL     1     -19.046   2.073   7.593  1.00  0.00     0.040 A 
ATOM     10  C   UNL     1     -19.630   0.824   7.610  1.00  0.00     0.123 A 
ATOM     11  F   UNL     1     -20.213   0.309   8.722  1.00  0.00    -0.207 F 
ENDBRANCH   3   5
ENDBRANCH   2   3
ENDBRANCH   1   2
BRANCH   1  12
ATOM     12  C   UNL     1     -20.198   3.190   2.066  1.00  0.00     0.085 C 
BRANCH  12  13
ATOM     13  N   UNL     1     -20.905   3.900   3.047  1.00  0.00    -0.303 NA
ATOM     14  C   UNL     1     -22.303   3.996   2.864  1.00  0.00     0.088 C 
ATOM     15  C   UNL     1     -20.322   5.025   3.655  1.00  0.00     0.088 C 
ATOM     16  C   UNL     1     -22.909   4.933   3.887  1.00  0.00     0.056 C 
ATOM     17  C   UNL     1     -20.787   5.102   5.106  1.00  0.00     0.056 C 
ATOM     18  C   UNL     1     -22.214   4.658   5.206  1.00  0.00     0.092 C 
BRANCH  18  19
ATOM     19  O   UNL     1     -22.191   3.239   5.301  1.00  0.00    -0.385 OA
ATOM     20  H   UNL     1     -21.460   2.953   4.704  1.00  0.00     0.211 HD
ENDBRANCH  18  19
BRANCH  18  21
ATOM     21  C   UNL     1     -22.961   5.228   6.352  1.00  0.00    -0.016 A 
ATOM     22  C   UNL     1     -22.250   5.806   7.412  1.00  0.00     0.008 A 
ATOM     23  C   UNL     1     -24.327   5.230   6.470  1.00  0.00     0.008 A 
ATOM     24  C   UNL     1     -22.879   6.348   8.510  1.00  0.00     0.021 A 
ATOM     25  C   UNL     1     -24.969   5.780   7.587  1.00  0.00     0.021 A 
ATOM     26  C   UNL     1     -24.252   6.343   8.616  1.00  0.00     0.041 A 
ATOM     27  Cl  UNL     1     -25.061   7.039  10.027  1.00  0.00    -0.084 Cl
ENDBRANCH  18  21
ENDBRANCH  12  13
ENDBRANCH   1  12
TORSDOF 7
ENDMDL
MODEL 4
REMARK VINA RESULT:      -6.5      1.048      1.537
REMARK SMILES O=C(CCCN1CCC(O)(c2ccc(Cl)cc2)CC1)c1ccc(F)cc1
REMARK SMILES IDX 4 1 3 2 2 3 1 4 20 5 21 6 26 7 22 8 25 9 23 10 24 11 5 12
REMARK SMILES IDX 6 13 7 14 19 15 8 16 18 17 9 18 10 19 11 21 12 22 17 23
REMARK SMILES IDX 13 24 16 25 14 26 15 27
REMARK H PARENT 10 20
ROOT
ATOM      1  C   UNL     1     -20.695   4.251   3.126  1.00  0.00     0.024 C 
ENDROOT
BRANCH   1   2
ATOM      2  C   UNL     1     -19.288   3.729   3.279  1.00  0.00     0.082 C 
BRANCH   2   3
ATOM      3  C   UNL     1     -19.221   2.279   3.575  1.00  0.00     0.162 C 
ATOM      4  O   UNL     1     -19.054   1.446   2.650  1.00  0.00    -0.294 OA
BRANCH   3   5
ATOM      5  C   UNL     1     -19.344   1.761   4.935  1.00  0.00     0.018 A 
ATOM      6  C   UNL     1     -19.872   0.488   5.133  1.00  0.00     0.015 A 
ATOM      7  C   UNL     1     -18.952   2.499   6.004  1.00  0.00     0.015 A 
ATOM      8  C   UNL     1     -19.981   0.014   6.423  1.00  0.00     0.040 A 
ATOM      9  C   UNL     1     -19.073   2.000   7.288  1.00  0.00     0.040 A 
ATOM     10  C   UNL     1     -19.589   0.745   7.532  1.00  0.00     0.123 A 
ATOM     11  F   UNL     1     -19.714   0.243   8.786  1.00  0.00    -0.207 F 
ENDBRANCH   3   5
ENDBRANCH   2   3
ENDBRANCH   1   2
BRANCH   1  12
ATOM     12  C   UNL     1     -20.986   5.523   3.800  1.00  0.00     0.085 C 
BRANCH  12  13
ATOM     13  N   UNL     1     -21.680   5.467   5.017  1.00  0.00    -0.303 NA
ATOM     14  C   UNL     1     -20.890   5.465   6.188  1.00  0.00     0.088 C 
ATOM     15  C   UNL     1     -22.862   4.714   5.115  1.00  0.00     0.088 C 
ATOM     16  C   UNL     1     -21.751   5.221   7.409  1.00  0.00     0.056 C 
ATOM     17  C   UNL     1     -23.812   5.405   6.090  1.00  0.00     0.056 C 
ATOM     18  C   UNL     1     -23.030   6.011   7.215  1.00  0.00     0.092 C 
BRANCH  18  19
ATOM     19  O   UNL     1     -22.589   7.285   6.761  1.00  0.00    -0.385 OA
ATOM     20  H   UNL     1     -21.623   7.308   6.960  1.00  0.00     0.211 HD
ENDBRANCH  18  19
BRANCH  18  21
ATOM     21  C   UNL     1     -23.784   6.161   8.482  1.00  0.00    -0.016 A 
ATOM     22  C   UNL     1     -23.983   7.443   9.011  1.00  0.00     0.008 A 
ATOM     23  C   UNL     1     -24.310   5.121   9.204  1.00  0.00     0.008 A 
ATOM     24  C   UNL     1     -24.667   7.654  10.188  1.00  0.00     0.021 A 
ATOM     25  C   UNL     1     -25.005   5.334  10.402  1.00  0.00     0.021 A 
ATOM     26  C   UNL     1     -25.190   6.601  10.904  1.00  0.00     0.041 A 
ATOM     27  Cl  UNL     1     -26.070   6.872  12.415  1.00  0.00    -0.084 Cl
ENDBRANCH  18  21
ENDBRANCH  12  13
ENDBRANCH   1  12
TORSDOF 7
ENDMDL
MODEL 5
REMARK VINA RESULT:      -6.5      2.790      4.179
REMARK SMILES O=C(CCCN1CCC(O)(c2ccc(Cl)cc2)CC1)c1ccc(F)cc1
REMARK SMILES IDX 4 1 3 2 2 3 1 4 20 5 21 6 26 7 22 8 25 9 23 10 24 11 5 12
REMARK SMILES IDX 6 13 7 14 19 15 8 16 18 17 9 18 10 19 11 21 12 22 17 23
REMARK SMILES IDX 13 24 16 25 14 26 15 27
REMARK H PARENT 10 20
ROOT
ATOM      1  C   UNL     1     -19.206   0.862   5.705  1.00  0.00     0.024 C 
ENDROOT
BRANCH   1   2
ATOM      2  C   UNL     1     -18.724   0.597   4.300  1.00  0.00     0.082 C 
BRANCH   2   3
ATOM      3  C   UNL     1     -18.224   1.807   3.605  1.00  0.00     0.162 C 
ATOM      4  O   UNL     1     -17.255   2.456   4.070  1.00  0.00    -0.294 OA
BRANCH   3   5
ATOM      5  C   UNL     1     -18.829   2.291   2.366  1.00  0.00     0.018 A 
ATOM      6  C   UNL     1     -18.337   3.454   1.778  1.00  0.00     0.015 A 
ATOM      7  C   UNL     1     -19.857   1.627   1.781  1.00  0.00     0.015 A 
ATOM      8  C   UNL     1     -18.918   3.896   0.610  1.00  0.00     0.040 A 
ATOM      9  C   UNL     1     -20.422   2.093   0.609  1.00  0.00     0.040 A 
ATOM     10  C   UNL     1     -19.968   3.238  -0.008  1.00  0.00     0.123 A 
ATOM     11  F   UNL     1     -20.514   3.708  -1.159  1.00  0.00    -0.207 F 
ENDBRANCH   3   5
ENDBRANCH   2   3
ENDBRANCH   1   2
BRANCH   1  12
ATOM     12  C   UNL     1     -20.598   1.314   5.832  1.00  0.00     0.085 C 
BRANCH  12  13
ATOM     13  N   UNL     1     -20.814   2.664   6.145  1.00  0.00    -0.303 NA
ATOM     14  C   UNL     1     -21.160   3.508   5.066  1.00  0.00     0.088 C 
ATOM     15  C   UNL     1     -20.042   3.285   7.141  1.00  0.00     0.088 C 
ATOM     16  C   UNL     1     -21.186   4.955   5.511  1.00  0.00     0.056 C 
ATOM     17  C   UNL     1     -20.902   4.318   7.863  1.00  0.00     0.056 C 
ATOM     18  C   UNL     1     -21.822   4.984   6.887  1.00  0.00     0.092 C 
BRANCH  18  19
ATOM     19  O   UNL     1     -22.961   4.141   6.764  1.00  0.00    -0.385 OA
ATOM     20  H   UNL     1     -22.676   3.409   6.166  1.00  0.00     0.211 HD
ENDBRANCH  18  19
BRANCH  18  21
ATOM     21  C   UNL     1     -22.246   6.352   7.269  1.00  0.00    -0.016 A 
ATOM     22  C   UNL     1     -21.631   7.453   6.659  1.00  0.00     0.008 A 
ATOM     23  C   UNL     1     -23.211   6.638   8.199  1.00  0.00     0.008 A 
ATOM     24  C   UNL     1     -21.971   8.750   6.971  1.00  0.00     0.021 A 
ATOM     25  C   UNL     1     -23.557   7.957   8.519  1.00  0.00     0.021 A 
ATOM     26  C   UNL     1     -22.942   9.024   7.909  1.00  0.00     0.041 A 
ATOM     27  Cl  UNL     1     -23.379  10.691   8.310  1.00  0.00    -0.084 Cl
ENDBRANCH  18  21
ENDBRANCH  12  13
ENDBRANCH   1  12
TORSDOF 7
ENDMDL
MODEL 6
REMARK VINA RESULT:      -6.5      1.345      1.648
REMARK SMILES O=C(CCCN1CCC(O)(c2ccc(Cl)cc2)CC1)c1ccc(F)cc1
REMARK SMILES IDX 4 1 3 2 2 3 1 4 20 5 21 6 26 7 22 8 25 9 23 10 24 11 5 12
REMARK SMILES IDX 6 13 7 14 19 15 8 16 18 17 9 18 10 19 11 21 12 22 17 23
REMARK SMILES IDX 13 24 16 25 14 26 15 27
REMARK H PARENT 10 20
ROOT
ATOM      1  C   UNL     1     -20.253   3.983   3.542  1.00  0.00     0.024 C 
ENDROOT
BRANCH   1   2
ATOM      2  C   UNL     1     -19.501   2.907   2.798  1.00  0.00     0.082 C 
BRANCH   2   3
ATOM      3  C   UNL     1     -18.531   2.169   3.640  1.00  0.00     0.162 C 
ATOM      4  O   UNL     1     -17.366   1.948   3.227  1.00  0.00    -0.294 OA
BRANCH   3   5
ATOM      5  C   UNL     1     -18.882   1.671   4.968  1.00  0.00     0.018 A 
ATOM      6  C   UNL     1     -18.548   2.429   6.088  1.00  0.00     0.015 A 
ATOM      7  C   UNL     1     -19.525   0.487   5.126  1.00  0.00     0.015 A 
ATOM      8  C   UNL     1     -18.887   1.946   7.333  1.00  0.00     0.040 A 
ATOM      9  C   UNL     1     -19.852   0.025   6.387  1.00  0.00     0.040 A 
ATOM     10  C   UNL     1     -19.543   0.741   7.523  1.00  0.00     0.123 A 
ATOM     11  F   UNL     1     -19.857   0.300   8.768  1.00  0.00    -0.207 F 
ENDBRANCH   3   5
ENDBRANCH   2   3
ENDBRANCH   1   2
BRANCH   1  12
ATOM     12  C   UNL     1     -21.622   3.645   3.952  1.00  0.00     0.085 C 
BRANCH  12  13
ATOM     13  N   UNL     1     -22.223   4.451   4.928  1.00  0.00    -0.303 NA
ATOM     14  C   UNL     1     -22.080   4.023   6.268  1.00  0.00     0.088 C 
ATOM     15  C   UNL     1     -23.442   5.094   4.653  1.00  0.00     0.088 C 
ATOM     16  C   UNL     1     -22.923   4.878   7.190  1.00  0.00     0.056 C 
ATOM     17  C   UNL     1     -23.469   6.437   5.377  1.00  0.00     0.056 C 
ATOM     18  C   UNL     1     -22.795   6.309   6.708  1.00  0.00     0.092 C 
BRANCH  18  19
ATOM     19  O   UNL     1     -21.402   6.478   6.475  1.00  0.00    -0.385 OA
ATOM     20  H   UNL     1     -21.096   5.613   6.113  1.00  0.00     0.211 HD
ENDBRANCH  18  19
BRANCH  18  21
ATOM     21  C   UNL     1     -23.256   7.279   7.731  1.00  0.00    -0.016 A 
ATOM     22  C   UNL     1     -22.981   8.641   7.554  1.00  0.00     0.008 A 
ATOM     23  C   UNL     1     -23.939   6.944   8.871  1.00  0.00     0.008 A 
ATOM     24  C   UNL     1     -23.373   9.594   8.467  1.00  0.00     0.021 A 
ATOM     25  C   UNL     1     -24.338   7.912   9.802  1.00  0.00     0.021 A 
ATOM     26  C   UNL     1     -24.059   9.244   9.609  1.00  0.00     0.041 A 
ATOM     27  Cl  UNL     1     -24.563  10.469  10.782  1.00  0.00    -0.084 Cl
ENDBRANCH  18  21
ENDBRANCH  12  13
ENDBRANCH   1  12
TORSDOF 7
ENDMDL
MODEL 7
REMARK VINA RESULT:      -6.4      2.426      3.445
REMARK SMILES O=C(CCCN1CCC(O)(c2ccc(Cl)cc2)CC1)c1ccc(F)cc1
REMARK SMILES IDX 4 1 3 2 2 3 1 4 20 5 21 6 26 7 22 8 25 9 23 10 24 11 5 12
REMARK SMILES IDX 6 13 7 14 19 15 8 16 18 17 9 18 10 19 11 21 12 22 17 23
REMARK SMILES IDX 13 24 16 25 14 26 15 27
REMARK H PARENT 10 20
ROOT
ATOM      1  C   UNL     1     -20.165   3.000   6.101  1.00  0.00     0.024 C 
ENDROOT
BRANCH   1   2
ATOM      2  C   UNL     1     -20.672   1.765   5.398  1.00  0.00     0.082 C 
BRANCH   2   3
ATOM      3  C   UNL     1     -19.601   0.962   4.763  1.00  0.00     0.162 C 
ATOM      4  O   UNL     1     -19.211  -0.110   5.288  1.00  0.00    -0.294 OA
BRANCH   3   5
ATOM      5  C   UNL     1     -18.961   1.374   3.516  1.00  0.00     0.018 A 
ATOM      6  C   UNL     1     -19.694   1.343   2.332  1.00  0.00     0.015 A 
ATOM      7  C   UNL     1     -17.669   1.787   3.494  1.00  0.00     0.015 A 
ATOM      8  C   UNL     1     -19.076   1.736   1.165  1.00  0.00     0.040 A 
ATOM      9  C   UNL     1     -17.072   2.175   2.310  1.00  0.00     0.040 A 
ATOM     10  C   UNL     1     -17.758   2.161   1.114  1.00  0.00     0.123 A 
ATOM     11  F   UNL     1     -17.186   2.539  -0.056  1.00  0.00    -0.207 F 
ENDBRANCH   3   5
ENDBRANCH   2   3
ENDBRANCH   1   2
BRANCH   1  12
ATOM     12  C   UNL     1     -20.686   4.281   5.606  1.00  0.00     0.085 C 
BRANCH  12  13
ATOM     13  N   UNL     1     -21.729   4.878   6.329  1.00  0.00    -0.303 NA
ATOM     14  C   UNL     1     -23.033   4.414   6.045  1.00  0.00     0.088 C 
ATOM     15  C   UNL     1     -21.660   6.242   6.660  1.00  0.00     0.088 C 
ATOM     16  C   UNL     1     -24.065   5.263   6.757  1.00  0.00     0.056 C 
ATOM     17  C   UNL     1     -22.331   6.459   8.014  1.00  0.00     0.056 C 
ATOM     18  C   UNL     1     -23.520   5.557   8.140  1.00  0.00     0.092 C 
BRANCH  18  19
ATOM     19  O   UNL     1     -23.030   4.302   8.598  1.00  0.00    -0.385 OA
ATOM     20  H   UNL     1     -23.367   3.643   7.947  1.00  0.00     0.211 HD
ENDBRANCH  18  19
BRANCH  18  21
ATOM     21  C   UNL     1     -24.576   6.050   9.056  1.00  0.00    -0.016 A 
ATOM     22  C   UNL     1     -25.782   5.342   9.151  1.00  0.00     0.008 A 
ATOM     23  C   UNL     1     -24.474   7.175   9.831  1.00  0.00     0.008 A 
ATOM     24  C   UNL     1     -26.808   5.748   9.976  1.00  0.00     0.021 A 
ATOM     25  C   UNL     1     -25.517   7.589  10.670  1.00  0.00     0.021 A 
ATOM     26  C   UNL     1     -26.692   6.880  10.750  1.00  0.00     0.041 A 
ATOM     27  Cl  UNL     1     -28.010   7.400  11.810  1.00  0.00    -0.084 Cl
ENDBRANCH  18  21
ENDBRANCH  12  13
ENDBRANCH   1  12
TORSDOF 7
ENDMDL
MODEL 8
REMARK VINA RESULT:      -6.3      2.420      3.596
REMARK SMILES O=C(CCCN1CCC(O)(c2ccc(Cl)cc2)CC1)c1ccc(F)cc1
REMARK SMILES IDX 4 1 3 2 2 3 1 4 20 5 21 6 26 7 22 8 25 9 23 10 24 11 5 12
REMARK SMILES IDX 6 13 7 14 19 15 8 16 18 17 9 18 10 19 11 21 12 22 17 23
REMARK SMILES IDX 13 24 16 25 14 26 15 27
REMARK H PARENT 10 20
ROOT
ATOM      1  C   UNL     1     -18.374   1.784   5.710  1.00  0.00     0.024 C 
ENDROOT
BRANCH   1   2
ATOM      2  C   UNL     1     -18.714   0.991   4.472  1.00  0.00     0.082 C 
BRANCH   2   3
ATOM      3  C   UNL     1     -18.444   1.716   3.209  1.00  0.00     0.162 C 
ATOM      4  O   UNL     1     -17.271   2.032   2.892  1.00  0.00    -0.294 OA
BRANCH   3   5
ATOM      5  C   UNL     1     -19.515   2.090   2.288  1.00  0.00     0.018 A 
ATOM      6  C   UNL     1     -20.130   3.331   2.429  1.00  0.00     0.015 A 
ATOM      7  C   UNL     1     -19.918   1.249   1.302  1.00  0.00     0.015 A 
ATOM      8  C   UNL     1     -21.138   3.669   1.552  1.00  0.00     0.040 A 
ATOM      9  C   UNL     1     -20.932   1.612   0.437  1.00  0.00     0.040 A 
ATOM     10  C   UNL     1     -21.569   2.831   0.538  1.00  0.00     0.123 A 
ATOM     11  F   UNL     1     -22.567   3.201  -0.305  1.00  0.00    -0.207 F 
ENDBRANCH   3   5
ENDBRANCH   2   3
ENDBRANCH   1   2
BRANCH   1  12
ATOM     12  C   UNL     1     -18.729   3.208   5.678  1.00  0.00     0.085 C 
BRANCH  12  13
ATOM     13  N   UNL     1     -19.888   3.601   6.363  1.00  0.00    -0.303 NA
ATOM     14  C   UNL     1     -19.848   3.497   7.772  1.00  0.00     0.088 C 
ATOM     15  C   UNL     1     -21.152   3.355   5.800  1.00  0.00     0.088 C 
ATOM     16  C   UNL     1     -21.213   3.779   8.364  1.00  0.00     0.056 C 
ATOM     17  C   UNL     1     -22.097   4.489   6.188  1.00  0.00     0.056 C 
ATOM     18  C   UNL     1     -21.802   4.939   7.586  1.00  0.00     0.092 C 
BRANCH  18  19
ATOM     19  O   UNL     1     -20.737   5.876   7.493  1.00  0.00    -0.385 OA
ATOM     20  H   UNL     1     -20.758   6.374   8.345  1.00  0.00     0.211 HD
ENDBRANCH  18  19
BRANCH  18  21
ATOM     21  C   UNL     1     -22.952   5.551   8.295  1.00  0.00    -0.016 A 
ATOM     22  C   UNL     1     -23.065   6.947   8.334  1.00  0.00     0.008 A 
ATOM     23  C   UNL     1     -23.934   4.847   8.941  1.00  0.00     0.008 A 
ATOM     24  C   UNL     1     -24.103   7.581   8.980  1.00  0.00     0.021 A 
ATOM     25  C   UNL     1     -24.990   5.491   9.599  1.00  0.00     0.021 A 
ATOM     26  C   UNL     1     -25.084   6.862   9.626  1.00  0.00     0.041 A 
ATOM     27  Cl  UNL     1     -26.417   7.677  10.456  1.00  0.00    -0.084 Cl
ENDBRANCH  18  21
ENDBRANCH  12  13
ENDBRANCH   1  12
TORSDOF 7
ENDMDL
MODEL 9
REMARK VINA RESULT:      -6.3      2.414      2.933
REMARK SMILES O=C(CCCN1CCC(O)(c2ccc(Cl)cc2)CC1)c1ccc(F)cc1
REMARK SMILES IDX 4 1 3 2 2 3 1 4 20 5 21 6 26 7 22 8 25 9 23 10 24 11 5 12
REMARK SMILES IDX 6 13 7 14 19 15 8 16 18 17 9 18 10 19 11 21 12 22 17 23
REMARK SMILES IDX 13 24 16 25 14 26 15 27
REMARK H PARENT 10 20
ROOT
ATOM      1  C   UNL     1     -20.276   2.222   2.038  1.00  0.00     0.024 C 
ENDROOT
BRANCH   1   2
ATOM      2  C   UNL     1     -18.896   1.613   2.026  1.00  0.00     0.082 C 
BRANCH   2   3
ATOM      3  C   UNL     1     -18.095   1.931   3.231  1.00  0.00     0.162 C 
ATOM      4  O   UNL     1     -17.016   2.565   3.131  1.00  0.00    -0.294 OA
BRANCH   3   5
ATOM      5  C   UNL     1     -18.519   1.528   4.570  1.00  0.00     0.018 A 
ATOM      6  C   UNL     1     -18.283   2.382   5.645  1.00  0.00     0.015 A 
ATOM      7  C   UNL     1     -19.138   0.339   4.781  1.00  0.00     0.015 A 
ATOM      8  C   UNL     1     -18.690   1.986   6.900  1.00  0.00     0.040 A 
ATOM      9  C   UNL     1     -19.535  -0.034   6.051  1.00  0.00     0.040 A 
ATOM     10  C   UNL     1     -19.323   0.779   7.144  1.00  0.00     0.123 A 
ATOM     11  F   UNL     1     -19.707   0.426   8.397  1.00  0.00    -0.207 F 
ENDBRANCH   3   5
ENDBRANCH   2   3
ENDBRANCH   1   2
BRANCH   1  12
ATOM     12  C   UNL     1     -20.335   3.676   2.235  1.00  0.00     0.085 C 
BRANCH  12  13
ATOM     13  N   UNL     1     -21.313   4.172   3.110  1.00  0.00    -0.303 NA
ATOM     14  C   UNL     1     -21.785   5.477   2.846  1.00  0.00     0.088 C 
ATOM     15  C   UNL     1     -21.265   3.839   4.475  1.00  0.00     0.088 C 
ATOM     16  C   UNL     1     -22.693   5.949   3.961  1.00  0.00     0.056 C 
ATOM     17  C   UNL     1     -22.691   3.731   5.009  1.00  0.00     0.056 C 
ATOM     18  C   UNL     1     -23.555   4.768   4.361  1.00  0.00     0.092 C 
BRANCH  18  19
ATOM     19  O   UNL     1     -23.990   4.218   3.124  1.00  0.00    -0.385 OA
ATOM     20  H   UNL     1     -23.239   3.659   2.812  1.00  0.00     0.211 HD
ENDBRANCH  18  19
BRANCH  18  21
ATOM     21  C   UNL     1     -24.727   5.189   5.166  1.00  0.00    -0.016 A 
ATOM     22  C   UNL     1     -25.917   4.456   5.073  1.00  0.00     0.008 A 
ATOM     23  C   UNL     1     -24.747   6.268   6.010  1.00  0.00     0.008 A 
ATOM     24  C   UNL     1     -27.046   4.794   5.787  1.00  0.00     0.021 A 
ATOM     25  C   UNL     1     -25.894   6.614   6.736  1.00  0.00     0.021 A 
ATOM     26  C   UNL     1     -27.052   5.882   6.631  1.00  0.00     0.041 A 
ATOM     27  Cl  UNL     1     -28.502   6.317   7.548  1.00  0.00    -0.084 Cl
ENDBRANCH  18  21
ENDBRANCH  12  13
ENDBRANCH   1  12
TORSDOF 7
ENDMDL
