MODEL 1
REMARK VINA RESULT:      -5.7      0.000      0.000
REMARK SMILES Clc1ccc(COC(Cn2ccnc2)c2ccc(Cl)cc2Cl)c(Cl)c1
REMARK SMILES IDX 7 1 6 2 5 3 2 4 3 5 25 6 4 7 23 8 1 9 24 10 8 11 9 12 10 13
REMARK SMILES IDX 11 14 14 15 12 16 13 17 15 18 16 19 21 20 17 21 20 22 18 23
REMARK SMILES IDX 22 24 19 25
REMARK H PARENT
ROOT
ATOM      1  O   UNL     1      24.281  16.825   1.124  1.00  0.00    -0.367 OA
ENDROOT
BRANCH   1   2
ATOM      2  C   UNL     1      23.956  17.701   0.160  1.00  0.00     0.198 C 
BRANCH   2   3
ATOM      3  C   UNL     1      24.459  17.344  -1.185  1.00  0.00    -0.004 A 
ATOM      4  C   UNL     1      25.196  16.453  -3.777  1.00  0.00     0.042 A 
ATOM      5  C   UNL     1      23.878  16.470  -3.356  1.00  0.00     0.021 A 
ATOM      6  C   UNL     1      26.131  16.891  -2.871  1.00  0.00     0.041 A 
ATOM      7  C   UNL     1      23.498  16.897  -2.106  1.00  0.00     0.009 A 
ATOM      8  C   UNL     1      25.757  17.331  -1.592  1.00  0.00     0.048 A 
ATOM      9  Cl  UNL     1      25.655  15.894  -5.379  1.00  0.00    -0.084 Cl
ATOM     10  Cl  UNL     1      26.990  17.975  -0.511  1.00  0.00    -0.084 Cl
ENDBRANCH   2   3
ENDBRANCH   1   2
BRANCH   1  11
ATOM     11  C   UNL     1      23.603  15.776   1.546  1.00  0.00     0.170 C 
BRANCH  11  12
ATOM     12  C   UNL     1      24.568  14.565   1.520  1.00  0.00     0.160 C 
BRANCH  12  13
ATOM     13  N   UNL     1      24.588  14.030   0.194  1.00  0.00    -0.335 N 
ATOM     14  C   UNL     1      25.655  13.828  -0.596  1.00  0.00     0.107 A 
ATOM     15  C   UNL     1      23.478  13.644  -0.466  1.00  0.00     0.199 A 
ATOM     16  C   UNL     1      25.156  13.302  -1.769  1.00  0.00     0.130 A 
ATOM     17  N   UNL     1      23.821  13.199  -1.666  1.00  0.00    -0.245 NA
ENDBRANCH  12  13
ENDBRANCH  11  12
BRANCH  11  18
ATOM     18  C   UNL     1      23.117  15.929   2.976  1.00  0.00     0.001 A 
ATOM     19  C   UNL     1      23.676  16.849   3.831  1.00  0.00     0.009 A 
ATOM     20  C   UNL     1      22.100  15.134   3.440  1.00  0.00     0.048 A 
ATOM     21  C   UNL     1      23.205  16.959   5.147  1.00  0.00     0.021 A 
ATOM     22  C   UNL     1      21.623  15.236   4.745  1.00  0.00     0.041 A 
ATOM     23  C   UNL     1      22.184  16.161   5.607  1.00  0.00     0.042 A 
ATOM     24  Cl  UNL     1      21.401  13.966   2.334  1.00  0.00    -0.084 Cl
ATOM     25  Cl  UNL     1      21.593  16.294   7.256  1.00  0.00    -0.084 Cl
ENDBRANCH  11  18
ENDBRANCH   1  11
TORSDOF 6
ENDMDL
MODEL 2
REMARK VINA RESULT:      -5.6      2.260      7.402
REMARK SMILES Clc1ccc(COC(Cn2ccnc2)c2ccc(Cl)cc2Cl)c(Cl)c1
REMARK SMILES IDX 7 1 6 2 5 3 2 4 3 5 25 6 4 7 23 8 1 9 24 10 8 11 9 12 10 13
REMARK SMILES IDX 11 14 14 15 12 16 13 17 15 18 16 19 21 20 17 21 20 22 18 23
REMARK SMILES IDX 22 24 19 25
REMARK H PARENT
ROOT
ATOM      1  O   UNL     1      22.621  14.720   2.226  1.00  0.00    -0.367 OA
ENDROOT
BRANCH   1   2
ATOM      2  C   UNL     1      21.597  15.340   2.834  1.00  0.00     0.198 C 
BRANCH   2   3
ATOM      3  C   UNL     1      21.700  15.387   4.309  1.00  0.00    -0.004 A 
ATOM      4  C   UNL     1      22.112  15.693   7.101  1.00  0.00     0.042 A 
ATOM      5  C   UNL     1      22.242  16.753   6.221  1.00  0.00     0.021 A 
ATOM      6  C   UNL     1      21.772  14.481   6.550  1.00  0.00     0.041 A 
ATOM      7  C   UNL     1      22.048  16.628   4.866  1.00  0.00     0.009 A 
ATOM      8  C   UNL     1      21.569  14.339   5.169  1.00  0.00     0.048 A 
ATOM      9  Cl  UNL     1      22.375  15.880   8.829  1.00  0.00    -0.084 Cl
ATOM     10  Cl  UNL     1      21.037  12.785   4.534  1.00  0.00    -0.084 Cl
ENDBRANCH   2   3
ENDBRANCH   1   2
BRANCH   1  11
ATOM     11  C   UNL     1      23.793  15.213   1.879  1.00  0.00     0.170 C 
BRANCH  11  12
ATOM     12  C   UNL     1      24.849  14.106   2.121  1.00  0.00     0.160 C 
BRANCH  12  13
ATOM     13  N   UNL     1      24.979  13.905   3.530  1.00  0.00    -0.335 N 
ATOM     14  C   UNL     1      25.347  14.802   4.459  1.00  0.00     0.107 A 
ATOM     15  C   UNL     1      24.739  12.724   4.136  1.00  0.00     0.199 A 
ATOM     16  C   UNL     1      25.323  14.126   5.661  1.00  0.00     0.130 A 
ATOM     17  N   UNL     1      24.948  12.856   5.437  1.00  0.00    -0.245 NA
ENDBRANCH  12  13
ENDBRANCH  11  12
BRANCH  11  18
ATOM     18  C   UNL     1      23.861  15.582   0.408  1.00  0.00     0.001 A 
ATOM     19  C   UNL     1      23.997  14.623  -0.568  1.00  0.00     0.009 A 
ATOM     20  C   UNL     1      23.792  16.898   0.030  1.00  0.00     0.048 A 
ATOM     21  C   UNL     1      24.062  15.000  -1.917  1.00  0.00     0.021 A 
ATOM     22  C   UNL     1      23.854  17.284  -1.308  1.00  0.00     0.041 A 
ATOM     23  C   UNL     1      23.990  16.322  -2.291  1.00  0.00     0.042 A 
ATOM     24  Cl  UNL     1      23.620  18.107   1.289  1.00  0.00    -0.084 Cl
ATOM     25  Cl  UNL     1      24.074  16.798  -3.979  1.00  0.00    -0.084 Cl
ENDBRANCH  11  18
ENDBRANCH   1  11
TORSDOF 6
ENDMDL
MODEL 3
REMARK VINA RESULT:      -5.6      3.464      5.724
REMARK SMILES Clc1ccc(COC(Cn2ccnc2)c2ccc(Cl)cc2Cl)c(Cl)c1
REMARK SMILES IDX 7 1 6 2 5 3 2 4 3 5 25 6 4 7 23 8 1 9 24 10 8 11 9 12 10 13
REMARK SMILES IDX 11 14 14 15 12 16 13 17 15 18 16 19 21 20 17 21 20 22 18 23
REMARK SMILES IDX 22 24 19 25
REMARK H PARENT
ROOT
ATOM      1  O   UNL     1      23.901  16.177   3.979  1.00  0.00    -0.367 OA
ENDROOT
BRANCH   1   2
ATOM      2  C   UNL     1      23.040  16.759   3.129  1.00  0.00     0.198 C 
BRANCH   2   3
ATOM      3  C   UNL     1      23.461  16.723   1.711  1.00  0.00    -0.004 A 
ATOM      4  C   UNL     1      24.123  16.922  -1.041  1.00  0.00     0.042 A 
ATOM      5  C   UNL     1      24.003  18.040  -0.235  1.00  0.00     0.021 A 
ATOM      6  C   UNL     1      23.905  15.708  -0.437  1.00  0.00     0.041 A 
ATOM      7  C   UNL     1      23.683  17.967   1.100  1.00  0.00     0.009 A 
ATOM      8  C   UNL     1      23.579  15.619   0.925  1.00  0.00     0.048 A 
ATOM      9  Cl  UNL     1      24.526  17.044  -2.748  1.00  0.00    -0.084 Cl
ATOM     10  Cl  UNL     1      23.409  14.030   1.665  1.00  0.00    -0.084 Cl
ENDBRANCH   2   3
ENDBRANCH   1   2
BRANCH   1  11
ATOM     11  C   UNL     1      23.688  15.764   5.212  1.00  0.00     0.170 C 
BRANCH  11  12
ATOM     12  C   UNL     1      22.822  16.840   5.915  1.00  0.00     0.160 C 
BRANCH  12  13
ATOM     13  N   UNL     1      23.358  17.069   7.221  1.00  0.00    -0.335 N 
ATOM     14  C   UNL     1      23.022  16.457   8.368  1.00  0.00     0.107 A 
ATOM     15  C   UNL     1      24.319  17.980   7.478  1.00  0.00     0.199 A 
ATOM     16  C   UNL     1      23.814  17.028   9.341  1.00  0.00     0.130 A 
ATOM     17  N   UNL     1      24.599  17.958   8.773  1.00  0.00    -0.245 NA
ENDBRANCH  12  13
ENDBRANCH  11  12
BRANCH  11  18
ATOM     18  C   UNL     1      22.912  14.460   5.268  1.00  0.00     0.001 A 
ATOM     19  C   UNL     1      21.543  14.443   5.384  1.00  0.00     0.009 A 
ATOM     20  C   UNL     1      23.581  13.265   5.207  1.00  0.00     0.048 A 
ATOM     21  C   UNL     1      20.860  13.220   5.438  1.00  0.00     0.021 A 
ATOM     22  C   UNL     1      22.912  12.043   5.258  1.00  0.00     0.041 A 
ATOM     23  C   UNL     1      21.535  12.024   5.374  1.00  0.00     0.042 A 
ATOM     24  Cl  UNL     1      25.329  13.308   5.061  1.00  0.00    -0.084 Cl
ATOM     25  Cl  UNL     1      20.682  10.490   5.445  1.00  0.00    -0.084 Cl
ENDBRANCH  11  18
ENDBRANCH   1  11
TORSDOF 6
ENDMDL
MODEL 4
REMARK VINA RESULT:      -5.5      5.598      8.162
REMARK SMILES Clc1ccc(COC(Cn2ccnc2)c2ccc(Cl)cc2Cl)c(Cl)c1
REMARK SMILES IDX 7 1 6 2 5 3 2 4 3 5 25 6 4 7 23 8 1 9 24 10 8 11 9 12 10 13
REMARK SMILES IDX 11 14 14 15 12 16 13 17 15 18 16 19 21 20 17 21 20 22 18 23
REMARK SMILES IDX 22 24 19 25
REMARK H PARENT
ROOT
ATOM      1  O   UNL     1      21.495  15.234   7.911  1.00  0.00    -0.367 OA
ENDROOT
BRANCH   1   2
ATOM      2  C   UNL     1      21.764  16.498   7.549  1.00  0.00     0.198 C 
BRANCH   2   3
ATOM      3  C   UNL     1      22.180  16.654   6.138  1.00  0.00    -0.004 A 
ATOM      4  C   UNL     1      22.799  16.714   3.369  1.00  0.00     0.042 A 
ATOM      5  C   UNL     1      21.558  16.315   3.834  1.00  0.00     0.021 A 
ATOM      6  C   UNL     1      23.717  17.080   4.322  1.00  0.00     0.041 A 
ATOM      7  C   UNL     1      21.236  16.278   5.169  1.00  0.00     0.009 A 
ATOM      8  C   UNL     1      23.403  17.049   5.689  1.00  0.00     0.048 A 
ATOM      9  Cl  UNL     1      23.185  16.744   1.654  1.00  0.00    -0.084 Cl
ATOM     10  Cl  UNL     1      24.588  17.625   6.857  1.00  0.00    -0.084 Cl
ENDBRANCH   2   3
ENDBRANCH   1   2
BRANCH   1  11
ATOM     11  C   UNL     1      22.327  14.219   8.041  1.00  0.00     0.170 C 
BRANCH  11  12
ATOM     12  C   UNL     1      21.968  13.495   9.362  1.00  0.00     0.160 C 
BRANCH  12  13
ATOM     13  N   UNL     1      22.920  13.875  10.359  1.00  0.00    -0.335 N 
ATOM     14  C   UNL     1      23.967  14.705  10.224  1.00  0.00     0.107 A 
ATOM     15  C   UNL     1      22.885  13.421  11.629  1.00  0.00     0.199 A 
ATOM     16  C   UNL     1      24.576  14.743  11.461  1.00  0.00     0.130 A 
ATOM     17  N   UNL     1      23.895  13.949  12.304  1.00  0.00    -0.245 NA
ENDBRANCH  12  13
ENDBRANCH  11  12
BRANCH  11  18
ATOM     18  C   UNL     1      22.188  13.202   6.923  1.00  0.00     0.001 A 
ATOM     19  C   UNL     1      21.016  12.514   6.717  1.00  0.00     0.009 A 
ATOM     20  C   UNL     1      23.252  12.950   6.094  1.00  0.00     0.048 A 
ATOM     21  C   UNL     1      20.926  11.578   5.678  1.00  0.00     0.021 A 
ATOM     22  C   UNL     1      23.173  12.022   5.057  1.00  0.00     0.041 A 
ATOM     23  C   UNL     1      21.995  11.330   4.848  1.00  0.00     0.042 A 
ATOM     24  Cl  UNL     1      24.739  13.836   6.373  1.00  0.00    -0.084 Cl
ATOM     25  Cl  UNL     1      21.886  10.155   3.547  1.00  0.00    -0.084 Cl
ENDBRANCH  11  18
ENDBRANCH   1  11
TORSDOF 6
ENDMDL
MODEL 5
REMARK VINA RESULT:      -5.4      3.203      5.175
REMARK SMILES Clc1ccc(COC(Cn2ccnc2)c2ccc(Cl)cc2Cl)c(Cl)c1
REMARK SMILES IDX 7 1 6 2 5 3 2 4 3 5 25 6 4 7 23 8 1 9 24 10 8 11 9 12 10 13
REMARK SMILES IDX 11 14 14 15 12 16 13 17 15 18 16 19 21 20 17 21 20 22 18 23
REMARK SMILES IDX 22 24 19 25
REMARK H PARENT
ROOT
ATOM      1  O   UNL     1      21.634  14.601   3.674  1.00  0.00    -0.367 OA
ENDROOT
BRANCH   1   2
ATOM      2  C   UNL     1      22.106  14.158   2.498  1.00  0.00     0.198 C 
BRANCH   2   3
ATOM      3  C   UNL     1      22.954  15.129   1.774  1.00  0.00    -0.004 A 
ATOM      4  C   UNL     1      24.343  17.184   0.394  1.00  0.00     0.042 A 
ATOM      5  C   UNL     1      23.391  17.464   1.359  1.00  0.00     0.021 A 
ATOM      6  C   UNL     1      24.580  15.856   0.139  1.00  0.00     0.041 A 
ATOM      7  C   UNL     1      22.707  16.485   2.039  1.00  0.00     0.009 A 
ATOM      8  C   UNL     1      23.890  14.846   0.827  1.00  0.00     0.048 A 
ATOM      9  Cl  UNL     1      25.198  18.457  -0.467  1.00  0.00    -0.084 Cl
ATOM     10  Cl  UNL     1      24.310  13.162   0.528  1.00  0.00    -0.084 Cl
ENDBRANCH   2   3
ENDBRANCH   1   2
BRANCH   1  11
ATOM     11  C   UNL     1      22.017  14.271   4.891  1.00  0.00     0.170 C 
BRANCH  11  12
ATOM     12  C   UNL     1      22.968  13.055   4.762  1.00  0.00     0.160 C 
BRANCH  12  13
ATOM     13  N   UNL     1      22.592  12.080   5.737  1.00  0.00    -0.335 N 
ATOM     14  C   UNL     1      21.515  11.278   5.727  1.00  0.00     0.107 A 
ATOM     15  C   UNL     1      23.309  11.832   6.853  1.00  0.00     0.199 A 
ATOM     16  C   UNL     1      21.598  10.527   6.880  1.00  0.00     0.130 A 
ATOM     17  N   UNL     1      22.704  10.885   7.553  1.00  0.00    -0.245 NA
ENDBRANCH  12  13
ENDBRANCH  11  12
BRANCH  11  18
ATOM     18  C   UNL     1      22.797  15.377   5.580  1.00  0.00     0.001 A 
ATOM     19  C   UNL     1      24.135  15.573   5.334  1.00  0.00     0.009 A 
ATOM     20  C   UNL     1      22.165  16.203   6.474  1.00  0.00     0.048 A 
ATOM     21  C   UNL     1      24.825  16.601   5.993  1.00  0.00     0.021 A 
ATOM     22  C   UNL     1      22.841  17.229   7.132  1.00  0.00     0.041 A 
ATOM     23  C   UNL     1      24.186  17.428   6.887  1.00  0.00     0.042 A 
ATOM     24  Cl  UNL     1      20.458  15.936   6.775  1.00  0.00    -0.084 Cl
ATOM     25  Cl  UNL     1      25.049  18.715   7.715  1.00  0.00    -0.084 Cl
ENDBRANCH  11  18
ENDBRANCH   1  11
TORSDOF 6
ENDMDL
MODEL 6
REMARK VINA RESULT:      -5.3      4.020      6.467
REMARK SMILES Clc1ccc(COC(Cn2ccnc2)c2ccc(Cl)cc2Cl)c(Cl)c1
REMARK SMILES IDX 7 1 6 2 5 3 2 4 3 5 25 6 4 7 23 8 1 9 24 10 8 11 9 12 10 13
REMARK SMILES IDX 11 14 14 15 12 16 13 17 15 18 16 19 21 20 17 21 20 22 18 23
REMARK SMILES IDX 22 24 19 25
REMARK H PARENT
ROOT
ATOM      1  O   UNL     1      21.519  14.199   4.184  1.00  0.00    -0.367 OA
ENDROOT
BRANCH   1   2
ATOM      2  C   UNL     1      22.027  13.750   3.026  1.00  0.00     0.198 C 
BRANCH   2   3
ATOM      3  C   UNL     1      22.729  14.778   2.226  1.00  0.00    -0.004 A 
ATOM      4  C   UNL     1      23.833  16.932   0.744  1.00  0.00     0.042 A 
ATOM      5  C   UNL     1      23.027  17.140   1.850  1.00  0.00     0.021 A 
ATOM      6  C   UNL     1      24.071  15.623   0.402  1.00  0.00     0.041 A 
ATOM      7  C   UNL     1      22.482  16.113   2.582  1.00  0.00     0.009 A 
ATOM      8  C   UNL     1      23.522  14.564   1.141  1.00  0.00     0.048 A 
ATOM      9  Cl  UNL     1      24.512  18.265  -0.179  1.00  0.00    -0.084 Cl
ATOM     10  Cl  UNL     1      23.944  12.908   0.714  1.00  0.00    -0.084 Cl
ENDBRANCH   2   3
ENDBRANCH   1   2
BRANCH   1  11
ATOM     11  C   UNL     1      21.963  14.001   5.410  1.00  0.00     0.170 C 
BRANCH  11  12
ATOM     12  C   UNL     1      21.297  15.065   6.318  1.00  0.00     0.160 C 
BRANCH  12  13
ATOM     13  N   UNL     1      22.270  15.531   7.257  1.00  0.00    -0.335 N 
ATOM     14  C   UNL     1      22.251  15.405   8.593  1.00  0.00     0.107 A 
ATOM     15  C   UNL     1      23.388  16.194   6.898  1.00  0.00     0.199 A 
ATOM     16  C   UNL     1      23.402  16.017   9.042  1.00  0.00     0.130 A 
ATOM     17  N   UNL     1      24.081  16.493   7.986  1.00  0.00    -0.245 NA
ENDBRANCH  12  13
ENDBRANCH  11  12
BRANCH  11  18
ATOM     18  C   UNL     1      21.577  12.640   5.960  1.00  0.00     0.001 A 
ATOM     19  C   UNL     1      20.332  12.100   5.737  1.00  0.00     0.009 A 
ATOM     20  C   UNL     1      22.480  11.923   6.703  1.00  0.00     0.048 A 
ATOM     21  C   UNL     1      20.009  10.843   6.265  1.00  0.00     0.021 A 
ATOM     22  C   UNL     1      22.169  10.671   7.232  1.00  0.00     0.041 A 
ATOM     23  C   UNL     1      20.918  10.127   7.008  1.00  0.00     0.042 A 
ATOM     24  Cl  UNL     1      24.062  12.629   6.978  1.00  0.00    -0.084 Cl
ATOM     25  Cl  UNL     1      20.515   8.553   7.674  1.00  0.00    -0.084 Cl
ENDBRANCH  11  18
ENDBRANCH   1  11
TORSDOF 6
ENDMDL
MODEL 7
REMARK VINA RESULT:      -5.3      2.817      4.344
REMARK SMILES Clc1ccc(COC(Cn2ccnc2)c2ccc(Cl)cc2Cl)c(Cl)c1
REMARK SMILES IDX 7 1 6 2 5 3 2 4 3 5 25 6 4 7 23 8 1 9 24 10 8 11 9 12 10 13
REMARK SMILES IDX 11 14 14 15 12 16 13 17 15 18 16 19 21 20 17 21 20 22 18 23
REMARK SMILES IDX 22 24 19 25
REMARK H PARENT
ROOT
ATOM      1  O   UNL     1      22.782  15.460   2.764  1.00  0.00    -0.367 OA
ENDROOT
BRANCH   1   2
ATOM      2  C   UNL     1      23.855  15.139   2.025  1.00  0.00     0.198 C 
BRANCH   2   3
ATOM      3  C   UNL     1      23.814  15.643   0.635  1.00  0.00    -0.004 A 
ATOM      4  C   UNL     1      23.910  16.372  -2.107  1.00  0.00     0.042 A 
ATOM      5  C   UNL     1      23.935  15.050  -1.699  1.00  0.00     0.021 A 
ATOM      6  C   UNL     1      23.836  17.316  -1.111  1.00  0.00     0.041 A 
ATOM      7  C   UNL     1      23.889  14.674  -0.378  1.00  0.00     0.009 A 
ATOM      8  C   UNL     1      23.787  16.946   0.242  1.00  0.00     0.048 A 
ATOM      9  Cl  UNL     1      23.978  16.825  -3.804  1.00  0.00    -0.084 Cl
ATOM     10  Cl  UNL     1      23.593  18.196   1.467  1.00  0.00    -0.084 Cl
ENDBRANCH   2   3
ENDBRANCH   1   2
BRANCH   1  11
ATOM     11  C   UNL     1      22.487  15.085   3.993  1.00  0.00     0.170 C 
BRANCH  11  12
ATOM     12  C   UNL     1      23.060  13.659   4.189  1.00  0.00     0.160 C 
BRANCH  12  13
ATOM     13  N   UNL     1      22.227  12.960   5.118  1.00  0.00    -0.335 N 
ATOM     14  C   UNL     1      20.913  12.708   5.017  1.00  0.00     0.107 A 
ATOM     15  C   UNL     1      22.682  12.441   6.277  1.00  0.00     0.199 A 
ATOM     16  C   UNL     1      20.577  12.013   6.160  1.00  0.00     0.130 A 
ATOM     17  N   UNL     1      21.676  11.863   6.916  1.00  0.00    -0.245 NA
ENDBRANCH  12  13
ENDBRANCH  11  12
BRANCH  11  18
ATOM     18  C   UNL     1      23.125  15.971   5.046  1.00  0.00     0.001 A 
ATOM     19  C   UNL     1      24.479  16.211   5.061  1.00  0.00     0.009 A 
ATOM     20  C   UNL     1      22.346  16.550   6.015  1.00  0.00     0.048 A 
ATOM     21  C   UNL     1      25.035  17.032   6.052  1.00  0.00     0.021 A 
ATOM     22  C   UNL     1      22.888  17.368   7.004  1.00  0.00     0.041 A 
ATOM     23  C   UNL     1      24.249  17.611   7.020  1.00  0.00     0.042 A 
ATOM     24  Cl  UNL     1      20.621  16.231   5.981  1.00  0.00    -0.084 Cl
ATOM     25  Cl  UNL     1      24.943  18.637   8.266  1.00  0.00    -0.084 Cl
ENDBRANCH  11  18
ENDBRANCH   1  11
TORSDOF 6
ENDMDL
MODEL 8
REMARK VINA RESULT:      -5.1      3.825      6.067
REMARK SMILES Clc1ccc(COC(Cn2ccnc2)c2ccc(Cl)cc2Cl)c(Cl)c1
REMARK SMILES IDX 7 1 6 2 5 3 2 4 3 5 25 6 4 7 23 8 1 9 24 10 8 11 9 12 10 13
REMARK SMILES IDX 11 14 14 15 12 16 13 17 15 18 16 19 21 20 17 21 20 22 18 23
REMARK SMILES IDX 22 24 19 25
REMARK H PARENT
ROOT
ATOM      1  O   UNL     1      21.715  15.678   4.188  1.00  0.00    -0.367 OA
ENDROOT
BRANCH   1   2
ATOM      2  C   UNL     1      22.185  16.519   3.254  1.00  0.00     0.198 C 
BRANCH   2   3
ATOM      3  C   UNL     1      22.852  15.854   2.113  1.00  0.00    -0.004 A 
ATOM      4  C   UNL     1      24.177  14.340   0.111  1.00  0.00     0.042 A 
ATOM      5  C   UNL     1      23.402  13.742   1.089  1.00  0.00     0.021 A 
ATOM      6  C   UNL     1      24.271  15.710   0.162  1.00  0.00     0.041 A 
ATOM      7  C   UNL     1      22.751  14.455   2.067  1.00  0.00     0.009 A 
ATOM      8  C   UNL     1      23.612  16.450   1.154  1.00  0.00     0.048 A 
ATOM      9  Cl  UNL     1      25.005  13.403  -1.124  1.00  0.00    -0.084 Cl
ATOM     10  Cl  UNL     1      23.689  18.209   1.108  1.00  0.00    -0.084 Cl
ENDBRANCH   2   3
ENDBRANCH   1   2
BRANCH   1  11
ATOM     11  C   UNL     1      22.254  15.347   5.345  1.00  0.00     0.170 C 
BRANCH  11  12
ATOM     12  C   UNL     1      21.564  16.202   6.437  1.00  0.00     0.160 C 
BRANCH  12  13
ATOM     13  N   UNL     1      22.518  16.479   7.465  1.00  0.00    -0.335 N 
ATOM     14  C   UNL     1      22.524  16.022   8.727  1.00  0.00     0.107 A 
ATOM     15  C   UNL     1      23.588  17.279   7.286  1.00  0.00     0.199 A 
ATOM     16  C   UNL     1      23.641  16.574   9.319  1.00  0.00     0.130 A 
ATOM     17  N   UNL     1      24.276  17.340   8.417  1.00  0.00    -0.245 NA
ENDBRANCH  12  13
ENDBRANCH  11  12
BRANCH  11  18
ATOM     18  C   UNL     1      22.020  13.891   5.705  1.00  0.00     0.001 A 
ATOM     19  C   UNL     1      20.755  13.393   5.905  1.00  0.00     0.009 A 
ATOM     20  C   UNL     1      23.089  13.041   5.840  1.00  0.00     0.048 A 
ATOM     21  C   UNL     1      20.577  12.044   6.241  1.00  0.00     0.021 A 
ATOM     22  C   UNL     1      22.924  11.698   6.173  1.00  0.00     0.041 A 
ATOM     23  C   UNL     1      21.652  11.196   6.375  1.00  0.00     0.042 A 
ATOM     24  Cl  UNL     1      24.696  13.695   5.582  1.00  0.00    -0.084 Cl
ATOM     25  Cl  UNL     1      21.432   9.506   6.799  1.00  0.00    -0.084 Cl
ENDBRANCH  11  18
ENDBRANCH   1  11
TORSDOF 6
ENDMDL
MODEL 9
REMARK VINA RESULT:      -5.1      2.456      7.332
REMARK SMILES Clc1ccc(COC(Cn2ccnc2)c2ccc(Cl)cc2Cl)c(Cl)c1
REMARK SMILES IDX 7 1 6 2 5 3 2 4 3 5 25 6 4 7 23 8 1 9 24 10 8 11 9 12 10 13
REMARK SMILES IDX 11 14 14 15 12 16 13 17 15 18 16 19 21 20 17 21 20 22 18 23
REMARK SMILES IDX 22 24 19 25
REMARK H PARENT
ROOT
ATOM      1  O   UNL     1      23.013  14.689   2.361  1.00  0.00    -0.367 OA
ENDROOT
BRANCH   1   2
ATOM      2  C   UNL     1      22.057  15.271   3.103  1.00  0.00     0.198 C 
BRANCH   2   3
ATOM      3  C   UNL     1      22.145  14.979   4.551  1.00  0.00    -0.004 A 
ATOM      4  C   UNL     1      22.036  14.289   7.302  1.00  0.00     0.042 A 
ATOM      5  C   UNL     1      21.445  13.505   6.327  1.00  0.00     0.021 A 
ATOM      6  C   UNL     1      22.680  15.422   6.867  1.00  0.00     0.041 A 
ATOM      7  C   UNL     1      21.485  13.819   4.990  1.00  0.00     0.009 A 
ATOM      8  C   UNL     1      22.730  15.754   5.504  1.00  0.00     0.048 A 
ATOM      9  Cl  UNL     1      21.962  13.867   9.007  1.00  0.00    -0.084 Cl
ATOM     10  Cl  UNL     1      23.655  17.164   4.998  1.00  0.00    -0.084 Cl
ENDBRANCH   2   3
ENDBRANCH   1   2
BRANCH   1  11
ATOM     11  C   UNL     1      24.126  15.217   1.892  1.00  0.00     0.170 C 
BRANCH  11  12
ATOM     12  C   UNL     1      25.227  14.132   1.992  1.00  0.00     0.160 C 
BRANCH  12  13
ATOM     13  N   UNL     1      25.383  13.771   3.367  1.00  0.00    -0.335 N 
ATOM     14  C   UNL     1      25.976  14.479   4.341  1.00  0.00     0.107 A 
ATOM     15  C   UNL     1      24.933  12.610   3.884  1.00  0.00     0.199 A 
ATOM     16  C   UNL     1      25.872  13.706   5.479  1.00  0.00     0.130 A 
ATOM     17  N   UNL     1      25.230  12.567   5.174  1.00  0.00    -0.245 NA
ENDBRANCH  12  13
ENDBRANCH  11  12
BRANCH  11  18
ATOM     18  C   UNL     1      24.017  15.609   0.430  1.00  0.00     0.001 A 
ATOM     19  C   UNL     1      24.139  14.679  -0.575  1.00  0.00     0.009 A 
ATOM     20  C   UNL     1      23.797  16.919   0.089  1.00  0.00     0.048 A 
ATOM     21  C   UNL     1      24.038  15.079  -1.915  1.00  0.00     0.021 A 
ATOM     22  C   UNL     1      23.694  17.327  -1.240  1.00  0.00     0.041 A 
ATOM     23  C   UNL     1      23.816  16.394  -2.252  1.00  0.00     0.042 A 
ATOM     24  Cl  UNL     1      23.646  18.091   1.385  1.00  0.00    -0.084 Cl
ATOM     25  Cl  UNL     1      23.692  16.898  -3.930  1.00  0.00    -0.084 Cl
ENDBRANCH  11  18
ENDBRANCH   1  11
TORSDOF 6
ENDMDL
