MODEL 1
REMARK VINA RESULT:      -5.5      0.000      0.000
REMARK SMILES O=C1Nc2ccc(I)cc2/C1=C/c1cc(Br)c(O)c(Br)c1
REMARK SMILES IDX 13 1 14 2 15 3 16 4 17 5 19 6 20 7 21 8 12 9 1 10 2 11 3 12
REMARK SMILES IDX 11 13 4 14 10 15 5 16 9 17 6 18 7 19 8 21 18 22
REMARK H PARENT 3 20 18 23
ROOT
ATOM      1  C   UNL     1      25.682  15.914  -1.852  1.00  0.00    -0.022 A 
ATOM      2  C   UNL     1      25.211  16.134  -3.109  1.00  0.00     0.027 A 
ATOM      3  C   UNL     1      26.089  16.582  -4.081  1.00  0.00     0.061 A 
ATOM      4  Br  UNL     1      25.424  16.889  -5.849  1.00  0.00    -0.047 Br
ATOM      5  C   UNL     1      27.426  16.810  -3.805  1.00  0.00     0.143 A 
ATOM      6  C   UNL     1      27.863  16.578  -2.529  1.00  0.00     0.061 A 
ATOM      7  Br  UNL     1      29.697  16.872  -2.072  1.00  0.00    -0.047 Br
ATOM      8  C   UNL     1      27.011  16.135  -1.553  1.00  0.00     0.027 A 
ENDROOT
BRANCH   1   9
ATOM      9  C   UNL     1      24.853  15.410  -0.770  1.00  0.00     0.022 C 
ATOM     10  O   UNL     1      24.914  18.431  -0.560  1.00  0.00    -0.269 OA
ATOM     11  C   UNL     1      24.322  17.641   0.214  1.00  0.00     0.256 C 
ATOM     12  N   UNL     1      23.552  18.009   1.371  1.00  0.00    -0.321 N 
ATOM     13  C   UNL     1      24.273  16.191   0.121  1.00  0.00     0.050 C 
ATOM     14  C   UNL     1      23.031  16.821   1.992  1.00  0.00     0.049 A 
ATOM     15  C   UNL     1      23.458  15.728   1.249  1.00  0.00     0.012 A 
ATOM     16  C   UNL     1      22.241  16.677   3.119  1.00  0.00     0.028 A 
ATOM     17  C   UNL     1      23.047  14.479   1.699  1.00  0.00     0.025 A 
ATOM     18  C   UNL     1      21.864  15.407   3.518  1.00  0.00     0.017 A 
ATOM     19  C   UNL     1      22.263  14.291   2.813  1.00  0.00     0.014 A 
ATOM     20  H   UNL     1      23.422  18.983   1.671  1.00  0.00     0.170 HD
ATOM     21  I   UNL     1      21.676  12.354   3.436  1.00  0.00    -0.044 I 
ENDBRANCH   1   9
BRANCH   5  22
ATOM     22  O   UNL     1      28.299  17.258  -4.791  1.00  0.00    -0.506 OA
ATOM     23  H   UNL     1      28.278  18.229  -5.078  1.00  0.00     0.293 HD
ENDBRANCH   5  22
TORSDOF 2
ENDMDL
MODEL 2
REMARK VINA RESULT:      -5.4      1.978      2.778
REMARK SMILES O=C1Nc2ccc(I)cc2/C1=C/c1cc(Br)c(O)c(Br)c1
REMARK SMILES IDX 13 1 14 2 15 3 16 4 17 5 19 6 20 7 21 8 12 9 1 10 2 11 3 12
REMARK SMILES IDX 11 13 4 14 10 15 5 16 9 17 6 18 7 19 8 21 18 22
REMARK H PARENT 3 20 18 23
ROOT
ATOM      1  C   UNL     1      24.205  15.202   0.282  1.00  0.00    -0.022 A 
ATOM      2  C   UNL     1      23.575  15.573  -0.864  1.00  0.00     0.027 A 
ATOM      3  C   UNL     1      24.326  16.107  -1.896  1.00  0.00     0.061 A 
ATOM      4  Br  UNL     1      23.436  16.627  -3.509  1.00  0.00    -0.047 Br
ATOM      5  C   UNL     1      25.697  16.271  -1.790  1.00  0.00     0.143 A 
ATOM      6  C   UNL     1      26.296  15.887  -0.621  1.00  0.00     0.061 A 
ATOM      7  Br  UNL     1      28.186  16.085  -0.399  1.00  0.00    -0.047 Br
ATOM      8  C   UNL     1      25.571  15.356   0.412  1.00  0.00     0.027 A 
ENDROOT
BRANCH   1   9
ATOM      9  C   UNL     1      23.515  14.599   1.410  1.00  0.00     0.022 C 
ATOM     10  O   UNL     1      23.681  17.581   1.913  1.00  0.00    -0.269 OA
ATOM     11  C   UNL     1      23.178  16.722   2.676  1.00  0.00     0.256 C 
ATOM     12  N   UNL     1      22.578  16.978   3.958  1.00  0.00    -0.321 N 
ATOM     13  C   UNL     1      23.079  15.291   2.445  1.00  0.00     0.050 C 
ATOM     14  C   UNL     1      22.113  15.738   4.520  1.00  0.00     0.049 A 
ATOM     15  C   UNL     1      22.410  14.723   3.620  1.00  0.00     0.012 A 
ATOM     16  C   UNL     1      21.477  15.489   5.723  1.00  0.00     0.028 A 
ATOM     17  C   UNL     1      22.031  13.439   3.994  1.00  0.00     0.025 A 
ATOM     18  C   UNL     1      21.123  14.188   6.039  1.00  0.00     0.017 A 
ATOM     19  C   UNL     1      21.396  13.146   5.178  1.00  0.00     0.014 A 
ATOM     20  H   UNL     1      22.514  17.917   4.369  1.00  0.00     0.170 HD
ATOM     21  I   UNL     1      20.848  11.163   5.676  1.00  0.00    -0.044 I 
ENDBRANCH   1   9
BRANCH   5  22
ATOM     22  O   UNL     1      26.442  16.807  -2.835  1.00  0.00    -0.506 OA
ATOM     23  H   UNL     1      25.979  17.339  -3.563  1.00  0.00     0.293 HD
ENDBRANCH   5  22
TORSDOF 2
ENDMDL
MODEL 3
REMARK VINA RESULT:      -5.4      2.290      2.884
REMARK SMILES O=C1Nc2ccc(I)cc2/C1=C/c1cc(Br)c(O)c(Br)c1
REMARK SMILES IDX 13 1 14 2 15 3 16 4 17 5 19 6 20 7 21 8 12 9 1 10 2 11 3 12
REMARK SMILES IDX 11 13 4 14 10 15 5 16 9 17 6 18 7 19 8 21 18 22
REMARK H PARENT 3 20 18 23
ROOT
ATOM      1  C   UNL     1      24.547  16.649  -0.320  1.00  0.00    -0.022 A 
ATOM      2  C   UNL     1      23.896  16.585  -1.512  1.00  0.00     0.027 A 
ATOM      3  C   UNL     1      24.626  16.719  -2.680  1.00  0.00     0.061 A 
ATOM      4  Br  UNL     1      23.707  16.628  -4.356  1.00  0.00    -0.047 Br
ATOM      5  C   UNL     1      25.997  16.915  -2.663  1.00  0.00     0.143 A 
ATOM      6  C   UNL     1      26.617  16.974  -1.445  1.00  0.00     0.061 A 
ATOM      7  Br  UNL     1      28.508  17.244  -1.341  1.00  0.00    -0.047 Br
ATOM      8  C   UNL     1      25.913  16.843  -0.278  1.00  0.00     0.027 A 
ENDROOT
BRANCH   1   9
ATOM      9  C   UNL     1      23.880  16.484   0.961  1.00  0.00     0.022 C 
ATOM     10  O   UNL     1      24.380  13.726  -0.184  1.00  0.00    -0.269 OA
ATOM     11  C   UNL     1      23.802  13.991   0.896  1.00  0.00     0.256 C 
ATOM     12  N   UNL     1      23.248  13.035   1.817  1.00  0.00    -0.321 N 
ATOM     13  C   UNL     1      23.565  15.308   1.466  1.00  0.00     0.050 C 
ATOM     14  C   UNL     1      22.676  13.731   2.938  1.00  0.00     0.049 A 
ATOM     15  C   UNL     1      22.862  15.093   2.735  1.00  0.00     0.012 A 
ATOM     16  C   UNL     1      22.037  13.238   4.061  1.00  0.00     0.028 A 
ATOM     17  C   UNL     1      22.370  15.935   3.725  1.00  0.00     0.025 A 
ATOM     18  C   UNL     1      21.570  14.128   5.013  1.00  0.00     0.017 A 
ATOM     19  C   UNL     1      21.730  15.488   4.857  1.00  0.00     0.014 A 
ATOM     20  H   UNL     1      23.279  12.021   1.656  1.00  0.00     0.170 HD
ATOM     21  I   UNL     1      21.011  16.835   6.324  1.00  0.00    -0.044 I 
ENDBRANCH   1   9
BRANCH   5  22
ATOM     22  O   UNL     1      26.721  17.046  -3.843  1.00  0.00    -0.506 OA
ATOM     23  H   UNL     1      26.247  17.317  -4.697  1.00  0.00     0.293 HD
ENDBRANCH   5  22
TORSDOF 2
ENDMDL
MODEL 4
REMARK VINA RESULT:      -5.4      0.176      2.044
REMARK SMILES O=C1Nc2ccc(I)cc2/C1=C/c1cc(Br)c(O)c(Br)c1
REMARK SMILES IDX 13 1 14 2 15 3 16 4 17 5 19 6 20 7 21 8 12 9 1 10 2 11 3 12
REMARK SMILES IDX 11 13 4 14 10 15 5 16 9 17 6 18 7 19 8 21 18 22
REMARK H PARENT 3 20 18 23
ROOT
ATOM      1  C   UNL     1      25.897  15.858  -1.641  1.00  0.00    -0.022 A 
ATOM      2  C   UNL     1      27.201  16.180  -1.429  1.00  0.00     0.027 A 
ATOM      3  C   UNL     1      27.947  16.677  -2.483  1.00  0.00     0.061 A 
ATOM      4  Br  UNL     1      29.782  17.129  -2.180  1.00  0.00    -0.047 Br
ATOM      5  C   UNL     1      27.399  16.853  -3.743  1.00  0.00     0.143 A 
ATOM      6  C   UNL     1      26.084  16.518  -3.918  1.00  0.00     0.061 A 
ATOM      7  Br  UNL     1      25.258  16.731  -5.631  1.00  0.00    -0.047 Br
ATOM      8  C   UNL     1      25.329  16.025  -2.888  1.00  0.00     0.027 A 
ENDROOT
BRANCH   1   9
ATOM      9  C   UNL     1      25.019  15.364  -0.594  1.00  0.00     0.022 C 
ATOM     10  O   UNL     1      24.949  18.391  -0.510  1.00  0.00    -0.269 OA
ATOM     11  C   UNL     1      24.339  17.609   0.257  1.00  0.00     0.256 C 
ATOM     12  N   UNL     1      23.480  17.991   1.346  1.00  0.00    -0.321 N 
ATOM     13  C   UNL     1      24.352  16.156   0.223  1.00  0.00     0.050 C 
ATOM     14  C   UNL     1      22.965  16.808   1.982  1.00  0.00     0.049 A 
ATOM     15  C   UNL     1      23.482  15.705   1.315  1.00  0.00     0.012 A 
ATOM     16  C   UNL     1      22.108  16.678   3.060  1.00  0.00     0.028 A 
ATOM     17  C   UNL     1      23.091  14.459   1.791  1.00  0.00     0.025 A 
ATOM     18  C   UNL     1      21.755  15.409   3.488  1.00  0.00     0.017 A 
ATOM     19  C   UNL     1      22.243  14.284   2.859  1.00  0.00     0.014 A 
ATOM     20  H   UNL     1      23.293  18.970   1.594  1.00  0.00     0.170 HD
ATOM     21  I   UNL     1      21.691  12.351   3.525  1.00  0.00    -0.044 I 
ENDBRANCH   1   9
BRANCH   5  22
ATOM     22  O   UNL     1      28.158  17.354  -4.795  1.00  0.00    -0.506 OA
ATOM     23  H   UNL     1      29.147  17.141  -4.849  1.00  0.00     0.293 HD
ENDBRANCH   5  22
TORSDOF 2
ENDMDL
MODEL 5
REMARK VINA RESULT:      -5.4      1.844      3.242
REMARK SMILES O=C1Nc2ccc(I)cc2/C1=C/c1cc(Br)c(O)c(Br)c1
REMARK SMILES IDX 13 1 14 2 15 3 16 4 17 5 19 6 20 7 21 8 12 9 1 10 2 11 3 12
REMARK SMILES IDX 11 13 4 14 10 15 5 16 9 17 6 18 7 19 8 21 18 22
REMARK H PARENT 3 20 18 23
ROOT
ATOM      1  C   UNL     1      24.433  15.255   0.169  1.00  0.00    -0.022 A 
ATOM      2  C   UNL     1      25.777  15.463   0.178  1.00  0.00     0.027 A 
ATOM      3  C   UNL     1      26.374  16.014  -0.942  1.00  0.00     0.061 A 
ATOM      4  Br  UNL     1      28.265  16.307  -0.926  1.00  0.00    -0.047 Br
ATOM      5  C   UNL     1      25.640  16.356  -2.065  1.00  0.00     0.143 A 
ATOM      6  C   UNL     1      24.291  16.131  -2.038  1.00  0.00     0.061 A 
ATOM      7  Br  UNL     1      23.210  16.576  -3.553  1.00  0.00    -0.047 Br
ATOM      8  C   UNL     1      23.679  15.588  -0.939  1.00  0.00     0.027 A 
ENDROOT
BRANCH   1   9
ATOM      9  C   UNL     1      23.704  14.716   1.305  1.00  0.00     0.022 C 
ATOM     10  O   UNL     1      23.859  17.722   1.644  1.00  0.00    -0.269 OA
ATOM     11  C   UNL     1      23.329  16.908   2.437  1.00  0.00     0.256 C 
ATOM     12  N   UNL     1      22.686  17.235   3.681  1.00  0.00    -0.321 N 
ATOM     13  C   UNL     1      23.235  15.465   2.284  1.00  0.00     0.050 C 
ATOM     14  C   UNL     1      22.201  16.030   4.297  1.00  0.00     0.049 A 
ATOM     15  C   UNL     1      22.525  14.965   3.465  1.00  0.00     0.012 A 
ATOM     16  C   UNL     1      21.524  15.849   5.490  1.00  0.00     0.028 A 
ATOM     17  C   UNL     1      22.131  13.705   3.898  1.00  0.00     0.025 A 
ATOM     18  C   UNL     1      21.157  14.568   5.866  1.00  0.00     0.017 A 
ATOM     19  C   UNL     1      21.457  13.479   5.075  1.00  0.00     0.014 A 
ATOM     20  H   UNL     1      22.611  18.196   4.036  1.00  0.00     0.170 HD
ATOM     21  I   UNL     1      20.887  11.528   5.666  1.00  0.00    -0.044 I 
ENDBRANCH   1   9
BRANCH   5  22
ATOM     22  O   UNL     1      26.251  16.911  -3.184  1.00  0.00    -0.506 OA
ATOM     23  H   UNL     1      25.710  17.077  -4.024  1.00  0.00     0.293 HD
ENDBRANCH   5  22
TORSDOF 2
ENDMDL
MODEL 6
REMARK VINA RESULT:      -5.4      8.094     11.263
REMARK SMILES O=C1Nc2ccc(I)cc2/C1=C/c1cc(Br)c(O)c(Br)c1
REMARK SMILES IDX 13 1 14 2 15 3 16 4 17 5 19 6 20 7 21 8 12 9 1 10 2 11 3 12
REMARK SMILES IDX 11 13 4 14 10 15 5 16 9 17 6 18 7 19 8 21 18 22
REMARK H PARENT 3 20 18 23
ROOT
ATOM      1  C   UNL     1      22.753  13.275   9.174  1.00  0.00    -0.022 A 
ATOM      2  C   UNL     1      23.925  13.573   9.797  1.00  0.00     0.027 A 
ATOM      3  C   UNL     1      24.013  13.403  11.168  1.00  0.00     0.061 A 
ATOM      4  Br  UNL     1      25.663  13.822  12.043  1.00  0.00    -0.047 Br
ATOM      5  C   UNL     1      22.942  12.940  11.915  1.00  0.00     0.143 A 
ATOM      6  C   UNL     1      21.781  12.652  11.253  1.00  0.00     0.061 A 
ATOM      7  Br  UNL     1      20.258  12.010  12.217  1.00  0.00    -0.047 Br
ATOM      8  C   UNL     1      21.672  12.812   9.897  1.00  0.00     0.027 A 
ENDROOT
BRANCH   1   9
ATOM      9  C   UNL     1      22.568  13.383   7.737  1.00  0.00     0.022 C 
ATOM     10  O   UNL     1      22.223  16.147   8.925  1.00  0.00    -0.269 OA
ATOM     11  C   UNL     1      22.111  15.835   7.715  1.00  0.00     0.256 C 
ATOM     12  N   UNL     1      21.788  16.731   6.637  1.00  0.00    -0.321 N 
ATOM     13  C   UNL     1      22.285  14.517   7.127  1.00  0.00     0.050 C 
ATOM     14  C   UNL     1      21.758  15.996   5.402  1.00  0.00     0.049 A 
ATOM     15  C   UNL     1      22.056  14.669   5.687  1.00  0.00     0.012 A 
ATOM     16  C   UNL     1      21.496  16.428   4.114  1.00  0.00     0.028 A 
ATOM     17  C   UNL     1      22.076  13.797   4.604  1.00  0.00     0.025 A 
ATOM     18  C   UNL     1      21.532  15.512   3.077  1.00  0.00     0.017 A 
ATOM     19  C   UNL     1      21.822  14.184   3.310  1.00  0.00     0.014 A 
ATOM     20  H   UNL     1      21.612  17.733   6.777  1.00  0.00     0.170 HD
ATOM     21  I   UNL     1      21.874  12.796   1.712  1.00  0.00    -0.044 I 
ENDBRANCH   1   9
BRANCH   5  22
ATOM     22  O   UNL     1      23.044  12.773  13.292  1.00  0.00    -0.506 OA
ATOM     23  H   UNL     1      23.896  13.037  13.770  1.00  0.00     0.293 HD
ENDBRANCH   5  22
TORSDOF 2
ENDMDL
MODEL 7
REMARK VINA RESULT:      -5.3      2.330      3.551
REMARK SMILES O=C1Nc2ccc(I)cc2/C1=C/c1cc(Br)c(O)c(Br)c1
REMARK SMILES IDX 13 1 14 2 15 3 16 4 17 5 19 6 20 7 21 8 12 9 1 10 2 11 3 12
REMARK SMILES IDX 11 13 4 14 10 15 5 16 9 17 6 18 7 19 8 21 18 22
REMARK H PARENT 3 20 18 23
ROOT
ATOM      1  C   UNL     1      24.664  16.548  -0.259  1.00  0.00    -0.022 A 
ATOM      2  C   UNL     1      26.006  16.744  -0.356  1.00  0.00     0.027 A 
ATOM      3  C   UNL     1      26.567  16.906  -1.611  1.00  0.00     0.061 A 
ATOM      4  Br  UNL     1      28.457  17.183  -1.745  1.00  0.00    -0.047 Br
ATOM      5  C   UNL     1      25.798  16.874  -2.762  1.00  0.00     0.143 A 
ATOM      6  C   UNL     1      24.452  16.674  -2.624  1.00  0.00     0.061 A 
ATOM      7  Br  UNL     1      23.326  16.615  -4.169  1.00  0.00    -0.047 Br
ATOM      8  C   UNL     1      23.877  16.512  -1.392  1.00  0.00     0.027 A 
ENDROOT
BRANCH   1   9
ATOM      9  C   UNL     1      23.972  16.404   1.011  1.00  0.00     0.022 C 
ATOM     10  O   UNL     1      24.507  13.627  -0.073  1.00  0.00    -0.269 OA
ATOM     11  C   UNL     1      23.906  13.909   0.990  1.00  0.00     0.256 C 
ATOM     12  N   UNL     1      23.338  12.968   1.917  1.00  0.00    -0.321 N 
ATOM     13  C   UNL     1      23.651  15.235   1.531  1.00  0.00     0.050 C 
ATOM     14  C   UNL     1      22.740  13.681   3.013  1.00  0.00     0.049 A 
ATOM     15  C   UNL     1      22.924  15.040   2.789  1.00  0.00     0.012 A 
ATOM     16  C   UNL     1      22.081  13.205   4.133  1.00  0.00     0.028 A 
ATOM     17  C   UNL     1      22.409  15.897   3.754  1.00  0.00     0.025 A 
ATOM     18  C   UNL     1      21.590  14.110   5.059  1.00  0.00     0.017 A 
ATOM     19  C   UNL     1      21.748  15.468   4.881  1.00  0.00     0.014 A 
ATOM     20  H   UNL     1      23.376  11.951   1.775  1.00  0.00     0.170 HD
ATOM     21  I   UNL     1      20.993  16.837   6.308  1.00  0.00    -0.044 I 
ENDBRANCH   1   9
BRANCH   5  22
ATOM     22  O   UNL     1      26.374  17.040  -4.017  1.00  0.00    -0.506 OA
ATOM     23  H   UNL     1      27.376  16.938  -4.130  1.00  0.00     0.293 HD
ENDBRANCH   5  22
TORSDOF 2
ENDMDL
MODEL 8
REMARK VINA RESULT:      -5.3      7.906     10.965
REMARK SMILES O=C1Nc2ccc(I)cc2/C1=C/c1cc(Br)c(O)c(Br)c1
REMARK SMILES IDX 13 1 14 2 15 3 16 4 17 5 19 6 20 7 21 8 12 9 1 10 2 11 3 12
REMARK SMILES IDX 11 13 4 14 10 15 5 16 9 17 6 18 7 19 8 21 18 22
REMARK H PARENT 3 20 18 23
ROOT
ATOM      1  C   UNL     1      22.687  13.179   8.968  1.00  0.00    -0.022 A 
ATOM      2  C   UNL     1      21.676  12.766   9.777  1.00  0.00     0.027 A 
ATOM      3  C   UNL     1      21.897  12.704  11.142  1.00  0.00     0.061 A 
ATOM      4  Br  UNL     1      20.472  12.122  12.280  1.00  0.00    -0.047 Br
ATOM      5  C   UNL     1      23.116  13.052  11.699  1.00  0.00     0.143 A 
ATOM      6  C   UNL     1      24.109  13.463  10.853  1.00  0.00     0.061 A 
ATOM      7  Br  UNL     1      25.821  13.958  11.548  1.00  0.00    -0.047 Br
ATOM      8  C   UNL     1      23.912  13.532   9.500  1.00  0.00     0.027 A 
ENDROOT
BRANCH   1   9
ATOM      9  C   UNL     1      22.548  13.314   7.527  1.00  0.00     0.022 C 
ATOM     10  O   UNL     1      22.067  16.037   8.763  1.00  0.00    -0.269 OA
ATOM     11  C   UNL     1      22.008  15.750   7.543  1.00  0.00     0.256 C 
ATOM     12  N   UNL     1      21.691  16.658   6.474  1.00  0.00    -0.321 N 
ATOM     13  C   UNL     1      22.248  14.452   6.933  1.00  0.00     0.050 C 
ATOM     14  C   UNL     1      21.730  15.951   5.223  1.00  0.00     0.049 A 
ATOM     15  C   UNL     1      22.063  14.629   5.489  1.00  0.00     0.012 A 
ATOM     16  C   UNL     1      21.498  16.404   3.936  1.00  0.00     0.028 A 
ATOM     17  C   UNL     1      22.150  13.783   4.390  1.00  0.00     0.025 A 
ATOM     18  C   UNL     1      21.600  15.513   2.882  1.00  0.00     0.017 A 
ATOM     19  C   UNL     1      21.928  14.191   3.095  1.00  0.00     0.014 A 
ATOM     20  H   UNL     1      21.476  17.651   6.629  1.00  0.00     0.170 HD
ATOM     21  I   UNL     1      22.083  12.842   1.471  1.00  0.00    -0.044 I 
ENDBRANCH   1   9
BRANCH   5  22
ATOM     22  O   UNL     1      23.325  12.988  13.072  1.00  0.00    -0.506 OA
ATOM     23  H   UNL     1      22.724  12.410  13.648  1.00  0.00     0.293 HD
ENDBRANCH   5  22
TORSDOF 2
ENDMDL
MODEL 9
REMARK VINA RESULT:      -5.3      4.943      7.667
REMARK SMILES O=C1Nc2ccc(I)cc2/C1=C/c1cc(Br)c(O)c(Br)c1
REMARK SMILES IDX 13 1 14 2 15 3 16 4 17 5 19 6 20 7 21 8 12 9 1 10 2 11 3 12
REMARK SMILES IDX 11 13 4 14 10 15 5 16 9 17 6 18 7 19 8 21 18 22
REMARK H PARENT 3 20 18 23
ROOT
ATOM      1  C   UNL     1      23.594  14.837   3.850  1.00  0.00    -0.022 A 
ATOM      2  C   UNL     1      22.603  13.939   4.099  1.00  0.00     0.027 A 
ATOM      3  C   UNL     1      21.962  13.975   5.324  1.00  0.00     0.061 A 
ATOM      4  Br  UNL     1      20.568  12.710   5.671  1.00  0.00    -0.047 Br
ATOM      5  C   UNL     1      22.303  14.899   6.298  1.00  0.00     0.143 A 
ATOM      6  C   UNL     1      23.305  15.785   6.011  1.00  0.00     0.061 A 
ATOM      7  Br  UNL     1      23.834  17.090   7.307  1.00  0.00    -0.047 Br
ATOM      8  C   UNL     1      23.952  15.767   4.805  1.00  0.00     0.027 A 
ENDROOT
BRANCH   1   9
ATOM      9  C   UNL     1      24.304  14.907   2.584  1.00  0.00     0.022 C 
ATOM     10  O   UNL     1      22.264  17.145   2.627  1.00  0.00    -0.269 OA
ATOM     11  C   UNL     1      23.049  16.869   1.689  1.00  0.00     0.256 C 
ATOM     12  N   UNL     1      23.138  17.558   0.429  1.00  0.00    -0.321 N 
ATOM     13  C   UNL     1      24.041  15.807   1.656  1.00  0.00     0.050 C 
ATOM     14  C   UNL     1      24.159  16.945  -0.376  1.00  0.00     0.049 A 
ATOM     15  C   UNL     1      24.706  15.896   0.352  1.00  0.00     0.012 A 
ATOM     16  C   UNL     1      24.599  17.261  -1.649  1.00  0.00     0.028 A 
ATOM     17  C   UNL     1      25.721  15.179  -0.270  1.00  0.00     0.025 A 
ATOM     18  C   UNL     1      25.614  16.509  -2.215  1.00  0.00     0.017 A 
ATOM     19  C   UNL     1      26.188  15.458  -1.532  1.00  0.00     0.014 A 
ATOM     20  H   UNL     1      22.542  18.358   0.187  1.00  0.00     0.170 HD
ATOM     21  I   UNL     1      27.741  14.320  -2.412  1.00  0.00    -0.044 I 
ENDBRANCH   1   9
BRANCH   5  22
ATOM     22  O   UNL     1      21.651  14.926   7.525  1.00  0.00    -0.506 OA
ATOM     23  H   UNL     1      20.645  14.806   7.565  1.00  0.00     0.293 HD
ENDBRANCH   5  22
TORSDOF 2
ENDMDL
