MODEL 1
REMARK VINA RESULT:      -5.6      0.000      0.000
REMARK SMILES Clc1ccccc1C(c1ccccc1)(c1ccccc1)n1ccnc1
REMARK SMILES IDX 1 1 2 2 3 3 4 4 5 5 6 6 7 7 8 8 9 9 10 10 14 11 11 12 13 13
REMARK SMILES IDX 12 14 15 15 16 16 20 17 17 18 19 19 18 20 21 21 22 22 25 23
REMARK SMILES IDX 23 24 24 25
REMARK H PARENT
ROOT
ATOM      1  Cl  UNL     1      24.728  13.414   1.241  1.00  0.00    -0.084 Cl
ATOM      2  C   UNL     1      24.242  15.094   1.225  1.00  0.00     0.047 A 
ATOM      3  C   UNL     1      24.439  15.891   0.120  1.00  0.00     0.021 A 
ATOM      4  C   UNL     1      24.028  17.206   0.092  1.00  0.00     0.002 A 
ATOM      5  C   UNL     1      23.409  17.712   1.208  1.00  0.00     0.001 A 
ATOM      6  C   UNL     1      23.209  16.900   2.332  1.00  0.00     0.008 A 
ATOM      7  C   UNL     1      23.618  15.602   2.353  1.00  0.00     0.006 A 
ENDROOT
BRANCH   7   8
ATOM      8  C   UNL     1      23.418  14.767   3.568  1.00  0.00     0.123 C 
BRANCH   8   9
ATOM      9  C   UNL     1      22.407  13.721   3.240  1.00  0.00    -0.013 A 
ATOM     10  C   UNL     1      21.768  13.580   2.052  1.00  0.00     0.007 A 
ATOM     11  C   UNL     1      22.137  12.814   4.283  1.00  0.00     0.007 A 
ATOM     12  C   UNL     1      20.862  12.548   1.887  1.00  0.00     0.000 A 
ATOM     13  C   UNL     1      21.239  11.794   4.110  1.00  0.00     0.000 A 
ATOM     14  C   UNL     1      20.585  11.642   2.911  1.00  0.00     0.000 A 
ENDBRANCH   8   9
BRANCH   8  15
ATOM     15  C   UNL     1      22.782  15.548   4.662  1.00  0.00    -0.013 A 
ATOM     16  C   UNL     1      23.389  15.790   5.866  1.00  0.00     0.007 A 
ATOM     17  C   UNL     1      21.533  16.075   4.450  1.00  0.00     0.007 A 
ATOM     18  C   UNL     1      22.779  16.544   6.862  1.00  0.00     0.000 A 
ATOM     19  C   UNL     1      20.897  16.839   5.442  1.00  0.00     0.000 A 
ATOM     20  C   UNL     1      21.528  17.064   6.634  1.00  0.00     0.000 A 
ENDBRANCH   8  15
BRANCH   8  21
ATOM     21  N   UNL     1      24.673  14.241   4.018  1.00  0.00    -0.319 N 
ATOM     22  C   UNL     1      25.819  14.954   4.196  1.00  0.00     0.109 A 
ATOM     23  C   UNL     1      24.943  12.982   4.361  1.00  0.00     0.200 A 
ATOM     24  C   UNL     1      26.806  14.111   4.655  1.00  0.00     0.131 A 
ATOM     25  N   UNL     1      26.244  12.911   4.748  1.00  0.00    -0.245 NA
ENDBRANCH   8  21
ENDBRANCH   7   8
TORSDOF 4
ENDMDL
MODEL 2
REMARK VINA RESULT:      -5.5      0.370      1.013
REMARK SMILES Clc1ccccc1C(c1ccccc1)(c1ccccc1)n1ccnc1
REMARK SMILES IDX 1 1 2 2 3 3 4 4 5 5 6 6 7 7 8 8 9 9 10 10 14 11 11 12 13 13
REMARK SMILES IDX 12 14 15 15 16 16 20 17 17 18 19 19 18 20 21 21 22 22 25 23
REMARK SMILES IDX 23 24 24 25
REMARK H PARENT
ROOT
ATOM      1  Cl  UNL     1      24.936  13.442   1.723  1.00  0.00    -0.084 Cl
ATOM      2  C   UNL     1      24.378  15.093   1.571  1.00  0.00     0.047 A 
ATOM      3  C   UNL     1      24.638  15.842   0.446  1.00  0.00     0.021 A 
ATOM      4  C   UNL     1      24.172  17.131   0.309  1.00  0.00     0.002 A 
ATOM      5  C   UNL     1      23.432  17.661   1.337  1.00  0.00     0.001 A 
ATOM      6  C   UNL     1      23.168  16.898   2.483  1.00  0.00     0.008 A 
ATOM      7  C   UNL     1      23.632  15.626   2.610  1.00  0.00     0.006 A 
ENDROOT
BRANCH   7   8
ATOM      8  C   UNL     1      23.361  14.843   3.847  1.00  0.00     0.123 C 
BRANCH   8   9
ATOM      9  C   UNL     1      22.418  13.745   3.494  1.00  0.00    -0.013 A 
ATOM     10  C   UNL     1      21.761  13.611   2.314  1.00  0.00     0.007 A 
ATOM     11  C   UNL     1      22.235  12.777   4.500  1.00  0.00     0.007 A 
ATOM     12  C   UNL     1      20.925  12.526   2.121  1.00  0.00     0.000 A 
ATOM     13  C   UNL     1      21.405  11.705   4.300  1.00  0.00     0.000 A 
ATOM     14  C   UNL     1      20.736  11.560   3.109  1.00  0.00     0.000 A 
ENDBRANCH   8   9
BRANCH   8  15
ATOM     15  C   UNL     1      22.610  15.652   4.844  1.00  0.00    -0.013 A 
ATOM     16  C   UNL     1      21.408  16.253   4.575  1.00  0.00     0.007 A 
ATOM     17  C   UNL     1      23.131  15.785   6.106  1.00  0.00     0.007 A 
ATOM     18  C   UNL     1      20.717  16.984   5.534  1.00  0.00     0.000 A 
ATOM     19  C   UNL     1      22.451  16.520   7.091  1.00  0.00     0.000 A 
ATOM     20  C   UNL     1      21.254  17.109   6.793  1.00  0.00     0.000 A 
ENDBRANCH   8  15
BRANCH   8  21
ATOM     21  N   UNL     1      24.592  14.389   4.424  1.00  0.00    -0.319 N 
ATOM     22  C   UNL     1      25.669  15.167   4.720  1.00  0.00     0.109 A 
ATOM     23  C   UNL     1      24.899  13.146   4.793  1.00  0.00     0.200 A 
ATOM     24  C   UNL     1      26.651  14.380   5.278  1.00  0.00     0.131 A 
ATOM     25  N   UNL     1      26.155  13.149   5.312  1.00  0.00    -0.245 NA
ENDBRANCH   8  21
ENDBRANCH   7   8
TORSDOF 4
ENDMDL
MODEL 3
REMARK VINA RESULT:      -5.5      1.278      4.588
REMARK SMILES Clc1ccccc1C(c1ccccc1)(c1ccccc1)n1ccnc1
REMARK SMILES IDX 1 1 2 2 3 3 4 4 5 5 6 6 7 7 8 8 9 9 10 10 14 11 11 12 13 13
REMARK SMILES IDX 12 14 15 15 16 16 20 17 17 18 19 19 18 20 21 21 22 22 25 23
REMARK SMILES IDX 23 24 24 25
REMARK H PARENT
ROOT
ATOM      1  Cl  UNL     1      23.687  12.667   5.423  1.00  0.00    -0.084 Cl
ATOM      2  C   UNL     1      22.627  12.658   4.031  1.00  0.00     0.047 A 
ATOM      3  C   UNL     1      21.627  11.724   3.893  1.00  0.00     0.021 A 
ATOM      4  C   UNL     1      20.769  11.733   2.814  1.00  0.00     0.002 A 
ATOM      5  C   UNL     1      20.938  12.711   1.865  1.00  0.00     0.001 A 
ATOM      6  C   UNL     1      21.957  13.662   2.007  1.00  0.00     0.008 A 
ATOM      7  C   UNL     1      22.801  13.646   3.074  1.00  0.00     0.006 A 
ENDROOT
BRANCH   7   8
ATOM      8  C   UNL     1      23.892  14.651   3.191  1.00  0.00     0.123 C 
BRANCH   8   9
ATOM      9  C   UNL     1      23.619  15.483   4.397  1.00  0.00    -0.013 A 
ATOM     10  C   UNL     1      24.556  16.045   5.201  1.00  0.00     0.007 A 
ATOM     11  C   UNL     1      22.255  15.686   4.677  1.00  0.00     0.007 A 
ATOM     12  C   UNL     1      24.152  16.809   6.282  1.00  0.00     0.000 A 
ATOM     13  C   UNL     1      21.864  16.445   5.749  1.00  0.00     0.000 A 
ATOM     14  C   UNL     1      22.804  17.020   6.570  1.00  0.00     0.000 A 
ENDBRANCH   8   9
BRANCH   8  15
ATOM     15  C   UNL     1      23.850  15.626   2.068  1.00  0.00    -0.013 A 
ATOM     16  C   UNL     1      23.324  16.885   2.183  1.00  0.00     0.007 A 
ATOM     17  C   UNL     1      24.387  15.257   0.861  1.00  0.00     0.007 A 
ATOM     18  C   UNL     1      23.319  17.784   1.123  1.00  0.00     0.000 A 
ATOM     19  C   UNL     1      24.394  16.148  -0.226  1.00  0.00     0.000 A 
ATOM     20  C   UNL     1      23.860  17.399  -0.080  1.00  0.00     0.000 A 
ENDBRANCH   8  15
BRANCH   8  21
ATOM     21  N   UNL     1      25.166  13.996   3.213  1.00  0.00    -0.319 N 
ATOM     22  C   UNL     1      25.458  12.797   2.635  1.00  0.00     0.109 A 
ATOM     23  C   UNL     1      26.291  14.439   3.773  1.00  0.00     0.200 A 
ATOM     24  C   UNL     1      26.786  12.506   2.851  1.00  0.00     0.131 A 
ATOM     25  N   UNL     1      27.273  13.526   3.549  1.00  0.00    -0.245 NA
ENDBRANCH   8  21
ENDBRANCH   7   8
TORSDOF 4
ENDMDL
MODEL 4
REMARK VINA RESULT:      -5.4      3.016      4.483
REMARK SMILES Clc1ccccc1C(c1ccccc1)(c1ccccc1)n1ccnc1
REMARK SMILES IDX 1 1 2 2 3 3 4 4 5 5 6 6 7 7 8 8 9 9 10 10 14 11 11 12 13 13
REMARK SMILES IDX 12 14 15 15 16 16 20 17 17 18 19 19 18 20 21 21 22 22 25 23
REMARK SMILES IDX 23 24 24 25
REMARK H PARENT
ROOT
ATOM      1  Cl  UNL     1      22.983  14.022   4.167  1.00  0.00    -0.084 Cl
ATOM      2  C   UNL     1      22.191  15.120   5.275  1.00  0.00     0.047 A 
ATOM      3  C   UNL     1      21.523  16.237   4.829  1.00  0.00     0.021 A 
ATOM      4  C   UNL     1      20.870  17.087   5.696  1.00  0.00     0.002 A 
ATOM      5  C   UNL     1      20.903  16.790   7.036  1.00  0.00     0.001 A 
ATOM      6  C   UNL     1      21.585  15.653   7.489  1.00  0.00     0.008 A 
ATOM      7  C   UNL     1      22.227  14.819   6.627  1.00  0.00     0.006 A 
ENDROOT
BRANCH   7   8
ATOM      8  C   UNL     1      22.966  13.631   7.135  1.00  0.00     0.123 C 
BRANCH   8   9
ATOM      9  C   UNL     1      22.298  12.413   6.593  1.00  0.00    -0.013 A 
ATOM     10  C   UNL     1      22.908  11.238   6.298  1.00  0.00     0.007 A 
ATOM     11  C   UNL     1      20.908  12.538   6.402  1.00  0.00     0.007 A 
ATOM     12  C   UNL     1      22.154  10.184   5.814  1.00  0.00     0.000 A 
ATOM     13  C   UNL     1      20.169  11.488   5.924  1.00  0.00     0.000 A 
ATOM     14  C   UNL     1      20.777  10.293   5.621  1.00  0.00     0.000 A 
ENDBRANCH   8   9
BRANCH   8  15
ATOM     15  C   UNL     1      22.819  13.492   8.609  1.00  0.00    -0.013 A 
ATOM     16  C   UNL     1      23.633  14.126   9.509  1.00  0.00     0.007 A 
ATOM     17  C   UNL     1      21.802  12.710   9.095  1.00  0.00     0.007 A 
ATOM     18  C   UNL     1      23.458  13.997  10.882  1.00  0.00     0.000 A 
ATOM     19  C   UNL     1      21.606  12.564  10.478  1.00  0.00     0.000 A 
ATOM     20  C   UNL     1      22.436  13.209  11.353  1.00  0.00     0.000 A 
ENDBRANCH   8  15
BRANCH   8  21
ATOM     21  N   UNL     1      24.354  13.731   6.796  1.00  0.00    -0.319 N 
ATOM     22  C   UNL     1      25.221  12.689   6.665  1.00  0.00     0.109 A 
ATOM     23  C   UNL     1      25.041  14.841   6.529  1.00  0.00     0.200 A 
ATOM     24  C   UNL     1      26.460  13.177   6.312  1.00  0.00     0.131 A 
ATOM     25  N   UNL     1      26.322  14.496   6.235  1.00  0.00    -0.245 NA
ENDBRANCH   8  21
ENDBRANCH   7   8
TORSDOF 4
ENDMDL
MODEL 5
REMARK VINA RESULT:      -5.3      1.668      4.956
REMARK SMILES Clc1ccccc1C(c1ccccc1)(c1ccccc1)n1ccnc1
REMARK SMILES IDX 1 1 2 2 3 3 4 4 5 5 6 6 7 7 8 8 9 9 10 10 14 11 11 12 13 13
REMARK SMILES IDX 12 14 15 15 16 16 20 17 17 18 19 19 18 20 21 21 22 22 25 23
REMARK SMILES IDX 23 24 24 25
REMARK H PARENT
ROOT
ATOM      1  Cl  UNL     1      24.836  16.625   5.382  1.00  0.00    -0.084 Cl
ATOM      2  C   UNL     1      25.236  14.930   5.213  1.00  0.00     0.047 A 
ATOM      3  C   UNL     1      26.400  14.409   5.729  1.00  0.00     0.021 A 
ATOM      4  C   UNL     1      26.703  13.069   5.626  1.00  0.00     0.002 A 
ATOM      5  C   UNL     1      25.804  12.252   4.986  1.00  0.00     0.001 A 
ATOM      6  C   UNL     1      24.618  12.784   4.461  1.00  0.00     0.008 A 
ATOM      7  C   UNL     1      24.327  14.109   4.566  1.00  0.00     0.006 A 
ENDROOT
BRANCH   7   8
ATOM      8  C   UNL     1      23.073  14.655   3.978  1.00  0.00     0.123 C 
BRANCH   8   9
ATOM      9  C   UNL     1      22.293  15.290   5.077  1.00  0.00    -0.013 A 
ATOM     10  C   UNL     1      22.301  14.909   6.379  1.00  0.00     0.007 A 
ATOM     11  C   UNL     1      21.505  16.388   4.683  1.00  0.00     0.007 A 
ATOM     12  C   UNL     1      21.534  15.606   7.296  1.00  0.00     0.000 A 
ATOM     13  C   UNL     1      20.749  17.074   5.598  1.00  0.00     0.000 A 
ATOM     14  C   UNL     1      20.749  16.696   6.919  1.00  0.00     0.000 A 
ENDBRANCH   8   9
BRANCH   8  15
ATOM     15  C   UNL     1      22.184  13.565   3.493  1.00  0.00    -0.013 A 
ATOM     16  C   UNL     1      21.567  12.670   4.326  1.00  0.00     0.007 A 
ATOM     17  C   UNL     1      21.949  13.463   2.145  1.00  0.00     0.007 A 
ATOM     18  C   UNL     1      20.722  11.676   3.847  1.00  0.00     0.000 A 
ATOM     19  C   UNL     1      21.100  12.466   1.637  1.00  0.00     0.000 A 
ATOM     20  C   UNL     1      20.498  11.586   2.494  1.00  0.00     0.000 A 
ENDBRANCH   8  15
BRANCH   8  21
ATOM     21  N   UNL     1      23.382  15.542   2.896  1.00  0.00    -0.319 N 
ATOM     22  C   UNL     1      22.756  16.722   2.628  1.00  0.00     0.109 A 
ATOM     23  C   UNL     1      24.337  15.394   1.979  1.00  0.00     0.200 A 
ATOM     24  C   UNL     1      23.342  17.300   1.525  1.00  0.00     0.131 A 
ATOM     25  N   UNL     1      24.306  16.468   1.147  1.00  0.00    -0.245 NA
ENDBRANCH   8  21
ENDBRANCH   7   8
TORSDOF 4
ENDMDL
MODEL 6
REMARK VINA RESULT:      -5.3      1.760      5.015
REMARK SMILES Clc1ccccc1C(c1ccccc1)(c1ccccc1)n1ccnc1
REMARK SMILES IDX 1 1 2 2 3 3 4 4 5 5 6 6 7 7 8 8 9 9 10 10 14 11 11 12 13 13
REMARK SMILES IDX 12 14 15 15 16 16 20 17 17 18 19 19 18 20 21 21 22 22 25 23
REMARK SMILES IDX 23 24 24 25
REMARK H PARENT
ROOT
ATOM      1  Cl  UNL     1      22.569  12.900   5.981  1.00  0.00    -0.084 Cl
ATOM      2  C   UNL     1      21.968  14.531   5.787  1.00  0.00     0.047 A 
ATOM      3  C   UNL     1      21.194  15.134   6.752  1.00  0.00     0.021 A 
ATOM      4  C   UNL     1      20.746  16.430   6.617  1.00  0.00     0.002 A 
ATOM      5  C   UNL     1      21.094  17.117   5.481  1.00  0.00     0.001 A 
ATOM      6  C   UNL     1      21.883  16.503   4.499  1.00  0.00     0.008 A 
ATOM      7  C   UNL     1      22.320  15.222   4.639  1.00  0.00     0.006 A 
ENDROOT
BRANCH   7   8
ATOM      8  C   UNL     1      23.135  14.582   3.571  1.00  0.00     0.123 C 
BRANCH   8   9
ATOM      9  C   UNL     1      24.483  14.291   4.138  1.00  0.00    -0.013 A 
ATOM     10  C   UNL     1      25.209  13.166   3.921  1.00  0.00     0.007 A 
ATOM     11  C   UNL     1      25.013  15.311   4.951  1.00  0.00     0.007 A 
ATOM     12  C   UNL     1      26.458  13.042   4.504  1.00  0.00     0.000 A 
ATOM     13  C   UNL     1      26.251  15.179   5.524  1.00  0.00     0.000 A 
ATOM     14  C   UNL     1      26.995  14.044   5.311  1.00  0.00     0.000 A 
ENDBRANCH   8   9
BRANCH   8  15
ATOM     15  C   UNL     1      23.412  15.532   2.460  1.00  0.00    -0.013 A 
ATOM     16  C   UNL     1      23.058  16.855   2.494  1.00  0.00     0.007 A 
ATOM     17  C   UNL     1      24.078  15.069   1.353  1.00  0.00     0.007 A 
ATOM     18  C   UNL     1      23.351  17.725   1.451  1.00  0.00     0.000 A 
ATOM     19  C   UNL     1      24.385  15.930   0.286  1.00  0.00     0.000 A 
ATOM     20  C   UNL     1      24.017  17.245   0.349  1.00  0.00     0.000 A 
ENDBRANCH   8  15
BRANCH   8  21
ATOM     21  N   UNL     1      22.459  13.427   3.059  1.00  0.00    -0.319 N 
ATOM     22  C   UNL     1      22.969  12.166   2.997  1.00  0.00     0.109 A 
ATOM     23  C   UNL     1      21.217  13.367   2.578  1.00  0.00     0.200 A 
ATOM     24  C   UNL     1      22.018  11.323   2.465  1.00  0.00     0.131 A 
ATOM     25  N   UNL     1      20.957  12.082   2.218  1.00  0.00    -0.245 NA
ENDBRANCH   8  21
ENDBRANCH   7   8
TORSDOF 4
ENDMDL
MODEL 7
REMARK VINA RESULT:      -5.3      1.680      4.910
REMARK SMILES Clc1ccccc1C(c1ccccc1)(c1ccccc1)n1ccnc1
REMARK SMILES IDX 1 1 2 2 3 3 4 4 5 5 6 6 7 7 8 8 9 9 10 10 14 11 11 12 13 13
REMARK SMILES IDX 12 14 15 15 16 16 20 17 17 18 19 19 18 20 21 21 22 22 25 23
REMARK SMILES IDX 23 24 24 25
REMARK H PARENT
ROOT
ATOM      1  Cl  UNL     1      24.723  16.734   5.360  1.00  0.00    -0.084 Cl
ATOM      2  C   UNL     1      25.142  15.045   5.185  1.00  0.00     0.047 A 
ATOM      3  C   UNL     1      26.285  14.524   5.748  1.00  0.00     0.021 A 
ATOM      4  C   UNL     1      26.602  13.187   5.640  1.00  0.00     0.002 A 
ATOM      5  C   UNL     1      25.740  12.375   4.946  1.00  0.00     0.001 A 
ATOM      6  C   UNL     1      24.577  12.906   4.373  1.00  0.00     0.008 A 
ATOM      7  C   UNL     1      24.271  14.227   4.483  1.00  0.00     0.006 A 
ENDROOT
BRANCH   7   8
ATOM      8  C   UNL     1      23.043  14.774   3.845  1.00  0.00     0.123 C 
BRANCH   8   9
ATOM      9  C   UNL     1      22.233  15.437   4.906  1.00  0.00    -0.013 A 
ATOM     10  C   UNL     1      21.479  16.553   4.748  1.00  0.00     0.007 A 
ATOM     11  C   UNL     1      22.276  14.803   6.162  1.00  0.00     0.007 A 
ATOM     12  C   UNL     1      20.764  17.048   5.825  1.00  0.00     0.000 A 
ATOM     13  C   UNL     1      21.564  15.299   7.223  1.00  0.00     0.000 A 
ATOM     14  C   UNL     1      20.796  16.430   7.074  1.00  0.00     0.000 A 
ENDBRANCH   8   9
BRANCH   8  15
ATOM     15  C   UNL     1      22.160  13.684   3.350  1.00  0.00    -0.013 A 
ATOM     16  C   UNL     1      21.867  13.495   2.025  1.00  0.00     0.007 A 
ATOM     17  C   UNL     1      21.630  12.807   4.261  1.00  0.00     0.007 A 
ATOM     18  C   UNL     1      21.057  12.453   1.589  1.00  0.00     0.000 A 
ATOM     19  C   UNL     1      20.808  11.746   3.845  1.00  0.00     0.000 A 
ATOM     20  C   UNL     1      20.533  11.583   2.515  1.00  0.00     0.000 A 
ENDBRANCH   8  15
BRANCH   8  21
ATOM     21  N   UNL     1      23.396  15.639   2.758  1.00  0.00    -0.319 N 
ATOM     22  C   UNL     1      24.208  15.318   1.713  1.00  0.00     0.109 A 
ATOM     23  C   UNL     1      22.985  16.891   2.558  1.00  0.00     0.200 A 
ATOM     24  C   UNL     1      24.293  16.397   0.862  1.00  0.00     0.131 A 
ATOM     25  N   UNL     1      23.536  17.346   1.401  1.00  0.00    -0.245 NA
ENDBRANCH   8  21
ENDBRANCH   7   8
TORSDOF 4
ENDMDL
MODEL 8
REMARK VINA RESULT:      -5.2      2.880      4.359
REMARK SMILES Clc1ccccc1C(c1ccccc1)(c1ccccc1)n1ccnc1
REMARK SMILES IDX 1 1 2 2 3 3 4 4 5 5 6 6 7 7 8 8 9 9 10 10 14 11 11 12 13 13
REMARK SMILES IDX 12 14 15 15 16 16 20 17 17 18 19 19 18 20 21 21 22 22 25 23
REMARK SMILES IDX 23 24 24 25
REMARK H PARENT
ROOT
ATOM      1  Cl  UNL     1      22.913  14.053   3.988  1.00  0.00    -0.084 Cl
ATOM      2  C   UNL     1      22.157  15.162   5.110  1.00  0.00     0.047 A 
ATOM      3  C   UNL     1      21.516  16.300   4.678  1.00  0.00     0.021 A 
ATOM      4  C   UNL     1      20.891  17.159   5.556  1.00  0.00     0.002 A 
ATOM      5  C   UNL     1      20.923  16.848   6.893  1.00  0.00     0.001 A 
ATOM      6  C   UNL     1      21.576  15.689   7.333  1.00  0.00     0.008 A 
ATOM      7  C   UNL     1      22.192  14.846   6.459  1.00  0.00     0.006 A 
ENDROOT
BRANCH   7   8
ATOM      8  C   UNL     1      22.901  13.634   6.952  1.00  0.00     0.123 C 
BRANCH   8   9
ATOM      9  C   UNL     1      22.173  12.440   6.437  1.00  0.00    -0.013 A 
ATOM     10  C   UNL     1      22.737  11.256   6.089  1.00  0.00     0.007 A 
ATOM     11  C   UNL     1      20.778  12.598   6.333  1.00  0.00     0.007 A 
ATOM     12  C   UNL     1      21.931  10.226   5.639  1.00  0.00     0.000 A 
ATOM     13  C   UNL     1      19.987  11.571   5.888  1.00  0.00     0.000 A 
ATOM     14  C   UNL     1      20.548  10.368   5.533  1.00  0.00     0.000 A 
ENDBRANCH   8   9
BRANCH   8  15
ATOM     15  C   UNL     1      22.792  13.508   8.430  1.00  0.00    -0.013 A 
ATOM     16  C   UNL     1      21.824  12.766   9.054  1.00  0.00     0.007 A 
ATOM     17  C   UNL     1      23.722  14.146   9.211  1.00  0.00     0.007 A 
ATOM     18  C   UNL     1      21.761  12.647  10.437  1.00  0.00     0.000 A 
ATOM     19  C   UNL     1      23.678  14.041  10.612  1.00  0.00     0.000 A 
ATOM     20  C   UNL     1      22.699  13.293  11.205  1.00  0.00     0.000 A 
ENDBRANCH   8  15
BRANCH   8  21
ATOM     21  N   UNL     1      24.282  13.682   6.572  1.00  0.00    -0.319 N 
ATOM     22  C   UNL     1      25.010  14.811   6.352  1.00  0.00     0.109 A 
ATOM     23  C   UNL     1      25.103  12.649   6.388  1.00  0.00     0.200 A 
ATOM     24  C   UNL     1      26.300  14.457   6.026  1.00  0.00     0.131 A 
ATOM     25  N   UNL     1      26.331  13.130   6.055  1.00  0.00    -0.245 NA
ENDBRANCH   8  21
ENDBRANCH   7   8
TORSDOF 4
ENDMDL
MODEL 9
REMARK VINA RESULT:      -5.2      3.062      5.633
REMARK SMILES Clc1ccccc1C(c1ccccc1)(c1ccccc1)n1ccnc1
REMARK SMILES IDX 1 1 2 2 3 3 4 4 5 5 6 6 7 7 8 8 9 9 10 10 14 11 11 12 13 13
REMARK SMILES IDX 12 14 15 15 16 16 20 17 17 18 19 19 18 20 21 21 22 22 25 23
REMARK SMILES IDX 23 24 24 25
REMARK H PARENT
ROOT
ATOM      1  Cl  UNL     1      23.836  10.893   7.766  1.00  0.00    -0.084 Cl
ATOM      2  C   UNL     1      22.268  11.094   7.016  1.00  0.00     0.047 A 
ATOM      3  C   UNL     1      21.403  10.035   6.859  1.00  0.00     0.021 A 
ATOM      4  C   UNL     1      20.154  10.196   6.298  1.00  0.00     0.002 A 
ATOM      5  C   UNL     1      19.787  11.456   5.894  1.00  0.00     0.001 A 
ATOM      6  C   UNL     1      20.669  12.533   6.054  1.00  0.00     0.008 A 
ATOM      7  C   UNL     1      21.901  12.366   6.608  1.00  0.00     0.006 A 
ENDROOT
BRANCH   7   8
ATOM      8  C   UNL     1      22.830  13.520   6.745  1.00  0.00     0.123 C 
BRANCH   8   9
ATOM      9  C   UNL     1      23.101  13.717   8.197  1.00  0.00    -0.013 A 
ATOM     10  C   UNL     1      24.197  14.318   8.725  1.00  0.00     0.007 A 
ATOM     11  C   UNL     1      22.096  13.233   9.056  1.00  0.00     0.007 A 
ATOM     12  C   UNL     1      24.306  14.444  10.099  1.00  0.00     0.000 A 
ATOM     13  C   UNL     1      22.212  13.363  10.415  1.00  0.00     0.000 A 
ATOM     14  C   UNL     1      23.318  13.970  10.961  1.00  0.00     0.000 A 
ENDBRANCH   8   9
BRANCH   8  15
ATOM     15  C   UNL     1      22.178  14.791   6.328  1.00  0.00    -0.013 A 
ATOM     16  C   UNL     1      22.273  15.306   5.062  1.00  0.00     0.007 A 
ATOM     17  C   UNL     1      21.422  15.471   7.248  1.00  0.00     0.007 A 
ATOM     18  C   UNL     1      21.634  16.484   4.694  1.00  0.00     0.000 A 
ATOM     19  C   UNL     1      20.767  16.664   6.900  1.00  0.00     0.000 A 
ATOM     20  C   UNL     1      20.881  17.154   5.629  1.00  0.00     0.000 A 
ENDBRANCH   8  15
BRANCH   8  21
ATOM     21  N   UNL     1      24.007  13.302   5.958  1.00  0.00    -0.319 N 
ATOM     22  C   UNL     1      25.272  13.683   6.291  1.00  0.00     0.109 A 
ATOM     23  C   UNL     1      24.088  12.677   4.784  1.00  0.00     0.200 A 
ATOM     24  C   UNL     1      26.137  13.282   5.297  1.00  0.00     0.131 A 
ATOM     25  N   UNL     1      25.388  12.669   4.388  1.00  0.00    -0.245 NA
ENDBRANCH   8  21
ENDBRANCH   7   8
TORSDOF 4
ENDMDL
