MODEL 1
REMARK VINA RESULT:      -6.5      0.000      0.000
REMARK SMILES O=C1Nc2ccc(I)cc2/C1=C/c1cc(Br)c(O)c(Br)c1
REMARK SMILES IDX 13 1 14 2 15 3 16 4 17 5 19 6 20 7 21 8 12 9 1 10 2 11 3 12
REMARK SMILES IDX 11 13 4 14 10 15 5 16 9 17 6 18 7 19 8 21 18 22
REMARK H PARENT 3 20 18 23
ROOT
ATOM      1  C   UNL     1     -11.785  -5.478  18.133  1.00  0.00    -0.022 A 
ATOM      2  C   UNL     1     -11.659  -6.783  18.493  1.00  0.00     0.027 A 
ATOM      3  C   UNL     1     -12.585  -7.327  19.366  1.00  0.00     0.061 A 
ATOM      4  Br  UNL     1     -12.405  -9.165  19.871  1.00  0.00    -0.047 Br
ATOM      5  C   UNL     1     -13.630  -6.577  19.878  1.00  0.00     0.143 A 
ATOM      6  C   UNL     1     -13.724  -5.268  19.493  1.00  0.00     0.061 A 
ATOM      7  Br  UNL     1     -15.141  -4.168  20.160  1.00  0.00    -0.047 Br
ATOM      8  C   UNL     1     -12.819  -4.710  18.630  1.00  0.00     0.027 A 
ENDROOT
BRANCH   1   9
ATOM      9  C   UNL     1     -10.889  -4.822  17.195  1.00  0.00     0.022 C 
ATOM     10  O   UNL     1     -13.220  -5.941  15.619  1.00  0.00    -0.269 OA
ATOM     11  C   UNL     1     -12.230  -5.329  15.153  1.00  0.00     0.256 C 
ATOM     12  N   UNL     1     -11.992  -5.036  13.765  1.00  0.00    -0.321 N 
ATOM     13  C   UNL     1     -11.110  -4.776  15.896  1.00  0.00     0.050 C 
ATOM     14  C   UNL     1     -10.754  -4.317  13.637  1.00  0.00     0.049 A 
ATOM     15  C   UNL     1     -10.219  -4.157  14.909  1.00  0.00     0.012 A 
ATOM     16  C   UNL     1     -10.121  -3.828  12.508  1.00  0.00     0.028 A 
ATOM     17  C   UNL     1      -9.010  -3.475  14.986  1.00  0.00     0.025 A 
ATOM     18  C   UNL     1      -8.918  -3.157  12.650  1.00  0.00     0.017 A 
ATOM     19  C   UNL     1      -8.347  -2.973  13.891  1.00  0.00     0.014 A 
ATOM     20  H   UNL     1     -12.636  -5.319  13.016  1.00  0.00     0.170 HD
ATOM     21  I   UNL     1      -6.508  -1.944  14.090  1.00  0.00    -0.044 I 
ENDBRANCH   1   9
BRANCH   5  22
ATOM     22  O   UNL     1     -14.556  -7.135  20.754  1.00  0.00    -0.506 OA
ATOM     23  H   UNL     1     -15.539  -6.909  20.660  1.00  0.00     0.293 HD
ENDBRANCH   5  22
TORSDOF 2
ENDMDL
MODEL 2
REMARK VINA RESULT:      -6.5      5.579      7.752
REMARK SMILES O=C1Nc2ccc(I)cc2/C1=C/c1cc(Br)c(O)c(Br)c1
REMARK SMILES IDX 13 1 14 2 15 3 16 4 17 5 19 6 20 7 21 8 12 9 1 10 2 11 3 12
REMARK SMILES IDX 11 13 4 14 10 15 5 16 9 17 6 18 7 19 8 21 18 22
REMARK H PARENT 3 20 18 23
ROOT
ATOM      1  C   UNL     1      -6.593  -2.490  15.555  1.00  0.00    -0.022 A 
ATOM      2  C   UNL     1      -5.416  -3.132  15.324  1.00  0.00     0.027 A 
ATOM      3  C   UNL     1      -4.265  -2.380  15.170  1.00  0.00     0.061 A 
ATOM      4  Br  UNL     1      -2.610  -3.287  14.847  1.00  0.00    -0.047 Br
ATOM      5  C   UNL     1      -4.282  -0.998  15.245  1.00  0.00     0.143 A 
ATOM      6  C   UNL     1      -5.484  -0.387  15.478  1.00  0.00     0.061 A 
ATOM      7  Br  UNL     1      -5.588   1.520  15.593  1.00  0.00    -0.047 Br
ATOM      8  C   UNL     1      -6.635  -1.112  15.634  1.00  0.00     0.027 A 
ENDROOT
BRANCH   1   9
ATOM      9  C   UNL     1      -7.850  -3.186  15.767  1.00  0.00     0.022 C 
ATOM     10  O   UNL     1      -7.637  -2.536  12.817  1.00  0.00    -0.269 OA
ATOM     11  C   UNL     1      -8.594  -3.111  13.386  1.00  0.00     0.256 C 
ATOM     12  N   UNL     1      -9.799  -3.578  12.754  1.00  0.00    -0.321 N 
ATOM     13  C   UNL     1      -8.708  -3.442  14.797  1.00  0.00     0.050 C 
ATOM     14  C   UNL     1     -10.649  -4.187  13.741  1.00  0.00     0.049 A 
ATOM     15  C   UNL     1     -10.002  -4.109  14.968  1.00  0.00     0.012 A 
ATOM     16  C   UNL     1     -11.895  -4.772  13.605  1.00  0.00     0.028 A 
ATOM     17  C   UNL     1     -10.677  -4.653  16.054  1.00  0.00     0.025 A 
ATOM     18  C   UNL     1     -12.517  -5.297  14.725  1.00  0.00     0.017 A 
ATOM     19  C   UNL     1     -11.915  -5.244  15.964  1.00  0.00     0.014 A 
ATOM     20  H   UNL     1      -9.980  -3.471  11.748  1.00  0.00     0.170 HD
ATOM     21  I   UNL     1     -12.880  -6.053  17.666  1.00  0.00    -0.044 I 
ENDBRANCH   1   9
BRANCH   5  22
ATOM     22  O   UNL     1      -3.118  -0.253  15.091  1.00  0.00    -0.506 OA
ATOM     23  H   UNL     1      -2.443  -0.209  15.845  1.00  0.00     0.293 HD
ENDBRANCH   5  22
TORSDOF 2
ENDMDL
MODEL 3
REMARK VINA RESULT:      -6.4      0.308      2.048
REMARK SMILES O=C1Nc2ccc(I)cc2/C1=C/c1cc(Br)c(O)c(Br)c1
REMARK SMILES IDX 13 1 14 2 15 3 16 4 17 5 19 6 20 7 21 8 12 9 1 10 2 11 3 12
REMARK SMILES IDX 11 13 4 14 10 15 5 16 9 17 6 18 7 19 8 21 18 22
REMARK H PARENT 3 20 18 23
ROOT
ATOM      1  C   UNL     1     -11.785  -5.497  18.114  1.00  0.00    -0.022 A 
ATOM      2  C   UNL     1     -12.903  -4.909  18.619  1.00  0.00     0.027 A 
ATOM      3  C   UNL     1     -13.667  -5.607  19.538  1.00  0.00     0.061 A 
ATOM      4  Br  UNL     1     -15.239  -4.777  20.248  1.00  0.00    -0.047 Br
ATOM      5  C   UNL     1     -13.322  -6.883  19.952  1.00  0.00     0.143 A 
ATOM      6  C   UNL     1     -12.191  -7.441  19.421  1.00  0.00     0.061 A 
ATOM      7  Br  UNL     1     -11.652  -9.201  19.944  1.00  0.00    -0.047 Br
ATOM      8  C   UNL     1     -11.421  -6.768  18.512  1.00  0.00     0.027 A 
ENDROOT
BRANCH   1   9
ATOM      9  C   UNL     1     -10.896  -4.836  17.174  1.00  0.00     0.022 C 
ATOM     10  O   UNL     1     -13.224  -5.973  15.605  1.00  0.00    -0.269 OA
ATOM     11  C   UNL     1     -12.239  -5.355  15.136  1.00  0.00     0.256 C 
ATOM     12  N   UNL     1     -12.006  -5.064  13.747  1.00  0.00    -0.321 N 
ATOM     13  C   UNL     1     -11.120  -4.794  15.875  1.00  0.00     0.050 C 
ATOM     14  C   UNL     1     -10.773  -4.337  13.614  1.00  0.00     0.049 A 
ATOM     15  C   UNL     1     -10.236  -4.171  14.884  1.00  0.00     0.012 A 
ATOM     16  C   UNL     1     -10.145  -3.845  12.483  1.00  0.00     0.028 A 
ATOM     17  C   UNL     1      -9.031  -3.482  14.957  1.00  0.00     0.025 A 
ATOM     18  C   UNL     1      -8.947  -3.167  12.620  1.00  0.00     0.017 A 
ATOM     19  C   UNL     1      -8.374  -2.977  13.860  1.00  0.00     0.014 A 
ATOM     20  H   UNL     1     -12.650  -5.351  13.000  1.00  0.00     0.170 HD
ATOM     21  I   UNL     1      -6.541  -1.936  14.053  1.00  0.00    -0.044 I 
ENDBRANCH   1   9
BRANCH   5  22
ATOM     22  O   UNL     1     -14.097  -7.574  20.877  1.00  0.00    -0.506 OA
ATOM     23  H   UNL     1     -14.602  -7.065  21.593  1.00  0.00     0.293 HD
ENDBRANCH   5  22
TORSDOF 2
ENDMDL
MODEL 4
REMARK VINA RESULT:      -6.4      5.582      8.004
REMARK SMILES O=C1Nc2ccc(I)cc2/C1=C/c1cc(Br)c(O)c(Br)c1
REMARK SMILES IDX 13 1 14 2 15 3 16 4 17 5 19 6 20 7 21 8 12 9 1 10 2 11 3 12
REMARK SMILES IDX 11 13 4 14 10 15 5 16 9 17 6 18 7 19 8 21 18 22
REMARK H PARENT 3 20 18 23
ROOT
ATOM      1  C   UNL     1      -6.632  -2.416  15.691  1.00  0.00    -0.022 A 
ATOM      2  C   UNL     1      -6.534  -1.061  15.739  1.00  0.00     0.027 A 
ATOM      3  C   UNL     1      -5.303  -0.472  15.511  1.00  0.00     0.061 A 
ATOM      4  Br  UNL     1      -5.168   1.436  15.578  1.00  0.00    -0.047 Br
ATOM      5  C   UNL     1      -4.174  -1.227  15.238  1.00  0.00     0.143 A 
ATOM      6  C   UNL     1      -4.312  -2.587  15.199  1.00  0.00     0.061 A 
ATOM      7  Br  UNL     1      -2.797  -3.696  14.829  1.00  0.00    -0.047 Br
ATOM      8  C   UNL     1      -5.521  -3.190  15.421  1.00  0.00     0.027 A 
ENDROOT
BRANCH   1   9
ATOM      9  C   UNL     1      -7.883  -3.130  15.880  1.00  0.00     0.022 C 
ATOM     10  O   UNL     1      -7.629  -2.467  12.936  1.00  0.00    -0.269 OA
ATOM     11  C   UNL     1      -8.588  -3.057  13.487  1.00  0.00     0.256 C 
ATOM     12  N   UNL     1      -9.775  -3.538  12.833  1.00  0.00    -0.321 N 
ATOM     13  C   UNL     1      -8.721  -3.394  14.895  1.00  0.00     0.050 C 
ATOM     14  C   UNL     1     -10.634  -4.161  13.804  1.00  0.00     0.049 A 
ATOM     15  C   UNL     1     -10.009  -4.079  15.042  1.00  0.00     0.012 A 
ATOM     16  C   UNL     1     -11.870  -4.763  13.645  1.00  0.00     0.028 A 
ATOM     17  C   UNL     1     -10.694  -4.636  16.115  1.00  0.00     0.025 A 
ATOM     18  C   UNL     1     -12.503  -5.299  14.753  1.00  0.00     0.017 A 
ATOM     19  C   UNL     1     -11.923  -5.242  16.002  1.00  0.00     0.014 A 
ATOM     20  H   UNL     1      -9.941  -3.430  11.825  1.00  0.00     0.170 HD
ATOM     21  I   UNL     1     -12.905  -6.070  17.685  1.00  0.00    -0.044 I 
ENDBRANCH   1   9
BRANCH   5  22
ATOM     22  O   UNL     1      -2.942  -0.623  15.009  1.00  0.00    -0.506 OA
ATOM     23  H   UNL     1      -2.309  -0.460  15.783  1.00  0.00     0.293 HD
ENDBRANCH   5  22
TORSDOF 2
ENDMDL
MODEL 5
REMARK VINA RESULT:      -6.1      6.184      8.281
REMARK SMILES O=C1Nc2ccc(I)cc2/C1=C/c1cc(Br)c(O)c(Br)c1
REMARK SMILES IDX 13 1 14 2 15 3 16 4 17 5 19 6 20 7 21 8 12 9 1 10 2 11 3 12
REMARK SMILES IDX 11 13 4 14 10 15 5 16 9 17 6 18 7 19 8 21 18 22
REMARK H PARENT 3 20 18 23
ROOT
ATOM      1  C   UNL     1      -5.461  -2.313  15.842  1.00  0.00    -0.022 A 
ATOM      2  C   UNL     1      -4.325  -3.035  15.650  1.00  0.00     0.027 A 
ATOM      3  C   UNL     1      -3.106  -2.382  15.682  1.00  0.00     0.061 A 
ATOM      4  Br  UNL     1      -1.508  -3.402  15.413  1.00  0.00    -0.047 Br
ATOM      5  C   UNL     1      -3.016  -1.018  15.904  1.00  0.00     0.143 A 
ATOM      6  C   UNL     1      -4.180  -0.325  16.091  1.00  0.00     0.061 A 
ATOM      7  Br  UNL     1      -4.136   1.563  16.401  1.00  0.00    -0.047 Br
ATOM      8  C   UNL     1      -5.397  -0.952  16.064  1.00  0.00     0.027 A 
ENDROOT
BRANCH   1   9
ATOM      9  C   UNL     1      -6.787  -2.907  15.863  1.00  0.00     0.022 C 
ATOM     10  O   UNL     1      -6.179  -2.102  13.008  1.00  0.00    -0.269 OA
ATOM     11  C   UNL     1      -7.240  -2.624  13.426  1.00  0.00     0.256 C 
ATOM     12  N   UNL     1      -8.396  -2.944  12.632  1.00  0.00    -0.321 N 
ATOM     13  C   UNL     1      -7.543  -3.027  14.789  1.00  0.00     0.050 C 
ATOM     14  C   UNL     1      -9.402  -3.533  13.474  1.00  0.00     0.049 A 
ATOM     15  C   UNL     1      -8.899  -3.587  14.768  1.00  0.00     0.012 A 
ATOM     16  C   UNL     1     -10.667  -3.997  13.160  1.00  0.00     0.028 A 
ATOM     17  C   UNL     1      -9.737  -4.134  15.732  1.00  0.00     0.025 A 
ATOM     18  C   UNL     1     -11.456  -4.531  14.164  1.00  0.00     0.017 A 
ATOM     19  C   UNL     1     -11.000  -4.606  15.464  1.00  0.00     0.014 A 
ATOM     20  H   UNL     1      -8.450  -2.760  11.623  1.00  0.00     0.170 HD
ATOM     21  I   UNL     1     -12.219  -5.428  16.987  1.00  0.00    -0.044 I 
ENDBRANCH   1   9
BRANCH   5  22
ATOM     22  O   UNL     1      -1.784  -0.373  15.935  1.00  0.00    -0.506 OA
ATOM     23  H   UNL     1      -1.538   0.279  15.200  1.00  0.00     0.293 HD
ENDBRANCH   5  22
TORSDOF 2
ENDMDL
MODEL 6
REMARK VINA RESULT:      -6.1      6.289      8.641
REMARK SMILES O=C1Nc2ccc(I)cc2/C1=C/c1cc(Br)c(O)c(Br)c1
REMARK SMILES IDX 13 1 14 2 15 3 16 4 17 5 19 6 20 7 21 8 12 9 1 10 2 11 3 12
REMARK SMILES IDX 11 13 4 14 10 15 5 16 9 17 6 18 7 19 8 21 18 22
REMARK H PARENT 3 20 18 23
ROOT
ATOM      1  C   UNL     1      -5.383  -2.071  15.924  1.00  0.00    -0.022 A 
ATOM      2  C   UNL     1      -5.208  -0.732  16.081  1.00  0.00     0.027 A 
ATOM      3  C   UNL     1      -3.923  -0.218  16.050  1.00  0.00     0.061 A 
ATOM      4  Br  UNL     1      -3.680   1.668  16.269  1.00  0.00    -0.047 Br
ATOM      5  C   UNL     1      -2.818  -1.032  15.865  1.00  0.00     0.143 A 
ATOM      6  C   UNL     1      -3.034  -2.374  15.712  1.00  0.00     0.061 A 
ATOM      7  Br  UNL     1      -1.556  -3.562  15.453  1.00  0.00    -0.047 Br
ATOM      8  C   UNL     1      -4.297  -2.903  15.738  1.00  0.00     0.027 A 
ENDROOT
BRANCH   1   9
ATOM      9  C   UNL     1      -6.690  -2.705  15.905  1.00  0.00     0.022 C 
ATOM     10  O   UNL     1      -5.992  -1.934  13.061  1.00  0.00    -0.269 OA
ATOM     11  C   UNL     1      -7.052  -2.481  13.446  1.00  0.00     0.256 C 
ATOM     12  N   UNL     1      -8.165  -2.851  12.614  1.00  0.00    -0.321 N 
ATOM     13  C   UNL     1      -7.398  -2.868  14.804  1.00  0.00     0.050 C 
ATOM     14  C   UNL     1      -9.186  -3.455  13.426  1.00  0.00     0.049 A 
ATOM     15  C   UNL     1      -8.734  -3.470  14.740  1.00  0.00     0.012 A 
ATOM     16  C   UNL     1     -10.423  -3.963  13.071  1.00  0.00     0.028 A 
ATOM     17  C   UNL     1      -9.595  -4.024  15.680  1.00  0.00     0.025 A 
ATOM     18  C   UNL     1     -11.235  -4.503  14.053  1.00  0.00     0.017 A 
ATOM     19  C   UNL     1     -10.831  -4.540  15.371  1.00  0.00     0.014 A 
ATOM     20  H   UNL     1      -8.183  -2.688  11.600  1.00  0.00     0.170 HD
ATOM     21  I   UNL     1     -12.085  -5.370  16.861  1.00  0.00    -0.044 I 
ENDBRANCH   1   9
BRANCH   5  22
ATOM     22  O   UNL     1      -1.532  -0.504  15.834  1.00  0.00    -0.506 OA
ATOM     23  H   UNL     1      -1.016  -0.382  16.697  1.00  0.00     0.293 HD
ENDBRANCH   5  22
TORSDOF 2
ENDMDL
MODEL 7
REMARK VINA RESULT:      -5.9      7.866      9.452
REMARK SMILES O=C1Nc2ccc(I)cc2/C1=C/c1cc(Br)c(O)c(Br)c1
REMARK SMILES IDX 13 1 14 2 15 3 16 4 17 5 19 6 20 7 21 8 12 9 1 10 2 11 3 12
REMARK SMILES IDX 11 13 4 14 10 15 5 16 9 17 6 18 7 19 8 21 18 22
REMARK H PARENT 3 20 18 23
ROOT
ATOM      1  C   UNL     1     -14.611   3.416  18.338  1.00  0.00    -0.022 A 
ATOM      2  C   UNL     1     -15.272   4.095  19.314  1.00  0.00     0.027 A 
ATOM      3  C   UNL     1     -16.241   5.012  18.949  1.00  0.00     0.061 A 
ATOM      4  Br  UNL     1     -17.170   5.966  20.324  1.00  0.00    -0.047 Br
ATOM      5  C   UNL     1     -16.553   5.254  17.621  1.00  0.00     0.143 A 
ATOM      6  C   UNL     1     -15.866   4.552  16.668  1.00  0.00     0.061 A 
ATOM      7  Br  UNL     1     -16.240   4.833  14.813  1.00  0.00    -0.047 Br
ATOM      8  C   UNL     1     -14.904   3.640  17.007  1.00  0.00     0.027 A 
ENDROOT
BRANCH   1   9
ATOM      9  C   UNL     1     -13.603   2.407  18.615  1.00  0.00     0.022 C 
ATOM     10  O   UNL     1     -16.236   0.984  18.157  1.00  0.00    -0.269 OA
ATOM     11  C   UNL     1     -15.140   0.449  18.447  1.00  0.00     0.256 C 
ATOM     12  N   UNL     1     -14.907  -0.959  18.630  1.00  0.00    -0.321 N 
ATOM     13  C   UNL     1     -13.865   1.115  18.658  1.00  0.00     0.050 C 
ATOM     14  C   UNL     1     -13.522  -1.174  18.949  1.00  0.00     0.049 A 
ATOM     15  C   UNL     1     -12.891   0.064  18.967  1.00  0.00     0.012 A 
ATOM     16  C   UNL     1     -12.838  -2.349  19.206  1.00  0.00     0.028 A 
ATOM     17  C   UNL     1     -11.532   0.057  19.259  1.00  0.00     0.025 A 
ATOM     18  C   UNL     1     -11.485  -2.290  19.490  1.00  0.00     0.017 A 
ATOM     19  C   UNL     1     -10.814  -1.086  19.520  1.00  0.00     0.014 A 
ATOM     20  H   UNL     1     -15.648  -1.664  18.539  1.00  0.00     0.170 HD
ATOM     21  I   UNL     1      -8.743  -1.015  19.954  1.00  0.00    -0.044 I 
ENDBRANCH   1   9
BRANCH   5  22
ATOM     22  O   UNL     1     -17.530   6.177  17.267  1.00  0.00    -0.506 OA
ATOM     23  H   UNL     1     -17.386   6.782  16.467  1.00  0.00     0.293 HD
ENDBRANCH   5  22
TORSDOF 2
ENDMDL
MODEL 8
REMARK VINA RESULT:      -5.9      7.001      8.604
REMARK SMILES O=C1Nc2ccc(I)cc2/C1=C/c1cc(Br)c(O)c(Br)c1
REMARK SMILES IDX 13 1 14 2 15 3 16 4 17 5 19 6 20 7 21 8 12 9 1 10 2 11 3 12
REMARK SMILES IDX 11 13 4 14 10 15 5 16 9 17 6 18 7 19 8 21 18 22
REMARK H PARENT 3 20 18 23
ROOT
ATOM      1  C   UNL     1      -4.341  -3.358  15.965  1.00  0.00    -0.022 A 
ATOM      2  C   UNL     1      -3.165  -3.643  15.344  1.00  0.00     0.027 A 
ATOM      3  C   UNL     1      -1.998  -3.637  16.089  1.00  0.00     0.061 A 
ATOM      4  Br  UNL     1      -0.345  -4.039  15.212  1.00  0.00    -0.047 Br
ATOM      5  C   UNL     1      -2.000  -3.349  17.443  1.00  0.00     0.143 A 
ATOM      6  C   UNL     1      -3.202  -3.066  18.032  1.00  0.00     0.061 A 
ATOM      7  Br  UNL     1      -3.284  -2.657  19.900  1.00  0.00    -0.047 Br
ATOM      8  C   UNL     1      -4.368  -3.067  17.315  1.00  0.00     0.027 A 
ENDROOT
BRANCH   1   9
ATOM      9  C   UNL     1      -5.624  -3.373  15.284  1.00  0.00     0.022 C 
ATOM     10  O   UNL     1      -4.407  -0.626  14.905  1.00  0.00    -0.269 OA
ATOM     11  C   UNL     1      -5.523  -1.012  14.483  1.00  0.00     0.256 C 
ATOM     12  N   UNL     1      -6.463  -0.224  13.733  1.00  0.00    -0.321 N 
ATOM     13  C   UNL     1      -6.116  -2.330  14.645  1.00  0.00     0.050 C 
ATOM     14  C   UNL     1      -7.620  -1.024  13.431  1.00  0.00     0.049 A 
ATOM     15  C   UNL     1      -7.419  -2.287  13.973  1.00  0.00     0.012 A 
ATOM     16  C   UNL     1      -8.771  -0.699  12.736  1.00  0.00     0.028 A 
ATOM     17  C   UNL     1      -8.441  -3.209  13.780  1.00  0.00     0.025 A 
ATOM     18  C   UNL     1      -9.753  -1.661  12.576  1.00  0.00     0.017 A 
ATOM     19  C   UNL     1      -9.601  -2.929  13.097  1.00  0.00     0.014 A 
ATOM     20  H   UNL     1      -6.293   0.756  13.476  1.00  0.00     0.170 HD
ATOM     21  I   UNL     1     -11.112  -4.389  12.841  1.00  0.00    -0.044 I 
ENDBRANCH   1   9
BRANCH   5  22
ATOM     22  O   UNL     1      -0.822  -3.347  18.181  1.00  0.00    -0.506 OA
ATOM     23  H   UNL     1      -0.787  -3.818  19.077  1.00  0.00     0.293 HD
ENDBRANCH   5  22
TORSDOF 2
ENDMDL
MODEL 9
REMARK VINA RESULT:      -5.8      1.868      2.839
REMARK SMILES O=C1Nc2ccc(I)cc2/C1=C/c1cc(Br)c(O)c(Br)c1
REMARK SMILES IDX 13 1 14 2 15 3 16 4 17 5 19 6 20 7 21 8 12 9 1 10 2 11 3 12
REMARK SMILES IDX 11 13 4 14 10 15 5 16 9 17 6 18 7 19 8 21 18 22
REMARK H PARENT 3 20 18 23
ROOT
ATOM      1  C   UNL     1     -10.867  -5.666  19.159  1.00  0.00    -0.022 A 
ATOM      2  C   UNL     1     -11.531  -4.951  20.107  1.00  0.00     0.027 A 
ATOM      3  C   UNL     1     -11.837  -5.562  21.310  1.00  0.00     0.061 A 
ATOM      4  Br  UNL     1     -12.771  -4.553  22.642  1.00  0.00    -0.047 Br
ATOM      5  C   UNL     1     -11.486  -6.876  21.570  1.00  0.00     0.143 A 
ATOM      6  C   UNL     1     -10.820  -7.563  20.592  1.00  0.00     0.061 A 
ATOM      7  Br  UNL     1     -10.304  -9.383  20.878  1.00  0.00    -0.047 Br
ATOM      8  C   UNL     1     -10.506  -6.977  19.395  1.00  0.00     0.027 A 
ENDROOT
BRANCH   1   9
ATOM      9  C   UNL     1     -10.466  -5.108  17.878  1.00  0.00     0.022 C 
ATOM     10  O   UNL     1     -13.212  -6.337  17.534  1.00  0.00    -0.269 OA
ATOM     11  C   UNL     1     -12.526  -5.781  16.643  1.00  0.00     0.256 C 
ATOM     12  N   UNL     1     -12.902  -5.618  15.264  1.00  0.00    -0.321 N 
ATOM     13  C   UNL     1     -11.213  -5.177  16.794  1.00  0.00     0.050 C 
ATOM     14  C   UNL     1     -11.852  -4.929  14.564  1.00  0.00     0.049 A 
ATOM     15  C   UNL     1     -10.837  -4.660  15.474  1.00  0.00     0.012 A 
ATOM     16  C   UNL     1     -11.765  -4.551  13.236  1.00  0.00     0.028 A 
ATOM     17  C   UNL     1      -9.726  -3.990  14.975  1.00  0.00     0.025 A 
ATOM     18  C   UNL     1     -10.633  -3.886  12.799  1.00  0.00     0.017 A 
ATOM     19  C   UNL     1      -9.598  -3.597  13.664  1.00  0.00     0.014 A 
ATOM     20  H   UNL     1     -13.793  -5.959  14.884  1.00  0.00     0.170 HD
ATOM     21  I   UNL     1      -7.874  -2.576  12.980  1.00  0.00    -0.044 I 
ENDBRANCH   1   9
BRANCH   5  22
ATOM     22  O   UNL     1     -11.799  -7.478  22.784  1.00  0.00    -0.506 OA
ATOM     23  H   UNL     1     -12.763  -7.693  23.007  1.00  0.00     0.293 HD
ENDBRANCH   5  22
TORSDOF 2
ENDMDL
