MODEL 1
REMARK VINA RESULT:      -5.3      0.000      0.000
REMARK SMILES Clc1ccc(COC(Cn2ccnc2)c2ccc(Cl)cc2Cl)c(Cl)c1
REMARK SMILES IDX 7 1 6 2 5 3 2 4 3 5 25 6 4 7 23 8 1 9 24 10 8 11 9 12 10 13
REMARK SMILES IDX 11 14 14 15 12 16 13 17 15 18 16 19 21 20 17 21 20 22 18 23
REMARK SMILES IDX 22 24 19 25
REMARK H PARENT
ROOT
ATOM      1  O   UNL     1     -25.373  25.565   9.362  1.00  0.00    -0.367 OA
ENDROOT
BRANCH   1   2
ATOM      2  C   UNL     1     -24.804  25.127  10.496  1.00  0.00     0.198 C 
BRANCH   2   3
ATOM      3  C   UNL     1     -23.333  24.981  10.425  1.00  0.00    -0.004 A 
ATOM      4  C   UNL     1     -20.532  24.805  10.001  1.00  0.00     0.042 A 
ATOM      5  C   UNL     1     -21.304  25.786   9.403  1.00  0.00     0.021 A 
ATOM      6  C   UNL     1     -21.197  23.919  10.813  1.00  0.00     0.041 A 
ATOM      7  C   UNL     1     -22.660  25.890   9.593  1.00  0.00     0.009 A 
ATOM      8  C   UNL     1     -22.582  24.014  11.018  1.00  0.00     0.048 A 
ATOM      9  Cl  UNL     1     -18.799  24.691   9.733  1.00  0.00    -0.084 Cl
ATOM     10  Cl  UNL     1     -23.360  22.910  12.148  1.00  0.00    -0.084 Cl
ENDBRANCH   2   3
ENDBRANCH   1   2
BRANCH   1  11
ATOM     11  C   UNL     1     -26.643  25.524   9.009  1.00  0.00     0.170 C 
BRANCH  11  12
ATOM     12  C   UNL     1     -27.139  26.988   8.906  1.00  0.00     0.160 C 
BRANCH  12  13
ATOM     13  N   UNL     1     -27.988  27.257  10.024  1.00  0.00    -0.335 N 
ATOM     14  C   UNL     1     -28.010  28.355  10.796  1.00  0.00     0.107 A 
ATOM     15  C   UNL     1     -28.924  26.394  10.469  1.00  0.00     0.199 A 
ATOM     16  C   UNL     1     -28.995  28.133  11.735  1.00  0.00     0.130 A 
ATOM     17  N   UNL     1     -29.540  26.925  11.514  1.00  0.00    -0.245 NA
ENDBRANCH  12  13
ENDBRANCH  11  12
BRANCH  11  18
ATOM     18  C   UNL     1     -26.852  24.885   7.648  1.00  0.00     0.001 A 
ATOM     19  C   UNL     1     -26.913  25.639   6.501  1.00  0.00     0.009 A 
ATOM     20  C   UNL     1     -26.991  23.524   7.547  1.00  0.00     0.048 A 
ATOM     21  C   UNL     1     -27.113  25.015   5.261  1.00  0.00     0.021 A 
ATOM     22  C   UNL     1     -27.188  22.893   6.320  1.00  0.00     0.041 A 
ATOM     23  C   UNL     1     -27.250  23.650   5.165  1.00  0.00     0.042 A 
ATOM     24  Cl  UNL     1     -26.912  22.578   9.022  1.00  0.00    -0.084 Cl
ATOM     25  Cl  UNL     1     -27.503  22.866   3.614  1.00  0.00    -0.084 Cl
ENDBRANCH  11  18
ENDBRANCH   1  11
TORSDOF 6
ENDMDL
MODEL 2
REMARK VINA RESULT:      -5.2      2.070      2.791
REMARK SMILES Clc1ccc(COC(Cn2ccnc2)c2ccc(Cl)cc2Cl)c(Cl)c1
REMARK SMILES IDX 7 1 6 2 5 3 2 4 3 5 25 6 4 7 23 8 1 9 24 10 8 11 9 12 10 13
REMARK SMILES IDX 11 14 14 15 12 16 13 17 15 18 16 19 21 20 17 21 20 22 18 23
REMARK SMILES IDX 22 24 19 25
REMARK H PARENT
ROOT
ATOM      1  O   UNL     1     -25.475  27.848   9.793  1.00  0.00    -0.367 OA
ENDROOT
BRANCH   1   2
ATOM      2  C   UNL     1     -24.474  27.959  10.680  1.00  0.00     0.198 C 
BRANCH   2   3
ATOM      3  C   UNL     1     -23.411  26.941  10.533  1.00  0.00    -0.004 A 
ATOM      4  C   UNL     1     -21.334  25.092   9.965  1.00  0.00     0.042 A 
ATOM      5  C   UNL     1     -21.359  26.360   9.410  1.00  0.00     0.021 A 
ATOM      6  C   UNL     1     -22.371  24.776  10.809  1.00  0.00     0.041 A 
ATOM      7  C   UNL     1     -22.354  27.270   9.671  1.00  0.00     0.009 A 
ATOM      8  C   UNL     1     -23.393  25.697  11.085  1.00  0.00     0.048 A 
ATOM      9  Cl  UNL     1     -20.051  23.944   9.608  1.00  0.00    -0.084 Cl
ATOM     10  Cl  UNL     1     -24.642  25.270  12.251  1.00  0.00    -0.084 Cl
ENDBRANCH   2   3
ENDBRANCH   1   2
BRANCH   1  11
ATOM     11  C   UNL     1     -26.712  27.440   9.993  1.00  0.00     0.170 C 
BRANCH  11  12
ATOM     12  C   UNL     1     -27.636  28.324   9.117  1.00  0.00     0.160 C 
BRANCH  12  13
ATOM     13  N   UNL     1     -27.972  29.500   9.858  1.00  0.00    -0.335 N 
ATOM     14  C   UNL     1     -27.942  30.774   9.438  1.00  0.00     0.107 A 
ATOM     15  C   UNL     1     -28.383  29.474  11.142  1.00  0.00     0.199 A 
ATOM     16  C   UNL     1     -28.350  31.532  10.515  1.00  0.00     0.130 A 
ATOM     17  N   UNL     1     -28.613  30.714  11.547  1.00  0.00    -0.245 NA
ENDBRANCH  12  13
ENDBRANCH  11  12
BRANCH  11  18
ATOM     18  C   UNL     1     -26.932  26.002   9.562  1.00  0.00     0.001 A 
ATOM     19  C   UNL     1     -26.414  25.516   8.385  1.00  0.00     0.009 A 
ATOM     20  C   UNL     1     -27.666  25.157  10.355  1.00  0.00     0.048 A 
ATOM     21  C   UNL     1     -26.642  24.183   8.017  1.00  0.00     0.021 A 
ATOM     22  C   UNL     1     -27.897  23.829   9.999  1.00  0.00     0.041 A 
ATOM     23  C   UNL     1     -27.377  23.339   8.816  1.00  0.00     0.042 A 
ATOM     24  Cl  UNL     1     -28.320  25.795  11.852  1.00  0.00    -0.084 Cl
ATOM     25  Cl  UNL     1     -27.666  21.669   8.355  1.00  0.00    -0.084 Cl
ENDBRANCH  11  18
ENDBRANCH   1  11
TORSDOF 6
ENDMDL
MODEL 3
REMARK VINA RESULT:      -5.1      6.354      9.612
REMARK SMILES Clc1ccc(COC(Cn2ccnc2)c2ccc(Cl)cc2Cl)c(Cl)c1
REMARK SMILES IDX 7 1 6 2 5 3 2 4 3 5 25 6 4 7 23 8 1 9 24 10 8 11 9 12 10 13
REMARK SMILES IDX 11 14 14 15 12 16 13 17 15 18 16 19 21 20 17 21 20 22 18 23
REMARK SMILES IDX 22 24 19 25
REMARK H PARENT
ROOT
ATOM      1  O   UNL     1     -25.408  21.844   2.724  1.00  0.00    -0.367 OA
ENDROOT
BRANCH   1   2
ATOM      2  C   UNL     1     -26.668  22.219   2.993  1.00  0.00     0.198 C 
BRANCH   2   3
ATOM      3  C   UNL     1     -26.783  23.305   3.992  1.00  0.00    -0.004 A 
ATOM      4  C   UNL     1     -27.218  25.217   6.043  1.00  0.00     0.042 A 
ATOM      5  C   UNL     1     -27.353  23.858   6.268  1.00  0.00     0.021 A 
ATOM      6  C   UNL     1     -26.862  25.592   4.771  1.00  0.00     0.041 A 
ATOM      7  C   UNL     1     -27.147  22.915   5.290  1.00  0.00     0.009 A 
ATOM      8  C   UNL     1     -26.647  24.639   3.763  1.00  0.00     0.048 A 
ATOM      9  Cl  UNL     1     -27.496  26.403   7.311  1.00  0.00    -0.084 Cl
ATOM     10  Cl  UNL     1     -26.095  25.175   2.179  1.00  0.00    -0.084 Cl
ENDBRANCH   2   3
ENDBRANCH   1   2
BRANCH   1  11
ATOM     11  C   UNL     1     -24.887  21.478   1.569  1.00  0.00     0.170 C 
BRANCH  11  12
ATOM     12  C   UNL     1     -23.879  22.577   1.151  1.00  0.00     0.160 C 
BRANCH  12  13
ATOM     13  N   UNL     1     -24.218  23.025  -0.164  1.00  0.00    -0.335 N 
ATOM     14  C   UNL     1     -23.400  23.544  -1.094  1.00  0.00     0.107 A 
ATOM     15  C   UNL     1     -25.471  22.984  -0.661  1.00  0.00     0.199 A 
ATOM     16  C   UNL     1     -24.201  23.820  -2.182  1.00  0.00     0.130 A 
ATOM     17  N   UNL     1     -25.464  23.469  -1.893  1.00  0.00    -0.245 NA
ENDBRANCH  12  13
ENDBRANCH  11  12
BRANCH  11  18
ATOM     18  C   UNL     1     -24.114  20.175   1.662  1.00  0.00     0.001 A 
ATOM     19  C   UNL     1     -22.803  20.144   2.073  1.00  0.00     0.009 A 
ATOM     20  C   UNL     1     -24.725  18.993   1.327  1.00  0.00     0.048 A 
ATOM     21  C   UNL     1     -22.119  18.922   2.142  1.00  0.00     0.021 A 
ATOM     22  C   UNL     1     -24.055  17.773   1.393  1.00  0.00     0.041 A 
ATOM     23  C   UNL     1     -22.736  17.740   1.806  1.00  0.00     0.042 A 
ATOM     24  Cl  UNL     1     -26.398  19.053   0.804  1.00  0.00    -0.084 Cl
ATOM     25  Cl  UNL     1     -21.880  16.208   1.888  1.00  0.00    -0.084 Cl
ENDBRANCH  11  18
ENDBRANCH   1  11
TORSDOF 6
ENDMDL
MODEL 4
REMARK VINA RESULT:      -5.1      1.748      2.517
REMARK SMILES Clc1ccc(COC(Cn2ccnc2)c2ccc(Cl)cc2Cl)c(Cl)c1
REMARK SMILES IDX 7 1 6 2 5 3 2 4 3 5 25 6 4 7 23 8 1 9 24 10 8 11 9 12 10 13
REMARK SMILES IDX 11 14 14 15 12 16 13 17 15 18 16 19 21 20 17 21 20 22 18 23
REMARK SMILES IDX 22 24 19 25
REMARK H PARENT
ROOT
ATOM      1  O   UNL     1     -25.027  26.118  11.010  1.00  0.00    -0.367 OA
ENDROOT
BRANCH   1   2
ATOM      2  C   UNL     1     -23.829  26.131  10.404  1.00  0.00     0.198 C 
BRANCH   2   3
ATOM      3  C   UNL     1     -23.033  24.899  10.599  1.00  0.00    -0.004 A 
ATOM      4  C   UNL     1     -21.672  22.488  11.225  1.00  0.00     0.042 A 
ATOM      5  C   UNL     1     -23.010  22.673  11.525  1.00  0.00     0.021 A 
ATOM      6  C   UNL     1     -21.036  23.537  10.605  1.00  0.00     0.041 A 
ATOM      7  C   UNL     1     -23.689  23.831  11.231  1.00  0.00     0.009 A 
ATOM      8  C   UNL     1     -21.717  24.725  10.298  1.00  0.00     0.048 A 
ATOM      9  Cl  UNL     1     -20.826  20.999  11.619  1.00  0.00    -0.084 Cl
ATOM     10  Cl  UNL     1     -20.874  25.994   9.415  1.00  0.00    -0.084 Cl
ENDBRANCH   2   3
ENDBRANCH   1   2
BRANCH   1  11
ATOM     11  C   UNL     1     -26.211  26.390  10.498  1.00  0.00     0.170 C 
BRANCH  11  12
ATOM     12  C   UNL     1     -26.123  27.798   9.858  1.00  0.00     0.160 C 
BRANCH  12  13
ATOM     13  N   UNL     1     -27.294  28.534  10.221  1.00  0.00    -0.335 N 
ATOM     14  C   UNL     1     -27.994  28.456  11.364  1.00  0.00     0.107 A 
ATOM     15  C   UNL     1     -27.874  29.448   9.416  1.00  0.00     0.199 A 
ATOM     16  C   UNL     1     -29.029  29.358  11.230  1.00  0.00     0.130 A 
ATOM     17  N   UNL     1     -28.935  29.952  10.029  1.00  0.00    -0.245 NA
ENDBRANCH  12  13
ENDBRANCH  11  12
BRANCH  11  18
ATOM     18  C   UNL     1     -26.611  25.423   9.399  1.00  0.00     0.001 A 
ATOM     19  C   UNL     1     -26.478  25.750   8.070  1.00  0.00     0.009 A 
ATOM     20  C   UNL     1     -27.122  24.193   9.724  1.00  0.00     0.048 A 
ATOM     21  C   UNL     1     -26.863  24.834   7.081  1.00  0.00     0.021 A 
ATOM     22  C   UNL     1     -27.506  23.274   8.749  1.00  0.00     0.041 A 
ATOM     23  C   UNL     1     -27.373  23.601   7.413  1.00  0.00     0.042 A 
ATOM     24  Cl  UNL     1     -27.286  23.795  11.424  1.00  0.00    -0.084 Cl
ATOM     25  Cl  UNL     1     -27.859  22.452   6.176  1.00  0.00    -0.084 Cl
ENDBRANCH  11  18
ENDBRANCH   1  11
TORSDOF 6
ENDMDL
MODEL 5
REMARK VINA RESULT:      -5.1      5.729      8.686
REMARK SMILES Clc1ccc(COC(Cn2ccnc2)c2ccc(Cl)cc2Cl)c(Cl)c1
REMARK SMILES IDX 7 1 6 2 5 3 2 4 3 5 25 6 4 7 23 8 1 9 24 10 8 11 9 12 10 13
REMARK SMILES IDX 11 14 14 15 12 16 13 17 15 18 16 19 21 20 17 21 20 22 18 23
REMARK SMILES IDX 22 24 19 25
REMARK H PARENT
ROOT
ATOM      1  O   UNL     1     -25.899  21.717   3.712  1.00  0.00    -0.367 OA
ENDROOT
BRANCH   1   2
ATOM      2  C   UNL     1     -27.118  22.053   4.160  1.00  0.00     0.198 C 
BRANCH   2   3
ATOM      3  C   UNL     1     -27.114  23.038   5.264  1.00  0.00    -0.004 A 
ATOM      4  C   UNL     1     -26.935  25.107   7.199  1.00  0.00     0.042 A 
ATOM      5  C   UNL     1     -26.961  25.374   5.842  1.00  0.00     0.021 A 
ATOM      6  C   UNL     1     -27.001  23.783   7.561  1.00  0.00     0.041 A 
ATOM      7  C   UNL     1     -27.047  24.389   4.887  1.00  0.00     0.009 A 
ATOM      8  C   UNL     1     -27.091  22.767   6.598  1.00  0.00     0.048 A 
ATOM      9  Cl  UNL     1     -26.817  26.387   8.398  1.00  0.00    -0.084 Cl
ATOM     10  Cl  UNL     1     -27.273  21.097   7.125  1.00  0.00    -0.084 Cl
ENDBRANCH   2   3
ENDBRANCH   1   2
BRANCH   1  11
ATOM     11  C   UNL     1     -25.463  21.669   2.469  1.00  0.00     0.170 C 
BRANCH  11  12
ATOM     12  C   UNL     1     -24.648  22.963   2.217  1.00  0.00     0.160 C 
BRANCH  12  13
ATOM     13  N   UNL     1     -24.733  23.287   0.827  1.00  0.00    -0.335 N 
ATOM     14  C   UNL     1     -23.724  23.452  -0.043  1.00  0.00     0.107 A 
ATOM     15  C   UNL     1     -25.901  23.481   0.181  1.00  0.00     0.199 A 
ATOM     16  C   UNL     1     -24.318  23.756  -1.251  1.00  0.00     0.130 A 
ATOM     17  N   UNL     1     -25.650  23.768  -1.088  1.00  0.00    -0.245 NA
ENDBRANCH  12  13
ENDBRANCH  11  12
BRANCH  11  18
ATOM     18  C   UNL     1     -24.530  20.498   2.219  1.00  0.00     0.001 A 
ATOM     19  C   UNL     1     -23.221  20.520   2.638  1.00  0.00     0.009 A 
ATOM     20  C   UNL     1     -24.990  19.388   1.558  1.00  0.00     0.048 A 
ATOM     21  C   UNL     1     -22.387  19.422   2.385  1.00  0.00     0.021 A 
ATOM     22  C   UNL     1     -24.170  18.291   1.303  1.00  0.00     0.041 A 
ATOM     23  C   UNL     1     -22.853  18.310   1.723  1.00  0.00     0.042 A 
ATOM     24  Cl  UNL     1     -26.663  19.380   1.030  1.00  0.00    -0.084 Cl
ATOM     25  Cl  UNL     1     -21.809  16.935   1.403  1.00  0.00    -0.084 Cl
ENDBRANCH  11  18
ENDBRANCH   1  11
TORSDOF 6
ENDMDL
MODEL 6
REMARK VINA RESULT:      -5.1      5.416      8.557
REMARK SMILES Clc1ccc(COC(Cn2ccnc2)c2ccc(Cl)cc2Cl)c(Cl)c1
REMARK SMILES IDX 7 1 6 2 5 3 2 4 3 5 25 6 4 7 23 8 1 9 24 10 8 11 9 12 10 13
REMARK SMILES IDX 11 14 14 15 12 16 13 17 15 18 16 19 21 20 17 21 20 22 18 23
REMARK SMILES IDX 22 24 19 25
REMARK H PARENT
ROOT
ATOM      1  O   UNL     1     -26.639  21.780   2.955  1.00  0.00    -0.367 OA
ENDROOT
BRANCH   1   2
ATOM      2  C   UNL     1     -27.415  22.728   3.505  1.00  0.00     0.198 C 
BRANCH   2   3
ATOM      3  C   UNL     1     -27.203  22.926   4.956  1.00  0.00    -0.004 A 
ATOM      4  C   UNL     1     -26.953  23.047   7.780  1.00  0.00     0.042 A 
ATOM      5  C   UNL     1     -26.989  21.843   7.099  1.00  0.00     0.021 A 
ATOM      6  C   UNL     1     -27.044  24.183   7.014  1.00  0.00     0.041 A 
ATOM      7  C   UNL     1     -27.109  21.761   5.733  1.00  0.00     0.009 A 
ATOM      8  C   UNL     1     -27.166  24.115   5.618  1.00  0.00     0.048 A 
ATOM      9  Cl  UNL     1     -26.806  23.122   9.531  1.00  0.00    -0.084 Cl
ATOM     10  Cl  UNL     1     -27.179  25.606   4.682  1.00  0.00    -0.084 Cl
ENDBRANCH   2   3
ENDBRANCH   1   2
BRANCH   1  11
ATOM     11  C   UNL     1     -25.733  21.906   2.007  1.00  0.00     0.170 C 
BRANCH  11  12
ATOM     12  C   UNL     1     -24.885  23.158   2.343  1.00  0.00     0.160 C 
BRANCH  12  13
ATOM     13  N   UNL     1     -24.989  24.081   1.256  1.00  0.00    -0.335 N 
ATOM     14  C   UNL     1     -24.975  23.810  -0.058  1.00  0.00     0.107 A 
ATOM     15  C   UNL     1     -25.119  25.413   1.425  1.00  0.00     0.199 A 
ATOM     16  C   UNL     1     -25.101  25.028  -0.692  1.00  0.00     0.130 A 
ATOM     17  N   UNL     1     -25.187  25.994   0.236  1.00  0.00    -0.245 NA
ENDBRANCH  12  13
ENDBRANCH  11  12
BRANCH  11  18
ATOM     18  C   UNL     1     -24.781  20.726   1.945  1.00  0.00     0.001 A 
ATOM     19  C   UNL     1     -23.501  20.807   2.439  1.00  0.00     0.009 A 
ATOM     20  C   UNL     1     -25.193  19.545   1.380  1.00  0.00     0.048 A 
ATOM     21  C   UNL     1     -22.648  19.697   2.360  1.00  0.00     0.021 A 
ATOM     22  C   UNL     1     -24.354  18.436   1.298  1.00  0.00     0.041 A 
ATOM     23  C   UNL     1     -23.066  18.516   1.795  1.00  0.00     0.042 A 
ATOM     24  Cl  UNL     1     -26.829  19.462   0.753  1.00  0.00    -0.084 Cl
ATOM     25  Cl  UNL     1     -21.998  17.125   1.692  1.00  0.00    -0.084 Cl
ENDBRANCH  11  18
ENDBRANCH   1  11
TORSDOF 6
ENDMDL
MODEL 7
REMARK VINA RESULT:      -5.1      7.238     10.683
REMARK SMILES Clc1ccc(COC(Cn2ccnc2)c2ccc(Cl)cc2Cl)c(Cl)c1
REMARK SMILES IDX 7 1 6 2 5 3 2 4 3 5 25 6 4 7 23 8 1 9 24 10 8 11 9 12 10 13
REMARK SMILES IDX 11 14 14 15 12 16 13 17 15 18 16 19 21 20 17 21 20 22 18 23
REMARK SMILES IDX 22 24 19 25
REMARK H PARENT
ROOT
ATOM      1  O   UNL     1     -24.595  22.245   0.317  1.00  0.00    -0.367 OA
ENDROOT
BRANCH   1   2
ATOM      2  C   UNL     1     -25.383  22.335  -0.766  1.00  0.00     0.198 C 
BRANCH   2   3
ATOM      3  C   UNL     1     -25.905  23.693  -1.033  1.00  0.00    -0.004 A 
ATOM      4  C   UNL     1     -27.171  26.164  -1.619  1.00  0.00     0.042 A 
ATOM      5  C   UNL     1     -27.868  25.091  -1.091  1.00  0.00     0.021 A 
ATOM      6  C   UNL     1     -25.830  25.969  -1.843  1.00  0.00     0.041 A 
ATOM      7  C   UNL     1     -27.276  23.886  -0.800  1.00  0.00     0.009 A 
ATOM      8  C   UNL     1     -25.212  24.745  -1.550  1.00  0.00     0.048 A 
ATOM      9  Cl  UNL     1     -27.957  27.693  -1.989  1.00  0.00    -0.084 Cl
ATOM     10  Cl  UNL     1     -23.471  24.587  -1.766  1.00  0.00    -0.084 Cl
ENDBRANCH   2   3
ENDBRANCH   1   2
BRANCH   1  11
ATOM     11  C   UNL     1     -24.896  21.798   1.519  1.00  0.00     0.170 C 
BRANCH  11  12
ATOM     12  C   UNL     1     -23.571  21.363   2.194  1.00  0.00     0.160 C 
BRANCH  12  13
ATOM     13  N   UNL     1     -23.390  19.961   1.974  1.00  0.00    -0.335 N 
ATOM     14  C   UNL     1     -22.243  19.265   2.000  1.00  0.00     0.107 A 
ATOM     15  C   UNL     1     -24.406  19.118   1.695  1.00  0.00     0.199 A 
ATOM     16  C   UNL     1     -22.593  17.959   1.726  1.00  0.00     0.130 A 
ATOM     17  N   UNL     1     -23.921  17.895   1.543  1.00  0.00    -0.245 NA
ENDBRANCH  12  13
ENDBRANCH  11  12
BRANCH  11  18
ATOM     18  C   UNL     1     -25.517  22.864   2.403  1.00  0.00     0.001 A 
ATOM     19  C   UNL     1     -25.115  24.177   2.337  1.00  0.00     0.009 A 
ATOM     20  C   UNL     1     -26.501  22.523   3.296  1.00  0.00     0.048 A 
ATOM     21  C   UNL     1     -25.708  25.134   3.172  1.00  0.00     0.021 A 
ATOM     22  C   UNL     1     -27.097  23.466   4.130  1.00  0.00     0.041 A 
ATOM     23  C   UNL     1     -26.695  24.787   4.065  1.00  0.00     0.042 A 
ATOM     24  Cl  UNL     1     -26.999  20.843   3.367  1.00  0.00    -0.084 Cl
ATOM     25  Cl  UNL     1     -27.437  25.984   5.115  1.00  0.00    -0.084 Cl
ENDBRANCH  11  18
ENDBRANCH   1  11
TORSDOF 6
ENDMDL
MODEL 8
REMARK VINA RESULT:      -5.0      7.485     10.597
REMARK SMILES Clc1ccc(COC(Cn2ccnc2)c2ccc(Cl)cc2Cl)c(Cl)c1
REMARK SMILES IDX 7 1 6 2 5 3 2 4 3 5 25 6 4 7 23 8 1 9 24 10 8 11 9 12 10 13
REMARK SMILES IDX 11 14 14 15 12 16 13 17 15 18 16 19 21 20 17 21 20 22 18 23
REMARK SMILES IDX 22 24 19 25
REMARK H PARENT
ROOT
ATOM      1  O   UNL     1     -23.725  21.961   0.394  1.00  0.00    -0.367 OA
ENDROOT
BRANCH   1   2
ATOM      2  C   UNL     1     -23.842  20.931  -0.458  1.00  0.00     0.198 C 
BRANCH   2   3
ATOM      3  C   UNL     1     -23.247  19.666   0.025  1.00  0.00    -0.004 A 
ATOM      4  C   UNL     1     -22.163  17.340   1.238  1.00  0.00     0.042 A 
ATOM      5  C   UNL     1     -23.219  18.035   1.801  1.00  0.00     0.021 A 
ATOM      6  C   UNL     1     -21.667  17.837   0.057  1.00  0.00     0.041 A 
ATOM      7  C   UNL     1     -23.760  19.162   1.232  1.00  0.00     0.009 A 
ATOM      8  C   UNL     1     -22.210  18.987  -0.536  1.00  0.00     0.048 A 
ATOM      9  Cl  UNL     1     -21.486  15.903   1.991  1.00  0.00    -0.084 Cl
ATOM     10  Cl  UNL     1     -21.597  19.519  -2.099  1.00  0.00    -0.084 Cl
ENDBRANCH   2   3
ENDBRANCH   1   2
BRANCH   1  11
ATOM     11  C   UNL     1     -24.427  23.075   0.441  1.00  0.00     0.170 C 
BRANCH  11  12
ATOM     12  C   UNL     1     -25.536  22.966  -0.636  1.00  0.00     0.160 C 
BRANCH  12  13
ATOM     13  N   UNL     1     -25.336  24.004  -1.598  1.00  0.00    -0.335 N 
ATOM     14  C   UNL     1     -24.172  24.509  -2.035  1.00  0.00     0.107 A 
ATOM     15  C   UNL     1     -26.348  24.642  -2.221  1.00  0.00     0.199 A 
ATOM     16  C   UNL     1     -24.507  25.484  -2.950  1.00  0.00     0.130 A 
ATOM     17  N   UNL     1     -25.845  25.547  -3.047  1.00  0.00    -0.245 NA
ENDBRANCH  12  13
ENDBRANCH  11  12
BRANCH  11  18
ATOM     18  C   UNL     1     -25.120  23.276   1.776  1.00  0.00     0.001 A 
ATOM     19  C   UNL     1     -25.562  22.212   2.525  1.00  0.00     0.009 A 
ATOM     20  C   UNL     1     -25.320  24.545   2.258  1.00  0.00     0.048 A 
ATOM     21  C   UNL     1     -26.203  22.435   3.751  1.00  0.00     0.021 A 
ATOM     22  C   UNL     1     -25.954  24.779   3.476  1.00  0.00     0.041 A 
ATOM     23  C   UNL     1     -26.399  23.709   4.230  1.00  0.00     0.042 A 
ATOM     24  Cl  UNL     1     -24.750  25.891   1.288  1.00  0.00    -0.084 Cl
ATOM     25  Cl  UNL     1     -27.204  23.993   5.766  1.00  0.00    -0.084 Cl
ENDBRANCH  11  18
ENDBRANCH   1  11
TORSDOF 6
ENDMDL
MODEL 9
REMARK VINA RESULT:      -5.0      1.793      6.013
REMARK SMILES Clc1ccc(COC(Cn2ccnc2)c2ccc(Cl)cc2Cl)c(Cl)c1
REMARK SMILES IDX 7 1 6 2 5 3 2 4 3 5 25 6 4 7 23 8 1 9 24 10 8 11 9 12 10 13
REMARK SMILES IDX 11 14 14 15 12 16 13 17 15 18 16 19 21 20 17 21 20 22 18 23
REMARK SMILES IDX 22 24 19 25
REMARK H PARENT
ROOT
ATOM      1  O   UNL     1     -26.386  25.626   9.182  1.00  0.00    -0.367 OA
ENDROOT
BRANCH   1   2
ATOM      2  C   UNL     1     -26.682  25.787   7.883  1.00  0.00     0.198 C 
BRANCH   2   3
ATOM      3  C   UNL     1     -26.997  24.532   7.167  1.00  0.00    -0.004 A 
ATOM      4  C   UNL     1     -27.422  21.980   5.998  1.00  0.00     0.042 A 
ATOM      5  C   UNL     1     -27.226  22.139   7.359  1.00  0.00     0.021 A 
ATOM      6  C   UNL     1     -27.400  23.127   5.241  1.00  0.00     0.041 A 
ATOM      7  C   UNL     1     -27.019  23.364   7.946  1.00  0.00     0.009 A 
ATOM      8  C   UNL     1     -27.191  24.384   5.828  1.00  0.00     0.048 A 
ATOM      9  Cl  UNL     1     -27.678  20.400   5.272  1.00  0.00    -0.084 Cl
ATOM     10  Cl  UNL     1     -27.273  25.826   4.821  1.00  0.00    -0.084 Cl
ENDBRANCH   2   3
ENDBRANCH   1   2
BRANCH   1  11
ATOM     11  C   UNL     1     -25.422  26.190   9.883  1.00  0.00     0.170 C 
BRANCH  11  12
ATOM     12  C   UNL     1     -26.068  26.780  11.162  1.00  0.00     0.160 C 
BRANCH  12  13
ATOM     13  N   UNL     1     -26.911  27.870  10.781  1.00  0.00    -0.335 N 
ATOM     14  C   UNL     1     -26.606  28.909   9.987  1.00  0.00     0.107 A 
ATOM     15  C   UNL     1     -28.188  28.000  11.197  1.00  0.00     0.199 A 
ATOM     16  C   UNL     1     -27.746  29.683   9.932  1.00  0.00     0.130 A 
ATOM     17  N   UNL     1     -28.700  29.106  10.681  1.00  0.00    -0.245 NA
ENDBRANCH  12  13
ENDBRANCH  11  12
BRANCH  11  18
ATOM     18  C   UNL     1     -24.366  25.197  10.333  1.00  0.00     0.001 A 
ATOM     19  C   UNL     1     -24.707  23.966  10.841  1.00  0.00     0.009 A 
ATOM     20  C   UNL     1     -23.037  25.524  10.240  1.00  0.00     0.048 A 
ATOM     21  C   UNL     1     -23.705  23.076  11.252  1.00  0.00     0.021 A 
ATOM     22  C   UNL     1     -22.034  24.646  10.644  1.00  0.00     0.041 A 
ATOM     23  C   UNL     1     -22.374  23.408  11.156  1.00  0.00     0.042 A 
ATOM     24  Cl  UNL     1     -22.623  27.100   9.591  1.00  0.00    -0.084 Cl
ATOM     25  Cl  UNL     1     -21.117  22.296  11.673  1.00  0.00    -0.084 Cl
ENDBRANCH  11  18
ENDBRANCH   1  11
TORSDOF 6
ENDMDL
