MODEL 1
REMARK VINA RESULT:      -5.7      0.000      0.000
REMARK SMILES O=C1Nc2ccc(I)cc2/C1=C/c1cc(Br)c(O)c(Br)c1
REMARK SMILES IDX 13 1 14 2 15 3 16 4 17 5 19 6 20 7 21 8 12 9 1 10 2 11 3 12
REMARK SMILES IDX 11 13 4 14 10 15 5 16 9 17 6 18 7 19 8 21 18 22
REMARK H PARENT 3 20 18 23
ROOT
ATOM      1  C   UNL     1     -26.032  25.470   9.810  1.00  0.00    -0.022 A 
ATOM      2  C   UNL     1     -26.551  26.579  10.401  1.00  0.00     0.027 A 
ATOM      3  C   UNL     1     -27.330  27.436   9.645  1.00  0.00     0.061 A 
ATOM      4  Br  UNL     1     -28.060  28.996  10.481  1.00  0.00    -0.047 Br
ATOM      5  C   UNL     1     -27.591  27.193   8.307  1.00  0.00     0.143 A 
ATOM      6  C   UNL     1     -27.052  26.068   7.746  1.00  0.00     0.061 A 
ATOM      7  Br  UNL     1     -27.368  25.666   5.903  1.00  0.00    -0.047 Br
ATOM      8  C   UNL     1     -26.279  25.206   8.477  1.00  0.00     0.027 A 
ENDROOT
BRANCH   1   9
ATOM      9  C   UNL     1     -25.233  24.488  10.523  1.00  0.00     0.022 C 
ATOM     10  O   UNL     1     -23.359  26.625   9.478  1.00  0.00    -0.269 OA
ATOM     11  C   UNL     1     -23.035  25.599  10.122  1.00  0.00     0.256 C 
ATOM     12  N   UNL     1     -21.698  25.220  10.494  1.00  0.00    -0.321 N 
ATOM     13  C   UNL     1     -23.922  24.570  10.641  1.00  0.00     0.050 C 
ATOM     14  C   UNL     1     -21.742  23.984  11.227  1.00  0.00     0.049 A 
ATOM     15  C   UNL     1     -23.070  23.588  11.320  1.00  0.00     0.012 A 
ATOM     16  C   UNL     1     -20.715  23.241  11.783  1.00  0.00     0.028 A 
ATOM     17  C   UNL     1     -23.313  22.403  12.004  1.00  0.00     0.025 A 
ATOM     18  C   UNL     1     -21.021  22.068  12.453  1.00  0.00     0.017 A 
ATOM     19  C   UNL     1     -22.324  21.634  12.571  1.00  0.00     0.014 A 
ATOM     20  H   UNL     1     -20.870  25.777  10.250  1.00  0.00     0.170 HD
ATOM     21  I   UNL     1     -22.774  19.839  13.600  1.00  0.00    -0.044 I 
ENDBRANCH   1   9
BRANCH   5  22
ATOM     22  O   UNL     1     -28.377  28.062   7.557  1.00  0.00    -0.506 OA
ATOM     23  H   UNL     1     -29.165  28.529   7.989  1.00  0.00     0.293 HD
ENDBRANCH   5  22
TORSDOF 2
ENDMDL
MODEL 2
REMARK VINA RESULT:      -5.6      0.186      2.046
REMARK SMILES O=C1Nc2ccc(I)cc2/C1=C/c1cc(Br)c(O)c(Br)c1
REMARK SMILES IDX 13 1 14 2 15 3 16 4 17 5 19 6 20 7 21 8 12 9 1 10 2 11 3 12
REMARK SMILES IDX 11 13 4 14 10 15 5 16 9 17 6 18 7 19 8 21 18 22
REMARK H PARENT 3 20 18 23
ROOT
ATOM      1  C   UNL     1     -26.100  25.225   9.655  1.00  0.00    -0.022 A 
ATOM      2  C   UNL     1     -26.335  25.078   8.324  1.00  0.00     0.027 A 
ATOM      3  C   UNL     1     -27.080  26.042   7.668  1.00  0.00     0.061 A 
ATOM      4  Br  UNL     1     -27.407  25.834   5.793  1.00  0.00    -0.047 Br
ATOM      5  C   UNL     1     -27.590  27.145   8.331  1.00  0.00     0.143 A 
ATOM      6  C   UNL     1     -27.334  27.258   9.670  1.00  0.00     0.061 A 
ATOM      7  Br  UNL     1     -28.007  28.754  10.655  1.00  0.00    -0.047 Br
ATOM      8  C   UNL     1     -26.598  26.316  10.339  1.00  0.00     0.027 A 
ENDROOT
BRANCH   1   9
ATOM      9  C   UNL     1     -25.300  24.291  10.429  1.00  0.00     0.022 C 
ATOM     10  O   UNL     1     -23.469  26.502   9.467  1.00  0.00    -0.269 OA
ATOM     11  C   UNL     1     -23.136  25.500  10.143  1.00  0.00     0.256 C 
ATOM     12  N   UNL     1     -21.808  25.189  10.599  1.00  0.00    -0.321 N 
ATOM     13  C   UNL     1     -24.004  24.437  10.623  1.00  0.00     0.050 C 
ATOM     14  C   UNL     1     -21.838  23.961  11.347  1.00  0.00     0.049 A 
ATOM     15  C   UNL     1     -23.150  23.504  11.366  1.00  0.00     0.012 A 
ATOM     16  C   UNL     1     -20.813  23.274  11.973  1.00  0.00     0.028 A 
ATOM     17  C   UNL     1     -23.377  22.317  12.052  1.00  0.00     0.025 A 
ATOM     18  C   UNL     1     -21.103  22.096  12.640  1.00  0.00     0.017 A 
ATOM     19  C   UNL     1     -22.390  21.603  12.688  1.00  0.00     0.014 A 
ATOM     20  H   UNL     1     -20.994  25.782  10.396  1.00  0.00     0.170 HD
ATOM     21  I   UNL     1     -22.816  19.801  13.714  1.00  0.00    -0.044 I 
ENDBRANCH   1   9
BRANCH   5  22
ATOM     22  O   UNL     1     -28.336  28.108   7.661  1.00  0.00    -0.506 OA
ATOM     23  H   UNL     1     -28.887  28.776   8.187  1.00  0.00     0.293 HD
ENDBRANCH   5  22
TORSDOF 2
ENDMDL
MODEL 3
REMARK VINA RESULT:      -5.6      4.378      7.256
REMARK SMILES O=C1Nc2ccc(I)cc2/C1=C/c1cc(Br)c(O)c(Br)c1
REMARK SMILES IDX 13 1 14 2 15 3 16 4 17 5 19 6 20 7 21 8 12 9 1 10 2 11 3 12
REMARK SMILES IDX 11 13 4 14 10 15 5 16 9 17 6 18 7 19 8 21 18 22
REMARK H PARENT 3 20 18 23
ROOT
ATOM      1  C   UNL     1     -23.121  24.788  10.564  1.00  0.00    -0.022 A 
ATOM      2  C   UNL     1     -21.884  24.944  10.020  1.00  0.00     0.027 A 
ATOM      3  C   UNL     1     -20.800  24.357  10.648  1.00  0.00     0.061 A 
ATOM      4  Br  UNL     1     -19.061  24.577   9.879  1.00  0.00    -0.047 Br
ATOM      5  C   UNL     1     -20.944  23.618  11.810  1.00  0.00     0.143 A 
ATOM      6  C   UNL     1     -22.203  23.484  12.328  1.00  0.00     0.061 A 
ATOM      7  Br  UNL     1     -22.480  22.480  13.933  1.00  0.00    -0.047 Br
ATOM      8  C   UNL     1     -23.289  24.056  11.723  1.00  0.00     0.027 A 
ENDROOT
BRANCH   1   9
ATOM      9  C   UNL     1     -24.328  25.332   9.965  1.00  0.00     0.022 C 
ATOM     10  O   UNL     1     -22.945  27.572  11.462  1.00  0.00    -0.269 OA
ATOM     11  C   UNL     1     -24.030  27.651  10.838  1.00  0.00     0.256 C 
ATOM     12  N   UNL     1     -24.850  28.825  10.709  1.00  0.00    -0.321 N 
ATOM     13  C   UNL     1     -24.701  26.589  10.105  1.00  0.00     0.050 C 
ATOM     14  C   UNL     1     -26.007  28.512   9.915  1.00  0.00     0.049 A 
ATOM     15  C   UNL     1     -25.925  27.175   9.549  1.00  0.00     0.012 A 
ATOM     16  C   UNL     1     -27.065  29.315   9.527  1.00  0.00     0.028 A 
ATOM     17  C   UNL     1     -26.966  26.685   8.769  1.00  0.00     0.025 A 
ATOM     18  C   UNL     1     -28.072  28.770   8.749  1.00  0.00     0.017 A 
ATOM     19  C   UNL     1     -28.036  27.447   8.361  1.00  0.00     0.014 A 
ATOM     20  H   UNL     1     -24.606  29.727  11.136  1.00  0.00     0.170 HD
ATOM     21  I   UNL     1     -29.583  26.630   7.170  1.00  0.00    -0.044 I 
ENDBRANCH   1   9
BRANCH   5  22
ATOM     22  O   UNL     1     -19.847  23.031  12.431  1.00  0.00    -0.506 OA
ATOM     23  H   UNL     1     -19.059  22.721  11.875  1.00  0.00     0.293 HD
ENDBRANCH   5  22
TORSDOF 2
ENDMDL
MODEL 4
REMARK VINA RESULT:      -5.5      4.386      7.500
REMARK SMILES O=C1Nc2ccc(I)cc2/C1=C/c1cc(Br)c(O)c(Br)c1
REMARK SMILES IDX 13 1 14 2 15 3 16 4 17 5 19 6 20 7 21 8 12 9 1 10 2 11 3 12
REMARK SMILES IDX 11 13 4 14 10 15 5 16 9 17 6 18 7 19 8 21 18 22
REMARK H PARENT 3 20 18 23
ROOT
ATOM      1  C   UNL     1     -24.809  25.645  10.095  1.00  0.00    -0.022 A 
ATOM      2  C   UNL     1     -23.582  25.762   9.520  1.00  0.00     0.027 A 
ATOM      3  C   UNL     1     -22.475  25.300  10.209  1.00  0.00     0.061 A 
ATOM      4  Br  UNL     1     -20.750  25.465   9.396  1.00  0.00    -0.047 Br
ATOM      5  C   UNL     1     -22.586  24.724  11.463  1.00  0.00     0.143 A 
ATOM      6  C   UNL     1     -23.836  24.624  12.010  1.00  0.00     0.061 A 
ATOM      7  Br  UNL     1     -24.069  23.841  13.740  1.00  0.00    -0.047 Br
ATOM      8  C   UNL     1     -24.945  25.074  11.345  1.00  0.00     0.027 A 
ENDROOT
BRANCH   1   9
ATOM      9  C   UNL     1     -26.037  26.065   9.441  1.00  0.00     0.022 C 
ATOM     10  O   UNL     1     -24.802  28.502  10.746  1.00  0.00    -0.269 OA
ATOM     11  C   UNL     1     -25.881  28.464  10.110  1.00  0.00     0.256 C 
ATOM     12  N   UNL     1     -26.765  29.574   9.872  1.00  0.00    -0.321 N 
ATOM     13  C   UNL     1     -26.482  27.306   9.468  1.00  0.00     0.050 C 
ATOM     14  C   UNL     1     -27.893  29.127   9.100  1.00  0.00     0.049 A 
ATOM     15  C   UNL     1     -27.731  27.769   8.854  1.00  0.00     0.012 A 
ATOM     16  C   UNL     1     -28.989  29.831   8.635  1.00  0.00     0.028 A 
ATOM     17  C   UNL     1     -28.733  27.155   8.112  1.00  0.00     0.025 A 
ATOM     18  C   UNL     1     -29.954  29.163   7.901  1.00  0.00     0.017 A 
ATOM     19  C   UNL     1     -29.838  27.816   7.630  1.00  0.00     0.014 A 
ATOM     20  H   UNL     1     -26.577  30.522  10.221  1.00  0.00     0.170 HD
ATOM     21  I   UNL     1     -31.322  26.811   6.504  1.00  0.00    -0.044 I 
ENDBRANCH   1   9
BRANCH   5  22
ATOM     22  O   UNL     1     -21.466  24.261  12.146  1.00  0.00    -0.506 OA
ATOM     23  H   UNL     1     -20.767  24.918  12.472  1.00  0.00     0.293 HD
ENDBRANCH   5  22
TORSDOF 2
ENDMDL
MODEL 5
REMARK VINA RESULT:      -5.4      4.530      7.441
REMARK SMILES O=C1Nc2ccc(I)cc2/C1=C/c1cc(Br)c(O)c(Br)c1
REMARK SMILES IDX 13 1 14 2 15 3 16 4 17 5 19 6 20 7 21 8 12 9 1 10 2 11 3 12
REMARK SMILES IDX 11 13 4 14 10 15 5 16 9 17 6 18 7 19 8 21 18 22
REMARK H PARENT 3 20 18 23
ROOT
ATOM      1  C   UNL     1     -24.024  25.923  10.952  1.00  0.00    -0.022 A 
ATOM      2  C   UNL     1     -24.258  25.039  11.959  1.00  0.00     0.027 A 
ATOM      3  C   UNL     1     -23.318  24.057  12.217  1.00  0.00     0.061 A 
ATOM      4  Br  UNL     1     -23.649  22.815  13.635  1.00  0.00    -0.047 Br
ATOM      5  C   UNL     1     -22.151  23.954  11.478  1.00  0.00     0.143 A 
ATOM      6  C   UNL     1     -21.951  24.860  10.473  1.00  0.00     0.061 A 
ATOM      7  Br  UNL     1     -20.364  24.779   9.407  1.00  0.00    -0.047 Br
ATOM      8  C   UNL     1     -22.868  25.840  10.201  1.00  0.00     0.027 A 
ENDROOT
BRANCH   1   9
ATOM      9  C   UNL     1     -24.928  27.011  10.623  1.00  0.00     0.022 C 
ATOM     10  O   UNL     1     -25.880  24.542   9.151  1.00  0.00    -0.269 OA
ATOM     11  C   UNL     1     -26.391  25.685   9.098  1.00  0.00     0.256 C 
ATOM     12  N   UNL     1     -27.538  26.064   8.316  1.00  0.00    -0.321 N 
ATOM     13  C   UNL     1     -25.955  26.878   9.806  1.00  0.00     0.050 C 
ATOM     14  C   UNL     1     -27.817  27.459   8.526  1.00  0.00     0.049 A 
ATOM     15  C   UNL     1     -26.873  27.954   9.418  1.00  0.00     0.012 A 
ATOM     16  C   UNL     1     -28.812  28.259   7.994  1.00  0.00     0.028 A 
ATOM     17  C   UNL     1     -26.984  29.299   9.748  1.00  0.00     0.025 A 
ATOM     18  C   UNL     1     -28.870  29.593   8.361  1.00  0.00     0.017 A 
ATOM     19  C   UNL     1     -27.956  30.130   9.242  1.00  0.00     0.014 A 
ATOM     20  H   UNL     1     -28.046  25.405   7.714  1.00  0.00     0.170 HD
ATOM     21  I   UNL     1     -28.061  32.171   9.794  1.00  0.00    -0.044 I 
ENDBRANCH   1   9
BRANCH   5  22
ATOM     22  O   UNL     1     -21.213  22.963  11.747  1.00  0.00    -0.506 OA
ATOM     23  H   UNL     1     -21.452  22.197  12.366  1.00  0.00     0.293 HD
ENDBRANCH   5  22
TORSDOF 2
ENDMDL
MODEL 6
REMARK VINA RESULT:      -5.4      4.527      7.586
REMARK SMILES O=C1Nc2ccc(I)cc2/C1=C/c1cc(Br)c(O)c(Br)c1
REMARK SMILES IDX 13 1 14 2 15 3 16 4 17 5 19 6 20 7 21 8 12 9 1 10 2 11 3 12
REMARK SMILES IDX 11 13 4 14 10 15 5 16 9 17 6 18 7 19 8 21 18 22
REMARK H PARENT 3 20 18 23
ROOT
ATOM      1  C   UNL     1     -23.841  26.135  10.845  1.00  0.00    -0.022 A 
ATOM      2  C   UNL     1     -22.702  25.930  10.130  1.00  0.00     0.027 A 
ATOM      3  C   UNL     1     -21.874  24.878  10.481  1.00  0.00     0.061 A 
ATOM      4  Br  UNL     1     -20.272  24.592   9.472  1.00  0.00    -0.047 Br
ATOM      5  C   UNL     1     -22.176  24.034  11.536  1.00  0.00     0.143 A 
ATOM      6  C   UNL     1     -23.330  24.272  12.232  1.00  0.00     0.061 A 
ATOM      7  Br  UNL     1     -23.813  23.150  13.704  1.00  0.00    -0.047 Br
ATOM      8  C   UNL     1     -24.163  25.307  11.901  1.00  0.00     0.027 A 
ENDROOT
BRANCH   1   9
ATOM      9  C   UNL     1     -24.795  27.187  10.536  1.00  0.00     0.022 C 
ATOM     10  O   UNL     1     -25.733  24.654   9.166  1.00  0.00    -0.269 OA
ATOM     11  C   UNL     1     -26.284  25.779   9.112  1.00  0.00     0.256 C 
ATOM     12  N   UNL     1     -27.478  26.103   8.378  1.00  0.00    -0.321 N 
ATOM     13  C   UNL     1     -25.854  27.001   9.772  1.00  0.00     0.050 C 
ATOM     14  C   UNL     1     -27.792  27.493   8.571  1.00  0.00     0.049 A 
ATOM     15  C   UNL     1     -26.824  28.038   9.405  1.00  0.00     0.012 A 
ATOM     16  C   UNL     1     -28.836  28.249   8.069  1.00  0.00     0.028 A 
ATOM     17  C   UNL     1     -26.963  29.387   9.710  1.00  0.00     0.025 A 
ATOM     18  C   UNL     1     -28.921  29.588   8.409  1.00  0.00     0.017 A 
ATOM     19  C   UNL     1     -27.984  30.174   9.234  1.00  0.00     0.014 A 
ATOM     20  H   UNL     1     -27.992  25.415   7.816  1.00  0.00     0.170 HD
ATOM     21  I   UNL     1     -28.130  32.224   9.745  1.00  0.00    -0.044 I 
ENDBRANCH   1   9
BRANCH   5  22
ATOM     22  O   UNL     1     -21.337  22.979  11.878  1.00  0.00    -0.506 OA
ATOM     23  H   UNL     1     -21.009  22.343  11.161  1.00  0.00     0.293 HD
ENDBRANCH   5  22
TORSDOF 2
ENDMDL
MODEL 7
REMARK VINA RESULT:      -5.4     10.119     11.064
REMARK SMILES O=C1Nc2ccc(I)cc2/C1=C/c1cc(Br)c(O)c(Br)c1
REMARK SMILES IDX 13 1 14 2 15 3 16 4 17 5 19 6 20 7 21 8 12 9 1 10 2 11 3 12
REMARK SMILES IDX 11 13 4 14 10 15 5 16 9 17 6 18 7 19 8 21 18 22
REMARK H PARENT 3 20 18 23
ROOT
ATOM      1  C   UNL     1     -25.133  21.389   1.126  1.00  0.00    -0.022 A 
ATOM      2  C   UNL     1     -26.132  20.895   1.905  1.00  0.00     0.027 A 
ATOM      3  C   UNL     1     -26.864  21.770   2.688  1.00  0.00     0.061 A 
ATOM      4  Br  UNL     1     -28.271  21.071   3.782  1.00  0.00    -0.047 Br
ATOM      5  C   UNL     1     -26.604  23.130   2.696  1.00  0.00     0.143 A 
ATOM      6  C   UNL     1     -25.591  23.591   1.901  1.00  0.00     0.061 A 
ATOM      7  Br  UNL     1     -25.171  25.457   1.862  1.00  0.00    -0.047 Br
ATOM      8  C   UNL     1     -24.855  22.741   1.118  1.00  0.00     0.027 A 
ENDROOT
BRANCH   1   9
ATOM      9  C   UNL     1     -24.331  20.561   0.242  1.00  0.00     0.022 C 
ATOM     10  O   UNL     1     -23.196  20.300   3.037  1.00  0.00    -0.269 OA
ATOM     11  C   UNL     1     -22.754  19.754   1.999  1.00  0.00     0.256 C 
ATOM     12  N   UNL     1     -21.607  18.890   1.919  1.00  0.00    -0.321 N 
ATOM     13  C   UNL     1     -23.293  19.859   0.653  1.00  0.00     0.050 C 
ATOM     14  C   UNL     1     -21.427  18.462   0.558  1.00  0.00     0.049 A 
ATOM     15  C   UNL     1     -22.434  19.038  -0.207  1.00  0.00     0.012 A 
ATOM     16  C   UNL     1     -20.469  17.633   0.004  1.00  0.00     0.028 A 
ATOM     17  C   UNL     1     -22.426  18.735  -1.563  1.00  0.00     0.025 A 
ATOM     18  C   UNL     1     -20.513  17.368  -1.354  1.00  0.00     0.017 A 
ATOM     19  C   UNL     1     -21.492  17.916  -2.155  1.00  0.00     0.014 A 
ATOM     20  H   UNL     1     -21.033  18.645   2.736  1.00  0.00     0.170 HD
ATOM     21  I   UNL     1     -21.547  17.500  -4.230  1.00  0.00    -0.044 I 
ENDBRANCH   1   9
BRANCH   5  22
ATOM     22  O   UNL     1     -27.347  24.001   3.486  1.00  0.00    -0.506 OA
ATOM     23  H   UNL     1     -28.286  23.747   3.771  1.00  0.00     0.293 HD
ENDBRANCH   5  22
TORSDOF 2
ENDMDL
MODEL 8
REMARK VINA RESULT:      -5.3      4.386      7.147
REMARK SMILES O=C1Nc2ccc(I)cc2/C1=C/c1cc(Br)c(O)c(Br)c1
REMARK SMILES IDX 13 1 14 2 15 3 16 4 17 5 19 6 20 7 21 8 12 9 1 10 2 11 3 12
REMARK SMILES IDX 11 13 4 14 10 15 5 16 9 17 6 18 7 19 8 21 18 22
REMARK H PARENT 3 20 18 23
ROOT
ATOM      1  C   UNL     1     -23.656  24.966  10.680  1.00  0.00    -0.022 A 
ATOM      2  C   UNL     1     -23.721  24.255  11.837  1.00  0.00     0.027 A 
ATOM      3  C   UNL     1     -22.572  23.652  12.316  1.00  0.00     0.061 A 
ATOM      4  Br  UNL     1     -22.667  22.652  13.945  1.00  0.00    -0.047 Br
ATOM      5  C   UNL     1     -21.363  23.755  11.648  1.00  0.00     0.143 A 
ATOM      6  C   UNL     1     -21.336  24.478  10.487  1.00  0.00     0.061 A 
ATOM      7  Br  UNL     1     -19.704  24.663   9.507  1.00  0.00    -0.047 Br
ATOM      8  C   UNL     1     -22.462  25.083   9.996  1.00  0.00     0.027 A 
ENDROOT
BRANCH   1   9
ATOM      9  C   UNL     1     -24.795  25.668  10.112  1.00  0.00     0.022 C 
ATOM     10  O   UNL     1     -22.888  27.743  11.220  1.00  0.00    -0.269 OA
ATOM     11  C   UNL     1     -23.995  27.963  10.674  1.00  0.00     0.256 C 
ATOM     12  N   UNL     1     -24.595  29.254  10.467  1.00  0.00    -0.321 N 
ATOM     13  C   UNL     1     -24.916  26.981  10.127  1.00  0.00     0.050 C 
ATOM     14  C   UNL     1     -25.861  29.089   9.806  1.00  0.00     0.049 A 
ATOM     15  C   UNL     1     -26.061  27.730   9.598  1.00  0.00     0.012 A 
ATOM     16  C   UNL     1     -26.787  30.036   9.404  1.00  0.00     0.028 A 
ATOM     17  C   UNL     1     -27.244  27.372   8.963  1.00  0.00     0.025 A 
ATOM     18  C   UNL     1     -27.947  29.617   8.775  1.00  0.00     0.017 A 
ATOM     19  C   UNL     1     -28.191  28.279   8.547  1.00  0.00     0.014 A 
ATOM     20  H   UNL     1     -24.151  30.131  10.763  1.00  0.00     0.170 HD
ATOM     21  I   UNL     1     -29.969  27.655   7.583  1.00  0.00    -0.044 I 
ENDBRANCH   1   9
BRANCH   5  22
ATOM     22  O   UNL     1     -20.214  23.145  12.139  1.00  0.00    -0.506 OA
ATOM     23  H   UNL     1     -20.055  22.159  11.972  1.00  0.00     0.293 HD
ENDBRANCH   5  22
TORSDOF 2
ENDMDL
MODEL 9
REMARK VINA RESULT:      -5.2      4.373      7.317
REMARK SMILES O=C1Nc2ccc(I)cc2/C1=C/c1cc(Br)c(O)c(Br)c1
REMARK SMILES IDX 13 1 14 2 15 3 16 4 17 5 19 6 20 7 21 8 12 9 1 10 2 11 3 12
REMARK SMILES IDX 11 13 4 14 10 15 5 16 9 17 6 18 7 19 8 21 18 22
REMARK H PARENT 3 20 18 23
ROOT
ATOM      1  C   UNL     1     -24.940  25.427  10.368  1.00  0.00    -0.022 A 
ATOM      2  C   UNL     1     -24.985  24.865  11.605  1.00  0.00     0.027 A 
ATOM      3  C   UNL     1     -23.800  24.472  12.203  1.00  0.00     0.061 A 
ATOM      4  Br  UNL     1     -23.866  23.682  13.945  1.00  0.00    -0.047 Br
ATOM      5  C   UNL     1     -22.578  24.637  11.574  1.00  0.00     0.143 A 
ATOM      6  C   UNL     1     -22.573  25.206  10.330  1.00  0.00     0.061 A 
ATOM      7  Br  UNL     1     -20.922  25.465   9.398  1.00  0.00    -0.047 Br
ATOM      8  C   UNL     1     -23.733  25.602   9.721  1.00  0.00     0.027 A 
ENDROOT
BRANCH   1   9
ATOM      9  C   UNL     1     -26.121  25.906   9.669  1.00  0.00     0.022 C 
ATOM     10  O   UNL     1     -24.767  28.295  10.944  1.00  0.00    -0.269 OA
ATOM     11  C   UNL     1     -25.829  28.308  10.279  1.00  0.00     0.256 C 
ATOM     12  N   UNL     1     -26.632  29.465   9.987  1.00  0.00    -0.321 N 
ATOM     13  C   UNL     1     -26.486  27.173   9.650  1.00  0.00     0.050 C 
ATOM     14  C   UNL     1     -27.766  29.069   9.196  1.00  0.00     0.049 A 
ATOM     15  C   UNL     1     -27.685  27.698   8.989  1.00  0.00     0.012 A 
ATOM     16  C   UNL     1     -28.802  29.828   8.681  1.00  0.00     0.028 A 
ATOM     17  C   UNL     1     -28.704  27.128   8.235  1.00  0.00     0.025 A 
ATOM     18  C   UNL     1     -29.788  29.203   7.938  1.00  0.00     0.017 A 
ATOM     19  C   UNL     1     -29.752  27.845   7.705  1.00  0.00     0.014 A 
ATOM     20  H   UNL     1     -26.394  30.408  10.316  1.00  0.00     0.170 HD
ATOM     21  I   UNL     1     -31.267  26.905   6.564  1.00  0.00    -0.044 I 
ENDBRANCH   1   9
BRANCH   5  22
ATOM     22  O   UNL     1     -21.394  24.240  12.186  1.00  0.00    -0.506 OA
ATOM     23  H   UNL     1     -20.505  24.561  11.820  1.00  0.00     0.293 HD
ENDBRANCH   5  22
TORSDOF 2
ENDMDL
