MODEL 1
REMARK VINA RESULT:      -5.0      0.000      0.000
REMARK SMILES Clc1ccccc1C(c1ccccc1)(c1ccccc1)n1ccnc1
REMARK SMILES IDX 1 1 2 2 3 3 4 4 5 5 6 6 7 7 8 8 9 9 10 10 14 11 11 12 13 13
REMARK SMILES IDX 12 14 15 15 16 16 20 17 17 18 19 19 18 20 21 21 22 22 25 23
REMARK SMILES IDX 23 24 24 25
REMARK H PARENT
ROOT
ATOM      1  Cl  UNL     1     -26.805  20.660   3.235  1.00  0.00    -0.084 Cl
ATOM      2  C   UNL     1     -26.517  22.385   3.240  1.00  0.00     0.047 A 
ATOM      3  C   UNL     1     -26.834  23.166   4.327  1.00  0.00     0.021 A 
ATOM      4  C   UNL     1     -26.579  24.520   4.347  1.00  0.00     0.002 A 
ATOM      5  C   UNL     1     -25.991  25.081   3.241  1.00  0.00     0.001 A 
ATOM      6  C   UNL     1     -25.668  24.285   2.134  1.00  0.00     0.008 A 
ATOM      7  C   UNL     1     -25.925  22.949   2.121  1.00  0.00     0.006 A 
ENDROOT
BRANCH   7   8
ATOM      8  C   UNL     1     -25.597  22.128   0.924  1.00  0.00     0.123 C 
BRANCH   8   9
ATOM      9  C   UNL     1     -24.520  21.171   1.308  1.00  0.00    -0.013 A 
ATOM     10  C   UNL     1     -23.883  21.133   2.505  1.00  0.00     0.007 A 
ATOM     11  C   UNL     1     -24.180  20.235   0.313  1.00  0.00     0.007 A 
ATOM     12  C   UNL     1     -22.910  20.174   2.726  1.00  0.00     0.000 A 
ATOM     13  C   UNL     1     -23.216  19.288   0.541  1.00  0.00     0.000 A 
ATOM     14  C   UNL     1     -22.564  19.240   1.750  1.00  0.00     0.000 A 
ENDBRANCH   8   9
BRANCH   8  15
ATOM     15  C   UNL     1     -24.974  22.956  -0.144  1.00  0.00    -0.013 A 
ATOM     16  C   UNL     1     -25.620  23.302  -1.302  1.00  0.00     0.007 A 
ATOM     17  C   UNL     1     -23.696  23.417   0.046  1.00  0.00     0.007 A 
ATOM     18  C   UNL     1     -25.022  24.097  -2.272  1.00  0.00     0.000 A 
ATOM     19  C   UNL     1     -23.071  24.221  -0.921  1.00  0.00     0.000 A 
ATOM     20  C   UNL     1     -23.741  24.550  -2.066  1.00  0.00     0.000 A 
ENDBRANCH   8  15
BRANCH   8  21
ATOM     21  N   UNL     1     -26.780  21.499   0.417  1.00  0.00    -0.319 N 
ATOM     22  C   UNL     1     -28.007  22.079   0.304  1.00  0.00     0.109 A 
ATOM     23  C   UNL     1     -26.895  20.256  -0.051  1.00  0.00     0.200 A 
ATOM     24  C   UNL     1     -28.885  21.169  -0.242  1.00  0.00     0.131 A 
ATOM     25  N   UNL     1     -28.180  20.063  -0.450  1.00  0.00    -0.245 NA
ENDBRANCH   8  21
ENDBRANCH   7   8
TORSDOF 4
ENDMDL
MODEL 2
REMARK VINA RESULT:      -5.0      1.602      4.955
REMARK SMILES Clc1ccccc1C(c1ccccc1)(c1ccccc1)n1ccnc1
REMARK SMILES IDX 1 1 2 2 3 3 4 4 5 5 6 6 7 7 8 8 9 9 10 10 14 11 11 12 13 13
REMARK SMILES IDX 12 14 15 15 16 16 20 17 17 18 19 19 18 20 21 21 22 22 25 23
REMARK SMILES IDX 23 24 24 25
REMARK H PARENT
ROOT
ATOM      1  Cl  UNL     1     -25.540  21.118  -0.882  1.00  0.00    -0.084 Cl
ATOM      2  C   UNL     1     -24.628  20.797   0.576  1.00  0.00     0.047 A 
ATOM      3  C   UNL     1     -23.497  20.013   0.561  1.00  0.00     0.021 A 
ATOM      4  C   UNL     1     -22.757  19.785   1.701  1.00  0.00     0.002 A 
ATOM      5  C   UNL     1     -23.181  20.366   2.871  1.00  0.00     0.001 A 
ATOM      6  C   UNL     1     -24.332  21.164   2.885  1.00  0.00     0.008 A 
ATOM      7  C   UNL     1     -25.058  21.384   1.755  1.00  0.00     0.006 A 
ENDROOT
BRANCH   7   8
ATOM      8  C   UNL     1     -26.292  22.214   1.800  1.00  0.00     0.123 C 
BRANCH   8   9
ATOM      9  C   UNL     1     -26.065  23.414   0.945  1.00  0.00    -0.013 A 
ATOM     10  C   UNL     1     -26.983  23.994   0.131  1.00  0.00     0.007 A 
ATOM     11  C   UNL     1     -24.774  23.968   1.037  1.00  0.00     0.007 A 
ATOM     12  C   UNL     1     -26.633  25.119  -0.594  1.00  0.00     0.000 A 
ATOM     13  C   UNL     1     -24.436  25.083   0.316  1.00  0.00     0.000 A 
ATOM     14  C   UNL     1     -25.358  25.678  -0.512  1.00  0.00     0.000 A 
ENDBRANCH   8   9
BRANCH   8  15
ATOM     15  C   UNL     1     -26.514  22.779   3.158  1.00  0.00    -0.013 A 
ATOM     16  C   UNL     1     -26.427  24.117   3.440  1.00  0.00     0.007 A 
ATOM     17  C   UNL     1     -26.849  21.924   4.176  1.00  0.00     0.007 A 
ATOM     18  C   UNL     1     -26.662  24.620   4.715  1.00  0.00     0.000 A 
ATOM     19  C   UNL     1     -27.091  22.409   5.472  1.00  0.00     0.000 A 
ATOM     20  C   UNL     1     -26.995  23.749   5.724  1.00  0.00     0.000 A 
ENDBRANCH   8  15
BRANCH   8  21
ATOM     21  N   UNL     1     -27.428  21.431   1.412  1.00  0.00    -0.319 N 
ATOM     22  C   UNL     1     -27.554  20.083   1.553  1.00  0.00     0.109 A 
ATOM     23  C   UNL     1     -28.563  21.871   0.870  1.00  0.00     0.200 A 
ATOM     24  C   UNL     1     -28.790  19.696   1.086  1.00  0.00     0.131 A 
ATOM     25  N   UNL     1     -29.387  20.808   0.675  1.00  0.00    -0.245 NA
ENDBRANCH   8  21
ENDBRANCH   7   8
TORSDOF 4
ENDMDL
MODEL 3
REMARK VINA RESULT:      -4.9      1.758      4.100
REMARK SMILES Clc1ccccc1C(c1ccccc1)(c1ccccc1)n1ccnc1
REMARK SMILES IDX 1 1 2 2 3 3 4 4 5 5 6 6 7 7 8 8 9 9 10 10 14 11 11 12 13 13
REMARK SMILES IDX 12 14 15 15 16 16 20 17 17 18 19 19 18 20 21 21 22 22 25 23
REMARK SMILES IDX 23 24 24 25
REMARK H PARENT
ROOT
ATOM      1  Cl  UNL     1     -24.839  22.139  -0.264  1.00  0.00    -0.084 Cl
ATOM      2  C   UNL     1     -25.192  23.283   1.012  1.00  0.00     0.047 A 
ATOM      3  C   UNL     1     -24.858  24.613   0.899  1.00  0.00     0.021 A 
ATOM      4  C   UNL     1     -25.164  25.524   1.887  1.00  0.00     0.002 A 
ATOM      5  C   UNL     1     -25.818  25.067   3.004  1.00  0.00     0.001 A 
ATOM      6  C   UNL     1     -26.157  23.712   3.118  1.00  0.00     0.008 A 
ATOM      7  C   UNL     1     -25.851  22.819   2.138  1.00  0.00     0.006 A 
ENDROOT
BRANCH   7   8
ATOM      8  C   UNL     1     -26.199  21.380   2.293  1.00  0.00     0.123 C 
BRANCH   8   9
ATOM      9  C   UNL     1     -26.636  21.165   3.701  1.00  0.00    -0.013 A 
ATOM     10  C   UNL     1     -25.951  21.540   4.811  1.00  0.00     0.007 A 
ATOM     11  C   UNL     1     -27.882  20.526   3.841  1.00  0.00     0.007 A 
ATOM     12  C   UNL     1     -26.491  21.287   6.059  1.00  0.00     0.000 A 
ATOM     13  C   UNL     1     -28.410  20.280   5.082  1.00  0.00     0.000 A 
ATOM     14  C   UNL     1     -27.725  20.655   6.213  1.00  0.00     0.000 A 
ENDBRANCH   8   9
BRANCH   8  15
ATOM     15  C   UNL     1     -24.995  20.516   2.156  1.00  0.00    -0.013 A 
ATOM     16  C   UNL     1     -23.759  20.866   2.631  1.00  0.00     0.007 A 
ATOM     17  C   UNL     1     -25.132  19.295   1.547  1.00  0.00     0.007 A 
ATOM     18  C   UNL     1     -22.656  20.029   2.510  1.00  0.00     0.000 A 
ATOM     19  C   UNL     1     -24.032  18.431   1.413  1.00  0.00     0.000 A 
ATOM     20  C   UNL     1     -22.810  18.809   1.896  1.00  0.00     0.000 A 
ENDBRANCH   8  15
BRANCH   8  21
ATOM     21  N   UNL     1     -27.177  21.001   1.316  1.00  0.00    -0.319 N 
ATOM     22  C   UNL     1     -28.122  21.819   0.775  1.00  0.00     0.109 A 
ATOM     23  C   UNL     1     -27.328  19.805   0.749  1.00  0.00     0.200 A 
ATOM     24  C   UNL     1     -28.863  21.103  -0.139  1.00  0.00     0.131 A 
ATOM     25  N   UNL     1     -28.358  19.876  -0.136  1.00  0.00    -0.245 NA
ENDBRANCH   8  21
ENDBRANCH   7   8
TORSDOF 4
ENDMDL
MODEL 4
REMARK VINA RESULT:      -4.9      1.103      4.461
REMARK SMILES Clc1ccccc1C(c1ccccc1)(c1ccccc1)n1ccnc1
REMARK SMILES IDX 1 1 2 2 3 3 4 4 5 5 6 6 7 7 8 8 9 9 10 10 14 11 11 12 13 13
REMARK SMILES IDX 12 14 15 15 16 16 20 17 17 18 19 19 18 20 21 21 22 22 25 23
REMARK SMILES IDX 23 24 24 25
REMARK H PARENT
ROOT
ATOM      1  Cl  UNL     1     -24.663  20.309  -1.401  1.00  0.00    -0.084 Cl
ATOM      2  C   UNL     1     -24.042  20.283   0.234  1.00  0.00     0.047 A 
ATOM      3  C   UNL     1     -23.068  19.392   0.622  1.00  0.00     0.021 A 
ATOM      4  C   UNL     1     -22.554  19.391   1.901  1.00  0.00     0.002 A 
ATOM      5  C   UNL     1     -23.043  20.312   2.793  1.00  0.00     0.001 A 
ATOM      6  C   UNL     1     -24.035  21.220   2.397  1.00  0.00     0.008 A 
ATOM      7  C   UNL     1     -24.539  21.214   1.133  1.00  0.00     0.006 A 
ENDROOT
BRANCH   7   8
ATOM      8  C   UNL     1     -25.610  22.170   0.742  1.00  0.00     0.123 C 
BRANCH   8   9
ATOM      9  C   UNL     1     -25.069  23.046  -0.336  1.00  0.00    -0.013 A 
ATOM     10  C   UNL     1     -25.781  23.567  -1.366  1.00  0.00     0.007 A 
ATOM     11  C   UNL     1     -23.697  23.341  -0.224  1.00  0.00     0.007 A 
ATOM     12  C   UNL     1     -25.145  24.380  -2.288  1.00  0.00     0.000 A 
ATOM     13  C   UNL     1     -23.076  24.148  -1.141  1.00  0.00     0.000 A 
ATOM     14  C   UNL     1     -23.787  24.681  -2.189  1.00  0.00     0.000 A 
ENDBRANCH   8   9
BRANCH   8  15
ATOM     15  C   UNL     1     -25.919  23.116   1.848  1.00  0.00    -0.013 A 
ATOM     16  C   UNL     1     -25.470  24.410   1.881  1.00  0.00     0.007 A 
ATOM     17  C   UNL     1     -26.715  22.682   2.878  1.00  0.00     0.007 A 
ATOM     18  C   UNL     1     -25.794  25.279   2.916  1.00  0.00     0.000 A 
ATOM     19  C   UNL     1     -27.056  23.542   3.935  1.00  0.00     0.000 A 
ATOM     20  C   UNL     1     -26.591  24.828   3.940  1.00  0.00     0.000 A 
ENDBRANCH   8  15
BRANCH   8  21
ATOM     21  N   UNL     1     -26.797  21.458   0.372  1.00  0.00    -0.319 N 
ATOM     22  C   UNL     1     -27.739  21.883  -0.514  1.00  0.00     0.109 A 
ATOM     23  C   UNL     1     -27.183  20.257   0.801  1.00  0.00     0.200 A 
ATOM     24  C   UNL     1     -28.718  20.921  -0.625  1.00  0.00     0.131 A 
ATOM     25  N   UNL     1     -28.354  19.937   0.189  1.00  0.00    -0.245 NA
ENDBRANCH   8  21
ENDBRANCH   7   8
TORSDOF 4
ENDMDL
MODEL 5
REMARK VINA RESULT:      -4.8      1.631      4.066
REMARK SMILES Clc1ccccc1C(c1ccccc1)(c1ccccc1)n1ccnc1
REMARK SMILES IDX 1 1 2 2 3 3 4 4 5 5 6 6 7 7 8 8 9 9 10 10 14 11 11 12 13 13
REMARK SMILES IDX 12 14 15 15 16 16 20 17 17 18 19 19 18 20 21 21 22 22 25 23
REMARK SMILES IDX 23 24 24 25
REMARK H PARENT
ROOT
ATOM      1  Cl  UNL     1     -24.650  22.094  -0.549  1.00  0.00    -0.084 Cl
ATOM      2  C   UNL     1     -25.008  23.337   0.629  1.00  0.00     0.047 A 
ATOM      3  C   UNL     1     -24.557  24.628   0.475  1.00  0.00     0.021 A 
ATOM      4  C   UNL     1     -24.864  25.617   1.384  1.00  0.00     0.002 A 
ATOM      5  C   UNL     1     -25.643  25.280   2.464  1.00  0.00     0.001 A 
ATOM      6  C   UNL     1     -26.102  23.966   2.619  1.00  0.00     0.008 A 
ATOM      7  C   UNL     1     -25.794  22.994   1.718  1.00  0.00     0.006 A 
ENDROOT
BRANCH   7   8
ATOM      8  C   UNL     1     -26.272  21.599   1.917  1.00  0.00     0.123 C 
BRANCH   8   9
ATOM      9  C   UNL     1     -26.847  21.506   3.289  1.00  0.00    -0.013 A 
ATOM     10  C   UNL     1     -28.160  21.352   3.590  1.00  0.00     0.007 A 
ATOM     11  C   UNL     1     -25.901  21.573   4.330  1.00  0.00     0.007 A 
ATOM     12  C   UNL     1     -28.547  21.264   4.916  1.00  0.00     0.000 A 
ATOM     13  C   UNL     1     -26.293  21.484   5.641  1.00  0.00     0.000 A 
ATOM     14  C   UNL     1     -27.622  21.329   5.957  1.00  0.00     0.000 A 
ENDBRANCH   8   9
BRANCH   8  15
ATOM     15  C   UNL     1     -25.138  20.637   1.939  1.00  0.00    -0.013 A 
ATOM     16  C   UNL     1     -25.238  19.344   1.497  1.00  0.00     0.007 A 
ATOM     17  C   UNL     1     -23.921  21.070   2.402  1.00  0.00     0.007 A 
ATOM     18  C   UNL     1     -24.154  18.474   1.507  1.00  0.00     0.000 A 
ATOM     19  C   UNL     1     -22.812  20.208   2.422  1.00  0.00     0.000 A 
ATOM     20  C   UNL     1     -22.943  18.923   1.975  1.00  0.00     0.000 A 
ENDBRANCH   8  15
BRANCH   8  21
ATOM     21  N   UNL     1     -27.190  21.239   0.877  1.00  0.00    -0.319 N 
ATOM     22  C   UNL     1     -28.001  22.095   0.197  1.00  0.00     0.109 A 
ATOM     23  C   UNL     1     -27.401  20.023   0.374  1.00  0.00     0.200 A 
ATOM     24  C   UNL     1     -28.721  21.384  -0.737  1.00  0.00     0.131 A 
ATOM     25  N   UNL     1     -28.335  20.120  -0.609  1.00  0.00    -0.245 NA
ENDBRANCH   8  21
ENDBRANCH   7   8
TORSDOF 4
ENDMDL
MODEL 6
REMARK VINA RESULT:      -4.8      1.669      4.184
REMARK SMILES Clc1ccccc1C(c1ccccc1)(c1ccccc1)n1ccnc1
REMARK SMILES IDX 1 1 2 2 3 3 4 4 5 5 6 6 7 7 8 8 9 9 10 10 14 11 11 12 13 13
REMARK SMILES IDX 12 14 15 15 16 16 20 17 17 18 19 19 18 20 21 21 22 22 25 23
REMARK SMILES IDX 23 24 24 25
REMARK H PARENT
ROOT
ATOM      1  Cl  UNL     1     -24.569  22.243  -0.697  1.00  0.00    -0.084 Cl
ATOM      2  C   UNL     1     -24.928  23.452   0.515  1.00  0.00     0.047 A 
ATOM      3  C   UNL     1     -24.478  24.747   0.398  1.00  0.00     0.021 A 
ATOM      4  C   UNL     1     -24.786  25.710   1.334  1.00  0.00     0.002 A 
ATOM      5  C   UNL     1     -25.564  25.342   2.404  1.00  0.00     0.001 A 
ATOM      6  C   UNL     1     -26.022  24.024   2.523  1.00  0.00     0.008 A 
ATOM      7  C   UNL     1     -25.713  23.078   1.595  1.00  0.00     0.006 A 
ENDROOT
BRANCH   7   8
ATOM      8  C   UNL     1     -26.189  21.677   1.755  1.00  0.00     0.123 C 
BRANCH   8   9
ATOM      9  C   UNL     1     -26.810  21.559   3.105  1.00  0.00    -0.013 A 
ATOM     10  C   UNL     1     -28.132  21.395   3.359  1.00  0.00     0.007 A 
ATOM     11  C   UNL     1     -25.901  21.613   4.179  1.00  0.00     0.007 A 
ATOM     12  C   UNL     1     -28.564  21.283   4.669  1.00  0.00     0.000 A 
ATOM     13  C   UNL     1     -26.337  21.501   5.474  1.00  0.00     0.000 A 
ATOM     14  C   UNL     1     -27.675  21.335   5.742  1.00  0.00     0.000 A 
ENDBRANCH   8   9
BRANCH   8  15
ATOM     15  C   UNL     1     -25.051  20.721   1.801  1.00  0.00    -0.013 A 
ATOM     16  C   UNL     1     -23.785  21.075   2.187  1.00  0.00     0.007 A 
ATOM     17  C   UNL     1     -25.282  19.412   1.463  1.00  0.00     0.007 A 
ATOM     18  C   UNL     1     -22.745  20.154   2.242  1.00  0.00     0.000 A 
ATOM     19  C   UNL     1     -24.246  18.464   1.510  1.00  0.00     0.000 A 
ATOM     20  C   UNL     1     -22.993  18.847   1.899  1.00  0.00     0.000 A 
ENDBRANCH   8  15
BRANCH   8  21
ATOM     21  N   UNL     1     -27.069  21.329   0.679  1.00  0.00    -0.319 N 
ATOM     22  C   UNL     1     -27.172  20.102   0.098  1.00  0.00     0.109 A 
ATOM     23  C   UNL     1     -27.950  22.121   0.070  1.00  0.00     0.200 A 
ATOM     24  C   UNL     1     -28.135  20.150  -0.885  1.00  0.00     0.131 A 
ATOM     25  N   UNL     1     -28.596  21.396  -0.882  1.00  0.00    -0.245 NA
ENDBRANCH   8  21
ENDBRANCH   7   8
TORSDOF 4
ENDMDL
MODEL 7
REMARK VINA RESULT:      -4.7      1.207      4.445
REMARK SMILES Clc1ccccc1C(c1ccccc1)(c1ccccc1)n1ccnc1
REMARK SMILES IDX 1 1 2 2 3 3 4 4 5 5 6 6 7 7 8 8 9 9 10 10 14 11 11 12 13 13
REMARK SMILES IDX 12 14 15 15 16 16 20 17 17 18 19 19 18 20 21 21 22 22 25 23
REMARK SMILES IDX 23 24 24 25
REMARK H PARENT
ROOT
ATOM      1  Cl  UNL     1     -24.400  20.337  -1.440  1.00  0.00    -0.084 Cl
ATOM      2  C   UNL     1     -23.887  20.294   0.232  1.00  0.00     0.047 A 
ATOM      3  C   UNL     1     -22.942  19.397   0.674  1.00  0.00     0.021 A 
ATOM      4  C   UNL     1     -22.512  19.382   1.983  1.00  0.00     0.002 A 
ATOM      5  C   UNL     1     -23.056  20.296   2.850  1.00  0.00     0.001 A 
ATOM      6  C   UNL     1     -24.018  21.210   2.399  1.00  0.00     0.008 A 
ATOM      7  C   UNL     1     -24.439  21.217   1.105  1.00  0.00     0.006 A 
ENDROOT
BRANCH   7   8
ATOM      8  C   UNL     1     -25.481  22.180   0.656  1.00  0.00     0.123 C 
BRANCH   8   9
ATOM      9  C   UNL     1     -24.864  23.076  -0.364  1.00  0.00    -0.013 A 
ATOM     10  C   UNL     1     -23.553  23.416  -0.431  1.00  0.00     0.007 A 
ATOM     11  C   UNL     1     -25.759  23.576  -1.328  1.00  0.00     0.007 A 
ATOM     12  C   UNL     1     -23.119  24.249  -1.448  1.00  0.00     0.000 A 
ATOM     13  C   UNL     1     -25.321  24.400  -2.332  1.00  0.00     0.000 A 
ATOM     14  C   UNL     1     -23.995  24.752  -2.410  1.00  0.00     0.000 A 
ENDBRANCH   8   9
BRANCH   8  15
ATOM     15  C   UNL     1     -25.872  23.104   1.753  1.00  0.00    -0.013 A 
ATOM     16  C   UNL     1     -26.744  22.760   2.753  1.00  0.00     0.007 A 
ATOM     17  C   UNL     1     -25.316  24.358   1.783  1.00  0.00     0.007 A 
ATOM     18  C   UNL     1     -27.073  23.637   3.780  1.00  0.00     0.000 A 
ATOM     19  C   UNL     1     -25.634  25.262   2.811  1.00  0.00     0.000 A 
ATOM     20  C   UNL     1     -26.508  24.889   3.795  1.00  0.00     0.000 A 
ENDBRANCH   8  15
BRANCH   8  21
ATOM     21  N   UNL     1     -26.635  21.474   0.186  1.00  0.00    -0.319 N 
ATOM     22  C   UNL     1     -27.010  20.219   0.559  1.00  0.00     0.109 A 
ATOM     23  C   UNL     1     -27.555  21.913  -0.673  1.00  0.00     0.200 A 
ATOM     24  C   UNL     1     -28.180  19.889  -0.087  1.00  0.00     0.131 A 
ATOM     25  N   UNL     1     -28.493  20.942  -0.834  1.00  0.00    -0.245 NA
ENDBRANCH   8  21
ENDBRANCH   7   8
TORSDOF 4
ENDMDL
MODEL 8
REMARK VINA RESULT:      -4.7      0.482      1.417
REMARK SMILES Clc1ccccc1C(c1ccccc1)(c1ccccc1)n1ccnc1
REMARK SMILES IDX 1 1 2 2 3 3 4 4 5 5 6 6 7 7 8 8 9 9 10 10 14 11 11 12 13 13
REMARK SMILES IDX 12 14 15 15 16 16 20 17 17 18 19 19 18 20 21 21 22 22 25 23
REMARK SMILES IDX 23 24 24 25
REMARK H PARENT
ROOT
ATOM      1  Cl  UNL     1     -27.333  20.777   2.774  1.00  0.00    -0.084 Cl
ATOM      2  C   UNL     1     -26.931  22.473   2.921  1.00  0.00     0.047 A 
ATOM      3  C   UNL     1     -27.286  23.205   4.031  1.00  0.00     0.021 A 
ATOM      4  C   UNL     1     -26.942  24.533   4.165  1.00  0.00     0.002 A 
ATOM      5  C   UNL     1     -26.226  25.118   3.150  1.00  0.00     0.001 A 
ATOM      6  C   UNL     1     -25.865  24.372   2.020  1.00  0.00     0.008 A 
ATOM      7  C   UNL     1     -26.209  23.062   1.895  1.00  0.00     0.006 A 
ENDROOT
BRANCH   7   8
ATOM      8  C   UNL     1     -25.836  22.296   0.674  1.00  0.00     0.123 C 
BRANCH   8   9
ATOM      9  C   UNL     1     -24.859  21.245   1.076  1.00  0.00    -0.013 A 
ATOM     10  C   UNL     1     -24.506  20.166   0.334  1.00  0.00     0.007 A 
ATOM     11  C   UNL     1     -24.268  21.441   2.338  1.00  0.00     0.007 A 
ATOM     12  C   UNL     1     -23.569  19.277   0.832  1.00  0.00     0.000 A 
ATOM     13  C   UNL     1     -23.340  20.556   2.824  1.00  0.00     0.000 A 
ATOM     14  C   UNL     1     -22.975  19.459   2.081  1.00  0.00     0.000 A 
ENDBRANCH   8   9
BRANCH   8  15
ATOM     15  C   UNL     1     -25.075  23.143  -0.283  1.00  0.00    -0.013 A 
ATOM     16  C   UNL     1     -23.739  23.416  -0.150  1.00  0.00     0.007 A 
ATOM     17  C   UNL     1     -25.736  23.659  -1.369  1.00  0.00     0.007 A 
ATOM     18  C   UNL     1     -23.048  24.192  -1.073  1.00  0.00     0.000 A 
ATOM     19  C   UNL     1     -25.058  24.446  -2.315  1.00  0.00     0.000 A 
ATOM     20  C   UNL     1     -23.725  24.702  -2.155  1.00  0.00     0.000 A 
ENDBRANCH   8  15
BRANCH   8  21
ATOM     21  N   UNL     1     -27.012  21.784   0.035  1.00  0.00    -0.319 N 
ATOM     22  C   UNL     1     -28.233  22.387   0.008  1.00  0.00     0.109 A 
ATOM     23  C   UNL     1     -27.123  20.652  -0.659  1.00  0.00     0.200 A 
ATOM     24  C   UNL     1     -29.104  21.604  -0.717  1.00  0.00     0.131 A 
ATOM     25  N   UNL     1     -28.400  20.549  -1.113  1.00  0.00    -0.245 NA
ENDBRANCH   8  21
ENDBRANCH   7   8
TORSDOF 4
ENDMDL
MODEL 9
REMARK VINA RESULT:      -4.6      1.274      4.509
REMARK SMILES Clc1ccccc1C(c1ccccc1)(c1ccccc1)n1ccnc1
REMARK SMILES IDX 1 1 2 2 3 3 4 4 5 5 6 6 7 7 8 8 9 9 10 10 14 11 11 12 13 13
REMARK SMILES IDX 12 14 15 15 16 16 20 17 17 18 19 19 18 20 21 21 22 22 25 23
REMARK SMILES IDX 23 24 24 25
REMARK H PARENT
ROOT
ATOM      1  Cl  UNL     1     -27.459  24.044  -0.621  1.00  0.00    -0.084 Cl
ATOM      2  C   UNL     1     -25.758  24.031  -1.028  1.00  0.00     0.047 A 
ATOM      3  C   UNL     1     -25.217  24.951  -1.897  1.00  0.00     0.021 A 
ATOM      4  C   UNL     1     -23.872  24.964  -2.194  1.00  0.00     0.002 A 
ATOM      5  C   UNL     1     -23.070  24.023  -1.596  1.00  0.00     0.001 A 
ATOM      6  C   UNL     1     -23.622  23.087  -0.712  1.00  0.00     0.008 A 
ATOM      7  C   UNL     1     -24.952  23.080  -0.423  1.00  0.00     0.006 A 
ENDROOT
BRANCH   7   8
ATOM      8  C   UNL     1     -25.519  22.059   0.499  1.00  0.00     0.123 C 
BRANCH   8   9
ATOM      9  C   UNL     1     -26.010  22.767   1.716  1.00  0.00    -0.013 A 
ATOM     10  C   UNL     1     -27.056  22.384   2.489  1.00  0.00     0.007 A 
ATOM     11  C   UNL     1     -25.281  23.921   2.061  1.00  0.00     0.007 A 
ATOM     12  C   UNL     1     -27.388  23.135   3.603  1.00  0.00     0.000 A 
ATOM     13  C   UNL     1     -25.616  24.659   3.167  1.00  0.00     0.000 A 
ATOM     14  C   UNL     1     -26.675  24.280   3.957  1.00  0.00     0.000 A 
ENDBRANCH   8   9
BRANCH   8  15
ATOM     15  C   UNL     1     -24.461  21.151   1.017  1.00  0.00    -0.013 A 
ATOM     16  C   UNL     1     -24.019  21.172   2.314  1.00  0.00     0.007 A 
ATOM     17  C   UNL     1     -23.915  20.228   0.162  1.00  0.00     0.007 A 
ATOM     18  C   UNL     1     -23.044  20.295   2.776  1.00  0.00     0.000 A 
ATOM     19  C   UNL     1     -22.928  19.332   0.606  1.00  0.00     0.000 A 
ATOM     20  C   UNL     1     -22.506  19.377   1.906  1.00  0.00     0.000 A 
ENDBRANCH   8  15
BRANCH   8  21
ATOM     21  N   UNL     1     -26.526  21.292  -0.172  1.00  0.00    -0.319 N 
ATOM     22  C   UNL     1     -27.605  20.704   0.414  1.00  0.00     0.109 A 
ATOM     23  C   UNL     1     -26.606  21.034  -1.477  1.00  0.00     0.200 A 
ATOM     24  C   UNL     1     -28.355  20.074  -0.554  1.00  0.00     0.131 A 
ATOM     25  N   UNL     1     -27.723  20.292  -1.702  1.00  0.00    -0.245 NA
ENDBRANCH   8  21
ENDBRANCH   7   8
TORSDOF 4
ENDMDL
