MODEL 1
REMARK VINA RESULT:     -10.1      0.000      0.000
REMARK SMILES O=C(CCC[NH+]1CCC(O)(c2ccc(Cl)cc2)CC1)c1ccc(F)cc1
REMARK SMILES IDX 4 1 3 2 2 3 1 4 20 5 21 6 26 7 22 8 25 9 23 10 24 11 5 12
REMARK SMILES IDX 6 13 7 14 19 15 8 16 18 17 9 18 10 20 11 22 12 23 17 24
REMARK SMILES IDX 13 25 16 26 14 27 15 28
REMARK H PARENT 6 19 10 21
ROOT
ATOM      1  C   UNL     1      10.196  35.669 -37.050  1.00  0.00     0.070 C 
ENDROOT
BRANCH   1   2
ATOM      2  C   UNL     1       8.926  36.013 -37.797  1.00  0.00     0.087 C 
BRANCH   2   3
ATOM      3  C   UNL     1       9.138  36.434 -39.183  1.00  0.00     0.163 C 
ATOM      4  O   UNL     1       9.579  35.638 -40.052  1.00  0.00    -0.294 OA
BRANCH   3   5
ATOM      5  C   UNL     1       8.849  37.808 -39.646  1.00  0.00     0.018 A 
ATOM      6  C   UNL     1       9.583  38.879 -39.168  1.00  0.00     0.015 A 
ATOM      7  C   UNL     1       7.853  38.053 -40.556  1.00  0.00     0.015 A 
ATOM      8  C   UNL     1       9.309  40.154 -39.602  1.00  0.00     0.040 A 
ATOM      9  C   UNL     1       7.575  39.320 -40.994  1.00  0.00     0.040 A 
ATOM     10  C   UNL     1       8.307  40.371 -40.513  1.00  0.00     0.123 A 
ATOM     11  F   UNL     1       7.997  41.625 -40.972  1.00  0.00    -0.207 F 
ENDBRANCH   3   5
ENDBRANCH   2   3
ENDBRANCH   1   2
BRANCH   1  12
ATOM     12  C   UNL     1      10.114  36.261 -35.685  1.00  0.00     0.262 C 
BRANCH  12  13
ATOM     13  N   UNL     1       9.647  37.641 -35.696  1.00  0.00    -0.335 N 
ATOM     14  C   UNL     1       8.904  37.977 -34.520  1.00  0.00     0.265 C 
ATOM     15  C   UNL     1      10.748  38.531 -35.872  1.00  0.00     0.265 C 
ATOM     16  C   UNL     1       9.732  37.805 -33.275  1.00  0.00     0.102 C 
ATOM     17  C   UNL     1      11.194  39.285 -34.691  1.00  0.00     0.102 C 
ATOM     18  C   UNL     1      10.928  38.705 -33.351  1.00  0.00     0.100 C 
ATOM     19  H   UNL     1       8.960  37.684 -36.507  1.00  0.00     0.348 HD
BRANCH  18  20
ATOM     20  O   UNL     1      10.655  39.789 -32.480  1.00  0.00    -0.385 OA
ATOM     21  H   UNL     1      10.336  39.394 -31.630  1.00  0.00     0.211 HD
ENDBRANCH  18  20
BRANCH  18  22
ATOM     22  C   UNL     1      12.145  38.051 -32.749  1.00  0.00    -0.016 A 
ATOM     23  C   UNL     1      12.085  36.815 -32.141  1.00  0.00     0.008 A 
ATOM     24  C   UNL     1      13.389  38.643 -32.768  1.00  0.00     0.008 A 
ATOM     25  C   UNL     1      13.172  36.183 -31.580  1.00  0.00     0.021 A 
ATOM     26  C   UNL     1      14.493  38.029 -32.210  1.00  0.00     0.021 A 
ATOM     27  C   UNL     1      14.384  36.800 -31.618  1.00  0.00     0.041 A 
ATOM     28  Cl  UNL     1      15.776  36.015 -30.912  1.00  0.00    -0.084 Cl
ENDBRANCH  18  22
ENDBRANCH  12  13
ENDBRANCH   1  12
TORSDOF 7
ENDMDL
MODEL 2
REMARK VINA RESULT:     -10.0      2.319      3.649
REMARK SMILES O=C(CCC[NH+]1CCC(O)(c2ccc(Cl)cc2)CC1)c1ccc(F)cc1
REMARK SMILES IDX 4 1 3 2 2 3 1 4 20 5 21 6 26 7 22 8 25 9 23 10 24 11 5 12
REMARK SMILES IDX 6 13 7 14 19 15 8 16 18 17 9 18 10 20 11 22 12 23 17 24
REMARK SMILES IDX 13 25 16 26 14 27 15 28
REMARK H PARENT 6 19 10 21
ROOT
ATOM      1  C   UNL     1      11.390  35.603 -33.514  1.00  0.00     0.070 C 
ENDROOT
BRANCH   1   2
ATOM      2  C   UNL     1      10.398  35.066 -34.521  1.00  0.00     0.087 C 
BRANCH   2   3
ATOM      3  C   UNL     1      10.712  35.398 -35.913  1.00  0.00     0.163 C 
ATOM      4  O   UNL     1      11.752  34.967 -36.473  1.00  0.00    -0.294 OA
BRANCH   3   5
ATOM      5  C   UNL     1       9.834  36.252 -36.740  1.00  0.00     0.018 A 
ATOM      6  C   UNL     1       9.181  35.729 -37.842  1.00  0.00     0.015 A 
ATOM      7  C   UNL     1       9.646  37.576 -36.437  1.00  0.00     0.015 A 
ATOM      8  C   UNL     1       8.366  36.529 -38.608  1.00  0.00     0.040 A 
ATOM      9  C   UNL     1       8.835  38.379 -37.194  1.00  0.00     0.040 A 
ATOM     10  C   UNL     1       8.195  37.850 -38.282  1.00  0.00     0.123 A 
ATOM     11  F   UNL     1       7.395  38.685 -39.017  1.00  0.00    -0.207 F 
ENDBRANCH   3   5
ENDBRANCH   2   3
ENDBRANCH   1   2
BRANCH   1  12
ATOM     12  C   UNL     1      10.826  36.846 -32.915  1.00  0.00     0.262 C 
BRANCH  12  13
ATOM     13  N   UNL     1      11.536  38.047 -33.335  1.00  0.00    -0.335 N 
ATOM     14  C   UNL     1      11.624  39.024 -32.293  1.00  0.00     0.265 C 
ATOM     15  C   UNL     1      12.834  37.706 -33.820  1.00  0.00     0.265 C 
ATOM     16  C   UNL     1      12.348  38.485 -31.090  1.00  0.00     0.102 C 
ATOM     17  C   UNL     1      13.977  38.017 -32.949  1.00  0.00     0.102 C 
ATOM     18  C   UNL     1      13.740  38.094 -31.486  1.00  0.00     0.100 C 
ATOM     19  H   UNL     1      10.921  38.470 -34.092  1.00  0.00     0.348 HD
BRANCH  18  20
ATOM     20  O   UNL     1      14.588  39.111 -30.984  1.00  0.00    -0.385 OA
ATOM     21  H   UNL     1      14.607  39.003 -30.000  1.00  0.00     0.211 HD
ENDBRANCH  18  20
BRANCH  18  22
ATOM     22  C   UNL     1      14.188  36.853 -30.759  1.00  0.00    -0.016 A 
ATOM     23  C   UNL     1      15.471  36.714 -30.271  1.00  0.00     0.008 A 
ATOM     24  C   UNL     1      13.351  35.783 -30.536  1.00  0.00     0.008 A 
ATOM     25  C   UNL     1      15.920  35.598 -29.602  1.00  0.00     0.021 A 
ATOM     26  C   UNL     1      13.779  34.652 -29.868  1.00  0.00     0.021 A 
ATOM     27  C   UNL     1      15.062  34.561 -29.402  1.00  0.00     0.041 A 
ATOM     28  Cl  UNL     1      15.611  33.136 -28.554  1.00  0.00    -0.084 Cl
ENDBRANCH  18  22
ENDBRANCH  12  13
ENDBRANCH   1  12
TORSDOF 7
ENDMDL
MODEL 3
REMARK VINA RESULT:     -10.0      0.137      1.311
REMARK SMILES O=C(CCC[NH+]1CCC(O)(c2ccc(Cl)cc2)CC1)c1ccc(F)cc1
REMARK SMILES IDX 4 1 3 2 2 3 1 4 20 5 21 6 26 7 22 8 25 9 23 10 24 11 5 12
REMARK SMILES IDX 6 13 7 14 19 15 8 16 18 17 9 18 10 20 11 22 12 23 17 24
REMARK SMILES IDX 13 25 16 26 14 27 15 28
REMARK H PARENT 6 19 10 21
ROOT
ATOM      1  C   UNL     1      10.211  35.756 -36.968  1.00  0.00     0.070 C 
ENDROOT
BRANCH   1   2
ATOM      2  C   UNL     1       8.939  35.902 -37.774  1.00  0.00     0.087 C 
BRANCH   2   3
ATOM      3  C   UNL     1       9.144  36.370 -39.146  1.00  0.00     0.163 C 
ATOM      4  O   UNL     1       9.598  35.608 -40.039  1.00  0.00    -0.294 OA
BRANCH   3   5
ATOM      5  C   UNL     1       8.834  37.752 -39.566  1.00  0.00     0.018 A 
ATOM      6  C   UNL     1       7.713  38.020 -40.330  1.00  0.00     0.015 A 
ATOM      7  C   UNL     1       9.646  38.798 -39.209  1.00  0.00     0.015 A 
ATOM      8  C   UNL     1       7.430  39.308 -40.718  1.00  0.00     0.040 A 
ATOM      9  C   UNL     1       9.371  40.084 -39.591  1.00  0.00     0.040 A 
ATOM     10  C   UNL     1       8.259  40.336 -40.347  1.00  0.00     0.123 A 
ATOM     11  F   UNL     1       8.019  41.635 -40.712  1.00  0.00    -0.207 F 
ENDBRANCH   3   5
ENDBRANCH   2   3
ENDBRANCH   1   2
BRANCH   1  12
ATOM     12  C   UNL     1       9.969  36.301 -35.603  1.00  0.00     0.262 C 
BRANCH  12  13
ATOM     13  N   UNL     1       9.545  37.695 -35.619  1.00  0.00    -0.335 N 
ATOM     14  C   UNL     1       8.847  38.068 -34.427  1.00  0.00     0.265 C 
ATOM     15  C   UNL     1      10.668  38.547 -35.837  1.00  0.00     0.265 C 
ATOM     16  C   UNL     1       9.704  37.885 -33.204  1.00  0.00     0.102 C 
ATOM     17  C   UNL     1      11.171  39.301 -34.679  1.00  0.00     0.102 C 
ATOM     18  C   UNL     1      10.926  38.747 -33.325  1.00  0.00     0.100 C 
ATOM     19  H   UNL     1       8.837  37.749 -36.410  1.00  0.00     0.348 HD
BRANCH  18  20
ATOM     20  O   UNL     1      10.711  39.849 -32.461  1.00  0.00    -0.385 OA
ATOM     21  H   UNL     1      11.362  40.546 -32.724  1.00  0.00     0.211 HD
ENDBRANCH  18  20
BRANCH  18  22
ATOM     22  C   UNL     1      12.138  38.062 -32.749  1.00  0.00    -0.016 A 
ATOM     23  C   UNL     1      13.375  38.670 -32.716  1.00  0.00     0.008 A 
ATOM     24  C   UNL     1      12.089  36.791 -32.221  1.00  0.00     0.008 A 
ATOM     25  C   UNL     1      14.506  38.080 -32.200  1.00  0.00     0.021 A 
ATOM     26  C   UNL     1      13.210  36.178 -31.698  1.00  0.00     0.021 A 
ATOM     27  C   UNL     1      14.417  36.823 -31.688  1.00  0.00     0.041 A 
ATOM     28  Cl  UNL     1      15.841  36.056 -31.027  1.00  0.00    -0.084 Cl
ENDBRANCH  18  22
ENDBRANCH  12  13
ENDBRANCH   1  12
TORSDOF 7
ENDMDL
MODEL 4
REMARK VINA RESULT:      -9.9      2.200      3.494
REMARK SMILES O=C(CCC[NH+]1CCC(O)(c2ccc(Cl)cc2)CC1)c1ccc(F)cc1
REMARK SMILES IDX 4 1 3 2 2 3 1 4 20 5 21 6 26 7 22 8 25 9 23 10 24 11 5 12
REMARK SMILES IDX 6 13 7 14 19 15 8 16 18 17 9 18 10 20 11 22 12 23 17 24
REMARK SMILES IDX 13 25 16 26 14 27 15 28
REMARK H PARENT 6 19 10 21
ROOT
ATOM      1  C   UNL     1       9.667  36.473 -33.661  1.00  0.00     0.070 C 
ENDROOT
BRANCH   1   2
ATOM      2  C   UNL     1       9.892  35.287 -34.572  1.00  0.00     0.087 C 
BRANCH   2   3
ATOM      3  C   UNL     1      10.511  35.622 -35.856  1.00  0.00     0.163 C 
ATOM      4  O   UNL     1      11.682  35.255 -36.137  1.00  0.00    -0.294 OA
BRANCH   3   5
ATOM      5  C   UNL     1       9.808  36.403 -36.895  1.00  0.00     0.018 A 
ATOM      6  C   UNL     1       9.135  35.763 -37.920  1.00  0.00     0.015 A 
ATOM      7  C   UNL     1       9.805  37.775 -36.867  1.00  0.00     0.015 A 
ATOM      8  C   UNL     1       8.483  36.496 -38.884  1.00  0.00     0.040 A 
ATOM      9  C   UNL     1       9.157  38.511 -37.823  1.00  0.00     0.040 A 
ATOM     10  C   UNL     1       8.495  37.867 -38.832  1.00  0.00     0.123 A 
ATOM     11  F   UNL     1       7.861  38.638 -39.771  1.00  0.00    -0.207 F 
ENDBRANCH   3   5
ENDBRANCH   2   3
ENDBRANCH   1   2
BRANCH   1  12
ATOM     12  C   UNL     1      10.924  36.730 -32.904  1.00  0.00     0.262 C 
BRANCH  12  13
ATOM     13  N   UNL     1      11.601  37.948 -33.332  1.00  0.00    -0.335 N 
ATOM     14  C   UNL     1      11.655  38.935 -32.297  1.00  0.00     0.265 C 
ATOM     15  C   UNL     1      12.910  37.640 -33.808  1.00  0.00     0.265 C 
ATOM     16  C   UNL     1      12.390  38.428 -31.086  1.00  0.00     0.102 C 
ATOM     17  C   UNL     1      14.040  37.991 -32.936  1.00  0.00     0.102 C 
ATOM     18  C   UNL     1      13.794  38.074 -31.474  1.00  0.00     0.100 C 
ATOM     19  H   UNL     1      10.977  38.347 -34.094  1.00  0.00     0.348 HD
BRANCH  18  20
ATOM     20  O   UNL     1      14.610  39.119 -30.977  1.00  0.00    -0.385 OA
ATOM     21  H   UNL     1      14.377  39.930 -31.494  1.00  0.00     0.211 HD
ENDBRANCH  18  20
BRANCH  18  22
ATOM     22  C   UNL     1      14.275  36.852 -30.735  1.00  0.00    -0.016 A 
ATOM     23  C   UNL     1      13.467  35.753 -30.534  1.00  0.00     0.008 A 
ATOM     24  C   UNL     1      15.547  36.755 -30.214  1.00  0.00     0.008 A 
ATOM     25  C   UNL     1      13.867  34.619 -29.865  1.00  0.00     0.021 A 
ATOM     26  C   UNL     1      15.970  35.628 -29.538  1.00  0.00     0.021 A 
ATOM     27  C   UNL     1      15.130  34.561 -29.365  1.00  0.00     0.041 A 
ATOM     28  Cl  UNL     1      15.659  33.130 -28.513  1.00  0.00    -0.084 Cl
ENDBRANCH  18  22
ENDBRANCH  12  13
ENDBRANCH   1  12
TORSDOF 7
ENDMDL
MODEL 5
REMARK VINA RESULT:      -9.8      4.253      7.600
REMARK SMILES O=C(CCC[NH+]1CCC(O)(c2ccc(Cl)cc2)CC1)c1ccc(F)cc1
REMARK SMILES IDX 4 1 3 2 2 3 1 4 20 5 21 6 26 7 22 8 25 9 23 10 24 11 5 12
REMARK SMILES IDX 6 13 7 14 19 15 8 16 18 17 9 18 10 20 11 22 12 23 17 24
REMARK SMILES IDX 13 25 16 26 14 27 15 28
REMARK H PARENT 6 19 10 21
ROOT
ATOM      1  C   UNL     1      11.426  39.167 -33.355  1.00  0.00     0.070 C 
ENDROOT
BRANCH   1   2
ATOM      2  C   UNL     1      12.897  38.995 -33.050  1.00  0.00     0.087 C 
BRANCH   2   3
ATOM      3  C   UNL     1      13.192  38.713 -31.643  1.00  0.00     0.163 C 
ATOM      4  O   UNL     1      12.320  38.855 -30.748  1.00  0.00    -0.294 OA
BRANCH   3   5
ATOM      5  C   UNL     1      14.519  38.246 -31.191  1.00  0.00     0.018 A 
ATOM      6  C   UNL     1      15.006  38.610 -29.949  1.00  0.00     0.015 A 
ATOM      7  C   UNL     1      15.295  37.443 -31.988  1.00  0.00     0.015 A 
ATOM      8  C   UNL     1      16.242  38.173 -29.534  1.00  0.00     0.040 A 
ATOM      9  C   UNL     1      16.527  37.003 -31.581  1.00  0.00     0.040 A 
ATOM     10  C   UNL     1      16.997  37.370 -30.351  1.00  0.00     0.123 A 
ATOM     11  F   UNL     1      18.235  36.912 -29.980  1.00  0.00    -0.207 F 
ENDBRANCH   3   5
ENDBRANCH   2   3
ENDBRANCH   1   2
BRANCH   1  12
ATOM     12  C   UNL     1      11.241  39.099 -34.832  1.00  0.00     0.262 C 
BRANCH  12  13
ATOM     13  N   UNL     1       9.956  38.525 -35.213  1.00  0.00    -0.335 N 
ATOM     14  C   UNL     1      10.099  37.379 -36.059  1.00  0.00     0.265 C 
ATOM     15  C   UNL     1       9.197  38.205 -34.049  1.00  0.00     0.265 C 
ATOM     16  C   UNL     1      10.883  36.288 -35.384  1.00  0.00     0.102 C 
ATOM     17  C   UNL     1       9.089  36.783 -33.691  1.00  0.00     0.102 C 
ATOM     18  C   UNL     1      10.168  35.866 -34.135  1.00  0.00     0.100 C 
ATOM     19  H   UNL     1       9.492  39.278 -35.804  1.00  0.00     0.348 HD
BRANCH  18  20
ATOM     20  O   UNL     1       9.557  34.625 -34.438  1.00  0.00    -0.385 OA
ATOM     21  H   UNL     1       8.782  34.536 -33.829  1.00  0.00     0.211 HD
ENDBRANCH  18  20
BRANCH  18  22
ATOM     22  C   UNL     1      11.140  35.536 -33.033  1.00  0.00    -0.016 A 
ATOM     23  C   UNL     1      10.761  35.512 -31.707  1.00  0.00     0.008 A 
ATOM     24  C   UNL     1      12.462  35.238 -33.277  1.00  0.00     0.008 A 
ATOM     25  C   UNL     1      11.617  35.215 -30.670  1.00  0.00     0.021 A 
ATOM     26  C   UNL     1      13.340  34.938 -32.253  1.00  0.00     0.021 A 
ATOM     27  C   UNL     1      12.916  34.926 -30.952  1.00  0.00     0.041 A 
ATOM     28  Cl  UNL     1      14.019  34.545 -29.651  1.00  0.00    -0.084 Cl
ENDBRANCH  18  22
ENDBRANCH  12  13
ENDBRANCH   1  12
TORSDOF 7
ENDMDL
MODEL 6
REMARK VINA RESULT:      -9.8      4.247      7.647
REMARK SMILES O=C(CCC[NH+]1CCC(O)(c2ccc(Cl)cc2)CC1)c1ccc(F)cc1
REMARK SMILES IDX 4 1 3 2 2 3 1 4 20 5 21 6 26 7 22 8 25 9 23 10 24 11 5 12
REMARK SMILES IDX 6 13 7 14 19 15 8 16 18 17 9 18 10 20 11 22 12 23 17 24
REMARK SMILES IDX 13 25 16 26 14 27 15 28
REMARK H PARENT 6 19 10 21
ROOT
ATOM      1  C   UNL     1      11.381  39.115 -33.346  1.00  0.00     0.070 C 
ENDROOT
BRANCH   1   2
ATOM      2  C   UNL     1      12.858  38.965 -33.052  1.00  0.00     0.087 C 
BRANCH   2   3
ATOM      3  C   UNL     1      13.168  38.687 -31.649  1.00  0.00     0.163 C 
ATOM      4  O   UNL     1      12.306  38.831 -30.744  1.00  0.00    -0.294 OA
BRANCH   3   5
ATOM      5  C   UNL     1      14.501  38.223 -31.209  1.00  0.00     0.018 A 
ATOM      6  C   UNL     1      15.272  37.421 -32.032  1.00  0.00     0.015 A 
ATOM      7  C   UNL     1      15.003  38.574 -29.982  1.00  0.00     0.015 A 
ATOM      8  C   UNL     1      16.510  36.992 -31.617  1.00  0.00     0.040 A 
ATOM      9  C   UNL     1      16.236  38.151 -29.562  1.00  0.00     0.040 A 
ATOM     10  C   UNL     1      16.988  37.359 -30.385  1.00  0.00     0.123 A 
ATOM     11  F   UNL     1      18.216  36.953 -29.929  1.00  0.00    -0.207 F 
ENDBRANCH   3   5
ENDBRANCH   2   3
ENDBRANCH   1   2
BRANCH   1  12
ATOM     12  C   UNL     1      11.192  39.113 -34.824  1.00  0.00     0.262 C 
BRANCH  12  13
ATOM     13  N   UNL     1       9.922  38.525 -35.228  1.00  0.00    -0.335 N 
ATOM     14  C   UNL     1      10.092  37.381 -36.071  1.00  0.00     0.265 C 
ATOM     15  C   UNL     1       9.145  38.196 -34.078  1.00  0.00     0.265 C 
ATOM     16  C   UNL     1      10.876  36.298 -35.382  1.00  0.00     0.102 C 
ATOM     17  C   UNL     1       9.046  36.773 -33.722  1.00  0.00     0.102 C 
ATOM     18  C   UNL     1      10.143  35.868 -34.147  1.00  0.00     0.100 C 
ATOM     19  H   UNL     1       9.460  39.273 -35.827  1.00  0.00     0.348 HD
BRANCH  18  20
ATOM     20  O   UNL     1       9.551  34.620 -34.461  1.00  0.00    -0.385 OA
ATOM     21  H   UNL     1       9.923  33.962 -33.822  1.00  0.00     0.211 HD
ENDBRANCH  18  20
BRANCH  18  22
ATOM     22  C   UNL     1      11.098  35.548 -33.027  1.00  0.00    -0.016 A 
ATOM     23  C   UNL     1      12.417  35.222 -33.261  1.00  0.00     0.008 A 
ATOM     24  C   UNL     1      10.717  35.559 -31.703  1.00  0.00     0.008 A 
ATOM     25  C   UNL     1      13.321  34.923 -32.267  1.00  0.00     0.021 A 
ATOM     26  C   UNL     1      11.606  35.262 -30.689  1.00  0.00     0.021 A 
ATOM     27  C   UNL     1      12.906  34.945 -30.972  1.00  0.00     0.041 A 
ATOM     28  Cl  UNL     1      14.038  34.569 -29.695  1.00  0.00    -0.084 Cl
ENDBRANCH  18  22
ENDBRANCH  12  13
ENDBRANCH   1  12
TORSDOF 7
ENDMDL
MODEL 7
REMARK VINA RESULT:      -9.7      2.271      3.595
REMARK SMILES O=C(CCC[NH+]1CCC(O)(c2ccc(Cl)cc2)CC1)c1ccc(F)cc1
REMARK SMILES IDX 4 1 3 2 2 3 1 4 20 5 21 6 26 7 22 8 25 9 23 10 24 11 5 12
REMARK SMILES IDX 6 13 7 14 19 15 8 16 18 17 9 18 10 20 11 22 12 23 17 24
REMARK SMILES IDX 13 25 16 26 14 27 15 28
REMARK H PARENT 6 19 10 21
ROOT
ATOM      1  C   UNL     1       9.846  36.490 -33.455  1.00  0.00     0.070 C 
ENDROOT
BRANCH   1   2
ATOM      2  C   UNL     1       9.971  36.223 -34.938  1.00  0.00     0.087 C 
BRANCH   2   3
ATOM      3  C   UNL     1       9.768  37.403 -35.782  1.00  0.00     0.163 C 
ATOM      4  O   UNL     1       9.831  38.567 -35.309  1.00  0.00    -0.294 OA
BRANCH   3   5
ATOM      5  C   UNL     1       9.480  37.302 -37.228  1.00  0.00     0.018 A 
ATOM      6  C   UNL     1       9.454  38.436 -38.020  1.00  0.00     0.015 A 
ATOM      7  C   UNL     1       9.233  36.088 -37.817  1.00  0.00     0.015 A 
ATOM      8  C   UNL     1       9.185  38.335 -39.364  1.00  0.00     0.040 A 
ATOM      9  C   UNL     1       8.965  35.980 -39.155  1.00  0.00     0.040 A 
ATOM     10  C   UNL     1       8.942  37.108 -39.928  1.00  0.00     0.123 A 
ATOM     11  F   UNL     1       8.668  36.960 -41.263  1.00  0.00    -0.207 F 
ENDBRANCH   3   5
ENDBRANCH   2   3
ENDBRANCH   1   2
BRANCH   1  12
ATOM     12  C   UNL     1      11.216  36.625 -32.884  1.00  0.00     0.262 C 
BRANCH  12  13
ATOM     13  N   UNL     1      11.838  37.902 -33.209  1.00  0.00    -0.335 N 
ATOM     14  C   UNL     1      11.776  38.833 -32.124  1.00  0.00     0.265 C 
ATOM     15  C   UNL     1      13.188  37.699 -33.625  1.00  0.00     0.265 C 
ATOM     16  C   UNL     1      12.474  38.305 -30.900  1.00  0.00     0.102 C 
ATOM     17  C   UNL     1      14.245  38.068 -32.672  1.00  0.00     0.102 C 
ATOM     18  C   UNL     1      13.916  38.056 -31.225  1.00  0.00     0.100 C 
ATOM     19  H   UNL     1      11.233  38.305 -33.985  1.00  0.00     0.348 HD
BRANCH  18  20
ATOM     20  O   UNL     1      14.638  39.119 -30.629  1.00  0.00    -0.385 OA
ATOM     21  H   UNL     1      14.060  39.920 -30.686  1.00  0.00     0.211 HD
ENDBRANCH  18  20
BRANCH  18  22
ATOM     22  C   UNL     1      14.431  36.826 -30.523  1.00  0.00    -0.016 A 
ATOM     23  C   UNL     1      13.649  35.704 -30.344  1.00  0.00     0.008 A 
ATOM     24  C   UNL     1      15.710  36.743 -30.017  1.00  0.00     0.008 A 
ATOM     25  C   UNL     1      14.080  34.562 -29.708  1.00  0.00     0.021 A 
ATOM     26  C   UNL     1      16.164  35.608 -29.375  1.00  0.00     0.021 A 
ATOM     27  C   UNL     1      15.350  34.519 -29.222  1.00  0.00     0.041 A 
ATOM     28  Cl  UNL     1      15.918  33.078 -28.414  1.00  0.00    -0.084 Cl
ENDBRANCH  18  22
ENDBRANCH  12  13
ENDBRANCH   1  12
TORSDOF 7
ENDMDL
MODEL 8
REMARK VINA RESULT:      -9.7      4.645      9.128
REMARK SMILES O=C(CCC[NH+]1CCC(O)(c2ccc(Cl)cc2)CC1)c1ccc(F)cc1
REMARK SMILES IDX 4 1 3 2 2 3 1 4 20 5 21 6 26 7 22 8 25 9 23 10 24 11 5 12
REMARK SMILES IDX 6 13 7 14 19 15 8 16 18 17 9 18 10 20 11 22 12 23 17 24
REMARK SMILES IDX 13 25 16 26 14 27 15 28
REMARK H PARENT 6 19 10 21
ROOT
ATOM      1  C   UNL     1      12.792  39.190 -33.082  1.00  0.00     0.070 C 
ENDROOT
BRANCH   1   2
ATOM      2  C   UNL     1      12.969  38.499 -31.748  1.00  0.00     0.087 C 
BRANCH   2   3
ATOM      3  C   UNL     1      14.364  38.347 -31.328  1.00  0.00     0.163 C 
ATOM      4  O   UNL     1      15.240  39.196 -31.639  1.00  0.00    -0.294 OA
BRANCH   3   5
ATOM      5  C   UNL     1      14.827  37.200 -30.520  1.00  0.00     0.018 A 
ATOM      6  C   UNL     1      14.088  36.032 -30.470  1.00  0.00     0.015 A 
ATOM      7  C   UNL     1      15.995  37.265 -29.804  1.00  0.00     0.015 A 
ATOM      8  C   UNL     1      14.524  34.968 -29.716  1.00  0.00     0.040 A 
ATOM      9  C   UNL     1      16.437  36.210 -29.052  1.00  0.00     0.040 A 
ATOM     10  C   UNL     1      15.697  35.060 -29.010  1.00  0.00     0.123 A 
ATOM     11  F   UNL     1      16.169  34.027 -28.243  1.00  0.00    -0.207 F 
ENDBRANCH   3   5
ENDBRANCH   2   3
ENDBRANCH   1   2
BRANCH   1  12
ATOM     12  C   UNL     1      11.978  38.307 -33.965  1.00  0.00     0.262 C 
BRANCH  12  13
ATOM     13  N   UNL     1      12.034  36.907 -33.567  1.00  0.00    -0.335 N 
ATOM     14  C   UNL     1      10.776  36.425 -33.082  1.00  0.00     0.265 C 
ATOM     15  C   UNL     1      12.499  36.106 -34.652  1.00  0.00     0.265 C 
ATOM     16  C   UNL     1       9.700  36.541 -34.127  1.00  0.00     0.102 C 
ATOM     17  C   UNL     1      11.502  35.283 -35.352  1.00  0.00     0.102 C 
ATOM     18  C   UNL     1      10.086  35.727 -35.326  1.00  0.00     0.100 C 
ATOM     19  H   UNL     1      12.700  36.890 -32.738  1.00  0.00     0.348 HD
BRANCH  18  20
ATOM     20  O   UNL     1       9.288  34.559 -35.276  1.00  0.00    -0.385 OA
ATOM     21  H   UNL     1       8.534  34.757 -34.666  1.00  0.00     0.211 HD
ENDBRANCH  18  20
BRANCH  18  22
ATOM     22  C   UNL     1       9.666  36.402 -36.605  1.00  0.00    -0.016 A 
ATOM     23  C   UNL     1       9.323  35.685 -37.733  1.00  0.00     0.008 A 
ATOM     24  C   UNL     1       9.596  37.772 -36.731  1.00  0.00     0.008 A 
ATOM     25  C   UNL     1       8.934  36.263 -38.920  1.00  0.00     0.021 A 
ATOM     26  C   UNL     1       9.209  38.374 -37.912  1.00  0.00     0.021 A 
ATOM     27  C   UNL     1       8.878  37.619 -39.004  1.00  0.00     0.041 A 
ATOM     28  Cl  UNL     1       8.385  38.373 -40.502  1.00  0.00    -0.084 Cl
ENDBRANCH  18  22
ENDBRANCH  12  13
ENDBRANCH   1  12
TORSDOF 7
ENDMDL
MODEL 9
REMARK VINA RESULT:      -9.7      4.632      9.136
REMARK SMILES O=C(CCC[NH+]1CCC(O)(c2ccc(Cl)cc2)CC1)c1ccc(F)cc1
REMARK SMILES IDX 4 1 3 2 2 3 1 4 20 5 21 6 26 7 22 8 25 9 23 10 24 11 5 12
REMARK SMILES IDX 6 13 7 14 19 15 8 16 18 17 9 18 10 20 11 22 12 23 17 24
REMARK SMILES IDX 13 25 16 26 14 27 15 28
REMARK H PARENT 6 19 10 21
ROOT
ATOM      1  C   UNL     1      12.873  38.761 -32.644  1.00  0.00     0.070 C 
ENDROOT
BRANCH   1   2
ATOM      2  C   UNL     1      14.302  38.311 -32.441  1.00  0.00     0.087 C 
BRANCH   2   3
ATOM      3  C   UNL     1      14.719  38.242 -31.038  1.00  0.00     0.163 C 
ATOM      4  O   UNL     1      14.886  39.282 -30.350  1.00  0.00    -0.294 OA
BRANCH   3   5
ATOM      5  C   UNL     1      14.965  36.959 -30.348  1.00  0.00     0.018 A 
ATOM      6  C   UNL     1      16.077  36.798 -29.540  1.00  0.00     0.015 A 
ATOM      7  C   UNL     1      14.102  35.902 -30.491  1.00  0.00     0.015 A 
ATOM      8  C   UNL     1      16.300  35.601 -28.901  1.00  0.00     0.040 A 
ATOM      9  C   UNL     1      14.318  34.707 -29.857  1.00  0.00     0.040 A 
ATOM     10  C   UNL     1      15.421  34.561 -29.061  1.00  0.00     0.123 A 
ATOM     11  F   UNL     1      15.605  33.349 -28.446  1.00  0.00    -0.207 F 
ENDBRANCH   3   5
ENDBRANCH   2   3
ENDBRANCH   1   2
BRANCH   1  12
ATOM     12  C   UNL     1      12.262  37.923 -33.714  1.00  0.00     0.262 C 
BRANCH  12  13
ATOM     13  N   UNL     1      12.180  36.515 -33.348  1.00  0.00    -0.335 N 
ATOM     14  C   UNL     1      10.887  36.152 -32.854  1.00  0.00     0.265 C 
ATOM     15  C   UNL     1      12.545  35.697 -34.459  1.00  0.00     0.265 C 
ATOM     16  C   UNL     1       9.813  36.403 -33.877  1.00  0.00     0.102 C 
ATOM     17  C   UNL     1      11.459  34.997 -35.160  1.00  0.00     0.102 C 
ATOM     18  C   UNL     1      10.096  35.583 -35.100  1.00  0.00     0.100 C 
ATOM     19  H   UNL     1      12.854  36.411 -32.532  1.00  0.00     0.348 HD
BRANCH  18  20
ATOM     20  O   UNL     1       9.183  34.501 -35.062  1.00  0.00    -0.385 OA
ATOM     21  H   UNL     1       8.288  34.892 -34.907  1.00  0.00     0.211 HD
ENDBRANCH  18  20
BRANCH  18  22
ATOM     22  C   UNL     1       9.728  36.328 -36.356  1.00  0.00    -0.016 A 
ATOM     23  C   UNL     1       9.325  35.675 -37.502  1.00  0.00     0.008 A 
ATOM     24  C   UNL     1       9.770  37.702 -36.441  1.00  0.00     0.008 A 
ATOM     25  C   UNL     1       8.981  36.317 -38.670  1.00  0.00     0.021 A 
ATOM     26  C   UNL     1       9.430  38.368 -37.602  1.00  0.00     0.021 A 
ATOM     27  C   UNL     1       9.035  37.676 -38.714  1.00  0.00     0.041 A 
ATOM     28  Cl  UNL     1       8.601  38.511 -40.186  1.00  0.00    -0.084 Cl
ENDBRANCH  18  22
ENDBRANCH  12  13
ENDBRANCH   1  12
TORSDOF 7
ENDMDL
