MODEL 1
REMARK VINA RESULT:      -8.1      0.000      0.000
REMARK SMILES CC/C(=C(\c1ccccc1)c1ccc(OCC[NH+](C)C)cc1)c1ccccc1
REMARK SMILES IDX 15 1 14 2 11 3 12 4 22 5 13 6 21 7 4 8 3 9 2 10 1 11 23 12
REMARK SMILES IDX 24 13 28 14 25 15 27 16 26 17 5 18 6 19 10 20 7 21 9 22 8 23
REMARK SMILES IDX 16 24 17 25 18 26 19 27 20 28
REMARK H PARENT 18 29
ROOT
ATOM      1  O   UNL     1      11.899  38.979 -34.592  1.00  0.00    -0.488 OA
ENDROOT
BRANCH   1   2
ATOM      2  C   UNL     1      12.127  38.061 -33.583  1.00  0.00     0.119 A 
ATOM      3  C   UNL     1      12.595  36.254 -31.421  1.00  0.00    -0.017 A 
ATOM      4  C   UNL     1      12.415  35.808 -32.716  1.00  0.00     0.012 A 
ATOM      5  C   UNL     1      12.536  37.632 -31.239  1.00  0.00     0.012 A 
ATOM      6  C   UNL     1      12.188  36.698 -33.754  1.00  0.00     0.047 A 
ATOM      7  C   UNL     1      12.312  38.509 -32.266  1.00  0.00     0.047 A 
BRANCH   3   8
ATOM      8  C   UNL     1      12.859  35.347 -30.318  1.00  0.00    -0.007 C 
ATOM      9  C   UNL     1      14.027  35.263 -29.735  1.00  0.00    -0.033 C 
BRANCH   9  10
ATOM     10  C   UNL     1      14.364  34.320 -28.634  1.00  0.00     0.033 C 
ATOM     11  C   UNL     1      15.587  33.540 -29.020  1.00  0.00     0.009 C 
ENDBRANCH   9  10
BRANCH   9  12
ATOM     12  C   UNL     1      15.122  36.181 -30.096  1.00  0.00    -0.022 A 
ATOM     13  C   UNL     1      15.678  36.192 -31.350  1.00  0.00     0.008 A 
ATOM     14  C   UNL     1      15.593  37.030 -29.140  1.00  0.00     0.008 A 
ATOM     15  C   UNL     1      16.703  37.060 -31.631  1.00  0.00     0.001 A 
ATOM     16  C   UNL     1      16.635  37.929 -29.384  1.00  0.00     0.001 A 
ATOM     17  C   UNL     1      17.172  37.918 -30.651  1.00  0.00     0.000 A 
ENDBRANCH   9  12
BRANCH   8  18
ATOM     18  C   UNL     1      11.783  34.480 -29.881  1.00  0.00    -0.018 A 
ATOM     19  C   UNL     1      11.894  33.104 -29.893  1.00  0.00     0.009 A 
ATOM     20  C   UNL     1      10.573  35.039 -29.479  1.00  0.00     0.009 A 
ATOM     21  C   UNL     1      10.820  32.341 -29.512  1.00  0.00     0.001 A 
ATOM     22  C   UNL     1       9.487  34.289 -29.093  1.00  0.00     0.001 A 
ATOM     23  C   UNL     1       9.624  32.904 -29.113  1.00  0.00     0.000 A 
ENDBRANCH   8  18
ENDBRANCH   3   8
ENDBRANCH   1   2
BRANCH   1  24
ATOM     24  C   UNL     1      10.881  39.000 -35.529  1.00  0.00     0.290 C 
BRANCH  24  25
ATOM     25  C   UNL     1      10.104  37.718 -35.681  1.00  0.00     0.303 C 
BRANCH  25  26
ATOM     26  N   UNL     1      10.142  37.198 -37.014  1.00  0.00    -0.337 N 
ATOM     27  C   UNL     1       9.367  37.975 -37.957  1.00  0.00     0.332 C 
ATOM     28  C   UNL     1       9.669  35.831 -37.098  1.00  0.00     0.332 C 
ATOM     29  H   UNL     1      11.135  37.178 -37.394  1.00  0.00     0.347 HD
ENDBRANCH  25  26
ENDBRANCH  24  25
ENDBRANCH   1  24
TORSDOF 8
ENDMDL
MODEL 2
REMARK VINA RESULT:      -8.0      0.458      1.146
REMARK SMILES CC/C(=C(\c1ccccc1)c1ccc(OCC[NH+](C)C)cc1)c1ccccc1
REMARK SMILES IDX 15 1 14 2 11 3 12 4 22 5 13 6 21 7 4 8 3 9 2 10 1 11 23 12
REMARK SMILES IDX 24 13 28 14 25 15 27 16 26 17 5 18 6 19 10 20 7 21 9 22 8 23
REMARK SMILES IDX 16 24 17 25 18 26 19 27 20 28
REMARK H PARENT 18 29
ROOT
ATOM      1  O   UNL     1      11.804  38.569 -34.852  1.00  0.00    -0.488 OA
ENDROOT
BRANCH   1   2
ATOM      2  C   UNL     1      12.060  37.810 -33.724  1.00  0.00     0.119 A 
ATOM      3  C   UNL     1      12.589  36.147 -31.463  1.00  0.00    -0.017 A 
ATOM      4  C   UNL     1      12.550  37.524 -31.361  1.00  0.00     0.012 A 
ATOM      5  C   UNL     1      12.353  35.625 -32.731  1.00  0.00     0.012 A 
ATOM      6  C   UNL     1      12.293  38.317 -32.467  1.00  0.00     0.047 A 
ATOM      7  C   UNL     1      12.099  36.412 -33.823  1.00  0.00     0.047 A 
BRANCH   3   8
ATOM      8  C   UNL     1      12.833  35.290 -30.317  1.00  0.00    -0.007 C 
ATOM      9  C   UNL     1      13.989  35.236 -29.707  1.00  0.00    -0.033 C 
BRANCH   9  10
ATOM     10  C   UNL     1      14.307  34.343 -28.560  1.00  0.00     0.033 C 
ATOM     11  C   UNL     1      15.513  33.519 -28.906  1.00  0.00     0.009 C 
ENDBRANCH   9  10
BRANCH   9  12
ATOM     12  C   UNL     1      15.089  36.142 -30.085  1.00  0.00    -0.022 A 
ATOM     13  C   UNL     1      15.616  36.156 -31.351  1.00  0.00     0.008 A 
ATOM     14  C   UNL     1      15.591  36.976 -29.133  1.00  0.00     0.008 A 
ATOM     15  C   UNL     1      16.647  37.012 -31.648  1.00  0.00     0.001 A 
ATOM     16  C   UNL     1      16.640  37.863 -29.393  1.00  0.00     0.001 A 
ATOM     17  C   UNL     1      17.149  37.856 -30.672  1.00  0.00     0.000 A 
ENDBRANCH   9  12
BRANCH   8  18
ATOM     18  C   UNL     1      11.751  34.438 -29.865  1.00  0.00    -0.018 A 
ATOM     19  C   UNL     1      11.839  33.060 -29.887  1.00  0.00     0.009 A 
ATOM     20  C   UNL     1      10.559  35.014 -29.436  1.00  0.00     0.009 A 
ATOM     21  C   UNL     1      10.760  32.312 -29.491  1.00  0.00     0.001 A 
ATOM     22  C   UNL     1       9.468  34.279 -29.034  1.00  0.00     0.001 A 
ATOM     23  C   UNL     1       9.581  32.892 -29.065  1.00  0.00     0.000 A 
ENDBRANCH   8  18
ENDBRANCH   3   8
ENDBRANCH   1   2
BRANCH   1  24
ATOM     24  C   UNL     1      10.585  38.865 -35.437  1.00  0.00     0.290 C 
BRANCH  24  25
ATOM     25  C   UNL     1       9.762  37.680 -35.870  1.00  0.00     0.303 C 
BRANCH  25  26
ATOM     26  N   UNL     1       9.013  37.928 -37.065  1.00  0.00    -0.337 N 
ATOM     27  C   UNL     1       8.786  36.740 -37.859  1.00  0.00     0.332 C 
ATOM     28  C   UNL     1       9.640  38.906 -37.930  1.00  0.00     0.332 C 
ATOM     29  H   UNL     1       8.050  38.323 -36.843  1.00  0.00     0.347 HD
ENDBRANCH  25  26
ENDBRANCH  24  25
ENDBRANCH   1  24
TORSDOF 8
ENDMDL
MODEL 3
REMARK VINA RESULT:      -7.9      0.644      1.523
REMARK SMILES CC/C(=C(\c1ccccc1)c1ccc(OCC[NH+](C)C)cc1)c1ccccc1
REMARK SMILES IDX 15 1 14 2 11 3 12 4 22 5 13 6 21 7 4 8 3 9 2 10 1 11 23 12
REMARK SMILES IDX 24 13 28 14 25 15 27 16 26 17 5 18 6 19 10 20 7 21 9 22 8 23
REMARK SMILES IDX 16 24 17 25 18 26 19 27 20 28
REMARK H PARENT 18 29
ROOT
ATOM      1  O   UNL     1      11.839  38.876 -34.737  1.00  0.00    -0.488 OA
ENDROOT
BRANCH   1   2
ATOM      2  C   UNL     1      12.076  38.065 -33.642  1.00  0.00     0.119 A 
ATOM      3  C   UNL     1      12.565  36.297 -31.452  1.00  0.00    -0.017 A 
ATOM      4  C   UNL     1      12.557  37.669 -31.292  1.00  0.00     0.012 A 
ATOM      5  C   UNL     1      12.319  35.835 -32.741  1.00  0.00     0.012 A 
ATOM      6  C   UNL     1      12.318  38.514 -32.365  1.00  0.00     0.047 A 
ATOM      7  C   UNL     1      12.084  36.671 -33.799  1.00  0.00     0.047 A 
BRANCH   3   8
ATOM      8  C   UNL     1      12.787  35.388 -30.342  1.00  0.00    -0.007 C 
ATOM      9  C   UNL     1      13.944  35.277 -29.741  1.00  0.00    -0.033 C 
BRANCH   9  10
ATOM     10  C   UNL     1      14.240  34.329 -28.632  1.00  0.00     0.033 C 
ATOM     11  C   UNL     1      15.475  33.549 -28.977  1.00  0.00     0.009 C 
ENDBRANCH   9  10
BRANCH   9  12
ATOM     12  C   UNL     1      15.068  36.165 -30.087  1.00  0.00    -0.022 A 
ATOM     13  C   UNL     1      15.658  36.143 -31.324  1.00  0.00     0.008 A 
ATOM     14  C   UNL     1      15.529  37.021 -29.133  1.00  0.00     0.008 A 
ATOM     15  C   UNL     1      16.708  36.984 -31.592  1.00  0.00     0.001 A 
ATOM     16  C   UNL     1      16.596  37.894 -29.363  1.00  0.00     0.001 A 
ATOM     17  C   UNL     1      17.167  37.850 -30.614  1.00  0.00     0.000 A 
ENDBRANCH   9  12
BRANCH   8  18
ATOM     18  C   UNL     1      11.683  34.550 -29.921  1.00  0.00    -0.018 A 
ATOM     19  C   UNL     1      10.508  35.074 -29.421  1.00  0.00     0.009 A 
ATOM     20  C   UNL     1      11.816  33.165 -29.971  1.00  0.00     0.009 A 
ATOM     21  C   UNL     1       9.521  34.224 -28.995  1.00  0.00     0.001 A 
ATOM     22  C   UNL     1      10.836  32.298 -29.549  1.00  0.00     0.001 A 
ATOM     23  C   UNL     1       9.661  32.851 -29.049  1.00  0.00     0.000 A 
ENDBRANCH   8  18
ENDBRANCH   3   8
ENDBRANCH   1   2
BRANCH   1  24
ATOM     24  C   UNL     1      10.743  38.889 -35.583  1.00  0.00     0.290 C 
BRANCH  24  25
ATOM     25  C   UNL     1      10.913  39.668 -36.861  1.00  0.00     0.303 C 
BRANCH  25  26
ATOM     26  N   UNL     1      10.339  39.011 -37.995  1.00  0.00    -0.337 N 
ATOM     27  C   UNL     1       9.664  39.914 -38.903  1.00  0.00     0.332 C 
ATOM     28  C   UNL     1       9.386  37.984 -37.629  1.00  0.00     0.332 C 
ATOM     29  H   UNL     1      11.082  38.515 -38.572  1.00  0.00     0.347 HD
ENDBRANCH  25  26
ENDBRANCH  24  25
ENDBRANCH   1  24
TORSDOF 8
ENDMDL
MODEL 4
REMARK VINA RESULT:      -7.9      0.325      1.142
REMARK SMILES CC/C(=C(\c1ccccc1)c1ccc(OCC[NH+](C)C)cc1)c1ccccc1
REMARK SMILES IDX 15 1 14 2 11 3 12 4 22 5 13 6 21 7 4 8 3 9 2 10 1 11 23 12
REMARK SMILES IDX 24 13 28 14 25 15 27 16 26 17 5 18 6 19 10 20 7 21 9 22 8 23
REMARK SMILES IDX 16 24 17 25 18 26 19 27 20 28
REMARK H PARENT 18 29
ROOT
ATOM      1  O   UNL     1      12.115  38.929 -34.726  1.00  0.00    -0.488 OA
ENDROOT
BRANCH   1   2
ATOM      2  C   UNL     1      12.287  38.027 -33.692  1.00  0.00     0.119 A 
ATOM      3  C   UNL     1      12.639  36.254 -31.481  1.00  0.00    -0.017 A 
ATOM      4  C   UNL     1      12.500  35.786 -32.773  1.00  0.00     0.012 A 
ATOM      5  C   UNL     1      12.600  37.636 -31.327  1.00  0.00     0.012 A 
ATOM      6  C   UNL     1      12.329  36.660 -33.836  1.00  0.00     0.047 A 
ATOM      7  C   UNL     1      12.431  38.497 -32.378  1.00  0.00     0.047 A 
BRANCH   3   8
ATOM      8  C   UNL     1      12.843  35.364 -30.352  1.00  0.00    -0.007 C 
ATOM      9  C   UNL     1      13.988  35.266 -29.726  1.00  0.00    -0.033 C 
BRANCH   9  10
ATOM     10  C   UNL     1      14.266  34.338 -28.596  1.00  0.00     0.033 C 
ATOM     11  C   UNL     1      15.470  33.509 -28.933  1.00  0.00     0.009 C 
ENDBRANCH   9  10
BRANCH   9  12
ATOM     12  C   UNL     1      15.116  36.152 -30.066  1.00  0.00    -0.022 A 
ATOM     13  C   UNL     1      15.723  36.118 -31.296  1.00  0.00     0.008 A 
ATOM     14  C   UNL     1      15.564  37.018 -29.115  1.00  0.00     0.008 A 
ATOM     15  C   UNL     1      16.776  36.957 -31.558  1.00  0.00     0.001 A 
ATOM     16  C   UNL     1      16.634  37.889 -29.339  1.00  0.00     0.001 A 
ATOM     17  C   UNL     1      17.222  37.833 -30.582  1.00  0.00     0.000 A 
ENDBRANCH   9  12
BRANCH   8  18
ATOM     18  C   UNL     1      11.734  34.530 -29.937  1.00  0.00    -0.018 A 
ATOM     19  C   UNL     1      10.540  35.059 -29.489  1.00  0.00     0.009 A 
ATOM     20  C   UNL     1      11.879  33.146 -29.939  1.00  0.00     0.009 A 
ATOM     21  C   UNL     1       9.547  34.214 -29.065  1.00  0.00     0.001 A 
ATOM     22  C   UNL     1      10.893  32.283 -29.520  1.00  0.00     0.001 A 
ATOM     23  C   UNL     1       9.699  32.841 -29.073  1.00  0.00     0.000 A 
ENDBRANCH   8  18
ENDBRANCH   3   8
ENDBRANCH   1   2
BRANCH   1  24
ATOM     24  C   UNL     1      10.976  39.188 -35.468  1.00  0.00     0.290 C 
BRANCH  24  25
ATOM     25  C   UNL     1       9.842  38.214 -35.288  1.00  0.00     0.303 C 
BRANCH  25  26
ATOM     26  N   UNL     1       9.315  37.735 -36.529  1.00  0.00    -0.337 N 
ATOM     27  C   UNL     1       9.725  36.384 -36.846  1.00  0.00     0.332 C 
ATOM     28  C   UNL     1       9.683  38.568 -37.656  1.00  0.00     0.332 C 
ATOM     29  H   UNL     1       8.251  37.726 -36.521  1.00  0.00     0.347 HD
ENDBRANCH  25  26
ENDBRANCH  24  25
ENDBRANCH   1  24
TORSDOF 8
ENDMDL
MODEL 5
REMARK VINA RESULT:      -7.9      0.285      1.579
REMARK SMILES CC/C(=C(\c1ccccc1)c1ccc(OCC[NH+](C)C)cc1)c1ccccc1
REMARK SMILES IDX 15 1 14 2 11 3 12 4 22 5 13 6 21 7 4 8 3 9 2 10 1 11 23 12
REMARK SMILES IDX 24 13 28 14 25 15 27 16 26 17 5 18 6 19 10 20 7 21 9 22 8 23
REMARK SMILES IDX 16 24 17 25 18 26 19 27 20 28
REMARK H PARENT 18 29
ROOT
ATOM      1  O   UNL     1      12.009  39.218 -34.536  1.00  0.00    -0.488 OA
ENDROOT
BRANCH   1   2
ATOM      2  C   UNL     1      12.214  38.354 -33.476  1.00  0.00     0.119 A 
ATOM      3  C   UNL     1      12.647  36.481 -31.363  1.00  0.00    -0.017 A 
ATOM      4  C   UNL     1      12.512  37.833 -31.120  1.00  0.00     0.012 A 
ATOM      5  C   UNL     1      12.557  36.091 -32.696  1.00  0.00     0.012 A 
ATOM      6  C   UNL     1      12.302  38.730 -32.156  1.00  0.00     0.047 A 
ATOM      7  C   UNL     1      12.350  36.979 -33.718  1.00  0.00     0.047 A 
BRANCH   3   8
ATOM      8  C   UNL     1      12.844  35.516 -30.296  1.00  0.00    -0.007 C 
ATOM      9  C   UNL     1      13.995  35.346 -29.699  1.00  0.00    -0.033 C 
BRANCH   9  10
ATOM     10  C   UNL     1      14.264  34.341 -28.635  1.00  0.00     0.033 C 
ATOM     11  C   UNL     1      15.502  33.572 -28.994  1.00  0.00     0.009 C 
ENDBRANCH   9  10
BRANCH   9  12
ATOM     12  C   UNL     1      15.143  36.220 -30.003  1.00  0.00    -0.022 A 
ATOM     13  C   UNL     1      15.644  37.108 -29.086  1.00  0.00     0.008 A 
ATOM     14  C   UNL     1      15.705  36.137 -31.241  1.00  0.00     0.008 A 
ATOM     15  C   UNL     1      16.708  37.906 -29.423  1.00  0.00     0.001 A 
ATOM     16  C   UNL     1      16.790  36.931 -31.626  1.00  0.00     0.001 A 
ATOM     17  C   UNL     1      17.271  37.812 -30.685  1.00  0.00     0.000 A 
ENDBRANCH   9  12
BRANCH   8  18
ATOM     18  C   UNL     1      11.717  34.688 -29.914  1.00  0.00    -0.018 A 
ATOM     19  C   UNL     1      10.542  35.223 -29.424  1.00  0.00     0.009 A 
ATOM     20  C   UNL     1      11.826  33.303 -29.994  1.00  0.00     0.009 A 
ATOM     21  C   UNL     1       9.532  34.381 -29.036  1.00  0.00     0.001 A 
ATOM     22  C   UNL     1      10.823  32.444 -29.610  1.00  0.00     0.001 A 
ATOM     23  C   UNL     1       9.648  33.008 -29.120  1.00  0.00     0.000 A 
ENDBRANCH   8  18
ENDBRANCH   3   8
ENDBRANCH   1   2
BRANCH   1  24
ATOM     24  C   UNL     1      10.970  39.237 -35.449  1.00  0.00     0.290 C 
BRANCH  24  25
ATOM     25  C   UNL     1      10.245  37.931 -35.644  1.00  0.00     0.303 C 
BRANCH  25  26
ATOM     26  N   UNL     1      10.131  37.557 -37.021  1.00  0.00    -0.337 N 
ATOM     27  C   UNL     1       9.678  38.634 -37.874  1.00  0.00     0.332 C 
ATOM     28  C   UNL     1       9.229  36.442 -37.228  1.00  0.00     0.332 C 
ATOM     29  H   UNL     1      11.066  37.241 -37.416  1.00  0.00     0.347 HD
ENDBRANCH  25  26
ENDBRANCH  24  25
ENDBRANCH   1  24
TORSDOF 8
ENDMDL
MODEL 6
REMARK VINA RESULT:      -7.9      0.605      1.222
REMARK SMILES CC/C(=C(\c1ccccc1)c1ccc(OCC[NH+](C)C)cc1)c1ccccc1
REMARK SMILES IDX 15 1 14 2 11 3 12 4 22 5 13 6 21 7 4 8 3 9 2 10 1 11 23 12
REMARK SMILES IDX 24 13 28 14 25 15 27 16 26 17 5 18 6 19 10 20 7 21 9 22 8 23
REMARK SMILES IDX 16 24 17 25 18 26 19 27 20 28
REMARK H PARENT 18 29
ROOT
ATOM      1  O   UNL     1      11.918  38.714 -34.701  1.00  0.00    -0.488 OA
ENDROOT
BRANCH   1   2
ATOM      2  C   UNL     1      12.129  37.833 -33.656  1.00  0.00     0.119 A 
ATOM      3  C   UNL     1      12.570  36.107 -31.423  1.00  0.00    -0.017 A 
ATOM      4  C   UNL     1      12.327  35.612 -32.689  1.00  0.00     0.012 A 
ATOM      5  C   UNL     1      12.588  37.493 -31.306  1.00  0.00     0.012 A 
ATOM      6  C   UNL     1      12.114  36.463 -33.763  1.00  0.00     0.047 A 
ATOM      7  C   UNL     1      12.378  38.332 -32.368  1.00  0.00     0.047 A 
BRANCH   3   8
ATOM      8  C   UNL     1      12.820  35.240 -30.285  1.00  0.00    -0.007 C 
ATOM      9  C   UNL     1      13.976  35.191 -29.675  1.00  0.00    -0.033 C 
BRANCH   9  10
ATOM     10  C   UNL     1      14.300  34.288 -28.536  1.00  0.00     0.033 C 
ATOM     11  C   UNL     1      15.491  33.452 -28.904  1.00  0.00     0.009 C 
ENDBRANCH   9  10
BRANCH   9  12
ATOM     12  C   UNL     1      15.068  36.111 -30.042  1.00  0.00    -0.022 A 
ATOM     13  C   UNL     1      15.580  37.022 -29.154  1.00  0.00     0.008 A 
ATOM     14  C   UNL     1      15.564  36.048 -31.308  1.00  0.00     0.008 A 
ATOM     15  C   UNL     1      16.590  37.863 -29.548  1.00  0.00     0.001 A 
ATOM     16  C   UNL     1      16.592  36.886 -31.752  1.00  0.00     0.001 A 
ATOM     17  C   UNL     1      17.086  37.789 -30.839  1.00  0.00     0.000 A 
ENDBRANCH   9  12
BRANCH   8  18
ATOM     18  C   UNL     1      11.746  34.373 -29.845  1.00  0.00    -0.018 A 
ATOM     19  C   UNL     1      11.855  32.997 -29.860  1.00  0.00     0.009 A 
ATOM     20  C   UNL     1      10.540  34.933 -29.434  1.00  0.00     0.009 A 
ATOM     21  C   UNL     1      10.783  32.234 -29.475  1.00  0.00     0.001 A 
ATOM     22  C   UNL     1       9.455  34.183 -29.043  1.00  0.00     0.001 A 
ATOM     23  C   UNL     1       9.590  32.798 -29.067  1.00  0.00     0.000 A 
ENDBRANCH   8  18
ENDBRANCH   3   8
ENDBRANCH   1   2
BRANCH   1  24
ATOM     24  C   UNL     1      10.728  39.047 -35.325  1.00  0.00     0.290 C 
BRANCH  24  25
ATOM     25  C   UNL     1      10.199  38.037 -36.309  1.00  0.00     0.303 C 
BRANCH  25  26
ATOM     26  N   UNL     1       9.304  38.608 -37.268  1.00  0.00    -0.337 N 
ATOM     27  C   UNL     1       8.495  37.626 -37.957  1.00  0.00     0.332 C 
ATOM     28  C   UNL     1       9.986  39.385 -38.283  1.00  0.00     0.332 C 
ATOM     29  H   UNL     1       8.621  39.282 -36.808  1.00  0.00     0.347 HD
ENDBRANCH  25  26
ENDBRANCH  24  25
ENDBRANCH   1  24
TORSDOF 8
ENDMDL
MODEL 7
REMARK VINA RESULT:      -7.6      0.611      1.206
REMARK SMILES CC/C(=C(\c1ccccc1)c1ccc(OCC[NH+](C)C)cc1)c1ccccc1
REMARK SMILES IDX 15 1 14 2 11 3 12 4 22 5 13 6 21 7 4 8 3 9 2 10 1 11 23 12
REMARK SMILES IDX 24 13 28 14 25 15 27 16 26 17 5 18 6 19 10 20 7 21 9 22 8 23
REMARK SMILES IDX 16 24 17 25 18 26 19 27 20 28
REMARK H PARENT 18 29
ROOT
ATOM      1  O   UNL     1      12.179  38.821 -34.626  1.00  0.00    -0.488 OA
ENDROOT
BRANCH   1   2
ATOM      2  C   UNL     1      12.359  37.919 -33.593  1.00  0.00     0.119 A 
ATOM      3  C   UNL     1      12.732  36.148 -31.384  1.00  0.00    -0.017 A 
ATOM      4  C   UNL     1      12.547  35.679 -32.669  1.00  0.00     0.012 A 
ATOM      5  C   UNL     1      12.727  37.531 -31.235  1.00  0.00     0.012 A 
ATOM      6  C   UNL     1      12.367  36.551 -33.731  1.00  0.00     0.047 A 
ATOM      7  C   UNL     1      12.549  38.391 -32.286  1.00  0.00     0.047 A 
BRANCH   3   8
ATOM      8  C   UNL     1      12.947  35.258 -30.256  1.00  0.00    -0.007 C 
ATOM      9  C   UNL     1      14.093  35.174 -29.631  1.00  0.00    -0.033 C 
BRANCH   9  10
ATOM     10  C   UNL     1      14.381  34.247 -28.502  1.00  0.00     0.033 C 
ATOM     11  C   UNL     1      15.585  33.420 -28.849  1.00  0.00     0.009 C 
ENDBRANCH   9  10
BRANCH   9  12
ATOM     12  C   UNL     1      15.210  36.074 -29.969  1.00  0.00    -0.022 A 
ATOM     13  C   UNL     1      15.702  36.988 -29.073  1.00  0.00     0.008 A 
ATOM     14  C   UNL     1      15.751  35.990 -31.216  1.00  0.00     0.008 A 
ATOM     15  C   UNL     1      16.737  37.811 -29.441  1.00  0.00     0.001 A 
ATOM     16  C   UNL     1      16.805  36.808 -31.632  1.00  0.00     0.001 A 
ATOM     17  C   UNL     1      17.279  37.715 -30.712  1.00  0.00     0.000 A 
ENDBRANCH   9  12
BRANCH   8  18
ATOM     18  C   UNL     1      11.848  34.409 -29.843  1.00  0.00    -0.018 A 
ATOM     19  C   UNL     1      11.919  33.032 -29.896  1.00  0.00     0.009 A 
ATOM     20  C   UNL     1      10.655  34.990 -29.421  1.00  0.00     0.009 A 
ATOM     21  C   UNL     1      10.825  32.288 -29.536  1.00  0.00     0.001 A 
ATOM     22  C   UNL     1       9.549  34.259 -29.055  1.00  0.00     0.001 A 
ATOM     23  C   UNL     1       9.646  32.872 -29.117  1.00  0.00     0.000 A 
ENDBRANCH   8  18
ENDBRANCH   3   8
ENDBRANCH   1   2
BRANCH   1  24
ATOM     24  C   UNL     1      11.004  39.392 -35.081  1.00  0.00     0.290 C 
BRANCH  24  25
ATOM     25  C   UNL     1      10.371  38.725 -36.274  1.00  0.00     0.303 C 
BRANCH  25  26
ATOM     26  N   UNL     1       9.355  37.783 -35.913  1.00  0.00    -0.337 N 
ATOM     27  C   UNL     1       8.955  37.872 -34.526  1.00  0.00     0.332 C 
ATOM     28  C   UNL     1       9.748  36.410 -36.156  1.00  0.00     0.332 C 
ATOM     29  H   UNL     1       8.470  37.929 -36.485  1.00  0.00     0.347 HD
ENDBRANCH  25  26
ENDBRANCH  24  25
ENDBRANCH   1  24
TORSDOF 8
ENDMDL
MODEL 8
REMARK VINA RESULT:      -7.4      1.353      1.641
REMARK SMILES CC/C(=C(\c1ccccc1)c1ccc(OCC[NH+](C)C)cc1)c1ccccc1
REMARK SMILES IDX 15 1 14 2 11 3 12 4 22 5 13 6 21 7 4 8 3 9 2 10 1 11 23 12
REMARK SMILES IDX 24 13 28 14 25 15 27 16 26 17 5 18 6 19 10 20 7 21 9 22 8 23
REMARK SMILES IDX 16 24 17 25 18 26 19 27 20 28
REMARK H PARENT 18 29
ROOT
ATOM      1  O   UNL     1      11.047  36.764 -35.959  1.00  0.00    -0.488 OA
ENDROOT
BRANCH   1   2
ATOM      2  C   UNL     1      11.341  36.297 -34.691  1.00  0.00     0.119 A 
ATOM      3  C   UNL     1      11.925  35.439 -32.030  1.00  0.00    -0.017 A 
ATOM      4  C   UNL     1      11.941  34.562 -33.097  1.00  0.00     0.012 A 
ATOM      5  C   UNL     1      11.610  36.759 -32.333  1.00  0.00     0.012 A 
ATOM      6  C   UNL     1      11.655  34.994 -34.383  1.00  0.00     0.047 A 
ATOM      7  C   UNL     1      11.327  37.184 -33.604  1.00  0.00     0.047 A 
BRANCH   3   8
ATOM      8  C   UNL     1      12.244  35.020 -30.676  1.00  0.00    -0.007 C 
ATOM      9  C   UNL     1      13.338  35.389 -30.062  1.00  0.00    -0.033 C 
BRANCH   9  10
ATOM     10  C   UNL     1      13.736  34.952 -28.695  1.00  0.00     0.033 C 
ATOM     11  C   UNL     1      14.897  34.008 -28.807  1.00  0.00     0.009 C 
ENDBRANCH   9  10
BRANCH   9  12
ATOM     12  C   UNL     1      14.264  36.357 -30.676  1.00  0.00    -0.022 A 
ATOM     13  C   UNL     1      15.375  35.958 -31.374  1.00  0.00     0.008 A 
ATOM     14  C   UNL     1      13.999  37.685 -30.527  1.00  0.00     0.008 A 
ATOM     15  C   UNL     1      16.211  36.901 -31.918  1.00  0.00     0.001 A 
ATOM     16  C   UNL     1      14.824  38.678 -31.064  1.00  0.00     0.001 A 
ATOM     17  C   UNL     1      15.930  38.248 -31.759  1.00  0.00     0.000 A 
ENDBRANCH   9  12
BRANCH   8  18
ATOM     18  C   UNL     1      11.319  34.127 -30.008  1.00  0.00    -0.018 A 
ATOM     19  C   UNL     1      11.558  32.773 -29.888  1.00  0.00     0.009 A 
ATOM     20  C   UNL     1      10.123  34.631 -29.506  1.00  0.00     0.009 A 
ATOM     21  C   UNL     1      10.619  31.976 -29.285  1.00  0.00     0.001 A 
ATOM     22  C   UNL     1       9.170  33.846 -28.897  1.00  0.00     0.001 A 
ATOM     23  C   UNL     1       9.435  32.484 -28.789  1.00  0.00     0.000 A 
ENDBRANCH   8  18
ENDBRANCH   3   8
ENDBRANCH   1   2
BRANCH   1  24
ATOM     24  C   UNL     1       9.866  36.649 -36.671  1.00  0.00     0.290 C 
BRANCH  24  25
ATOM     25  C   UNL     1       9.350  37.921 -37.292  1.00  0.00     0.303 C 
BRANCH  25  26
ATOM     26  N   UNL     1       9.881  38.158 -38.600  1.00  0.00    -0.337 N 
ATOM     27  C   UNL     1       9.966  39.562 -38.941  1.00  0.00     0.332 C 
ATOM     28  C   UNL     1       9.114  37.511 -39.645  1.00  0.00     0.332 C 
ATOM     29  H   UNL     1      10.868  37.772 -38.694  1.00  0.00     0.347 HD
ENDBRANCH  25  26
ENDBRANCH  24  25
ENDBRANCH   1  24
TORSDOF 8
ENDMDL
MODEL 9
REMARK VINA RESULT:      -7.4      1.043      4.597
REMARK SMILES CC/C(=C(\c1ccccc1)c1ccc(OCC[NH+](C)C)cc1)c1ccccc1
REMARK SMILES IDX 15 1 14 2 11 3 12 4 22 5 13 6 21 7 4 8 3 9 2 10 1 11 23 12
REMARK SMILES IDX 24 13 28 14 25 15 27 16 26 17 5 18 6 19 10 20 7 21 9 22 8 23
REMARK SMILES IDX 16 24 17 25 18 26 19 27 20 28
REMARK H PARENT 18 29
ROOT
ATOM      1  O   UNL     1      10.453  38.485 -34.436  1.00  0.00    -0.488 OA
ENDROOT
BRANCH   1   2
ATOM      2  C   UNL     1      11.336  37.970 -33.505  1.00  0.00     0.119 A 
ATOM      3  C   UNL     1      13.150  37.005 -31.521  1.00  0.00    -0.017 A 
ATOM      4  C   UNL     1      12.748  36.219 -32.583  1.00  0.00     0.012 A 
ATOM      5  C   UNL     1      12.619  38.290 -31.481  1.00  0.00     0.012 A 
ATOM      6  C   UNL     1      11.867  36.702 -33.538  1.00  0.00     0.047 A 
ATOM      7  C   UNL     1      11.748  38.765 -32.425  1.00  0.00     0.047 A 
BRANCH   3   8
ATOM      8  C   UNL     1      14.090  36.534 -30.519  1.00  0.00    -0.007 C 
ATOM      9  C   UNL     1      13.755  35.693 -29.575  1.00  0.00    -0.033 C 
BRANCH   9  10
ATOM     10  C   UNL     1      14.663  35.215 -28.497  1.00  0.00     0.033 C 
ATOM     11  C   UNL     1      15.399  34.002 -28.984  1.00  0.00     0.009 C 
ENDBRANCH   9  10
BRANCH   9  12
ATOM     12  C   UNL     1      12.415  35.079 -29.546  1.00  0.00    -0.022 A 
ATOM     13  C   UNL     1      12.176  33.830 -30.060  1.00  0.00     0.008 A 
ATOM     14  C   UNL     1      11.392  35.791 -28.998  1.00  0.00     0.008 A 
ATOM     15  C   UNL     1      10.908  33.308 -30.018  1.00  0.00     0.001 A 
ATOM     16  C   UNL     1      10.085  35.298 -28.935  1.00  0.00     0.001 A 
ATOM     17  C   UNL     1       9.877  34.043 -29.458  1.00  0.00     0.000 A 
ENDBRANCH   9  12
BRANCH   8  18
ATOM     18  C   UNL     1      15.441  37.056 -30.559  1.00  0.00    -0.018 A 
ATOM     19  C   UNL     1      16.393  36.573 -31.433  1.00  0.00     0.009 A 
ATOM     20  C   UNL     1      15.819  38.047 -29.657  1.00  0.00     0.009 A 
ATOM     21  C   UNL     1      17.667  37.078 -31.386  1.00  0.00     0.001 A 
ATOM     22  C   UNL     1      17.091  38.566 -29.597  1.00  0.00     0.001 A 
ATOM     23  C   UNL     1      18.033  38.062 -30.490  1.00  0.00     0.000 A 
ENDBRANCH   8  18
ENDBRANCH   3   8
ENDBRANCH   1   2
BRANCH   1  24
ATOM     24  C   UNL     1       9.592  37.807 -35.281  1.00  0.00     0.290 C 
BRANCH  24  25
ATOM     25  C   UNL     1       9.956  37.829 -36.742  1.00  0.00     0.303 C 
BRANCH  25  26
ATOM     26  N   UNL     1       9.102  38.678 -37.517  1.00  0.00    -0.337 N 
ATOM     27  C   UNL     1       7.976  37.982 -38.100  1.00  0.00     0.332 C 
ATOM     28  C   UNL     1       9.800  39.342 -38.599  1.00  0.00     0.332 C 
ATOM     29  H   UNL     1       8.691  39.459 -36.923  1.00  0.00     0.347 HD
ENDBRANCH  25  26
ENDBRANCH  24  25
ENDBRANCH   1  24
TORSDOF 8
ENDMDL
