MODEL 1
REMARK VINA RESULT:      -9.2      0.000      0.000
REMARK SMILES Cc1c(C(=O)[O-])c([O-])cc2c1C(=O)c1c([O-])c([C@H]3O[C@H](CO)[C@@H](O)[C@H](O)[C@H]3O)c([O-])c([O-])c1C2=O
REMARK SMILES IDX 18 1 19 2 20 3 23 4 25 5 27 6 17 7 2 8 3 9 11 10 7 11 10 12
REMARK SMILES IDX 12 13 9 14 34 15 13 16 14 17 33 18 35 19 15 20 31 21 29 22
REMARK SMILES IDX 1 23 8 24 16 25 32 26 30 27 4 28 5 29 6 30 28 31 21 33 22 34
REMARK SMILES IDX 26 36 24 38
REMARK H PARENT 28 32 22 35 26 37 24 39
ROOT
ATOM      1  C   UNL     1       3.656 -10.835 -61.113  1.00  0.00     0.179 C 
ATOM      2  O   UNL     1       4.144 -10.675 -59.862  1.00  0.00    -0.362 OA
ATOM      3  C   UNL     1       3.342 -10.253 -58.877  1.00  0.00     0.176 C 
ATOM      4  C   UNL     1       1.900 -10.573 -58.960  1.00  0.00     0.177 C 
ATOM      5  C   UNL     1       1.336 -10.679 -60.328  1.00  0.00     0.177 C 
ATOM      6  C   UNL     1       2.307 -10.235 -61.373  1.00  0.00     0.179 C 
ENDROOT
BRANCH   1   7
ATOM      7  C   UNL     1       4.617 -10.424 -62.186  1.00  0.00    -0.032 A 
ATOM      8  C   UNL     1       7.911  -5.625 -64.439  1.00  0.00    -0.031 A 
ATOM      9  C   UNL     1       8.796  -5.227 -65.419  1.00  0.00    -0.007 A 
ATOM     10  C   UNL     1       7.427  -6.917 -64.355  1.00  0.00     0.037 A 
ATOM     11  C   UNL     1       9.235  -6.129 -66.366  1.00  0.00    -0.099 A 
ATOM     12  C   UNL     1       7.869  -7.823 -65.307  1.00  0.00     0.033 A 
ATOM     13  C   UNL     1       6.490  -7.351 -63.323  1.00  0.00     0.194 C 
ATOM     14  C   UNL     1       8.754  -7.441 -66.294  1.00  0.00     0.005 A 
ATOM     15  C   UNL     1       7.367  -9.192 -65.232  1.00  0.00     0.193 C 
ATOM     16  O   UNL     1       6.089  -6.544 -62.465  1.00  0.00    -0.289 OA
ATOM     17  C   UNL     1       5.985  -8.725 -63.245  1.00  0.00     0.026 A 
ATOM     18  C   UNL     1       6.427  -9.622 -64.194  1.00  0.00     0.025 A 
ATOM     19  O   UNL     1       7.749 -10.029 -66.077  1.00  0.00    -0.289 OA
ATOM     20  C   UNL     1       5.100  -9.134 -62.270  1.00  0.00    -0.091 A 
ATOM     21  C   UNL     1       5.956 -10.920 -64.128  1.00  0.00    -0.105 A 
ATOM     22  C   UNL     1       5.071 -11.308 -63.144  1.00  0.00    -0.111 A 
ATOM     23  C   UNL     1       7.457  -4.633 -63.436  1.00  0.00     0.046 C 
ATOM     24  O   UNL     1      10.132  -5.767 -67.378  1.00  0.00    -0.872 OA
ATOM     25  O   UNL     1       4.688  -8.196 -61.344  1.00  0.00    -0.872 OA
ATOM     26  O   UNL     1       6.414 -11.813 -65.096  1.00  0.00    -0.872 OA
ATOM     27  O   UNL     1       4.600 -12.614 -63.080  1.00  0.00    -0.873 OA
BRANCH   9  28
ATOM     28  C   UNL     1       9.303  -3.862 -65.505  1.00  0.00     0.071 C 
ATOM     29  O   UNL     1      10.285  -3.435 -64.869  1.00  0.00    -0.545 OA
ATOM     30  O   UNL     1       8.626  -2.997 -66.362  1.00  0.00    -0.545 OA
ENDBRANCH   9  28
ENDBRANCH   1   7
BRANCH   6  31
ATOM     31  O   UNL     1       2.314  -8.862 -61.488  1.00  0.00    -0.387 OA
ATOM     32  H   UNL     1       1.610  -8.568 -62.115  1.00  0.00     0.211 HD
ENDBRANCH   6  31
BRANCH   3  33
ATOM     33  C   UNL     1       3.858 -10.858 -57.561  1.00  0.00     0.191 C 
BRANCH  33  34
ATOM     34  O   UNL     1       2.845 -11.017 -56.641  1.00  0.00    -0.394 OA
ATOM     35  H   UNL     1       3.186 -11.354 -55.761  1.00  0.00     0.210 HD
ENDBRANCH  33  34
ENDBRANCH   3  33
BRANCH   5  36
ATOM     36  O   UNL     1       0.854 -11.960 -60.614  1.00  0.00    -0.387 OA
ATOM     37  H   UNL     1       1.182 -12.296 -61.481  1.00  0.00     0.211 HD
ENDBRANCH   5  36
BRANCH   4  38
ATOM     38  O   UNL     1       1.201  -9.608 -58.196  1.00  0.00    -0.388 OA
ATOM     39  H   UNL     1       1.494  -9.738 -57.239  1.00  0.00     0.211 HD
ENDBRANCH   4  38
TORSDOF 7
ENDMDL
MODEL 2
REMARK VINA RESULT:      -8.8      1.068      1.251
REMARK SMILES Cc1c(C(=O)[O-])c([O-])cc2c1C(=O)c1c([O-])c([C@H]3O[C@H](CO)[C@@H](O)[C@H](O)[C@H]3O)c([O-])c([O-])c1C2=O
REMARK SMILES IDX 18 1 19 2 20 3 23 4 25 5 27 6 17 7 2 8 3 9 11 10 7 11 10 12
REMARK SMILES IDX 12 13 9 14 34 15 13 16 14 17 33 18 35 19 15 20 31 21 29 22
REMARK SMILES IDX 1 23 8 24 16 25 32 26 30 27 4 28 5 29 6 30 28 31 21 33 22 34
REMARK SMILES IDX 26 36 24 38
REMARK H PARENT 28 32 22 35 26 37 24 39
ROOT
ATOM      1  C   UNL     1       3.335 -10.572 -59.942  1.00  0.00     0.179 C 
ATOM      2  O   UNL     1       3.980 -10.216 -58.807  1.00  0.00    -0.362 OA
ATOM      3  C   UNL     1       3.325  -9.562 -57.841  1.00  0.00     0.176 C 
ATOM      4  C   UNL     1       1.870  -9.790 -57.699  1.00  0.00     0.177 C 
ATOM      5  C   UNL     1       1.138 -10.109 -58.950  1.00  0.00     0.177 C 
ATOM      6  C   UNL     1       1.995  -9.938 -60.162  1.00  0.00     0.179 C 
ENDROOT
BRANCH   1   7
ATOM      7  C   UNL     1       4.176 -10.437 -61.174  1.00  0.00    -0.032 A 
ATOM      8  C   UNL     1       7.688  -6.471 -64.474  1.00  0.00    -0.031 A 
ATOM      9  C   UNL     1       8.467  -6.326 -65.604  1.00  0.00    -0.007 A 
ATOM     10  C   UNL     1       7.063  -7.660 -64.149  1.00  0.00     0.037 A 
ATOM     11  C   UNL     1       8.649  -7.390 -66.462  1.00  0.00    -0.099 A 
ATOM     12  C   UNL     1       7.247  -8.729 -65.012  1.00  0.00     0.033 A 
ATOM     13  C   UNL     1       6.237  -7.826 -62.957  1.00  0.00     0.194 C 
ATOM     14  C   UNL     1       8.023  -8.601 -66.147  1.00  0.00     0.005 A 
ATOM     15  C   UNL     1       6.594  -9.992 -64.684  1.00  0.00     0.193 C 
ATOM     16  O   UNL     1       6.068  -6.871 -62.178  1.00  0.00    -0.289 OA
ATOM     17  C   UNL     1       5.581  -9.093 -62.624  1.00  0.00     0.026 A 
ATOM     18  C   UNL     1       5.766 -10.153 -63.486  1.00  0.00     0.025 A 
ATOM     19  O   UNL     1       6.742 -10.972 -65.444  1.00  0.00    -0.289 OA
ATOM     20  C   UNL     1       4.800  -9.249 -61.498  1.00  0.00    -0.091 A 
ATOM     21  C   UNL     1       5.150 -11.353 -63.180  1.00  0.00    -0.105 A 
ATOM     22  C   UNL     1       4.373 -11.487 -62.047  1.00  0.00    -0.111 A 
ATOM     23  C   UNL     1       7.511  -5.308 -63.571  1.00  0.00     0.046 C 
ATOM     24  O   UNL     1       9.430  -7.287 -67.619  1.00  0.00    -0.872 OA
ATOM     25  O   UNL     1       4.647  -8.156 -60.669  1.00  0.00    -0.872 OA
ATOM     26  O   UNL     1       5.349 -12.413 -64.062  1.00  0.00    -0.872 OA
ATOM     27  O   UNL     1       3.756 -12.694 -61.743  1.00  0.00    -0.873 OA
BRANCH   9  28
ATOM     28  C   UNL     1       9.124  -5.068 -65.943  1.00  0.00     0.071 C 
ATOM     29  O   UNL     1      10.282  -4.766 -65.602  1.00  0.00    -0.545 OA
ATOM     30  O   UNL     1       8.384  -4.162 -66.699  1.00  0.00    -0.545 OA
ENDBRANCH   9  28
ENDBRANCH   1   7
BRANCH   6  31
ATOM     31  O   UNL     1       2.053  -8.614 -60.541  1.00  0.00    -0.387 OA
ATOM     32  H   UNL     1       1.420  -8.442 -61.279  1.00  0.00     0.211 HD
ENDBRANCH   6  31
BRANCH   3  33
ATOM     33  C   UNL     1       3.969  -9.944 -56.498  1.00  0.00     0.191 C 
BRANCH  33  34
ATOM     34  O   UNL     1       3.025 -10.327 -55.570  1.00  0.00    -0.394 OA
ATOM     35  H   UNL     1       2.302 -10.889 -55.979  1.00  0.00     0.210 HD
ENDBRANCH  33  34
ENDBRANCH   3  33
BRANCH   5  36
ATOM     36  O   UNL     1       0.564 -11.384 -58.927  1.00  0.00    -0.387 OA
ATOM     37  H   UNL     1       0.873 -11.945 -59.677  1.00  0.00     0.211 HD
ENDBRANCH   5  36
BRANCH   4  38
ATOM     38  O   UNL     1       1.317  -8.652 -57.064  1.00  0.00    -0.388 OA
ATOM     39  H   UNL     1       0.488  -8.411 -57.588  1.00  0.00     0.211 HD
ENDBRANCH   4  38
TORSDOF 7
ENDMDL
MODEL 3
REMARK VINA RESULT:      -8.7     15.440     17.493
REMARK SMILES Cc1c(C(=O)[O-])c([O-])cc2c1C(=O)c1c([O-])c([C@H]3O[C@H](CO)[C@@H](O)[C@H](O)[C@H]3O)c([O-])c([O-])c1C2=O
REMARK SMILES IDX 18 1 19 2 20 3 23 4 25 5 27 6 17 7 2 8 3 9 11 10 7 11 10 12
REMARK SMILES IDX 12 13 9 14 34 15 13 16 14 17 33 18 35 19 15 20 31 21 29 22
REMARK SMILES IDX 1 23 8 24 16 25 32 26 30 27 4 28 5 29 6 30 28 31 21 33 22 34
REMARK SMILES IDX 26 36 24 38
REMARK H PARENT 28 32 22 35 26 37 24 39
ROOT
ATOM      1  C   UNL     1      -8.019   5.068 -60.685  1.00  0.00     0.179 C 
ATOM      2  O   UNL     1      -8.989   5.672 -61.408  1.00  0.00    -0.362 OA
ATOM      3  C   UNL     1      -9.871   6.479 -60.805  1.00  0.00     0.176 C 
ATOM      4  C   UNL     1      -9.444   7.201 -59.587  1.00  0.00     0.177 C 
ATOM      5  C   UNL     1      -8.433   6.514 -58.745  1.00  0.00     0.177 C 
ATOM      6  C   UNL     1      -8.187   5.111 -59.196  1.00  0.00     0.179 C 
ENDROOT
BRANCH   1   7
ATOM      7  C   UNL     1      -7.729   3.667 -61.129  1.00  0.00    -0.032 A 
ATOM      8  C   UNL     1      -3.153  -0.296 -62.650  1.00  0.00    -0.031 A 
ATOM      9  C   UNL     1      -2.865  -1.581 -63.059  1.00  0.00    -0.007 A 
ATOM     10  C   UNL     1      -4.445   0.141 -62.427  1.00  0.00     0.037 A 
ATOM     11  C   UNL     1      -3.883  -2.491 -63.261  1.00  0.00    -0.099 A 
ATOM     12  C   UNL     1      -5.467  -0.773 -62.630  1.00  0.00     0.033 A 
ATOM     13  C   UNL     1      -4.764   1.498 -61.994  1.00  0.00     0.194 C 
ATOM     14  C   UNL     1      -5.196  -2.063 -63.040  1.00  0.00     0.005 A 
ATOM     15  C   UNL     1      -6.838  -0.328 -62.399  1.00  0.00     0.193 C 
ATOM     16  O   UNL     1      -3.852   2.324 -61.810  1.00  0.00    -0.289 OA
ATOM     17  C   UNL     1      -6.138   1.948 -61.760  1.00  0.00     0.026 A 
ATOM     18  C   UNL     1      -7.152   1.036 -61.964  1.00  0.00     0.025 A 
ATOM     19  O   UNL     1      -7.779  -1.131 -62.574  1.00  0.00    -0.289 OA
ATOM     20  C   UNL     1      -6.438   3.231 -61.352  1.00  0.00    -0.091 A 
ATOM     21  C   UNL     1      -8.452   1.452 -61.746  1.00  0.00    -0.105 A 
ATOM     22  C   UNL     1      -8.730   2.740 -61.337  1.00  0.00    -0.111 A 
ATOM     23  C   UNL     1      -2.037   0.658 -62.442  1.00  0.00     0.046 C 
ATOM     24  O   UNL     1      -3.635  -3.804 -63.676  1.00  0.00    -0.872 OA
ATOM     25  O   UNL     1      -5.387   4.105 -61.163  1.00  0.00    -0.872 OA
ATOM     26  O   UNL     1      -9.463   0.516 -61.957  1.00  0.00    -0.872 OA
ATOM     27  O   UNL     1     -10.038   3.154 -61.119  1.00  0.00    -0.873 OA
BRANCH   9  28
ATOM     28  C   UNL     1      -1.499  -2.038 -63.294  1.00  0.00     0.071 C 
ATOM     29  O   UNL     1      -0.779  -2.575 -62.433  1.00  0.00    -0.545 OA
ATOM     30  O   UNL     1      -0.990  -1.848 -64.578  1.00  0.00    -0.545 OA
ENDBRANCH   9  28
ENDBRANCH   1   7
BRANCH   6  31
ATOM     31  O   UNL     1      -9.158   4.261 -58.713  1.00  0.00    -0.387 OA
ATOM     32  H   UNL     1     -10.054   4.574 -58.988  1.00  0.00     0.211 HD
ENDBRANCH   6  31
BRANCH   3  33
ATOM     33  C   UNL     1     -10.304   7.544 -61.826  1.00  0.00     0.191 C 
BRANCH  33  34
ATOM     34  O   UNL     1      -9.221   8.193 -62.376  1.00  0.00    -0.394 OA
ATOM     35  H   UNL     1      -8.378   7.656 -62.292  1.00  0.00     0.210 HD
ENDBRANCH  33  34
ENDBRANCH   3  33
BRANCH   5  36
ATOM     36  O   UNL     1      -7.232   7.224 -58.661  1.00  0.00    -0.387 OA
ATOM     37  H   UNL     1      -7.177   7.945 -59.331  1.00  0.00     0.211 HD
ENDBRANCH   5  36
BRANCH   4  38
ATOM     38  O   UNL     1     -10.606   7.504 -58.838  1.00  0.00    -0.388 OA
ATOM     39  H   UNL     1     -10.353   7.396 -57.866  1.00  0.00     0.211 HD
ENDBRANCH   4  38
TORSDOF 7
ENDMDL
MODEL 4
REMARK VINA RESULT:      -8.7      2.175      8.828
REMARK SMILES Cc1c(C(=O)[O-])c([O-])cc2c1C(=O)c1c([O-])c([C@H]3O[C@H](CO)[C@@H](O)[C@H](O)[C@H]3O)c([O-])c([O-])c1C2=O
REMARK SMILES IDX 18 1 19 2 20 3 23 4 25 5 27 6 17 7 2 8 3 9 11 10 7 11 10 12
REMARK SMILES IDX 12 13 9 14 34 15 13 16 14 17 33 18 35 19 15 20 31 21 29 22
REMARK SMILES IDX 1 23 8 24 16 25 32 26 30 27 4 28 5 29 6 30 28 31 21 33 22 34
REMARK SMILES IDX 26 36 24 38
REMARK H PARENT 28 32 22 35 26 37 24 39
ROOT
ATOM      1  C   UNL     1       7.628  -6.472 -64.661  1.00  0.00     0.179 C 
ATOM      2  O   UNL     1       7.307  -6.641 -65.964  1.00  0.00    -0.362 OA
ATOM      3  C   UNL     1       7.267  -5.587 -66.787  1.00  0.00     0.176 C 
ATOM      4  C   UNL     1       8.144  -4.432 -66.494  1.00  0.00     0.177 C 
ATOM      5  C   UNL     1       8.444  -4.192 -65.060  1.00  0.00     0.177 C 
ATOM      6  C   UNL     1       7.623  -5.059 -64.162  1.00  0.00     0.179 C 
ENDROOT
BRANCH   1   7
ATOM      7  C   UNL     1       6.841  -7.348 -63.735  1.00  0.00    -0.032 A 
ATOM      8  C   UNL     1       1.066  -9.092 -62.133  1.00  0.00    -0.031 A 
ATOM      9  C   UNL     1       0.324  -9.891 -61.288  1.00  0.00    -0.007 A 
ATOM     10  C   UNL     1       2.447  -9.053 -62.095  1.00  0.00     0.037 A 
ATOM     11  C   UNL     1       0.953 -10.695 -60.360  1.00  0.00    -0.099 A 
ATOM     12  C   UNL     1       3.079  -9.861 -61.162  1.00  0.00     0.033 A 
ATOM     13  C   UNL     1       3.245  -8.212 -62.983  1.00  0.00     0.194 C 
ATOM     14  C   UNL     1       2.351 -10.666 -60.310  1.00  0.00     0.005 A 
ATOM     15  C   UNL     1       4.538  -9.831 -61.110  1.00  0.00     0.193 C 
ATOM     16  O   UNL     1       2.685  -7.486 -63.823  1.00  0.00    -0.289 OA
ATOM     17  C   UNL     1       4.709  -8.181 -62.933  1.00  0.00     0.026 A 
ATOM     18  C   UNL     1       5.334  -8.985 -62.003  1.00  0.00     0.025 A 
ATOM     19  O   UNL     1       5.133 -10.549 -60.278  1.00  0.00    -0.289 OA
ATOM     20  C   UNL     1       5.461  -7.386 -63.772  1.00  0.00    -0.091 A 
ATOM     21  C   UNL     1       6.714  -8.962 -61.949  1.00  0.00    -0.105 A 
ATOM     22  C   UNL     1       7.448  -8.159 -62.798  1.00  0.00    -0.111 A 
ATOM     23  C   UNL     1       0.361  -8.240 -63.119  1.00  0.00     0.046 C 
ATOM     24  O   UNL     1       0.239 -11.520 -59.484  1.00  0.00    -0.872 OA
ATOM     25  O   UNL     1       4.788  -6.600 -64.684  1.00  0.00    -0.872 OA
ATOM     26  O   UNL     1       7.328  -9.782 -61.003  1.00  0.00    -0.872 OA
ATOM     27  O   UNL     1       8.836  -8.139 -62.741  1.00  0.00    -0.873 OA
BRANCH   9  28
ATOM     28  C   UNL     1      -1.134  -9.929 -61.331  1.00  0.00     0.071 C 
ATOM     29  O   UNL     1      -1.797 -10.671 -62.078  1.00  0.00    -0.545 OA
ATOM     30  O   UNL     1      -1.806  -9.066 -60.467  1.00  0.00    -0.545 OA
ENDBRANCH   9  28
ENDBRANCH   1   7
BRANCH   6  31
ATOM     31  O   UNL     1       6.364  -4.530 -63.982  1.00  0.00    -0.387 OA
ATOM     32  H   UNL     1       5.687  -5.100 -64.420  1.00  0.00     0.211 HD
ENDBRANCH   6  31
BRANCH   3  33
ATOM     33  C   UNL     1       7.634  -6.079 -68.197  1.00  0.00     0.191 C 
BRANCH  33  34
ATOM     34  O   UNL     1       6.932  -5.404 -69.172  1.00  0.00    -0.394 OA
ATOM     35  H   UNL     1       6.381  -4.658 -68.790  1.00  0.00     0.210 HD
ENDBRANCH  33  34
ENDBRANCH   3  33
BRANCH   5  36
ATOM     36  O   UNL     1       9.804  -4.323 -64.766  1.00  0.00    -0.387 OA
ATOM     37  H   UNL     1      10.376  -3.980 -65.492  1.00  0.00     0.211 HD
ENDBRANCH   5  36
BRANCH   4  38
ATOM     38  O   UNL     1       7.561  -3.288 -67.088  1.00  0.00    -0.388 OA
ATOM     39  H   UNL     1       7.678  -2.534 -66.427  1.00  0.00     0.211 HD
ENDBRANCH   4  38
TORSDOF 7
ENDMDL
MODEL 5
REMARK VINA RESULT:      -8.5      2.161      9.151
REMARK SMILES Cc1c(C(=O)[O-])c([O-])cc2c1C(=O)c1c([O-])c([C@H]3O[C@H](CO)[C@@H](O)[C@H](O)[C@H]3O)c([O-])c([O-])c1C2=O
REMARK SMILES IDX 18 1 19 2 20 3 23 4 25 5 27 6 17 7 2 8 3 9 11 10 7 11 10 12
REMARK SMILES IDX 12 13 9 14 34 15 13 16 14 17 33 18 35 19 15 20 31 21 29 22
REMARK SMILES IDX 1 23 8 24 16 25 32 26 30 27 4 28 5 29 6 30 28 31 21 33 22 34
REMARK SMILES IDX 26 36 24 38
REMARK H PARENT 28 32 22 35 26 37 24 39
ROOT
ATOM      1  C   UNL     1       5.901  -7.341 -65.370  1.00  0.00     0.179 C 
ATOM      2  O   UNL     1       6.543  -6.156 -65.267  1.00  0.00    -0.362 OA
ATOM      3  C   UNL     1       7.639  -5.920 -65.997  1.00  0.00     0.176 C 
ATOM      4  C   UNL     1       7.773  -6.602 -67.303  1.00  0.00     0.177 C 
ATOM      5  C   UNL     1       7.136  -7.938 -67.406  1.00  0.00     0.177 C 
ATOM      6  C   UNL     1       6.645  -8.430 -66.083  1.00  0.00     0.179 C 
ENDROOT
BRANCH   1   7
ATOM      7  C   UNL     1       5.372  -7.850 -64.064  1.00  0.00    -0.032 A 
ATOM      8  C   UNL     1       0.293 -10.083 -61.206  1.00  0.00    -0.031 A 
ATOM      9  C   UNL     1      -0.213 -10.554 -60.012  1.00  0.00    -0.007 A 
ATOM     10  C   UNL     1       1.604  -9.670 -61.345  1.00  0.00     0.037 A 
ATOM     11  C   UNL     1       0.595 -10.630 -58.896  1.00  0.00    -0.099 A 
ATOM     12  C   UNL     1       2.416  -9.747 -60.224  1.00  0.00     0.033 A 
ATOM     13  C   UNL     1       2.152  -9.169 -62.602  1.00  0.00     0.194 C 
ATOM     14  C   UNL     1       1.925 -10.216 -59.022  1.00  0.00     0.005 A 
ATOM     15  C   UNL     1       3.804  -9.315 -60.355  1.00  0.00     0.193 C 
ATOM     16  O   UNL     1       1.430  -9.098 -63.613  1.00  0.00    -0.289 OA
ATOM     17  C   UNL     1       3.545  -8.736 -62.737  1.00  0.00     0.026 A 
ATOM     18  C   UNL     1       4.349  -8.813 -61.619  1.00  0.00     0.025 A 
ATOM     19  O   UNL     1       4.557  -9.373 -59.360  1.00  0.00    -0.289 OA
ATOM     20  C   UNL     1       4.061  -8.262 -63.925  1.00  0.00    -0.091 A 
ATOM     21  C   UNL     1       5.664  -8.405 -61.737  1.00  0.00    -0.105 A 
ATOM     22  C   UNL     1       6.161  -7.935 -62.935  1.00  0.00    -0.111 A 
ATOM     23  C   UNL     1      -0.601 -10.013 -62.387  1.00  0.00     0.046 C 
ATOM     24  O   UNL     1       0.122 -11.102 -57.667  1.00  0.00    -0.872 OA
ATOM     25  O   UNL     1       3.215  -8.204 -65.014  1.00  0.00    -0.872 OA
ATOM     26  O   UNL     1       6.461  -8.491 -60.596  1.00  0.00    -0.872 OA
ATOM     27  O   UNL     1       7.484  -7.527 -63.050  1.00  0.00    -0.873 OA
BRANCH   9  28
ATOM     28  C   UNL     1      -1.599 -10.988 -59.869  1.00  0.00     0.071 C 
ATOM     29  O   UNL     1      -1.999 -12.147 -60.087  1.00  0.00    -0.545 OA
ATOM     30  O   UNL     1      -2.517 -10.022 -59.460  1.00  0.00    -0.545 OA
ENDBRANCH   9  28
ENDBRANCH   1   7
BRANCH   6  31
ATOM     31  O   UNL     1       7.672  -8.983 -65.351  1.00  0.00    -0.387 OA
ATOM     32  H   UNL     1       7.991  -8.342 -64.670  1.00  0.00     0.211 HD
ENDBRANCH   6  31
BRANCH   3  33
ATOM     33  C   UNL     1       7.699  -4.409 -66.275  1.00  0.00     0.191 C 
BRANCH  33  34
ATOM     34  O   UNL     1       7.442  -4.123 -67.598  1.00  0.00    -0.394 OA
ATOM     35  H   UNL     1       7.792  -3.222 -67.864  1.00  0.00     0.210 HD
ENDBRANCH  33  34
ENDBRANCH   3  33
BRANCH   5  36
ATOM     36  O   UNL     1       6.112  -7.974 -68.357  1.00  0.00    -0.387 OA
ATOM     37  H   UNL     1       5.218  -7.928 -67.944  1.00  0.00     0.211 HD
ENDBRANCH   5  36
BRANCH   4  38
ATOM     38  O   UNL     1       9.153  -6.674 -67.610  1.00  0.00    -0.388 OA
ATOM     39  H   UNL     1       9.256  -6.296 -68.541  1.00  0.00     0.211 HD
ENDBRANCH   4  38
TORSDOF 7
ENDMDL
MODEL 6
REMARK VINA RESULT:      -8.5     15.163     17.181
REMARK SMILES Cc1c(C(=O)[O-])c([O-])cc2c1C(=O)c1c([O-])c([C@H]3O[C@H](CO)[C@@H](O)[C@H](O)[C@H]3O)c([O-])c([O-])c1C2=O
REMARK SMILES IDX 18 1 19 2 20 3 23 4 25 5 27 6 17 7 2 8 3 9 11 10 7 11 10 12
REMARK SMILES IDX 12 13 9 14 34 15 13 16 14 17 33 18 35 19 15 20 31 21 29 22
REMARK SMILES IDX 1 23 8 24 16 25 32 26 30 27 4 28 5 29 6 30 28 31 21 33 22 34
REMARK SMILES IDX 26 36 24 38
REMARK H PARENT 28 32 22 35 26 37 24 39
ROOT
ATOM      1  C   UNL     1      -8.460   4.519 -60.599  1.00  0.00     0.179 C 
ATOM      2  O   UNL     1      -7.447   5.321 -60.199  1.00  0.00    -0.362 OA
ATOM      3  C   UNL     1      -7.466   6.625 -60.497  1.00  0.00     0.176 C 
ATOM      4  C   UNL     1      -8.779   7.291 -60.655  1.00  0.00     0.177 C 
ATOM      5  C   UNL     1      -9.882   6.438 -61.164  1.00  0.00     0.177 C 
ATOM      6  C   UNL     1      -9.395   5.100 -61.616  1.00  0.00     0.179 C 
ENDROOT
BRANCH   1   7
ATOM      7  C   UNL     1      -8.009   3.158 -61.034  1.00  0.00    -0.032 A 
ATOM      8  C   UNL     1      -3.024  -0.208 -62.700  1.00  0.00    -0.031 A 
ATOM      9  C   UNL     1      -2.589  -1.454 -63.102  1.00  0.00    -0.007 A 
ATOM     10  C   UNL     1      -4.352   0.062 -62.426  1.00  0.00     0.037 A 
ATOM     11  C   UNL     1      -3.487  -2.492 -63.244  1.00  0.00    -0.099 A 
ATOM     12  C   UNL     1      -5.253  -0.981 -62.568  1.00  0.00     0.033 A 
ATOM     13  C   UNL     1      -4.826   1.375 -61.999  1.00  0.00     0.194 C 
ATOM     14  C   UNL     1      -4.834  -2.234 -62.970  1.00  0.00     0.005 A 
ATOM     15  C   UNL     1      -6.659  -0.712 -62.282  1.00  0.00     0.193 C 
ATOM     16  O   UNL     1      -4.022   2.315 -61.869  1.00  0.00    -0.289 OA
ATOM     17  C   UNL     1      -6.236   1.648 -61.711  1.00  0.00     0.026 A 
ATOM     18  C   UNL     1      -7.130   0.608 -61.855  1.00  0.00     0.025 A 
ATOM     19  O   UNL     1      -7.494  -1.634 -62.403  1.00  0.00    -0.289 OA
ATOM     20  C   UNL     1      -6.683   2.889 -61.309  1.00  0.00    -0.091 A 
ATOM     21  C   UNL     1      -8.463   0.856 -61.585  1.00  0.00    -0.105 A 
ATOM     22  C   UNL     1      -8.888   2.105 -61.183  1.00  0.00    -0.111 A 
ATOM     23  C   UNL     1      -2.035   0.886 -62.556  1.00  0.00     0.046 C 
ATOM     24  O   UNL     1      -3.088  -3.770 -63.650  1.00  0.00    -0.872 OA
ATOM     25  O   UNL     1      -5.748   3.896 -61.180  1.00  0.00    -0.872 OA
ATOM     26  O   UNL     1      -9.351  -0.208 -61.736  1.00  0.00    -0.872 OA
ATOM     27  O   UNL     1     -10.228   2.351 -60.913  1.00  0.00    -0.873 OA
BRANCH   9  28
ATOM     28  C   UNL     1      -1.186  -1.734 -63.391  1.00  0.00     0.071 C 
ATOM     29  O   UNL     1      -0.354  -2.106 -62.544  1.00  0.00    -0.545 OA
ATOM     30  O   UNL     1      -0.776  -1.567 -64.713  1.00  0.00    -0.545 OA
ENDBRANCH   9  28
ENDBRANCH   1   7
BRANCH   6  31
ATOM     31  O   UNL     1      -8.871   5.171 -62.888  1.00  0.00    -0.387 OA
ATOM     32  H   UNL     1      -9.377   5.823 -63.431  1.00  0.00     0.211 HD
ENDBRANCH   6  31
BRANCH   3  33
ATOM     33  C   UNL     1      -6.719   7.371 -59.379  1.00  0.00     0.191 C 
BRANCH  33  34
ATOM     34  O   UNL     1      -7.536   8.275 -58.736  1.00  0.00    -0.394 OA
ATOM     35  H   UNL     1      -8.024   8.868 -59.381  1.00  0.00     0.210 HD
ENDBRANCH  33  34
ENDBRANCH   3  33
BRANCH   5  36
ATOM     36  O   UNL     1     -10.923   6.300 -60.241  1.00  0.00    -0.387 OA
ATOM     37  H   UNL     1     -10.818   5.497 -59.679  1.00  0.00     0.211 HD
ENDBRANCH   5  36
BRANCH   4  38
ATOM     38  O   UNL     1      -8.589   8.422 -61.483  1.00  0.00    -0.388 OA
ATOM     39  H   UNL     1      -9.299   8.372 -62.199  1.00  0.00     0.211 HD
ENDBRANCH   4  38
TORSDOF 7
ENDMDL
MODEL 7
REMARK VINA RESULT:      -8.3      9.374     12.468
REMARK SMILES Cc1c(C(=O)[O-])c([O-])cc2c1C(=O)c1c([O-])c([C@H]3O[C@H](CO)[C@@H](O)[C@H](O)[C@H]3O)c([O-])c([O-])c1C2=O
REMARK SMILES IDX 18 1 19 2 20 3 23 4 25 5 27 6 17 7 2 8 3 9 11 10 7 11 10 12
REMARK SMILES IDX 12 13 9 14 34 15 13 16 14 17 33 18 35 19 15 20 31 21 29 22
REMARK SMILES IDX 1 23 8 24 16 25 32 26 30 27 4 28 5 29 6 30 28 31 21 33 22 34
REMARK SMILES IDX 26 36 24 38
REMARK H PARENT 28 32 22 35 26 37 24 39
ROOT
ATOM      1  C   UNL     1      -2.789  -2.169 -61.119  1.00  0.00     0.179 C 
ATOM      2  O   UNL     1      -1.785  -1.897 -61.984  1.00  0.00    -0.362 OA
ATOM      3  C   UNL     1      -1.869  -0.838 -62.798  1.00  0.00     0.176 C 
ATOM      4  C   UNL     1      -2.655   0.333 -62.350  1.00  0.00     0.177 C 
ATOM      5  C   UNL     1      -3.805   0.040 -61.459  1.00  0.00     0.177 C 
ATOM      6  C   UNL     1      -4.071  -1.426 -61.347  1.00  0.00     0.179 C 
ENDROOT
BRANCH   1   7
ATOM      7  C   UNL     1      -3.063  -3.633 -60.964  1.00  0.00    -0.032 A 
ATOM      8  C   UNL     1      -3.904  -8.966 -64.095  1.00  0.00    -0.031 A 
ATOM      9  C   UNL     1      -4.157 -10.317 -63.973  1.00  0.00    -0.007 A 
ATOM     10  C   UNL     1      -3.798  -8.129 -63.001  1.00  0.00     0.037 A 
ATOM     11  C   UNL     1      -4.313 -10.885 -62.726  1.00  0.00    -0.099 A 
ATOM     12  C   UNL     1      -3.955  -8.700 -61.748  1.00  0.00     0.033 A 
ATOM     13  C   UNL     1      -3.532  -6.698 -63.116  1.00  0.00     0.194 C 
ATOM     14  C   UNL     1      -4.209 -10.050 -61.609  1.00  0.00     0.005 A 
ATOM     15  C   UNL     1      -3.846  -7.828 -60.582  1.00  0.00     0.193 C 
ATOM     16  O   UNL     1      -3.389  -6.179 -64.237  1.00  0.00    -0.289 OA
ATOM     17  C   UNL     1      -3.421  -5.821 -61.947  1.00  0.00     0.026 A 
ATOM     18  C   UNL     1      -3.579  -6.393 -60.703  1.00  0.00     0.025 A 
ATOM     19  O   UNL     1      -3.984  -8.317 -59.440  1.00  0.00    -0.289 OA
ATOM     20  C   UNL     1      -3.170  -4.470 -62.057  1.00  0.00    -0.091 A 
ATOM     21  C   UNL     1      -3.476  -5.573 -59.594  1.00  0.00    -0.105 A 
ATOM     22  C   UNL     1      -3.224  -4.223 -59.727  1.00  0.00    -0.111 A 
ATOM     23  C   UNL     1      -3.741  -8.386 -65.449  1.00  0.00     0.046 C 
ATOM     24  O   UNL     1      -4.570 -12.250 -62.557  1.00  0.00    -0.872 OA
ATOM     25  O   UNL     1      -3.020  -3.946 -63.326  1.00  0.00    -0.872 OA
ATOM     26  O   UNL     1      -3.638  -6.169 -58.345  1.00  0.00    -0.872 OA
ATOM     27  O   UNL     1      -3.121  -3.403 -58.611  1.00  0.00    -0.873 OA
BRANCH   9  28
ATOM     28  C   UNL     1      -4.268 -11.198 -65.132  1.00  0.00     0.071 C 
ATOM     29  O   UNL     1      -3.311 -11.798 -65.654  1.00  0.00    -0.545 OA
ATOM     30  O   UNL     1      -5.543 -11.361 -65.670  1.00  0.00    -0.545 OA
ENDBRANCH   9  28
ENDBRANCH   1   7
BRANCH   6  31
ATOM     31  O   UNL     1      -4.799  -1.878 -62.426  1.00  0.00    -0.387 OA
ATOM     32  H   UNL     1      -5.551  -1.265 -62.612  1.00  0.00     0.211 HD
ENDBRANCH   6  31
BRANCH   3  33
ATOM     33  C   UNL     1      -0.440  -0.339 -63.066  1.00  0.00     0.191 C 
BRANCH  33  34
ATOM     34  O   UNL     1      -0.272   0.047 -64.378  1.00  0.00    -0.394 OA
ATOM     35  H   UNL     1      -0.050   1.022 -64.458  1.00  0.00     0.210 HD
ENDBRANCH  33  34
ENDBRANCH   3  33
BRANCH   5  36
ATOM     36  O   UNL     1      -3.664   0.614 -60.192  1.00  0.00    -0.387 OA
ATOM     37  H   UNL     1      -4.534   0.814 -59.775  1.00  0.00     0.211 HD
ENDBRANCH   5  36
BRANCH   4  38
ATOM     38  O   UNL     1      -3.075   1.036 -63.504  1.00  0.00    -0.388 OA
ATOM     39  H   UNL     1      -2.340   1.696 -63.716  1.00  0.00     0.211 HD
ENDBRANCH   4  38
TORSDOF 7
ENDMDL
MODEL 8
REMARK VINA RESULT:      -8.3      2.364      8.851
REMARK SMILES Cc1c(C(=O)[O-])c([O-])cc2c1C(=O)c1c([O-])c([C@H]3O[C@H](CO)[C@@H](O)[C@H](O)[C@H]3O)c([O-])c([O-])c1C2=O
REMARK SMILES IDX 18 1 19 2 20 3 23 4 25 5 27 6 17 7 2 8 3 9 11 10 7 11 10 12
REMARK SMILES IDX 12 13 9 14 34 15 13 16 14 17 33 18 35 19 15 20 31 21 29 22
REMARK SMILES IDX 1 23 8 24 16 25 32 26 30 27 4 28 5 29 6 30 28 31 21 33 22 34
REMARK SMILES IDX 26 36 24 38
REMARK H PARENT 28 32 22 35 26 37 24 39
ROOT
ATOM      1  C   UNL     1       7.957  -7.729 -66.891  1.00  0.00     0.179 C 
ATOM      2  O   UNL     1       7.256  -8.206 -67.944  1.00  0.00    -0.362 OA
ATOM      3  C   UNL     1       6.991  -7.413 -68.989  1.00  0.00     0.176 C 
ATOM      4  C   UNL     1       7.940  -6.321 -69.301  1.00  0.00     0.177 C 
ATOM      5  C   UNL     1       8.661  -5.738 -68.143  1.00  0.00     0.177 C 
ATOM      6  C   UNL     1       8.132  -6.241 -66.839  1.00  0.00     0.179 C 
ENDROOT
BRANCH   1   7
ATOM      7  C   UNL     1       7.468  -8.235 -65.569  1.00  0.00    -0.032 A 
ATOM      8  C   UNL     1       2.356  -9.247 -62.134  1.00  0.00    -0.031 A 
ATOM      9  C   UNL     1       1.886  -9.710 -60.922  1.00  0.00    -0.007 A 
ATOM     10  C   UNL     1       3.702  -9.224 -62.448  1.00  0.00     0.037 A 
ATOM     11  C   UNL     1       2.766 -10.174 -59.967  1.00  0.00    -0.099 A 
ATOM     12  C   UNL     1       4.586  -9.691 -61.488  1.00  0.00     0.033 A 
ATOM     13  C   UNL     1       4.213  -8.737 -63.726  1.00  0.00     0.194 C 
ATOM     14  C   UNL     1       4.131 -10.157 -60.271  1.00  0.00     0.005 A 
ATOM     15  C   UNL     1       6.010  -9.673 -61.805  1.00  0.00     0.193 C 
ATOM     16  O   UNL     1       3.425  -8.317 -64.593  1.00  0.00    -0.289 OA
ATOM     17  C   UNL     1       5.642  -8.719 -64.048  1.00  0.00     0.026 A 
ATOM     18  C   UNL     1       6.518  -9.183 -63.089  1.00  0.00     0.025 A 
ATOM     19  O   UNL     1       6.829 -10.088 -60.958  1.00  0.00    -0.289 OA
ATOM     20  C   UNL     1       6.124  -8.258 -65.255  1.00  0.00    -0.091 A 
ATOM     21  C   UNL     1       7.868  -9.169 -63.383  1.00  0.00    -0.105 A 
ATOM     22  C   UNL     1       8.329  -8.705 -64.598  1.00  0.00    -0.111 A 
ATOM     23  C   UNL     1       1.385  -8.754 -63.140  1.00  0.00     0.046 C 
ATOM     24  O   UNL     1       2.332 -10.652 -58.725  1.00  0.00    -0.872 OA
ATOM     25  O   UNL     1       5.205  -7.803 -66.180  1.00  0.00    -0.872 OA
ATOM     26  O   UNL     1       8.738  -9.643 -62.403  1.00  0.00    -0.872 OA
ATOM     27  O   UNL     1       9.687  -8.692 -64.890  1.00  0.00    -0.873 OA
BRANCH   9  28
ATOM     28  C   UNL     1       0.464  -9.732 -60.594  1.00  0.00     0.071 C 
ATOM     29  O   UNL     1      -0.304 -10.674 -60.860  1.00  0.00    -0.545 OA
ATOM     30  O   UNL     1      -0.043  -8.611 -59.940  1.00  0.00    -0.545 OA
ENDBRANCH   9  28
ENDBRANCH   1   7
BRANCH   6  31
ATOM     31  O   UNL     1       6.997  -5.553 -66.471  1.00  0.00    -0.387 OA
ATOM     32  H   UNL     1       6.194  -6.109 -66.623  1.00  0.00     0.211 HD
ENDBRANCH   6  31
BRANCH   3  33
ATOM     33  C   UNL     1       6.907  -8.301 -70.242  1.00  0.00     0.191 C 
BRANCH  33  34
ATOM     34  O   UNL     1       7.996  -8.124 -71.066  1.00  0.00    -0.394 OA
ATOM     35  H   UNL     1       7.867  -7.358 -71.701  1.00  0.00     0.210 HD
ENDBRANCH  33  34
ENDBRANCH   3  33
BRANCH   5  36
ATOM     36  O   UNL     1      10.044  -5.928 -68.220  1.00  0.00    -0.387 OA
ATOM     37  H   UNL     1      10.437  -5.485 -69.009  1.00  0.00     0.211 HD
ENDBRANCH   5  36
BRANCH   4  38
ATOM     38  O   UNL     1       7.228  -5.323 -70.009  1.00  0.00    -0.388 OA
ATOM     39  H   UNL     1       7.568  -5.353 -70.960  1.00  0.00     0.211 HD
ENDBRANCH   4  38
TORSDOF 7
ENDMDL
MODEL 9
REMARK VINA RESULT:      -8.2      2.167      9.015
REMARK SMILES Cc1c(C(=O)[O-])c([O-])cc2c1C(=O)c1c([O-])c([C@H]3O[C@H](CO)[C@@H](O)[C@H](O)[C@H]3O)c([O-])c([O-])c1C2=O
REMARK SMILES IDX 18 1 19 2 20 3 23 4 25 5 27 6 17 7 2 8 3 9 11 10 7 11 10 12
REMARK SMILES IDX 12 13 9 14 34 15 13 16 14 17 33 18 35 19 15 20 31 21 29 22
REMARK SMILES IDX 1 23 8 24 16 25 32 26 30 27 4 28 5 29 6 30 28 31 21 33 22 34
REMARK SMILES IDX 26 36 24 38
REMARK H PARENT 28 32 22 35 26 37 24 39
ROOT
ATOM      1  C   UNL     1       6.440  -6.459 -65.073  1.00  0.00     0.179 C 
ATOM      2  O   UNL     1       7.083  -5.315 -64.747  1.00  0.00    -0.362 OA
ATOM      3  C   UNL     1       8.225  -4.989 -65.364  1.00  0.00     0.176 C 
ATOM      4  C   UNL     1       8.435  -5.463 -66.750  1.00  0.00     0.177 C 
ATOM      5  C   UNL     1       7.795  -6.755 -67.098  1.00  0.00     0.177 C 
ATOM      6  C   UNL     1       7.218  -7.437 -65.901  1.00  0.00     0.179 C 
ENDROOT
BRANCH   1   7
ATOM      7  C   UNL     1       5.826  -7.155 -63.897  1.00  0.00    -0.032 A 
ATOM      8  C   UNL     1       0.540  -9.646 -61.705  1.00  0.00    -0.031 A 
ATOM      9  C   UNL     1      -0.044 -10.288 -60.632  1.00  0.00    -0.007 A 
ATOM     10  C   UNL     1       1.867  -9.262 -61.708  1.00  0.00     0.037 A 
ATOM     11  C   UNL     1       0.699 -10.571 -59.504  1.00  0.00    -0.099 A 
ATOM     12  C   UNL     1       2.613  -9.547 -60.575  1.00  0.00     0.033 A 
ATOM     13  C   UNL     1       2.497  -8.582 -62.837  1.00  0.00     0.194 C 
ATOM     14  C   UNL     1       2.044 -10.188 -59.493  1.00  0.00     0.005 A 
ATOM     15  C   UNL     1       4.016  -9.147 -60.562  1.00  0.00     0.193 C 
ATOM     16  O   UNL     1       1.834  -8.324 -63.857  1.00  0.00    -0.289 OA
ATOM     17  C   UNL     1       3.906  -8.181 -62.827  1.00  0.00     0.026 A 
ATOM     18  C   UNL     1       4.644  -8.466 -61.698  1.00  0.00     0.025 A 
ATOM     19  O   UNL     1       4.712  -9.391 -59.554  1.00  0.00    -0.289 OA
ATOM     20  C   UNL     1       4.500  -7.538 -63.893  1.00  0.00    -0.091 A 
ATOM     21  C   UNL     1       5.974  -8.090 -61.680  1.00  0.00    -0.105 A 
ATOM     22  C   UNL     1       6.548  -7.449 -62.758  1.00  0.00    -0.111 A 
ATOM     23  C   UNL     1      -0.284  -9.356 -62.902  1.00  0.00     0.046 C 
ATOM     24  O   UNL     1       0.146 -11.220 -58.394  1.00  0.00    -0.872 OA
ATOM     25  O   UNL     1       3.717  -7.276 -65.000  1.00  0.00    -0.872 OA
ATOM     26  O   UNL     1       6.704  -8.387 -60.530  1.00  0.00    -0.872 OA
ATOM     27  O   UNL     1       7.885  -7.073 -62.737  1.00  0.00    -0.873 OA
BRANCH   9  28
ATOM     28  C   UNL     1      -1.446 -10.692 -60.633  1.00  0.00     0.071 C 
ATOM     29  O   UNL     1      -1.877 -11.734 -61.159  1.00  0.00    -0.545 OA
ATOM     30  O   UNL     1      -2.342  -9.835 -59.996  1.00  0.00    -0.545 OA
ENDBRANCH   9  28
ENDBRANCH   1   7
BRANCH   6  31
ATOM     31  O   UNL     1       8.193  -8.115 -65.203  1.00  0.00    -0.387 OA
ATOM     32  H   UNL     1       9.027  -8.155 -65.731  1.00  0.00     0.211 HD
ENDBRANCH   6  31
BRANCH   3  33
ATOM     33  C   UNL     1       8.315  -3.454 -65.400  1.00  0.00     0.191 C 
BRANCH  33  34
ATOM     34  O   UNL     1       7.497  -2.873 -64.456  1.00  0.00    -0.394 OA
ATOM     35  H   UNL     1       6.537  -3.140 -64.574  1.00  0.00     0.210 HD
ENDBRANCH  33  34
ENDBRANCH   3  33
BRANCH   5  36
ATOM     36  O   UNL     1       6.832  -6.625 -68.104  1.00  0.00    -0.387 OA
ATOM     37  H   UNL     1       6.782  -7.426 -68.677  1.00  0.00     0.211 HD
ENDBRANCH   5  36
BRANCH   4  38
ATOM     38  O   UNL     1       9.831  -5.510 -66.980  1.00  0.00    -0.388 OA
ATOM     39  H   UNL     1      10.068  -4.654 -67.460  1.00  0.00     0.211 HD
ENDBRANCH   4  38
TORSDOF 7
ENDMDL
