MODEL 1
REMARK VINA RESULT:      -9.0      0.000      0.000
REMARK SMILES O=C([O-])c1cc(O)c2c(c1)C(=O)c1cccc([O-])c1C2=O
REMARK SMILES IDX 4 1 5 2 6 3 8 4 9 5 10 6 11 7 12 8 13 9 14 10 15 11 16 12
REMARK SMILES IDX 17 13 18 14 19 15 20 16 21 17 2 18 1 19 3 20 7 21
REMARK H PARENT 7 22
ROOT
ATOM      1  C   UNL     1       1.065  -0.342 -65.428  1.00  0.00     0.002 A 
ATOM      2  C   UNL     1       0.851  -1.596 -65.957  1.00  0.00     0.057 A 
ATOM      3  C   UNL     1       0.034  -2.494 -65.305  1.00  0.00     0.128 A 
ATOM      4  C   UNL     1      -0.597  -2.188 -64.110  1.00  0.00     0.075 A 
ATOM      5  C   UNL     1      -0.385  -0.932 -63.575  1.00  0.00     0.038 A 
ATOM      6  C   UNL     1       0.438  -0.032 -64.239  1.00  0.00     0.023 A 
ATOM      7  C   UNL     1      -1.049  -0.608 -62.320  1.00  0.00     0.194 C 
ATOM      8  O   UNL     1      -0.857   0.530 -61.834  1.00  0.00    -0.289 OA
ATOM      9  C   UNL     1      -1.913  -1.568 -61.633  1.00  0.00     0.033 A 
ATOM     10  C   UNL     1      -2.544  -1.261 -60.439  1.00  0.00     0.013 A 
ATOM     11  C   UNL     1      -3.361  -2.161 -59.786  1.00  0.00     0.000 A 
ATOM     12  C   UNL     1      -3.579  -3.418 -60.312  1.00  0.00    -0.008 A 
ATOM     13  C   UNL     1      -2.946  -3.726 -61.510  1.00  0.00    -0.097 A 
ATOM     14  O   UNL     1      -3.143  -4.972 -62.063  1.00  0.00    -0.872 OA
ATOM     15  C   UNL     1      -2.128  -2.824 -62.165  1.00  0.00     0.026 A 
ATOM     16  C   UNL     1      -1.463  -3.146 -63.423  1.00  0.00     0.197 C 
ATOM     17  O   UNL     1      -1.655  -4.281 -63.905  1.00  0.00    -0.288 OA
ENDROOT
BRANCH   1  18
ATOM     18  C   UNL     1       1.924   0.624 -66.102  1.00  0.00     0.072 C 
ATOM     19  O   UNL     1       1.858   1.852 -65.857  1.00  0.00    -0.545 OA
ATOM     20  O   UNL     1       2.843   0.185 -67.041  1.00  0.00    -0.545 OA
ENDBRANCH   1  18
BRANCH   3  21
ATOM     21  O   UNL     1      -0.181  -3.745 -65.832  1.00  0.00    -0.507 OA
ATOM     22  H   UNL     1       0.346  -4.566 -65.562  1.00  0.00     0.293 HD
ENDBRANCH   3  21
TORSDOF 2
ENDMDL
MODEL 2
REMARK VINA RESULT:      -7.8      9.903     10.450
REMARK SMILES O=C([O-])c1cc(O)c2c(c1)C(=O)c1cccc([O-])c1C2=O
REMARK SMILES IDX 4 1 5 2 6 3 8 4 9 5 10 6 11 7 12 8 13 9 14 10 15 11 16 12
REMARK SMILES IDX 17 13 18 14 19 15 20 16 21 17 2 18 1 19 3 20 7 21
REMARK H PARENT 7 22
ROOT
ATOM      1  C   UNL     1       8.425  -5.857 -68.889  1.00  0.00     0.002 A 
ATOM      2  C   UNL     1       7.511  -6.883 -68.793  1.00  0.00     0.057 A 
ATOM      3  C   UNL     1       7.089  -7.321 -67.556  1.00  0.00     0.128 A 
ATOM      4  C   UNL     1       7.551  -6.764 -66.375  1.00  0.00     0.075 A 
ATOM      5  C   UNL     1       8.469  -5.735 -66.468  1.00  0.00     0.038 A 
ATOM      6  C   UNL     1       8.889  -5.299 -67.716  1.00  0.00     0.023 A 
ATOM      7  C   UNL     1       8.957  -5.147 -65.227  1.00  0.00     0.194 C 
ATOM      8  O   UNL     1       9.788  -4.214 -65.310  1.00  0.00    -0.289 OA
ATOM      9  C   UNL     1       8.503  -5.619 -63.919  1.00  0.00     0.033 A 
ATOM     10  C   UNL     1       8.967  -5.061 -62.739  1.00  0.00     0.013 A 
ATOM     11  C   UNL     1       8.544  -5.501 -61.502  1.00  0.00     0.000 A 
ATOM     12  C   UNL     1       7.628  -6.528 -61.399  1.00  0.00    -0.008 A 
ATOM     13  C   UNL     1       7.163  -7.087 -62.582  1.00  0.00    -0.097 A 
ATOM     14  O   UNL     1       6.248  -8.114 -62.515  1.00  0.00    -0.872 OA
ATOM     15  C   UNL     1       7.587  -6.647 -63.822  1.00  0.00     0.026 A 
ATOM     16  C   UNL     1       7.099  -7.234 -65.066  1.00  0.00     0.197 C 
ATOM     17  O   UNL     1       6.271  -8.163 -64.981  1.00  0.00    -0.288 OA
ENDROOT
BRANCH   1  18
ATOM     18  C   UNL     1       8.885  -5.377 -70.187  1.00  0.00     0.072 C 
ATOM     19  O   UNL     1      10.014  -5.680 -70.642  1.00  0.00    -0.545 OA
ATOM     20  O   UNL     1       8.062  -4.564 -70.948  1.00  0.00    -0.545 OA
ENDBRANCH   1  18
BRANCH   3  21
ATOM     21  O   UNL     1       6.176  -8.345 -67.458  1.00  0.00    -0.507 OA
ATOM     22  H   UNL     1       5.236  -8.227 -67.102  1.00  0.00     0.293 HD
ENDBRANCH   3  21
TORSDOF 2
ENDMDL
MODEL 3
REMARK VINA RESULT:      -7.7      1.418      3.307
REMARK SMILES O=C([O-])c1cc(O)c2c(c1)C(=O)c1cccc([O-])c1C2=O
REMARK SMILES IDX 4 1 5 2 6 3 8 4 9 5 10 6 11 7 12 8 13 9 14 10 15 11 16 12
REMARK SMILES IDX 17 13 18 14 19 15 20 16 21 17 2 18 1 19 3 20 7 21
REMARK H PARENT 7 22
ROOT
ATOM      1  C   UNL     1       0.995  -0.172 -65.245  1.00  0.00     0.002 A 
ATOM      2  C   UNL     1       0.492   0.397 -64.096  1.00  0.00     0.057 A 
ATOM      3  C   UNL     1      -0.345  -0.326 -63.274  1.00  0.00     0.128 A 
ATOM      4  C   UNL     1      -0.715  -1.631 -63.555  1.00  0.00     0.075 A 
ATOM      5  C   UNL     1      -0.213  -2.205 -64.708  1.00  0.00     0.038 A 
ATOM      6  C   UNL     1       0.630  -1.472 -65.530  1.00  0.00     0.023 A 
ATOM      7  C   UNL     1      -0.600  -3.578 -65.006  1.00  0.00     0.194 C 
ATOM      8  O   UNL     1      -0.146  -4.099 -66.049  1.00  0.00    -0.289 OA
ATOM      9  C   UNL     1      -1.490  -4.337 -64.128  1.00  0.00     0.033 A 
ATOM     10  C   UNL     1      -1.859  -5.642 -64.410  1.00  0.00     0.013 A 
ATOM     11  C   UNL     1      -2.698  -6.364 -63.587  1.00  0.00     0.000 A 
ATOM     12  C   UNL     1      -3.204  -5.799 -62.434  1.00  0.00    -0.008 A 
ATOM     13  C   UNL     1      -2.834  -4.491 -62.151  1.00  0.00    -0.097 A 
ATOM     14  O   UNL     1      -3.321  -3.897 -61.007  1.00  0.00    -0.872 OA
ATOM     15  C   UNL     1      -1.993  -3.766 -62.975  1.00  0.00     0.026 A 
ATOM     16  C   UNL     1      -1.604  -2.392 -62.678  1.00  0.00     0.197 C 
ATOM     17  O   UNL     1      -2.058  -1.874 -61.637  1.00  0.00    -0.288 OA
ENDROOT
BRANCH   1  18
ATOM     18  C   UNL     1       1.883   0.574 -66.129  1.00  0.00     0.072 C 
ATOM     19  O   UNL     1       2.643  -0.002 -66.944  1.00  0.00    -0.545 OA
ATOM     20  O   UNL     1       1.896   1.958 -66.077  1.00  0.00    -0.545 OA
ENDBRANCH   1  18
BRANCH   3  21
ATOM     21  O   UNL     1      -0.847   0.240 -62.126  1.00  0.00    -0.507 OA
ATOM     22  H   UNL     1      -0.316   0.856 -61.524  1.00  0.00     0.293 HD
ENDBRANCH   3  21
TORSDOF 2
ENDMDL
MODEL 4
REMARK VINA RESULT:      -7.6      1.544      3.276
REMARK SMILES O=C([O-])c1cc(O)c2c(c1)C(=O)c1cccc([O-])c1C2=O
REMARK SMILES IDX 4 1 5 2 6 3 8 4 9 5 10 6 11 7 12 8 13 9 14 10 15 11 16 12
REMARK SMILES IDX 17 13 18 14 19 15 20 16 21 17 2 18 1 19 3 20 7 21
REMARK H PARENT 7 22
ROOT
ATOM      1  C   UNL     1       0.221  -1.318 -64.977  1.00  0.00     0.002 A 
ATOM      2  C   UNL     1       0.147  -0.389 -63.962  1.00  0.00     0.057 A 
ATOM      3  C   UNL     1      -0.605  -0.651 -62.838  1.00  0.00     0.128 A 
ATOM      4  C   UNL     1      -1.310  -1.832 -62.675  1.00  0.00     0.075 A 
ATOM      5  C   UNL     1      -1.238  -2.767 -63.692  1.00  0.00     0.038 A 
ATOM      6  C   UNL     1      -0.478  -2.497 -64.820  1.00  0.00     0.023 A 
ATOM      7  C   UNL     1      -1.977  -4.011 -63.523  1.00  0.00     0.194 C 
ATOM      8  O   UNL     1      -1.913  -4.857 -64.443  1.00  0.00    -0.289 OA
ATOM      9  C   UNL     1      -2.774  -4.279 -62.326  1.00  0.00     0.033 A 
ATOM     10  C   UNL     1      -3.476  -5.462 -62.165  1.00  0.00     0.013 A 
ATOM     11  C   UNL     1      -4.230  -5.722 -61.039  1.00  0.00     0.000 A 
ATOM     12  C   UNL     1      -4.308  -4.796 -60.018  1.00  0.00    -0.008 A 
ATOM     13  C   UNL     1      -3.603  -3.610 -60.180  1.00  0.00    -0.097 A 
ATOM     14  O   UNL     1      -3.658  -2.664 -59.180  1.00  0.00    -0.872 OA
ATOM     15  C   UNL     1      -2.848  -3.349 -61.308  1.00  0.00     0.026 A 
ATOM     16  C   UNL     1      -2.106  -2.104 -61.479  1.00  0.00     0.197 C 
ATOM     17  O   UNL     1      -2.171  -1.261 -60.560  1.00  0.00    -0.288 OA
ENDROOT
BRANCH   1  18
ATOM     18  C   UNL     1       1.012  -1.062 -66.176  1.00  0.00     0.072 C 
ATOM     19  O   UNL     1       0.563  -1.289 -67.324  1.00  0.00    -0.545 OA
ATOM     20  O   UNL     1       2.295  -0.555 -66.054  1.00  0.00    -0.545 OA
ENDBRANCH   1  18
BRANCH   3  21
ATOM     21  O   UNL     1      -0.681   0.274 -61.823  1.00  0.00    -0.507 OA
ATOM     22  H   UNL     1      -0.067   1.076 -61.747  1.00  0.00     0.293 HD
ENDBRANCH   3  21
TORSDOF 2
ENDMDL
MODEL 5
REMARK VINA RESULT:      -7.6      8.956     11.417
REMARK SMILES O=C([O-])c1cc(O)c2c(c1)C(=O)c1cccc([O-])c1C2=O
REMARK SMILES IDX 4 1 5 2 6 3 8 4 9 5 10 6 11 7 12 8 13 9 14 10 15 11 16 12
REMARK SMILES IDX 17 13 18 14 19 15 20 16 21 17 2 18 1 19 3 20 7 21
REMARK H PARENT 7 22
ROOT
ATOM      1  C   UNL     1       7.134  -7.508 -62.210  1.00  0.00     0.002 A 
ATOM      2  C   UNL     1       7.747  -8.606 -62.773  1.00  0.00     0.057 A 
ATOM      3  C   UNL     1       8.092  -8.599 -64.107  1.00  0.00     0.128 A 
ATOM      4  C   UNL     1       7.844  -7.513 -64.931  1.00  0.00     0.075 A 
ATOM      5  C   UNL     1       7.228  -6.410 -64.370  1.00  0.00     0.038 A 
ATOM      6  C   UNL     1       6.885  -6.424 -63.026  1.00  0.00     0.023 A 
ATOM      7  C   UNL     1       6.967  -5.267 -65.234  1.00  0.00     0.194 C 
ATOM      8  O   UNL     1       6.409  -4.267 -64.728  1.00  0.00    -0.289 OA
ATOM      9  C   UNL     1       7.335  -5.269 -66.650  1.00  0.00     0.033 A 
ATOM     10  C   UNL     1       7.087  -4.182 -67.472  1.00  0.00     0.013 A 
ATOM     11  C   UNL     1       7.432  -4.176 -68.808  1.00  0.00     0.000 A 
ATOM     12  C   UNL     1       8.048  -5.273 -69.377  1.00  0.00    -0.008 A 
ATOM     13  C   UNL     1       8.297  -6.362 -68.552  1.00  0.00    -0.097 A 
ATOM     14  O   UNL     1       8.910  -7.473 -69.088  1.00  0.00    -0.872 OA
ATOM     15  C   UNL     1       7.951  -6.369 -67.214  1.00  0.00     0.026 A 
ATOM     16  C   UNL     1       8.213  -7.512 -66.346  1.00  0.00     0.197 C 
ATOM     17  O   UNL     1       8.769  -8.508 -66.854  1.00  0.00    -0.288 OA
ENDROOT
BRANCH   1  18
ATOM     18  C   UNL     1       6.761  -7.494 -60.800  1.00  0.00     0.072 C 
ATOM     19  O   UNL     1       5.650  -7.920 -60.406  1.00  0.00    -0.545 OA
ATOM     20  O   UNL     1       7.650  -6.997 -59.862  1.00  0.00    -0.545 OA
ENDBRANCH   1  18
BRANCH   3  21
ATOM     21  O   UNL     1       8.705  -9.693 -64.671  1.00  0.00    -0.507 OA
ATOM     22  H   UNL     1       9.626 -10.019 -64.407  1.00  0.00     0.293 HD
ENDBRANCH   3  21
TORSDOF 2
ENDMDL
MODEL 6
REMARK VINA RESULT:      -7.6      9.673     11.626
REMARK SMILES O=C([O-])c1cc(O)c2c(c1)C(=O)c1cccc([O-])c1C2=O
REMARK SMILES IDX 4 1 5 2 6 3 8 4 9 5 10 6 11 7 12 8 13 9 14 10 15 11 16 12
REMARK SMILES IDX 17 13 18 14 19 15 20 16 21 17 2 18 1 19 3 20 7 21
REMARK H PARENT 7 22
ROOT
ATOM      1  C   UNL     1       7.818  -7.091 -62.263  1.00  0.00     0.002 A 
ATOM      2  C   UNL     1       7.927  -5.721 -62.353  1.00  0.00     0.057 A 
ATOM      3  C   UNL     1       7.895  -5.103 -63.584  1.00  0.00     0.128 A 
ATOM      4  C   UNL     1       7.755  -5.811 -64.766  1.00  0.00     0.075 A 
ATOM      5  C   UNL     1       7.646  -7.187 -64.680  1.00  0.00     0.038 A 
ATOM      6  C   UNL     1       7.679  -7.802 -63.437  1.00  0.00     0.023 A 
ATOM      7  C   UNL     1       7.498  -7.935 -65.922  1.00  0.00     0.194 C 
ATOM      8  O   UNL     1       7.399  -9.180 -65.845  1.00  0.00    -0.289 OA
ATOM      9  C   UNL     1       7.465  -7.269 -67.224  1.00  0.00     0.033 A 
ATOM     10  C   UNL     1       7.325  -7.980 -68.405  1.00  0.00     0.013 A 
ATOM     11  C   UNL     1       7.293  -7.360 -69.637  1.00  0.00     0.000 A 
ATOM     12  C   UNL     1       7.401  -5.987 -69.733  1.00  0.00    -0.008 A 
ATOM     13  C   UNL     1       7.542  -5.276 -68.549  1.00  0.00    -0.097 A 
ATOM     14  O   UNL     1       7.652  -3.903 -68.609  1.00  0.00    -0.872 OA
ATOM     15  C   UNL     1       7.574  -5.896 -67.314  1.00  0.00     0.026 A 
ATOM     16  C   UNL     1       7.721  -5.149 -66.070  1.00  0.00     0.197 C 
ATOM     17  O   UNL     1       7.819  -3.907 -66.149  1.00  0.00    -0.288 OA
ENDROOT
BRANCH   1  18
ATOM     18  C   UNL     1       7.850  -7.766 -60.971  1.00  0.00     0.072 C 
ATOM     19  O   UNL     1       7.959  -9.012 -60.878  1.00  0.00    -0.545 OA
ATOM     20  O   UNL     1       7.758  -7.021 -59.807  1.00  0.00    -0.545 OA
ENDBRANCH   1  18
BRANCH   3  21
ATOM     21  O   UNL     1       8.003  -3.735 -63.677  1.00  0.00    -0.507 OA
ATOM     22  H   UNL     1       7.351  -3.153 -64.187  1.00  0.00     0.293 HD
ENDBRANCH   3  21
TORSDOF 2
ENDMDL
MODEL 7
REMARK VINA RESULT:      -7.6      9.845     10.958
REMARK SMILES O=C([O-])c1cc(O)c2c(c1)C(=O)c1cccc([O-])c1C2=O
REMARK SMILES IDX 4 1 5 2 6 3 8 4 9 5 10 6 11 7 12 8 13 9 14 10 15 11 16 12
REMARK SMILES IDX 17 13 18 14 19 15 20 16 21 17 2 18 1 19 3 20 7 21
REMARK H PARENT 7 22
ROOT
ATOM      1  C   UNL     1       7.974  -5.744 -68.650  1.00  0.00     0.002 A 
ATOM      2  C   UNL     1       7.864  -4.520 -68.029  1.00  0.00     0.057 A 
ATOM      3  C   UNL     1       7.901  -4.434 -66.654  1.00  0.00     0.128 A 
ATOM      4  C   UNL     1       8.046  -5.549 -65.845  1.00  0.00     0.075 A 
ATOM      5  C   UNL     1       8.157  -6.780 -66.465  1.00  0.00     0.038 A 
ATOM      6  C   UNL     1       8.120  -6.858 -67.849  1.00  0.00     0.023 A 
ATOM      7  C   UNL     1       8.311  -7.955 -65.617  1.00  0.00     0.194 C 
ATOM      8  O   UNL     1       8.411  -9.070 -66.177  1.00  0.00    -0.289 OA
ATOM      9  C   UNL     1       8.347  -7.854 -64.158  1.00  0.00     0.033 A 
ATOM     10  C   UNL     1       8.494  -8.970 -63.351  1.00  0.00     0.013 A 
ATOM     11  C   UNL     1       8.530  -8.883 -61.975  1.00  0.00     0.000 A 
ATOM     12  C   UNL     1       8.420  -7.659 -61.347  1.00  0.00    -0.008 A 
ATOM     13  C   UNL     1       8.274  -6.540 -62.156  1.00  0.00    -0.097 A 
ATOM     14  O   UNL     1       8.162  -5.302 -61.562  1.00  0.00    -0.872 OA
ATOM     15  C   UNL     1       8.238  -6.626 -63.536  1.00  0.00     0.026 A 
ATOM     16  C   UNL     1       8.084  -5.451 -64.387  1.00  0.00     0.197 C 
ATOM     17  O   UNL     1       7.985  -4.340 -63.827  1.00  0.00    -0.288 OA
ENDROOT
BRANCH   1  18
ATOM     18  C   UNL     1       7.939  -5.858 -70.103  1.00  0.00     0.072 C 
ATOM     19  O   UNL     1       7.879  -6.971 -70.678  1.00  0.00    -0.545 OA
ATOM     20  O   UNL     1       7.971  -4.712 -70.881  1.00  0.00    -0.545 OA
ENDBRANCH   1  18
BRANCH   3  21
ATOM     21  O   UNL     1       7.791  -3.212 -66.032  1.00  0.00    -0.507 OA
ATOM     22  H   UNL     1       8.578  -2.605 -65.845  1.00  0.00     0.293 HD
ENDBRANCH   3  21
TORSDOF 2
ENDMDL
MODEL 8
REMARK VINA RESULT:      -7.5     10.341     10.730
REMARK SMILES O=C([O-])c1cc(O)c2c(c1)C(=O)c1cccc([O-])c1C2=O
REMARK SMILES IDX 4 1 5 2 6 3 8 4 9 5 10 6 11 7 12 8 13 9 14 10 15 11 16 12
REMARK SMILES IDX 17 13 18 14 19 15 20 16 21 17 2 18 1 19 3 20 7 21
REMARK H PARENT 7 22
ROOT
ATOM      1  C   UNL     1       8.507  -6.087 -68.648  1.00  0.00     0.002 A 
ATOM      2  C   UNL     1       8.053  -7.388 -68.631  1.00  0.00     0.057 A 
ATOM      3  C   UNL     1       7.794  -8.016 -67.432  1.00  0.00     0.128 A 
ATOM      4  C   UNL     1       7.974  -7.386 -66.211  1.00  0.00     0.075 A 
ATOM      5  C   UNL     1       8.429  -6.081 -66.224  1.00  0.00     0.038 A 
ATOM      6  C   UNL     1       8.687  -5.455 -67.435  1.00  0.00     0.023 A 
ATOM      7  C   UNL     1       8.618  -5.416 -64.942  1.00  0.00     0.194 C 
ATOM      8  O   UNL     1       9.031  -4.234 -64.952  1.00  0.00    -0.289 OA
ATOM      9  C   UNL     1       8.342  -6.091 -63.674  1.00  0.00     0.033 A 
ATOM     10  C   UNL     1       8.522  -5.459 -62.454  1.00  0.00     0.013 A 
ATOM     11  C   UNL     1       8.263  -6.089 -61.255  1.00  0.00     0.000 A 
ATOM     12  C   UNL     1       7.808  -7.392 -61.231  1.00  0.00    -0.008 A 
ATOM     13  C   UNL     1       7.627  -8.025 -62.454  1.00  0.00    -0.097 A 
ATOM     14  O   UNL     1       7.173  -9.326 -62.467  1.00  0.00    -0.872 OA
ATOM     15  C   UNL     1       7.886  -7.394 -63.657  1.00  0.00     0.026 A 
ATOM     16  C   UNL     1       7.697  -8.058 -64.942  1.00  0.00     0.197 C 
ATOM     17  O   UNL     1       7.286  -9.236 -64.930  1.00  0.00    -0.288 OA
ENDROOT
BRANCH   1  18
ATOM     18  C   UNL     1       8.786  -5.403 -69.905  1.00  0.00     0.072 C 
ATOM     19  O   UNL     1       8.011  -4.536 -70.373  1.00  0.00    -0.545 OA
ATOM     20  O   UNL     1       9.938  -5.711 -70.610  1.00  0.00    -0.545 OA
ENDBRANCH   1  18
BRANCH   3  21
ATOM     21  O   UNL     1       7.341  -9.314 -67.413  1.00  0.00    -0.507 OA
ATOM     22  H   UNL     1       7.866 -10.086 -67.023  1.00  0.00     0.293 HD
ENDBRANCH   3  21
TORSDOF 2
ENDMDL
MODEL 9
REMARK VINA RESULT:      -7.5      1.322      1.804
REMARK SMILES O=C([O-])c1cc(O)c2c(c1)C(=O)c1cccc([O-])c1C2=O
REMARK SMILES IDX 4 1 5 2 6 3 8 4 9 5 10 6 11 7 12 8 13 9 14 10 15 11 16 12
REMARK SMILES IDX 17 13 18 14 19 15 20 16 21 17 2 18 1 19 3 20 7 21
REMARK H PARENT 7 22
ROOT
ATOM      1  C   UNL     1       0.095  -1.824 -65.175  1.00  0.00     0.002 A 
ATOM      2  C   UNL     1       0.061  -3.170 -65.465  1.00  0.00     0.057 A 
ATOM      3  C   UNL     1      -0.626  -4.039 -64.645  1.00  0.00     0.128 A 
ATOM      4  C   UNL     1      -1.300  -3.612 -63.513  1.00  0.00     0.075 A 
ATOM      5  C   UNL     1      -1.268  -2.262 -63.218  1.00  0.00     0.038 A 
ATOM      6  C   UNL     1      -0.575  -1.393 -64.048  1.00  0.00     0.023 A 
ATOM      7  C   UNL     1      -1.977  -1.811 -62.028  1.00  0.00     0.194 C 
ATOM      8  O   UNL     1      -1.949  -0.588 -61.760  1.00  0.00    -0.289 OA
ATOM      9  C   UNL     1      -2.703  -2.740 -61.162  1.00  0.00     0.033 A 
ATOM     10  C   UNL     1      -3.378  -2.312 -60.031  1.00  0.00     0.013 A 
ATOM     11  C   UNL     1      -4.064  -3.183 -59.210  1.00  0.00     0.000 A 
ATOM     12  C   UNL     1      -4.102  -4.532 -59.497  1.00  0.00    -0.008 A 
ATOM     13  C   UNL     1      -3.426  -4.961 -60.631  1.00  0.00    -0.097 A 
ATOM     14  O   UNL     1      -3.445  -6.302 -60.947  1.00  0.00    -0.872 OA
ATOM     15  C   UNL     1      -2.738  -4.090 -61.454  1.00  0.00     0.026 A 
ATOM     16  C   UNL     1      -2.027  -4.539 -62.646  1.00  0.00     0.197 C 
ATOM     17  O   UNL     1      -2.057  -5.758 -62.912  1.00  0.00    -0.288 OA
ENDROOT
BRANCH   1  18
ATOM     18  C   UNL     1       0.816  -0.887 -66.029  1.00  0.00     0.072 C 
ATOM     19  O   UNL     1       0.811  -0.992 -67.278  1.00  0.00    -0.545 OA
ATOM     20  O   UNL     1       1.529   0.153 -65.455  1.00  0.00    -0.545 OA
ENDBRANCH   1  18
BRANCH   3  21
ATOM     21  O   UNL     1      -0.662  -5.383 -64.933  1.00  0.00    -0.507 OA
ATOM     22  H   UNL     1      -1.295  -6.036 -64.490  1.00  0.00     0.293 HD
ENDBRANCH   3  21
TORSDOF 2
ENDMDL
