MODEL 1
REMARK VINA RESULT:      -5.3      0.000      0.000
REMARK SMILES C=CCCCCCCCCCCCc1ccco1
REMARK SMILES IDX 8 1 7 2 6 3 5 4 4 5 3 6 2 7 1 8 9 9 10 10 11 11 12 12 13 13
REMARK SMILES IDX 14 14 15 15 18 16 16 17 17 18
REMARK H PARENT
ROOT
ATOM      1  C   UNL     1      -1.085  -0.010 -61.375  1.00  0.00     0.000 C 
ENDROOT
BRANCH   1   2
ATOM      2  C   UNL     1      -0.744  -1.145 -62.271  1.00  0.00     0.000 C 
BRANCH   2   3
ATOM      3  C   UNL     1      -1.160  -1.030 -63.685  1.00  0.00     0.000 C 
BRANCH   3   4
ATOM      4  C   UNL     1      -0.391  -1.916 -64.635  1.00  0.00     0.000 C 
BRANCH   4   5
ATOM      5  C   UNL     1       0.841  -1.260 -65.172  1.00  0.00     0.004 C 
BRANCH   5   6
ATOM      6  C   UNL     1       0.925   0.198 -64.792  1.00  0.00     0.027 C 
BRANCH   6   7
ATOM      7  C   UNL     1       1.738   0.901 -65.822  1.00  0.00    -0.035 C 
ATOM      8  C   UNL     1       2.540   0.245 -66.648  1.00  0.00     0.004 C 
ENDBRANCH   6   7
ENDBRANCH   5   6
ENDBRANCH   4   5
ENDBRANCH   3   4
ENDBRANCH   2   3
ENDBRANCH   1   2
BRANCH   1   9
ATOM      9  C   UNL     1      -1.747  -0.409 -60.095  1.00  0.00     0.000 C 
BRANCH   9  10
ATOM     10  C   UNL     1      -3.024   0.345 -59.925  1.00  0.00     0.000 C 
BRANCH  10  11
ATOM     11  C   UNL     1      -3.928   0.350 -61.104  1.00  0.00     0.000 C 
BRANCH  11  12
ATOM     12  C   UNL     1      -4.293   1.736 -61.582  1.00  0.00     0.008 C 
BRANCH  12  13
ATOM     13  C   UNL     1      -5.805   1.764 -61.717  1.00  0.00     0.075 C 
BRANCH  13  14
ATOM     14  C   UNL     1      -6.360   3.060 -61.241  1.00  0.00     0.103 A 
ATOM     15  C   UNL     1      -7.418   3.285 -60.412  1.00  0.00     0.045 A 
ATOM     16  O   UNL     1      -5.851   4.214 -61.599  1.00  0.00    -0.469 OA
ATOM     17  C   UNL     1      -7.528   4.648 -60.282  1.00  0.00     0.042 A 
ATOM     18  C   UNL     1      -6.523   5.184 -61.044  1.00  0.00     0.195 A 
ENDBRANCH  13  14
ENDBRANCH  12  13
ENDBRANCH  11  12
ENDBRANCH  10  11
ENDBRANCH   9  10
ENDBRANCH   1   9
TORSDOF 12
ENDMDL
MODEL 2
REMARK VINA RESULT:      -5.2      2.824      4.737
REMARK SMILES C=CCCCCCCCCCCCc1ccco1
REMARK SMILES IDX 8 1 7 2 6 3 5 4 4 5 3 6 2 7 1 8 9 9 10 10 11 11 12 12 13 13
REMARK SMILES IDX 14 14 15 15 18 16 16 17 17 18
REMARK H PARENT
ROOT
ATOM      1  C   UNL     1      -4.120   0.585 -62.838  1.00  0.00     0.000 C 
ENDROOT
BRANCH   1   2
ATOM      2  C   UNL     1      -2.684   0.926 -62.676  1.00  0.00     0.000 C 
BRANCH   2   3
ATOM      3  C   UNL     1      -1.807  -0.119 -62.107  1.00  0.00     0.000 C 
BRANCH   3   4
ATOM      4  C   UNL     1      -1.541   0.027 -60.629  1.00  0.00     0.000 C 
BRANCH   4   5
ATOM      5  C   UNL     1      -2.393  -0.875 -59.794  1.00  0.00     0.004 C 
BRANCH   5   6
ATOM      6  C   UNL     1      -2.748  -2.154 -60.512  1.00  0.00     0.027 C 
BRANCH   6   7
ATOM      7  C   UNL     1      -4.212  -2.379 -60.366  1.00  0.00    -0.035 C 
ATOM      8  C   UNL     1      -4.970  -2.735 -61.392  1.00  0.00     0.004 C 
ENDBRANCH   6   7
ENDBRANCH   5   6
ENDBRANCH   4   5
ENDBRANCH   3   4
ENDBRANCH   2   3
ENDBRANCH   1   2
BRANCH   1   9
ATOM      9  C   UNL     1      -5.017   1.175 -61.797  1.00  0.00     0.000 C 
BRANCH   9  10
ATOM     10  C   UNL     1      -4.382   2.392 -61.208  1.00  0.00     0.000 C 
BRANCH  10  11
ATOM     11  C   UNL     1      -5.302   3.309 -60.486  1.00  0.00     0.000 C 
BRANCH  11  12
ATOM     12  C   UNL     1      -6.437   3.824 -61.340  1.00  0.00     0.008 C 
BRANCH  12  13
ATOM     13  C   UNL     1      -7.552   4.215 -60.387  1.00  0.00     0.075 C 
BRANCH  13  14
ATOM     14  C   UNL     1      -7.466   5.657 -60.027  1.00  0.00     0.103 A 
ATOM     15  C   UNL     1      -6.661   6.623 -60.552  1.00  0.00     0.045 A 
ATOM     16  O   UNL     1      -8.213   6.192 -59.093  1.00  0.00    -0.469 OA
ATOM     17  C   UNL     1      -6.959   7.785 -59.883  1.00  0.00     0.042 A 
ATOM     18  C   UNL     1      -7.938   7.461 -58.980  1.00  0.00     0.195 A 
ENDBRANCH  13  14
ENDBRANCH  12  13
ENDBRANCH  11  12
ENDBRANCH  10  11
ENDBRANCH   9  10
ENDBRANCH   1   9
TORSDOF 12
ENDMDL
MODEL 3
REMARK VINA RESULT:      -5.2     12.736     14.968
REMARK SMILES C=CCCCCCCCCCCCc1ccco1
REMARK SMILES IDX 8 1 7 2 6 3 5 4 4 5 3 6 2 7 1 8 9 9 10 10 11 11 12 12 13 13
REMARK SMILES IDX 14 14 15 15 18 16 16 17 17 18
REMARK H PARENT
ROOT
ATOM      1  C   UNL     1       3.441 -10.402 -59.504  1.00  0.00     0.000 C 
ENDROOT
BRANCH   1   2
ATOM      2  C   UNL     1       2.072  -9.842 -59.368  1.00  0.00     0.000 C 
BRANCH   2   3
ATOM      3  C   UNL     1       1.576  -9.613 -57.995  1.00  0.00     0.000 C 
BRANCH   3   4
ATOM      4  C   UNL     1       1.481 -10.859 -57.150  1.00  0.00     0.000 C 
BRANCH   4   5
ATOM      5  C   UNL     1       2.311 -10.784 -55.908  1.00  0.00     0.004 C 
BRANCH   5   6
ATOM      6  C   UNL     1       3.182  -9.552 -55.876  1.00  0.00     0.027 C 
BRANCH   6   7
ATOM      7  C   UNL     1       3.939  -9.550 -54.595  1.00  0.00    -0.035 C 
ATOM      8  C   UNL     1       3.477  -8.945 -53.511  1.00  0.00     0.004 C 
ENDBRANCH   6   7
ENDBRANCH   5   6
ENDBRANCH   4   5
ENDBRANCH   3   4
ENDBRANCH   2   3
ENDBRANCH   1   2
BRANCH   1   9
ATOM      9  C   UNL     1       3.733 -11.001 -60.843  1.00  0.00     0.000 C 
BRANCH   9  10
ATOM     10  C   UNL     1       3.539  -9.978 -61.913  1.00  0.00     0.000 C 
BRANCH  10  11
ATOM     11  C   UNL     1       4.651  -9.007 -62.081  1.00  0.00     0.000 C 
BRANCH  11  12
ATOM     12  C   UNL     1       5.809  -9.546 -62.889  1.00  0.00     0.008 C 
BRANCH  12  13
ATOM     13  C   UNL     1       6.995  -9.625 -61.944  1.00  0.00     0.075 C 
BRANCH  13  14
ATOM     14  C   UNL     1       7.480  -8.265 -61.580  1.00  0.00     0.103 A 
ATOM     15  C   UNL     1       7.997  -7.297 -62.388  1.00  0.00     0.045 A 
ATOM     16  O   UNL     1       7.461  -7.822 -60.347  1.00  0.00    -0.469 OA
ATOM     17  C   UNL     1       8.294  -6.230 -61.575  1.00  0.00     0.042 A 
ATOM     18  C   UNL     1       7.939  -6.609 -60.307  1.00  0.00     0.195 A 
ENDBRANCH  13  14
ENDBRANCH  12  13
ENDBRANCH  11  12
ENDBRANCH  10  11
ENDBRANCH   9  10
ENDBRANCH   1   9
TORSDOF 12
ENDMDL
MODEL 4
REMARK VINA RESULT:      -5.2      3.496      4.642
REMARK SMILES C=CCCCCCCCCCCCc1ccco1
REMARK SMILES IDX 8 1 7 2 6 3 5 4 4 5 3 6 2 7 1 8 9 9 10 10 11 11 12 12 13 13
REMARK SMILES IDX 14 14 15 15 18 16 16 17 17 18
REMARK H PARENT
ROOT
ATOM      1  C   UNL     1      -1.288   0.586 -61.735  1.00  0.00     0.000 C 
ENDROOT
BRANCH   1   2
ATOM      2  C   UNL     1      -1.977   0.254 -63.008  1.00  0.00     0.000 C 
BRANCH   2   3
ATOM      3  C   UNL     1      -1.772  -1.107 -63.546  1.00  0.00     0.000 C 
BRANCH   3   4
ATOM      4  C   UNL     1      -0.326  -1.530 -63.639  1.00  0.00     0.000 C 
BRANCH   4   5
ATOM      5  C   UNL     1       0.004  -2.186 -64.941  1.00  0.00     0.004 C 
BRANCH   5   6
ATOM      6  C   UNL     1       0.661  -1.235 -65.912  1.00  0.00     0.027 C 
BRANCH   6   7
ATOM      7  C   UNL     1       1.422  -0.223 -65.129  1.00  0.00    -0.035 C 
ATOM      8  C   UNL     1       1.677   0.985 -65.609  1.00  0.00     0.004 C 
ENDBRANCH   6   7
ENDBRANCH   5   6
ENDBRANCH   4   5
ENDBRANCH   3   4
ENDBRANCH   2   3
ENDBRANCH   1   2
BRANCH   1   9
ATOM      9  C   UNL     1      -2.184   0.619 -60.538  1.00  0.00     0.000 C 
BRANCH   9  10
ATOM     10  C   UNL     1      -1.924  -0.571 -59.674  1.00  0.00     0.000 C 
BRANCH  10  11
ATOM     11  C   UNL     1      -3.062  -1.514 -59.523  1.00  0.00     0.000 C 
BRANCH  11  12
ATOM     12  C   UNL     1      -3.052  -2.641 -60.529  1.00  0.00     0.008 C 
BRANCH  12  13
ATOM     13  C   UNL     1      -4.504  -2.946 -60.851  1.00  0.00     0.075 C 
BRANCH  13  14
ATOM     14  C   UNL     1      -4.720  -3.025 -62.322  1.00  0.00     0.103 A 
ATOM     15  C   UNL     1      -4.268  -3.961 -63.204  1.00  0.00     0.045 A 
ATOM     16  O   UNL     1      -5.422  -2.133 -62.976  1.00  0.00    -0.469 OA
ATOM     17  C   UNL     1      -4.735  -3.588 -64.441  1.00  0.00     0.042 A 
ATOM     18  C   UNL     1      -5.453  -2.437 -64.244  1.00  0.00     0.195 A 
ENDBRANCH  13  14
ENDBRANCH  12  13
ENDBRANCH  11  12
ENDBRANCH  10  11
ENDBRANCH   9  10
ENDBRANCH   1   9
TORSDOF 12
ENDMDL
MODEL 5
REMARK VINA RESULT:      -5.2      3.316      7.015
REMARK SMILES C=CCCCCCCCCCCCc1ccco1
REMARK SMILES IDX 8 1 7 2 6 3 5 4 4 5 3 6 2 7 1 8 9 9 10 10 11 11 12 12 13 13
REMARK SMILES IDX 14 14 15 15 18 16 16 17 17 18
REMARK H PARENT
ROOT
ATOM      1  C   UNL     1      -3.546  -1.951 -60.200  1.00  0.00     0.000 C 
ENDROOT
BRANCH   1   2
ATOM      2  C   UNL     1      -2.451  -1.156 -59.588  1.00  0.00     0.000 C 
BRANCH   2   3
ATOM      3  C   UNL     1      -1.665  -0.290 -60.492  1.00  0.00     0.000 C 
BRANCH   3   4
ATOM      4  C   UNL     1      -2.120  -0.316 -61.932  1.00  0.00     0.000 C 
BRANCH   4   5
ATOM      5  C   UNL     1      -2.654   1.001 -62.395  1.00  0.00     0.004 C 
BRANCH   5   6
ATOM      6  C   UNL     1      -4.072   1.237 -61.938  1.00  0.00     0.027 C 
BRANCH   6   7
ATOM      7  C   UNL     1      -4.961   0.296 -62.672  1.00  0.00    -0.035 C 
ATOM      8  C   UNL     1      -4.785   0.025 -63.956  1.00  0.00     0.004 C 
ENDBRANCH   6   7
ENDBRANCH   5   6
ENDBRANCH   4   5
ENDBRANCH   3   4
ENDBRANCH   2   3
ENDBRANCH   1   2
BRANCH   1   9
ATOM      9  C   UNL     1      -3.267  -3.417 -60.294  1.00  0.00     0.000 C 
BRANCH   9  10
ATOM     10  C   UNL     1      -3.302  -3.852 -61.722  1.00  0.00     0.000 C 
BRANCH  10  11
ATOM     11  C   UNL     1      -2.012  -3.758 -62.453  1.00  0.00     0.000 C 
BRANCH  11  12
ATOM     12  C   UNL     1      -2.167  -3.377 -63.907  1.00  0.00     0.008 C 
BRANCH  12  13
ATOM     13  C   UNL     1      -0.835  -3.672 -64.575  1.00  0.00     0.075 C 
BRANCH  13  14
ATOM     14  C   UNL     1      -0.123  -2.414 -64.926  1.00  0.00     0.103 A 
ATOM     15  C   UNL     1       0.219  -1.370 -64.119  1.00  0.00     0.045 A 
ATOM     16  O   UNL     1       0.281  -2.154 -66.145  1.00  0.00    -0.469 OA
ATOM     17  C   UNL     1       0.859  -0.454 -64.917  1.00  0.00     0.042 A 
ATOM     18  C   UNL     1       0.873  -0.992 -66.177  1.00  0.00     0.195 A 
ENDBRANCH  13  14
ENDBRANCH  12  13
ENDBRANCH  11  12
ENDBRANCH  10  11
ENDBRANCH   9  10
ENDBRANCH   1   9
TORSDOF 12
ENDMDL
MODEL 6
REMARK VINA RESULT:      -5.2      3.466      7.155
REMARK SMILES C=CCCCCCCCCCCCc1ccco1
REMARK SMILES IDX 8 1 7 2 6 3 5 4 4 5 3 6 2 7 1 8 9 9 10 10 11 11 12 12 13 13
REMARK SMILES IDX 14 14 15 15 18 16 16 17 17 18
REMARK H PARENT
ROOT
ATOM      1  C   UNL     1      -3.402  -3.780 -60.491  1.00  0.00     0.000 C 
ENDROOT
BRANCH   1   2
ATOM      2  C   UNL     1      -3.216  -2.593 -59.618  1.00  0.00     0.000 C 
BRANCH   2   3
ATOM      3  C   UNL     1      -2.506  -1.436 -60.203  1.00  0.00     0.000 C 
BRANCH   3   4
ATOM      4  C   UNL     1      -3.045  -0.092 -59.777  1.00  0.00     0.000 C 
BRANCH   4   5
ATOM      5  C   UNL     1      -3.502   0.742 -60.931  1.00  0.00     0.004 C 
BRANCH   5   6
ATOM      6  C   UNL     1      -3.310   0.043 -62.254  1.00  0.00     0.027 C 
BRANCH   6   7
ATOM      7  C   UNL     1      -4.652  -0.285 -62.807  1.00  0.00    -0.035 C 
ATOM      8  C   UNL     1      -4.957  -0.068 -64.078  1.00  0.00     0.004 C 
ENDBRANCH   6   7
ENDBRANCH   5   6
ENDBRANCH   4   5
ENDBRANCH   3   4
ENDBRANCH   2   3
ENDBRANCH   1   2
BRANCH   1   9
ATOM      9  C   UNL     1      -4.193  -3.517 -61.732  1.00  0.00     0.000 C 
BRANCH   9  10
ATOM     10  C   UNL     1      -3.578  -4.234 -62.889  1.00  0.00     0.000 C 
BRANCH  10  11
ATOM     11  C   UNL     1      -2.780  -3.391 -63.816  1.00  0.00     0.000 C 
BRANCH  11  12
ATOM     12  C   UNL     1      -1.295  -3.661 -63.753  1.00  0.00     0.008 C 
BRANCH  12  13
ATOM     13  C   UNL     1      -0.647  -2.393 -63.224  1.00  0.00     0.075 C 
BRANCH  13  14
ATOM     14  C   UNL     1      -0.008  -1.621 -64.325  1.00  0.00     0.103 A 
ATOM     15  C   UNL     1       0.517  -0.363 -64.295  1.00  0.00     0.045 A 
ATOM     16  O   UNL     1       0.127  -2.106 -65.535  1.00  0.00    -0.469 OA
ATOM     17  C   UNL     1       0.983  -0.106 -65.561  1.00  0.00     0.042 A 
ATOM     18  C   UNL     1       0.715  -1.229 -66.300  1.00  0.00     0.195 A 
ENDBRANCH  13  14
ENDBRANCH  12  13
ENDBRANCH  11  12
ENDBRANCH  10  11
ENDBRANCH   9  10
ENDBRANCH   1   9
TORSDOF 12
ENDMDL
MODEL 7
REMARK VINA RESULT:      -5.2     11.511     14.142
REMARK SMILES C=CCCCCCCCCCCCc1ccco1
REMARK SMILES IDX 8 1 7 2 6 3 5 4 4 5 3 6 2 7 1 8 9 9 10 10 11 11 12 12 13 13
REMARK SMILES IDX 14 14 15 15 18 16 16 17 17 18
REMARK H PARENT
ROOT
ATOM      1  C   UNL     1       0.472 -10.455 -59.818  1.00  0.00     0.000 C 
ENDROOT
BRANCH   1   2
ATOM      2  C   UNL     1       0.717 -10.680 -58.371  1.00  0.00     0.000 C 
BRANCH   2   3
ATOM      3  C   UNL     1       2.102 -10.491 -57.889  1.00  0.00     0.000 C 
BRANCH   3   4
ATOM      4  C   UNL     1       2.261  -9.394 -56.865  1.00  0.00     0.000 C 
BRANCH   4   5
ATOM      5  C   UNL     1       2.495  -9.918 -55.484  1.00  0.00     0.004 C 
BRANCH   5   6
ATOM      6  C   UNL     1       3.918  -9.711 -55.026  1.00  0.00     0.027 C 
BRANCH   6   7
ATOM      7  C   UNL     1       3.909  -8.730 -53.906  1.00  0.00    -0.035 C 
ATOM      8  C   UNL     1       3.502  -9.062 -52.690  1.00  0.00     0.004 C 
ENDBRANCH   6   7
ENDBRANCH   5   6
ENDBRANCH   4   5
ENDBRANCH   3   4
ENDBRANCH   2   3
ENDBRANCH   1   2
BRANCH   1   9
ATOM      9  C   UNL     1       0.312  -9.019 -60.203  1.00  0.00     0.000 C 
BRANCH   9  10
ATOM     10  C   UNL     1       1.600  -8.489 -60.741  1.00  0.00     0.000 C 
BRANCH  10  11
ATOM     11  C   UNL     1       1.879  -8.805 -62.165  1.00  0.00     0.000 C 
BRANCH  11  12
ATOM     12  C   UNL     1       3.347  -8.998 -62.466  1.00  0.00     0.008 C 
BRANCH  12  13
ATOM     13  C   UNL     1       4.085  -8.828 -61.149  1.00  0.00     0.075 C 
BRANCH  13  14
ATOM     14  C   UNL     1       5.355  -8.078 -61.341  1.00  0.00     0.103 A 
ATOM     15  C   UNL     1       5.865  -7.537 -62.484  1.00  0.00     0.045 A 
ATOM     16  O   UNL     1       6.184  -7.840 -60.355  1.00  0.00    -0.469 OA
ATOM     17  C   UNL     1       7.059  -6.952 -62.139  1.00  0.00     0.042 A 
ATOM     18  C   UNL     1       7.213  -7.168 -60.794  1.00  0.00     0.195 A 
ENDBRANCH  13  14
ENDBRANCH  12  13
ENDBRANCH  11  12
ENDBRANCH  10  11
ENDBRANCH   9  10
ENDBRANCH   1   9
TORSDOF 12
ENDMDL
MODEL 8
REMARK VINA RESULT:      -5.2      2.266      8.656
REMARK SMILES C=CCCCCCCCCCCCc1ccco1
REMARK SMILES IDX 8 1 7 2 6 3 5 4 4 5 3 6 2 7 1 8 9 9 10 10 11 11 12 12 13 13
REMARK SMILES IDX 14 14 15 15 18 16 16 17 17 18
REMARK H PARENT
ROOT
ATOM      1  C   UNL     1      -4.989   2.809 -60.553  1.00  0.00     0.000 C 
ENDROOT
BRANCH   1   2
ATOM      2  C   UNL     1      -5.372   4.235 -60.717  1.00  0.00     0.000 C 
BRANCH   2   3
ATOM      3  C   UNL     1      -6.470   4.529 -61.661  1.00  0.00     0.000 C 
BRANCH   3   4
ATOM      4  C   UNL     1      -7.850   4.462 -61.054  1.00  0.00     0.000 C 
BRANCH   4   5
ATOM      5  C   UNL     1      -7.885   4.945 -59.639  1.00  0.00     0.004 C 
BRANCH   5   6
ATOM      6  C   UNL     1      -8.820   6.116 -59.456  1.00  0.00     0.027 C 
BRANCH   6   7
ATOM      7  C   UNL     1      -8.091   7.357 -59.833  1.00  0.00    -0.035 C 
ATOM      8  C   UNL     1      -6.907   7.656 -59.319  1.00  0.00     0.004 C 
ENDBRANCH   6   7
ENDBRANCH   5   6
ENDBRANCH   4   5
ENDBRANCH   3   4
ENDBRANCH   2   3
ENDBRANCH   1   2
BRANCH   1   9
ATOM      9  C   UNL     1      -4.493   2.154 -61.803  1.00  0.00     0.000 C 
BRANCH   9  10
ATOM     10  C   UNL     1      -3.933   0.807 -61.484  1.00  0.00     0.000 C 
BRANCH  10  11
ATOM     11  C   UNL     1      -3.191   0.709 -60.201  1.00  0.00     0.000 C 
BRANCH  11  12
ATOM     12  C   UNL     1      -1.920  -0.104 -60.298  1.00  0.00     0.008 C 
BRANCH  12  13
ATOM     13  C   UNL     1      -1.062   0.561 -61.360  1.00  0.00     0.075 C 
BRANCH  13  14
ATOM     14  C   UNL     1      -0.768  -0.380 -62.475  1.00  0.00     0.103 A 
ATOM     15  C   UNL     1      -1.093  -1.699 -62.590  1.00  0.00     0.045 A 
ATOM     16  O   UNL     1      -0.114  -0.011 -63.549  1.00  0.00    -0.469 OA
ATOM     17  C   UNL     1      -0.598  -2.118 -63.800  1.00  0.00     0.042 A 
ATOM     18  C   UNL     1       0.005  -1.023 -64.363  1.00  0.00     0.195 A 
ENDBRANCH  13  14
ENDBRANCH  12  13
ENDBRANCH  11  12
ENDBRANCH  10  11
ENDBRANCH   9  10
ENDBRANCH   1   9
TORSDOF 12
ENDMDL
MODEL 9
REMARK VINA RESULT:      -5.1      4.369      7.727
REMARK SMILES C=CCCCCCCCCCCCc1ccco1
REMARK SMILES IDX 8 1 7 2 6 3 5 4 4 5 3 6 2 7 1 8 9 9 10 10 11 11 12 12 13 13
REMARK SMILES IDX 14 14 15 15 18 16 16 17 17 18
REMARK H PARENT
ROOT
ATOM      1  C   UNL     1      -1.118   0.707 -61.349  1.00  0.00     0.000 C 
ENDROOT
BRANCH   1   2
ATOM      2  C   UNL     1      -1.342  -0.206 -60.199  1.00  0.00     0.000 C 
BRANCH   2   3
ATOM      3  C   UNL     1      -2.742  -0.572 -59.897  1.00  0.00     0.000 C 
BRANCH   3   4
ATOM      4  C   UNL     1      -3.040  -2.047 -60.011  1.00  0.00     0.000 C 
BRANCH   4   5
ATOM      5  C   UNL     1      -4.318  -2.326 -60.735  1.00  0.00     0.004 C 
BRANCH   5   6
ATOM      6  C   UNL     1      -4.705  -1.205 -61.668  1.00  0.00     0.027 C 
BRANCH   6   7
ATOM      7  C   UNL     1      -5.524  -1.778 -62.771  1.00  0.00    -0.035 C 
ATOM      8  C   UNL     1      -5.476  -3.065 -63.081  1.00  0.00     0.004 C 
ENDBRANCH   6   7
ENDBRANCH   5   6
ENDBRANCH   4   5
ENDBRANCH   3   4
ENDBRANCH   2   3
ENDBRANCH   1   2
BRANCH   1   9
ATOM      9  C   UNL     1      -1.438   0.111 -62.683  1.00  0.00     0.000 C 
BRANCH   9  10
ATOM     10  C   UNL     1      -0.283  -0.703 -63.168  1.00  0.00     0.000 C 
BRANCH  10  11
ATOM     11  C   UNL     1      -0.497  -2.173 -63.183  1.00  0.00     0.000 C 
BRANCH  11  12
ATOM     12  C   UNL     1      -1.888  -2.578 -63.612  1.00  0.00     0.008 C 
BRANCH  12  13
ATOM     13  C   UNL     1      -1.770  -3.974 -64.199  1.00  0.00     0.075 C 
BRANCH  13  14
ATOM     14  C   UNL     1      -1.702  -5.001 -63.124  1.00  0.00     0.103 A 
ATOM     15  C   UNL     1      -2.499  -5.146 -62.028  1.00  0.00     0.045 A 
ATOM     16  O   UNL     1      -0.797  -5.948 -63.117  1.00  0.00    -0.469 OA
ATOM     17  C   UNL     1      -2.028  -6.242 -61.346  1.00  0.00     0.042 A 
ATOM     18  C   UNL     1      -0.961  -6.708 -62.070  1.00  0.00     0.195 A 
ENDBRANCH  13  14
ENDBRANCH  12  13
ENDBRANCH  11  12
ENDBRANCH  10  11
ENDBRANCH   9  10
ENDBRANCH   1   9
TORSDOF 12
ENDMDL
