MODEL 1
REMARK VINA RESULT:      -6.7      0.000      0.000
REMARK SMILES O=C1Nc2ccc(I)cc2/C1=C/c1cc(Br)c(O)c(Br)c1
REMARK SMILES IDX 13 1 14 2 15 3 16 4 17 5 19 6 20 7 21 8 12 9 1 10 2 11 3 12
REMARK SMILES IDX 11 13 4 14 10 15 5 16 9 17 6 18 7 19 8 21 18 22
REMARK H PARENT 3 20 18 23
ROOT
ATOM      1  C   UNL     1       4.213   9.379   7.474  1.00  0.00    -0.022 A 
ATOM      2  C   UNL     1       3.189   8.835   6.763  1.00  0.00     0.027 A 
ATOM      3  C   UNL     1       2.301   7.993   7.409  1.00  0.00     0.061 A 
ATOM      4  Br  UNL     1       0.861   7.229   6.406  1.00  0.00    -0.047 Br
ATOM      5  C   UNL     1       2.430   7.693   8.755  1.00  0.00     0.143 A 
ATOM      6  C   UNL     1       3.473   8.258   9.436  1.00  0.00     0.061 A 
ATOM      7  Br  UNL     1       3.718   7.889  11.298  1.00  0.00    -0.047 Br
ATOM      8  C   UNL     1       4.362   9.094   8.816  1.00  0.00     0.027 A 
ENDROOT
BRANCH   1   9
ATOM      9  C   UNL     1       5.177  10.302   6.900  1.00  0.00     0.022 C 
ATOM     10  O   UNL     1       6.209   7.490   6.453  1.00  0.00    -0.269 OA
ATOM     11  C   UNL     1       6.779   8.556   6.119  1.00  0.00     0.256 C 
ATOM     12  N   UNL     1       8.052   8.663   5.458  1.00  0.00    -0.321 N 
ATOM     13  C   UNL     1       6.293   9.912   6.315  1.00  0.00     0.050 C 
ATOM     14  C   UNL     1       8.360  10.051   5.243  1.00  0.00     0.049 A 
ATOM     15  C   UNL     1       7.310  10.806   5.753  1.00  0.00     0.012 A 
ATOM     16  C   UNL     1       9.463  10.638   4.648  1.00  0.00     0.028 A 
ATOM     17  C   UNL     1       7.430  12.185   5.634  1.00  0.00     0.025 A 
ATOM     18  C   UNL     1       9.524  12.018   4.559  1.00  0.00     0.017 A 
ATOM     19  C   UNL     1       8.508  12.809   5.051  1.00  0.00     0.014 A 
ATOM     20  H   UNL     1       8.618   7.847   5.199  1.00  0.00     0.170 HD
ATOM     21  I   UNL     1       8.616  14.919   4.904  1.00  0.00    -0.044 I 
ENDBRANCH   1   9
BRANCH   5  22
ATOM     22  O   UNL     1       1.531   6.846   9.394  1.00  0.00    -0.506 OA
ATOM     23  H   UNL     1       1.772   6.437  10.289  1.00  0.00     0.293 HD
ENDBRANCH   5  22
TORSDOF 2
ENDMDL
MODEL 2
REMARK VINA RESULT:      -6.4      0.878      2.141
REMARK SMILES O=C1Nc2ccc(I)cc2/C1=C/c1cc(Br)c(O)c(Br)c1
REMARK SMILES IDX 13 1 14 2 15 3 16 4 17 5 19 6 20 7 21 8 12 9 1 10 2 11 3 12
REMARK SMILES IDX 11 13 4 14 10 15 5 16 9 17 6 18 7 19 8 21 18 22
REMARK H PARENT 3 20 18 23
ROOT
ATOM      1  C   UNL     1       3.679   9.650   7.771  1.00  0.00    -0.022 A 
ATOM      2  C   UNL     1       3.807   8.904   8.901  1.00  0.00     0.027 A 
ATOM      3  C   UNL     1       2.762   8.081   9.279  1.00  0.00     0.061 A 
ATOM      4  Br  UNL     1       2.946   7.031  10.870  1.00  0.00    -0.047 Br
ATOM      5  C   UNL     1       1.595   7.999   8.538  1.00  0.00     0.143 A 
ATOM      6  C   UNL     1       1.503   8.764   7.408  1.00  0.00     0.061 A 
ATOM      7  Br  UNL     1      -0.080   8.706   6.334  1.00  0.00    -0.047 Br
ATOM      8  C   UNL     1       2.526   9.585   7.016  1.00  0.00     0.027 A 
ENDROOT
BRANCH   1   9
ATOM      9  C   UNL     1       4.731  10.518   7.268  1.00  0.00     0.022 C 
ATOM     10  O   UNL     1       5.281   7.716   6.260  1.00  0.00    -0.269 OA
ATOM     11  C   UNL     1       5.984   8.734   6.055  1.00  0.00     0.256 C 
ATOM     12  N   UNL     1       7.207   8.780   5.300  1.00  0.00    -0.321 N 
ATOM     13  C   UNL     1       5.728  10.087   6.521  1.00  0.00     0.050 C 
ATOM     14  C   UNL     1       7.709  10.127   5.290  1.00  0.00     0.049 A 
ATOM     15  C   UNL     1       6.829  10.917   6.019  1.00  0.00     0.012 A 
ATOM     16  C   UNL     1       8.844  10.651   4.697  1.00  0.00     0.028 A 
ATOM     17  C   UNL     1       7.151  12.265   6.120  1.00  0.00     0.025 A 
ATOM     18  C   UNL     1       9.111  12.003   4.834  1.00  0.00     0.017 A 
ATOM     19  C   UNL     1       8.267  12.827   5.548  1.00  0.00     0.014 A 
ATOM     20  H   UNL     1       7.621   7.952   4.854  1.00  0.00     0.170 HD
ATOM     21  I   UNL     1       8.689  14.892   5.745  1.00  0.00    -0.044 I 
ENDBRANCH   1   9
BRANCH   5  22
ATOM     22  O   UNL     1       0.552   7.166   8.927  1.00  0.00    -0.506 OA
ATOM     23  H   UNL     1       0.743   6.207   9.191  1.00  0.00     0.293 HD
ENDBRANCH   5  22
TORSDOF 2
ENDMDL
MODEL 3
REMARK VINA RESULT:      -6.3      1.968      3.077
REMARK SMILES O=C1Nc2ccc(I)cc2/C1=C/c1cc(Br)c(O)c(Br)c1
REMARK SMILES IDX 13 1 14 2 15 3 16 4 17 5 19 6 20 7 21 8 12 9 1 10 2 11 3 12
REMARK SMILES IDX 11 13 4 14 10 15 5 16 9 17 6 18 7 19 8 21 18 22
REMARK H PARENT 3 20 18 23
ROOT
ATOM      1  C   UNL     1       4.551   8.476   7.242  1.00  0.00    -0.022 A 
ATOM      2  C   UNL     1       4.597   8.228   8.578  1.00  0.00     0.027 A 
ATOM      3  C   UNL     1       3.439   7.831   9.224  1.00  0.00     0.061 A 
ATOM      4  Br  UNL     1       3.507   7.481  11.104  1.00  0.00    -0.047 Br
ATOM      5  C   UNL     1       2.242   7.682   8.544  1.00  0.00     0.143 A 
ATOM      6  C   UNL     1       2.234   7.942   7.201  1.00  0.00     0.061 A 
ATOM      7  Br  UNL     1       0.617   7.760   6.196  1.00  0.00    -0.047 Br
ATOM      8  C   UNL     1       3.369   8.335   6.543  1.00  0.00     0.027 A 
ENDROOT
BRANCH   1   9
ATOM      9  C   UNL     1       5.716   8.862   6.465  1.00  0.00     0.022 C 
ATOM     10  O   UNL     1       4.716  11.324   7.917  1.00  0.00    -0.269 OA
ATOM     11  C   UNL     1       5.689  11.267   7.128  1.00  0.00     0.256 C 
ATOM     12  N   UNL     1       6.532  12.367   6.743  1.00  0.00    -0.321 N 
ATOM     13  C   UNL     1       6.189  10.093   6.433  1.00  0.00     0.050 C 
ATOM     14  C   UNL     1       7.537  11.898   5.829  1.00  0.00     0.049 A 
ATOM     15  C   UNL     1       7.339  10.536   5.638  1.00  0.00     0.012 A 
ATOM     16  C   UNL     1       8.559  12.586   5.198  1.00  0.00     0.028 A 
ATOM     17  C   UNL     1       8.226   9.901   4.777  1.00  0.00     0.025 A 
ATOM     18  C   UNL     1       9.410  11.897   4.352  1.00  0.00     0.017 A 
ATOM     19  C   UNL     1       9.254  10.545   4.130  1.00  0.00     0.014 A 
ATOM     20  H   UNL     1       6.397  13.324   7.093  1.00  0.00     0.170 HD
ATOM     21  I   UNL     1      10.566   9.506   2.833  1.00  0.00    -0.044 I 
ENDBRANCH   1   9
BRANCH   5  22
ATOM     22  O   UNL     1       1.085   7.281   9.204  1.00  0.00    -0.506 OA
ATOM     23  H   UNL     1       0.179   7.446   8.779  1.00  0.00     0.293 HD
ENDBRANCH   5  22
TORSDOF 2
ENDMDL
MODEL 4
REMARK VINA RESULT:      -6.2      1.954      2.301
REMARK SMILES O=C1Nc2ccc(I)cc2/C1=C/c1cc(Br)c(O)c(Br)c1
REMARK SMILES IDX 13 1 14 2 15 3 16 4 17 5 19 6 20 7 21 8 12 9 1 10 2 11 3 12
REMARK SMILES IDX 11 13 4 14 10 15 5 16 9 17 6 18 7 19 8 21 18 22
REMARK H PARENT 3 20 18 23
ROOT
ATOM      1  C   UNL     1       4.455   8.451   7.111  1.00  0.00    -0.022 A 
ATOM      2  C   UNL     1       3.225   8.335   6.544  1.00  0.00     0.027 A 
ATOM      3  C   UNL     1       2.153   7.975   7.342  1.00  0.00     0.061 A 
ATOM      4  Br  UNL     1       0.422   7.814   6.540  1.00  0.00    -0.047 Br
ATOM      5  C   UNL     1       2.304   7.731   8.697  1.00  0.00     0.143 A 
ATOM      6  C   UNL     1       3.556   7.857   9.231  1.00  0.00     0.061 A 
ATOM      7  Br  UNL     1       3.843   7.534  11.095  1.00  0.00    -0.047 Br
ATOM      8  C   UNL     1       4.630   8.213   8.460  1.00  0.00     0.027 A 
ENDROOT
BRANCH   1   9
ATOM      9  C   UNL     1       5.637   8.858   6.371  1.00  0.00     0.022 C 
ATOM     10  O   UNL     1       4.625  11.269   7.899  1.00  0.00    -0.269 OA
ATOM     11  C   UNL     1       5.612  11.236   7.127  1.00  0.00     0.256 C 
ATOM     12  N   UNL     1       6.469  12.344   6.800  1.00  0.00    -0.321 N 
ATOM     13  C   UNL     1       6.118  10.086   6.396  1.00  0.00     0.050 C 
ATOM     14  C   UNL     1       7.488  11.904   5.887  1.00  0.00     0.049 A 
ATOM     15  C   UNL     1       7.285  10.552   5.639  1.00  0.00     0.012 A 
ATOM     16  C   UNL     1       8.526  12.608   5.302  1.00  0.00     0.028 A 
ATOM     17  C   UNL     1       8.184   9.944   4.771  1.00  0.00     0.025 A 
ATOM     18  C   UNL     1       9.388  11.947   4.445  1.00  0.00     0.017 A 
ATOM     19  C   UNL     1       9.228  10.605   4.168  1.00  0.00     0.014 A 
ATOM     20  H   UNL     1       6.334  13.288   7.184  1.00  0.00     0.170 HD
ATOM     21  I   UNL     1      10.557   9.608   2.857  1.00  0.00    -0.044 I 
ENDBRANCH   1   9
BRANCH   5  22
ATOM     22  O   UNL     1       1.219   7.371   9.489  1.00  0.00    -0.506 OA
ATOM     23  H   UNL     1       1.368   6.831  10.333  1.00  0.00     0.293 HD
ENDBRANCH   5  22
TORSDOF 2
ENDMDL
MODEL 5
REMARK VINA RESULT:      -6.1      2.332      2.955
REMARK SMILES O=C1Nc2ccc(I)cc2/C1=C/c1cc(Br)c(O)c(Br)c1
REMARK SMILES IDX 13 1 14 2 15 3 16 4 17 5 19 6 20 7 21 8 12 9 1 10 2 11 3 12
REMARK SMILES IDX 11 13 4 14 10 15 5 16 9 17 6 18 7 19 8 21 18 22
REMARK H PARENT 3 20 18 23
ROOT
ATOM      1  C   UNL     1       4.472   9.461   7.380  1.00  0.00    -0.022 A 
ATOM      2  C   UNL     1       3.442   8.863   6.723  1.00  0.00     0.027 A 
ATOM      3  C   UNL     1       2.597   8.024   7.430  1.00  0.00     0.061 A 
ATOM      4  Br  UNL     1       1.148   7.185   6.503  1.00  0.00    -0.047 Br
ATOM      5  C   UNL     1       2.776   7.782   8.781  1.00  0.00     0.143 A 
ATOM      6  C   UNL     1       3.823   8.400   9.407  1.00  0.00     0.061 A 
ATOM      7  Br  UNL     1       4.134   8.112  11.273  1.00  0.00    -0.047 Br
ATOM      8  C   UNL     1       4.670   9.234   8.727  1.00  0.00     0.027 A 
ENDROOT
BRANCH   1   9
ATOM      9  C   UNL     1       5.392  10.386   6.741  1.00  0.00     0.022 C 
ATOM     10  O   UNL     1       2.987  11.971   7.675  1.00  0.00    -0.269 OA
ATOM     11  C   UNL     1       3.981  12.420   7.057  1.00  0.00     0.256 C 
ATOM     12  N   UNL     1       4.182  13.786   6.656  1.00  0.00    -0.321 N 
ATOM     13  C   UNL     1       5.148  11.676   6.612  1.00  0.00     0.050 C 
ATOM     14  C   UNL     1       5.444  13.901   5.975  1.00  0.00     0.049 A 
ATOM     15  C   UNL     1       6.029  12.641   5.945  1.00  0.00     0.012 A 
ATOM     16  C   UNL     1       6.058  15.007   5.417  1.00  0.00     0.028 A 
ATOM     17  C   UNL     1       7.268  12.553   5.322  1.00  0.00     0.025 A 
ATOM     18  C   UNL     1       7.293  14.856   4.810  1.00  0.00     0.017 A 
ATOM     19  C   UNL     1       7.914  13.626   4.755  1.00  0.00     0.014 A 
ATOM     20  H   UNL     1       3.502  14.531   6.847  1.00  0.00     0.170 HD
ATOM     21  I   UNL     1       9.804  13.412   3.825  1.00  0.00    -0.044 I 
ENDBRANCH   1   9
BRANCH   5  22
ATOM     22  O   UNL     1       1.920   6.938   9.480  1.00  0.00    -0.506 OA
ATOM     23  H   UNL     1       1.909   6.957  10.493  1.00  0.00     0.293 HD
ENDBRANCH   5  22
TORSDOF 2
ENDMDL
MODEL 6
REMARK VINA RESULT:      -6.0      2.362      3.624
REMARK SMILES O=C1Nc2ccc(I)cc2/C1=C/c1cc(Br)c(O)c(Br)c1
REMARK SMILES IDX 13 1 14 2 15 3 16 4 17 5 19 6 20 7 21 8 12 9 1 10 2 11 3 12
REMARK SMILES IDX 11 13 4 14 10 15 5 16 9 17 6 18 7 19 8 21 18 22
REMARK H PARENT 3 20 18 23
ROOT
ATOM      1  C   UNL     1       4.417   9.574   7.657  1.00  0.00    -0.022 A 
ATOM      2  C   UNL     1       4.519   9.305   8.986  1.00  0.00     0.027 A 
ATOM      3  C   UNL     1       3.621   8.421   9.559  1.00  0.00     0.061 A 
ATOM      4  Br  UNL     1       3.768   8.044  11.430  1.00  0.00    -0.047 Br
ATOM      5  C   UNL     1       2.628   7.808   8.815  1.00  0.00     0.143 A 
ATOM      6  C   UNL     1       2.556   8.104   7.481  1.00  0.00     0.061 A 
ATOM      7  Br  UNL     1       1.208   7.297   6.388  1.00  0.00    -0.047 Br
ATOM      8  C   UNL     1       3.434   8.975   6.894  1.00  0.00     0.027 A 
ENDROOT
BRANCH   1   9
ATOM      9  C   UNL     1       5.330  10.458   6.952  1.00  0.00     0.022 C 
ATOM     10  O   UNL     1       2.893  12.076   7.731  1.00  0.00    -0.269 OA
ATOM     11  C   UNL     1       3.887  12.488   7.087  1.00  0.00     0.256 C 
ATOM     12  N   UNL     1       4.072  13.820   6.577  1.00  0.00    -0.321 N 
ATOM     13  C   UNL     1       5.069  11.728   6.716  1.00  0.00     0.050 C 
ATOM     14  C   UNL     1       5.339  13.897   5.901  1.00  0.00     0.049 A 
ATOM     15  C   UNL     1       5.943  12.648   5.980  1.00  0.00     0.012 A 
ATOM     16  C   UNL     1       5.943  14.964   5.259  1.00  0.00     0.028 A 
ATOM     17  C   UNL     1       7.189  12.529   5.378  1.00  0.00     0.025 A 
ATOM     18  C   UNL     1       7.186  14.782   4.678  1.00  0.00     0.017 A 
ATOM     19  C   UNL     1       7.825  13.561   4.730  1.00  0.00     0.014 A 
ATOM     20  H   UNL     1       3.379  14.568   6.700  1.00  0.00     0.170 HD
ATOM     21  I   UNL     1       9.727  13.301   3.838  1.00  0.00    -0.044 I 
ENDBRANCH   1   9
BRANCH   5  22
ATOM     22  O   UNL     1       1.732   6.920   9.401  1.00  0.00    -0.506 OA
ATOM     23  H   UNL     1       1.910   5.924   9.360  1.00  0.00     0.293 HD
ENDBRANCH   5  22
TORSDOF 2
ENDMDL
MODEL 7
REMARK VINA RESULT:      -6.0      6.738      8.552
REMARK SMILES O=C1Nc2ccc(I)cc2/C1=C/c1cc(Br)c(O)c(Br)c1
REMARK SMILES IDX 13 1 14 2 15 3 16 4 17 5 19 6 20 7 21 8 12 9 1 10 2 11 3 12
REMARK SMILES IDX 11 13 4 14 10 15 5 16 9 17 6 18 7 19 8 21 18 22
REMARK H PARENT 3 20 18 23
ROOT
ATOM      1  C   UNL     1       6.402  15.138   5.233  1.00  0.00    -0.022 A 
ATOM      2  C   UNL     1       5.869  14.018   5.791  1.00  0.00     0.027 A 
ATOM      3  C   UNL     1       6.661  12.889   5.909  1.00  0.00     0.061 A 
ATOM      4  Br  UNL     1       5.909  11.315   6.697  1.00  0.00    -0.047 Br
ATOM      5  C   UNL     1       7.976  12.874   5.475  1.00  0.00     0.143 A 
ATOM      6  C   UNL     1       8.477  14.019   4.919  1.00  0.00     0.061 A 
ATOM      7  Br  UNL     1      10.284  14.074   4.294  1.00  0.00    -0.047 Br
ATOM      8  C   UNL     1       7.710  15.147   4.793  1.00  0.00     0.027 A 
ENDROOT
BRANCH   1   9
ATOM      9  C   UNL     1       5.667  16.384   5.096  1.00  0.00     0.022 C 
ATOM     10  O   UNL     1       5.243  14.776   2.565  1.00  0.00    -0.269 OA
ATOM     11  C   UNL     1       4.788  15.919   2.808  1.00  0.00     0.256 C 
ATOM     12  N   UNL     1       3.971  16.709   1.926  1.00  0.00    -0.321 N 
ATOM     13  C   UNL     1       4.972  16.699   4.020  1.00  0.00     0.050 C 
ATOM     14  C   UNL     1       3.649  17.955   2.567  1.00  0.00     0.049 A 
ATOM     15  C   UNL     1       4.244  17.957   3.822  1.00  0.00     0.012 A 
ATOM     16  C   UNL     1       2.895  19.022   2.112  1.00  0.00     0.028 A 
ATOM     17  C   UNL     1       4.040  19.091   4.599  1.00  0.00     0.025 A 
ATOM     18  C   UNL     1       2.727  20.125   2.932  1.00  0.00     0.017 A 
ATOM     19  C   UNL     1       3.299  20.173   4.186  1.00  0.00     0.014 A 
ATOM     20  H   UNL     1       3.688  16.391   0.991  1.00  0.00     0.170 HD
ATOM     21  I   UNL     1       3.031  21.867   5.429  1.00  0.00    -0.044 I 
ENDBRANCH   1   9
BRANCH   5  22
ATOM     22  O   UNL     1       8.763  11.735   5.601  1.00  0.00    -0.506 OA
ATOM     23  H   UNL     1       8.360  10.882   5.971  1.00  0.00     0.293 HD
ENDBRANCH   5  22
TORSDOF 2
ENDMDL
MODEL 8
REMARK VINA RESULT:      -5.9      1.600      1.602
REMARK SMILES O=C1Nc2ccc(I)cc2/C1=C/c1cc(Br)c(O)c(Br)c1
REMARK SMILES IDX 13 1 14 2 15 3 16 4 17 5 19 6 20 7 21 8 12 9 1 10 2 11 3 12
REMARK SMILES IDX 11 13 4 14 10 15 5 16 9 17 6 18 7 19 8 21 18 22
REMARK H PARENT 3 20 18 23
ROOT
ATOM      1  C   UNL     1       4.005  10.862   7.782  1.00  0.00    -0.022 A 
ATOM      2  C   UNL     1       2.788  10.720   7.192  1.00  0.00     0.027 A 
ATOM      3  C   UNL     1       1.725  10.265   7.953  1.00  0.00     0.061 A 
ATOM      4  Br  UNL     1       0.014  10.067   7.119  1.00  0.00    -0.047 Br
ATOM      5  C   UNL     1       1.872   9.952   9.294  1.00  0.00     0.143 A 
ATOM      6  C   UNL     1       3.111  10.107   9.853  1.00  0.00     0.061 A 
ATOM      7  Br  UNL     1       3.391   9.693  11.700  1.00  0.00    -0.047 Br
ATOM      8  C   UNL     1       4.175  10.556   9.118  1.00  0.00     0.027 A 
ENDROOT
BRANCH   1   9
ATOM      9  C   UNL     1       5.174  11.366   7.083  1.00  0.00     0.022 C 
ATOM     10  O   UNL     1       5.091   8.363   6.703  1.00  0.00    -0.269 OA
ATOM     11  C   UNL     1       5.968   9.145   6.268  1.00  0.00     0.256 C 
ATOM     12  N   UNL     1       7.127   8.776   5.499  1.00  0.00    -0.321 N 
ATOM     13  C   UNL     1       6.017  10.589   6.430  1.00  0.00     0.050 C 
ATOM     14  C   UNL     1       7.885   9.956   5.185  1.00  0.00     0.049 A 
ATOM     15  C   UNL     1       7.227  11.047   5.739  1.00  0.00     0.012 A 
ATOM     16  C   UNL     1       9.063  10.096   4.472  1.00  0.00     0.028 A 
ATOM     17  C   UNL     1       7.817  12.289   5.537  1.00  0.00     0.025 A 
ATOM     18  C   UNL     1       9.601  11.360   4.304  1.00  0.00     0.017 A 
ATOM     19  C   UNL     1       8.985  12.473   4.835  1.00  0.00     0.014 A 
ATOM     20  H   UNL     1       7.338   7.805   5.239  1.00  0.00     0.170 HD
ATOM     21  I   UNL     1       9.821  14.399   4.568  1.00  0.00    -0.044 I 
ENDBRANCH   1   9
BRANCH   5  22
ATOM     22  O   UNL     1       0.797   9.497  10.049  1.00  0.00    -0.506 OA
ATOM     23  H   UNL     1       0.746   9.715  11.037  1.00  0.00     0.293 HD
ENDBRANCH   5  22
TORSDOF 2
ENDMDL
MODEL 9
REMARK VINA RESULT:      -5.8      4.370      6.933
REMARK SMILES O=C1Nc2ccc(I)cc2/C1=C/c1cc(Br)c(O)c(Br)c1
REMARK SMILES IDX 13 1 14 2 15 3 16 4 17 5 19 6 20 7 21 8 12 9 1 10 2 11 3 12
REMARK SMILES IDX 11 13 4 14 10 15 5 16 9 17 6 18 7 19 8 21 18 22
REMARK H PARENT 3 20 18 23
ROOT
ATOM      1  C   UNL     1       9.567  10.210   5.090  1.00  0.00    -0.022 A 
ATOM      2  C   UNL     1      10.122   9.170   5.768  1.00  0.00     0.027 A 
ATOM      3  C   UNL     1      10.955   8.298   5.088  1.00  0.00     0.061 A 
ATOM      4  Br  UNL     1      11.735   6.836   6.045  1.00  0.00    -0.047 Br
ATOM      5  C   UNL     1      11.233   8.459   3.741  1.00  0.00     0.143 A 
ATOM      6  C   UNL     1      10.656   9.516   3.092  1.00  0.00     0.061 A 
ATOM      7  Br  UNL     1      10.992   9.802   1.231  1.00  0.00    -0.047 Br
ATOM      8  C   UNL     1       9.830  10.391   3.746  1.00  0.00     0.027 A 
ENDROOT
BRANCH   1   9
ATOM      9  C   UNL     1       8.710  11.201   5.717  1.00  0.00     0.022 C 
ATOM     10  O   UNL     1       7.059   8.704   5.264  1.00  0.00    -0.269 OA
ATOM     11  C   UNL     1       6.658   9.783   5.762  1.00  0.00     0.256 C 
ATOM     12  N   UNL     1       5.322  10.061   6.216  1.00  0.00    -0.321 N 
ATOM     13  C   UNL     1       7.440  10.986   5.997  1.00  0.00     0.050 C 
ATOM     14  C   UNL     1       5.263  11.405   6.725  1.00  0.00     0.049 A 
ATOM     15  C   UNL     1       6.528  11.965   6.597  1.00  0.00     0.012 A 
ATOM     16  C   UNL     1       4.201  12.108   7.264  1.00  0.00     0.028 A 
ATOM     17  C   UNL     1       6.668  13.275   7.042  1.00  0.00     0.025 A 
ATOM     18  C   UNL     1       4.403  13.409   7.690  1.00  0.00     0.017 A 
ATOM     19  C   UNL     1       5.640  14.009   7.584  1.00  0.00     0.014 A 
ATOM     20  H   UNL     1       4.560   9.374   6.165  1.00  0.00     0.170 HD
ATOM     21  I   UNL     1       5.932  16.000   8.242  1.00  0.00    -0.044 I 
ENDBRANCH   1   9
BRANCH   5  22
ATOM     22  O   UNL     1      12.072   7.577   3.069  1.00  0.00    -0.506 OA
ATOM     23  H   UNL     1      12.969   7.329   3.470  1.00  0.00     0.293 HD
ENDBRANCH   5  22
TORSDOF 2
ENDMDL
