MODEL 1
REMARK VINA RESULT:      -8.5      0.000      0.000
REMARK SMILES O=c1c([O-])c(-c2ccccc2)oc2cc([O-])cc([O-])c12
REMARK SMILES IDX 1 1 2 2 3 3 4 4 5 5 12 6 13 7 14 8 15 9 16 10 17 11 18 12
REMARK SMILES IDX 19 13 20 14 6 15 7 16 11 17 8 18 10 19 9 20
REMARK H PARENT
ROOT
ATOM      1  O   UNL     1      21.142   0.013 -21.495  1.00  0.00    -0.290 OA
ATOM      2  C   UNL     1      21.602   0.584 -22.506  1.00  0.00     0.184 A 
ATOM      3  C   UNL     1      21.635  -0.174 -23.696  1.00  0.00    -0.014 A 
ATOM      4  O   UNL     1      21.175  -1.462 -23.690  1.00  0.00    -0.867 OA
ATOM      5  C   UNL     1      22.132   0.422 -24.818  1.00  0.00     0.130 A 
ATOM      6  O   UNL     1      22.567   1.696 -24.739  1.00  0.00    -0.457 OA
ATOM      7  C   UNL     1      22.541   2.390 -23.664  1.00  0.00     0.137 A 
ATOM      8  C   UNL     1      22.996   3.680 -23.649  1.00  0.00     0.039 A 
ATOM      9  C   UNL     1      22.983   4.456 -22.510  1.00  0.00    -0.106 A 
ATOM     10  O   UNL     1      23.456   5.768 -22.528  1.00  0.00    -0.872 OA
ATOM     11  C   UNL     1      22.485   3.903 -21.328  1.00  0.00    -0.016 A 
ATOM     12  C   UNL     1      22.021   2.613 -21.308  1.00  0.00    -0.094 A 
ATOM     13  O   UNL     1      21.532   2.075 -20.137  1.00  0.00    -0.872 OA
ATOM     14  C   UNL     1      22.056   1.883 -22.469  1.00  0.00     0.056 A 
ENDROOT
BRANCH   5  15
ATOM     15  C   UNL     1      22.218  -0.254 -26.100  1.00  0.00     0.017 A 
ATOM     16  C   UNL     1      21.810   0.205 -27.312  1.00  0.00     0.012 A 
ATOM     17  C   UNL     1      22.787  -1.538 -26.121  1.00  0.00     0.012 A 
ATOM     18  C   UNL     1      21.939  -0.523 -28.486  1.00  0.00     0.001 A 
ATOM     19  C   UNL     1      22.922  -2.273 -27.277  1.00  0.00     0.001 A 
ATOM     20  C   UNL     1      22.496  -1.772 -28.484  1.00  0.00     0.000 A 
ENDBRANCH   5  15
TORSDOF 1
ENDMDL
MODEL 2
REMARK VINA RESULT:      -8.5      0.149      1.050
REMARK SMILES O=c1c([O-])c(-c2ccccc2)oc2cc([O-])cc([O-])c12
REMARK SMILES IDX 1 1 2 2 3 3 4 4 5 5 12 6 13 7 14 8 15 9 16 10 17 11 18 12
REMARK SMILES IDX 19 13 20 14 6 15 7 16 11 17 8 18 10 19 9 20
REMARK H PARENT
ROOT
ATOM      1  O   UNL     1      21.093   0.112 -21.474  1.00  0.00    -0.290 OA
ATOM      2  C   UNL     1      21.587   0.634 -22.495  1.00  0.00     0.184 A 
ATOM      3  C   UNL     1      21.626  -0.166 -23.656  1.00  0.00    -0.014 A 
ATOM      4  O   UNL     1      21.135  -1.442 -23.614  1.00  0.00    -0.867 OA
ATOM      5  C   UNL     1      22.159   0.376 -24.788  1.00  0.00     0.130 A 
ATOM      6  O   UNL     1      22.623   1.642 -24.746  1.00  0.00    -0.457 OA
ATOM      7  C   UNL     1      22.592   2.375 -23.697  1.00  0.00     0.137 A 
ATOM      8  C   UNL     1      23.078   3.654 -23.719  1.00  0.00     0.039 A 
ATOM      9  C   UNL     1      23.061   4.470 -22.608  1.00  0.00    -0.106 A 
ATOM     10  O   UNL     1      23.565   5.770 -22.664  1.00  0.00    -0.872 OA
ATOM     11  C   UNL     1      22.527   3.972 -21.418  1.00  0.00    -0.016 A 
ATOM     12  C   UNL     1      22.031   2.695 -21.361  1.00  0.00    -0.094 A 
ATOM     13  O   UNL     1      21.506   2.212 -20.182  1.00  0.00    -0.872 OA
ATOM     14  C   UNL     1      22.071   1.923 -22.495  1.00  0.00     0.056 A 
ENDROOT
BRANCH   5  15
ATOM     15  C   UNL     1      22.254  -0.348 -26.042  1.00  0.00     0.017 A 
ATOM     16  C   UNL     1      22.814  -1.566 -26.260  1.00  0.00     0.012 A 
ATOM     17  C   UNL     1      21.709   0.259 -27.187  1.00  0.00     0.012 A 
ATOM     18  C   UNL     1      22.853  -2.176 -27.505  1.00  0.00     0.001 A 
ATOM     19  C   UNL     1      21.740  -0.332 -28.429  1.00  0.00     0.001 A 
ATOM     20  C   UNL     1      22.317  -1.568 -28.607  1.00  0.00     0.000 A 
ENDBRANCH   5  15
TORSDOF 1
ENDMDL
MODEL 3
REMARK VINA RESULT:      -8.4      2.763      6.835
REMARK SMILES O=c1c([O-])c(-c2ccccc2)oc2cc([O-])cc([O-])c12
REMARK SMILES IDX 1 1 2 2 3 3 4 4 5 5 12 6 13 7 14 8 15 9 16 10 17 11 18 12
REMARK SMILES IDX 19 13 20 14 6 15 7 16 11 17 8 18 10 19 9 20
REMARK H PARENT
ROOT
ATOM      1  O   UNL     1      22.624   1.968 -24.625  1.00  0.00    -0.290 OA
ATOM      2  C   UNL     1      22.436   2.203 -23.414  1.00  0.00     0.184 A 
ATOM      3  C   UNL     1      22.801   3.487 -22.957  1.00  0.00    -0.014 A 
ATOM      4  O   UNL     1      23.331   4.391 -23.835  1.00  0.00    -0.867 OA
ATOM      5  C   UNL     1      22.607   3.775 -21.638  1.00  0.00     0.130 A 
ATOM      6  O   UNL     1      22.080   2.826 -20.837  1.00  0.00    -0.457 OA
ATOM      7  C   UNL     1      21.745   1.659 -21.243  1.00  0.00     0.137 A 
ATOM      8  C   UNL     1      21.213   0.741 -20.379  1.00  0.00     0.039 A 
ATOM      9  C   UNL     1      20.842  -0.524 -20.782  1.00  0.00    -0.106 A 
ATOM     10  O   UNL     1      20.303  -1.438 -19.877  1.00  0.00    -0.872 OA
ATOM     11  C   UNL     1      21.016  -0.879 -22.122  1.00  0.00    -0.016 A 
ATOM     12  C   UNL     1      21.546   0.018 -23.013  1.00  0.00    -0.094 A 
ATOM     13  O   UNL     1      21.715  -0.342 -24.333  1.00  0.00    -0.872 OA
ATOM     14  C   UNL     1      21.899   1.265 -22.562  1.00  0.00     0.056 A 
ENDROOT
BRANCH   5  15
ATOM     15  C   UNL     1      22.944   5.059 -21.051  1.00  0.00     0.017 A 
ATOM     16  C   UNL     1      22.268   6.232 -21.169  1.00  0.00     0.012 A 
ATOM     17  C   UNL     1      24.102   5.128 -20.258  1.00  0.00     0.012 A 
ATOM     18  C   UNL     1      22.675   7.411 -20.563  1.00  0.00     0.001 A 
ATOM     19  C   UNL     1      24.519   6.290 -19.650  1.00  0.00     0.001 A 
ATOM     20  C   UNL     1      23.806   7.457 -19.796  1.00  0.00     0.000 A 
ENDBRANCH   5  15
TORSDOF 1
ENDMDL
MODEL 4
REMARK VINA RESULT:      -8.3      2.506      6.401
REMARK SMILES O=c1c([O-])c(-c2ccccc2)oc2cc([O-])cc([O-])c12
REMARK SMILES IDX 1 1 2 2 3 3 4 4 5 5 12 6 13 7 14 8 15 9 16 10 17 11 18 12
REMARK SMILES IDX 19 13 20 14 6 15 7 16 11 17 8 18 10 19 9 20
REMARK H PARENT
ROOT
ATOM      1  O   UNL     1      24.438  -2.661 -25.603  1.00  0.00    -0.290 OA
ATOM      2  C   UNL     1      23.488  -1.857 -25.497  1.00  0.00     0.184 A 
ATOM      3  C   UNL     1      23.208  -1.382 -24.199  1.00  0.00    -0.014 A 
ATOM      4  O   UNL     1      23.966  -1.809 -23.144  1.00  0.00    -0.867 OA
ATOM      5  C   UNL     1      22.176  -0.502 -24.051  1.00  0.00     0.130 A 
ATOM      6  O   UNL     1      21.476  -0.131 -25.143  1.00  0.00    -0.457 OA
ATOM      7  C   UNL     1      21.724  -0.558 -26.324  1.00  0.00     0.137 A 
ATOM      8  C   UNL     1      20.976  -0.142 -27.392  1.00  0.00     0.039 A 
ATOM      9  C   UNL     1      21.215  -0.581 -28.676  1.00  0.00    -0.106 A 
ATOM     10  O   UNL     1      20.435  -0.139 -29.744  1.00  0.00    -0.872 OA
ATOM     11  C   UNL     1      22.259  -1.483 -28.893  1.00  0.00    -0.016 A 
ATOM     12  C   UNL     1      23.027  -1.920 -27.845  1.00  0.00    -0.094 A 
ATOM     13  O   UNL     1      24.055  -2.811 -28.069  1.00  0.00    -0.872 OA
ATOM     14  C   UNL     1      22.749  -1.452 -26.585  1.00  0.00     0.056 A 
ENDROOT
BRANCH   5  15
ATOM     15  C   UNL     1      21.792   0.057 -22.767  1.00  0.00     0.017 A 
ATOM     16  C   UNL     1      21.179  -0.577 -21.733  1.00  0.00     0.012 A 
ATOM     17  C   UNL     1      22.075   1.414 -22.537  1.00  0.00     0.012 A 
ATOM     18  C   UNL     1      20.853   0.049 -20.540  1.00  0.00     0.001 A 
ATOM     19  C   UNL     1      21.757   2.050 -21.359  1.00  0.00     0.001 A 
ATOM     20  C   UNL     1      21.137   1.371 -20.336  1.00  0.00     0.000 A 
ENDBRANCH   5  15
TORSDOF 1
ENDMDL
MODEL 5
REMARK VINA RESULT:      -8.0      2.863      6.847
REMARK SMILES O=c1c([O-])c(-c2ccccc2)oc2cc([O-])cc([O-])c12
REMARK SMILES IDX 1 1 2 2 3 3 4 4 5 5 12 6 13 7 14 8 15 9 16 10 17 11 18 12
REMARK SMILES IDX 19 13 20 14 6 15 7 16 11 17 8 18 10 19 9 20
REMARK H PARENT
ROOT
ATOM      1  O   UNL     1      22.554   1.693 -24.506  1.00  0.00    -0.290 OA
ATOM      2  C   UNL     1      22.382   1.968 -23.300  1.00  0.00     0.184 A 
ATOM      3  C   UNL     1      22.800   3.248 -22.880  1.00  0.00    -0.014 A 
ATOM      4  O   UNL     1      23.360   4.106 -23.785  1.00  0.00    -0.867 OA
ATOM      5  C   UNL     1      22.624   3.579 -21.569  1.00  0.00     0.130 A 
ATOM      6  O   UNL     1      22.064   2.674 -20.740  1.00  0.00    -0.457 OA
ATOM      7  C   UNL     1      21.682   1.510 -21.112  1.00  0.00     0.137 A 
ATOM      8  C   UNL     1      21.119   0.637 -20.222  1.00  0.00     0.039 A 
ATOM      9  C   UNL     1      20.697  -0.622 -20.589  1.00  0.00    -0.106 A 
ATOM     10  O   UNL     1      20.127  -1.490 -19.656  1.00  0.00    -0.872 OA
ATOM     11  C   UNL     1      20.849  -1.020 -21.919  1.00  0.00    -0.016 A 
ATOM     12  C   UNL     1      21.409  -0.170 -22.837  1.00  0.00    -0.094 A 
ATOM     13  O   UNL     1      21.556  -0.571 -24.147  1.00  0.00    -0.872 OA
ATOM     14  C   UNL     1      21.813   1.074 -22.421  1.00  0.00     0.056 A 
ENDROOT
BRANCH   5  15
ATOM     15  C   UNL     1      23.015   4.864 -21.018  1.00  0.00     0.017 A 
ATOM     16  C   UNL     1      24.118   5.152 -20.280  1.00  0.00     0.012 A 
ATOM     17  C   UNL     1      22.171   5.960 -21.263  1.00  0.00     0.012 A 
ATOM     18  C   UNL     1      24.403   6.421 -19.798  1.00  0.00     0.001 A 
ATOM     19  C   UNL     1      22.439   7.225 -20.792  1.00  0.00     0.001 A 
ATOM     20  C   UNL     1      23.568   7.475 -20.047  1.00  0.00     0.000 A 
ENDBRANCH   5  15
TORSDOF 1
ENDMDL
MODEL 6
REMARK VINA RESULT:      -7.2      1.505      5.966
REMARK SMILES O=c1c([O-])c(-c2ccccc2)oc2cc([O-])cc([O-])c12
REMARK SMILES IDX 1 1 2 2 3 3 4 4 5 5 12 6 13 7 14 8 15 9 16 10 17 11 18 12
REMARK SMILES IDX 19 13 20 14 6 15 7 16 11 17 8 18 10 19 9 20
REMARK H PARENT
ROOT
ATOM      1  O   UNL     1      22.234  -1.449 -22.961  1.00  0.00    -0.290 OA
ATOM      2  C   UNL     1      22.288  -0.397 -23.632  1.00  0.00     0.184 A 
ATOM      3  C   UNL     1      22.450   0.803 -22.910  1.00  0.00    -0.014 A 
ATOM      4  O   UNL     1      22.539   0.764 -21.545  1.00  0.00    -0.867 OA
ATOM      5  C   UNL     1      22.513   1.969 -23.615  1.00  0.00     0.130 A 
ATOM      6  O   UNL     1      22.417   1.922 -24.959  1.00  0.00    -0.457 OA
ATOM      7  C   UNL     1      22.269   0.837 -25.623  1.00  0.00     0.137 A 
ATOM      8  C   UNL     1      22.179   0.856 -26.988  1.00  0.00     0.039 A 
ATOM      9  C   UNL     1      22.019  -0.293 -27.733  1.00  0.00    -0.106 A 
ATOM     10  O   UNL     1      21.930  -0.240 -29.125  1.00  0.00    -0.872 OA
ATOM     11  C   UNL     1      21.949  -1.519 -27.069  1.00  0.00    -0.016 A 
ATOM     12  C   UNL     1      22.036  -1.573 -25.702  1.00  0.00    -0.094 A 
ATOM     13  O   UNL     1      21.965  -2.788 -25.055  1.00  0.00    -0.872 OA
ATOM     14  C   UNL     1      22.195  -0.401 -25.006  1.00  0.00     0.056 A 
ENDROOT
BRANCH   5  15
ATOM     15  C   UNL     1      22.678   3.267 -22.984  1.00  0.00     0.017 A 
ATOM     16  C   UNL     1      22.395   3.611 -21.701  1.00  0.00     0.012 A 
ATOM     17  C   UNL     1      23.191   4.312 -23.771  1.00  0.00     0.012 A 
ATOM     18  C   UNL     1      22.590   4.886 -21.192  1.00  0.00     0.001 A 
ATOM     19  C   UNL     1      23.391   5.582 -23.281  1.00  0.00     0.001 A 
ATOM     20  C   UNL     1      23.091   5.889 -21.975  1.00  0.00     0.000 A 
ENDBRANCH   5  15
TORSDOF 1
ENDMDL
MODEL 7
REMARK VINA RESULT:      -7.1      1.143      1.492
REMARK SMILES O=c1c([O-])c(-c2ccccc2)oc2cc([O-])cc([O-])c12
REMARK SMILES IDX 1 1 2 2 3 3 4 4 5 5 12 6 13 7 14 8 15 9 16 10 17 11 18 12
REMARK SMILES IDX 19 13 20 14 6 15 7 16 11 17 8 18 10 19 9 20
REMARK H PARENT
ROOT
ATOM      1  O   UNL     1      21.412   1.430 -20.779  1.00  0.00    -0.290 OA
ATOM      2  C   UNL     1      21.946   1.573 -21.898  1.00  0.00     0.184 A 
ATOM      3  C   UNL     1      22.018   0.423 -22.713  1.00  0.00    -0.014 A 
ATOM      4  O   UNL     1      21.513  -0.762 -22.255  1.00  0.00    -0.867 OA
ATOM      5  C   UNL     1      22.596   0.547 -23.942  1.00  0.00     0.130 A 
ATOM      6  O   UNL     1      23.071   1.752 -24.319  1.00  0.00    -0.457 OA
ATOM      7  C   UNL     1      23.010   2.800 -23.586  1.00  0.00     0.137 A 
ATOM      8  C   UNL     1      23.510   3.995 -24.026  1.00  0.00     0.039 A 
ATOM      9  C   UNL     1      23.461   5.142 -23.263  1.00  0.00    -0.106 A 
ATOM     10  O   UNL     1      23.980   6.346 -23.741  1.00  0.00    -0.872 OA
ATOM     11  C   UNL     1      22.880   5.080 -21.995  1.00  0.00    -0.016 A 
ATOM     12  C   UNL     1      22.370   3.898 -21.523  1.00  0.00    -0.094 A 
ATOM     13  O   UNL     1      21.799   3.846 -20.270  1.00  0.00    -0.872 OA
ATOM     14  C   UNL     1      22.443   2.785 -22.322  1.00  0.00     0.056 A 
ENDROOT
BRANCH   5  15
ATOM     15  C   UNL     1      22.728  -0.562 -24.869  1.00  0.00     0.017 A 
ATOM     16  C   UNL     1      21.986  -0.813 -25.979  1.00  0.00     0.012 A 
ATOM     17  C   UNL     1      23.738  -1.506 -24.615  1.00  0.00     0.012 A 
ATOM     18  C   UNL     1      22.194  -1.907 -26.806  1.00  0.00     0.001 A 
ATOM     19  C   UNL     1      23.958  -2.597 -25.425  1.00  0.00     0.001 A 
ATOM     20  C   UNL     1      23.183  -2.814 -26.540  1.00  0.00     0.000 A 
ENDBRANCH   5  15
TORSDOF 1
ENDMDL
MODEL 8
REMARK VINA RESULT:      -7.0      2.370      6.458
REMARK SMILES O=c1c([O-])c(-c2ccccc2)oc2cc([O-])cc([O-])c12
REMARK SMILES IDX 1 1 2 2 3 3 4 4 5 5 12 6 13 7 14 8 15 9 16 10 17 11 18 12
REMARK SMILES IDX 19 13 20 14 6 15 7 16 11 17 8 18 10 19 9 20
REMARK H PARENT
ROOT
ATOM      1  O   UNL     1      24.312  -2.234 -26.136  1.00  0.00    -0.290 OA
ATOM      2  C   UNL     1      23.450  -1.332 -26.078  1.00  0.00     0.184 A 
ATOM      3  C   UNL     1      23.394  -0.591 -24.880  1.00  0.00    -0.014 A 
ATOM      4  O   UNL     1      24.261  -0.883 -23.863  1.00  0.00    -0.867 OA
ATOM      5  C   UNL     1      22.462   0.401 -24.786  1.00  0.00     0.130 A 
ATOM      6  O   UNL     1      21.643   0.625 -25.834  1.00  0.00    -0.457 OA
ATOM      7  C   UNL     1      21.687  -0.043 -26.925  1.00  0.00     0.137 A 
ATOM      8  C   UNL     1      20.829   0.234 -27.953  1.00  0.00     0.039 A 
ATOM      9  C   UNL     1      20.849  -0.465 -29.141  1.00  0.00    -0.106 A 
ATOM     10  O   UNL     1      19.959  -0.158 -30.171  1.00  0.00    -0.872 OA
ATOM     11  C   UNL     1      21.781  -1.493 -29.299  1.00  0.00    -0.016 A 
ATOM     12  C   UNL     1      22.656  -1.797 -28.288  1.00  0.00    -0.094 A 
ATOM     13  O   UNL     1      23.572  -2.813 -28.452  1.00  0.00    -0.872 OA
ATOM     14  C   UNL     1      22.595  -1.070 -27.125  1.00  0.00     0.056 A 
ENDROOT
BRANCH   5  15
ATOM     15  C   UNL     1      22.307   1.231 -23.605  1.00  0.00     0.017 A 
ATOM     16  C   UNL     1      21.737   0.893 -22.419  1.00  0.00     0.012 A 
ATOM     17  C   UNL     1      22.797   2.547 -23.665  1.00  0.00     0.012 A 
ATOM     18  C   UNL     1      21.638   1.764 -21.344  1.00  0.00     0.001 A 
ATOM     19  C   UNL     1      22.707   3.423 -22.608  1.00  0.00     0.001 A 
ATOM     20  C   UNL     1      22.121   3.041 -21.424  1.00  0.00     0.000 A 
ENDBRANCH   5  15
TORSDOF 1
ENDMDL
MODEL 9
REMARK VINA RESULT:      -6.6      1.489      5.916
REMARK SMILES O=c1c([O-])c(-c2ccccc2)oc2cc([O-])cc([O-])c12
REMARK SMILES IDX 1 1 2 2 3 3 4 4 5 5 12 6 13 7 14 8 15 9 16 10 17 11 18 12
REMARK SMILES IDX 19 13 20 14 6 15 7 16 11 17 8 18 10 19 9 20
REMARK H PARENT
ROOT
ATOM      1  O   UNL     1      21.476  -0.962 -22.735  1.00  0.00    -0.290 OA
ATOM      2  C   UNL     1      21.852  -0.027 -23.471  1.00  0.00     0.184 A 
ATOM      3  C   UNL     1      22.178   1.187 -22.831  1.00  0.00    -0.014 A 
ATOM      4  O   UNL     1      22.070   1.284 -21.471  1.00  0.00    -0.867 OA
ATOM      5  C   UNL     1      22.593   2.228 -23.609  1.00  0.00     0.130 A 
ATOM      6  O   UNL     1      22.671   2.051 -24.944  1.00  0.00    -0.457 OA
ATOM      7  C   UNL     1      22.377   0.953 -25.533  1.00  0.00     0.137 A 
ATOM      8  C   UNL     1      22.479   0.836 -26.893  1.00  0.00     0.039 A 
ATOM      9  C   UNL     1      22.170  -0.331 -27.559  1.00  0.00    -0.106 A 
ATOM     10  O   UNL     1      22.284  -0.417 -28.947  1.00  0.00    -0.872 OA
ATOM     11  C   UNL     1      21.740  -1.433 -26.817  1.00  0.00    -0.016 A 
ATOM     12  C   UNL     1      21.627  -1.350 -25.453  1.00  0.00    -0.094 A 
ATOM     13  O   UNL     1      21.201  -2.443 -24.730  1.00  0.00    -0.872 OA
ATOM     14  C   UNL     1      21.947  -0.166 -24.838  1.00  0.00     0.056 A 
ENDROOT
BRANCH   5  15
ATOM     15  C   UNL     1      22.955   3.525 -23.067  1.00  0.00     0.017 A 
ATOM     16  C   UNL     1      23.687   4.502 -23.664  1.00  0.00     0.012 A 
ATOM     17  C   UNL     1      22.508   3.837 -21.772  1.00  0.00     0.012 A 
ATOM     18  C   UNL     1      23.978   5.715 -23.059  1.00  0.00     0.001 A 
ATOM     19  C   UNL     1      22.788   5.036 -21.157  1.00  0.00     0.001 A 
ATOM     20  C   UNL     1      23.533   5.999 -21.797  1.00  0.00     0.000 A 
ENDBRANCH   5  15
TORSDOF 1
ENDMDL
