MODEL 1
REMARK VINA RESULT:      -6.7      0.000      0.000
REMARK SMILES CC/C(=C(\c1ccccc1)c1ccc(OCC[NH+](C)C)cc1)c1ccccc1
REMARK SMILES IDX 15 1 14 2 11 3 12 4 22 5 13 6 21 7 4 8 3 9 2 10 1 11 23 12
REMARK SMILES IDX 24 13 28 14 25 15 27 16 26 17 5 18 6 19 10 20 7 21 9 22 8 23
REMARK SMILES IDX 16 24 17 25 18 26 19 27 20 28
REMARK H PARENT 18 29
ROOT
ATOM      1  O   UNL     1      -0.988  -7.115 -25.730  1.00  0.00    -0.488 OA
ENDROOT
BRANCH   1   2
ATOM      2  C   UNL     1      -1.770  -7.097 -24.590  1.00  0.00     0.119 A 
ATOM      3  C   UNL     1      -3.315  -7.144 -22.188  1.00  0.00    -0.017 A 
ATOM      4  C   UNL     1      -3.585  -6.254 -23.209  1.00  0.00     0.012 A 
ATOM      5  C   UNL     1      -2.250  -8.012 -22.404  1.00  0.00     0.012 A 
ATOM      6  C   UNL     1      -2.826  -6.244 -24.369  1.00  0.00     0.047 A 
ATOM      7  C   UNL     1      -1.501  -8.000 -23.551  1.00  0.00     0.047 A 
BRANCH   3   8
ATOM      8  C   UNL     1      -4.108  -7.193 -20.972  1.00  0.00    -0.007 C 
ATOM      9  C   UNL     1      -3.606  -7.536 -19.815  1.00  0.00    -0.033 C 
BRANCH   9  10
ATOM     10  C   UNL     1      -4.382  -7.650 -18.549  1.00  0.00     0.033 C 
ATOM     11  C   UNL     1      -4.659  -9.100 -18.278  1.00  0.00     0.009 C 
ENDBRANCH   9  10
BRANCH   9  12
ATOM     12  C   UNL     1      -2.161  -7.782 -19.657  1.00  0.00    -0.022 A 
ATOM     13  C   UNL     1      -1.622  -9.039 -19.761  1.00  0.00     0.008 A 
ATOM     14  C   UNL     1      -1.353  -6.720 -19.390  1.00  0.00     0.008 A 
ATOM     15  C   UNL     1      -0.271  -9.215 -19.595  1.00  0.00     0.001 A 
ATOM     16  C   UNL     1       0.028  -6.854 -19.213  1.00  0.00     0.001 A 
ATOM     17  C   UNL     1       0.540  -8.126 -19.324  1.00  0.00     0.000 A 
ENDBRANCH   9  12
BRANCH   8  18
ATOM     18  C   UNL     1      -5.520  -6.883 -21.071  1.00  0.00    -0.018 A 
ATOM     19  C   UNL     1      -6.424  -7.741 -21.665  1.00  0.00     0.009 A 
ATOM     20  C   UNL     1      -5.988  -5.661 -20.597  1.00  0.00     0.009 A 
ATOM     21  C   UNL     1      -7.739  -7.366 -21.769  1.00  0.00     0.001 A 
ATOM     22  C   UNL     1      -7.303  -5.269 -20.692  1.00  0.00     0.001 A 
ATOM     23  C   UNL     1      -8.194  -6.152 -21.294  1.00  0.00     0.000 A 
ENDBRANCH   8  18
ENDBRANCH   3   8
ENDBRANCH   1   2
BRANCH   1  24
ATOM     24  C   UNL     1       0.362  -7.390 -25.850  1.00  0.00     0.290 C 
BRANCH  24  25
ATOM     25  C   UNL     1       1.025  -6.885 -27.104  1.00  0.00     0.303 C 
BRANCH  25  26
ATOM     26  N   UNL     1       0.810  -7.740 -28.232  1.00  0.00    -0.337 N 
ATOM     27  C   UNL     1       1.903  -8.655 -28.477  1.00  0.00     0.332 C 
ATOM     28  C   UNL     1       0.587  -7.005 -29.461  1.00  0.00     0.332 C 
ATOM     29  H   UNL     1      -0.056  -8.343 -28.101  1.00  0.00     0.347 HD
ENDBRANCH  25  26
ENDBRANCH  24  25
ENDBRANCH   1  24
TORSDOF 8
ENDMDL
MODEL 2
REMARK VINA RESULT:      -6.5      0.188      1.289
REMARK SMILES CC/C(=C(\c1ccccc1)c1ccc(OCC[NH+](C)C)cc1)c1ccccc1
REMARK SMILES IDX 15 1 14 2 11 3 12 4 22 5 13 6 21 7 4 8 3 9 2 10 1 11 23 12
REMARK SMILES IDX 24 13 28 14 25 15 27 16 26 17 5 18 6 19 10 20 7 21 9 22 8 23
REMARK SMILES IDX 16 24 17 25 18 26 19 27 20 28
REMARK H PARENT 18 29
ROOT
ATOM      1  O   UNL     1      -0.987  -7.254 -25.832  1.00  0.00    -0.488 OA
ENDROOT
BRANCH   1   2
ATOM      2  C   UNL     1      -1.761  -7.180 -24.688  1.00  0.00     0.119 A 
ATOM      3  C   UNL     1      -3.287  -7.105 -22.275  1.00  0.00    -0.017 A 
ATOM      4  C   UNL     1      -3.577  -6.282 -23.345  1.00  0.00     0.012 A 
ATOM      5  C   UNL     1      -2.211  -7.970 -22.448  1.00  0.00     0.012 A 
ATOM      6  C   UNL     1      -2.827  -6.330 -24.510  1.00  0.00     0.047 A 
ATOM      7  C   UNL     1      -1.471  -8.016 -23.599  1.00  0.00     0.047 A 
BRANCH   3   8
ATOM      8  C   UNL     1      -4.071  -7.094 -21.052  1.00  0.00    -0.007 C 
ATOM      9  C   UNL     1      -3.567  -7.412 -19.888  1.00  0.00    -0.033 C 
BRANCH   9  10
ATOM     10  C   UNL     1      -4.334  -7.463 -18.613  1.00  0.00     0.033 C 
ATOM     11  C   UNL     1      -4.653  -8.895 -18.295  1.00  0.00     0.009 C 
ENDBRANCH   9  10
BRANCH   9  12
ATOM     12  C   UNL     1      -2.128  -7.692 -19.734  1.00  0.00    -0.022 A 
ATOM     13  C   UNL     1      -1.214  -6.694 -19.511  1.00  0.00     0.008 A 
ATOM     14  C   UNL     1      -1.709  -8.984 -19.828  1.00  0.00     0.008 A 
ATOM     15  C   UNL     1       0.116  -7.007 -19.385  1.00  0.00     0.001 A 
ATOM     16  C   UNL     1      -0.365  -9.347 -19.706  1.00  0.00     0.001 A 
ATOM     17  C   UNL     1       0.529  -8.325 -19.483  1.00  0.00     0.000 A 
ENDBRANCH   9  12
BRANCH   8  18
ATOM     18  C   UNL     1      -5.474  -6.749 -21.150  1.00  0.00    -0.018 A 
ATOM     19  C   UNL     1      -5.985  -5.578 -20.626  1.00  0.00     0.009 A 
ATOM     20  C   UNL     1      -6.359  -7.643 -21.747  1.00  0.00     0.009 A 
ATOM     21  C   UNL     1      -7.332  -5.336 -20.710  1.00  0.00     0.001 A 
ATOM     22  C   UNL     1      -7.712  -7.415 -21.841  1.00  0.00     0.001 A 
ATOM     23  C   UNL     1      -8.202  -6.227 -21.306  1.00  0.00     0.000 A 
ENDBRANCH   8  18
ENDBRANCH   3   8
ENDBRANCH   1   2
BRANCH   1  24
ATOM     24  C   UNL     1       0.378  -7.077 -25.966  1.00  0.00     0.290 C 
BRANCH  24  25
ATOM     25  C   UNL     1       0.843  -6.563 -27.304  1.00  0.00     0.303 C 
BRANCH  25  26
ATOM     26  N   UNL     1       0.715  -7.533 -28.349  1.00  0.00    -0.337 N 
ATOM     27  C   UNL     1       1.793  -8.498 -28.375  1.00  0.00     0.332 C 
ATOM     28  C   UNL     1       0.647  -6.935 -29.667  1.00  0.00     0.332 C 
ATOM     29  H   UNL     1      -0.182  -8.096 -28.247  1.00  0.00     0.347 HD
ENDBRANCH  25  26
ENDBRANCH  24  25
ENDBRANCH   1  24
TORSDOF 8
ENDMDL
MODEL 3
REMARK VINA RESULT:      -6.5      0.538      1.043
REMARK SMILES CC/C(=C(\c1ccccc1)c1ccc(OCC[NH+](C)C)cc1)c1ccccc1
REMARK SMILES IDX 15 1 14 2 11 3 12 4 22 5 13 6 21 7 4 8 3 9 2 10 1 11 23 12
REMARK SMILES IDX 24 13 28 14 25 15 27 16 26 17 5 18 6 19 10 20 7 21 9 22 8 23
REMARK SMILES IDX 16 24 17 25 18 26 19 27 20 28
REMARK H PARENT 18 29
ROOT
ATOM      1  O   UNL     1      -0.217  -7.634 -25.370  1.00  0.00    -0.488 OA
ENDROOT
BRANCH   1   2
ATOM      2  C   UNL     1      -1.139  -7.507 -24.347  1.00  0.00     0.119 A 
ATOM      3  C   UNL     1      -2.979  -7.322 -22.171  1.00  0.00    -0.017 A 
ATOM      4  C   UNL     1      -3.113  -6.546 -23.305  1.00  0.00     0.012 A 
ATOM      5  C   UNL     1      -1.897  -8.196 -22.157  1.00  0.00     0.012 A 
ATOM      6  C   UNL     1      -2.212  -6.648 -24.353  1.00  0.00     0.047 A 
ATOM      7  C   UNL     1      -1.007  -8.294 -23.193  1.00  0.00     0.047 A 
BRANCH   3   8
ATOM      8  C   UNL     1      -3.922  -7.254 -21.068  1.00  0.00    -0.007 C 
ATOM      9  C   UNL     1      -3.585  -7.524 -19.833  1.00  0.00    -0.033 C 
BRANCH   9  10
ATOM     10  C   UNL     1      -4.519  -7.517 -18.674  1.00  0.00     0.033 C 
ATOM     11  C   UNL     1      -4.775  -8.933 -18.247  1.00  0.00     0.009 C 
ENDBRANCH   9  10
BRANCH   9  12
ATOM     12  C   UNL     1      -2.183  -7.802 -19.472  1.00  0.00    -0.022 A 
ATOM     13  C   UNL     1      -1.689  -9.080 -19.405  1.00  0.00     0.008 A 
ATOM     14  C   UNL     1      -1.370  -6.747 -19.189  1.00  0.00     0.008 A 
ATOM     15  C   UNL     1      -0.379  -9.285 -19.054  1.00  0.00     0.001 A 
ATOM     16  C   UNL     1      -0.030  -6.910 -18.826  1.00  0.00     0.001 A 
ATOM     17  C   UNL     1       0.438  -8.203 -18.769  1.00  0.00     0.000 A 
ENDBRANCH   9  12
BRANCH   8  18
ATOM     18  C   UNL     1      -5.296  -6.909 -21.371  1.00  0.00    -0.018 A 
ATOM     19  C   UNL     1      -5.789  -5.631 -21.204  1.00  0.00     0.009 A 
ATOM     20  C   UNL     1      -6.172  -7.901 -21.801  1.00  0.00     0.009 A 
ATOM     21  C   UNL     1      -7.112  -5.382 -21.464  1.00  0.00     0.001 A 
ATOM     22  C   UNL     1      -7.502  -7.669 -22.067  1.00  0.00     0.001 A 
ATOM     23  C   UNL     1      -7.975  -6.372 -21.891  1.00  0.00     0.000 A 
ENDBRANCH   8  18
ENDBRANCH   3   8
ENDBRANCH   1   2
BRANCH   1  24
ATOM     24  C   UNL     1      -0.113  -6.898 -26.537  1.00  0.00     0.290 C 
BRANCH  24  25
ATOM     25  C   UNL     1       1.114  -7.163 -27.371  1.00  0.00     0.303 C 
BRANCH  25  26
ATOM     26  N   UNL     1       0.808  -7.747 -28.642  1.00  0.00    -0.337 N 
ATOM     27  C   UNL     1       1.780  -8.729 -29.071  1.00  0.00     0.332 C 
ATOM     28  C   UNL     1       0.698  -6.766 -29.701  1.00  0.00     0.332 C 
ATOM     29  H   UNL     1      -0.129  -8.249 -28.622  1.00  0.00     0.347 HD
ENDBRANCH  25  26
ENDBRANCH  24  25
ENDBRANCH   1  24
TORSDOF 8
ENDMDL
MODEL 4
REMARK VINA RESULT:      -6.5      0.300      1.297
REMARK SMILES CC/C(=C(\c1ccccc1)c1ccc(OCC[NH+](C)C)cc1)c1ccccc1
REMARK SMILES IDX 15 1 14 2 11 3 12 4 22 5 13 6 21 7 4 8 3 9 2 10 1 11 23 12
REMARK SMILES IDX 24 13 28 14 25 15 27 16 26 17 5 18 6 19 10 20 7 21 9 22 8 23
REMARK SMILES IDX 16 24 17 25 18 26 19 27 20 28
REMARK H PARENT 18 29
ROOT
ATOM      1  O   UNL     1      -0.805  -7.346 -25.842  1.00  0.00    -0.488 OA
ENDROOT
BRANCH   1   2
ATOM      2  C   UNL     1      -1.538  -7.340 -24.670  1.00  0.00     0.119 A 
ATOM      3  C   UNL     1      -3.128  -7.257 -22.298  1.00  0.00    -0.017 A 
ATOM      4  C   UNL     1      -2.011  -8.063 -22.397  1.00  0.00     0.012 A 
ATOM      5  C   UNL     1      -3.426  -6.492 -23.421  1.00  0.00     0.012 A 
ATOM      6  C   UNL     1      -1.249  -8.093 -23.555  1.00  0.00     0.047 A 
ATOM      7  C   UNL     1      -2.672  -6.523 -24.564  1.00  0.00     0.047 A 
BRANCH   3   8
ATOM      8  C   UNL     1      -3.930  -7.188 -21.090  1.00  0.00    -0.007 C 
ATOM      9  C   UNL     1      -3.447  -7.454 -19.904  1.00  0.00    -0.033 C 
BRANCH   9  10
ATOM     10  C   UNL     1      -4.234  -7.444 -18.641  1.00  0.00     0.033 C 
ATOM     11  C   UNL     1      -4.440  -8.860 -18.186  1.00  0.00     0.009 C 
ENDBRANCH   9  10
BRANCH   9  12
ATOM     12  C   UNL     1      -2.011  -7.730 -19.714  1.00  0.00    -0.022 A 
ATOM     13  C   UNL     1      -1.118  -6.742 -19.388  1.00  0.00     0.008 A 
ATOM     14  C   UNL     1      -1.574  -9.009 -19.882  1.00  0.00     0.008 A 
ATOM     15  C   UNL     1       0.210  -7.051 -19.232  1.00  0.00     0.001 A 
ATOM     16  C   UNL     1      -0.231  -9.367 -19.734  1.00  0.00     0.001 A 
ATOM     17  C   UNL     1       0.642  -8.355 -19.406  1.00  0.00     0.000 A 
ENDBRANCH   9  12
BRANCH   8  18
ATOM     18  C   UNL     1      -5.331  -6.844 -21.226  1.00  0.00    -0.018 A 
ATOM     19  C   UNL     1      -6.275  -7.752 -21.662  1.00  0.00     0.009 A 
ATOM     20  C   UNL     1      -5.747  -5.543 -20.955  1.00  0.00     0.009 A 
ATOM     21  C   UNL     1      -7.576  -7.349 -21.814  1.00  0.00     0.001 A 
ATOM     22  C   UNL     1      -7.048  -5.122 -21.101  1.00  0.00     0.001 A 
ATOM     23  C   UNL     1      -7.980  -6.056 -21.542  1.00  0.00     0.000 A 
ENDBRANCH   8  18
ENDBRANCH   3   8
ENDBRANCH   1   2
BRANCH   1  24
ATOM     24  C   UNL     1       0.535  -7.054 -26.027  1.00  0.00     0.290 C 
BRANCH  24  25
ATOM     25  C   UNL     1       0.914  -6.564 -27.400  1.00  0.00     0.303 C 
BRANCH  25  26
ATOM     26  N   UNL     1       0.695  -7.542 -28.422  1.00  0.00    -0.337 N 
ATOM     27  C   UNL     1       1.697  -8.585 -28.444  1.00  0.00     0.332 C 
ATOM     28  C   UNL     1       0.650  -6.967 -29.751  1.00  0.00     0.332 C 
ATOM     29  H   UNL     1      -0.239  -8.033 -28.295  1.00  0.00     0.347 HD
ENDBRANCH  25  26
ENDBRANCH  24  25
ENDBRANCH   1  24
TORSDOF 8
ENDMDL
MODEL 5
REMARK VINA RESULT:      -6.4      0.977      1.617
REMARK SMILES CC/C(=C(\c1ccccc1)c1ccc(OCC[NH+](C)C)cc1)c1ccccc1
REMARK SMILES IDX 15 1 14 2 11 3 12 4 22 5 13 6 21 7 4 8 3 9 2 10 1 11 23 12
REMARK SMILES IDX 24 13 28 14 25 15 27 16 26 17 5 18 6 19 10 20 7 21 9 22 8 23
REMARK SMILES IDX 16 24 17 25 18 26 19 27 20 28
REMARK H PARENT 18 29
ROOT
ATOM      1  O   UNL     1       0.184  -7.652 -25.551  1.00  0.00    -0.488 OA
ENDROOT
BRANCH   1   2
ATOM      2  C   UNL     1      -0.806  -7.591 -24.587  1.00  0.00     0.119 A 
ATOM      3  C   UNL     1      -2.908  -7.388 -22.664  1.00  0.00    -0.017 A 
ATOM      4  C   UNL     1      -1.856  -8.268 -22.502  1.00  0.00     0.012 A 
ATOM      5  C   UNL     1      -2.877  -6.610 -23.817  1.00  0.00     0.012 A 
ATOM      6  C   UNL     1      -0.844  -8.355 -23.445  1.00  0.00     0.047 A 
ATOM      7  C   UNL     1      -1.875  -6.698 -24.747  1.00  0.00     0.047 A 
BRANCH   3   8
ATOM      8  C   UNL     1      -3.970  -7.258 -21.683  1.00  0.00    -0.007 C 
ATOM      9  C   UNL     1      -3.779  -7.457 -20.404  1.00  0.00    -0.033 C 
BRANCH   9  10
ATOM     10  C   UNL     1      -4.839  -7.384 -19.362  1.00  0.00     0.033 C 
ATOM     11  C   UNL     1      -4.816  -8.649 -18.555  1.00  0.00     0.009 C 
ENDBRANCH   9  10
BRANCH   9  12
ATOM     12  C   UNL     1      -2.429  -7.714 -19.870  1.00  0.00    -0.022 A 
ATOM     13  C   UNL     1      -1.921  -8.983 -19.758  1.00  0.00     0.008 A 
ATOM     14  C   UNL     1      -1.681  -6.649 -19.469  1.00  0.00     0.008 A 
ATOM     15  C   UNL     1      -0.663  -9.169 -19.245  1.00  0.00     0.001 A 
ATOM     16  C   UNL     1      -0.395  -6.793 -18.940  1.00  0.00     0.001 A 
ATOM     17  C   UNL     1       0.088  -8.078 -18.841  1.00  0.00     0.000 A 
ENDBRANCH   9  12
BRANCH   8  18
ATOM     18  C   UNL     1      -5.298  -6.930 -22.160  1.00  0.00    -0.018 A 
ATOM     19  C   UNL     1      -5.516  -5.990 -23.148  1.00  0.00     0.009 A 
ATOM     20  C   UNL     1      -6.405  -7.541 -21.578  1.00  0.00     0.009 A 
ATOM     21  C   UNL     1      -6.801  -5.692 -23.520  1.00  0.00     0.001 A 
ATOM     22  C   UNL     1      -7.701  -7.255 -21.940  1.00  0.00     0.001 A 
ATOM     23  C   UNL     1      -7.894  -6.304 -22.938  1.00  0.00     0.000 A 
ENDBRANCH   8  18
ENDBRANCH   3   8
ENDBRANCH   1   2
BRANCH   1  24
ATOM     24  C   UNL     1       0.422  -6.787 -26.604  1.00  0.00     0.290 C 
BRANCH  24  25
ATOM     25  C   UNL     1       0.134  -7.334 -27.978  1.00  0.00     0.303 C 
BRANCH  25  26
ATOM     26  N   UNL     1       1.297  -7.389 -28.811  1.00  0.00    -0.337 N 
ATOM     27  C   UNL     1       1.086  -6.832 -30.130  1.00  0.00     0.332 C 
ATOM     28  C   UNL     1       1.797  -8.736 -28.992  1.00  0.00     0.332 C 
ATOM     29  H   UNL     1       2.104  -6.842 -28.386  1.00  0.00     0.347 HD
ENDBRANCH  25  26
ENDBRANCH  24  25
ENDBRANCH   1  24
TORSDOF 8
ENDMDL
MODEL 6
REMARK VINA RESULT:      -6.4      1.029      1.513
REMARK SMILES CC/C(=C(\c1ccccc1)c1ccc(OCC[NH+](C)C)cc1)c1ccccc1
REMARK SMILES IDX 15 1 14 2 11 3 12 4 22 5 13 6 21 7 4 8 3 9 2 10 1 11 23 12
REMARK SMILES IDX 24 13 28 14 25 15 27 16 26 17 5 18 6 19 10 20 7 21 9 22 8 23
REMARK SMILES IDX 16 24 17 25 18 26 19 27 20 28
REMARK H PARENT 18 29
ROOT
ATOM      1  O   UNL     1      -0.026  -7.492 -25.694  1.00  0.00    -0.488 OA
ENDROOT
BRANCH   1   2
ATOM      2  C   UNL     1      -1.025  -7.380 -24.744  1.00  0.00     0.119 A 
ATOM      3  C   UNL     1      -3.031  -7.225 -22.716  1.00  0.00    -0.017 A 
ATOM      4  C   UNL     1      -3.057  -6.409 -23.830  1.00  0.00     0.012 A 
ATOM      5  C   UNL     1      -1.971  -8.124 -22.647  1.00  0.00     0.012 A 
ATOM      6  C   UNL     1      -2.076  -6.496 -24.805  1.00  0.00     0.047 A 
ATOM      7  C   UNL     1      -1.002  -8.208 -23.612  1.00  0.00     0.047 A 
BRANCH   3   8
ATOM      8  C   UNL     1      -4.058  -7.174 -21.691  1.00  0.00    -0.007 C 
ATOM      9  C   UNL     1      -3.806  -7.399 -20.427  1.00  0.00    -0.033 C 
BRANCH   9  10
ATOM     10  C   UNL     1      -4.827  -7.406 -19.344  1.00  0.00     0.033 C 
ATOM     11  C   UNL     1      -4.703  -8.685 -18.568  1.00  0.00     0.009 C 
ENDBRANCH   9  10
BRANCH   9  12
ATOM     12  C   UNL     1      -2.426  -7.607 -19.953  1.00  0.00    -0.022 A 
ATOM     13  C   UNL     1      -1.633  -6.566 -19.546  1.00  0.00     0.008 A 
ATOM     14  C   UNL     1      -1.936  -8.878 -19.935  1.00  0.00     0.008 A 
ATOM     15  C   UNL     1      -0.351  -6.812 -19.122  1.00  0.00     0.001 A 
ATOM     16  C   UNL     1      -0.637  -9.174 -19.513  1.00  0.00     0.001 A 
ATOM     17  C   UNL     1       0.135  -8.109 -19.109  1.00  0.00     0.000 A 
ENDBRANCH   9  12
BRANCH   8  18
ATOM     18  C   UNL     1      -5.417  -6.896 -22.107  1.00  0.00    -0.018 A 
ATOM     19  C   UNL     1      -6.503  -7.556 -21.568  1.00  0.00     0.009 A 
ATOM     20  C   UNL     1      -5.648  -5.967 -23.117  1.00  0.00     0.009 A 
ATOM     21  C   UNL     1      -7.760  -7.280 -22.040  1.00  0.00     0.001 A 
ATOM     22  C   UNL     1      -6.902  -5.676 -23.602  1.00  0.00     0.001 A 
ATOM     23  C   UNL     1      -7.980  -6.356 -23.043  1.00  0.00     0.000 A 
ENDBRANCH   8  18
ENDBRANCH   3   8
ENDBRANCH   1   2
BRANCH   1  24
ATOM     24  C   UNL     1       0.135  -6.781 -26.869  1.00  0.00     0.290 C 
BRANCH  24  25
ATOM     25  C   UNL     1       0.688  -7.558 -28.035  1.00  0.00     0.303 C 
BRANCH  25  26
ATOM     26  N   UNL     1       0.242  -7.059 -29.301  1.00  0.00    -0.337 N 
ATOM     27  C   UNL     1      -0.435  -8.053 -30.105  1.00  0.00     0.332 C 
ATOM     28  C   UNL     1       1.320  -6.522 -30.105  1.00  0.00     0.332 C 
ATOM     29  H   UNL     1      -0.447  -6.258 -29.180  1.00  0.00     0.347 HD
ENDBRANCH  25  26
ENDBRANCH  24  25
ENDBRANCH   1  24
TORSDOF 8
ENDMDL
MODEL 7
REMARK VINA RESULT:      -6.2      1.013      1.273
REMARK SMILES CC/C(=C(\c1ccccc1)c1ccc(OCC[NH+](C)C)cc1)c1ccccc1
REMARK SMILES IDX 15 1 14 2 11 3 12 4 22 5 13 6 21 7 4 8 3 9 2 10 1 11 23 12
REMARK SMILES IDX 24 13 28 14 25 15 27 16 26 17 5 18 6 19 10 20 7 21 9 22 8 23
REMARK SMILES IDX 16 24 17 25 18 26 19 27 20 28
REMARK H PARENT 18 29
ROOT
ATOM      1  O   UNL     1       0.104  -7.581 -25.559  1.00  0.00    -0.488 OA
ENDROOT
BRANCH   1   2
ATOM      2  C   UNL     1      -0.921  -7.453 -24.640  1.00  0.00     0.119 A 
ATOM      3  C   UNL     1      -2.984  -7.267 -22.673  1.00  0.00    -0.017 A 
ATOM      4  C   UNL     1      -2.981  -6.471 -23.802  1.00  0.00     0.012 A 
ATOM      5  C   UNL     1      -1.924  -8.161 -22.557  1.00  0.00     0.012 A 
ATOM      6  C   UNL     1      -1.972  -6.573 -24.747  1.00  0.00     0.047 A 
ATOM      7  C   UNL     1      -0.929  -8.260 -23.492  1.00  0.00     0.047 A 
BRANCH   3   8
ATOM      8  C   UNL     1      -4.039  -7.198 -21.678  1.00  0.00    -0.007 C 
ATOM      9  C   UNL     1      -3.835  -7.456 -20.412  1.00  0.00    -0.033 C 
BRANCH   9  10
ATOM     10  C   UNL     1      -4.888  -7.447 -19.360  1.00  0.00     0.033 C 
ATOM     11  C   UNL     1      -4.758  -8.693 -18.532  1.00  0.00     0.009 C 
ENDBRANCH   9  10
BRANCH   9  12
ATOM     12  C   UNL     1      -2.478  -7.720 -19.901  1.00  0.00    -0.022 A 
ATOM     13  C   UNL     1      -1.953  -8.986 -19.851  1.00  0.00     0.008 A 
ATOM     14  C   UNL     1      -1.740  -6.664 -19.458  1.00  0.00     0.008 A 
ATOM     15  C   UNL     1      -0.688  -9.179 -19.357  1.00  0.00     0.001 A 
ATOM     16  C   UNL     1      -0.448  -6.816 -18.946  1.00  0.00     0.001 A 
ATOM     17  C   UNL     1       0.052  -8.097 -18.910  1.00  0.00     0.000 A 
ENDBRANCH   9  12
BRANCH   8  18
ATOM     18  C   UNL     1      -5.376  -6.866 -22.129  1.00  0.00    -0.018 A 
ATOM     19  C   UNL     1      -6.505  -7.424 -21.564  1.00  0.00     0.009 A 
ATOM     20  C   UNL     1      -5.540  -5.993 -23.200  1.00  0.00     0.009 A 
ATOM     21  C   UNL     1      -7.738  -7.104 -22.070  1.00  0.00     0.001 A 
ATOM     22  C   UNL     1      -6.769  -5.659 -23.719  1.00  0.00     0.001 A 
ATOM     23  C   UNL     1      -7.892  -6.234 -23.132  1.00  0.00     0.000 A 
ENDBRANCH   8  18
ENDBRANCH   3   8
ENDBRANCH   1   2
BRANCH   1  24
ATOM     24  C   UNL     1       0.331  -6.847 -26.710  1.00  0.00     0.290 C 
BRANCH  24  25
ATOM     25  C   UNL     1       0.075  -7.569 -28.007  1.00  0.00     0.303 C 
BRANCH  25  26
ATOM     26  N   UNL     1       1.193  -7.527 -28.899  1.00  0.00    -0.337 N 
ATOM     27  C   UNL     1       1.001  -6.635 -30.022  1.00  0.00     0.332 C 
ATOM     28  C   UNL     1       1.530  -8.828 -29.442  1.00  0.00     0.332 C 
ATOM     29  H   UNL     1       2.072  -7.192 -28.404  1.00  0.00     0.347 HD
ENDBRANCH  25  26
ENDBRANCH  24  25
ENDBRANCH   1  24
TORSDOF 8
ENDMDL
MODEL 8
REMARK VINA RESULT:      -6.0      0.251      1.106
REMARK SMILES CC/C(=C(\c1ccccc1)c1ccc(OCC[NH+](C)C)cc1)c1ccccc1
REMARK SMILES IDX 15 1 14 2 11 3 12 4 22 5 13 6 21 7 4 8 3 9 2 10 1 11 23 12
REMARK SMILES IDX 24 13 28 14 25 15 27 16 26 17 5 18 6 19 10 20 7 21 9 22 8 23
REMARK SMILES IDX 16 24 17 25 18 26 19 27 20 28
REMARK H PARENT 18 29
ROOT
ATOM      1  O   UNL     1      -1.052  -7.042 -25.866  1.00  0.00    -0.488 OA
ENDROOT
BRANCH   1   2
ATOM      2  C   UNL     1      -1.765  -7.112 -24.683  1.00  0.00     0.119 A 
ATOM      3  C   UNL     1      -3.316  -7.181 -22.285  1.00  0.00    -0.017 A 
ATOM      4  C   UNL     1      -2.212  -7.991 -22.461  1.00  0.00     0.012 A 
ATOM      5  C   UNL     1      -3.622  -6.332 -23.345  1.00  0.00     0.012 A 
ATOM      6  C   UNL     1      -1.469  -7.946 -23.630  1.00  0.00     0.047 A 
ATOM      7  C   UNL     1      -2.887  -6.290 -24.500  1.00  0.00     0.047 A 
BRANCH   3   8
ATOM      8  C   UNL     1      -4.098  -7.188 -21.062  1.00  0.00    -0.007 C 
ATOM      9  C   UNL     1      -3.594  -7.525 -19.903  1.00  0.00    -0.033 C 
BRANCH   9  10
ATOM     10  C   UNL     1      -4.359  -7.596 -18.628  1.00  0.00     0.033 C 
ATOM     11  C   UNL     1      -4.475  -9.033 -18.210  1.00  0.00     0.009 C 
ENDBRANCH   9  10
BRANCH   9  12
ATOM     12  C   UNL     1      -2.154  -7.806 -19.754  1.00  0.00    -0.022 A 
ATOM     13  C   UNL     1      -1.641  -9.069 -19.905  1.00  0.00     0.008 A 
ATOM     14  C   UNL     1      -1.324  -6.771 -19.448  1.00  0.00     0.008 A 
ATOM     15  C   UNL     1      -0.295  -9.279 -19.747  1.00  0.00     0.001 A 
ATOM     16  C   UNL     1       0.053  -6.941 -19.277  1.00  0.00     0.001 A 
ATOM     17  C   UNL     1       0.539  -8.218 -19.435  1.00  0.00     0.000 A 
ENDBRANCH   9  12
BRANCH   8  18
ATOM     18  C   UNL     1      -5.502  -6.843 -21.152  1.00  0.00    -0.018 A 
ATOM     19  C   UNL     1      -6.432  -7.680 -21.737  1.00  0.00     0.009 A 
ATOM     20  C   UNL     1      -5.935  -5.607 -20.681  1.00  0.00     0.009 A 
ATOM     21  C   UNL     1      -7.737  -7.271 -21.833  1.00  0.00     0.001 A 
ATOM     22  C   UNL     1      -7.240  -5.182 -20.768  1.00  0.00     0.001 A 
ATOM     23  C   UNL     1      -8.158  -6.043 -21.361  1.00  0.00     0.000 A 
ENDBRANCH   8  18
ENDBRANCH   3   8
ENDBRANCH   1   2
BRANCH   1  24
ATOM     24  C   UNL     1       0.297  -7.269 -26.078  1.00  0.00     0.290 C 
BRANCH  24  25
ATOM     25  C   UNL     1       0.919  -6.502 -27.215  1.00  0.00     0.303 C 
BRANCH  25  26
ATOM     26  N   UNL     1       1.224  -7.328 -28.344  1.00  0.00    -0.337 N 
ATOM     27  C   UNL     1       0.116  -7.482 -29.261  1.00  0.00     0.332 C 
ATOM     28  C   UNL     1       1.653  -8.660 -27.967  1.00  0.00     0.332 C 
ATOM     29  H   UNL     1       2.025  -6.923 -28.914  1.00  0.00     0.347 HD
ENDBRANCH  25  26
ENDBRANCH  24  25
ENDBRANCH   1  24
TORSDOF 8
ENDMDL
MODEL 9
REMARK VINA RESULT:      -5.5      0.998      1.587
REMARK SMILES CC/C(=C(\c1ccccc1)c1ccc(OCC[NH+](C)C)cc1)c1ccccc1
REMARK SMILES IDX 15 1 14 2 11 3 12 4 22 5 13 6 21 7 4 8 3 9 2 10 1 11 23 12
REMARK SMILES IDX 24 13 28 14 25 15 27 16 26 17 5 18 6 19 10 20 7 21 9 22 8 23
REMARK SMILES IDX 16 24 17 25 18 26 19 27 20 28
REMARK H PARENT 18 29
ROOT
ATOM      1  O   UNL     1      -0.001  -7.437 -25.701  1.00  0.00    -0.488 OA
ENDROOT
BRANCH   1   2
ATOM      2  C   UNL     1      -1.014  -7.335 -24.766  1.00  0.00     0.119 A 
ATOM      3  C   UNL     1      -3.051  -7.203 -22.768  1.00  0.00    -0.017 A 
ATOM      4  C   UNL     1      -3.062  -6.377 -23.874  1.00  0.00     0.012 A 
ATOM      5  C   UNL     1      -1.990  -8.100 -22.690  1.00  0.00     0.012 A 
ATOM      6  C   UNL     1      -2.066  -6.453 -24.835  1.00  0.00     0.047 A 
ATOM      7  C   UNL     1      -1.007  -8.173 -23.641  1.00  0.00     0.047 A 
BRANCH   3   8
ATOM      8  C   UNL     1      -4.093  -7.163 -21.758  1.00  0.00    -0.007 C 
ATOM      9  C   UNL     1      -3.861  -7.400 -20.492  1.00  0.00    -0.033 C 
BRANCH   9  10
ATOM     10  C   UNL     1      -4.898  -7.419 -19.425  1.00  0.00     0.033 C 
ATOM     11  C   UNL     1      -4.683  -8.626 -18.560  1.00  0.00     0.009 C 
ENDBRANCH   9  10
BRANCH   9  12
ATOM     12  C   UNL     1      -2.488  -7.610 -19.999  1.00  0.00    -0.022 A 
ATOM     13  C   UNL     1      -1.704  -6.572 -19.565  1.00  0.00     0.008 A 
ATOM     14  C   UNL     1      -1.994  -8.880 -19.990  1.00  0.00     0.008 A 
ATOM     15  C   UNL     1      -0.429  -6.820 -19.125  1.00  0.00     0.001 A 
ATOM     16  C   UNL     1      -0.701  -9.177 -19.551  1.00  0.00     0.001 A 
ATOM     17  C   UNL     1       0.061  -8.116 -19.121  1.00  0.00     0.000 A 
ENDBRANCH   9  12
BRANCH   8  18
ATOM     18  C   UNL     1      -5.447  -6.883 -22.192  1.00  0.00    -0.018 A 
ATOM     19  C   UNL     1      -5.733  -5.934 -23.153  1.00  0.00     0.009 A 
ATOM     20  C   UNL     1      -6.510  -7.553 -21.593  1.00  0.00     0.009 A 
ATOM     21  C   UNL     1      -7.040  -5.685 -23.483  1.00  0.00     0.001 A 
ATOM     22  C   UNL     1      -7.827  -7.316 -21.913  1.00  0.00     0.001 A 
ATOM     23  C   UNL     1      -8.088  -6.355 -22.885  1.00  0.00     0.000 A 
ENDBRANCH   8  18
ENDBRANCH   3   8
ENDBRANCH   1   2
BRANCH   1  24
ATOM     24  C   UNL     1      -0.012  -7.065 -27.034  1.00  0.00     0.290 C 
BRANCH  24  25
ATOM     25  C   UNL     1       1.200  -7.463 -27.835  1.00  0.00     0.303 C 
BRANCH  25  26
ATOM     26  N   UNL     1       0.920  -7.620 -29.230  1.00  0.00    -0.337 N 
ATOM     27  C   UNL     1       1.331  -6.487 -30.031  1.00  0.00     0.332 C 
ATOM     28  C   UNL     1      -0.486  -7.845 -29.500  1.00  0.00     0.332 C 
ATOM     29  H   UNL     1       1.424  -8.465 -29.634  1.00  0.00     0.347 HD
ENDBRANCH  25  26
ENDBRANCH  24  25
ENDBRANCH   1  24
TORSDOF 8
ENDMDL
