MODEL 1
REMARK VINA RESULT:      -7.1      0.000      0.000
REMARK SMILES O=c1cc(-c2ccccc2)oc2cc([O-])c(O)c([O-])c12
REMARK SMILES IDX 1 1 2 2 3 3 4 4 11 5 12 6 13 7 14 8 15 9 16 10 18 11 19 12
REMARK SMILES IDX 20 13 5 14 6 15 10 16 7 17 9 18 8 19 17 20
REMARK H PARENT 17 21
ROOT
ATOM      1  O   UNL     1     -25.645  33.281 -11.319  1.00  0.00    -0.289 OA
ATOM      2  C   UNL     1     -24.423  33.120 -11.552  1.00  0.00     0.192 A 
ATOM      3  C   UNL     1     -23.509  34.178 -11.505  1.00  0.00     0.100 A 
ATOM      4  C   UNL     1     -22.173  34.022 -11.755  1.00  0.00     0.138 A 
ATOM      5  O   UNL     1     -21.779  32.798 -12.050  1.00  0.00    -0.456 OA
ATOM      6  C   UNL     1     -22.580  31.765 -12.111  1.00  0.00     0.137 A 
ATOM      7  C   UNL     1     -22.096  30.491 -12.430  1.00  0.00     0.043 A 
ATOM      8  C   UNL     1     -22.943  29.422 -12.490  1.00  0.00    -0.063 A 
ATOM      9  O   UNL     1     -22.403  28.180 -12.813  1.00  0.00    -0.870 OA
ATOM     10  C   UNL     1     -24.296  29.535 -12.245  1.00  0.00     0.100 A 
ATOM     11  C   UNL     1     -24.785  30.770 -11.932  1.00  0.00    -0.051 A 
ATOM     12  O   UNL     1     -26.137  30.899 -11.684  1.00  0.00    -0.869 OA
ATOM     13  C   UNL     1     -23.933  31.873 -11.867  1.00  0.00     0.060 A 
ENDROOT
BRANCH   4  14
ATOM     14  C   UNL     1     -21.245  35.136 -11.700  1.00  0.00     0.017 A 
ATOM     15  C   UNL     1     -20.017  35.100 -11.101  1.00  0.00     0.012 A 
ATOM     16  C   UNL     1     -21.615  36.343 -12.300  1.00  0.00     0.012 A 
ATOM     17  C   UNL     1     -19.174  36.220 -11.088  1.00  0.00     0.001 A 
ATOM     18  C   UNL     1     -20.790  37.448 -12.292  1.00  0.00     0.001 A 
ATOM     19  C   UNL     1     -19.556  37.400 -11.684  1.00  0.00     0.000 A 
ENDBRANCH   4  14
BRANCH  10  20
ATOM     20  O   UNL     1     -25.120  28.406 -12.320  1.00  0.00    -0.509 OA
ATOM     21  H   UNL     1     -24.829  27.558 -11.830  1.00  0.00     0.293 HD
ENDBRANCH  10  20
TORSDOF 2
ENDMDL
MODEL 2
REMARK VINA RESULT:      -6.9      2.409      6.934
REMARK SMILES O=c1cc(-c2ccccc2)oc2cc([O-])c(O)c([O-])c12
REMARK SMILES IDX 1 1 2 2 3 3 4 4 11 5 12 6 13 7 14 8 15 9 16 10 18 11 19 12
REMARK SMILES IDX 20 13 5 14 6 15 10 16 7 17 9 18 8 19 17 20
REMARK H PARENT 17 21
ROOT
ATOM      1  O   UNL     1     -19.300  33.446 -11.399  1.00  0.00    -0.289 OA
ATOM      2  C   UNL     1     -20.553  33.512 -11.413  1.00  0.00     0.192 A 
ATOM      3  C   UNL     1     -21.357  32.389 -11.632  1.00  0.00     0.100 A 
ATOM      4  C   UNL     1     -22.724  32.441 -11.651  1.00  0.00     0.138 A 
ATOM      5  O   UNL     1     -23.260  33.629 -11.448  1.00  0.00    -0.456 OA
ATOM      6  C   UNL     1     -22.567  34.719 -11.237  1.00  0.00     0.137 A 
ATOM      7  C   UNL     1     -23.200  35.950 -11.028  1.00  0.00     0.043 A 
ATOM      8  C   UNL     1     -22.465  37.080 -10.810  1.00  0.00    -0.063 A 
ATOM      9  O   UNL     1     -23.150  38.275 -10.609  1.00  0.00    -0.870 OA
ATOM     10  C   UNL     1     -21.086  37.071 -10.783  1.00  0.00     0.100 A 
ATOM     11  C   UNL     1     -20.452  35.879 -10.984  1.00  0.00    -0.051 A 
ATOM     12  O   UNL     1     -19.072  35.855 -10.960  1.00  0.00    -0.869 OA
ATOM     13  C   UNL     1     -21.189  34.716 -11.209  1.00  0.00     0.060 A 
ENDROOT
BRANCH   4  14
ATOM     14  C   UNL     1     -23.536  31.261 -11.880  1.00  0.00     0.017 A 
ATOM     15  C   UNL     1     -23.162  30.194 -12.649  1.00  0.00     0.012 A 
ATOM     16  C   UNL     1     -24.796  31.190 -11.279  1.00  0.00     0.012 A 
ATOM     17  C   UNL     1     -24.004  29.086 -12.824  1.00  0.00     0.001 A 
ATOM     18  C   UNL     1     -25.627  30.104 -11.447  1.00  0.00     0.001 A 
ATOM     19  C   UNL     1     -25.241  29.035 -12.224  1.00  0.00     0.000 A 
ENDBRANCH   4  14
BRANCH  10  20
ATOM     20  O   UNL     1     -20.380  38.259 -10.554  1.00  0.00    -0.509 OA
ATOM     21  H   UNL     1     -20.335  38.950 -11.305  1.00  0.00     0.293 HD
ENDBRANCH  10  20
TORSDOF 2
ENDMDL
MODEL 3
REMARK VINA RESULT:      -6.7      2.350      6.925
REMARK SMILES O=c1cc(-c2ccccc2)oc2cc([O-])c(O)c([O-])c12
REMARK SMILES IDX 1 1 2 2 3 3 4 4 11 5 12 6 13 7 14 8 15 9 16 10 18 11 19 12
REMARK SMILES IDX 20 13 5 14 6 15 10 16 7 17 9 18 8 19 17 20
REMARK H PARENT 17 21
ROOT
ATOM      1  O   UNL     1     -19.723  32.611 -11.361  1.00  0.00    -0.289 OA
ATOM      2  C   UNL     1     -20.926  32.955 -11.462  1.00  0.00     0.192 A 
ATOM      3  C   UNL     1     -21.932  32.053 -11.824  1.00  0.00     0.100 A 
ATOM      4  C   UNL     1     -23.248  32.410 -11.940  1.00  0.00     0.138 A 
ATOM      5  O   UNL     1     -23.529  33.673 -11.687  1.00  0.00    -0.456 OA
ATOM      6  C   UNL     1     -22.638  34.567 -11.344  1.00  0.00     0.137 A 
ATOM      7  C   UNL     1     -23.005  35.894 -11.089  1.00  0.00     0.043 A 
ATOM      8  C   UNL     1     -22.064  36.817 -10.731  1.00  0.00    -0.063 A 
ATOM      9  O   UNL     1     -22.489  38.121 -10.491  1.00  0.00    -0.870 OA
ATOM     10  C   UNL     1     -20.728  36.501 -10.603  1.00  0.00     0.100 A 
ATOM     11  C   UNL     1     -20.352  35.211 -10.848  1.00  0.00    -0.051 A 
ATOM     12  O   UNL     1     -19.018  34.880 -10.724  1.00  0.00    -0.869 OA
ATOM     13  C   UNL     1     -21.301  34.256 -11.214  1.00  0.00     0.060 A 
ENDROOT
BRANCH   4  14
ATOM     14  C   UNL     1     -24.273  31.455 -12.318  1.00  0.00     0.017 A 
ATOM     15  C   UNL     1     -25.427  31.769 -12.979  1.00  0.00     0.012 A 
ATOM     16  C   UNL     1     -24.084  30.109 -11.990  1.00  0.00     0.012 A 
ATOM     17  C   UNL     1     -26.372  30.789 -13.311  1.00  0.00     0.001 A 
ATOM     18  C   UNL     1     -25.010  29.140 -12.314  1.00  0.00     0.001 A 
ATOM     19  C   UNL     1     -26.169  29.468 -12.981  1.00  0.00     0.000 A 
ENDBRANCH   4  14
BRANCH  10  20
ATOM     20  O   UNL     1     -19.805  37.486 -10.234  1.00  0.00    -0.509 OA
ATOM     21  H   UNL     1     -18.815  37.234 -10.190  1.00  0.00     0.293 HD
ENDBRANCH  10  20
TORSDOF 2
ENDMDL
MODEL 4
REMARK VINA RESULT:      -6.7      2.570      7.016
REMARK SMILES O=c1cc(-c2ccccc2)oc2cc([O-])c(O)c([O-])c12
REMARK SMILES IDX 1 1 2 2 3 3 4 4 11 5 12 6 13 7 14 8 15 9 16 10 18 11 19 12
REMARK SMILES IDX 20 13 5 14 6 15 10 16 7 17 9 18 8 19 17 20
REMARK H PARENT 17 21
ROOT
ATOM      1  O   UNL     1     -18.978  34.333 -10.503  1.00  0.00    -0.289 OA
ATOM      2  C   UNL     1     -20.094  34.258 -11.071  1.00  0.00     0.192 A 
ATOM      3  C   UNL     1     -20.767  33.043 -11.235  1.00  0.00     0.100 A 
ATOM      4  C   UNL     1     -21.985  32.942 -11.852  1.00  0.00     0.138 A 
ATOM      5  O   UNL     1     -22.505  34.071 -12.293  1.00  0.00    -0.456 OA
ATOM      6  C   UNL     1     -21.929  35.239 -12.172  1.00  0.00     0.137 A 
ATOM      7  C   UNL     1     -22.537  36.400 -12.664  1.00  0.00     0.043 A 
ATOM      8  C   UNL     1     -21.925  37.614 -12.531  1.00  0.00    -0.063 A 
ATOM      9  O   UNL     1     -22.578  38.733 -13.040  1.00  0.00    -0.870 OA
ATOM     10  C   UNL     1     -20.699  37.760 -11.917  1.00  0.00     0.100 A 
ATOM     11  C   UNL     1     -20.091  36.639 -11.431  1.00  0.00    -0.051 A 
ATOM     12  O   UNL     1     -18.864  36.770 -10.814  1.00  0.00    -0.869 OA
ATOM     13  C   UNL     1     -20.704  35.391 -11.559  1.00  0.00     0.060 A 
ENDROOT
BRANCH   4  14
ATOM     14  C   UNL     1     -22.663  31.669 -12.011  1.00  0.00     0.017 A 
ATOM     15  C   UNL     1     -22.403  30.764 -13.001  1.00  0.00     0.012 A 
ATOM     16  C   UNL     1     -23.659  31.325 -11.092  1.00  0.00     0.012 A 
ATOM     17  C   UNL     1     -23.102  29.552 -13.090  1.00  0.00     0.001 A 
ATOM     18  C   UNL     1     -24.350  30.134 -11.173  1.00  0.00     0.001 A 
ATOM     19  C   UNL     1     -24.079  29.230 -12.176  1.00  0.00     0.000 A 
ENDBRANCH   4  14
BRANCH  10  20
ATOM     20  O   UNL     1     -20.115  39.028 -11.807  1.00  0.00    -0.509 OA
ATOM     21  H   UNL     1     -20.517  39.797 -12.345  1.00  0.00     0.293 HD
ENDBRANCH  10  20
TORSDOF 2
ENDMDL
MODEL 5
REMARK VINA RESULT:      -6.6      2.562      7.021
REMARK SMILES O=c1cc(-c2ccccc2)oc2cc([O-])c(O)c([O-])c12
REMARK SMILES IDX 1 1 2 2 3 3 4 4 11 5 12 6 13 7 14 8 15 9 16 10 18 11 19 12
REMARK SMILES IDX 20 13 5 14 6 15 10 16 7 17 9 18 8 19 17 20
REMARK H PARENT 17 21
ROOT
ATOM      1  O   UNL     1     -19.152  33.905 -11.113  1.00  0.00    -0.289 OA
ATOM      2  C   UNL     1     -20.404  33.925 -11.194  1.00  0.00     0.192 A 
ATOM      3  C   UNL     1     -21.156  32.764 -11.402  1.00  0.00     0.100 A 
ATOM      4  C   UNL     1     -22.521  32.765 -11.493  1.00  0.00     0.138 A 
ATOM      5  O   UNL     1     -23.108  33.941 -11.373  1.00  0.00    -0.456 OA
ATOM      6  C   UNL     1     -22.465  35.063 -11.179  1.00  0.00     0.137 A 
ATOM      7  C   UNL     1     -23.150  36.278 -11.060  1.00  0.00     0.043 A 
ATOM      8  C   UNL     1     -22.466  37.443 -10.857  1.00  0.00    -0.063 A 
ATOM      9  O   UNL     1     -23.202  38.620 -10.747  1.00  0.00    -0.870 OA
ATOM     10  C   UNL     1     -21.091  37.486 -10.759  1.00  0.00     0.100 A 
ATOM     11  C   UNL     1     -20.407  36.310 -10.872  1.00  0.00    -0.051 A 
ATOM     12  O   UNL     1     -19.031  36.338 -10.776  1.00  0.00    -0.869 OA
ATOM     13  C   UNL     1     -21.091  35.112 -11.080  1.00  0.00     0.060 A 
ENDROOT
BRANCH   4  14
ATOM     14  C   UNL     1     -23.279  31.547 -11.709  1.00  0.00     0.017 A 
ATOM     15  C   UNL     1     -24.463  31.245 -11.096  1.00  0.00     0.012 A 
ATOM     16  C   UNL     1     -22.778  30.599 -12.606  1.00  0.00     0.012 A 
ATOM     17  C   UNL     1     -25.139  30.044 -11.357  1.00  0.00     0.001 A 
ATOM     18  C   UNL     1     -23.437  29.417 -12.866  1.00  0.00     0.001 A 
ATOM     19  C   UNL     1     -24.629  29.123 -12.243  1.00  0.00     0.000 A 
ENDBRANCH   4  14
BRANCH  10  20
ATOM     20  O   UNL     1     -20.440  38.708 -10.550  1.00  0.00    -0.509 OA
ATOM     21  H   UNL     1     -20.541  39.164  -9.641  1.00  0.00     0.293 HD
ENDBRANCH  10  20
TORSDOF 2
ENDMDL
MODEL 6
REMARK VINA RESULT:      -6.5      2.304      6.783
REMARK SMILES O=c1cc(-c2ccccc2)oc2cc([O-])c(O)c([O-])c12
REMARK SMILES IDX 1 1 2 2 3 3 4 4 11 5 12 6 13 7 14 8 15 9 16 10 18 11 19 12
REMARK SMILES IDX 20 13 5 14 6 15 10 16 7 17 9 18 8 19 17 20
REMARK H PARENT 17 21
ROOT
ATOM      1  O   UNL     1     -19.450  31.937 -11.081  1.00  0.00    -0.289 OA
ATOM      2  C   UNL     1     -20.582  32.427 -11.315  1.00  0.00     0.192 A 
ATOM      3  C   UNL     1     -21.661  31.643 -11.736  1.00  0.00     0.100 A 
ATOM      4  C   UNL     1     -22.901  32.160 -11.997  1.00  0.00     0.138 A 
ATOM      5  O   UNL     1     -23.032  33.462 -11.829  1.00  0.00    -0.456 OA
ATOM      6  C   UNL     1     -22.065  34.251 -11.439  1.00  0.00     0.137 A 
ATOM      7  C   UNL     1     -22.272  35.626 -11.280  1.00  0.00     0.043 A 
ATOM      8  C   UNL     1     -21.253  36.439 -10.873  1.00  0.00    -0.063 A 
ATOM      9  O   UNL     1     -21.520  37.798 -10.733  1.00  0.00    -0.870 OA
ATOM     10  C   UNL     1     -19.989  35.960 -10.599  1.00  0.00     0.100 A 
ATOM     11  C   UNL     1     -19.769  34.621 -10.748  1.00  0.00    -0.051 A 
ATOM     12  O   UNL     1     -18.509  34.127 -10.478  1.00  0.00    -0.869 OA
ATOM     13  C   UNL     1     -20.800  33.777 -11.164  1.00  0.00     0.060 A 
ENDROOT
BRANCH   4  14
ATOM     14  C   UNL     1     -24.005  31.326 -12.432  1.00  0.00     0.017 A 
ATOM     15  C   UNL     1     -24.007  29.959 -12.411  1.00  0.00     0.012 A 
ATOM     16  C   UNL     1     -25.162  31.947 -12.912  1.00  0.00     0.012 A 
ATOM     17  C   UNL     1     -25.115  29.220 -12.849  1.00  0.00     0.001 A 
ATOM     18  C   UNL     1     -26.255  31.226 -13.344  1.00  0.00     0.001 A 
ATOM     19  C   UNL     1     -26.246  29.850 -13.318  1.00  0.00     0.000 A 
ENDBRANCH   4  14
BRANCH  10  20
ATOM     20  O   UNL     1     -18.981  36.837 -10.184  1.00  0.00    -0.509 OA
ATOM     21  H   UNL     1     -18.152  36.939 -10.772  1.00  0.00     0.293 HD
ENDBRANCH  10  20
TORSDOF 2
ENDMDL
MODEL 7
REMARK VINA RESULT:      -6.3     10.231     12.058
REMARK SMILES O=c1cc(-c2ccccc2)oc2cc([O-])c(O)c([O-])c12
REMARK SMILES IDX 1 1 2 2 3 3 4 4 11 5 12 6 13 7 14 8 15 9 16 10 18 11 19 12
REMARK SMILES IDX 20 13 5 14 6 15 10 16 7 17 9 18 8 19 17 20
REMARK H PARENT 17 21
ROOT
ATOM      1  O   UNL     1     -19.271  37.493  -4.620  1.00  0.00    -0.289 OA
ATOM      2  C   UNL     1     -19.802  37.648  -3.493  1.00  0.00     0.192 A 
ATOM      3  C   UNL     1     -19.049  37.903  -2.342  1.00  0.00     0.100 A 
ATOM      4  C   UNL     1     -19.611  38.073  -1.106  1.00  0.00     0.138 A 
ATOM      5  O   UNL     1     -20.926  37.985  -1.051  1.00  0.00    -0.456 OA
ATOM      6  C   UNL     1     -21.688  37.749  -2.088  1.00  0.00     0.137 A 
ATOM      7  C   UNL     1     -23.079  37.668  -1.959  1.00  0.00     0.043 A 
ATOM      8  C   UNL     1     -23.864  37.421  -3.049  1.00  0.00    -0.063 A 
ATOM      9  O   UNL     1     -25.241  37.351  -2.859  1.00  0.00    -0.870 OA
ATOM     10  C   UNL     1     -23.339  37.243  -4.312  1.00  0.00     0.100 A 
ATOM     11  C   UNL     1     -21.984  37.319  -4.456  1.00  0.00    -0.051 A 
ATOM     12  O   UNL     1     -21.445  37.143  -5.714  1.00  0.00    -0.869 OA
ATOM     13  C   UNL     1     -21.169  37.570  -3.352  1.00  0.00     0.060 A 
ENDROOT
BRANCH   4  14
ATOM     14  C   UNL     1     -18.808  38.336   0.073  1.00  0.00     0.017 A 
ATOM     15  C   UNL     1     -17.504  38.747   0.054  1.00  0.00     0.012 A 
ATOM     16  C   UNL     1     -19.393  38.164   1.331  1.00  0.00     0.012 A 
ATOM     17  C   UNL     1     -16.792  38.982   1.239  1.00  0.00     0.001 A 
ATOM     18  C   UNL     1     -18.698  38.393   2.500  1.00  0.00     0.001 A 
ATOM     19  C   UNL     1     -17.385  38.806   2.469  1.00  0.00     0.000 A 
ENDBRANCH   4  14
BRANCH  10  20
ATOM     20  O   UNL     1     -24.189  36.993  -5.396  1.00  0.00    -0.509 OA
ATOM     21  H   UNL     1     -23.849  37.197  -6.338  1.00  0.00     0.293 HD
ENDBRANCH  10  20
TORSDOF 2
ENDMDL
MODEL 8
REMARK VINA RESULT:      -6.3     10.238     12.065
REMARK SMILES O=c1cc(-c2ccccc2)oc2cc([O-])c(O)c([O-])c12
REMARK SMILES IDX 1 1 2 2 3 3 4 4 11 5 12 6 13 7 14 8 15 9 16 10 18 11 19 12
REMARK SMILES IDX 20 13 5 14 6 15 10 16 7 17 9 18 8 19 17 20
REMARK H PARENT 17 21
ROOT
ATOM      1  O   UNL     1     -19.298  37.523  -4.571  1.00  0.00    -0.289 OA
ATOM      2  C   UNL     1     -19.843  37.668  -3.450  1.00  0.00     0.192 A 
ATOM      3  C   UNL     1     -19.104  37.914  -2.288  1.00  0.00     0.100 A 
ATOM      4  C   UNL     1     -19.681  38.074  -1.057  1.00  0.00     0.138 A 
ATOM      5  O   UNL     1     -20.996  37.982  -1.018  1.00  0.00    -0.456 OA
ATOM      6  C   UNL     1     -21.746  37.754  -2.066  1.00  0.00     0.137 A 
ATOM      7  C   UNL     1     -23.138  37.669  -1.955  1.00  0.00     0.043 A 
ATOM      8  C   UNL     1     -23.909  37.430  -3.057  1.00  0.00    -0.063 A 
ATOM      9  O   UNL     1     -25.288  37.356  -2.884  1.00  0.00    -0.870 OA
ATOM     10  C   UNL     1     -23.369  37.263  -4.315  1.00  0.00     0.100 A 
ATOM     11  C   UNL     1     -22.012  37.343  -4.442  1.00  0.00    -0.051 A 
ATOM     12  O   UNL     1     -21.458  37.178  -5.695  1.00  0.00    -0.869 OA
ATOM     13  C   UNL     1     -21.211  37.586  -3.326  1.00  0.00     0.060 A 
ENDROOT
BRANCH   4  14
ATOM     14  C   UNL     1     -18.893  38.328   0.134  1.00  0.00     0.017 A 
ATOM     15  C   UNL     1     -19.337  38.157   1.415  1.00  0.00     0.012 A 
ATOM     16  C   UNL     1     -17.580  38.782  -0.019  1.00  0.00     0.012 A 
ATOM     17  C   UNL     1     -18.515  38.424   2.519  1.00  0.00     0.001 A 
ATOM     18  C   UNL     1     -16.766  39.047   1.062  1.00  0.00     0.001 A 
ATOM     19  C   UNL     1     -17.224  38.871   2.348  1.00  0.00     0.000 A 
ENDBRANCH   4  14
BRANCH  10  20
ATOM     20  O   UNL     1     -24.205  37.020  -5.412  1.00  0.00    -0.509 OA
ATOM     21  H   UNL     1     -24.721  36.139  -5.445  1.00  0.00     0.293 HD
ENDBRANCH  10  20
TORSDOF 2
ENDMDL
MODEL 9
REMARK VINA RESULT:      -6.2      2.489      6.556
REMARK SMILES O=c1cc(-c2ccccc2)oc2cc([O-])c(O)c([O-])c12
REMARK SMILES IDX 1 1 2 2 3 3 4 4 11 5 12 6 13 7 14 8 15 9 16 10 18 11 19 12
REMARK SMILES IDX 20 13 5 14 6 15 10 16 7 17 9 18 8 19 17 20
REMARK H PARENT 17 21
ROOT
ATOM      1  O   UNL     1     -25.230  36.197 -11.003  1.00  0.00    -0.289 OA
ATOM      2  C   UNL     1     -24.297  35.365 -11.116  1.00  0.00     0.192 A 
ATOM      3  C   UNL     1     -24.534  34.008 -11.358  1.00  0.00     0.100 A 
ATOM      4  C   UNL     1     -23.531  33.086 -11.484  1.00  0.00     0.138 A 
ATOM      5  O   UNL     1     -22.302  33.550 -11.363  1.00  0.00    -0.456 OA
ATOM      6  C   UNL     1     -22.011  34.805 -11.137  1.00  0.00     0.137 A 
ATOM      7  C   UNL     1     -20.683  35.230 -11.020  1.00  0.00     0.043 A 
ATOM      8  C   UNL     1     -20.393  36.544 -10.783  1.00  0.00    -0.063 A 
ATOM      9  O   UNL     1     -19.053  36.907 -10.676  1.00  0.00    -0.870 OA
ATOM     10  C   UNL     1     -21.373  37.505 -10.649  1.00  0.00     0.100 A 
ATOM     11  C   UNL     1     -22.674  37.108 -10.761  1.00  0.00    -0.051 A 
ATOM     12  O   UNL     1     -23.666  38.058 -10.630  1.00  0.00    -0.869 OA
ATOM     13  C   UNL     1     -22.987  35.769 -11.003  1.00  0.00     0.060 A 
ENDROOT
BRANCH   4  14
ATOM     14  C   UNL     1     -23.802  31.683 -11.735  1.00  0.00     0.017 A 
ATOM     15  C   UNL     1     -22.959  30.831 -12.391  1.00  0.00     0.012 A 
ATOM     16  C   UNL     1     -25.009  31.145 -11.280  1.00  0.00     0.012 A 
ATOM     17  C   UNL     1     -23.292  29.484 -12.596  1.00  0.00     0.001 A 
ATOM     18  C   UNL     1     -25.342  29.822 -11.478  1.00  0.00     0.001 A 
ATOM     19  C   UNL     1     -24.485  28.972 -12.141  1.00  0.00     0.000 A 
ENDBRANCH   4  14
BRANCH  10  20
ATOM     20  O   UNL     1     -21.022  38.838 -10.407  1.00  0.00    -0.509 OA
ATOM     21  H   UNL     1     -20.698  39.406 -11.192  1.00  0.00     0.293 HD
ENDBRANCH  10  20
TORSDOF 2
ENDMDL
