MODEL 1
REMARK VINA RESULT:      -6.0      0.000      0.000
REMARK SMILES COc1ccc(/C=C/c2cc([O-])cc(O)c2)cc1
REMARK SMILES IDX 7 1 8 2 6 3 3 4 4 5 18 6 5 7 17 8 2 9 1 10 9 11 10 12 16 13
REMARK SMILES IDX 11 14 14 15 13 16 12 17 15 18
REMARK H PARENT 15 19
ROOT
ATOM      1  C   UNL     1     -21.614  33.594 -11.165  1.00  0.00     0.009 C 
ATOM      2  C   UNL     1     -21.965  34.807 -11.499  1.00  0.00     0.009 C 
ENDROOT
BRANCH   1   3
ATOM      3  C   UNL     1     -22.316  32.374 -11.545  1.00  0.00    -0.025 A 
ATOM      4  C   UNL     1     -23.722  30.012 -12.217  1.00  0.00     0.118 A 
ATOM      5  C   UNL     1     -24.015  30.714 -11.068  1.00  0.00     0.047 A 
ATOM      6  C   UNL     1     -22.719  30.505 -13.025  1.00  0.00     0.047 A 
ATOM      7  C   UNL     1     -23.323  31.867 -10.747  1.00  0.00     0.012 A 
ATOM      8  C   UNL     1     -22.039  31.658 -12.688  1.00  0.00     0.012 A 
BRANCH   4   9
ATOM      9  O   UNL     1     -24.424  28.848 -12.537  1.00  0.00    -0.497 OA
ATOM     10  C   UNL     1     -25.815  28.829 -12.286  1.00  0.00     0.278 C 
ENDBRANCH   4   9
ENDBRANCH   1   3
BRANCH   2  11
ATOM     11  C   UNL     1     -21.272  36.033 -11.126  1.00  0.00    -0.023 A 
ATOM     12  C   UNL     1     -21.773  36.947 -10.232  1.00  0.00    -0.000 A 
ATOM     13  C   UNL     1     -20.044  36.333 -11.676  1.00  0.00     0.054 A 
ATOM     14  C   UNL     1     -21.075  38.110  -9.903  1.00  0.00    -0.105 A 
ATOM     15  C   UNL     1     -19.340  37.474 -11.365  1.00  0.00     0.115 A 
ATOM     16  C   UNL     1     -19.856  38.384 -10.466  1.00  0.00     0.037 A 
ATOM     17  O   UNL     1     -21.588  39.029  -8.998  1.00  0.00    -0.872 OA
BRANCH  15  18
ATOM     18  O   UNL     1     -18.105  37.763 -11.928  1.00  0.00    -0.508 OA
ATOM     19  H   UNL     1     -17.597  38.542 -11.523  1.00  0.00     0.293 HD
ENDBRANCH  15  18
ENDBRANCH   2  11
TORSDOF 4
ENDMDL
MODEL 2
REMARK VINA RESULT:      -5.9      0.128      1.113
REMARK SMILES COc1ccc(/C=C/c2cc([O-])cc(O)c2)cc1
REMARK SMILES IDX 7 1 8 2 6 3 3 4 4 5 18 6 5 7 17 8 2 9 1 10 9 11 10 12 16 13
REMARK SMILES IDX 11 14 14 15 13 16 12 17 15 18
REMARK H PARENT 15 19
ROOT
ATOM      1  C   UNL     1     -21.646  33.680 -11.222  1.00  0.00     0.009 C 
ATOM      2  C   UNL     1     -22.064  34.904 -11.410  1.00  0.00     0.009 C 
ENDROOT
BRANCH   1   3
ATOM      3  C   UNL     1     -22.380  32.471 -11.574  1.00  0.00    -0.025 A 
ATOM      4  C   UNL     1     -23.764  30.119 -12.324  1.00  0.00     0.118 A 
ATOM      5  C   UNL     1     -22.796  30.668 -13.138  1.00  0.00     0.047 A 
ATOM      6  C   UNL     1     -24.030  30.760 -11.133  1.00  0.00     0.047 A 
ATOM      7  C   UNL     1     -22.125  31.816 -12.764  1.00  0.00     0.012 A 
ATOM      8  C   UNL     1     -23.350  31.907 -10.776  1.00  0.00     0.012 A 
BRANCH   4   9
ATOM      9  O   UNL     1     -24.440  28.958 -12.707  1.00  0.00    -0.497 OA
ATOM     10  C   UNL     1     -25.784  28.814 -12.296  1.00  0.00     0.278 C 
ENDBRANCH   4   9
ENDBRANCH   1   3
BRANCH   2  11
ATOM     11  C   UNL     1     -21.340  36.120 -11.063  1.00  0.00    -0.023 A 
ATOM     12  C   UNL     1     -21.803  37.049 -10.163  1.00  0.00    -0.000 A 
ATOM     13  C   UNL     1     -20.121  36.393 -11.644  1.00  0.00     0.054 A 
ATOM     14  C   UNL     1     -21.076  38.200  -9.859  1.00  0.00    -0.105 A 
ATOM     15  C   UNL     1     -19.389  37.523 -11.358  1.00  0.00     0.115 A 
ATOM     16  C   UNL     1     -19.866  38.448 -10.453  1.00  0.00     0.037 A 
ATOM     17  O   UNL     1     -21.550  39.134  -8.949  1.00  0.00    -0.872 OA
BRANCH  15  18
ATOM     18  O   UNL     1     -18.162  37.786 -11.952  1.00  0.00    -0.508 OA
ATOM     19  H   UNL     1     -17.987  38.749 -12.217  1.00  0.00     0.293 HD
ENDBRANCH  15  18
ENDBRANCH   2  11
TORSDOF 4
ENDMDL
MODEL 3
REMARK VINA RESULT:      -5.9      1.577      7.819
REMARK SMILES COc1ccc(/C=C/c2cc([O-])cc(O)c2)cc1
REMARK SMILES IDX 7 1 8 2 6 3 3 4 4 5 18 6 5 7 17 8 2 9 1 10 9 11 10 12 16 13
REMARK SMILES IDX 11 14 14 15 13 16 12 17 15 18
REMARK H PARENT 15 19
ROOT
ATOM      1  C   UNL     1     -21.688  33.321 -11.333  1.00  0.00     0.009 C 
ATOM      2  C   UNL     1     -22.475  32.847 -12.262  1.00  0.00     0.009 C 
ENDROOT
BRANCH   1   3
ATOM      3  C   UNL     1     -20.980  34.595 -11.392  1.00  0.00    -0.025 A 
ATOM      4  C   UNL     1     -19.544  37.031 -11.478  1.00  0.00     0.118 A 
ATOM      5  C   UNL     1     -18.953  35.870 -11.028  1.00  0.00     0.047 A 
ATOM      6  C   UNL     1     -20.859  36.958 -11.884  1.00  0.00     0.047 A 
ATOM      7  C   UNL     1     -19.662  34.684 -10.990  1.00  0.00     0.012 A 
ATOM      8  C   UNL     1     -21.552  35.765 -11.838  1.00  0.00     0.012 A 
BRANCH   4   9
ATOM      9  O   UNL     1     -18.823  38.226 -11.515  1.00  0.00    -0.497 OA
ATOM     10  C   UNL     1     -19.300  39.256 -12.359  1.00  0.00     0.278 C 
ENDBRANCH   4   9
ENDBRANCH   1   3
BRANCH   2  11
ATOM     11  C   UNL     1     -23.188  31.576 -12.215  1.00  0.00    -0.023 A 
ATOM     12  C   UNL     1     -24.543  31.472 -12.019  1.00  0.00    -0.000 A 
ATOM     13  C   UNL     1     -22.504  30.390 -12.371  1.00  0.00     0.054 A 
ATOM     14  C   UNL     1     -25.185  30.234 -11.981  1.00  0.00    -0.105 A 
ATOM     15  C   UNL     1     -23.119  29.159 -12.336  1.00  0.00     0.115 A 
ATOM     16  C   UNL     1     -24.480  29.069 -12.138  1.00  0.00     0.037 A 
ATOM     17  O   UNL     1     -26.555  30.136 -11.782  1.00  0.00    -0.872 OA
BRANCH  15  18
ATOM     18  O   UNL     1     -22.417  27.972 -12.494  1.00  0.00    -0.508 OA
ATOM     19  H   UNL     1     -22.690  27.389 -13.277  1.00  0.00     0.293 HD
ENDBRANCH  15  18
ENDBRANCH   2  11
TORSDOF 4
ENDMDL
MODEL 4
REMARK VINA RESULT:      -5.8      1.435      7.787
REMARK SMILES COc1ccc(/C=C/c2cc([O-])cc(O)c2)cc1
REMARK SMILES IDX 7 1 8 2 6 3 3 4 4 5 18 6 5 7 17 8 2 9 1 10 9 11 10 12 16 13
REMARK SMILES IDX 11 14 14 15 13 16 12 17 15 18
REMARK H PARENT 15 19
ROOT
ATOM      1  C   UNL     1     -21.792  33.271 -11.137  1.00  0.00     0.009 C 
ATOM      2  C   UNL     1     -22.629  32.851 -12.049  1.00  0.00     0.009 C 
ENDROOT
BRANCH   1   3
ATOM      3  C   UNL     1     -21.106  34.557 -11.145  1.00  0.00    -0.025 A 
ATOM      4  C   UNL     1     -19.838  37.087 -11.189  1.00  0.00     0.118 A 
ATOM      5  C   UNL     1     -21.140  36.934 -11.614  1.00  0.00     0.047 A 
ATOM      6  C   UNL     1     -19.180  35.961 -10.742  1.00  0.00     0.047 A 
ATOM      7  C   UNL     1     -21.752  35.694 -11.589  1.00  0.00     0.012 A 
ATOM      8  C   UNL     1     -19.806  34.731 -10.724  1.00  0.00     0.012 A 
BRANCH   4   9
ATOM      9  O   UNL     1     -19.224  38.341 -11.216  1.00  0.00    -0.497 OA
ATOM     10  C   UNL     1     -19.114  38.992 -12.466  1.00  0.00     0.278 C 
ENDBRANCH   4   9
ENDBRANCH   1   3
BRANCH   2  11
ATOM     11  C   UNL     1     -23.321  31.569 -12.052  1.00  0.00    -0.023 A 
ATOM     12  C   UNL     1     -24.617  31.403 -11.628  1.00  0.00    -0.000 A 
ATOM     13  C   UNL     1     -22.678  30.433 -12.496  1.00  0.00     0.054 A 
ATOM     14  C   UNL     1     -25.241  30.156 -11.648  1.00  0.00    -0.105 A 
ATOM     15  C   UNL     1     -23.276  29.194 -12.523  1.00  0.00     0.115 A 
ATOM     16  C   UNL     1     -24.578  29.042 -12.094  1.00  0.00     0.037 A 
ATOM     17  O   UNL     1     -26.551  29.997 -11.219  1.00  0.00    -0.872 OA
BRANCH  15  18
ATOM     18  O   UNL     1     -22.616  28.058 -12.973  1.00  0.00    -0.508 OA
ATOM     19  H   UNL     1     -23.201  27.298 -13.300  1.00  0.00     0.293 HD
ENDBRANCH  15  18
ENDBRANCH   2  11
TORSDOF 4
ENDMDL
MODEL 5
REMARK VINA RESULT:      -5.8      0.547      1.996
REMARK SMILES COc1ccc(/C=C/c2cc([O-])cc(O)c2)cc1
REMARK SMILES IDX 7 1 8 2 6 3 3 4 4 5 18 6 5 7 17 8 2 9 1 10 9 11 10 12 16 13
REMARK SMILES IDX 11 14 14 15 13 16 12 17 15 18
REMARK H PARENT 15 19
ROOT
ATOM      1  C   UNL     1     -21.873  34.096 -11.993  1.00  0.00     0.009 C 
ATOM      2  C   UNL     1     -21.350  34.703 -10.961  1.00  0.00     0.009 C 
ENDROOT
BRANCH   1   3
ATOM      3  C   UNL     1     -22.452  32.757 -11.984  1.00  0.00    -0.025 A 
ATOM      4  C   UNL     1     -23.613  30.178 -11.900  1.00  0.00     0.118 A 
ATOM      5  C   UNL     1     -23.880  31.112 -10.922  1.00  0.00     0.047 A 
ATOM      6  C   UNL     1     -22.761  30.549 -12.918  1.00  0.00     0.047 A 
ATOM      7  C   UNL     1     -23.308  32.370 -10.971  1.00  0.00     0.012 A 
ATOM      8  C   UNL     1     -22.199  31.810 -12.950  1.00  0.00     0.012 A 
BRANCH   4   9
ATOM      9  O   UNL     1     -24.192  28.909 -11.846  1.00  0.00    -0.497 OA
ATOM     10  C   UNL     1     -25.565  28.798 -12.168  1.00  0.00     0.278 C 
ENDBRANCH   4   9
ENDBRANCH   1   3
BRANCH   2  11
ATOM     11  C   UNL     1     -20.769  36.040 -10.958  1.00  0.00    -0.023 A 
ATOM     12  C   UNL     1     -19.585  36.355 -11.579  1.00  0.00    -0.000 A 
ATOM     13  C   UNL     1     -21.408  37.074 -10.308  1.00  0.00     0.054 A 
ATOM     14  C   UNL     1     -19.065  37.649 -11.552  1.00  0.00    -0.105 A 
ATOM     15  C   UNL     1     -20.911  38.357 -10.269  1.00  0.00     0.115 A 
ATOM     16  C   UNL     1     -19.721  38.659 -10.897  1.00  0.00     0.037 A 
ATOM     17  O   UNL     1     -17.868  37.961 -12.181  1.00  0.00    -0.872 OA
BRANCH  15  18
ATOM     18  O   UNL     1     -21.565  39.389  -9.610  1.00  0.00    -0.508 OA
ATOM     19  H   UNL     1     -22.314  39.844 -10.120  1.00  0.00     0.293 HD
ENDBRANCH  15  18
ENDBRANCH   2  11
TORSDOF 4
ENDMDL
MODEL 6
REMARK VINA RESULT:      -5.7      0.581      2.265
REMARK SMILES COc1ccc(/C=C/c2cc([O-])cc(O)c2)cc1
REMARK SMILES IDX 7 1 8 2 6 3 3 4 4 5 18 6 5 7 17 8 2 9 1 10 9 11 10 12 16 13
REMARK SMILES IDX 11 14 14 15 13 16 12 17 15 18
REMARK H PARENT 15 19
ROOT
ATOM      1  C   UNL     1     -22.506  34.187 -11.167  1.00  0.00     0.009 C 
ATOM      2  C   UNL     1     -21.324  34.634 -11.499  1.00  0.00     0.009 C 
ENDROOT
BRANCH   1   3
ATOM      3  C   UNL     1     -23.036  32.869 -11.496  1.00  0.00    -0.025 A 
ATOM      4  C   UNL     1     -24.001  30.297 -12.177  1.00  0.00     0.118 A 
ATOM      5  C   UNL     1     -22.786  30.751 -12.645  1.00  0.00     0.047 A 
ATOM      6  C   UNL     1     -24.725  31.144 -11.364  1.00  0.00     0.047 A 
ATOM      7  C   UNL     1     -22.323  32.008 -12.307  1.00  0.00     0.012 A 
ATOM      8  C   UNL     1     -24.246  32.397 -11.038  1.00  0.00     0.012 A 
BRANCH   4   9
ATOM      9  O   UNL     1     -24.465  29.026 -12.520  1.00  0.00    -0.497 OA
ATOM     10  C   UNL     1     -25.778  28.677 -12.130  1.00  0.00     0.278 C 
ENDBRANCH   4   9
ENDBRANCH   1   3
BRANCH   2  11
ATOM     11  C   UNL     1     -20.784  35.948 -11.176  1.00  0.00    -0.023 A 
ATOM     12  C   UNL     1     -19.622  36.446 -11.715  1.00  0.00    -0.000 A 
ATOM     13  C   UNL     1     -21.441  36.771 -10.286  1.00  0.00     0.054 A 
ATOM     14  C   UNL     1     -19.140  37.711 -11.378  1.00  0.00    -0.105 A 
ATOM     15  C   UNL     1     -20.982  38.022  -9.940  1.00  0.00     0.115 A 
ATOM     16  C   UNL     1     -19.814  38.508 -10.489  1.00  0.00     0.037 A 
ATOM     17  O   UNL     1     -17.966  38.206 -11.927  1.00  0.00    -0.872 OA
BRANCH  15  18
ATOM     18  O   UNL     1     -21.654  38.839  -9.042  1.00  0.00    -0.508 OA
ATOM     19  H   UNL     1     -22.020  38.388  -8.211  1.00  0.00     0.293 HD
ENDBRANCH  15  18
ENDBRANCH   2  11
TORSDOF 4
ENDMDL
MODEL 7
REMARK VINA RESULT:      -5.5      9.816     13.423
REMARK SMILES COc1ccc(/C=C/c2cc([O-])cc(O)c2)cc1
REMARK SMILES IDX 7 1 8 2 6 3 3 4 4 5 18 6 5 7 17 8 2 9 1 10 9 11 10 12 16 13
REMARK SMILES IDX 11 14 14 15 13 16 12 17 15 18
REMARK H PARENT 15 19
ROOT
ATOM      1  C   UNL     1     -19.654  37.661  -0.767  1.00  0.00     0.009 C 
ATOM      2  C   UNL     1     -20.617  38.348  -1.323  1.00  0.00     0.009 C 
ENDROOT
BRANCH   1   3
ATOM      3  C   UNL     1     -18.850  38.098   0.369  1.00  0.00    -0.025 A 
ATOM      4  C   UNL     1     -17.230  38.956   2.525  1.00  0.00     0.118 A 
ATOM      5  C   UNL     1     -16.740  38.911   1.237  1.00  0.00     0.047 A 
ATOM      6  C   UNL     1     -18.539  38.568   2.720  1.00  0.00     0.047 A 
ATOM      7  C   UNL     1     -17.538  38.490   0.190  1.00  0.00     0.012 A 
ATOM      8  C   UNL     1     -19.321  38.150   1.662  1.00  0.00     0.012 A 
BRANCH   4   9
ATOM      9  O   UNL     1     -16.420  39.382   3.579  1.00  0.00    -0.497 OA
ATOM     10  C   UNL     1     -15.155  38.767   3.726  1.00  0.00     0.278 C 
ENDBRANCH   4   9
ENDBRANCH   1   3
BRANCH   2  11
ATOM     11  C   UNL     1     -21.426  37.923  -2.458  1.00  0.00    -0.023 A 
ATOM     12  C   UNL     1     -20.933  37.776  -3.731  1.00  0.00    -0.000 A 
ATOM     13  C   UNL     1     -22.766  37.642  -2.290  1.00  0.00     0.054 A 
ATOM     14  C   UNL     1     -21.745  37.366  -4.789  1.00  0.00    -0.105 A 
ATOM     15  C   UNL     1     -23.583  37.237  -3.320  1.00  0.00     0.115 A 
ATOM     16  C   UNL     1     -23.074  37.095  -4.594  1.00  0.00     0.037 A 
ATOM     17  O   UNL     1     -21.239  37.220  -6.073  1.00  0.00    -0.872 OA
BRANCH  15  18
ATOM     18  O   UNL     1     -24.930  36.959  -3.136  1.00  0.00    -0.508 OA
ATOM     19  H   UNL     1     -25.347  36.302  -3.786  1.00  0.00     0.293 HD
ENDBRANCH  15  18
ENDBRANCH   2  11
TORSDOF 4
ENDMDL
MODEL 8
REMARK VINA RESULT:      -5.5     10.065     13.508
REMARK SMILES COc1ccc(/C=C/c2cc([O-])cc(O)c2)cc1
REMARK SMILES IDX 7 1 8 2 6 3 3 4 4 5 18 6 5 7 17 8 2 9 1 10 9 11 10 12 16 13
REMARK SMILES IDX 11 14 14 15 13 16 12 17 15 18
REMARK H PARENT 15 19
ROOT
ATOM      1  C   UNL     1     -19.381  38.083  -0.780  1.00  0.00     0.009 C 
ATOM      2  C   UNL     1     -20.683  37.978  -0.782  1.00  0.00     0.009 C 
ENDROOT
BRANCH   1   3
ATOM      3  C   UNL     1     -18.556  38.369   0.387  1.00  0.00    -0.025 A 
ATOM      4  C   UNL     1     -16.897  38.947   2.606  1.00  0.00     0.118 A 
ATOM      5  C   UNL     1     -16.455  39.140   1.315  1.00  0.00     0.047 A 
ATOM      6  C   UNL     1     -18.177  38.462   2.773  1.00  0.00     0.047 A 
ATOM      7  C   UNL     1     -17.272  38.855   0.237  1.00  0.00     0.012 A 
ATOM      8  C   UNL     1     -18.979  38.183   1.685  1.00  0.00     0.012 A 
BRANCH   4   9
ATOM      9  O   UNL     1     -16.068  39.236   3.692  1.00  0.00    -0.497 OA
ATOM     10  C   UNL     1     -15.294  38.182   4.227  1.00  0.00     0.278 C 
ENDBRANCH   4   9
ENDBRANCH   1   3
BRANCH   2  11
ATOM     11  C   UNL     1     -21.518  37.693  -1.942  1.00  0.00    -0.023 A 
ATOM     12  C   UNL     1     -22.889  37.618  -1.892  1.00  0.00    -0.000 A 
ATOM     13  C   UNL     1     -20.944  37.479  -3.177  1.00  0.00     0.054 A 
ATOM     14  C   UNL     1     -23.651  37.343  -3.027  1.00  0.00    -0.105 A 
ATOM     15  C   UNL     1     -21.678  37.205  -4.309  1.00  0.00     0.115 A 
ATOM     16  C   UNL     1     -23.053  37.133  -4.243  1.00  0.00     0.037 A 
ATOM     17  O   UNL     1     -25.035  37.269  -2.969  1.00  0.00    -0.872 OA
BRANCH  15  18
ATOM     18  O   UNL     1     -21.085  36.991  -5.546  1.00  0.00    -0.508 OA
ATOM     19  H   UNL     1     -20.077  36.886  -5.549  1.00  0.00     0.293 HD
ENDBRANCH  15  18
ENDBRANCH   2  11
TORSDOF 4
ENDMDL
MODEL 9
REMARK VINA RESULT:      -5.5      9.855     13.474
REMARK SMILES COc1ccc(/C=C/c2cc([O-])cc(O)c2)cc1
REMARK SMILES IDX 7 1 8 2 6 3 3 4 4 5 18 6 5 7 17 8 2 9 1 10 9 11 10 12 16 13
REMARK SMILES IDX 11 14 14 15 13 16 12 17 15 18
REMARK H PARENT 15 19
ROOT
ATOM      1  C   UNL     1     -19.032  37.630  -0.665  1.00  0.00     0.009 C 
ATOM      2  C   UNL     1     -19.474  38.327  -1.679  1.00  0.00     0.009 C 
ENDROOT
BRANCH   1   3
ATOM      3  C   UNL     1     -18.320  38.170   0.487  1.00  0.00    -0.025 A 
ATOM      4  C   UNL     1     -16.999  39.196   2.770  1.00  0.00     0.118 A 
ATOM      5  C   UNL     1     -18.254  38.632   2.865  1.00  0.00     0.047 A 
ATOM      6  C   UNL     1     -16.415  39.239   1.522  1.00  0.00     0.047 A 
ATOM      7  C   UNL     1     -18.891  38.133   1.745  1.00  0.00     0.012 A 
ATOM      8  C   UNL     1     -17.067  38.736   0.414  1.00  0.00     0.012 A 
BRANCH   4   9
ATOM      9  O   UNL     1     -16.359  39.699   3.904  1.00  0.00    -0.497 OA
ATOM     10  C   UNL     1     -14.958  39.878   3.843  1.00  0.00     0.278 C 
ENDBRANCH   4   9
ENDBRANCH   1   3
BRANCH   2  11
ATOM     11  C   UNL     1     -20.186  37.800  -2.836  1.00  0.00    -0.023 A 
ATOM     12  C   UNL     1     -19.637  37.714  -4.092  1.00  0.00    -0.000 A 
ATOM     13  C   UNL     1     -21.483  37.352  -2.709  1.00  0.00     0.054 A 
ATOM     14  C   UNL     1     -20.355  37.202  -5.173  1.00  0.00    -0.105 A 
ATOM     15  C   UNL     1     -22.208  36.844  -3.762  1.00  0.00     0.115 A 
ATOM     16  C   UNL     1     -21.645  36.764  -5.018  1.00  0.00     0.037 A 
ATOM     17  O   UNL     1     -19.793  37.119  -6.439  1.00  0.00    -0.872 OA
BRANCH  15  18
ATOM     18  O   UNL     1     -23.515  36.396  -3.620  1.00  0.00    -0.508 OA
ATOM     19  H   UNL     1     -23.668  35.666  -2.933  1.00  0.00     0.293 HD
ENDBRANCH  15  18
ENDBRANCH   2  11
TORSDOF 4
ENDMDL
