MODEL 1
REMARK VINA RESULT:      -6.5      0.000      0.000
REMARK SMILES O=C1c2ccccc2C(=O)c2c1ccc(O)c2O
REMARK SMILES IDX 1 1 2 2 3 3 4 4 5 5 6 6 7 7 8 8 9 9 10 10 11 11 12 12 13 13
REMARK SMILES IDX 14 14 15 15 17 16 18 17 16 19
REMARK H PARENT 18 18 16 20
ROOT
ATOM      1  O   UNL     1     -20.266  33.032 -12.028  1.00  0.00    -0.289 OA
ATOM      2  C   UNL     1     -21.520  33.156 -11.944  1.00  0.00     0.194 C 
ATOM      3  C   UNL     1     -22.084  34.435 -11.484  1.00  0.00     0.034 A 
ATOM      4  C   UNL     1     -21.217  35.482 -11.153  1.00  0.00     0.013 A 
ATOM      5  C   UNL     1     -21.768  36.663 -10.726  1.00  0.00     0.001 A 
ATOM      6  C   UNL     1     -23.123  36.815 -10.629  1.00  0.00     0.001 A 
ATOM      7  C   UNL     1     -23.967  35.793 -10.954  1.00  0.00     0.013 A 
ATOM      8  C   UNL     1     -23.452  34.577 -11.389  1.00  0.00     0.034 A 
ATOM      9  C   UNL     1     -24.351  33.491 -11.735  1.00  0.00     0.198 C 
ATOM     10  O   UNL     1     -25.593  33.663 -11.634  1.00  0.00    -0.288 OA
ATOM     11  C   UNL     1     -23.797  32.231 -12.187  1.00  0.00     0.079 A 
ATOM     12  C   UNL     1     -22.423  32.066 -12.289  1.00  0.00     0.038 A 
ATOM     13  C   UNL     1     -21.884  30.870 -12.720  1.00  0.00     0.017 A 
ATOM     14  C   UNL     1     -22.750  29.856 -13.041  1.00  0.00     0.051 A 
ATOM     15  C   UNL     1     -24.118  30.014 -12.940  1.00  0.00     0.158 A 
ATOM     16  C   UNL     1     -24.660  31.186 -12.519  1.00  0.00     0.169 A 
ENDROOT
BRANCH  16  17
ATOM     17  O   UNL     1     -26.017  31.420 -12.393  1.00  0.00    -0.504 OA
ATOM     18  H   UNL     1     -26.456  32.202 -12.855  1.00  0.00     0.293 HD
ENDBRANCH  16  17
BRANCH  15  19
ATOM     19  O   UNL     1     -24.993  28.974 -13.270  1.00  0.00    -0.504 OA
ATOM     20  H   UNL     1     -25.180  28.742 -14.248  1.00  0.00     0.293 HD
ENDBRANCH  15  19
TORSDOF 2
ENDMDL
MODEL 2
REMARK VINA RESULT:      -6.5      1.123      1.790
REMARK SMILES O=C1c2ccccc2C(=O)c2c1ccc(O)c2O
REMARK SMILES IDX 1 1 2 2 3 3 4 4 5 5 6 6 7 7 8 8 9 9 10 10 11 11 12 12 13 13
REMARK SMILES IDX 14 14 15 15 17 16 18 17 16 19
REMARK H PARENT 18 18 16 20
ROOT
ATOM      1  O   UNL     1     -20.028  32.152 -11.383  1.00  0.00    -0.289 OA
ATOM      2  C   UNL     1     -21.042  32.906 -11.378  1.00  0.00     0.194 C 
ATOM      3  C   UNL     1     -20.867  34.341 -11.102  1.00  0.00     0.034 A 
ATOM      4  C   UNL     1     -19.582  34.834 -10.853  1.00  0.00     0.013 A 
ATOM      5  C   UNL     1     -19.445  36.175 -10.597  1.00  0.00     0.001 A 
ATOM      6  C   UNL     1     -20.532  37.005 -10.588  1.00  0.00     0.001 A 
ATOM      7  C   UNL     1     -21.784  36.522 -10.832  1.00  0.00     0.013 A 
ATOM      8  C   UNL     1     -21.969  35.169 -11.094  1.00  0.00     0.034 A 
ATOM      9  C   UNL     1     -23.302  34.656 -11.355  1.00  0.00     0.198 C 
ATOM     10  O   UNL     1     -24.281  35.446 -11.339  1.00  0.00    -0.288 OA
ATOM     11  C   UNL     1     -23.476  33.243 -11.627  1.00  0.00     0.079 A 
ATOM     12  C   UNL     1     -22.380  32.392 -11.639  1.00  0.00     0.038 A 
ATOM     13  C   UNL     1     -22.535  31.044 -11.898  1.00  0.00     0.017 A 
ATOM     14  C   UNL     1     -23.802  30.580 -12.140  1.00  0.00     0.051 A 
ATOM     15  C   UNL     1     -24.895  31.422 -12.129  1.00  0.00     0.158 A 
ATOM     16  C   UNL     1     -24.756  32.749 -11.877  1.00  0.00     0.169 A 
ENDROOT
BRANCH  16  17
ATOM     17  O   UNL     1     -25.802  33.655 -11.849  1.00  0.00    -0.504 OA
ATOM     18  H   UNL     1     -26.519  33.601 -11.143  1.00  0.00     0.293 HD
ENDBRANCH  16  17
BRANCH  15  19
ATOM     19  O   UNL     1     -26.184  30.938 -12.378  1.00  0.00    -0.504 OA
ATOM     20  H   UNL     1     -26.397  29.945 -12.270  1.00  0.00     0.293 HD
ENDBRANCH  15  19
TORSDOF 2
ENDMDL
MODEL 3
REMARK VINA RESULT:      -6.4      1.568      5.628
REMARK SMILES O=C1c2ccccc2C(=O)c2c1ccc(O)c2O
REMARK SMILES IDX 1 1 2 2 3 3 4 4 5 5 6 6 7 7 8 8 9 9 10 10 11 11 12 12 13 13
REMARK SMILES IDX 14 14 15 15 17 16 18 17 16 19
REMARK H PARENT 18 18 16 20
ROOT
ATOM      1  O   UNL     1     -25.414  33.854 -11.203  1.00  0.00    -0.289 OA
ATOM      2  C   UNL     1     -24.337  33.236 -11.433  1.00  0.00     0.194 C 
ATOM      3  C   UNL     1     -24.388  31.798 -11.744  1.00  0.00     0.034 A 
ATOM      4  C   UNL     1     -25.628  31.153 -11.778  1.00  0.00     0.013 A 
ATOM      5  C   UNL     1     -25.649  29.813 -12.070  1.00  0.00     0.001 A 
ATOM      6  C   UNL     1     -24.492  29.128 -12.321  1.00  0.00     0.001 A 
ATOM      7  C   UNL     1     -23.283  29.760 -12.288  1.00  0.00     0.013 A 
ATOM      8  C   UNL     1     -23.216  31.117 -11.995  1.00  0.00     0.034 A 
ATOM      9  C   UNL     1     -21.929  31.789 -11.960  1.00  0.00     0.198 C 
ATOM     10  O   UNL     1     -20.883  31.131 -12.196  1.00  0.00    -0.288 OA
ATOM     11  C   UNL     1     -21.877  33.204 -11.654  1.00  0.00     0.079 A 
ATOM     12  C   UNL     1     -23.045  33.909 -11.397  1.00  0.00     0.038 A 
ATOM     13  C   UNL     1     -23.008  35.258 -11.105  1.00  0.00     0.017 A 
ATOM     14  C   UNL     1     -21.782  35.873 -11.076  1.00  0.00     0.051 A 
ATOM     15  C   UNL     1     -20.618  35.177 -11.330  1.00  0.00     0.158 A 
ATOM     16  C   UNL     1     -20.642  33.850 -11.620  1.00  0.00     0.169 A 
ENDROOT
BRANCH  16  17
ATOM     17  O   UNL     1     -19.519  33.087 -11.885  1.00  0.00    -0.504 OA
ATOM     18  H   UNL     1     -19.290  32.806 -12.826  1.00  0.00     0.293 HD
ENDBRANCH  16  17
BRANCH  15  19
ATOM     19  O   UNL     1     -19.372  35.814 -11.299  1.00  0.00    -0.504 OA
ATOM     20  H   UNL     1     -18.509  35.274 -11.387  1.00  0.00     0.293 HD
ENDBRANCH  15  19
TORSDOF 2
ENDMDL
MODEL 4
REMARK VINA RESULT:      -6.4      9.958     12.261
REMARK SMILES O=C1c2ccccc2C(=O)c2c1ccc(O)c2O
REMARK SMILES IDX 1 1 2 2 3 3 4 4 5 5 6 6 7 7 8 8 9 9 10 10 11 11 12 12 13 13
REMARK SMILES IDX 14 14 15 15 17 16 18 17 16 19
REMARK H PARENT 18 18 16 20
ROOT
ATOM      1  O   UNL     1     -17.758  38.188  -3.490  1.00  0.00    -0.289 OA
ATOM      2  C   UNL     1     -18.884  37.985  -2.956  1.00  0.00     0.194 C 
ATOM      3  C   UNL     1     -20.049  37.724  -3.817  1.00  0.00     0.034 A 
ATOM      4  C   UNL     1     -19.879  37.707  -5.205  1.00  0.00     0.013 A 
ATOM      5  C   UNL     1     -20.980  37.462  -5.986  1.00  0.00     0.001 A 
ATOM      6  C   UNL     1     -22.206  37.239  -5.424  1.00  0.00     0.001 A 
ATOM      7  C   UNL     1     -22.370  37.256  -4.070  1.00  0.00     0.013 A 
ATOM      8  C   UNL     1     -21.281  37.502  -3.241  1.00  0.00     0.034 A 
ATOM      9  C   UNL     1     -21.456  37.518  -1.799  1.00  0.00     0.198 C 
ATOM     10  O   UNL     1     -22.598  37.310  -1.314  1.00  0.00    -0.288 OA
ATOM     11  C   UNL     1     -20.310  37.775  -0.950  1.00  0.00     0.079 A 
ATOM     12  C   UNL     1     -19.061  38.002  -1.510  1.00  0.00     0.038 A 
ATOM     13  C   UNL     1     -17.962  38.247  -0.710  1.00  0.00     0.017 A 
ATOM     14  C   UNL     1     -18.149  38.260   0.649  1.00  0.00     0.051 A 
ATOM     15  C   UNL     1     -19.390  38.035   1.210  1.00  0.00     0.158 A 
ATOM     16  C   UNL     1     -20.478  37.792   0.434  1.00  0.00     0.169 A 
ENDROOT
BRANCH  16  17
ATOM     17  O   UNL     1     -21.750  37.558   0.922  1.00  0.00    -0.504 OA
ATOM     18  H   UNL     1     -22.185  36.653   0.832  1.00  0.00     0.293 HD
ENDBRANCH  16  17
BRANCH  15  19
ATOM     19  O   UNL     1     -19.570  38.049   2.598  1.00  0.00    -0.504 OA
ATOM     20  H   UNL     1     -20.476  38.292   3.002  1.00  0.00     0.293 HD
ENDBRANCH  15  19
TORSDOF 2
ENDMDL
MODEL 5
REMARK VINA RESULT:      -6.4      9.938     12.222
REMARK SMILES O=C1c2ccccc2C(=O)c2c1ccc(O)c2O
REMARK SMILES IDX 1 1 2 2 3 3 4 4 5 5 6 6 7 7 8 8 9 9 10 10 11 11 12 12 13 13
REMARK SMILES IDX 14 14 15 15 17 16 18 17 16 19
REMARK H PARENT 18 18 16 20
ROOT
ATOM      1  O   UNL     1     -19.632  37.429  -4.313  1.00  0.00    -0.289 OA
ATOM      2  C   UNL     1     -20.392  37.526  -3.308  1.00  0.00     0.194 C 
ATOM      3  C   UNL     1     -21.849  37.497  -3.508  1.00  0.00     0.034 A 
ATOM      4  C   UNL     1     -22.356  37.361  -4.805  1.00  0.00     0.013 A 
ATOM      5  C   UNL     1     -23.719  37.337  -4.964  1.00  0.00     0.001 A 
ATOM      6  C   UNL     1     -24.556  37.441  -3.888  1.00  0.00     0.001 A 
ATOM      7  C   UNL     1     -24.059  37.573  -2.625  1.00  0.00     0.013 A 
ATOM      8  C   UNL     1     -22.685  37.604  -2.417  1.00  0.00     0.034 A 
ATOM      9  C   UNL     1     -22.157  37.744  -1.071  1.00  0.00     0.198 C 
ATOM     10  O   UNL     1     -22.955  37.837  -0.103  1.00  0.00    -0.288 OA
ATOM     11  C   UNL     1     -20.722  37.773  -0.874  1.00  0.00     0.079 A 
ATOM     12  C   UNL     1     -19.863  37.667  -1.959  1.00  0.00     0.038 A 
ATOM     13  C   UNL     1     -18.494  37.693  -1.781  1.00  0.00     0.017 A 
ATOM     14  C   UNL     1     -18.016  37.827  -0.502  1.00  0.00     0.051 A 
ATOM     15  C   UNL     1     -18.866  37.933   0.580  1.00  0.00     0.158 A 
ATOM     16  C   UNL     1     -20.214  37.908   0.418  1.00  0.00     0.169 A 
ENDROOT
BRANCH  16  17
ATOM     17  O   UNL     1     -21.128  38.007   1.452  1.00  0.00    -0.504 OA
ATOM     18  H   UNL     1     -22.097  38.219   1.272  1.00  0.00     0.293 HD
ENDBRANCH  16  17
BRANCH  15  19
ATOM     19  O   UNL     1     -18.368  38.068   1.880  1.00  0.00    -0.504 OA
ATOM     20  H   UNL     1     -17.616  37.464   2.215  1.00  0.00     0.293 HD
ENDBRANCH  15  19
TORSDOF 2
ENDMDL
MODEL 6
REMARK VINA RESULT:      -6.3      2.124      5.891
REMARK SMILES O=C1c2ccccc2C(=O)c2c1ccc(O)c2O
REMARK SMILES IDX 1 1 2 2 3 3 4 4 5 5 6 6 7 7 8 8 9 9 10 10 11 11 12 12 13 13
REMARK SMILES IDX 14 14 15 15 17 16 18 17 16 19
REMARK H PARENT 18 18 16 20
ROOT
ATOM      1  O   UNL     1     -24.780  35.395 -10.959  1.00  0.00    -0.289 OA
ATOM      2  C   UNL     1     -23.692  34.761 -11.066  1.00  0.00     0.194 C 
ATOM      3  C   UNL     1     -23.729  33.301 -11.244  1.00  0.00     0.034 A 
ATOM      4  C   UNL     1     -24.968  32.652 -11.290  1.00  0.00     0.013 A 
ATOM      5  C   UNL     1     -24.975  31.290 -11.455  1.00  0.00     0.001 A 
ATOM      6  C   UNL     1     -23.807  30.588 -11.573  1.00  0.00     0.001 A 
ATOM      7  C   UNL     1     -22.601  31.223 -11.529  1.00  0.00     0.013 A 
ATOM      8  C   UNL     1     -22.547  32.602 -11.361  1.00  0.00     0.034 A 
ATOM      9  C   UNL     1     -21.262  33.278 -11.314  1.00  0.00     0.198 C 
ATOM     10  O   UNL     1     -20.206  32.603 -11.425  1.00  0.00    -0.288 OA
ATOM     11  C   UNL     1     -21.224  34.716 -11.139  1.00  0.00     0.079 A 
ATOM     12  C   UNL     1     -22.403  35.438 -11.018  1.00  0.00     0.038 A 
ATOM     13  C   UNL     1     -22.379  36.808 -10.852  1.00  0.00     0.017 A 
ATOM     14  C   UNL     1     -21.155  37.427 -10.810  1.00  0.00     0.051 A 
ATOM     15  C   UNL     1     -19.980  36.713 -10.928  1.00  0.00     0.158 A 
ATOM     16  C   UNL     1     -19.991  35.365 -11.093  1.00  0.00     0.169 A 
ENDROOT
BRANCH  16  17
ATOM     17  O   UNL     1     -18.857  34.583 -11.220  1.00  0.00    -0.504 OA
ATOM     18  H   UNL     1     -18.879  33.596 -11.017  1.00  0.00     0.293 HD
ENDBRANCH  16  17
BRANCH  15  19
ATOM     19  O   UNL     1     -18.737  37.353 -10.884  1.00  0.00    -0.504 OA
ATOM     20  H   UNL     1     -17.884  36.822 -10.696  1.00  0.00     0.293 HD
ENDBRANCH  15  19
TORSDOF 2
ENDMDL
MODEL 7
REMARK VINA RESULT:      -6.3      9.550     11.441
REMARK SMILES O=C1c2ccccc2C(=O)c2c1ccc(O)c2O
REMARK SMILES IDX 1 1 2 2 3 3 4 4 5 5 6 6 7 7 8 8 9 9 10 10 11 11 12 12 13 13
REMARK SMILES IDX 14 14 15 15 17 16 18 17 16 19
REMARK H PARENT 18 18 16 20
ROOT
ATOM      1  O   UNL     1     -18.187  37.750  -3.292  1.00  0.00    -0.289 OA
ATOM      2  C   UNL     1     -19.265  37.720  -2.635  1.00  0.00     0.194 C 
ATOM      3  C   UNL     1     -19.220  37.904  -1.176  1.00  0.00     0.034 A 
ATOM      4  C   UNL     1     -17.984  38.109  -0.554  1.00  0.00     0.013 A 
ATOM      5  C   UNL     1     -17.968  38.278   0.808  1.00  0.00     0.001 A 
ATOM      6  C   UNL     1     -19.126  38.248   1.535  1.00  0.00     0.001 A 
ATOM      7  C   UNL     1     -20.330  38.049   0.926  1.00  0.00     0.013 A 
ATOM      8  C   UNL     1     -20.392  37.871  -0.452  1.00  0.00     0.034 A 
ATOM      9  C   UNL     1     -21.675  37.660  -1.099  1.00  0.00     0.198 C 
ATOM     10  O   UNL     1     -22.721  37.638  -0.401  1.00  0.00    -0.288 OA
ATOM     11  C   UNL     1     -21.721  37.478  -2.536  1.00  0.00     0.079 A 
ATOM     12  C   UNL     1     -20.552  37.507  -3.283  1.00  0.00     0.038 A 
ATOM     13  C   UNL     1     -20.585  37.335  -4.653  1.00  0.00     0.017 A 
ATOM     14  C   UNL     1     -21.806  37.135  -5.245  1.00  0.00     0.051 A 
ATOM     15  C   UNL     1     -22.972  37.105  -4.506  1.00  0.00     0.158 A 
ATOM     16  C   UNL     1     -22.952  37.274  -3.158  1.00  0.00     0.169 A 
ENDROOT
BRANCH  16  17
ATOM     17  O   UNL     1     -24.076  37.257  -2.351  1.00  0.00    -0.504 OA
ATOM     18  H   UNL     1     -24.426  38.102  -1.928  1.00  0.00     0.293 HD
ENDBRANCH  16  17
BRANCH  15  19
ATOM     19  O   UNL     1     -24.213  36.902  -5.119  1.00  0.00    -0.504 OA
ATOM     20  H   UNL     1     -25.073  36.919  -4.569  1.00  0.00     0.293 HD
ENDBRANCH  15  19
TORSDOF 2
ENDMDL
MODEL 8
REMARK VINA RESULT:      -6.2      9.130     11.345
REMARK SMILES O=C1c2ccccc2C(=O)c2c1ccc(O)c2O
REMARK SMILES IDX 1 1 2 2 3 3 4 4 5 5 6 6 7 7 8 8 9 9 10 10 11 11 12 12 13 13
REMARK SMILES IDX 14 14 15 15 17 16 18 17 16 19
REMARK H PARENT 18 18 16 20
ROOT
ATOM      1  O   UNL     1     -23.011  38.078   0.145  1.00  0.00    -0.289 OA
ATOM      2  C   UNL     1     -22.299  37.913  -0.884  1.00  0.00     0.194 C 
ATOM      3  C   UNL     1     -20.835  37.854  -0.740  1.00  0.00     0.034 A 
ATOM      4  C   UNL     1     -20.271  37.981   0.534  1.00  0.00     0.013 A 
ATOM      5  C   UNL     1     -18.905  37.924   0.641  1.00  0.00     0.001 A 
ATOM      6  C   UNL     1     -18.118  37.746  -0.463  1.00  0.00     0.001 A 
ATOM      7  C   UNL     1     -18.670  37.622  -1.704  1.00  0.00     0.013 A 
ATOM      8  C   UNL     1     -20.051  37.676  -1.859  1.00  0.00     0.034 A 
ATOM      9  C   UNL     1     -20.638  37.542  -3.181  1.00  0.00     0.198 C 
ATOM     10  O   UNL     1     -19.886  37.380  -4.176  1.00  0.00    -0.288 OA
ATOM     11  C   UNL     1     -22.079  37.600  -3.324  1.00  0.00     0.079 A 
ATOM     12  C   UNL     1     -22.886  37.780  -2.210  1.00  0.00     0.038 A 
ATOM     13  C   UNL     1     -24.261  37.836  -2.335  1.00  0.00     0.017 A 
ATOM     14  C   UNL     1     -24.795  37.710  -3.592  1.00  0.00     0.051 A 
ATOM     15  C   UNL     1     -23.996  37.531  -4.703  1.00  0.00     0.158 A 
ATOM     16  C   UNL     1     -22.643  37.473  -4.593  1.00  0.00     0.169 A 
ENDROOT
BRANCH  16  17
ATOM     17  O   UNL     1     -21.778  37.296  -5.657  1.00  0.00    -0.504 OA
ATOM     18  H   UNL     1     -21.974  37.699  -6.560  1.00  0.00     0.293 HD
ENDBRANCH  16  17
BRANCH  15  19
ATOM     19  O   UNL     1     -24.551  37.402  -5.981  1.00  0.00    -0.504 OA
ATOM     20  H   UNL     1     -25.389  37.926  -6.239  1.00  0.00     0.293 HD
ENDBRANCH  15  19
TORSDOF 2
ENDMDL
MODEL 9
REMARK VINA RESULT:      -6.2      8.123     10.217
REMARK SMILES O=C1c2ccccc2C(=O)c2c1ccc(O)c2O
REMARK SMILES IDX 1 1 2 2 3 3 4 4 5 5 6 6 7 7 8 8 9 9 10 10 11 11 12 12 13 13
REMARK SMILES IDX 14 14 15 15 17 16 18 17 16 19
REMARK H PARENT 18 18 16 20
ROOT
ATOM      1  O   UNL     1     -19.187  38.172  -5.096  1.00  0.00    -0.289 OA
ATOM      2  C   UNL     1     -20.131  37.937  -4.289  1.00  0.00     0.194 C 
ATOM      3  C   UNL     1     -19.825  37.762  -2.861  1.00  0.00     0.034 A 
ATOM      4  C   UNL     1     -18.497  37.860  -2.432  1.00  0.00     0.013 A 
ATOM      5  C   UNL     1     -18.238  37.692  -1.095  1.00  0.00     0.001 A 
ATOM      6  C   UNL     1     -19.247  37.437  -0.208  1.00  0.00     0.001 A 
ATOM      7  C   UNL     1     -20.541  37.342  -0.629  1.00  0.00     0.013 A 
ATOM      8  C   UNL     1     -20.849  37.504  -1.975  1.00  0.00     0.034 A 
ATOM      9  C   UNL     1     -22.228  37.403  -2.421  1.00  0.00     0.198 C 
ATOM     10  O   UNL     1     -23.132  37.168  -1.580  1.00  0.00    -0.288 OA
ATOM     11  C   UNL     1     -22.530  37.576  -3.828  1.00  0.00     0.079 A 
ATOM     12  C   UNL     1     -21.513  37.835  -4.736  1.00  0.00     0.038 A 
ATOM     13  C   UNL     1     -21.791  38.002  -6.079  1.00  0.00     0.017 A 
ATOM     14  C   UNL     1     -23.098  37.902  -6.480  1.00  0.00     0.051 A 
ATOM     15  C   UNL     1     -24.113  37.643  -5.581  1.00  0.00     0.158 A 
ATOM     16  C   UNL     1     -23.853  37.479  -4.258  1.00  0.00     0.169 A 
ENDROOT
BRANCH  16  17
ATOM     17  O   UNL     1     -24.814  37.219  -3.298  1.00  0.00    -0.504 OA
ATOM     18  H   UNL     1     -25.408  36.407  -3.362  1.00  0.00     0.293 HD
ENDBRANCH  16  17
BRANCH  15  19
ATOM     19  O   UNL     1     -25.444  37.544  -6.000  1.00  0.00    -0.504 OA
ATOM     20  H   UNL     1     -25.806  38.157  -6.734  1.00  0.00     0.293 HD
ENDBRANCH  15  19
TORSDOF 2
ENDMDL
