MODEL 1
REMARK VINA RESULT:      -6.8      0.000      0.000
REMARK SMILES O=c1cc(-c2ccccc2)oc2cc(O)cc(O)c12
REMARK SMILES IDX 1 1 2 2 3 3 4 4 11 5 12 6 13 7 14 8 16 9 17 10 19 11 5 12
REMARK SMILES IDX 6 13 10 14 7 15 9 16 8 17 18 18 15 20
REMARK H PARENT 18 19 15 21
ROOT
ATOM      1  O   UNL     1     -19.268  33.246 -11.565  1.00  0.00    -0.289 OA
ATOM      2  C   UNL     1     -20.519  33.350 -11.518  1.00  0.00     0.197 A 
ATOM      3  C   UNL     1     -21.375  32.251 -11.686  1.00  0.00     0.100 A 
ATOM      4  C   UNL     1     -22.741  32.388 -11.630  1.00  0.00     0.138 A 
ATOM      5  O   UNL     1     -23.203  33.597 -11.413  1.00  0.00    -0.456 OA
ATOM      6  C   UNL     1     -22.455  34.660 -11.248  1.00  0.00     0.146 A 
ATOM      7  C   UNL     1     -23.007  35.916 -11.021  1.00  0.00     0.094 A 
ATOM      8  C   UNL     1     -22.253  37.050 -10.844  1.00  0.00     0.123 A 
ATOM      9  C   UNL     1     -20.880  36.956 -10.892  1.00  0.00     0.093 A 
ATOM     10  C   UNL     1     -20.295  35.729 -11.116  1.00  0.00     0.134 A 
ATOM     11  C   UNL     1     -21.080  34.584 -11.294  1.00  0.00     0.107 A 
ENDROOT
BRANCH   4  12
ATOM     12  C   UNL     1     -23.644  31.247 -11.805  1.00  0.00     0.017 A 
ATOM     13  C   UNL     1     -24.896  31.168 -11.255  1.00  0.00     0.012 A 
ATOM     14  C   UNL     1     -23.227  30.171 -12.569  1.00  0.00     0.012 A 
ATOM     15  C   UNL     1     -25.722  30.058 -11.449  1.00  0.00     0.001 A 
ATOM     16  C   UNL     1     -24.024  29.057 -12.780  1.00  0.00     0.001 A 
ATOM     17  C   UNL     1     -25.290  28.995 -12.214  1.00  0.00     0.000 A 
ENDBRANCH   4  12
BRANCH  10  18
ATOM     18  O   UNL     1     -18.924  35.637 -11.163  1.00  0.00    -0.507 OA
ATOM     19  H   UNL     1     -18.482  34.850 -11.604  1.00  0.00     0.293 HD
ENDBRANCH  10  18
BRANCH   8  20
ATOM     20  O   UNL     1     -22.851  38.292 -10.618  1.00  0.00    -0.508 OA
ATOM     21  H   UNL     1     -23.706  38.402 -10.092  1.00  0.00     0.293 HD
ENDBRANCH   8  20
TORSDOF 3
ENDMDL
MODEL 2
REMARK VINA RESULT:      -6.7      0.097      1.086
REMARK SMILES O=c1cc(-c2ccccc2)oc2cc(O)cc(O)c12
REMARK SMILES IDX 1 1 2 2 3 3 4 4 11 5 12 6 13 7 14 8 16 9 17 10 19 11 5 12
REMARK SMILES IDX 6 13 10 14 7 15 9 16 8 17 18 18 15 20
REMARK H PARENT 18 19 15 21
ROOT
ATOM      1  O   UNL     1     -19.198  33.280 -11.474  1.00  0.00    -0.289 OA
ATOM      2  C   UNL     1     -20.452  33.361 -11.475  1.00  0.00     0.197 A 
ATOM      3  C   UNL     1     -21.281  32.249 -11.682  1.00  0.00     0.100 A 
ATOM      4  C   UNL     1     -22.651  32.361 -11.679  1.00  0.00     0.138 A 
ATOM      5  O   UNL     1     -23.142  33.560 -11.474  1.00  0.00    -0.456 OA
ATOM      6  C   UNL     1     -22.421  34.635 -11.274  1.00  0.00     0.146 A 
ATOM      7  C   UNL     1     -23.003  35.879 -11.062  1.00  0.00     0.094 A 
ATOM      8  C   UNL     1     -22.278  37.026 -10.849  1.00  0.00     0.123 A 
ATOM      9  C   UNL     1     -20.902  36.957 -10.845  1.00  0.00     0.093 A 
ATOM     10  C   UNL     1     -20.287  35.742 -11.052  1.00  0.00     0.134 A 
ATOM     11  C   UNL     1     -21.044  34.584 -11.266  1.00  0.00     0.107 A 
ENDROOT
BRANCH   4  12
ATOM     12  C   UNL     1     -23.525  31.204 -11.895  1.00  0.00     0.017 A 
ATOM     13  C   UNL     1     -23.211  30.148 -12.708  1.00  0.00     0.012 A 
ATOM     14  C   UNL     1     -24.746  31.155 -11.247  1.00  0.00     0.012 A 
ATOM     15  C   UNL     1     -24.077  29.065 -12.883  1.00  0.00     0.001 A 
ATOM     16  C   UNL     1     -25.626  30.095 -11.400  1.00  0.00     0.001 A 
ATOM     17  C   UNL     1     -25.290  29.032 -12.229  1.00  0.00     0.000 A 
ENDBRANCH   4  12
BRANCH  10  18
ATOM     18  O   UNL     1     -18.914  35.675 -11.046  1.00  0.00    -0.507 OA
ATOM     19  H   UNL     1     -18.421  35.390 -10.219  1.00  0.00     0.293 HD
ENDBRANCH  10  18
BRANCH   8  20
ATOM     20  O   UNL     1     -22.907  38.255 -10.640  1.00  0.00    -0.508 OA
ATOM     21  H   UNL     1     -23.691  38.372 -10.014  1.00  0.00     0.293 HD
ENDBRANCH   8  20
TORSDOF 3
ENDMDL
MODEL 3
REMARK VINA RESULT:      -6.5      9.531     12.037
REMARK SMILES O=c1cc(-c2ccccc2)oc2cc(O)cc(O)c12
REMARK SMILES IDX 1 1 2 2 3 3 4 4 11 5 12 6 13 7 14 8 16 9 17 10 19 11 5 12
REMARK SMILES IDX 6 13 10 14 7 15 9 16 8 17 18 18 15 20
REMARK H PARENT 18 19 15 21
ROOT
ATOM      1  O   UNL     1     -17.870  37.751  -4.610  1.00  0.00    -0.289 OA
ATOM      2  C   UNL     1     -18.637  37.771  -3.615  1.00  0.00     0.197 A 
ATOM      3  C   UNL     1     -18.180  38.025  -2.313  1.00  0.00     0.100 A 
ATOM      4  C   UNL     1     -19.039  38.042  -1.240  1.00  0.00     0.138 A 
ATOM      5  O   UNL     1     -20.304  37.808  -1.494  1.00  0.00    -0.456 OA
ATOM      6  C   UNL     1     -20.790  37.565  -2.687  1.00  0.00     0.146 A 
ATOM      7  C   UNL     1     -22.144  37.324  -2.891  1.00  0.00     0.094 A 
ATOM      8  C   UNL     1     -22.687  37.066  -4.126  1.00  0.00     0.123 A 
ATOM      9  C   UNL     1     -21.861  37.040  -5.228  1.00  0.00     0.093 A 
ATOM     10  C   UNL     1     -20.513  37.273  -5.067  1.00  0.00     0.134 A 
ATOM     11  C   UNL     1     -19.979  37.535  -3.800  1.00  0.00     0.107 A 
ENDROOT
BRANCH   4  12
ATOM     12  C   UNL     1     -18.571  38.307   0.124  1.00  0.00     0.017 A 
ATOM     13  C   UNL     1     -19.329  38.106   1.247  1.00  0.00     0.012 A 
ATOM     14  C   UNL     1     -17.287  38.788   0.312  1.00  0.00     0.012 A 
ATOM     15  C   UNL     1     -18.839  38.372   2.528  1.00  0.00     0.001 A 
ATOM     16  C   UNL     1     -16.774  39.062   1.571  1.00  0.00     0.001 A 
ATOM     17  C   UNL     1     -17.558  38.851   2.697  1.00  0.00     0.000 A 
ENDBRANCH   4  12
BRANCH  10  18
ATOM     18  O   UNL     1     -19.691  37.247  -6.168  1.00  0.00    -0.507 OA
ATOM     19  H   UNL     1     -18.696  37.333  -6.062  1.00  0.00     0.293 HD
ENDBRANCH  10  18
BRANCH   8  20
ATOM     20  O   UNL     1     -24.054  36.830  -4.283  1.00  0.00    -0.508 OA
ATOM     21  H   UNL     1     -24.617  36.374  -3.580  1.00  0.00     0.293 HD
ENDBRANCH   8  20
TORSDOF 3
ENDMDL
MODEL 4
REMARK VINA RESULT:      -6.5      9.543     12.084
REMARK SMILES O=c1cc(-c2ccccc2)oc2cc(O)cc(O)c12
REMARK SMILES IDX 1 1 2 2 3 3 4 4 11 5 12 6 13 7 14 8 16 9 17 10 19 11 5 12
REMARK SMILES IDX 6 13 10 14 7 15 9 16 8 17 18 18 15 20
REMARK H PARENT 18 19 15 21
ROOT
ATOM      1  O   UNL     1     -17.867  37.797  -4.650  1.00  0.00    -0.289 OA
ATOM      2  C   UNL     1     -18.616  37.807  -3.641  1.00  0.00     0.197 A 
ATOM      3  C   UNL     1     -18.138  38.069  -2.349  1.00  0.00     0.100 A 
ATOM      4  C   UNL     1     -18.975  38.075  -1.259  1.00  0.00     0.138 A 
ATOM      5  O   UNL     1     -20.242  37.823  -1.490  1.00  0.00    -0.456 OA
ATOM      6  C   UNL     1     -20.747  37.571  -2.672  1.00  0.00     0.146 A 
ATOM      7  C   UNL     1     -22.101  37.310  -2.850  1.00  0.00     0.094 A 
ATOM      8  C   UNL     1     -22.663  37.043  -4.075  1.00  0.00     0.123 A 
ATOM      9  C   UNL     1     -21.859  37.027  -5.192  1.00  0.00     0.093 A 
ATOM     10  C   UNL     1     -20.511  37.280  -5.057  1.00  0.00     0.134 A 
ATOM     11  C   UNL     1     -19.957  37.551  -3.800  1.00  0.00     0.107 A 
ENDROOT
BRANCH   4  12
ATOM     12  C   UNL     1     -18.486  38.348   0.095  1.00  0.00     0.017 A 
ATOM     13  C   UNL     1     -17.234  38.829   0.375  1.00  0.00     0.012 A 
ATOM     14  C   UNL     1     -19.322  38.115   1.172  1.00  0.00     0.012 A 
ATOM     15  C   UNL     1     -16.810  39.074   1.683  1.00  0.00     0.001 A 
ATOM     16  C   UNL     1     -18.931  38.349   2.481  1.00  0.00     0.001 A 
ATOM     17  C   UNL     1     -17.657  38.836   2.745  1.00  0.00     0.000 A 
ENDBRANCH   4  12
BRANCH  10  18
ATOM     18  O   UNL     1     -19.709  37.265  -6.174  1.00  0.00    -0.507 OA
ATOM     19  H   UNL     1     -19.964  37.790  -6.991  1.00  0.00     0.293 HD
ENDBRANCH  10  18
BRANCH   8  20
ATOM     20  O   UNL     1     -24.030  36.786  -4.206  1.00  0.00    -0.508 OA
ATOM     21  H   UNL     1     -24.733  37.255  -3.652  1.00  0.00     0.293 HD
ENDBRANCH   8  20
TORSDOF 3
ENDMDL
MODEL 5
REMARK VINA RESULT:      -6.2      1.546      3.063
REMARK SMILES O=c1cc(-c2ccccc2)oc2cc(O)cc(O)c12
REMARK SMILES IDX 1 1 2 2 3 3 4 4 11 5 12 6 13 7 14 8 16 9 17 10 19 11 5 12
REMARK SMILES IDX 6 13 10 14 7 15 9 16 8 17 18 18 15 20
REMARK H PARENT 18 19 15 21
ROOT
ATOM      1  O   UNL     1     -23.035  35.705 -12.501  1.00  0.00    -0.289 OA
ATOM      2  C   UNL     1     -22.753  34.513 -12.220  1.00  0.00     0.197 A 
ATOM      3  C   UNL     1     -23.680  33.468 -12.346  1.00  0.00     0.100 A 
ATOM      4  C   UNL     1     -23.350  32.171 -12.033  1.00  0.00     0.138 A 
ATOM      5  O   UNL     1     -22.126  31.962 -11.610  1.00  0.00    -0.456 OA
ATOM      6  C   UNL     1     -21.217  32.895 -11.472  1.00  0.00     0.146 A 
ATOM      7  C   UNL     1     -19.935  32.608 -11.018  1.00  0.00     0.094 A 
ATOM      8  C   UNL     1     -18.958  33.561 -10.862  1.00  0.00     0.123 A 
ATOM      9  C   UNL     1     -19.248  34.873 -11.164  1.00  0.00     0.093 A 
ATOM     10  C   UNL     1     -20.508  35.199 -11.617  1.00  0.00     0.134 A 
ATOM     11  C   UNL     1     -21.490  34.212 -11.770  1.00  0.00     0.107 A 
ENDROOT
BRANCH   4  12
ATOM     12  C   UNL     1     -24.311  31.073 -12.161  1.00  0.00     0.017 A 
ATOM     13  C   UNL     1     -24.386  30.242 -13.248  1.00  0.00     0.012 A 
ATOM     14  C   UNL     1     -25.208  30.840 -11.134  1.00  0.00     0.012 A 
ATOM     15  C   UNL     1     -25.320  29.207 -13.326  1.00  0.00     0.001 A 
ATOM     16  C   UNL     1     -26.146  29.821 -11.182  1.00  0.00     0.001 A 
ATOM     17  C   UNL     1     -26.206  28.990 -12.293  1.00  0.00     0.000 A 
ENDBRANCH   4  12
BRANCH  10  18
ATOM     18  O   UNL     1     -20.796  36.508 -11.919  1.00  0.00    -0.507 OA
ATOM     19  H   UNL     1     -21.723  36.774 -12.197  1.00  0.00     0.293 HD
ENDBRANCH  10  18
BRANCH   8  20
ATOM     20  O   UNL     1     -17.682  33.226 -10.402  1.00  0.00    -0.508 OA
ATOM     21  H   UNL     1     -17.183  33.775  -9.718  1.00  0.00     0.293 HD
ENDBRANCH   8  20
TORSDOF 3
ENDMDL
MODEL 6
REMARK VINA RESULT:      -6.0      1.119      2.946
REMARK SMILES O=c1cc(-c2ccccc2)oc2cc(O)cc(O)c12
REMARK SMILES IDX 1 1 2 2 3 3 4 4 11 5 12 6 13 7 14 8 16 9 17 10 19 11 5 12
REMARK SMILES IDX 6 13 10 14 7 15 9 16 8 17 18 18 15 20
REMARK H PARENT 18 19 15 21
ROOT
ATOM      1  O   UNL     1     -25.078  36.080 -10.660  1.00  0.00    -0.289 OA
ATOM      2  C   UNL     1     -24.251  35.182 -10.959  1.00  0.00     0.197 A 
ATOM      3  C   UNL     1     -24.628  33.847 -11.166  1.00  0.00     0.100 A 
ATOM      4  C   UNL     1     -23.706  32.881 -11.493  1.00  0.00     0.138 A 
ATOM      5  O   UNL     1     -22.458  33.272 -11.600  1.00  0.00    -0.456 OA
ATOM      6  C   UNL     1     -22.046  34.502 -11.419  1.00  0.00     0.146 A 
ATOM      7  C   UNL     1     -20.707  34.853 -11.549  1.00  0.00     0.094 A 
ATOM      8  C   UNL     1     -20.241  36.132 -11.367  1.00  0.00     0.123 A 
ATOM      9  C   UNL     1     -21.132  37.129 -11.038  1.00  0.00     0.093 A 
ATOM     10  C   UNL     1     -22.468  36.822 -10.901  1.00  0.00     0.134 A 
ATOM     11  C   UNL     1     -22.923  35.512 -11.090  1.00  0.00     0.107 A 
ENDROOT
BRANCH   4  12
ATOM     12  C   UNL     1     -24.089  31.484 -11.710  1.00  0.00     0.017 A 
ATOM     13  C   UNL     1     -23.232  30.514 -12.158  1.00  0.00     0.012 A 
ATOM     14  C   UNL     1     -25.393  31.097 -11.453  1.00  0.00     0.012 A 
ATOM     15  C   UNL     1     -23.643  29.193 -12.351  1.00  0.00     0.001 A 
ATOM     16  C   UNL     1     -25.830  29.794 -11.635  1.00  0.00     0.001 A 
ATOM     17  C   UNL     1     -24.946  28.825 -12.089  1.00  0.00     0.000 A 
ENDBRANCH   4  12
BRANCH  10  18
ATOM     18  O   UNL     1     -23.356  37.819 -10.573  1.00  0.00    -0.507 OA
ATOM     19  H   UNL     1     -24.111  38.051 -11.193  1.00  0.00     0.293 HD
ENDBRANCH  10  18
BRANCH   8  20
ATOM     20  O   UNL     1     -18.885  36.438 -11.506  1.00  0.00    -0.508 OA
ATOM     21  H   UNL     1     -18.554  37.260 -11.989  1.00  0.00     0.293 HD
ENDBRANCH   8  20
TORSDOF 3
ENDMDL
MODEL 7
REMARK VINA RESULT:      -6.0     20.643     21.923
REMARK SMILES O=c1cc(-c2ccccc2)oc2cc(O)cc(O)c12
REMARK SMILES IDX 1 1 2 2 3 3 4 4 11 5 12 6 13 7 14 8 16 9 17 10 19 11 5 12
REMARK SMILES IDX 6 13 10 14 7 15 9 16 8 17 18 18 15 20
REMARK H PARENT 18 19 15 21
ROOT
ATOM      1  O   UNL     1      -8.889  31.241   7.114  1.00  0.00    -0.289 OA
ATOM      2  C   UNL     1      -8.765  30.469   6.130  1.00  0.00     0.197 A 
ATOM      3  C   UNL     1      -8.615  29.082   6.272  1.00  0.00     0.100 A 
ATOM      4  C   UNL     1      -8.481  28.257   5.181  1.00  0.00     0.138 A 
ATOM      5  O   UNL     1      -8.500  28.833   4.003  1.00  0.00    -0.456 OA
ATOM      6  C   UNL     1      -8.637  30.121   3.806  1.00  0.00     0.146 A 
ATOM      7  C   UNL     1      -8.650  30.670   2.529  1.00  0.00     0.094 A 
ATOM      8  C   UNL     1      -8.792  32.015   2.288  1.00  0.00     0.123 A 
ATOM      9  C   UNL     1      -8.929  32.876   3.353  1.00  0.00     0.093 A 
ATOM     10  C   UNL     1      -8.921  32.371   4.635  1.00  0.00     0.134 A 
ATOM     11  C   UNL     1      -8.775  30.997   4.861  1.00  0.00     0.107 A 
ENDROOT
BRANCH   4  12
ATOM     12  C   UNL     1      -8.324  26.807   5.319  1.00  0.00     0.017 A 
ATOM     13  C   UNL     1      -7.220  26.112   4.900  1.00  0.00     0.012 A 
ATOM     14  C   UNL     1      -9.339  26.073   5.908  1.00  0.00     0.012 A 
ATOM     15  C   UNL     1      -7.114  24.727   5.053  1.00  0.00     0.001 A 
ATOM     16  C   UNL     1      -9.262  24.699   6.074  1.00  0.00     0.001 A 
ATOM     17  C   UNL     1      -8.135  24.013   5.642  1.00  0.00     0.000 A 
ENDBRANCH   4  12
BRANCH  10  18
ATOM     18  O   UNL     1      -9.058  33.232   5.698  1.00  0.00    -0.507 OA
ATOM     19  H   UNL     1      -9.928  33.291   6.195  1.00  0.00     0.293 HD
ENDBRANCH  10  18
BRANCH   8  20
ATOM     20  O   UNL     1      -8.799  32.522   0.986  1.00  0.00    -0.508 OA
ATOM     21  H   UNL     1      -9.546  33.098   0.624  1.00  0.00     0.293 HD
ENDBRANCH   8  20
TORSDOF 3
ENDMDL
MODEL 8
REMARK VINA RESULT:      -6.0     20.627     21.888
REMARK SMILES O=c1cc(-c2ccccc2)oc2cc(O)cc(O)c12
REMARK SMILES IDX 1 1 2 2 3 3 4 4 11 5 12 6 13 7 14 8 16 9 17 10 19 11 5 12
REMARK SMILES IDX 6 13 10 14 7 15 9 16 8 17 18 18 15 20
REMARK H PARENT 18 19 15 21
ROOT
ATOM      1  O   UNL     1      -8.912  31.220   7.070  1.00  0.00    -0.289 OA
ATOM      2  C   UNL     1      -8.790  30.437   6.094  1.00  0.00     0.197 A 
ATOM      3  C   UNL     1      -8.654  29.051   6.252  1.00  0.00     0.100 A 
ATOM      4  C   UNL     1      -8.522  28.213   5.170  1.00  0.00     0.138 A 
ATOM      5  O   UNL     1      -8.529  28.776   3.986  1.00  0.00    -0.456 OA
ATOM      6  C   UNL     1      -8.652  30.064   3.775  1.00  0.00     0.146 A 
ATOM      7  C   UNL     1      -8.652  30.600   2.492  1.00  0.00     0.094 A 
ATOM      8  C   UNL     1      -8.780  31.943   2.236  1.00  0.00     0.123 A 
ATOM      9  C   UNL     1      -8.915  32.816   3.292  1.00  0.00     0.093 A 
ATOM     10  C   UNL     1      -8.919  32.324   4.579  1.00  0.00     0.134 A 
ATOM     11  C   UNL     1      -8.788  30.952   4.819  1.00  0.00     0.107 A 
ENDROOT
BRANCH   4  12
ATOM     12  C   UNL     1      -8.379  26.762   5.324  1.00  0.00     0.017 A 
ATOM     13  C   UNL     1      -9.313  25.959   5.924  1.00  0.00     0.012 A 
ATOM     14  C   UNL     1      -7.239  26.144   4.842  1.00  0.00     0.012 A 
ATOM     15  C   UNL     1      -9.133  24.580   6.048  1.00  0.00     0.001 A 
ATOM     16  C   UNL     1      -7.032  24.778   4.951  1.00  0.00     0.001 A 
ATOM     17  C   UNL     1      -7.991  23.980   5.561  1.00  0.00     0.000 A 
ENDBRANCH   4  12
BRANCH  10  18
ATOM     18  O   UNL     1      -9.054  33.198   5.631  1.00  0.00    -0.507 OA
ATOM     19  H   UNL     1      -9.461  34.105   5.491  1.00  0.00     0.293 HD
ENDBRANCH  10  18
BRANCH   8  20
ATOM     20  O   UNL     1      -8.774  32.437   0.929  1.00  0.00    -0.508 OA
ATOM     21  H   UNL     1      -9.451  32.158   0.233  1.00  0.00     0.293 HD
ENDBRANCH   8  20
TORSDOF 3
ENDMDL
MODEL 9
REMARK VINA RESULT:      -6.0      9.460     12.139
REMARK SMILES O=c1cc(-c2ccccc2)oc2cc(O)cc(O)c12
REMARK SMILES IDX 1 1 2 2 3 3 4 4 11 5 12 6 13 7 14 8 16 9 17 10 19 11 5 12
REMARK SMILES IDX 6 13 10 14 7 15 9 16 8 17 18 18 15 20
REMARK H PARENT 18 19 15 21
ROOT
ATOM      1  O   UNL     1     -23.163  37.008  -1.907  1.00  0.00    -0.289 OA
ATOM      2  C   UNL     1     -21.957  37.337  -2.028  1.00  0.00     0.197 A 
ATOM      3  C   UNL     1     -21.135  37.615  -0.926  1.00  0.00     0.100 A 
ATOM      4  C   UNL     1     -19.818  37.974  -1.082  1.00  0.00     0.138 A 
ATOM      5  O   UNL     1     -19.369  38.044  -2.313  1.00  0.00    -0.456 OA
ATOM      6  C   UNL     1     -20.086  37.797  -3.381  1.00  0.00     0.146 A 
ATOM      7  C   UNL     1     -19.551  37.888  -4.661  1.00  0.00     0.094 A 
ATOM      8  C   UNL     1     -20.274  37.635  -5.801  1.00  0.00     0.123 A 
ATOM      9  C   UNL     1     -21.598  37.273  -5.688  1.00  0.00     0.093 A 
ATOM     10  C   UNL     1     -22.166  37.171  -4.437  1.00  0.00     0.134 A 
ATOM     11  C   UNL     1     -21.412  37.433  -3.287  1.00  0.00     0.107 A 
ENDROOT
BRANCH   4  12
ATOM     12  C   UNL     1     -18.952  38.266   0.063  1.00  0.00     0.017 A 
ATOM     13  C   UNL     1     -17.644  38.659  -0.045  1.00  0.00     0.012 A 
ATOM     14  C   UNL     1     -19.466  38.146   1.342  1.00  0.00     0.012 A 
ATOM     15  C   UNL     1     -16.856  38.927   1.077  1.00  0.00     0.001 A 
ATOM     16  C   UNL     1     -18.709  38.406   2.475  1.00  0.00     0.001 A 
ATOM     17  C   UNL     1     -17.385  38.803   2.344  1.00  0.00     0.000 A 
ENDBRANCH   4  12
BRANCH  10  18
ATOM     18  O   UNL     1     -23.487  36.809  -4.327  1.00  0.00    -0.507 OA
ATOM     19  H   UNL     1     -24.032  37.107  -3.537  1.00  0.00     0.293 HD
ENDBRANCH  10  18
BRANCH   8  20
ATOM     20  O   UNL     1     -19.694  37.741  -7.067  1.00  0.00    -0.508 OA
ATOM     21  H   UNL     1     -20.225  37.668  -7.923  1.00  0.00     0.293 HD
ENDBRANCH   8  20
TORSDOF 3
ENDMDL
