MODEL 1
REMARK VINA RESULT:      -7.1      0.000      0.000
REMARK SMILES O=c1c([O-])c(-c2ccccc2)oc2cc([O-])cc([O-])c12
REMARK SMILES IDX 1 1 2 2 3 3 4 4 5 5 12 6 13 7 14 8 15 9 16 10 17 11 18 12
REMARK SMILES IDX 19 13 20 14 6 15 7 16 11 17 8 18 10 19 9 20
REMARK H PARENT
ROOT
ATOM      1  O   UNL     1     -18.967  34.711 -10.645  1.00  0.00    -0.290 OA
ATOM      2  C   UNL     1     -20.187  34.607 -10.889  1.00  0.00     0.184 A 
ATOM      3  C   UNL     1     -20.662  33.312 -11.183  1.00  0.00    -0.014 A 
ATOM      4  O   UNL     1     -19.791  32.257 -11.187  1.00  0.00    -0.867 OA
ATOM      5  C   UNL     1     -21.991  33.165 -11.454  1.00  0.00     0.130 A 
ATOM      6  O   UNL     1     -22.783  34.256 -11.430  1.00  0.00    -0.457 OA
ATOM      7  C   UNL     1     -22.361  35.435 -11.165  1.00  0.00     0.137 A 
ATOM      8  C   UNL     1     -23.216  36.502 -11.155  1.00  0.00     0.039 A 
ATOM      9  C   UNL     1     -22.795  37.784 -10.874  1.00  0.00    -0.106 A 
ATOM     10  O   UNL     1     -23.693  38.852 -10.873  1.00  0.00    -0.872 OA
ATOM     11  C   UNL     1     -21.445  37.999 -10.588  1.00  0.00    -0.016 A 
ATOM     12  C   UNL     1     -20.561  36.952 -10.589  1.00  0.00    -0.094 A 
ATOM     13  O   UNL     1     -19.230  37.173 -10.306  1.00  0.00    -0.872 OA
ATOM     14  C   UNL     1     -21.031  35.694 -10.875  1.00  0.00     0.056 A 
ENDROOT
BRANCH   5  15
ATOM     15  C   UNL     1     -22.597  31.884 -11.770  1.00  0.00     0.017 A 
ATOM     16  C   UNL     1     -22.309  31.061 -12.812  1.00  0.00     0.012 A 
ATOM     17  C   UNL     1     -23.605  31.412 -10.913  1.00  0.00     0.012 A 
ATOM     18  C   UNL     1     -22.948  29.850 -13.027  1.00  0.00     0.001 A 
ATOM     19  C   UNL     1     -24.250  30.212 -11.112  1.00  0.00     0.001 A 
ATOM     20  C   UNL     1     -23.928  29.409 -12.181  1.00  0.00     0.000 A 
ENDBRANCH   5  15
TORSDOF 1
ENDMDL
MODEL 2
REMARK VINA RESULT:      -6.9      0.203      1.058
REMARK SMILES O=c1c([O-])c(-c2ccccc2)oc2cc([O-])cc([O-])c12
REMARK SMILES IDX 1 1 2 2 3 3 4 4 5 5 12 6 13 7 14 8 15 9 16 10 17 11 18 12
REMARK SMILES IDX 19 13 20 14 6 15 7 16 11 17 8 18 10 19 9 20
REMARK H PARENT
ROOT
ATOM      1  O   UNL     1     -18.955  34.728 -10.674  1.00  0.00    -0.290 OA
ATOM      2  C   UNL     1     -20.181  34.668 -10.904  1.00  0.00     0.184 A 
ATOM      3  C   UNL     1     -20.716  33.384 -11.135  1.00  0.00    -0.014 A 
ATOM      4  O   UNL     1     -19.893  32.292 -11.097  1.00  0.00    -0.867 OA
ATOM      5  C   UNL     1     -22.052  33.285 -11.389  1.00  0.00     0.130 A 
ATOM      6  O   UNL     1     -22.795  34.411 -11.410  1.00  0.00    -0.457 OA
ATOM      7  C   UNL     1     -22.317  35.581 -11.202  1.00  0.00     0.137 A 
ATOM      8  C   UNL     1     -23.124  36.685 -11.235  1.00  0.00     0.039 A 
ATOM      9  C   UNL     1     -22.643  37.958 -11.016  1.00  0.00    -0.106 A 
ATOM     10  O   UNL     1     -23.492  39.065 -11.057  1.00  0.00    -0.872 OA
ATOM     11  C   UNL     1     -21.282  38.124 -10.749  1.00  0.00    -0.016 A 
ATOM     12  C   UNL     1     -20.446  37.039 -10.708  1.00  0.00    -0.094 A 
ATOM     13  O   UNL     1     -19.104  37.213 -10.445  1.00  0.00    -0.872 OA
ATOM     14  C   UNL     1     -20.974  35.792 -10.933  1.00  0.00     0.056 A 
ENDROOT
BRANCH   5  15
ATOM     15  C   UNL     1     -22.718  32.021 -11.642  1.00  0.00     0.017 A 
ATOM     16  C   UNL     1     -23.624  31.384 -10.855  1.00  0.00     0.012 A 
ATOM     17  C   UNL     1     -22.411  31.352 -12.839  1.00  0.00     0.012 A 
ATOM     18  C   UNL     1     -24.207  30.171 -11.189  1.00  0.00     0.001 A 
ATOM     19  C   UNL     1     -22.980  30.148 -13.186  1.00  0.00     0.001 A 
ATOM     20  C   UNL     1     -23.893  29.536 -12.359  1.00  0.00     0.000 A 
ENDBRANCH   5  15
TORSDOF 1
ENDMDL
MODEL 3
REMARK VINA RESULT:      -6.9      2.210      6.696
REMARK SMILES O=c1c([O-])c(-c2ccccc2)oc2cc([O-])cc([O-])c12
REMARK SMILES IDX 1 1 2 2 3 3 4 4 5 5 12 6 13 7 14 8 15 9 16 10 17 11 18 12
REMARK SMILES IDX 19 13 20 14 6 15 7 16 11 17 8 18 10 19 9 20
REMARK H PARENT
ROOT
ATOM      1  O   UNL     1     -26.118  33.607 -12.116  1.00  0.00    -0.290 OA
ATOM      2  C   UNL     1     -24.896  33.365 -12.030  1.00  0.00     0.184 A 
ATOM      3  C   UNL     1     -24.066  34.441 -11.651  1.00  0.00    -0.014 A 
ATOM      4  O   UNL     1     -24.619  35.666 -11.401  1.00  0.00    -0.867 OA
ATOM      5  C   UNL     1     -22.726  34.208 -11.549  1.00  0.00     0.130 A 
ATOM      6  O   UNL     1     -22.259  32.971 -11.814  1.00  0.00    -0.457 OA
ATOM      7  C   UNL     1     -23.005  31.989 -12.159  1.00  0.00     0.137 A 
ATOM      8  C   UNL     1     -22.470  30.756 -12.413  1.00  0.00     0.039 A 
ATOM      9  C   UNL     1     -23.243  29.678 -12.787  1.00  0.00    -0.106 A 
ATOM     10  O   UNL     1     -22.667  28.433 -13.040  1.00  0.00    -0.872 OA
ATOM     11  C   UNL     1     -24.623  29.853 -12.908  1.00  0.00    -0.016 A 
ATOM     12  C   UNL     1     -25.192  31.075 -12.661  1.00  0.00    -0.094 A 
ATOM     13  O   UNL     1     -26.555  31.239 -12.784  1.00  0.00    -0.872 OA
ATOM     14  C   UNL     1     -24.378  32.117 -12.291  1.00  0.00     0.056 A 
ENDROOT
BRANCH   5  15
ATOM     15  C   UNL     1     -21.772  35.234 -11.168  1.00  0.00     0.017 A 
ATOM     16  C   UNL     1     -22.031  36.509 -10.776  1.00  0.00     0.012 A 
ATOM     17  C   UNL     1     -20.408  34.897 -11.196  1.00  0.00     0.012 A 
ATOM     18  C   UNL     1     -21.043  37.417 -10.430  1.00  0.00     0.001 A 
ATOM     19  C   UNL     1     -19.414  35.786 -10.856  1.00  0.00     0.001 A 
ATOM     20  C   UNL     1     -19.721  37.069 -10.465  1.00  0.00     0.000 A 
ENDBRANCH   5  15
TORSDOF 1
ENDMDL
MODEL 4
REMARK VINA RESULT:      -6.6      2.211      6.641
REMARK SMILES O=c1c([O-])c(-c2ccccc2)oc2cc([O-])cc([O-])c12
REMARK SMILES IDX 1 1 2 2 3 3 4 4 5 5 12 6 13 7 14 8 15 9 16 10 17 11 18 12
REMARK SMILES IDX 19 13 20 14 6 15 7 16 11 17 8 18 10 19 9 20
REMARK H PARENT
ROOT
ATOM      1  O   UNL     1     -26.039  33.746 -12.275  1.00  0.00    -0.290 OA
ATOM      2  C   UNL     1     -24.827  33.472 -12.147  1.00  0.00     0.184 A 
ATOM      3  C   UNL     1     -23.986  34.523 -11.725  1.00  0.00    -0.014 A 
ATOM      4  O   UNL     1     -24.518  35.759 -11.480  1.00  0.00    -0.867 OA
ATOM      5  C   UNL     1     -22.657  34.255 -11.575  1.00  0.00     0.130 A 
ATOM      6  O   UNL     1     -22.211  33.009 -11.837  1.00  0.00    -0.457 OA
ATOM      7  C   UNL     1     -22.967  32.050 -12.221  1.00  0.00     0.137 A 
ATOM      8  C   UNL     1     -22.454  30.807 -12.470  1.00  0.00     0.039 A 
ATOM      9  C   UNL     1     -23.239  29.753 -12.885  1.00  0.00    -0.106 A 
ATOM     10  O   UNL     1     -22.684  28.497 -13.131  1.00  0.00    -0.872 OA
ATOM     11  C   UNL     1     -24.609  29.964 -13.055  1.00  0.00    -0.016 A 
ATOM     12  C   UNL     1     -25.156  31.198 -12.815  1.00  0.00    -0.094 A 
ATOM     13  O   UNL     1     -26.509  31.396 -12.987  1.00  0.00    -0.872 OA
ATOM     14  C   UNL     1     -24.331  32.214 -12.403  1.00  0.00     0.056 A 
ENDROOT
BRANCH   5  15
ATOM     15  C   UNL     1     -21.692  35.252 -11.147  1.00  0.00     0.017 A 
ATOM     16  C   UNL     1     -20.337  35.189 -11.227  1.00  0.00     0.012 A 
ATOM     17  C   UNL     1     -22.190  36.437 -10.579  1.00  0.00     0.012 A 
ATOM     18  C   UNL     1     -19.499  36.202 -10.788  1.00  0.00     0.001 A 
ATOM     19  C   UNL     1     -21.372  37.452 -10.139  1.00  0.00     0.001 A 
ATOM     20  C   UNL     1     -20.004  37.348 -10.238  1.00  0.00     0.000 A 
ENDBRANCH   5  15
TORSDOF 1
ENDMDL
MODEL 5
REMARK VINA RESULT:      -6.3     20.420     21.738
REMARK SMILES O=c1c([O-])c(-c2ccccc2)oc2cc([O-])cc([O-])c12
REMARK SMILES IDX 1 1 2 2 3 3 4 4 5 5 12 6 13 7 14 8 15 9 16 10 17 11 18 12
REMARK SMILES IDX 19 13 20 14 6 15 7 16 11 17 8 18 10 19 9 20
REMARK H PARENT
ROOT
ATOM      1  O   UNL     1      -8.932  31.149   7.158  1.00  0.00    -0.290 OA
ATOM      2  C   UNL     1      -8.796  30.420   6.154  1.00  0.00     0.184 A 
ATOM      3  C   UNL     1      -8.699  29.033   6.391  1.00  0.00    -0.014 A 
ATOM      4  O   UNL     1      -8.756  28.561   7.673  1.00  0.00    -0.867 OA
ATOM      5  C   UNL     1      -8.551  28.209   5.313  1.00  0.00     0.130 A 
ATOM      6  O   UNL     1      -8.503  28.755   4.081  1.00  0.00    -0.457 OA
ATOM      7  C   UNL     1      -8.590  30.012   3.856  1.00  0.00     0.137 A 
ATOM      8  C   UNL     1      -8.536  30.503   2.580  1.00  0.00     0.039 A 
ATOM      9  C   UNL     1      -8.626  31.850   2.303  1.00  0.00    -0.106 A 
ATOM     10  O   UNL     1      -8.567  32.320   0.991  1.00  0.00    -0.872 OA
ATOM     11  C   UNL     1      -8.780  32.745   3.365  1.00  0.00    -0.016 A 
ATOM     12  C   UNL     1      -8.838  32.286   4.655  1.00  0.00    -0.094 A 
ATOM     13  O   UNL     1      -8.989  33.176   5.697  1.00  0.00    -0.872 OA
ATOM     14  C   UNL     1      -8.744  30.935   4.878  1.00  0.00     0.056 A 
ENDROOT
BRANCH   5  15
ATOM     15  C   UNL     1      -8.440  26.767   5.430  1.00  0.00     0.017 A 
ATOM     16  C   UNL     1      -9.360  25.898   5.923  1.00  0.00     0.012 A 
ATOM     17  C   UNL     1      -7.249  26.168   4.986  1.00  0.00     0.012 A 
ATOM     18  C   UNL     1      -9.157  24.527   5.990  1.00  0.00     0.001 A 
ATOM     19  C   UNL     1      -7.031  24.811   5.046  1.00  0.00     0.001 A 
ATOM     20  C   UNL     1      -7.989  23.965   5.553  1.00  0.00     0.000 A 
ENDBRANCH   5  15
TORSDOF 1
ENDMDL
MODEL 6
REMARK VINA RESULT:      -6.2      1.246      3.009
REMARK SMILES O=c1c([O-])c(-c2ccccc2)oc2cc([O-])cc([O-])c12
REMARK SMILES IDX 1 1 2 2 3 3 4 4 5 5 12 6 13 7 14 8 15 9 16 10 17 11 18 12
REMARK SMILES IDX 19 13 20 14 6 15 7 16 11 17 8 18 10 19 9 20
REMARK H PARENT
ROOT
ATOM      1  O   UNL     1     -25.113  36.256 -11.083  1.00  0.00    -0.290 OA
ATOM      2  C   UNL     1     -24.103  35.531 -11.194  1.00  0.00     0.184 A 
ATOM      3  C   UNL     1     -24.331  34.177 -11.518  1.00  0.00    -0.014 A 
ATOM      4  O   UNL     1     -25.613  33.731 -11.692  1.00  0.00    -0.867 OA
ATOM      5  C   UNL     1     -23.248  33.359 -11.646  1.00  0.00     0.130 A 
ATOM      6  O   UNL     1     -22.016  33.877 -11.457  1.00  0.00    -0.457 OA
ATOM      7  C   UNL     1     -21.800  35.104 -11.163  1.00  0.00     0.137 A 
ATOM      8  C   UNL     1     -20.525  35.569 -10.985  1.00  0.00     0.039 A 
ATOM      9  C   UNL     1     -20.257  36.883 -10.668  1.00  0.00    -0.106 A 
ATOM     10  O   UNL     1     -18.945  37.327 -10.493  1.00  0.00    -0.872 OA
ATOM     11  C   UNL     1     -21.325  37.771 -10.524  1.00  0.00    -0.016 A 
ATOM     12  C   UNL     1     -22.614  37.337 -10.695  1.00  0.00    -0.094 A 
ATOM     13  O   UNL     1     -23.663  38.220 -10.550  1.00  0.00    -0.872 OA
ATOM     14  C   UNL     1     -22.829  36.019 -11.011  1.00  0.00     0.056 A 
ENDROOT
BRANCH   5  15
ATOM     15  C   UNL     1     -23.355  31.950 -11.976  1.00  0.00     0.017 A 
ATOM     16  C   UNL     1     -22.960  31.329 -13.118  1.00  0.00     0.012 A 
ATOM     17  C   UNL     1     -23.931  31.099 -11.017  1.00  0.00     0.012 A 
ATOM     18  C   UNL     1     -23.106  29.967 -13.337  1.00  0.00     0.001 A 
ATOM     19  C   UNL     1     -24.084  29.746 -11.218  1.00  0.00     0.001 A 
ATOM     20  C   UNL     1     -23.670  29.157 -12.390  1.00  0.00     0.000 A 
ENDBRANCH   5  15
TORSDOF 1
ENDMDL
MODEL 7
REMARK VINA RESULT:      -6.2     20.449     21.739
REMARK SMILES O=c1c([O-])c(-c2ccccc2)oc2cc([O-])cc([O-])c12
REMARK SMILES IDX 1 1 2 2 3 3 4 4 5 5 12 6 13 7 14 8 15 9 16 10 17 11 18 12
REMARK SMILES IDX 19 13 20 14 6 15 7 16 11 17 8 18 10 19 9 20
REMARK H PARENT
ROOT
ATOM      1  O   UNL     1      -8.889  31.081   7.205  1.00  0.00    -0.290 OA
ATOM      2  C   UNL     1      -8.745  30.377   6.184  1.00  0.00     0.184 A 
ATOM      3  C   UNL     1      -8.603  28.989   6.391  1.00  0.00    -0.014 A 
ATOM      4  O   UNL     1      -8.630  28.489   7.664  1.00  0.00    -0.867 OA
ATOM      5  C   UNL     1      -8.445  28.192   5.295  1.00  0.00     0.130 A 
ATOM      6  O   UNL     1      -8.428  28.764   4.073  1.00  0.00    -0.457 OA
ATOM      7  C   UNL     1      -8.556  30.023   3.876  1.00  0.00     0.137 A 
ATOM      8  C   UNL     1      -8.532  30.541   2.610  1.00  0.00     0.039 A 
ATOM      9  C   UNL     1      -8.666  31.890   2.363  1.00  0.00    -0.106 A 
ATOM     10  O   UNL     1      -8.637  32.388   1.060  1.00  0.00    -0.872 OA
ATOM     11  C   UNL     1      -8.833  32.758   3.444  1.00  0.00    -0.016 A 
ATOM     12  C   UNL     1      -8.861  32.271   4.726  1.00  0.00    -0.094 A 
ATOM     13  O   UNL     1      -9.025  33.135   5.787  1.00  0.00    -0.872 OA
ATOM     14  C   UNL     1      -8.724  30.919   4.919  1.00  0.00     0.056 A 
ENDROOT
BRANCH   5  15
ATOM     15  C   UNL     1      -8.289  26.752   5.380  1.00  0.00     0.017 A 
ATOM     16  C   UNL     1      -7.197  26.011   5.053  1.00  0.00     0.012 A 
ATOM     17  C   UNL     1      -9.381  26.006   5.856  1.00  0.00     0.012 A 
ATOM     18  C   UNL     1      -7.148  24.631   5.172  1.00  0.00     0.001 A 
ATOM     19  C   UNL     1      -9.348  24.636   5.980  1.00  0.00     0.001 A 
ATOM     20  C   UNL     1      -8.223  23.924   5.637  1.00  0.00     0.000 A 
ENDBRANCH   5  15
TORSDOF 1
ENDMDL
MODEL 8
REMARK VINA RESULT:      -6.0     21.728     23.008
REMARK SMILES O=c1c([O-])c(-c2ccccc2)oc2cc([O-])cc([O-])c12
REMARK SMILES IDX 1 1 2 2 3 3 4 4 5 5 12 6 13 7 14 8 15 9 16 10 17 11 18 12
REMARK SMILES IDX 19 13 20 14 6 15 7 16 11 17 8 18 10 19 9 20
REMARK H PARENT
ROOT
ATOM      1  O   UNL     1      -8.776  27.971   8.013  1.00  0.00    -0.290 OA
ATOM      2  C   UNL     1      -8.419  27.705   6.847  1.00  0.00     0.184 A 
ATOM      3  C   UNL     1      -8.020  26.374   6.599  1.00  0.00    -0.014 A 
ATOM      4  O   UNL     1      -8.041  25.461   7.618  1.00  0.00    -0.867 OA
ATOM      5  C   UNL     1      -7.625  26.051   5.334  1.00  0.00     0.130 A 
ATOM      6  O   UNL     1      -7.632  27.011   4.386  1.00  0.00    -0.457 OA
ATOM      7  C   UNL     1      -7.992  28.220   4.602  1.00  0.00     0.137 A 
ATOM      8  C   UNL     1      -7.978  29.147   3.597  1.00  0.00     0.039 A 
ATOM      9  C   UNL     1      -8.359  30.457   3.795  1.00  0.00    -0.106 A 
ATOM     10  O   UNL     1      -8.333  31.379   2.748  1.00  0.00    -0.872 OA
ATOM     11  C   UNL     1      -8.775  30.850   5.068  1.00  0.00    -0.016 A 
ATOM     12  C   UNL     1      -8.801  29.946   6.099  1.00  0.00    -0.094 A 
ATOM     13  O   UNL     1      -9.212  30.342   7.353  1.00  0.00    -0.872 OA
ATOM     14  C   UNL     1      -8.412  28.653   5.850  1.00  0.00     0.056 A 
ENDROOT
BRANCH   5  15
ATOM     15  C   UNL     1      -7.193  24.718   4.957  1.00  0.00     0.017 A 
ATOM     16  C   UNL     1      -7.819  23.538   5.206  1.00  0.00     0.012 A 
ATOM     17  C   UNL     1      -5.986  24.602   4.247  1.00  0.00     0.012 A 
ATOM     18  C   UNL     1      -7.321  22.309   4.799  1.00  0.00     0.001 A 
ATOM     19  C   UNL     1      -5.478  23.390   3.836  1.00  0.00     0.001 A 
ATOM     20  C   UNL     1      -6.144  22.218   4.109  1.00  0.00     0.000 A 
ENDBRANCH   5  15
TORSDOF 1
ENDMDL
MODEL 9
REMARK VINA RESULT:      -5.9      9.472     11.899
REMARK SMILES O=c1c([O-])c(-c2ccccc2)oc2cc([O-])cc([O-])c12
REMARK SMILES IDX 1 1 2 2 3 3 4 4 5 5 12 6 13 7 14 8 15 9 16 10 17 11 18 12
REMARK SMILES IDX 19 13 20 14 6 15 7 16 11 17 8 18 10 19 9 20
REMARK H PARENT
ROOT
ATOM      1  O   UNL     1     -23.198  37.563  -1.555  1.00  0.00    -0.290 OA
ATOM      2  C   UNL     1     -21.972  37.691  -1.749  1.00  0.00     0.184 A 
ATOM      3  C   UNL     1     -21.178  37.943  -0.610  1.00  0.00    -0.014 A 
ATOM      4  O   UNL     1     -21.769  38.033   0.620  1.00  0.00    -0.867 OA
ATOM      5  C   UNL     1     -19.833  38.088  -0.789  1.00  0.00     0.130 A 
ATOM      6  O   UNL     1     -19.328  37.986  -2.035  1.00  0.00    -0.457 OA
ATOM      7  C   UNL     1     -20.041  37.758  -3.074  1.00  0.00     0.137 A 
ATOM      8  C   UNL     1     -19.468  37.664  -4.313  1.00  0.00     0.039 A 
ATOM      9  C   UNL     1     -20.206  37.420  -5.451  1.00  0.00    -0.106 A 
ATOM     10  O   UNL     1     -19.591  37.330  -6.700  1.00  0.00    -0.872 OA
ATOM     11  C   UNL     1     -21.588  37.261  -5.333  1.00  0.00    -0.016 A 
ATOM     12  C   UNL     1     -22.194  37.349  -4.107  1.00  0.00    -0.094 A 
ATOM     13  O   UNL     1     -23.560  37.192  -4.001  1.00  0.00    -0.872 OA
ATOM     14  C   UNL     1     -21.415  37.594  -3.004  1.00  0.00     0.056 A 
ENDROOT
BRANCH   5  15
ATOM     15  C   UNL     1     -18.914  38.350   0.304  1.00  0.00     0.017 A 
ATOM     16  C   UNL     1     -19.112  38.128   1.630  1.00  0.00     0.012 A 
ATOM     17  C   UNL     1     -17.660  38.897  -0.017  1.00  0.00     0.012 A 
ATOM     18  C   UNL     1     -18.164  38.414   2.601  1.00  0.00     0.001 A 
ATOM     19  C   UNL     1     -16.709  39.186   0.934  1.00  0.00     0.001 A 
ATOM     20  C   UNL     1     -16.949  38.947   2.267  1.00  0.00     0.000 A 
ENDBRANCH   5  15
TORSDOF 1
ENDMDL
