MODEL 1
REMARK VINA RESULT:      -8.5      0.000      0.000
REMARK SMILES Cc1c(C(=O)[O-])c([O-])cc2c1C(=O)c1c([O-])c([C@H]3O[C@H](CO)[C@@H](O)[C@H](O)[C@H]3O)c([O-])c([O-])c1C2=O
REMARK SMILES IDX 18 1 19 2 20 3 23 4 25 5 27 6 17 7 2 8 3 9 11 10 7 11 10 12
REMARK SMILES IDX 12 13 9 14 34 15 13 16 14 17 33 18 35 19 15 20 31 21 29 22
REMARK SMILES IDX 1 23 8 24 16 25 32 26 30 27 4 28 5 29 6 30 28 31 21 33 22 34
REMARK SMILES IDX 26 36 24 38
REMARK H PARENT 28 32 22 35 26 37 24 39
ROOT
ATOM      1  C   UNL     1      10.426  -6.926 -68.776  1.00  0.00     0.179 C 
ATOM      2  O   UNL     1       9.873  -5.929 -69.503  1.00  0.00    -0.362 OA
ATOM      3  C   UNL     1       8.592  -6.008 -69.885  1.00  0.00     0.176 C 
ATOM      4  C   UNL     1       7.652  -6.771 -69.034  1.00  0.00     0.177 C 
ATOM      5  C   UNL     1       8.233  -7.914 -68.288  1.00  0.00     0.177 C 
ATOM      6  C   UNL     1       9.639  -8.199 -68.703  1.00  0.00     0.179 C 
ENDROOT
BRANCH   1   7
ATOM      7  C   UNL     1      11.847  -7.219 -69.149  1.00  0.00    -0.032 A 
ATOM      8  C   UNL     1      15.789  -7.763 -73.957  1.00  0.00    -0.031 A 
ATOM      9  C   UNL     1      17.092  -8.031 -74.322  1.00  0.00    -0.007 A 
ATOM     10  C   UNL     1      15.370  -7.764 -72.640  1.00  0.00     0.037 A 
ATOM     11  C   UNL     1      18.039  -8.314 -73.358  1.00  0.00    -0.099 A 
ATOM     12  C   UNL     1      16.322  -8.047 -71.673  1.00  0.00     0.033 A 
ATOM     13  C   UNL     1      13.995  -7.482 -72.241  1.00  0.00     0.194 C 
ATOM     14  C   UNL     1      17.630  -8.318 -72.021  1.00  0.00     0.005 A 
ATOM     15  C   UNL     1      15.896  -8.052 -70.277  1.00  0.00     0.193 C 
ATOM     16  O   UNL     1      13.136  -7.226 -73.104  1.00  0.00    -0.289 OA
ATOM     17  C   UNL     1      13.564  -7.485 -70.841  1.00  0.00     0.026 A 
ATOM     18  C   UNL     1      14.514  -7.769 -69.882  1.00  0.00     0.025 A 
ATOM     19  O   UNL     1      16.733  -8.305 -69.384  1.00  0.00    -0.289 OA
ATOM     20  C   UNL     1      12.265  -7.219 -70.465  1.00  0.00    -0.091 A 
ATOM     21  C   UNL     1      14.117  -7.774 -68.558  1.00  0.00    -0.105 A 
ATOM     22  C   UNL     1      12.811  -7.505 -68.204  1.00  0.00    -0.111 A 
ATOM     23  C   UNL     1      14.795  -7.463 -75.016  1.00  0.00     0.046 C 
ATOM     24  O   UNL     1      19.371  -8.591 -73.684  1.00  0.00    -0.872 OA
ATOM     25  O   UNL     1      11.353  -6.942 -71.464  1.00  0.00    -0.872 OA
ATOM     26  O   UNL     1      15.090  -8.063 -67.603  1.00  0.00    -0.872 OA
ATOM     27  O   UNL     1      12.415  -7.511 -66.872  1.00  0.00    -0.873 OA
BRANCH   9  28
ATOM     28  C   UNL     1      17.529  -8.030 -75.714  1.00  0.00     0.071 C 
ATOM     29  O   UNL     1      17.991  -7.037 -76.305  1.00  0.00    -0.545 OA
ATOM     30  O   UNL     1      17.412  -9.234 -76.406  1.00  0.00    -0.545 OA
ENDBRANCH   9  28
ENDBRANCH   1   7
BRANCH   6  31
ATOM     31  O   UNL     1       9.669  -8.947 -69.859  1.00  0.00    -0.387 OA
ATOM     32  H   UNL     1      10.258  -8.520 -70.528  1.00  0.00     0.211 HD
ENDBRANCH   6  31
BRANCH   3  33
ATOM     33  C   UNL     1       8.044  -4.574 -69.981  1.00  0.00     0.191 C 
BRANCH  33  34
ATOM     34  O   UNL     1       8.008  -4.128 -71.284  1.00  0.00    -0.394 OA
ATOM     35  H   UNL     1       8.287  -3.168 -71.361  1.00  0.00     0.210 HD
ENDBRANCH  33  34
ENDBRANCH   3  33
BRANCH   5  36
ATOM     36  O   UNL     1       8.151  -7.748 -66.902  1.00  0.00    -0.387 OA
ATOM     37  H   UNL     1       8.828  -8.280 -66.423  1.00  0.00     0.211 HD
ENDBRANCH   5  36
BRANCH   4  38
ATOM     38  O   UNL     1       6.579  -7.194 -69.854  1.00  0.00    -0.388 OA
ATOM     39  H   UNL     1       6.388  -6.430 -70.487  1.00  0.00     0.211 HD
ENDBRANCH   4  38
TORSDOF 7
ENDMDL
MODEL 2
REMARK VINA RESULT:      -8.3      1.109      2.093
REMARK SMILES Cc1c(C(=O)[O-])c([O-])cc2c1C(=O)c1c([O-])c([C@H]3O[C@H](CO)[C@@H](O)[C@H](O)[C@H]3O)c([O-])c([O-])c1C2=O
REMARK SMILES IDX 18 1 19 2 20 3 23 4 25 5 27 6 17 7 2 8 3 9 11 10 7 11 10 12
REMARK SMILES IDX 12 13 9 14 34 15 13 16 14 17 33 18 35 19 15 20 31 21 29 22
REMARK SMILES IDX 1 23 8 24 16 25 32 26 30 27 4 28 5 29 6 30 28 31 21 33 22 34
REMARK SMILES IDX 26 36 24 38
REMARK H PARENT 28 32 22 35 26 37 24 39
ROOT
ATOM      1  C   UNL     1      10.073  -6.931 -70.591  1.00  0.00     0.179 C 
ATOM      2  O   UNL     1       9.273  -7.954 -70.214  1.00  0.00    -0.362 OA
ATOM      3  C   UNL     1       8.207  -7.722 -69.439  1.00  0.00     0.176 C 
ATOM      4  C   UNL     1       7.547  -6.400 -69.528  1.00  0.00     0.177 C 
ATOM      5  C   UNL     1       8.430  -5.257 -69.869  1.00  0.00     0.177 C 
ATOM      6  C   UNL     1       9.874  -5.638 -69.859  1.00  0.00     0.179 C 
ENDROOT
BRANCH   1   7
ATOM      7  C   UNL     1      11.527  -7.288 -70.617  1.00  0.00    -0.032 A 
ATOM      8  C   UNL     1      16.514  -7.868 -74.326  1.00  0.00    -0.031 A 
ATOM      9  C   UNL     1      17.853  -8.194 -74.371  1.00  0.00    -0.007 A 
ATOM     10  C   UNL     1      15.781  -7.895 -73.154  1.00  0.00     0.037 A 
ATOM     11  C   UNL     1      18.517  -8.564 -73.219  1.00  0.00    -0.099 A 
ATOM     12  C   UNL     1      16.449  -8.267 -71.998  1.00  0.00     0.033 A 
ATOM     13  C   UNL     1      14.363  -7.553 -73.093  1.00  0.00     0.194 C 
ATOM     14  C   UNL     1      17.789  -8.596 -72.026  1.00  0.00     0.005 A 
ATOM     15  C   UNL     1      15.689  -8.300 -70.752  1.00  0.00     0.193 C 
ATOM     16  O   UNL     1      13.758  -7.218 -74.127  1.00  0.00    -0.289 OA
ATOM     17  C   UNL     1      13.598  -7.585 -71.844  1.00  0.00     0.026 A 
ATOM     18  C   UNL     1      14.266  -7.956 -70.696  1.00  0.00     0.025 A 
ATOM     19  O   UNL     1      16.266  -8.632 -69.694  1.00  0.00    -0.289 OA
ATOM     20  C   UNL     1      12.259  -7.262 -71.787  1.00  0.00    -0.091 A 
ATOM     21  C   UNL     1      13.552  -7.989 -69.513  1.00  0.00    -0.105 A 
ATOM     22  C   UNL     1      12.213  -7.661 -69.479  1.00  0.00    -0.111 A 
ATOM     23  C   UNL     1      15.828  -7.474 -75.580  1.00  0.00     0.046 C 
ATOM     24  O   UNL     1      19.875  -8.902 -73.220  1.00  0.00    -0.872 OA
ATOM     25  O   UNL     1      11.637  -6.898 -72.965  1.00  0.00    -0.872 OA
ATOM     26  O   UNL     1      14.244  -8.366 -68.363  1.00  0.00    -0.872 OA
ATOM     27  O   UNL     1      11.499  -7.696 -68.287  1.00  0.00    -0.873 OA
BRANCH   9  28
ATOM     28  C   UNL     1      18.622  -8.164 -75.611  1.00  0.00     0.071 C 
ATOM     29  O   UNL     1      18.707  -9.116 -76.408  1.00  0.00    -0.545 OA
ATOM     30  O   UNL     1      19.297  -6.980 -75.898  1.00  0.00    -0.545 OA
ENDBRANCH   9  28
ENDBRANCH   1   7
BRANCH   6  31
ATOM     31  O   UNL     1      10.375  -5.635 -68.575  1.00  0.00    -0.387 OA
ATOM     32  H   UNL     1      10.976  -6.408 -68.441  1.00  0.00     0.211 HD
ENDBRANCH   6  31
BRANCH   3  33
ATOM     33  C   UNL     1       7.141  -8.776 -69.782  1.00  0.00     0.191 C 
BRANCH  33  34
ATOM     34  O   UNL     1       5.877  -8.229 -69.820  1.00  0.00    -0.394 OA
ATOM     35  H   UNL     1       5.420  -8.275 -68.928  1.00  0.00     0.210 HD
ENDBRANCH  33  34
ENDBRANCH   3  33
BRANCH   5  36
ATOM     36  O   UNL     1       8.086  -4.656 -71.084  1.00  0.00    -0.387 OA
ATOM     37  H   UNL     1       8.746  -3.979 -71.364  1.00  0.00     0.211 HD
ENDBRANCH   5  36
BRANCH   4  38
ATOM     38  O   UNL     1       6.873  -6.174 -68.305  1.00  0.00    -0.388 OA
ATOM     39  H   UNL     1       6.134  -6.860 -68.258  1.00  0.00     0.211 HD
ENDBRANCH   4  38
TORSDOF 7
ENDMDL
MODEL 3
REMARK VINA RESULT:      -7.8      7.188      9.232
REMARK SMILES Cc1c(C(=O)[O-])c([O-])cc2c1C(=O)c1c([O-])c([C@H]3O[C@H](CO)[C@@H](O)[C@H](O)[C@H]3O)c([O-])c([O-])c1C2=O
REMARK SMILES IDX 18 1 19 2 20 3 23 4 25 5 27 6 17 7 2 8 3 9 11 10 7 11 10 12
REMARK SMILES IDX 12 13 9 14 34 15 13 16 14 17 33 18 35 19 15 20 31 21 29 22
REMARK SMILES IDX 1 23 8 24 16 25 32 26 30 27 4 28 5 29 6 30 28 31 21 33 22 34
REMARK SMILES IDX 26 36 24 38
REMARK H PARENT 28 32 22 35 26 37 24 39
ROOT
ATOM      1  C   UNL     1      18.481  -0.420 -66.605  1.00  0.00     0.179 C 
ATOM      2  O   UNL     1      19.754  -0.058 -66.330  1.00  0.00    -0.362 OA
ATOM      3  C   UNL     1      20.129   1.221 -66.449  1.00  0.00     0.176 C 
ATOM      4  C   UNL     1      19.110   2.274 -66.240  1.00  0.00     0.177 C 
ATOM      5  C   UNL     1      17.719   1.913 -66.608  1.00  0.00     0.177 C 
ATOM      6  C   UNL     1      17.648   0.601 -67.319  1.00  0.00     0.179 C 
ENDROOT
BRANCH   1   7
ATOM      7  C   UNL     1      18.372  -1.746 -67.295  1.00  0.00    -0.032 A 
ATOM      8  C   UNL     1      20.431  -5.090 -72.146  1.00  0.00    -0.031 A 
ATOM      9  C   UNL     1      20.346  -6.304 -72.796  1.00  0.00    -0.007 A 
ATOM     10  C   UNL     1      19.708  -4.806 -71.003  1.00  0.00     0.037 A 
ATOM     11  C   UNL     1      19.516  -7.294 -72.311  1.00  0.00    -0.099 A 
ATOM     12  C   UNL     1      18.875  -5.801 -70.516  1.00  0.00     0.033 A 
ATOM     13  C   UNL     1      19.789  -3.526 -70.306  1.00  0.00     0.194 C 
ATOM     14  C   UNL     1      18.778  -7.021 -71.155  1.00  0.00     0.005 A 
ATOM     15  C   UNL     1      18.104  -5.518 -69.310  1.00  0.00     0.193 C 
ATOM     16  O   UNL     1      20.535  -2.628 -70.736  1.00  0.00    -0.289 OA
ATOM     17  C   UNL     1      19.018  -3.238 -69.094  1.00  0.00     0.026 A 
ATOM     18  C   UNL     1      18.190  -4.231 -68.614  1.00  0.00     0.025 A 
ATOM     19  O   UNL     1      17.345  -6.397 -68.850  1.00  0.00    -0.289 OA
ATOM     20  C   UNL     1      19.094  -2.029 -68.437  1.00  0.00    -0.091 A 
ATOM     21  C   UNL     1      17.457  -3.969 -67.471  1.00  0.00    -0.105 A 
ATOM     22  C   UNL     1      17.550  -2.751 -66.829  1.00  0.00    -0.111 A 
ATOM     23  C   UNL     1      21.332  -4.045 -72.691  1.00  0.00     0.046 C 
ATOM     24  O   UNL     1      19.399  -8.539 -72.939  1.00  0.00    -0.872 OA
ATOM     25  O   UNL     1      19.938  -1.068 -68.958  1.00  0.00    -0.872 OA
ATOM     26  O   UNL     1      16.626  -4.984 -67.001  1.00  0.00    -0.872 OA
ATOM     27  O   UNL     1      16.812  -2.491 -65.681  1.00  0.00    -0.873 OA
BRANCH   9  28
ATOM     28  C   UNL     1      21.111  -6.598 -74.003  1.00  0.00     0.071 C 
ATOM     29  O   UNL     1      22.259  -7.079 -74.008  1.00  0.00    -0.545 OA
ATOM     30  O   UNL     1      20.492  -6.313 -75.219  1.00  0.00    -0.545 OA
ENDBRANCH   9  28
ENDBRANCH   1   7
BRANCH   6  31
ATOM     31  O   UNL     1      17.957   0.746 -68.654  1.00  0.00    -0.387 OA
ATOM     32  H   UNL     1      18.257   1.670 -68.837  1.00  0.00     0.211 HD
ENDBRANCH   6  31
BRANCH   3  33
ATOM     33  C   UNL     1      21.250   1.477 -65.428  1.00  0.00     0.191 C 
BRANCH  33  34
ATOM     34  O   UNL     1      22.173   2.384 -65.902  1.00  0.00    -0.394 OA
ATOM     35  H   UNL     1      21.825   2.898 -66.690  1.00  0.00     0.210 HD
ENDBRANCH  33  34
ENDBRANCH   3  33
BRANCH   5  36
ATOM     36  O   UNL     1      16.851   1.929 -65.512  1.00  0.00    -0.387 OA
ATOM     37  H   UNL     1      16.972   1.141 -64.931  1.00  0.00     0.211 HD
ENDBRANCH   5  36
BRANCH   4  38
ATOM     38  O   UNL     1      19.536   3.428 -66.939  1.00  0.00    -0.388 OA
ATOM     39  H   UNL     1      20.545   3.380 -66.977  1.00  0.00     0.211 HD
ENDBRANCH   4  38
TORSDOF 7
ENDMDL
MODEL 4
REMARK VINA RESULT:      -7.7      2.198      4.169
REMARK SMILES Cc1c(C(=O)[O-])c([O-])cc2c1C(=O)c1c([O-])c([C@H]3O[C@H](CO)[C@@H](O)[C@H](O)[C@H]3O)c([O-])c([O-])c1C2=O
REMARK SMILES IDX 18 1 19 2 20 3 23 4 25 5 27 6 17 7 2 8 3 9 11 10 7 11 10 12
REMARK SMILES IDX 12 13 9 14 34 15 13 16 14 17 33 18 35 19 15 20 31 21 29 22
REMARK SMILES IDX 1 23 8 24 16 25 32 26 30 27 4 28 5 29 6 30 28 31 21 33 22 34
REMARK SMILES IDX 26 36 24 38
REMARK H PARENT 28 32 22 35 26 37 24 39
ROOT
ATOM      1  C   UNL     1      10.884  -7.037 -69.304  1.00  0.00     0.179 C 
ATOM      2  O   UNL     1      10.115  -6.064 -69.842  1.00  0.00    -0.362 OA
ATOM      3  C   UNL     1       8.810  -6.276 -70.047  1.00  0.00     0.176 C 
ATOM      4  C   UNL     1       8.104  -7.223 -69.156  1.00  0.00     0.177 C 
ATOM      5  C   UNL     1       8.920  -8.339 -68.617  1.00  0.00     0.177 C 
ATOM      6  C   UNL     1      10.271  -8.404 -69.251  1.00  0.00     0.179 C 
ENDROOT
BRANCH   1   7
ATOM      7  C   UNL     1      12.257  -7.112 -69.900  1.00  0.00    -0.032 A 
ATOM      8  C   UNL     1      18.341  -7.389 -68.534  1.00  0.00    -0.031 A 
ATOM      9  C   UNL     1      19.613  -7.458 -69.063  1.00  0.00    -0.007 A 
ATOM     10  C   UNL     1      17.208  -7.344 -69.325  1.00  0.00     0.037 A 
ATOM     11  C   UNL     1      19.796  -7.486 -70.430  1.00  0.00    -0.099 A 
ATOM     12  C   UNL     1      17.393  -7.373 -70.698  1.00  0.00     0.033 A 
ATOM     13  C   UNL     1      15.856  -7.271 -68.777  1.00  0.00     0.194 C 
ATOM     14  C   UNL     1      18.659  -7.441 -71.244  1.00  0.00     0.005 A 
ATOM     15  C   UNL     1      16.207  -7.326 -71.548  1.00  0.00     0.193 C 
ATOM     16  O   UNL     1      15.683  -7.246 -67.546  1.00  0.00    -0.289 OA
ATOM     17  C   UNL     1      14.664  -7.226 -69.628  1.00  0.00     0.026 A 
ATOM     18  C   UNL     1      14.852  -7.253 -70.993  1.00  0.00     0.025 A 
ATOM     19  O   UNL     1      16.344  -7.350 -72.789  1.00  0.00    -0.289 OA
ATOM     20  C   UNL     1      13.388  -7.156 -69.110  1.00  0.00    -0.091 A 
ATOM     21  C   UNL     1      13.733  -7.210 -71.803  1.00  0.00    -0.105 A 
ATOM     22  C   UNL     1      12.465  -7.141 -71.264  1.00  0.00    -0.111 A 
ATOM     23  C   UNL     1      18.176  -7.361 -67.061  1.00  0.00     0.046 C 
ATOM     24  O   UNL     1      21.068  -7.555 -71.009  1.00  0.00    -0.872 OA
ATOM     25  O   UNL     1      13.254  -7.130 -67.736  1.00  0.00    -0.872 OA
ATOM     26  O   UNL     1      13.943  -7.239 -73.181  1.00  0.00    -0.872 OA
ATOM     27  O   UNL     1      11.342  -7.098 -72.081  1.00  0.00    -0.873 OA
BRANCH   9  28
ATOM     28  C   UNL     1      20.805  -7.504 -68.224  1.00  0.00     0.071 C 
ATOM     29  O   UNL     1      21.425  -6.501 -67.826  1.00  0.00    -0.545 OA
ATOM     30  O   UNL     1      21.261  -8.769 -67.856  1.00  0.00    -0.545 OA
ENDBRANCH   9  28
ENDBRANCH   1   7
BRANCH   6  31
ATOM     31  O   UNL     1      10.213  -9.043 -70.470  1.00  0.00    -0.387 OA
ATOM     32  H   UNL     1      10.079 -10.013 -70.342  1.00  0.00     0.211 HD
ENDBRANCH   6  31
BRANCH   3  33
ATOM     33  C   UNL     1       8.090  -4.923 -69.920  1.00  0.00     0.191 C 
BRANCH  33  34
ATOM     34  O   UNL     1       8.113  -4.220 -71.105  1.00  0.00    -0.394 OA
ATOM     35  H   UNL     1       8.143  -3.229 -70.954  1.00  0.00     0.210 HD
ENDBRANCH  33  34
ENDBRANCH   3  33
BRANCH   5  36
ATOM     36  O   UNL     1       9.029  -8.301 -67.224  1.00  0.00    -0.387 OA
ATOM     37  H   UNL     1       9.765  -7.717 -66.924  1.00  0.00     0.211 HD
ENDBRANCH   5  36
BRANCH   4  38
ATOM     38  O   UNL     1       6.976  -7.712 -69.856  1.00  0.00    -0.388 OA
ATOM     39  H   UNL     1       6.881  -8.684 -69.598  1.00  0.00     0.211 HD
ENDBRANCH   4  38
TORSDOF 7
ENDMDL
MODEL 5
REMARK VINA RESULT:      -7.7      1.900      4.035
REMARK SMILES Cc1c(C(=O)[O-])c([O-])cc2c1C(=O)c1c([O-])c([C@H]3O[C@H](CO)[C@@H](O)[C@H](O)[C@H]3O)c([O-])c([O-])c1C2=O
REMARK SMILES IDX 18 1 19 2 20 3 23 4 25 5 27 6 17 7 2 8 3 9 11 10 7 11 10 12
REMARK SMILES IDX 12 13 9 14 34 15 13 16 14 17 33 18 35 19 15 20 31 21 29 22
REMARK SMILES IDX 1 23 8 24 16 25 32 26 30 27 4 28 5 29 6 30 28 31 21 33 22 34
REMARK SMILES IDX 26 36 24 38
REMARK H PARENT 28 32 22 35 26 37 24 39
ROOT
ATOM      1  C   UNL     1      11.737  -7.840 -70.850  1.00  0.00     0.179 C 
ATOM      2  O   UNL     1      11.096  -6.649 -70.826  1.00  0.00    -0.362 OA
ATOM      3  C   UNL     1       9.759  -6.607 -70.792  1.00  0.00     0.176 C 
ATOM      4  C   UNL     1       9.036  -7.730 -70.153  1.00  0.00     0.177 C 
ATOM      5  C   UNL     1       9.695  -9.057 -70.238  1.00  0.00     0.177 C 
ATOM      6  C   UNL     1      10.884  -9.038 -71.142  1.00  0.00     0.179 C 
ENDROOT
BRANCH   1   7
ATOM      7  C   UNL     1      12.951  -7.847 -71.727  1.00  0.00    -0.032 A 
ATOM      8  C   UNL     1      18.978  -9.446 -71.986  1.00  0.00    -0.031 A 
ATOM      9  C   UNL     1      20.107  -9.462 -72.778  1.00  0.00    -0.007 A 
ATOM     10  C   UNL     1      17.770  -8.938 -72.424  1.00  0.00     0.037 A 
ATOM     11  C   UNL     1      20.062  -8.959 -74.062  1.00  0.00    -0.099 A 
ATOM     12  C   UNL     1      17.725  -8.434 -73.714  1.00  0.00     0.033 A 
ATOM     13  C   UNL     1      16.568  -8.916 -71.595  1.00  0.00     0.194 C 
ATOM     14  C   UNL     1      18.846  -8.441 -74.519  1.00  0.00     0.005 A 
ATOM     15  C   UNL     1      16.456  -7.893 -74.192  1.00  0.00     0.193 C 
ATOM     16  O   UNL     1      16.601  -9.367 -70.437  1.00  0.00    -0.289 OA
ATOM     17  C   UNL     1      15.292  -8.375 -72.073  1.00  0.00     0.026 A 
ATOM     18  C   UNL     1      15.252  -7.873 -73.356  1.00  0.00     0.025 A 
ATOM     19  O   UNL     1      16.387  -7.432 -75.351  1.00  0.00    -0.289 OA
ATOM     20  C   UNL     1      14.158  -8.353 -71.289  1.00  0.00    -0.091 A 
ATOM     21  C   UNL     1      14.053  -7.361 -73.815  1.00  0.00    -0.105 A 
ATOM     22  C   UNL     1      12.930  -7.350 -73.015  1.00  0.00    -0.111 A 
ATOM     23  C   UNL     1      19.059  -9.993 -70.610  1.00  0.00     0.046 C 
ATOM     24  O   UNL     1      21.183  -8.955 -74.899  1.00  0.00    -0.872 OA
ATOM     25  O   UNL     1      14.251  -8.867 -70.012  1.00  0.00    -0.872 OA
ATOM     26  O   UNL     1      14.032  -6.859 -75.115  1.00  0.00    -0.872 OA
ATOM     27  O   UNL     1      11.726  -6.834 -73.479  1.00  0.00    -0.873 OA
BRANCH   9  28
ATOM     28  C   UNL     1      21.381  -9.999 -72.310  1.00  0.00     0.071 C 
ATOM     29  O   UNL     1      21.739 -11.182 -72.450  1.00  0.00    -0.545 OA
ATOM     30  O   UNL     1      22.237  -9.105 -71.669  1.00  0.00    -0.545 OA
ENDBRANCH   9  28
ENDBRANCH   1   7
BRANCH   6  31
ATOM     31  O   UNL     1      10.502  -9.150 -72.461  1.00  0.00    -0.387 OA
ATOM     32  H   UNL     1      11.011  -9.871 -72.904  1.00  0.00     0.211 HD
ENDBRANCH   6  31
BRANCH   3  33
ATOM     33  C   UNL     1       9.350  -5.329 -70.040  1.00  0.00     0.191 C 
BRANCH  33  34
ATOM     34  O   UNL     1       8.484  -4.556 -70.783  1.00  0.00    -0.394 OA
ATOM     35  H   UNL     1       7.592  -4.456 -70.336  1.00  0.00     0.210 HD
ENDBRANCH  33  34
ENDBRANCH   3  33
BRANCH   5  36
ATOM     36  O   UNL     1      10.036  -9.569 -68.982  1.00  0.00    -0.387 OA
ATOM     37  H   UNL     1       9.769 -10.512 -68.880  1.00  0.00     0.211 HD
ENDBRANCH   5  36
BRANCH   4  38
ATOM     38  O   UNL     1       7.735  -7.773 -70.707  1.00  0.00    -0.388 OA
ATOM     39  H   UNL     1       7.724  -7.098 -71.459  1.00  0.00     0.211 HD
ENDBRANCH   4  38
TORSDOF 7
ENDMDL
MODEL 6
REMARK VINA RESULT:      -7.7      1.605      3.349
REMARK SMILES Cc1c(C(=O)[O-])c([O-])cc2c1C(=O)c1c([O-])c([C@H]3O[C@H](CO)[C@@H](O)[C@H](O)[C@H]3O)c([O-])c([O-])c1C2=O
REMARK SMILES IDX 18 1 19 2 20 3 23 4 25 5 27 6 17 7 2 8 3 9 11 10 7 11 10 12
REMARK SMILES IDX 12 13 9 14 34 15 13 16 14 17 33 18 35 19 15 20 31 21 29 22
REMARK SMILES IDX 1 23 8 24 16 25 32 26 30 27 4 28 5 29 6 30 28 31 21 33 22 34
REMARK SMILES IDX 26 36 24 38
REMARK H PARENT 28 32 22 35 26 37 24 39
ROOT
ATOM      1  C   UNL     1      10.747  -7.383 -68.139  1.00  0.00     0.179 C 
ATOM      2  O   UNL     1       9.924  -6.310 -68.164  1.00  0.00    -0.362 OA
ATOM      3  C   UNL     1       8.648  -6.435 -67.781  1.00  0.00     0.176 C 
ATOM      4  C   UNL     1       8.314  -7.468 -66.775  1.00  0.00     0.177 C 
ATOM      5  C   UNL     1       9.165  -8.684 -66.787  1.00  0.00     0.177 C 
ATOM      6  C   UNL     1      10.084  -8.716 -67.964  1.00  0.00     0.179 C 
ENDROOT
BRANCH   1   7
ATOM      7  C   UNL     1      11.701  -7.431 -69.293  1.00  0.00    -0.032 A 
ATOM      8  C   UNL     1      17.684  -8.269 -70.862  1.00  0.00    -0.031 A 
ATOM      9  C   UNL     1      18.578  -8.317 -71.911  1.00  0.00    -0.007 A 
ATOM     10  C   UNL     1      16.335  -8.029 -71.045  1.00  0.00     0.037 A 
ATOM     11  C   UNL     1      18.141  -8.123 -73.205  1.00  0.00    -0.099 A 
ATOM     12  C   UNL     1      15.897  -7.835 -72.346  1.00  0.00     0.033 A 
ATOM     13  C   UNL     1      15.379  -7.976 -69.943  1.00  0.00     0.194 C 
ATOM     14  C   UNL     1      16.779  -7.879 -73.407  1.00  0.00     0.005 A 
ATOM     15  C   UNL     1      14.475  -7.580 -72.556  1.00  0.00     0.193 C 
ATOM     16  O   UNL     1      15.765  -8.150 -68.774  1.00  0.00    -0.289 OA
ATOM     17  C   UNL     1      13.951  -7.721 -70.152  1.00  0.00     0.026 A 
ATOM     18  C   UNL     1      13.519  -7.528 -71.447  1.00  0.00     0.025 A 
ATOM     19  O   UNL     1      14.053  -7.401 -73.718  1.00  0.00    -0.289 OA
ATOM     20  C   UNL     1      13.048  -7.670 -69.110  1.00  0.00    -0.091 A 
ATOM     21  C   UNL     1      12.174  -7.287 -71.653  1.00  0.00    -0.105 A 
ATOM     22  C   UNL     1      11.288  -7.240 -70.596  1.00  0.00    -0.111 A 
ATOM     23  C   UNL     1      18.184  -8.481 -69.482  1.00  0.00     0.046 C 
ATOM     24  O   UNL     1      19.014  -8.163 -74.299  1.00  0.00    -0.872 OA
ATOM     25  O   UNL     1      13.532  -7.870 -67.833  1.00  0.00    -0.872 OA
ATOM     26  O   UNL     1      11.756  -7.093 -72.969  1.00  0.00    -0.872 OA
ATOM     27  O   UNL     1       9.936  -6.998 -70.807  1.00  0.00    -0.873 OA
BRANCH   9  28
ATOM     28  C   UNL     1      20.001  -8.570 -71.713  1.00  0.00     0.071 C 
ATOM     29  O   UNL     1      20.852  -7.684 -71.513  1.00  0.00    -0.545 OA
ATOM     30  O   UNL     1      20.410  -9.902 -71.754  1.00  0.00    -0.545 OA
ENDBRANCH   9  28
ENDBRANCH   1   7
BRANCH   6  31
ATOM     31  O   UNL     1       9.429  -9.170 -69.088  1.00  0.00    -0.387 OA
ATOM     32  H   UNL     1       9.511  -8.513 -69.822  1.00  0.00     0.211 HD
ENDBRANCH   6  31
BRANCH   3  33
ATOM     33  C   UNL     1       8.202  -5.084 -67.197  1.00  0.00     0.191 C 
BRANCH  33  34
ATOM     34  O   UNL     1       6.938  -4.738 -67.622  1.00  0.00    -0.394 OA
ATOM     35  H   UNL     1       6.358  -4.428 -66.865  1.00  0.00     0.210 HD
ENDBRANCH  33  34
ENDBRANCH   3  33
BRANCH   5  36
ATOM     36  O   UNL     1       9.880  -8.851 -65.597  1.00  0.00    -0.387 OA
ATOM     37  H   UNL     1       9.365  -8.557 -64.809  1.00  0.00     0.211 HD
ENDBRANCH   5  36
BRANCH   4  38
ATOM     38  O   UNL     1       6.949  -7.802 -66.942  1.00  0.00    -0.388 OA
ATOM     39  H   UNL     1       6.739  -7.657 -67.919  1.00  0.00     0.211 HD
ENDBRANCH   4  38
TORSDOF 7
ENDMDL
MODEL 7
REMARK VINA RESULT:      -7.6      2.583      4.981
REMARK SMILES Cc1c(C(=O)[O-])c([O-])cc2c1C(=O)c1c([O-])c([C@H]3O[C@H](CO)[C@@H](O)[C@H](O)[C@H]3O)c([O-])c([O-])c1C2=O
REMARK SMILES IDX 18 1 19 2 20 3 23 4 25 5 27 6 17 7 2 8 3 9 11 10 7 11 10 12
REMARK SMILES IDX 12 13 9 14 34 15 13 16 14 17 33 18 35 19 15 20 31 21 29 22
REMARK SMILES IDX 1 23 8 24 16 25 32 26 30 27 4 28 5 29 6 30 28 31 21 33 22 34
REMARK SMILES IDX 26 36 24 38
REMARK H PARENT 28 32 22 35 26 37 24 39
ROOT
ATOM      1  C   UNL     1      10.462  -8.150 -69.945  1.00  0.00     0.179 C 
ATOM      2  O   UNL     1      10.349  -8.918 -68.838  1.00  0.00    -0.362 OA
ATOM      3  C   UNL     1       9.356  -8.698 -67.968  1.00  0.00     0.176 C 
ATOM      4  C   UNL     1       8.089  -8.127 -68.477  1.00  0.00     0.177 C 
ATOM      5  C   UNL     1       8.209  -7.224 -69.647  1.00  0.00     0.177 C 
ATOM      6  C   UNL     1       9.632  -6.902 -69.966  1.00  0.00     0.179 C 
ENDROOT
BRANCH   1   7
ATOM      7  C   UNL     1      11.880  -7.831 -70.308  1.00  0.00    -0.032 A 
ATOM      8  C   UNL     1      17.407  -6.084 -67.995  1.00  0.00    -0.031 A 
ATOM      9  C   UNL     1      18.717  -5.787 -68.309  1.00  0.00    -0.007 A 
ATOM     10  C   UNL     1      16.480  -6.454 -68.951  1.00  0.00     0.037 A 
ATOM     11  C   UNL     1      19.150  -5.852 -69.617  1.00  0.00    -0.099 A 
ATOM     12  C   UNL     1      16.915  -6.519 -70.265  1.00  0.00     0.033 A 
ATOM     13  C   UNL     1      15.091  -6.771 -68.632  1.00  0.00     0.194 C 
ATOM     14  C   UNL     1      18.223  -6.224 -70.596  1.00  0.00     0.005 A 
ATOM     15  C   UNL     1      15.948  -6.907 -71.287  1.00  0.00     0.193 C 
ATOM     16  O   UNL     1      14.693  -6.716 -67.455  1.00  0.00    -0.289 OA
ATOM     17  C   UNL     1      14.118  -7.163 -69.655  1.00  0.00     0.026 A 
ATOM     18  C   UNL     1      14.555  -7.225 -70.961  1.00  0.00     0.025 A 
ATOM     19  O   UNL     1      16.313  -6.974 -72.480  1.00  0.00    -0.289 OA
ATOM     20  C   UNL     1      12.806  -7.461 -69.353  1.00  0.00    -0.091 A 
ATOM     21  C   UNL     1      13.644  -7.593 -71.933  1.00  0.00    -0.105 A 
ATOM     22  C   UNL     1      12.336  -7.889 -71.609  1.00  0.00    -0.111 A 
ATOM     23  C   UNL     1      16.973  -6.006 -66.580  1.00  0.00     0.046 C 
ATOM     24  O   UNL     1      20.470  -5.557 -69.979  1.00  0.00    -0.872 OA
ATOM     25  O   UNL     1      12.419  -7.383 -68.031  1.00  0.00    -0.872 OA
ATOM     26  O   UNL     1      14.104  -7.651 -73.248  1.00  0.00    -0.872 OA
ATOM     27  O   UNL     1      11.423  -8.258 -72.589  1.00  0.00    -0.873 OA
BRANCH   9  28
ATOM     28  C   UNL     1      19.693  -5.397 -67.296  1.00  0.00     0.071 C 
ATOM     29  O   UNL     1      20.420  -6.194 -66.677  1.00  0.00    -0.545 OA
ATOM     30  O   UNL     1      19.798  -4.034 -67.024  1.00  0.00    -0.545 OA
ENDBRANCH   9  28
ENDBRANCH   1   7
BRANCH   6  31
ATOM     31  O   UNL     1      10.105  -5.897 -69.150  1.00  0.00    -0.387 OA
ATOM     32  H   UNL     1      10.191  -6.223 -68.221  1.00  0.00     0.211 HD
ENDBRANCH   6  31
BRANCH   3  33
ATOM     33  C   UNL     1       9.006 -10.043 -67.308  1.00  0.00     0.191 C 
BRANCH  33  34
ATOM     34  O   UNL     1       7.658 -10.318 -67.396  1.00  0.00    -0.394 OA
ATOM     35  H   UNL     1       7.375 -10.517 -68.337  1.00  0.00     0.210 HD
ENDBRANCH  33  34
ENDBRANCH   3  33
BRANCH   5  36
ATOM     36  O   UNL     1       7.549  -7.717 -70.777  1.00  0.00    -0.387 OA
ATOM     37  H   UNL     1       7.730  -7.174 -71.580  1.00  0.00     0.211 HD
ENDBRANCH   5  36
BRANCH   4  38
ATOM     38  O   UNL     1       7.447  -7.476 -67.396  1.00  0.00    -0.388 OA
ATOM     39  H   UNL     1       6.869  -8.172 -66.949  1.00  0.00     0.211 HD
ENDBRANCH   4  38
TORSDOF 7
ENDMDL
MODEL 8
REMARK VINA RESULT:      -7.6      1.746      9.340
REMARK SMILES Cc1c(C(=O)[O-])c([O-])cc2c1C(=O)c1c([O-])c([C@H]3O[C@H](CO)[C@@H](O)[C@H](O)[C@H]3O)c([O-])c([O-])c1C2=O
REMARK SMILES IDX 18 1 19 2 20 3 23 4 25 5 27 6 17 7 2 8 3 9 11 10 7 11 10 12
REMARK SMILES IDX 12 13 9 14 34 15 13 16 14 17 33 18 35 19 15 20 31 21 29 22
REMARK SMILES IDX 1 23 8 24 16 25 32 26 30 27 4 28 5 29 6 30 28 31 21 33 22 34
REMARK SMILES IDX 26 36 24 38
REMARK H PARENT 28 32 22 35 26 37 24 39
ROOT
ATOM      1  C   UNL     1      17.813  -9.033 -72.420  1.00  0.00     0.179 C 
ATOM      2  O   UNL     1      17.984  -9.865 -73.472  1.00  0.00    -0.362 OA
ATOM      3  C   UNL     1      19.122  -9.832 -74.176  1.00  0.00     0.176 C 
ATOM      4  C   UNL     1      20.364  -9.417 -73.485  1.00  0.00     0.177 C 
ATOM      5  C   UNL     1      20.196  -8.446 -72.376  1.00  0.00     0.177 C 
ATOM      6  C   UNL     1      18.803  -7.913 -72.301  1.00  0.00     0.179 C 
ENDROOT
BRANCH   1   7
ATOM      7  C   UNL     1      16.418  -8.501 -72.300  1.00  0.00    -0.032 A 
ATOM      8  C   UNL     1      11.832  -7.234 -68.260  1.00  0.00    -0.031 A 
ATOM      9  C   UNL     1      10.548  -6.747 -68.129  1.00  0.00    -0.007 A 
ATOM     10  C   UNL     1      12.472  -7.324 -69.482  1.00  0.00     0.037 A 
ATOM     11  C   UNL     1       9.848  -6.325 -69.241  1.00  0.00    -0.099 A 
ATOM     12  C   UNL     1      11.768  -6.900 -70.599  1.00  0.00     0.033 A 
ATOM     13  C   UNL     1      13.830  -7.837 -69.635  1.00  0.00     0.194 C 
ATOM     14  C   UNL     1      10.482  -6.410 -70.485  1.00  0.00     0.005 A 
ATOM     15  C   UNL     1      12.429  -6.988 -71.897  1.00  0.00     0.193 C 
ATOM     16  O   UNL     1      14.467  -8.219 -68.637  1.00  0.00    -0.289 OA
ATOM     17  C   UNL     1      14.497  -7.926 -70.937  1.00  0.00     0.026 A 
ATOM     18  C   UNL     1      13.793  -7.504 -72.044  1.00  0.00     0.025 A 
ATOM     19  O   UNL     1      11.818  -6.613 -72.920  1.00  0.00    -0.289 OA
ATOM     20  C   UNL     1      15.779  -8.412 -71.080  1.00  0.00    -0.091 A 
ATOM     21  C   UNL     1      14.414  -7.585 -73.277  1.00  0.00    -0.105 A 
ATOM     22  C   UNL     1      15.698  -8.074 -73.397  1.00  0.00    -0.111 A 
ATOM     23  C   UNL     1      12.558  -7.680 -67.047  1.00  0.00     0.046 C 
ATOM     24  O   UNL     1       8.544  -5.825 -69.153  1.00  0.00    -0.872 OA
ATOM     25  O   UNL     1      16.440  -8.822 -69.939  1.00  0.00    -0.872 OA
ATOM     26  O   UNL     1      13.687  -7.153 -74.385  1.00  0.00    -0.872 OA
ATOM     27  O   UNL     1      16.319  -8.153 -74.637  1.00  0.00    -0.873 OA
BRANCH   9  28
ATOM     28  C   UNL     1       9.877  -6.655 -66.837  1.00  0.00     0.071 C 
ATOM     29  O   UNL     1       9.244  -7.585 -66.305  1.00  0.00    -0.545 OA
ATOM     30  O   UNL     1       9.966  -5.432 -66.174  1.00  0.00    -0.545 OA
ENDBRANCH   9  28
ENDBRANCH   1   7
BRANCH   6  31
ATOM     31  O   UNL     1      18.615  -6.896 -73.211  1.00  0.00    -0.387 OA
ATOM     32  H   UNL     1      19.317  -6.209 -73.107  1.00  0.00     0.211 HD
ENDBRANCH   6  31
BRANCH   3  33
ATOM     33  C   UNL     1      19.371 -11.244 -74.731  1.00  0.00     0.191 C 
BRANCH  33  34
ATOM     34  O   UNL     1      19.949 -11.206 -75.981  1.00  0.00    -0.394 OA
ATOM     35  H   UNL     1      20.205 -12.120 -76.305  1.00  0.00     0.210 HD
ENDBRANCH  33  34
ENDBRANCH   3  33
BRANCH   5  36
ATOM     36  O   UNL     1      20.593  -8.967 -71.141  1.00  0.00    -0.387 OA
ATOM     37  H   UNL     1      19.847  -9.400 -70.663  1.00  0.00     0.211 HD
ENDBRANCH   5  36
BRANCH   4  38
ATOM     38  O   UNL     1      21.254  -8.918 -74.466  1.00  0.00    -0.388 OA
ATOM     39  H   UNL     1      21.585  -9.721 -74.983  1.00  0.00     0.211 HD
ENDBRANCH   4  38
TORSDOF 7
ENDMDL
MODEL 9
REMARK VINA RESULT:      -7.5      5.264      9.715
REMARK SMILES Cc1c(C(=O)[O-])c([O-])cc2c1C(=O)c1c([O-])c([C@H]3O[C@H](CO)[C@@H](O)[C@H](O)[C@H]3O)c([O-])c([O-])c1C2=O
REMARK SMILES IDX 18 1 19 2 20 3 23 4 25 5 27 6 17 7 2 8 3 9 11 10 7 11 10 12
REMARK SMILES IDX 12 13 9 14 34 15 13 16 14 17 33 18 35 19 15 20 31 21 29 22
REMARK SMILES IDX 1 23 8 24 16 25 32 26 30 27 4 28 5 29 6 30 28 31 21 33 22 34
REMARK SMILES IDX 26 36 24 38
REMARK H PARENT 28 32 22 35 26 37 24 39
ROOT
ATOM      1  C   UNL     1      19.300  -8.336 -74.572  1.00  0.00     0.179 C 
ATOM      2  O   UNL     1      19.853  -9.557 -74.752  1.00  0.00    -0.362 OA
ATOM      3  C   UNL     1      19.767 -10.164 -75.941  1.00  0.00     0.176 C 
ATOM      4  C   UNL     1      19.677  -9.322 -77.155  1.00  0.00     0.177 C 
ATOM      5  C   UNL     1      19.005  -8.010 -76.986  1.00  0.00     0.177 C 
ATOM      6  C   UNL     1      18.360  -7.877 -75.645  1.00  0.00     0.179 C 
ENDROOT
BRANCH   1   7
ATOM      7  C   UNL     1      18.668  -8.160 -73.225  1.00  0.00    -0.032 A 
ATOM      8  C   UNL     1      18.091  -4.248 -68.396  1.00  0.00    -0.031 A 
ATOM      9  C   UNL     1      17.517  -4.067 -67.154  1.00  0.00    -0.007 A 
ATOM     10  C   UNL     1      17.900  -5.396 -69.142  1.00  0.00     0.037 A 
ATOM     11  C   UNL     1      16.717  -5.050 -66.609  1.00  0.00    -0.099 A 
ATOM     12  C   UNL     1      17.096  -6.383 -68.594  1.00  0.00     0.033 A 
ATOM     13  C   UNL     1      18.501  -5.600 -70.457  1.00  0.00     0.194 C 
ATOM     14  C   UNL     1      16.515  -6.217 -67.352  1.00  0.00     0.005 A 
ATOM     15  C   UNL     1      16.884  -7.601 -69.369  1.00  0.00     0.193 C 
ATOM     16  O   UNL     1      19.224  -4.719 -70.956  1.00  0.00    -0.289 OA
ATOM     17  C   UNL     1      18.290  -6.822 -71.238  1.00  0.00     0.026 A 
ATOM     18  C   UNL     1      17.490  -7.801 -70.688  1.00  0.00     0.025 A 
ATOM     19  O   UNL     1      16.164  -8.507 -68.898  1.00  0.00    -0.289 OA
ATOM     20  C   UNL     1      18.859  -7.014 -72.479  1.00  0.00    -0.091 A 
ATOM     21  C   UNL     1      17.285  -8.957 -71.418  1.00  0.00    -0.105 A 
ATOM     22  C   UNL     1      17.864  -9.129 -72.659  1.00  0.00    -0.111 A 
ATOM     23  C   UNL     1      18.946  -3.174 -68.956  1.00  0.00     0.046 C 
ATOM     24  O   UNL     1      16.117  -4.907 -65.353  1.00  0.00    -0.872 OA
ATOM     25  O   UNL     1      19.651  -6.004 -72.985  1.00  0.00    -0.872 OA
ATOM     26  O   UNL     1      16.473  -9.935 -70.846  1.00  0.00    -0.872 OA
ATOM     27  O   UNL     1      17.656 -10.292 -73.389  1.00  0.00    -0.873 OA
BRANCH   9  28
ATOM     28  C   UNL     1      17.722  -2.854 -66.370  1.00  0.00     0.071 C 
ATOM     29  O   UNL     1      16.970  -1.862 -66.399  1.00  0.00    -0.545 OA
ATOM     30  O   UNL     1      18.842  -2.829 -65.540  1.00  0.00    -0.545 OA
ENDBRANCH   9  28
ENDBRANCH   1   7
BRANCH   6  31
ATOM     31  O   UNL     1      17.133  -8.502 -75.625  1.00  0.00    -0.387 OA
ATOM     32  H   UNL     1      17.164  -9.299 -75.041  1.00  0.00     0.211 HD
ENDBRANCH   6  31
BRANCH   3  33
ATOM     33  C   UNL     1      21.012 -11.052 -76.105  1.00  0.00     0.191 C 
BRANCH  33  34
ATOM     34  O   UNL     1      20.941 -11.824 -77.244  1.00  0.00    -0.394 OA
ATOM     35  H   UNL     1      20.879 -12.802 -77.032  1.00  0.00     0.210 HD
ENDBRANCH  33  34
ENDBRANCH   3  33
BRANCH   5  36
ATOM     36  O   UNL     1      19.861  -6.932 -77.233  1.00  0.00    -0.387 OA
ATOM     37  H   UNL     1      19.690  -6.175 -76.624  1.00  0.00     0.211 HD
ENDBRANCH   5  36
BRANCH   4  38
ATOM     38  O   UNL     1      19.046 -10.090 -78.163  1.00  0.00    -0.388 OA
ATOM     39  H   UNL     1      18.052  -9.980 -78.022  1.00  0.00     0.211 HD
ENDBRANCH   4  38
TORSDOF 7
ENDMDL
