MODEL 1
REMARK VINA RESULT:     -12.2      0.000      0.000
REMARK SMILES O=C1NCN(c2ccccc2)C12CC[NH+](CCCC(c1ccc(F)cc1)c1ccc(F)cc1)CC2
REMARK SMILES IDX 17 1 16 2 15 3 1 4 2 5 3 6 12 7 4 8 5 9 13 10 35 11 14 12
REMARK SMILES IDX 34 13 6 16 7 17 11 18 8 19 10 20 9 21 18 22 19 23 20 24
REMARK SMILES IDX 21 25 26 26 22 27 25 28 23 29 24 30 27 31 28 32 33 33 29 34
REMARK SMILES IDX 32 35 30 36 31 37
REMARK H PARENT 3 14 15 15
ROOT
ATOM      1  C   UNL     1     -34.582 -18.933   3.016  1.00  0.00     0.062 C 
ENDROOT
BRANCH   1   2
ATOM      2  C   UNL     1     -35.474 -19.671   3.970  1.00  0.00     0.262 C 
BRANCH   2   3
ATOM      3  N   UNL     1     -36.854 -19.634   3.500  1.00  0.00    -0.335 N 
ATOM      4  O   UNL     1     -39.317 -21.282   2.217  1.00  0.00    -0.272 OA
ATOM      5  C   UNL     1     -39.872 -20.186   1.992  1.00  0.00     0.247 C 
ATOM      6  N   UNL     1     -41.126 -20.044   1.371  1.00  0.00    -0.336 N 
ATOM      7  C   UNL     1     -39.306 -18.829   2.342  1.00  0.00     0.131 C 
ATOM      8  C   UNL     1     -41.597 -18.740   1.715  1.00  0.00     0.238 C 
ATOM      9  N   UNL     1     -40.368 -17.946   1.865  1.00  0.00    -0.339 N 
ATOM     10  C   UNL     1     -38.011 -18.632   1.579  1.00  0.00     0.100 C 
ATOM     11  C   UNL     1     -39.099 -18.790   3.814  1.00  0.00     0.100 C 
ATOM     12  C   UNL     1     -36.942 -19.587   2.055  1.00  0.00     0.265 C 
ATOM     13  C   UNL     1     -37.650 -18.612   4.127  1.00  0.00     0.265 C 
ATOM     14  H   UNL     1     -41.601 -20.774   0.774  1.00  0.00     0.165 HD
ATOM     15  H   UNL     1     -37.247 -20.554   3.796  1.00  0.00     0.348 HD
BRANCH   9  16
ATOM     16  C   UNL     1     -40.345 -16.564   1.549  1.00  0.00     0.039 A 
ATOM     17  C   UNL     1     -41.427 -15.953   0.960  1.00  0.00     0.026 A 
ATOM     18  C   UNL     1     -39.246 -15.820   1.851  1.00  0.00     0.026 A 
ATOM     19  C   UNL     1     -41.423 -14.587   0.662  1.00  0.00     0.002 A 
ATOM     20  C   UNL     1     -39.222 -14.482   1.568  1.00  0.00     0.002 A 
ATOM     21  C   UNL     1     -40.294 -13.863   0.981  1.00  0.00     0.000 A 
ENDBRANCH   9  16
ENDBRANCH   2   3
ENDBRANCH   1   2
BRANCH   1  22
ATOM     22  C   UNL     1     -33.583 -19.723   2.287  1.00  0.00     0.019 C 
BRANCH  22  23
ATOM     23  C   UNL     1     -33.308 -21.120   2.590  1.00  0.00     0.049 C 
BRANCH  23  24
ATOM     24  C   UNL     1     -33.694 -22.107   1.520  1.00  0.00    -0.040 A 
ATOM     25  C   UNL     1     -33.981 -21.589   0.277  1.00  0.00     0.007 A 
ATOM     26  C   UNL     1     -33.787 -23.453   1.756  1.00  0.00     0.007 A 
ATOM     27  C   UNL     1     -34.364 -22.421  -0.745  1.00  0.00     0.039 A 
ATOM     28  C   UNL     1     -34.169 -24.279   0.734  1.00  0.00     0.039 A 
ATOM     29  C   UNL     1     -34.465 -23.778  -0.539  1.00  0.00     0.123 A 
ATOM     30  F   UNL     1     -34.846 -24.591  -1.557  1.00  0.00    -0.207 F 
ENDBRANCH  23  24
BRANCH  23  31
ATOM     31  C   UNL     1     -32.059 -21.512   3.223  1.00  0.00    -0.040 A 
ATOM     32  C   UNL     1     -30.796 -21.216   2.794  1.00  0.00     0.007 A 
ATOM     33  C   UNL     1     -32.192 -22.288   4.383  1.00  0.00     0.007 A 
ATOM     34  C   UNL     1     -29.702 -21.697   3.524  1.00  0.00     0.039 A 
ATOM     35  C   UNL     1     -31.140 -22.759   5.100  1.00  0.00     0.039 A 
ATOM     36  C   UNL     1     -29.874 -22.454   4.656  1.00  0.00     0.123 A 
ATOM     37  F   UNL     1     -28.830 -22.932   5.384  1.00  0.00    -0.207 F 
ENDBRANCH  23  31
ENDBRANCH  22  23
ENDBRANCH   1  22
TORSDOF 7
ENDMDL
MODEL 2
REMARK VINA RESULT:     -12.2      3.186      8.864
REMARK SMILES O=C1NCN(c2ccccc2)C12CC[NH+](CCCC(c1ccc(F)cc1)c1ccc(F)cc1)CC2
REMARK SMILES IDX 17 1 16 2 15 3 1 4 2 5 3 6 12 7 4 8 5 9 13 10 35 11 14 12
REMARK SMILES IDX 34 13 6 16 7 17 11 18 8 19 10 20 9 21 18 22 19 23 20 24
REMARK SMILES IDX 21 25 26 26 22 27 25 28 23 29 24 30 27 31 28 32 33 33 29 34
REMARK SMILES IDX 32 35 30 36 31 37
REMARK H PARENT 3 14 15 15
ROOT
ATOM      1  C   UNL     1     -35.393 -17.273   2.195  1.00  0.00     0.062 C 
ENDROOT
BRANCH   1   2
ATOM      2  C   UNL     1     -34.899 -17.830   0.892  1.00  0.00     0.262 C 
BRANCH   2   3
ATOM      3  N   UNL     1     -34.547 -19.237   1.049  1.00  0.00    -0.335 N 
ATOM      4  O   UNL     1     -35.535 -22.306   0.874  1.00  0.00    -0.272 OA
ATOM      5  C   UNL     1     -34.499 -22.626   1.493  1.00  0.00     0.247 C 
ATOM      6  N   UNL     1     -34.166 -23.944   1.853  1.00  0.00    -0.336 N 
ATOM      7  C   UNL     1     -33.427 -21.669   1.962  1.00  0.00     0.131 C 
ATOM      8  C   UNL     1     -32.759 -23.945   2.104  1.00  0.00     0.238 C 
ATOM      9  N   UNL     1     -32.484 -22.587   2.595  1.00  0.00    -0.339 N 
ATOM     10  C   UNL     1     -34.042 -20.702   2.954  1.00  0.00     0.100 C 
ATOM     11  C   UNL     1     -32.886 -20.973   0.764  1.00  0.00     0.100 C 
ATOM     12  C   UNL     1     -35.049 -19.795   2.287  1.00  0.00     0.265 C 
ATOM     13  C   UNL     1     -33.145 -19.505   0.860  1.00  0.00     0.265 C 
ATOM     14  H   UNL     1     -34.841 -24.753   1.917  1.00  0.00     0.165 HD
ATOM     15  H   UNL     1     -35.058 -19.714   0.274  1.00  0.00     0.348 HD
BRANCH   9  16
ATOM     16  C   UNL     1     -31.456 -22.344   3.541  1.00  0.00     0.039 A 
ATOM     17  C   UNL     1     -30.385 -21.537   3.235  1.00  0.00     0.026 A 
ATOM     18  C   UNL     1     -31.535 -22.899   4.782  1.00  0.00     0.026 A 
ATOM     19  C   UNL     1     -29.377 -21.274   4.167  1.00  0.00     0.002 A 
ATOM     20  C   UNL     1     -30.559 -22.655   5.708  1.00  0.00     0.002 A 
ATOM     21  C   UNL     1     -29.488 -21.852   5.414  1.00  0.00     0.000 A 
ENDBRANCH   9  16
ENDBRANCH   2   3
ENDBRANCH   1   2
BRANCH   1  22
ATOM     22  C   UNL     1     -36.564 -16.390   2.143  1.00  0.00     0.019 C 
BRANCH  22  23
ATOM     23  C   UNL     1     -37.885 -16.804   2.596  1.00  0.00     0.049 C 
BRANCH  23  24
ATOM     24  C   UNL     1     -39.046 -16.090   1.955  1.00  0.00    -0.040 A 
ATOM     25  C   UNL     1     -38.876 -14.750   1.688  1.00  0.00     0.007 A 
ATOM     26  C   UNL     1     -40.230 -16.716   1.668  1.00  0.00     0.007 A 
ATOM     27  C   UNL     1     -39.896 -14.024   1.128  1.00  0.00     0.039 A 
ATOM     28  C   UNL     1     -41.245 -15.988   1.108  1.00  0.00     0.039 A 
ATOM     29  C   UNL     1     -41.097 -14.625   0.826  1.00  0.00     0.123 A 
ATOM     30  F   UNL     1     -42.099 -13.897   0.272  1.00  0.00    -0.207 F 
ENDBRANCH  23  24
BRANCH  23  31
ATOM     31  C   UNL     1     -38.196 -18.209   2.800  1.00  0.00    -0.040 A 
ATOM     32  C   UNL     1     -38.537 -19.119   1.840  1.00  0.00     0.007 A 
ATOM     33  C   UNL     1     -38.149 -18.647   4.131  1.00  0.00     0.007 A 
ATOM     34  C   UNL     1     -38.824 -20.435   2.225  1.00  0.00     0.039 A 
ATOM     35  C   UNL     1     -38.423 -19.919   4.516  1.00  0.00     0.039 A 
ATOM     36  C   UNL     1     -38.767 -20.825   3.539  1.00  0.00     0.123 A 
ATOM     37  F   UNL     1     -39.039 -22.096   3.940  1.00  0.00    -0.207 F 
ENDBRANCH  23  31
ENDBRANCH  22  23
ENDBRANCH   1  22
TORSDOF 7
ENDMDL
MODEL 3
REMARK VINA RESULT:     -12.0      2.273      3.076
REMARK SMILES O=C1NCN(c2ccccc2)C12CC[NH+](CCCC(c1ccc(F)cc1)c1ccc(F)cc1)CC2
REMARK SMILES IDX 17 1 16 2 15 3 1 4 2 5 3 6 12 7 4 8 5 9 13 10 35 11 14 12
REMARK SMILES IDX 34 13 6 16 7 17 11 18 8 19 10 20 9 21 18 22 19 23 20 24
REMARK SMILES IDX 21 25 26 26 22 27 25 28 23 29 24 30 27 31 28 32 33 33 29 34
REMARK SMILES IDX 32 35 30 36 31 37
REMARK H PARENT 3 14 15 15
ROOT
ATOM      1  C   UNL     1     -34.630 -18.595   1.856  1.00  0.00     0.062 C 
ENDROOT
BRANCH   1   2
ATOM      2  C   UNL     1     -34.718 -18.315   3.327  1.00  0.00     0.262 C 
BRANCH   2   3
ATOM      3  N   UNL     1     -35.974 -18.830   3.862  1.00  0.00    -0.335 N 
ATOM      4  O   UNL     1     -37.458 -20.320   6.313  1.00  0.00    -0.272 OA
ATOM      5  C   UNL     1     -38.439 -20.482   5.559  1.00  0.00     0.247 C 
ATOM      6  N   UNL     1     -39.627 -21.136   5.932  1.00  0.00    -0.336 N 
ATOM      7  C   UNL     1     -38.530 -20.012   4.125  1.00  0.00     0.131 C 
ATOM      8  C   UNL     1     -40.625 -20.712   5.002  1.00  0.00     0.238 C 
ATOM      9  N   UNL     1     -39.873 -20.459   3.763  1.00  0.00    -0.339 N 
ATOM     10  C   UNL     1     -37.455 -20.711   3.316  1.00  0.00     0.100 C 
ATOM     11  C   UNL     1     -38.361 -18.535   4.121  1.00  0.00     0.100 C 
ATOM     12  C   UNL     1     -36.074 -20.270   3.739  1.00  0.00     0.265 C 
ATOM     13  C   UNL     1     -37.138 -18.158   3.350  1.00  0.00     0.265 C 
ATOM     14  H   UNL     1     -39.732 -21.802   6.745  1.00  0.00     0.165 HD
ATOM     15  H   UNL     1     -35.920 -18.618   4.882  1.00  0.00     0.348 HD
BRANCH   9  16
ATOM     16  C   UNL     1     -40.463 -20.671   2.491  1.00  0.00     0.039 A 
ATOM     17  C   UNL     1     -41.095 -19.649   1.823  1.00  0.00     0.026 A 
ATOM     18  C   UNL     1     -40.387 -21.898   1.907  1.00  0.00     0.026 A 
ATOM     19  C   UNL     1     -41.662 -19.841   0.560  1.00  0.00     0.002 A 
ATOM     20  C   UNL     1     -40.935 -22.107   0.672  1.00  0.00     0.002 A 
ATOM     21  C   UNL     1     -41.568 -21.096  -0.003  1.00  0.00     0.000 A 
ENDBRANCH   9  16
ENDBRANCH   2   3
ENDBRANCH   1   2
BRANCH   1  22
ATOM     22  C   UNL     1     -33.557 -19.490   1.409  1.00  0.00     0.019 C 
BRANCH  22  23
ATOM     23  C   UNL     1     -33.411 -20.854   1.900  1.00  0.00     0.049 C 
BRANCH  23  24
ATOM     24  C   UNL     1     -33.806 -21.939   0.933  1.00  0.00    -0.040 A 
ATOM     25  C   UNL     1     -34.156 -21.538  -0.337  1.00  0.00     0.007 A 
ATOM     26  C   UNL     1     -33.848 -23.262   1.286  1.00  0.00     0.007 A 
ATOM     27  C   UNL     1     -34.551 -22.465  -1.268  1.00  0.00     0.039 A 
ATOM     28  C   UNL     1     -34.242 -24.183   0.353  1.00  0.00     0.039 A 
ATOM     29  C   UNL     1     -34.602 -23.801  -0.944  1.00  0.00     0.123 A 
ATOM     30  F   UNL     1     -34.995 -24.709  -1.874  1.00  0.00    -0.207 F 
ENDBRANCH  23  24
BRANCH  23  31
ATOM     31  C   UNL     1     -32.238 -21.248   2.663  1.00  0.00    -0.040 A 
ATOM     32  C   UNL     1     -30.932 -21.018   2.334  1.00  0.00     0.007 A 
ATOM     33  C   UNL     1     -32.502 -21.950   3.847  1.00  0.00     0.007 A 
ATOM     34  C   UNL     1     -29.926 -21.491   3.185  1.00  0.00     0.039 A 
ATOM     35  C   UNL     1     -31.536 -22.413   4.680  1.00  0.00     0.039 A 
ATOM     36  C   UNL     1     -30.225 -22.175   4.336  1.00  0.00     0.123 A 
ATOM     37  F   UNL     1     -29.267 -22.644   5.181  1.00  0.00    -0.207 F 
ENDBRANCH  23  31
ENDBRANCH  22  23
ENDBRANCH   1  22
TORSDOF 7
ENDMDL
MODEL 4
REMARK VINA RESULT:     -12.0      2.217      3.064
REMARK SMILES O=C1NCN(c2ccccc2)C12CC[NH+](CCCC(c1ccc(F)cc1)c1ccc(F)cc1)CC2
REMARK SMILES IDX 17 1 16 2 15 3 1 4 2 5 3 6 12 7 4 8 5 9 13 10 35 11 14 12
REMARK SMILES IDX 34 13 6 16 7 17 11 18 8 19 10 20 9 21 18 22 19 23 20 24
REMARK SMILES IDX 21 25 26 26 22 27 25 28 23 29 24 30 27 31 28 32 33 33 29 34
REMARK SMILES IDX 32 35 30 36 31 37
REMARK H PARENT 3 14 15 15
ROOT
ATOM      1  C   UNL     1     -34.657 -18.656   2.093  1.00  0.00     0.062 C 
ENDROOT
BRANCH   1   2
ATOM      2  C   UNL     1     -34.730 -18.606   3.591  1.00  0.00     0.262 C 
BRANCH   2   3
ATOM      3  N   UNL     1     -36.035 -19.070   4.047  1.00  0.00    -0.335 N 
ATOM      4  O   UNL     1     -37.699 -20.644   6.323  1.00  0.00    -0.272 OA
ATOM      5  C   UNL     1     -38.665 -20.671   5.532  1.00  0.00     0.247 C 
ATOM      6  N   UNL     1     -39.907 -21.264   5.818  1.00  0.00    -0.336 N 
ATOM      7  C   UNL     1     -38.675 -20.079   4.141  1.00  0.00     0.131 C 
ATOM      8  C   UNL     1     -40.842 -20.694   4.900  1.00  0.00     0.238 C 
ATOM      9  N   UNL     1     -40.034 -20.396   3.708  1.00  0.00    -0.339 N 
ATOM     10  C   UNL     1     -37.628 -20.786   3.305  1.00  0.00     0.100 C 
ATOM     11  C   UNL     1     -38.402 -18.623   4.267  1.00  0.00     0.100 C 
ATOM     12  C   UNL     1     -36.232 -20.483   3.800  1.00  0.00     0.265 C 
ATOM     13  C   UNL     1     -37.132 -18.274   3.563  1.00  0.00     0.265 C 
ATOM     14  H   UNL     1     -40.085 -21.986   6.568  1.00  0.00     0.165 HD
ATOM     15  H   UNL     1     -35.999 -18.947   5.082  1.00  0.00     0.348 HD
BRANCH   9  16
ATOM     16  C   UNL     1     -40.596 -20.458   2.407  1.00  0.00     0.039 A 
ATOM     17  C   UNL     1     -40.626 -21.638   1.703  1.00  0.00     0.026 A 
ATOM     18  C   UNL     1     -41.136 -19.339   1.851  1.00  0.00     0.026 A 
ATOM     19  C   UNL     1     -41.196 -21.716   0.428  1.00  0.00     0.002 A 
ATOM     20  C   UNL     1     -41.698 -19.393   0.606  1.00  0.00     0.002 A 
ATOM     21  C   UNL     1     -41.733 -20.564  -0.106  1.00  0.00     0.000 A 
ENDBRANCH   9  16
ENDBRANCH   2   3
ENDBRANCH   1   2
BRANCH   1  22
ATOM     22  C   UNL     1     -33.720 -19.618   1.501  1.00  0.00     0.019 C 
BRANCH  22  23
ATOM     23  C   UNL     1     -33.602 -20.994   1.965  1.00  0.00     0.049 C 
BRANCH  23  24
ATOM     24  C   UNL     1     -33.925 -22.055   0.946  1.00  0.00    -0.040 A 
ATOM     25  C   UNL     1     -34.244 -21.617  -0.320  1.00  0.00     0.007 A 
ATOM     26  C   UNL     1     -33.932 -23.390   1.247  1.00  0.00     0.007 A 
ATOM     27  C   UNL     1     -34.574 -22.520  -1.299  1.00  0.00     0.039 A 
ATOM     28  C   UNL     1     -34.260 -24.288   0.268  1.00  0.00     0.039 A 
ATOM     29  C   UNL     1     -34.588 -23.870  -1.027  1.00  0.00     0.123 A 
ATOM     30  F   UNL     1     -34.916 -24.754  -2.003  1.00  0.00    -0.207 F 
ENDBRANCH  23  24
BRANCH  23  31
ATOM     31  C   UNL     1     -32.484 -21.405   2.798  1.00  0.00    -0.040 A 
ATOM     32  C   UNL     1     -32.552 -22.102   3.972  1.00  0.00     0.007 A 
ATOM     33  C   UNL     1     -31.219 -21.021   2.336  1.00  0.00     0.007 A 
ATOM     34  C   UNL     1     -31.365 -22.397   4.653  1.00  0.00     0.039 A 
ATOM     35  C   UNL     1     -30.061 -21.302   2.986  1.00  0.00     0.039 A 
ATOM     36  C   UNL     1     -30.143 -22.003   4.167  1.00  0.00     0.123 A 
ATOM     37  F   UNL     1     -28.976 -22.277   4.809  1.00  0.00    -0.207 F 
ENDBRANCH  23  31
ENDBRANCH  22  23
ENDBRANCH   1  22
TORSDOF 7
ENDMDL
MODEL 5
REMARK VINA RESULT:     -12.0      2.312      3.280
REMARK SMILES O=C1NCN(c2ccccc2)C12CC[NH+](CCCC(c1ccc(F)cc1)c1ccc(F)cc1)CC2
REMARK SMILES IDX 17 1 16 2 15 3 1 4 2 5 3 6 12 7 4 8 5 9 13 10 35 11 14 12
REMARK SMILES IDX 34 13 6 16 7 17 11 18 8 19 10 20 9 21 18 22 19 23 20 24
REMARK SMILES IDX 21 25 26 26 22 27 25 28 23 29 24 30 27 31 28 32 33 33 29 34
REMARK SMILES IDX 32 35 30 36 31 37
REMARK H PARENT 3 14 15 15
ROOT
ATOM      1  C   UNL     1     -34.617 -18.439   1.798  1.00  0.00     0.062 C 
ENDROOT
BRANCH   1   2
ATOM      2  C   UNL     1     -34.687 -18.151   3.269  1.00  0.00     0.262 C 
BRANCH   2   3
ATOM      3  N   UNL     1     -35.917 -18.699   3.830  1.00  0.00    -0.335 N 
ATOM      4  O   UNL     1     -37.321 -20.178   6.334  1.00  0.00    -0.272 OA
ATOM      5  C   UNL     1     -38.303 -20.396   5.594  1.00  0.00     0.247 C 
ATOM      6  N   UNL     1     -39.461 -21.083   5.997  1.00  0.00    -0.336 N 
ATOM      7  C   UNL     1     -38.425 -19.968   4.150  1.00  0.00     0.131 C 
ATOM      8  C   UNL     1     -40.484 -20.721   5.066  1.00  0.00     0.238 C 
ATOM      9  N   UNL     1     -39.753 -20.473   3.814  1.00  0.00    -0.339 N 
ATOM     10  C   UNL     1     -37.333 -20.647   3.348  1.00  0.00     0.100 C 
ATOM     11  C   UNL     1     -38.311 -18.486   4.106  1.00  0.00     0.100 C 
ATOM     12  C   UNL     1     -35.964 -20.143   3.745  1.00  0.00     0.265 C 
ATOM     13  C   UNL     1     -37.111 -18.083   3.313  1.00  0.00     0.265 C 
ATOM     14  H   UNL     1     -39.534 -21.731   6.827  1.00  0.00     0.165 HD
ATOM     15  H   UNL     1     -35.861 -18.458   4.844  1.00  0.00     0.348 HD
BRANCH   9  16
ATOM     16  C   UNL     1     -40.347 -20.740   2.554  1.00  0.00     0.039 A 
ATOM     17  C   UNL     1     -40.231 -21.975   1.962  1.00  0.00     0.026 A 
ATOM     18  C   UNL     1     -41.063 -19.767   1.926  1.00  0.00     0.026 A 
ATOM     19  C   UNL     1     -40.830 -22.255   0.730  1.00  0.00     0.002 A 
ATOM     20  C   UNL     1     -41.656 -20.020   0.720  1.00  0.00     0.002 A 
ATOM     21  C   UNL     1     -41.547 -21.247   0.121  1.00  0.00     0.000 A 
ENDBRANCH   9  16
ENDBRANCH   2   3
ENDBRANCH   1   2
BRANCH   1  22
ATOM     22  C   UNL     1     -33.561 -19.351   1.345  1.00  0.00     0.019 C 
BRANCH  22  23
ATOM     23  C   UNL     1     -33.476 -20.738   1.782  1.00  0.00     0.049 C 
BRANCH  23  24
ATOM     24  C   UNL     1     -33.899 -21.768   0.767  1.00  0.00    -0.040 A 
ATOM     25  C   UNL     1     -33.949 -23.075   1.199  1.00  0.00     0.007 A 
ATOM     26  C   UNL     1     -34.199 -21.447  -0.530  1.00  0.00     0.007 A 
ATOM     27  C   UNL     1     -34.303 -24.075   0.328  1.00  0.00     0.039 A 
ATOM     28  C   UNL     1     -34.551 -22.448  -1.395  1.00  0.00     0.039 A 
ATOM     29  C   UNL     1     -34.611 -23.784  -0.981  1.00  0.00     0.123 A 
ATOM     30  F   UNL     1     -34.958 -24.781  -1.833  1.00  0.00    -0.207 F 
ENDBRANCH  23  24
BRANCH  23  31
ATOM     31  C   UNL     1     -32.331 -21.209   2.544  1.00  0.00    -0.040 A 
ATOM     32  C   UNL     1     -31.015 -21.108   2.189  1.00  0.00     0.007 A 
ATOM     33  C   UNL     1     -32.636 -21.843   3.755  1.00  0.00     0.007 A 
ATOM     34  C   UNL     1     -30.041 -21.639   3.043  1.00  0.00     0.039 A 
ATOM     35  C   UNL     1     -31.701 -22.361   4.592  1.00  0.00     0.039 A 
ATOM     36  C   UNL     1     -30.381 -22.253   4.223  1.00  0.00     0.123 A 
ATOM     37  F   UNL     1     -29.455 -22.776   5.071  1.00  0.00    -0.207 F 
ENDBRANCH  23  31
ENDBRANCH  22  23
ENDBRANCH   1  22
TORSDOF 7
ENDMDL
MODEL 6
REMARK VINA RESULT:     -11.9      0.901      3.983
REMARK SMILES O=C1NCN(c2ccccc2)C12CC[NH+](CCCC(c1ccc(F)cc1)c1ccc(F)cc1)CC2
REMARK SMILES IDX 17 1 16 2 15 3 1 4 2 5 3 6 12 7 4 8 5 9 13 10 35 11 14 12
REMARK SMILES IDX 34 13 6 16 7 17 11 18 8 19 10 20 9 21 18 22 19 23 20 24
REMARK SMILES IDX 21 25 26 26 22 27 25 28 23 29 24 30 27 31 28 32 33 33 29 34
REMARK SMILES IDX 32 35 30 36 31 37
REMARK H PARENT 3 14 15 15
ROOT
ATOM      1  C   UNL     1     -36.072 -21.213   3.486  1.00  0.00     0.062 C 
ENDROOT
BRANCH   1   2
ATOM      2  C   UNL     1     -37.098 -20.563   4.366  1.00  0.00     0.262 C 
BRANCH   2   3
ATOM      3  N   UNL     1     -38.296 -20.248   3.595  1.00  0.00    -0.335 N 
ATOM      4  O   UNL     1     -40.562 -21.326   1.563  1.00  0.00    -0.272 OA
ATOM      5  C   UNL     1     -40.883 -20.136   1.363  1.00  0.00     0.247 C 
ATOM      6  N   UNL     1     -41.906 -19.726   0.490  1.00  0.00    -0.336 N 
ATOM      7  C   UNL     1     -40.237 -18.934   2.013  1.00  0.00     0.131 C 
ATOM      8  C   UNL     1     -42.260 -18.400   0.886  1.00  0.00     0.238 C 
ATOM      9  N   UNL     1     -41.010 -17.843   1.424  1.00  0.00    -0.339 N 
ATOM     10  C   UNL     1     -38.778 -18.888   1.608  1.00  0.00     0.100 C 
ATOM     11  C   UNL     1     -40.406 -19.070   3.484  1.00  0.00     0.100 C 
ATOM     12  C   UNL     1     -38.008 -20.051   2.190  1.00  0.00     0.265 C 
ATOM     13  C   UNL     1     -39.072 -19.170   4.149  1.00  0.00     0.265 C 
ATOM     14  H   UNL     1     -42.314 -20.305  -0.293  1.00  0.00     0.165 HD
ATOM     15  H   UNL     1     -38.876 -21.113   3.665  1.00  0.00     0.348 HD
BRANCH   9  16
ATOM     16  C   UNL     1     -40.714 -16.461   1.309  1.00  0.00     0.039 A 
ATOM     17  C   UNL     1     -39.503 -15.957   1.723  1.00  0.00     0.026 A 
ATOM     18  C   UNL     1     -41.631 -15.618   0.760  1.00  0.00     0.026 A 
ATOM     19  C   UNL     1     -39.193 -14.600   1.595  1.00  0.00     0.002 A 
ATOM     20  C   UNL     1     -41.347 -14.286   0.627  1.00  0.00     0.002 A 
ATOM     21  C   UNL     1     -40.144 -13.774   1.036  1.00  0.00     0.000 A 
ENDBRANCH   9  16
ENDBRANCH   2   3
ENDBRANCH   1   2
BRANCH   1  22
ATOM     22  C   UNL     1     -34.809 -20.494   3.288  1.00  0.00     0.019 C 
BRANCH  22  23
ATOM     23  C   UNL     1     -33.743 -20.991   2.429  1.00  0.00     0.049 C 
BRANCH  23  24
ATOM     24  C   UNL     1     -32.487 -21.429   3.136  1.00  0.00    -0.040 A 
ATOM     25  C   UNL     1     -31.294 -20.999   2.597  1.00  0.00     0.007 A 
ATOM     26  C   UNL     1     -32.504 -22.234   4.243  1.00  0.00     0.007 A 
ATOM     27  C   UNL     1     -30.105 -21.374   3.169  1.00  0.00     0.039 A 
ATOM     28  C   UNL     1     -31.316 -22.606   4.811  1.00  0.00     0.039 A 
ATOM     29  C   UNL     1     -30.090 -22.182   4.283  1.00  0.00     0.123 A 
ATOM     30  F   UNL     1     -28.907 -22.547   4.840  1.00  0.00    -0.207 F 
ENDBRANCH  23  24
BRANCH  23  31
ATOM     31  C   UNL     1     -34.038 -21.875   1.313  1.00  0.00    -0.040 A 
ATOM     32  C   UNL     1     -34.004 -23.241   1.320  1.00  0.00     0.007 A 
ATOM     33  C   UNL     1     -34.374 -21.234   0.113  1.00  0.00     0.007 A 
ATOM     34  C   UNL     1     -34.301 -23.932   0.139  1.00  0.00     0.039 A 
ATOM     35  C   UNL     1     -34.665 -21.893  -1.038  1.00  0.00     0.039 A 
ATOM     36  C   UNL     1     -34.625 -23.268  -1.017  1.00  0.00     0.123 A 
ATOM     37  F   UNL     1     -34.919 -23.915  -2.177  1.00  0.00    -0.207 F 
ENDBRANCH  23  31
ENDBRANCH  22  23
ENDBRANCH   1  22
TORSDOF 7
ENDMDL
MODEL 7
REMARK VINA RESULT:     -11.9      1.274      1.712
REMARK SMILES O=C1NCN(c2ccccc2)C12CC[NH+](CCCC(c1ccc(F)cc1)c1ccc(F)cc1)CC2
REMARK SMILES IDX 17 1 16 2 15 3 1 4 2 5 3 6 12 7 4 8 5 9 13 10 35 11 14 12
REMARK SMILES IDX 34 13 6 16 7 17 11 18 8 19 10 20 9 21 18 22 19 23 20 24
REMARK SMILES IDX 21 25 26 26 22 27 25 28 23 29 24 30 27 31 28 32 33 33 29 34
REMARK SMILES IDX 32 35 30 36 31 37
REMARK H PARENT 3 14 15 15
ROOT
ATOM      1  C   UNL     1     -34.715 -18.638   1.404  1.00  0.00     0.062 C 
ENDROOT
BRANCH   1   2
ATOM      2  C   UNL     1     -35.036 -18.136   2.781  1.00  0.00     0.262 C 
BRANCH   2   3
ATOM      3  N   UNL     1     -36.388 -18.534   3.158  1.00  0.00    -0.335 N 
ATOM      4  O   UNL     1     -38.249 -20.725   4.630  1.00  0.00    -0.272 OA
ATOM      5  C   UNL     1     -39.234 -20.184   4.087  1.00  0.00     0.247 C 
ATOM      6  N   UNL     1     -40.563 -20.616   4.245  1.00  0.00    -0.336 N 
ATOM      7  C   UNL     1     -39.181 -18.981   3.173  1.00  0.00     0.131 C 
ATOM      8  C   UNL     1     -41.389 -19.510   3.876  1.00  0.00     0.238 C 
ATOM      9  N   UNL     1     -40.597 -18.797   2.862  1.00  0.00    -0.339 N 
ATOM     10  C   UNL     1     -38.367 -19.340   1.946  1.00  0.00     0.100 C 
ATOM     11  C   UNL     1     -38.576 -17.858   3.938  1.00  0.00     0.100 C 
ATOM     12  C   UNL     1     -36.916 -19.573   2.298  1.00  0.00     0.265 C 
ATOM     13  C   UNL     1     -37.298 -17.427   3.297  1.00  0.00     0.265 C 
ATOM     14  H   UNL     1     -40.863 -21.574   4.574  1.00  0.00     0.165 HD
ATOM     15  H   UNL     1     -36.272 -18.957   4.105  1.00  0.00     0.348 HD
BRANCH   9  16
ATOM     16  C   UNL     1     -41.224 -18.098   1.800  1.00  0.00     0.039 A 
ATOM     17  C   UNL     1     -41.946 -18.767   0.840  1.00  0.00     0.026 A 
ATOM     18  C   UNL     1     -41.130 -16.742   1.735  1.00  0.00     0.026 A 
ATOM     19  C   UNL     1     -42.586 -18.086  -0.201  1.00  0.00     0.002 A 
ATOM     20  C   UNL     1     -41.748 -16.057   0.726  1.00  0.00     0.002 A 
ATOM     21  C   UNL     1     -42.471 -16.713  -0.236  1.00  0.00     0.000 A 
ENDBRANCH   9  16
ENDBRANCH   2   3
ENDBRANCH   1   2
BRANCH   1  22
ATOM     22  C   UNL     1     -33.518 -19.475   1.261  1.00  0.00     0.019 C 
BRANCH  22  23
ATOM     23  C   UNL     1     -33.428 -20.824   1.802  1.00  0.00     0.049 C 
BRANCH  23  24
ATOM     24  C   UNL     1     -33.832 -21.931   0.863  1.00  0.00    -0.040 A 
ATOM     25  C   UNL     1     -34.154 -21.561  -0.424  1.00  0.00     0.007 A 
ATOM     26  C   UNL     1     -33.908 -23.240   1.254  1.00  0.00     0.007 A 
ATOM     27  C   UNL     1     -34.555 -22.507  -1.333  1.00  0.00     0.039 A 
ATOM     28  C   UNL     1     -34.308 -24.181   0.344  1.00  0.00     0.039 A 
ATOM     29  C   UNL     1     -34.640 -23.832  -0.970  1.00  0.00     0.123 A 
ATOM     30  F   UNL     1     -35.038 -24.759  -1.878  1.00  0.00    -0.207 F 
ENDBRANCH  23  24
BRANCH  23  31
ATOM     31  C   UNL     1     -32.289 -21.228   2.610  1.00  0.00    -0.040 A 
ATOM     32  C   UNL     1     -30.968 -21.049   2.309  1.00  0.00     0.007 A 
ATOM     33  C   UNL     1     -32.606 -21.879   3.809  1.00  0.00     0.007 A 
ATOM     34  C   UNL     1     -30.000 -21.523   3.203  1.00  0.00     0.039 A 
ATOM     35  C   UNL     1     -31.677 -22.341   4.685  1.00  0.00     0.039 A 
ATOM     36  C   UNL     1     -30.351 -22.157   4.368  1.00  0.00     0.123 A 
ATOM     37  F   UNL     1     -29.431 -22.625   5.254  1.00  0.00    -0.207 F 
ENDBRANCH  23  31
ENDBRANCH  22  23
ENDBRANCH   1  22
TORSDOF 7
ENDMDL
MODEL 8
REMARK VINA RESULT:     -11.9      3.398      9.139
REMARK SMILES O=C1NCN(c2ccccc2)C12CC[NH+](CCCC(c1ccc(F)cc1)c1ccc(F)cc1)CC2
REMARK SMILES IDX 17 1 16 2 15 3 1 4 2 5 3 6 12 7 4 8 5 9 13 10 35 11 14 12
REMARK SMILES IDX 34 13 6 16 7 17 11 18 8 19 10 20 9 21 18 22 19 23 20 24
REMARK SMILES IDX 21 25 26 26 22 27 25 28 23 29 24 30 27 31 28 32 33 33 29 34
REMARK SMILES IDX 32 35 30 36 31 37
REMARK H PARENT 3 14 15 15
ROOT
ATOM      1  C   UNL     1     -36.964 -19.871   4.085  1.00  0.00     0.062 C 
ENDROOT
BRANCH   1   2
ATOM      2  C   UNL     1     -36.578 -21.252   3.644  1.00  0.00     0.262 C 
BRANCH   2   3
ATOM      3  N   UNL     1     -35.237 -21.240   3.071  1.00  0.00    -0.335 N 
ATOM      4  O   UNL     1     -33.406 -21.776   0.466  1.00  0.00    -0.272 OA
ATOM      5  C   UNL     1     -32.407 -21.717   1.213  1.00  0.00     0.247 C 
ATOM      6  N   UNL     1     -31.080 -21.880   0.778  1.00  0.00    -0.336 N 
ATOM      7  C   UNL     1     -32.441 -21.463   2.703  1.00  0.00     0.131 C 
ATOM      8  C   UNL     1     -30.255 -21.296   1.786  1.00  0.00     0.238 C 
ATOM      9  N   UNL     1     -31.017 -21.492   3.029  1.00  0.00    -0.339 N 
ATOM     10  C   UNL     1     -33.206 -22.588   3.370  1.00  0.00     0.100 C 
ATOM     11  C   UNL     1     -33.087 -20.141   2.921  1.00  0.00     0.100 C 
ATOM     12  C   UNL     1     -34.666 -22.568   2.982  1.00  0.00     0.265 C 
ATOM     13  C   UNL     1     -34.346 -20.306   3.708  1.00  0.00     0.265 C 
ATOM     14  H   UNL     1     -30.782 -22.346  -0.122  1.00  0.00     0.165 HD
ATOM     15  H   UNL     1     -35.382 -20.908   2.093  1.00  0.00     0.348 HD
BRANCH   9  16
ATOM     16  C   UNL     1     -30.360 -21.684   4.270  1.00  0.00     0.039 A 
ATOM     17  C   UNL     1     -29.166 -21.060   4.545  1.00  0.00     0.026 A 
ATOM     18  C   UNL     1     -30.925 -22.482   5.217  1.00  0.00     0.026 A 
ATOM     19  C   UNL     1     -28.519 -21.227   5.773  1.00  0.00     0.002 A 
ATOM     20  C   UNL     1     -30.309 -22.658   6.425  1.00  0.00     0.002 A 
ATOM     21  C   UNL     1     -29.118 -22.041   6.710  1.00  0.00     0.000 A 
ENDBRANCH   9  16
ENDBRANCH   2   3
ENDBRANCH   1   2
BRANCH   1  22
ATOM     22  C   UNL     1     -37.790 -19.082   3.164  1.00  0.00     0.019 C 
BRANCH  22  23
ATOM     23  C   UNL     1     -37.375 -17.785   2.645  1.00  0.00     0.049 C 
BRANCH  23  24
ATOM     24  C   UNL     1     -36.169 -17.801   1.743  1.00  0.00    -0.040 A 
ATOM     25  C   UNL     1     -36.147 -18.765   0.759  1.00  0.00     0.007 A 
ATOM     26  C   UNL     1     -35.125 -16.927   1.890  1.00  0.00     0.007 A 
ATOM     27  C   UNL     1     -35.072 -18.859  -0.088  1.00  0.00     0.039 A 
ATOM     28  C   UNL     1     -34.055 -17.024   1.042  1.00  0.00     0.039 A 
ATOM     29  C   UNL     1     -34.008 -17.995   0.034  1.00  0.00     0.123 A 
ATOM     30  F   UNL     1     -32.950 -18.098  -0.810  1.00  0.00    -0.207 F 
ENDBRANCH  23  24
BRANCH  23  31
ATOM     31  C   UNL     1     -38.357 -16.824   2.173  1.00  0.00    -0.040 A 
ATOM     32  C   UNL     1     -38.171 -15.480   2.004  1.00  0.00     0.007 A 
ATOM     33  C   UNL     1     -39.623 -17.351   1.884  1.00  0.00     0.007 A 
ATOM     34  C   UNL     1     -39.243 -14.699   1.555  1.00  0.00     0.039 A 
ATOM     35  C   UNL     1     -40.669 -16.605   1.447  1.00  0.00     0.039 A 
ATOM     36  C   UNL     1     -40.469 -15.254   1.283  1.00  0.00     0.123 A 
ATOM     37  F   UNL     1     -41.526 -14.519   0.845  1.00  0.00    -0.207 F 
ENDBRANCH  23  31
ENDBRANCH  22  23
ENDBRANCH   1  22
TORSDOF 7
ENDMDL
MODEL 9
REMARK VINA RESULT:     -11.9      3.303      9.183
REMARK SMILES O=C1NCN(c2ccccc2)C12CC[NH+](CCCC(c1ccc(F)cc1)c1ccc(F)cc1)CC2
REMARK SMILES IDX 17 1 16 2 15 3 1 4 2 5 3 6 12 7 4 8 5 9 13 10 35 11 14 12
REMARK SMILES IDX 34 13 6 16 7 17 11 18 8 19 10 20 9 21 18 22 19 23 20 24
REMARK SMILES IDX 21 25 26 26 22 27 25 28 23 29 24 30 27 31 28 32 33 33 29 34
REMARK SMILES IDX 32 35 30 36 31 37
REMARK H PARENT 3 14 15 15
ROOT
ATOM      1  C   UNL     1     -35.264 -17.198   2.247  1.00  0.00     0.062 C 
ENDROOT
BRANCH   1   2
ATOM      2  C   UNL     1     -34.801 -17.780   0.944  1.00  0.00     0.262 C 
BRANCH   2   3
ATOM      3  N   UNL     1     -34.326 -19.145   1.144  1.00  0.00    -0.335 N 
ATOM      4  O   UNL     1     -35.075 -22.285   1.206  1.00  0.00    -0.272 OA
ATOM      5  C   UNL     1     -33.972 -22.490   1.754  1.00  0.00     0.247 C 
ATOM      6  N   UNL     1     -33.508 -23.755   2.153  1.00  0.00    -0.336 N 
ATOM      7  C   UNL     1     -32.949 -21.428   2.086  1.00  0.00     0.131 C 
ATOM      8  C   UNL     1     -32.091 -23.636   2.289  1.00  0.00     0.238 C 
ATOM      9  N   UNL     1     -31.888 -22.234   2.687  1.00  0.00    -0.339 N 
ATOM     10  C   UNL     1     -33.561 -20.456   3.074  1.00  0.00     0.100 C 
ATOM     11  C   UNL     1     -32.558 -20.763   0.815  1.00  0.00     0.100 C 
ATOM     12  C   UNL     1     -34.686 -19.667   2.445  1.00  0.00     0.265 C 
ATOM     13  C   UNL     1     -32.926 -19.316   0.856  1.00  0.00     0.265 C 
ATOM     14  H   UNL     1     -34.109 -24.608   2.312  1.00  0.00     0.165 HD
ATOM     15  H   UNL     1     -34.855 -19.702   0.438  1.00  0.00     0.348 HD
BRANCH   9  16
ATOM     16  C   UNL     1     -30.814 -21.860   3.534  1.00  0.00     0.039 A 
ATOM     17  C   UNL     1     -29.854 -20.972   3.111  1.00  0.00     0.026 A 
ATOM     18  C   UNL     1     -30.738 -22.370   4.794  1.00  0.00     0.026 A 
ATOM     19  C   UNL     1     -28.801 -20.580   3.945  1.00  0.00     0.002 A 
ATOM     20  C   UNL     1     -29.717 -22.000   5.625  1.00  0.00     0.002 A 
ATOM     21  C   UNL     1     -28.754 -21.115   5.214  1.00  0.00     0.000 A 
ENDBRANCH   9  16
ENDBRANCH   2   3
ENDBRANCH   1   2
BRANCH   1  22
ATOM     22  C   UNL     1     -36.602 -16.598   2.273  1.00  0.00     0.019 C 
BRANCH  22  23
ATOM     23  C   UNL     1     -37.814 -17.358   2.001  1.00  0.00     0.049 C 
BRANCH  23  24
ATOM     24  C   UNL     1     -37.988 -18.618   2.809  1.00  0.00    -0.040 A 
ATOM     25  C   UNL     1     -38.200 -19.780   2.101  1.00  0.00     0.007 A 
ATOM     26  C   UNL     1     -37.966 -18.626   4.178  1.00  0.00     0.007 A 
ATOM     27  C   UNL     1     -38.392 -20.966   2.765  1.00  0.00     0.039 A 
ATOM     28  C   UNL     1     -38.157 -19.811   4.836  1.00  0.00     0.039 A 
ATOM     29  C   UNL     1     -38.374 -21.006   4.140  1.00  0.00     0.123 A 
ATOM     30  F   UNL     1     -38.565 -22.185   4.786  1.00  0.00    -0.207 F 
ENDBRANCH  23  24
BRANCH  23  31
ATOM     31  C   UNL     1     -39.090 -16.686   1.818  1.00  0.00    -0.040 A 
ATOM     32  C   UNL     1     -40.321 -17.275   1.735  1.00  0.00     0.007 A 
ATOM     33  C   UNL     1     -39.022 -15.291   1.703  1.00  0.00     0.007 A 
ATOM     34  C   UNL     1     -41.446 -16.465   1.538  1.00  0.00     0.039 A 
ATOM     35  C   UNL     1     -40.106 -14.496   1.513  1.00  0.00     0.039 A 
ATOM     36  C   UNL     1     -41.338 -15.102   1.429  1.00  0.00     0.123 A 
ATOM     37  F   UNL     1     -42.415 -14.293   1.239  1.00  0.00    -0.207 F 
ENDBRANCH  23  31
ENDBRANCH  22  23
ENDBRANCH   1  22
TORSDOF 7
ENDMDL
