MODEL 1
REMARK VINA RESULT:      -8.6      0.000      0.000
REMARK SMILES CNCC[C@H](Oc1cccc2ccccc12)c1cccs1
REMARK SMILES IDX 4 1 3 2 2 3 1 4 5 6 6 7 7 8 8 9 16 10 9 11 15 12 11 13 10 14
REMARK SMILES IDX 14 15 12 16 13 17 17 18 18 19 21 20 19 21 20 22
REMARK H PARENT 2 5
ROOT
ATOM      1  C   UNL     1     -33.617 -23.228   2.932  1.00  0.00     0.066 C 
ENDROOT
BRANCH   1   2
ATOM      2  C   UNL     1     -33.623 -23.801   1.584  1.00  0.00     0.085 C 
BRANCH   2   3
ATOM      3  N   UNL     1     -34.730 -24.455   1.049  1.00  0.00    -0.320 NA
ATOM      4  C   UNL     1     -35.298 -24.061  -0.176  1.00  0.00     0.101 C 
ATOM      5  H   UNL     1     -34.932 -25.421   1.314  1.00  0.00     0.122 HD
ENDBRANCH   2   3
ENDBRANCH   1   2
BRANCH   1   6
ATOM      6  C   UNL     1     -33.116 -21.862   3.201  1.00  0.00     0.215 C 
BRANCH   6   7
ATOM      7  O   UNL     1     -32.881 -21.024   2.118  1.00  0.00    -0.484 OA
BRANCH   7   8
ATOM      8  C   UNL     1     -33.539 -19.833   1.932  1.00  0.00     0.128 A 
ATOM      9  C   UNL     1     -34.230 -19.174   2.899  1.00  0.00     0.047 A 
ATOM     10  C   UNL     1     -33.478 -19.272   0.641  1.00  0.00     0.024 A 
ATOM     11  C   UNL     1     -34.859 -17.967   2.593  1.00  0.00     0.004 A 
ATOM     12  C   UNL     1     -32.771 -19.931  -0.353  1.00  0.00     0.012 A 
ATOM     13  C   UNL     1     -34.094 -18.078   0.318  1.00  0.00    -0.015 A 
ATOM     14  C   UNL     1     -34.798 -17.424   1.335  1.00  0.00     0.009 A 
ATOM     15  C   UNL     1     -32.708 -19.378  -1.612  1.00  0.00     0.001 A 
ATOM     16  C   UNL     1     -34.026 -17.532  -0.946  1.00  0.00     0.009 A 
ATOM     17  C   UNL     1     -33.327 -18.186  -1.925  1.00  0.00     0.001 A 
ENDBRANCH   7   8
ENDBRANCH   6   7
BRANCH   6  18
ATOM     18  C   UNL     1     -31.807 -22.060   3.951  1.00  0.00     0.045 A 
ATOM     19  C   UNL     1     -31.539 -22.737   5.085  1.00  0.00     0.019 A 
ATOM     20  S   UNL     1     -30.218 -21.411   3.486  1.00  0.00    -0.145 S 
ATOM     21  C   UNL     1     -30.303 -22.782   5.571  1.00  0.00     0.012 A 
ATOM     22  C   UNL     1     -29.329 -22.114   4.869  1.00  0.00     0.065 A 
ENDBRANCH   6  18
ENDBRANCH   1   6
TORSDOF 6
ENDMDL
MODEL 2
REMARK VINA RESULT:      -8.3      2.461      6.067
REMARK SMILES CNCC[C@H](Oc1cccc2ccccc12)c1cccs1
REMARK SMILES IDX 4 1 3 2 2 3 1 4 5 6 6 7 7 8 8 9 16 10 9 11 15 12 11 13 10 14
REMARK SMILES IDX 14 15 12 16 13 17 17 18 18 19 21 20 19 21 20 22
REMARK H PARENT 2 5
ROOT
ATOM      1  C   UNL     1     -32.155 -19.929  -0.188  1.00  0.00     0.066 C 
ENDROOT
BRANCH   1   2
ATOM      2  C   UNL     1     -33.024 -18.828  -0.609  1.00  0.00     0.085 C 
BRANCH   2   3
ATOM      3  N   UNL     1     -32.913 -17.540  -0.090  1.00  0.00    -0.320 NA
ATOM      4  C   UNL     1     -34.004 -16.895   0.520  1.00  0.00     0.101 C 
ATOM      5  H   UNL     1     -32.001 -17.179   0.191  1.00  0.00     0.122 HD
ENDBRANCH   2   3
ENDBRANCH   1   2
BRANCH   1   6
ATOM      6  C   UNL     1     -32.007 -20.313   1.233  1.00  0.00     0.215 C 
BRANCH   6   7
ATOM      7  O   UNL     1     -31.317 -21.483   1.529  1.00  0.00    -0.484 OA
BRANCH   7   8
ATOM      8  C   UNL     1     -31.279 -22.036   2.785  1.00  0.00     0.128 A 
ATOM      9  C   UNL     1     -32.143 -22.984   3.237  1.00  0.00     0.047 A 
ATOM     10  C   UNL     1     -30.264 -21.577   3.647  1.00  0.00     0.024 A 
ATOM     11  C   UNL     1     -32.006 -23.474   4.536  1.00  0.00     0.004 A 
ATOM     12  C   UNL     1     -29.373 -20.616   3.195  1.00  0.00     0.012 A 
ATOM     13  C   UNL     1     -30.112 -22.051   4.936  1.00  0.00    -0.015 A 
ATOM     14  C   UNL     1     -31.017 -23.025   5.373  1.00  0.00     0.009 A 
ATOM     15  C   UNL     1     -28.378 -20.174   4.038  1.00  0.00     0.001 A 
ATOM     16  C   UNL     1     -29.113 -21.602   5.773  1.00  0.00     0.009 A 
ATOM     17  C   UNL     1     -28.235 -20.651   5.324  1.00  0.00     0.001 A 
ENDBRANCH   7   8
ENDBRANCH   6   7
BRANCH   6  18
ATOM     18  C   UNL     1     -33.429 -20.445   1.758  1.00  0.00     0.045 A 
ATOM     19  C   UNL     1     -34.037 -19.851   2.804  1.00  0.00     0.019 A 
ATOM     20  S   UNL     1     -34.710 -21.475   1.081  1.00  0.00    -0.145 S 
ATOM     21  C   UNL     1     -35.308 -20.115   3.087  1.00  0.00     0.012 A 
ATOM     22  C   UNL     1     -35.959 -21.009   2.274  1.00  0.00     0.065 A 
ENDBRANCH   6  18
ENDBRANCH   1   6
TORSDOF 6
ENDMDL
MODEL 3
REMARK VINA RESULT:      -8.3      2.360      6.231
REMARK SMILES CNCC[C@H](Oc1cccc2ccccc12)c1cccs1
REMARK SMILES IDX 4 1 3 2 2 3 1 4 5 6 6 7 7 8 8 9 16 10 9 11 15 12 11 13 10 14
REMARK SMILES IDX 14 15 12 16 13 17 17 18 18 19 21 20 19 21 20 22
REMARK H PARENT 2 5
ROOT
ATOM      1  C   UNL     1     -32.448 -19.955   0.529  1.00  0.00     0.066 C 
ENDROOT
BRANCH   1   2
ATOM      2  C   UNL     1     -33.348 -18.803   0.610  1.00  0.00     0.085 C 
BRANCH   2   3
ATOM      3  N   UNL     1     -33.563 -17.938  -0.461  1.00  0.00    -0.320 NA
ATOM      4  C   UNL     1     -33.461 -18.376  -1.793  1.00  0.00     0.101 C 
ATOM      5  H   UNL     1     -34.134 -17.101  -0.336  1.00  0.00     0.122 HD
ENDBRANCH   2   3
ENDBRANCH   1   2
BRANCH   1   6
ATOM      6  C   UNL     1     -32.671 -21.182   1.326  1.00  0.00     0.215 C 
BRANCH   6   7
ATOM      7  O   UNL     1     -31.560 -21.916   1.723  1.00  0.00    -0.484 OA
BRANCH   7   8
ATOM      8  C   UNL     1     -31.338 -22.299   3.024  1.00  0.00     0.128 A 
ATOM      9  C   UNL     1     -32.092 -23.206   3.701  1.00  0.00     0.047 A 
ATOM     10  C   UNL     1     -30.245 -21.699   3.681  1.00  0.00     0.024 A 
ATOM     11  C   UNL     1     -31.769 -23.518   5.021  1.00  0.00     0.004 A 
ATOM     12  C   UNL     1     -29.465 -20.779   3.000  1.00  0.00     0.012 A 
ATOM     13  C   UNL     1     -29.910 -21.996   4.989  1.00  0.00    -0.015 A 
ATOM     14  C   UNL     1     -30.705 -22.932   5.659  1.00  0.00     0.009 A 
ATOM     15  C   UNL     1     -28.395 -20.198   3.643  1.00  0.00     0.001 A 
ATOM     16  C   UNL     1     -28.837 -21.409   5.625  1.00  0.00     0.009 A 
ATOM     17  C   UNL     1     -28.069 -20.499   4.949  1.00  0.00     0.001 A 
ENDBRANCH   7   8
ENDBRANCH   6   7
BRANCH   6  18
ATOM     18  C   UNL     1     -33.547 -22.068   0.454  1.00  0.00     0.045 A 
ATOM     19  C   UNL     1     -34.074 -21.851  -0.768  1.00  0.00     0.019 A 
ATOM     20  S   UNL     1     -34.125 -23.701   0.855  1.00  0.00    -0.145 S 
ATOM     21  C   UNL     1     -34.822 -22.777  -1.357  1.00  0.00     0.012 A 
ATOM     22  C   UNL     1     -35.029 -23.948  -0.669  1.00  0.00     0.065 A 
ENDBRANCH   6  18
ENDBRANCH   1   6
TORSDOF 6
ENDMDL
MODEL 4
REMARK VINA RESULT:      -8.2      0.825      1.014
REMARK SMILES CNCC[C@H](Oc1cccc2ccccc12)c1cccs1
REMARK SMILES IDX 4 1 3 2 2 3 1 4 5 6 6 7 7 8 8 9 16 10 9 11 15 12 11 13 10 14
REMARK SMILES IDX 14 15 12 16 13 17 17 18 18 19 21 20 19 21 20 22
REMARK H PARENT 2 5
ROOT
ATOM      1  C   UNL     1     -33.122 -23.267   3.242  1.00  0.00     0.066 C 
ENDROOT
BRANCH   1   2
ATOM      2  C   UNL     1     -34.031 -23.763   2.207  1.00  0.00     0.085 C 
BRANCH   2   3
ATOM      3  N   UNL     1     -33.724 -23.716   0.849  1.00  0.00    -0.320 NA
ATOM      4  C   UNL     1     -34.708 -23.448  -0.119  1.00  0.00     0.101 C 
ATOM      5  H   UNL     1     -32.770 -23.511   0.547  1.00  0.00     0.122 HD
ENDBRANCH   2   3
ENDBRANCH   1   2
BRANCH   1   6
ATOM      6  C   UNL     1     -32.745 -21.839   3.337  1.00  0.00     0.215 C 
BRANCH   6   7
ATOM      7  O   UNL     1     -32.718 -21.089   2.167  1.00  0.00    -0.484 OA
BRANCH   7   8
ATOM      8  C   UNL     1     -33.433 -19.928   2.001  1.00  0.00     0.128 A 
ATOM      9  C   UNL     1     -34.138 -19.309   2.984  1.00  0.00     0.047 A 
ATOM     10  C   UNL     1     -33.419 -19.357   0.713  1.00  0.00     0.024 A 
ATOM     11  C   UNL     1     -34.827 -18.131   2.698  1.00  0.00     0.004 A 
ATOM     12  C   UNL     1     -32.699 -19.975  -0.297  1.00  0.00     0.012 A 
ATOM     13  C   UNL     1     -34.096 -18.190   0.410  1.00  0.00    -0.015 A 
ATOM     14  C   UNL     1     -34.812 -17.577   1.443  1.00  0.00     0.009 A 
ATOM     15  C   UNL     1     -32.683 -19.410  -1.553  1.00  0.00     0.001 A 
ATOM     16  C   UNL     1     -34.074 -17.633  -0.851  1.00  0.00     0.009 A 
ATOM     17  C   UNL     1     -33.362 -18.247  -1.846  1.00  0.00     0.001 A 
ENDBRANCH   7   8
ENDBRANCH   6   7
BRANCH   6  18
ATOM     18  C   UNL     1     -31.350 -21.836   3.944  1.00  0.00     0.045 A 
ATOM     19  C   UNL     1     -30.229 -21.192   3.564  1.00  0.00     0.019 A 
ATOM     20  S   UNL     1     -30.827 -22.734   5.387  1.00  0.00    -0.145 S 
ATOM     21  C   UNL     1     -29.101 -21.333   4.252  1.00  0.00     0.012 A 
ATOM     22  C   UNL     1     -29.135 -22.157   5.351  1.00  0.00     0.065 A 
ENDBRANCH   6  18
ENDBRANCH   1   6
TORSDOF 6
ENDMDL
MODEL 5
REMARK VINA RESULT:      -8.1      1.215      1.589
REMARK SMILES CNCC[C@H](Oc1cccc2ccccc12)c1cccs1
REMARK SMILES IDX 4 1 3 2 2 3 1 4 5 6 6 7 7 8 8 9 16 10 9 11 15 12 11 13 10 14
REMARK SMILES IDX 14 15 12 16 13 17 17 18 18 19 21 20 19 21 20 22
REMARK H PARENT 2 5
ROOT
ATOM      1  C   UNL     1     -33.820 -23.735   2.707  1.00  0.00     0.066 C 
ENDROOT
BRANCH   1   2
ATOM      2  C   UNL     1     -33.872 -24.220   1.326  1.00  0.00     0.085 C 
BRANCH   2   3
ATOM      3  N   UNL     1     -35.060 -24.323   0.607  1.00  0.00    -0.320 NA
ATOM      4  C   UNL     1     -35.267 -23.599  -0.580  1.00  0.00     0.101 C 
ATOM      5  H   UNL     1     -35.643 -25.156   0.698  1.00  0.00     0.122 HD
ENDBRANCH   2   3
ENDBRANCH   1   2
BRANCH   1   6
ATOM      6  C   UNL     1     -33.728 -22.293   3.029  1.00  0.00     0.215 C 
BRANCH   6   7
ATOM      7  O   UNL     1     -34.085 -21.378   2.046  1.00  0.00    -0.484 OA
BRANCH   7   8
ATOM      8  C   UNL     1     -34.670 -20.167   2.324  1.00  0.00     0.128 A 
ATOM      9  C   UNL     1     -35.610 -19.966   3.286  1.00  0.00     0.047 A 
ATOM     10  C   UNL     1     -34.250 -19.069   1.547  1.00  0.00     0.024 A 
ATOM     11  C   UNL     1     -36.134 -18.688   3.479  1.00  0.00     0.004 A 
ATOM     12  C   UNL     1     -33.288 -19.259   0.568  1.00  0.00     0.012 A 
ATOM     13  C   UNL     1     -34.756 -17.795   1.724  1.00  0.00    -0.015 A 
ATOM     14  C   UNL     1     -35.722 -17.621   2.720  1.00  0.00     0.009 A 
ATOM     15  C   UNL     1     -32.874 -18.183  -0.186  1.00  0.00     0.001 A 
ATOM     16  C   UNL     1     -34.337 -16.724   0.964  1.00  0.00     0.009 A 
ATOM     17  C   UNL     1     -33.387 -16.916  -0.003  1.00  0.00     0.001 A 
ENDBRANCH   7   8
ENDBRANCH   6   7
BRANCH   6  18
ATOM     18  C   UNL     1     -32.270 -22.062   3.397  1.00  0.00     0.045 A 
ATOM     19  C   UNL     1     -31.301 -21.378   2.757  1.00  0.00     0.019 A 
ATOM     20  S   UNL     1     -31.439 -22.673   4.845  1.00  0.00    -0.145 S 
ATOM     21  C   UNL     1     -30.077 -21.302   3.266  1.00  0.00     0.012 A 
ATOM     22  C   UNL     1     -29.852 -21.946   4.458  1.00  0.00     0.065 A 
ENDBRANCH   6  18
ENDBRANCH   1   6
TORSDOF 6
ENDMDL
MODEL 6
REMARK VINA RESULT:      -8.1      2.461      6.131
REMARK SMILES CNCC[C@H](Oc1cccc2ccccc12)c1cccs1
REMARK SMILES IDX 4 1 3 2 2 3 1 4 5 6 6 7 7 8 8 9 16 10 9 11 15 12 11 13 10 14
REMARK SMILES IDX 14 15 12 16 13 17 17 18 18 19 21 20 19 21 20 22
REMARK H PARENT 2 5
ROOT
ATOM      1  C   UNL     1     -31.934 -19.815   0.140  1.00  0.00     0.066 C 
ENDROOT
BRANCH   1   2
ATOM      2  C   UNL     1     -32.832 -18.762  -0.338  1.00  0.00     0.085 C 
BRANCH   2   3
ATOM      3  N   UNL     1     -33.064 -18.524  -1.691  1.00  0.00    -0.320 NA
ATOM      4  C   UNL     1     -34.334 -18.154  -2.166  1.00  0.00     0.101 C 
ATOM      5  H   UNL     1     -32.292 -18.257  -2.303  1.00  0.00     0.122 HD
ENDBRANCH   2   3
ENDBRANCH   1   2
BRANCH   1   6
ATOM      6  C   UNL     1     -32.110 -20.456   1.462  1.00  0.00     0.215 C 
BRANCH   6   7
ATOM      7  O   UNL     1     -31.353 -21.586   1.748  1.00  0.00    -0.484 OA
BRANCH   7   8
ATOM      8  C   UNL     1     -31.232 -22.109   3.013  1.00  0.00     0.128 A 
ATOM      9  C   UNL     1     -32.057 -23.053   3.540  1.00  0.00     0.047 A 
ATOM     10  C   UNL     1     -30.170 -21.621   3.799  1.00  0.00     0.024 A 
ATOM     11  C   UNL     1     -31.835 -23.511   4.838  1.00  0.00     0.004 A 
ATOM     12  C   UNL     1     -29.319 -20.664   3.271  1.00  0.00     0.012 A 
ATOM     13  C   UNL     1     -29.934 -22.063   5.087  1.00  0.00    -0.015 A 
ATOM     14  C   UNL     1     -30.800 -23.033   5.602  1.00  0.00     0.009 A 
ATOM     15  C   UNL     1     -28.278 -20.193   4.040  1.00  0.00     0.001 A 
ATOM     16  C   UNL     1     -28.890 -21.585   5.850  1.00  0.00     0.009 A 
ATOM     17  C   UNL     1     -28.051 -20.638   5.325  1.00  0.00     0.001 A 
ENDBRANCH   7   8
ENDBRANCH   6   7
BRANCH   6  18
ATOM     18  C   UNL     1     -33.582 -20.831   1.529  1.00  0.00     0.045 A 
ATOM     19  C   UNL     1     -34.285 -21.754   0.843  1.00  0.00     0.019 A 
ATOM     20  S   UNL     1     -34.808 -20.101   2.590  1.00  0.00    -0.145 S 
ATOM     21  C   UNL     1     -35.584 -21.918   1.065  1.00  0.00     0.012 A 
ATOM     22  C   UNL     1     -36.166 -21.112   2.013  1.00  0.00     0.065 A 
ENDBRANCH   6  18
ENDBRANCH   1   6
TORSDOF 6
ENDMDL
MODEL 7
REMARK VINA RESULT:      -8.1      1.797      5.716
REMARK SMILES CNCC[C@H](Oc1cccc2ccccc12)c1cccs1
REMARK SMILES IDX 4 1 3 2 2 3 1 4 5 6 6 7 7 8 8 9 16 10 9 11 15 12 11 13 10 14
REMARK SMILES IDX 14 15 12 16 13 17 17 18 18 19 21 20 19 21 20 22
REMARK H PARENT 2 5
ROOT
ATOM      1  C   UNL     1     -33.813 -22.157   1.430  1.00  0.00     0.066 C 
ENDROOT
BRANCH   1   2
ATOM      2  C   UNL     1     -34.456 -23.381   0.950  1.00  0.00     0.085 C 
BRANCH   2   3
ATOM      3  N   UNL     1     -34.185 -23.934  -0.300  1.00  0.00    -0.320 NA
ATOM      4  C   UNL     1     -34.901 -23.546  -1.447  1.00  0.00     0.101 C 
ATOM      5  H   UNL     1     -33.267 -24.336  -0.494  1.00  0.00     0.122 HD
ENDBRANCH   2   3
ENDBRANCH   1   2
BRANCH   1   6
ATOM      6  C   UNL     1     -32.588 -21.615   0.800  1.00  0.00     0.215 C 
BRANCH   6   7
ATOM      7  O   UNL     1     -31.410 -21.628   1.538  1.00  0.00    -0.484 OA
BRANCH   7   8
ATOM      8  C   UNL     1     -31.328 -22.133   2.813  1.00  0.00     0.128 A 
ATOM      9  C   UNL     1     -32.155 -23.084   3.322  1.00  0.00     0.047 A 
ATOM     10  C   UNL     1     -30.305 -21.615   3.633  1.00  0.00     0.024 A 
ATOM     11  C   UNL     1     -31.974 -23.522   4.634  1.00  0.00     0.004 A 
ATOM     12  C   UNL     1     -29.452 -20.649   3.124  1.00  0.00     0.012 A 
ATOM     13  C   UNL     1     -30.110 -22.036   4.934  1.00  0.00    -0.015 A 
ATOM     14  C   UNL     1     -30.978 -23.015   5.429  1.00  0.00     0.009 A 
ATOM     15  C   UNL     1     -28.449 -20.149   3.925  1.00  0.00     0.001 A 
ATOM     16  C   UNL     1     -29.105 -21.528   5.729  1.00  0.00     0.009 A 
ATOM     17  C   UNL     1     -28.263 -20.573   5.223  1.00  0.00     0.001 A 
ENDBRANCH   7   8
ENDBRANCH   6   7
BRANCH   6  18
ATOM     18  C   UNL     1     -32.925 -20.173   0.454  1.00  0.00     0.045 A 
ATOM     19  C   UNL     1     -32.459 -19.374  -0.526  1.00  0.00     0.019 A 
ATOM     20  S   UNL     1     -34.082 -19.127   1.308  1.00  0.00    -0.145 S 
ATOM     21  C   UNL     1     -32.899 -18.126  -0.649  1.00  0.00     0.012 A 
ATOM     22  C   UNL     1     -33.835 -17.698   0.260  1.00  0.00     0.065 A 
ENDBRANCH   6  18
ENDBRANCH   1   6
TORSDOF 6
ENDMDL
MODEL 8
REMARK VINA RESULT:      -8.0      2.302      6.140
REMARK SMILES CNCC[C@H](Oc1cccc2ccccc12)c1cccs1
REMARK SMILES IDX 4 1 3 2 2 3 1 4 5 6 6 7 7 8 8 9 16 10 9 11 15 12 11 13 10 14
REMARK SMILES IDX 14 15 12 16 13 17 17 18 18 19 21 20 19 21 20 22
REMARK H PARENT 2 5
ROOT
ATOM      1  C   UNL     1     -33.038 -19.838   1.104  1.00  0.00     0.066 C 
ENDROOT
BRANCH   1   2
ATOM      2  C   UNL     1     -34.064 -18.865   1.486  1.00  0.00     0.085 C 
BRANCH   2   3
ATOM      3  N   UNL     1     -35.343 -19.240   1.891  1.00  0.00    -0.320 NA
ATOM      4  C   UNL     1     -36.477 -18.486   1.538  1.00  0.00     0.101 C 
ATOM      5  H   UNL     1     -35.542 -20.214   2.124  1.00  0.00     0.122 HD
ENDBRANCH   2   3
ENDBRANCH   1   2
BRANCH   1   6
ATOM      6  C   UNL     1     -33.007 -21.207   1.665  1.00  0.00     0.215 C 
BRANCH   6   7
ATOM      7  O   UNL     1     -31.770 -21.767   1.961  1.00  0.00    -0.484 OA
BRANCH   7   8
ATOM      8  C   UNL     1     -31.428 -22.215   3.214  1.00  0.00     0.128 A 
ATOM      9  C   UNL     1     -32.101 -23.177   3.899  1.00  0.00     0.047 A 
ATOM     10  C   UNL     1     -30.296 -21.624   3.809  1.00  0.00     0.024 A 
ATOM     11  C   UNL     1     -31.659 -23.553   5.168  1.00  0.00     0.004 A 
ATOM     12  C   UNL     1     -29.597 -20.647   3.117  1.00  0.00     0.012 A 
ATOM     13  C   UNL     1     -29.842 -21.983   5.064  1.00  0.00    -0.015 A 
ATOM     14  C   UNL     1     -30.556 -22.975   5.745  1.00  0.00     0.009 A 
ATOM     15  C   UNL     1     -28.488 -20.076   3.699  1.00  0.00     0.001 A 
ATOM     16  C   UNL     1     -28.731 -21.405   5.638  1.00  0.00     0.009 A 
ATOM     17  C   UNL     1     -28.043 -20.439   4.952  1.00  0.00     0.001 A 
ENDBRANCH   7   8
ENDBRANCH   6   7
BRANCH   6  18
ATOM     18  C   UNL     1     -33.694 -22.078   0.624  1.00  0.00     0.045 A 
ATOM     19  C   UNL     1     -34.126 -21.784  -0.619  1.00  0.00     0.019 A 
ATOM     20  S   UNL     1     -34.119 -23.795   0.801  1.00  0.00    -0.145 S 
ATOM     21  C   UNL     1     -34.707 -22.713  -1.370  1.00  0.00     0.012 A 
ATOM     22  C   UNL     1     -34.844 -23.966  -0.825  1.00  0.00     0.065 A 
ENDBRANCH   6  18
ENDBRANCH   1   6
TORSDOF 6
ENDMDL
MODEL 9
REMARK VINA RESULT:      -8.0      2.444      6.193
REMARK SMILES CNCC[C@H](Oc1cccc2ccccc12)c1cccs1
REMARK SMILES IDX 4 1 3 2 2 3 1 4 5 6 6 7 7 8 8 9 16 10 9 11 15 12 11 13 10 14
REMARK SMILES IDX 14 15 12 16 13 17 17 18 18 19 21 20 19 21 20 22
REMARK H PARENT 2 5
ROOT
ATOM      1  C   UNL     1     -34.057 -20.190   2.905  1.00  0.00     0.066 C 
ENDROOT
BRANCH   1   2
ATOM      2  C   UNL     1     -35.271 -20.699   3.547  1.00  0.00     0.085 C 
BRANCH   2   3
ATOM      3  N   UNL     1     -36.432 -19.939   3.672  1.00  0.00    -0.320 NA
ATOM      4  C   UNL     1     -37.043 -19.729   4.922  1.00  0.00     0.101 C 
ATOM      5  H   UNL     1     -36.662 -19.236   2.969  1.00  0.00     0.122 HD
ENDBRANCH   2   3
ENDBRANCH   1   2
BRANCH   1   6
ATOM      6  C   UNL     1     -33.330 -20.964   1.875  1.00  0.00     0.215 C 
BRANCH   6   7
ATOM      7  O   UNL     1     -32.002 -21.296   2.118  1.00  0.00    -0.484 OA
BRANCH   7   8
ATOM      8  C   UNL     1     -31.585 -21.941   3.257  1.00  0.00     0.128 A 
ATOM      9  C   UNL     1     -32.261 -22.953   3.861  1.00  0.00     0.047 A 
ATOM     10  C   UNL     1     -30.367 -21.508   3.818  1.00  0.00     0.024 A 
ATOM     11  C   UNL     1     -31.737 -23.535   5.016  1.00  0.00     0.004 A 
ATOM     12  C   UNL     1     -29.666 -20.481   3.207  1.00  0.00     0.012 A 
ATOM     13  C   UNL     1     -29.833 -22.072   4.960  1.00  0.00    -0.015 A 
ATOM     14  C   UNL     1     -30.552 -23.111   5.560  1.00  0.00     0.009 A 
ATOM     15  C   UNL     1     -28.473 -20.064   3.754  1.00  0.00     0.001 A 
ATOM     16  C   UNL     1     -28.638 -21.647   5.502  1.00  0.00     0.009 A 
ATOM     17  C   UNL     1     -27.948 -20.631   4.896  1.00  0.00     0.001 A 
ENDBRANCH   7   8
ENDBRANCH   6   7
BRANCH   6  18
ATOM     18  C   UNL     1     -33.392 -20.109   0.619  1.00  0.00     0.045 A 
ATOM     19  C   UNL     1     -32.436 -19.798  -0.279  1.00  0.00     0.019 A 
ATOM     20  S   UNL     1     -34.823 -19.261  -0.009  1.00  0.00    -0.145 S 
ATOM     21  C   UNL     1     -32.713 -19.022  -1.321  1.00  0.00     0.012 A 
ATOM     22  C   UNL     1     -34.001 -18.560  -1.435  1.00  0.00     0.065 A 
ENDBRANCH   6  18
ENDBRANCH   1   6
TORSDOF 6
ENDMDL
