MODEL 1
REMARK VINA RESULT:      -6.7      0.000      0.000
REMARK SMILES CC/C(=C(\c1ccccc1)c1ccc(OCC[NH+](C)C)cc1)c1ccccc1
REMARK SMILES IDX 15 1 14 2 11 3 12 4 22 5 13 6 21 7 4 8 3 9 2 10 1 11 23 12
REMARK SMILES IDX 24 13 28 14 25 15 27 16 26 17 5 18 6 19 10 20 7 21 9 22 8 23
REMARK SMILES IDX 16 24 17 25 18 26 19 27 20 28
REMARK H PARENT 18 29
ROOT
ATOM      1  O   UNL     1      21.584   2.115   3.236  1.00  0.00    -0.488 OA
ENDROOT
BRANCH   1   2
ATOM      2  C   UNL     1      21.602   0.764   2.942  1.00  0.00     0.119 A 
ATOM      3  C   UNL     1      21.638  -1.999   2.220  1.00  0.00    -0.017 A 
ATOM      4  C   UNL     1      21.712  -1.590   3.537  1.00  0.00     0.012 A 
ATOM      5  C   UNL     1      21.544  -0.984   1.273  1.00  0.00     0.012 A 
ATOM      6  C   UNL     1      21.693  -0.245   3.871  1.00  0.00     0.047 A 
ATOM      7  C   UNL     1      21.526   0.344   1.606  1.00  0.00     0.047 A 
BRANCH   3   8
ATOM      8  C   UNL     1      21.631  -3.401   1.842  1.00  0.00    -0.007 C 
ATOM      9  C   UNL     1      20.532  -4.049   1.551  1.00  0.00    -0.033 C 
BRANCH   9  10
ATOM     10  C   UNL     1      20.462  -5.495   1.203  1.00  0.00     0.033 C 
ATOM     11  C   UNL     1      19.584  -6.192   2.201  1.00  0.00     0.009 C 
ENDBRANCH   9  10
BRANCH   9  12
ATOM     12  C   UNL     1      19.236  -3.351   1.477  1.00  0.00    -0.022 A 
ATOM     13  C   UNL     1      18.630  -2.825   2.589  1.00  0.00     0.008 A 
ATOM     14  C   UNL     1      18.631  -3.243   0.262  1.00  0.00     0.008 A 
ATOM     15  C   UNL     1      17.418  -2.193   2.468  1.00  0.00     0.001 A 
ATOM     16  C   UNL     1      17.397  -2.608   0.093  1.00  0.00     0.001 A 
ATOM     17  C   UNL     1      16.813  -2.090   1.226  1.00  0.00     0.000 A 
ENDBRANCH   9  12
BRANCH   8  18
ATOM     18  C   UNL     1      22.897  -4.106   1.827  1.00  0.00    -0.018 A 
ATOM     19  C   UNL     1      23.762  -4.046   0.753  1.00  0.00     0.009 A 
ATOM     20  C   UNL     1      23.243  -4.913   2.907  1.00  0.00     0.009 A 
ATOM     21  C   UNL     1      24.922  -4.776   0.784  1.00  0.00     0.001 A 
ATOM     22  C   UNL     1      24.403  -5.650   2.955  1.00  0.00     0.001 A 
ATOM     23  C   UNL     1      25.259  -5.573   1.860  1.00  0.00     0.000 A 
ENDBRANCH   8  18
ENDBRANCH   3   8
ENDBRANCH   1   2
BRANCH   1  24
ATOM     24  C   UNL     1      22.455   3.104   2.813  1.00  0.00     0.290 C 
BRANCH  24  25
ATOM     25  C   UNL     1      23.808   3.113   3.474  1.00  0.00     0.303 C 
BRANCH  25  26
ATOM     26  N   UNL     1      24.777   3.879   2.751  1.00  0.00    -0.337 N 
ATOM     27  C   UNL     1      25.993   3.148   2.466  1.00  0.00     0.332 C 
ATOM     28  C   UNL     1      25.163   5.093   3.441  1.00  0.00     0.332 C 
ATOM     29  H   UNL     1      24.397   4.197   1.811  1.00  0.00     0.347 HD
ENDBRANCH  25  26
ENDBRANCH  24  25
ENDBRANCH   1  24
TORSDOF 8
ENDMDL
MODEL 2
REMARK VINA RESULT:      -6.7      0.515      1.371
REMARK SMILES CC/C(=C(\c1ccccc1)c1ccc(OCC[NH+](C)C)cc1)c1ccccc1
REMARK SMILES IDX 15 1 14 2 11 3 12 4 22 5 13 6 21 7 4 8 3 9 2 10 1 11 23 12
REMARK SMILES IDX 24 13 28 14 25 15 27 16 26 17 5 18 6 19 10 20 7 21 9 22 8 23
REMARK SMILES IDX 16 24 17 25 18 26 19 27 20 28
REMARK H PARENT 18 29
ROOT
ATOM      1  O   UNL     1      21.837   2.167   3.345  1.00  0.00    -0.488 OA
ENDROOT
BRANCH   1   2
ATOM      2  C   UNL     1      21.804   0.848   2.931  1.00  0.00     0.119 A 
ATOM      3  C   UNL     1      21.732  -1.909   2.188  1.00  0.00    -0.017 A 
ATOM      4  C   UNL     1      21.692  -0.900   1.245  1.00  0.00     0.012 A 
ATOM      5  C   UNL     1      21.811  -1.498   3.514  1.00  0.00     0.012 A 
ATOM      6  C   UNL     1      21.728   0.433   1.622  1.00  0.00     0.047 A 
ATOM      7  C   UNL     1      21.845  -0.180   3.884  1.00  0.00     0.047 A 
BRANCH   3   8
ATOM      8  C   UNL     1      21.721  -3.314   1.821  1.00  0.00    -0.007 C 
ATOM      9  C   UNL     1      20.616  -3.973   1.582  1.00  0.00    -0.033 C 
BRANCH   9  10
ATOM     10  C   UNL     1      20.544  -5.422   1.250  1.00  0.00     0.033 C 
ATOM     11  C   UNL     1      19.837  -6.141   2.361  1.00  0.00     0.009 C 
ENDBRANCH   9  10
BRANCH   9  12
ATOM     12  C   UNL     1      19.313  -3.286   1.557  1.00  0.00    -0.022 A 
ATOM     13  C   UNL     1      18.703  -2.841   2.702  1.00  0.00     0.008 A 
ATOM     14  C   UNL     1      18.703  -3.104   0.353  1.00  0.00     0.008 A 
ATOM     15  C   UNL     1      17.484  -2.216   2.625  1.00  0.00     0.001 A 
ATOM     16  C   UNL     1      17.462  -2.474   0.228  1.00  0.00     0.001 A 
ATOM     17  C   UNL     1      16.875  -2.038   1.394  1.00  0.00     0.000 A 
ENDBRANCH   9  12
BRANCH   8  18
ATOM     18  C   UNL     1      22.991  -4.009   1.760  1.00  0.00    -0.018 A 
ATOM     19  C   UNL     1      23.453  -4.793   2.797  1.00  0.00     0.009 A 
ATOM     20  C   UNL     1      23.804  -3.851   0.642  1.00  0.00     0.009 A 
ATOM     21  C   UNL     1      24.686  -5.385   2.694  1.00  0.00     0.001 A 
ATOM     22  C   UNL     1      25.042  -4.438   0.521  1.00  0.00     0.001 A 
ATOM     23  C   UNL     1      25.486  -5.224   1.580  1.00  0.00     0.000 A 
ENDBRANCH   8  18
ENDBRANCH   3   8
ENDBRANCH   1   2
BRANCH   1  24
ATOM     24  C   UNL     1      22.729   3.163   2.990  1.00  0.00     0.290 C 
BRANCH  24  25
ATOM     25  C   UNL     1      24.067   3.121   3.681  1.00  0.00     0.303 C 
BRANCH  25  26
ATOM     26  N   UNL     1      24.790   4.352   3.571  1.00  0.00    -0.337 N 
ATOM     27  C   UNL     1      25.120   4.706   2.208  1.00  0.00     0.332 C 
ATOM     28  C   UNL     1      26.030   4.345   4.321  1.00  0.00     0.332 C 
ATOM     29  H   UNL     1      24.229   5.167   3.960  1.00  0.00     0.347 HD
ENDBRANCH  25  26
ENDBRANCH  24  25
ENDBRANCH   1  24
TORSDOF 8
ENDMDL
MODEL 3
REMARK VINA RESULT:      -6.6      2.907      5.880
REMARK SMILES CC/C(=C(\c1ccccc1)c1ccc(OCC[NH+](C)C)cc1)c1ccccc1
REMARK SMILES IDX 15 1 14 2 11 3 12 4 22 5 13 6 21 7 4 8 3 9 2 10 1 11 23 12
REMARK SMILES IDX 24 13 28 14 25 15 27 16 26 17 5 18 6 19 10 20 7 21 9 22 8 23
REMARK SMILES IDX 16 24 17 25 18 26 19 27 20 28
REMARK H PARENT 18 29
ROOT
ATOM      1  O   UNL     1      16.994  -2.259   1.923  1.00  0.00    -0.488 OA
ENDROOT
BRANCH   1   2
ATOM      2  C   UNL     1      18.371  -2.370   1.993  1.00  0.00     0.119 A 
ATOM      3  C   UNL     1      21.205  -2.614   2.253  1.00  0.00    -0.017 A 
ATOM      4  C   UNL     1      20.595  -2.498   1.020  1.00  0.00     0.012 A 
ATOM      5  C   UNL     1      20.355  -2.603   3.355  1.00  0.00     0.012 A 
ATOM      6  C   UNL     1      19.218  -2.380   0.910  1.00  0.00     0.047 A 
ATOM      7  C   UNL     1      18.995  -2.487   3.244  1.00  0.00     0.047 A 
BRANCH   3   8
ATOM      8  C   UNL     1      22.646  -2.714   2.400  1.00  0.00    -0.007 C 
ATOM      9  C   UNL     1      23.402  -1.682   2.668  1.00  0.00    -0.033 C 
BRANCH   9  10
ATOM     10  C   UNL     1      24.886  -1.719   2.782  1.00  0.00     0.033 C 
ATOM     11  C   UNL     1      25.482  -0.996   1.610  1.00  0.00     0.009 C 
ENDBRANCH   9  10
BRANCH   9  12
ATOM     12  C   UNL     1      22.811  -0.362   2.954  1.00  0.00    -0.022 A 
ATOM     13  C   UNL     1      22.668   0.108   4.234  1.00  0.00     0.008 A 
ATOM     14  C   UNL     1      22.391   0.397   1.904  1.00  0.00     0.008 A 
ATOM     15  C   UNL     1      22.102   1.340   4.447  1.00  0.00     0.001 A 
ATOM     16  C   UNL     1      21.809   1.656   2.075  1.00  0.00     0.001 A 
ATOM     17  C   UNL     1      21.679   2.102   3.371  1.00  0.00     0.000 A 
ENDBRANCH   9  12
BRANCH   8  18
ATOM     18  C   UNL     1      23.259  -4.012   2.202  1.00  0.00    -0.018 A 
ATOM     19  C   UNL     1      23.362  -4.942   3.217  1.00  0.00     0.009 A 
ATOM     20  C   UNL     1      23.810  -4.327   0.963  1.00  0.00     0.009 A 
ATOM     21  C   UNL     1      23.997  -6.133   2.975  1.00  0.00     0.001 A 
ATOM     22  C   UNL     1      24.449  -5.517   0.703  1.00  0.00     0.001 A 
ATOM     23  C   UNL     1      24.540  -6.438   1.742  1.00  0.00     0.000 A 
ENDBRANCH   8  18
ENDBRANCH   3   8
ENDBRANCH   1   2
BRANCH   1  24
ATOM     24  C   UNL     1      16.235  -1.299   1.277  1.00  0.00     0.290 C 
BRANCH  24  25
ATOM     25  C   UNL     1      16.356   0.103   1.815  1.00  0.00     0.303 C 
BRANCH  25  26
ATOM     26  N   UNL     1      15.444   1.018   1.199  1.00  0.00    -0.337 N 
ATOM     27  C   UNL     1      14.201   1.166   1.925  1.00  0.00     0.332 C 
ATOM     28  C   UNL     1      15.103   0.645  -0.158  1.00  0.00     0.332 C 
ATOM     29  H   UNL     1      15.862   1.993   1.129  1.00  0.00     0.347 HD
ENDBRANCH  25  26
ENDBRANCH  24  25
ENDBRANCH   1  24
TORSDOF 8
ENDMDL
MODEL 4
REMARK VINA RESULT:      -6.6      0.545      1.405
REMARK SMILES CC/C(=C(\c1ccccc1)c1ccc(OCC[NH+](C)C)cc1)c1ccccc1
REMARK SMILES IDX 15 1 14 2 11 3 12 4 22 5 13 6 21 7 4 8 3 9 2 10 1 11 23 12
REMARK SMILES IDX 24 13 28 14 25 15 27 16 26 17 5 18 6 19 10 20 7 21 9 22 8 23
REMARK SMILES IDX 16 24 17 25 18 26 19 27 20 28
REMARK H PARENT 18 29
ROOT
ATOM      1  O   UNL     1      21.735   1.880   3.454  1.00  0.00    -0.488 OA
ENDROOT
BRANCH   1   2
ATOM      2  C   UNL     1      21.674   0.572   3.008  1.00  0.00     0.119 A 
ATOM      3  C   UNL     1      21.548  -2.165   2.201  1.00  0.00    -0.017 A 
ATOM      4  C   UNL     1      21.498  -1.132   1.284  1.00  0.00     0.012 A 
ATOM      5  C   UNL     1      21.664  -1.788   3.535  1.00  0.00     0.012 A 
ATOM      6  C   UNL     1      21.560   0.191   1.692  1.00  0.00     0.047 A 
ATOM      7  C   UNL     1      21.725  -0.479   3.935  1.00  0.00     0.047 A 
BRANCH   3   8
ATOM      8  C   UNL     1      21.509  -3.560   1.801  1.00  0.00    -0.007 C 
ATOM      9  C   UNL     1      20.397  -4.174   1.487  1.00  0.00    -0.033 C 
BRANCH   9  10
ATOM     10  C   UNL     1      20.294  -5.613   1.117  1.00  0.00     0.033 C 
ATOM     11  C   UNL     1      19.364  -6.295   2.076  1.00  0.00     0.009 C 
ENDBRANCH   9  10
BRANCH   9  12
ATOM     12  C   UNL     1      19.121  -3.442   1.408  1.00  0.00    -0.022 A 
ATOM     13  C   UNL     1      18.497  -3.194   0.213  1.00  0.00     0.008 A 
ATOM     14  C   UNL     1      18.563  -2.995   2.568  1.00  0.00     0.008 A 
ATOM     15  C   UNL     1      17.315  -2.498   0.194  1.00  0.00     0.001 A 
ATOM     16  C   UNL     1      17.361  -2.282   2.594  1.00  0.00     0.001 A 
ATOM     17  C   UNL     1      16.757  -2.049   1.380  1.00  0.00     0.000 A 
ENDBRANCH   9  12
BRANCH   8  18
ATOM     18  C   UNL     1      22.756  -4.297   1.791  1.00  0.00    -0.018 A 
ATOM     19  C   UNL     1      23.691  -4.151   0.786  1.00  0.00     0.009 A 
ATOM     20  C   UNL     1      23.012  -5.224   2.797  1.00  0.00     0.009 A 
ATOM     21  C   UNL     1      24.830  -4.914   0.811  1.00  0.00     0.001 A 
ATOM     22  C   UNL     1      24.148  -5.997   2.839  1.00  0.00     0.001 A 
ATOM     23  C   UNL     1      25.076  -5.831   1.815  1.00  0.00     0.000 A 
ENDBRANCH   8  18
ENDBRANCH   3   8
ENDBRANCH   1   2
BRANCH   1  24
ATOM     24  C   UNL     1      22.847   2.620   3.815  1.00  0.00     0.290 C 
BRANCH  24  25
ATOM     25  C   UNL     1      23.331   3.615   2.793  1.00  0.00     0.303 C 
BRANCH  25  26
ATOM     26  N   UNL     1      24.583   4.213   3.145  1.00  0.00    -0.337 N 
ATOM     27  C   UNL     1      25.322   4.714   2.007  1.00  0.00     0.332 C 
ATOM     28  C   UNL     1      25.460   3.305   3.857  1.00  0.00     0.332 C 
ATOM     29  H   UNL     1      24.447   5.043   3.796  1.00  0.00     0.347 HD
ENDBRANCH  25  26
ENDBRANCH  24  25
ENDBRANCH   1  24
TORSDOF 8
ENDMDL
MODEL 5
REMARK VINA RESULT:      -6.6      0.503      1.020
REMARK SMILES CC/C(=C(\c1ccccc1)c1ccc(OCC[NH+](C)C)cc1)c1ccccc1
REMARK SMILES IDX 15 1 14 2 11 3 12 4 22 5 13 6 21 7 4 8 3 9 2 10 1 11 23 12
REMARK SMILES IDX 24 13 28 14 25 15 27 16 26 17 5 18 6 19 10 20 7 21 9 22 8 23
REMARK SMILES IDX 16 24 17 25 18 26 19 27 20 28
REMARK H PARENT 18 29
ROOT
ATOM      1  O   UNL     1      21.688   1.997   3.211  1.00  0.00    -0.488 OA
ENDROOT
BRANCH   1   2
ATOM      2  C   UNL     1      21.632   0.674   2.812  1.00  0.00     0.119 A 
ATOM      3  C   UNL     1      21.511  -2.090   2.100  1.00  0.00    -0.017 A 
ATOM      4  C   UNL     1      21.508  -1.092   1.145  1.00  0.00     0.012 A 
ATOM      5  C   UNL     1      21.577  -1.665   3.423  1.00  0.00     0.012 A 
ATOM      6  C   UNL     1      21.568   0.245   1.507  1.00  0.00     0.047 A 
ATOM      7  C   UNL     1      21.635  -0.343   3.778  1.00  0.00     0.047 A 
BRANCH   3   8
ATOM      8  C   UNL     1      21.474  -3.499   1.750  1.00  0.00    -0.007 C 
ATOM      9  C   UNL     1      20.363  -4.127   1.464  1.00  0.00    -0.033 C 
BRANCH   9  10
ATOM     10  C   UNL     1      20.262  -5.578   1.146  1.00  0.00     0.033 C 
ATOM     11  C   UNL     1      19.507  -6.265   2.246  1.00  0.00     0.009 C 
ENDBRANCH   9  10
BRANCH   9  12
ATOM     12  C   UNL     1      19.084  -3.401   1.367  1.00  0.00    -0.022 A 
ATOM     13  C   UNL     1      18.490  -2.825   2.461  1.00  0.00     0.008 A 
ATOM     14  C   UNL     1      18.482  -3.318   0.148  1.00  0.00     0.008 A 
ATOM     15  C   UNL     1      17.293  -2.169   2.318  1.00  0.00     0.001 A 
ATOM     16  C   UNL     1      17.263  -2.660  -0.042  1.00  0.00     0.001 A 
ATOM     17  C   UNL     1      16.691  -2.092   1.073  1.00  0.00     0.000 A 
ENDBRANCH   9  12
BRANCH   8  18
ATOM     18  C   UNL     1      22.723  -4.232   1.759  1.00  0.00    -0.018 A 
ATOM     19  C   UNL     1      23.599  -4.212   0.692  1.00  0.00     0.009 A 
ATOM     20  C   UNL     1      23.043  -5.027   2.856  1.00  0.00     0.009 A 
ATOM     21  C   UNL     1      24.742  -4.967   0.746  1.00  0.00     0.001 A 
ATOM     22  C   UNL     1      24.186  -5.789   2.928  1.00  0.00     0.001 A 
ATOM     23  C   UNL     1      25.052  -5.752   1.839  1.00  0.00     0.000 A 
ENDBRANCH   8  18
ENDBRANCH   3   8
ENDBRANCH   1   2
BRANCH   1  24
ATOM     24  C   UNL     1      22.774   2.714   3.681  1.00  0.00     0.290 C 
BRANCH  24  25
ATOM     25  C   UNL     1      23.368   3.708   2.718  1.00  0.00     0.303 C 
BRANCH  25  26
ATOM     26  N   UNL     1      24.788   3.578   2.588  1.00  0.00    -0.337 N 
ATOM     27  C   UNL     1      25.441   3.152   3.807  1.00  0.00     0.332 C 
ATOM     28  C   UNL     1      25.429   4.808   2.168  1.00  0.00     0.332 C 
ATOM     29  H   UNL     1      25.045   2.858   1.849  1.00  0.00     0.347 HD
ENDBRANCH  25  26
ENDBRANCH  24  25
ENDBRANCH   1  24
TORSDOF 8
ENDMDL
MODEL 6
REMARK VINA RESULT:      -6.6      2.887      5.739
REMARK SMILES CC/C(=C(\c1ccccc1)c1ccc(OCC[NH+](C)C)cc1)c1ccccc1
REMARK SMILES IDX 15 1 14 2 11 3 12 4 22 5 13 6 21 7 4 8 3 9 2 10 1 11 23 12
REMARK SMILES IDX 24 13 28 14 25 15 27 16 26 17 5 18 6 19 10 20 7 21 9 22 8 23
REMARK SMILES IDX 16 24 17 25 18 26 19 27 20 28
REMARK H PARENT 18 29
ROOT
ATOM      1  O   UNL     1      17.106  -2.430   1.679  1.00  0.00    -0.488 OA
ENDROOT
BRANCH   1   2
ATOM      2  C   UNL     1      18.474  -2.487   1.875  1.00  0.00     0.119 A 
ATOM      3  C   UNL     1      21.314  -2.592   2.163  1.00  0.00    -0.017 A 
ATOM      4  C   UNL     1      20.471  -2.604   3.257  1.00  0.00     0.012 A 
ATOM      5  C   UNL     1      20.694  -2.528   0.919  1.00  0.00     0.012 A 
ATOM      6  C   UNL     1      19.095  -2.553   3.100  1.00  0.00     0.047 A 
ATOM      7  C   UNL     1      19.334  -2.476   0.767  1.00  0.00     0.047 A 
BRANCH   3   8
ATOM      8  C   UNL     1      22.758  -2.670   2.295  1.00  0.00    -0.007 C 
ATOM      9  C   UNL     1      23.497  -1.632   2.591  1.00  0.00    -0.033 C 
BRANCH   9  10
ATOM     10  C   UNL     1      24.982  -1.645   2.692  1.00  0.00     0.033 C 
ATOM     11  C   UNL     1      25.556  -0.935   1.501  1.00  0.00     0.009 C 
ENDBRANCH   9  10
BRANCH   9  12
ATOM     12  C   UNL     1      22.884  -0.334   2.925  1.00  0.00    -0.022 A 
ATOM     13  C   UNL     1      22.729   0.084   4.222  1.00  0.00     0.008 A 
ATOM     14  C   UNL     1      22.455   0.457   1.903  1.00  0.00     0.008 A 
ATOM     15  C   UNL     1      22.143   1.298   4.479  1.00  0.00     0.001 A 
ATOM     16  C   UNL     1      21.852   1.700   2.120  1.00  0.00     0.001 A 
ATOM     17  C   UNL     1      21.710   2.093   3.431  1.00  0.00     0.000 A 
ENDBRANCH   9  12
BRANCH   8  18
ATOM     18  C   UNL     1      23.394  -3.948   2.049  1.00  0.00    -0.018 A 
ATOM     19  C   UNL     1      23.990  -4.256   0.843  1.00  0.00     0.009 A 
ATOM     20  C   UNL     1      23.368  -4.927   3.038  1.00  0.00     0.009 A 
ATOM     21  C   UNL     1      24.531  -5.502   0.659  1.00  0.00     0.001 A 
ATOM     22  C   UNL     1      23.907  -6.182   2.872  1.00  0.00     0.001 A 
ATOM     23  C   UNL     1      24.503  -6.467   1.647  1.00  0.00     0.000 A 
ENDBRANCH   8  18
ENDBRANCH   3   8
ENDBRANCH   1   2
BRANCH   1  24
ATOM     24  C   UNL     1      16.351  -1.405   1.138  1.00  0.00     0.290 C 
BRANCH  24  25
ATOM     25  C   UNL     1      16.464  -0.072   1.832  1.00  0.00     0.303 C 
BRANCH  25  26
ATOM     26  N   UNL     1      15.615   0.928   1.260  1.00  0.00    -0.337 N 
ATOM     27  C   UNL     1      14.413   1.170   2.029  1.00  0.00     0.332 C 
ATOM     28  C   UNL     1      15.200   0.610  -0.091  1.00  0.00     0.332 C 
ATOM     29  H   UNL     1      16.113   1.865   1.190  1.00  0.00     0.347 HD
ENDBRANCH  25  26
ENDBRANCH  24  25
ENDBRANCH   1  24
TORSDOF 8
ENDMDL
MODEL 7
REMARK VINA RESULT:      -6.5      0.399      1.707
REMARK SMILES CC/C(=C(\c1ccccc1)c1ccc(OCC[NH+](C)C)cc1)c1ccccc1
REMARK SMILES IDX 15 1 14 2 11 3 12 4 22 5 13 6 21 7 4 8 3 9 2 10 1 11 23 12
REMARK SMILES IDX 24 13 28 14 25 15 27 16 26 17 5 18 6 19 10 20 7 21 9 22 8 23
REMARK SMILES IDX 16 24 17 25 18 26 19 27 20 28
REMARK H PARENT 18 29
ROOT
ATOM      1  O   UNL     1      21.517   2.061   3.210  1.00  0.00    -0.488 OA
ENDROOT
BRANCH   1   2
ATOM      2  C   UNL     1      21.515   0.733   2.826  1.00  0.00     0.119 A 
ATOM      3  C   UNL     1      21.498  -2.041   2.145  1.00  0.00    -0.017 A 
ATOM      4  C   UNL     1      21.547  -1.055   1.179  1.00  0.00     0.012 A 
ATOM      5  C   UNL     1      21.459  -1.599   3.464  1.00  0.00     0.012 A 
ATOM      6  C   UNL     1      21.554   0.287   1.526  1.00  0.00     0.047 A 
ATOM      7  C   UNL     1      21.466  -0.272   3.804  1.00  0.00     0.047 A 
BRANCH   3   8
ATOM      8  C   UNL     1      21.513  -3.455   1.813  1.00  0.00    -0.007 C 
ATOM      9  C   UNL     1      20.431  -4.118   1.496  1.00  0.00    -0.033 C 
BRANCH   9  10
ATOM     10  C   UNL     1      20.382  -5.575   1.194  1.00  0.00     0.033 C 
ATOM     11  C   UNL     1      19.532  -6.257   2.225  1.00  0.00     0.009 C 
ENDBRANCH   9  10
BRANCH   9  12
ATOM     12  C   UNL     1      19.136  -3.430   1.344  1.00  0.00    -0.022 A 
ATOM     13  C   UNL     1      18.538  -3.269   0.121  1.00  0.00     0.008 A 
ATOM     14  C   UNL     1      18.534  -2.937   2.462  1.00  0.00     0.008 A 
ATOM     15  C   UNL     1      17.336  -2.611   0.033  1.00  0.00     0.001 A 
ATOM     16  C   UNL     1      17.311  -2.261   2.418  1.00  0.00     0.001 A 
ATOM     17  C   UNL     1      16.735  -2.114   1.177  1.00  0.00     0.000 A 
ENDBRANCH   9  12
BRANCH   8  18
ATOM     18  C   UNL     1      22.781  -4.152   1.876  1.00  0.00    -0.018 A 
ATOM     19  C   UNL     1      23.198  -4.824   3.007  1.00  0.00     0.009 A 
ATOM     20  C   UNL     1      23.640  -4.111   0.781  1.00  0.00     0.009 A 
ATOM     21  C   UNL     1      24.431  -5.424   3.017  1.00  0.00     0.001 A 
ATOM     22  C   UNL     1      24.880  -4.708   0.773  1.00  0.00     0.001 A 
ATOM     23  C   UNL     1      25.277  -5.379   1.926  1.00  0.00     0.000 A 
ENDBRANCH   8  18
ENDBRANCH   3   8
ENDBRANCH   1   2
BRANCH   1  24
ATOM     24  C   UNL     1      22.542   2.986   3.122  1.00  0.00     0.290 C 
BRANCH  24  25
ATOM     25  C   UNL     1      23.785   2.663   3.910  1.00  0.00     0.303 C 
BRANCH  25  26
ATOM     26  N   UNL     1      24.972   3.213   3.330  1.00  0.00    -0.337 N 
ATOM     27  C   UNL     1      24.720   4.353   2.475  1.00  0.00     0.332 C 
ATOM     28  C   UNL     1      25.714   2.248   2.545  1.00  0.00     0.332 C 
ATOM     29  H   UNL     1      25.649   3.550   4.078  1.00  0.00     0.347 HD
ENDBRANCH  25  26
ENDBRANCH  24  25
ENDBRANCH   1  24
TORSDOF 8
ENDMDL
MODEL 8
REMARK VINA RESULT:      -6.5      0.818      1.570
REMARK SMILES CC/C(=C(\c1ccccc1)c1ccc(OCC[NH+](C)C)cc1)c1ccccc1
REMARK SMILES IDX 15 1 14 2 11 3 12 4 22 5 13 6 21 7 4 8 3 9 2 10 1 11 23 12
REMARK SMILES IDX 24 13 28 14 25 15 27 16 26 17 5 18 6 19 10 20 7 21 9 22 8 23
REMARK SMILES IDX 16 24 17 25 18 26 19 27 20 28
REMARK H PARENT 18 29
ROOT
ATOM      1  O   UNL     1      22.157   2.216   2.273  1.00  0.00    -0.488 OA
ENDROOT
BRANCH   1   2
ATOM      2  C   UNL     1      22.065   0.838   2.200  1.00  0.00     0.119 A 
ATOM      3  C   UNL     1      21.855  -2.011   2.166  1.00  0.00    -0.017 A 
ATOM      4  C   UNL     1      22.026  -1.280   1.007  1.00  0.00     0.012 A 
ATOM      5  C   UNL     1      21.794  -1.275   3.345  1.00  0.00     0.012 A 
ATOM      6  C   UNL     1      22.126   0.102   1.040  1.00  0.00     0.047 A 
ATOM      7  C   UNL     1      21.893   0.091   3.375  1.00  0.00     0.047 A 
BRANCH   3   8
ATOM      8  C   UNL     1      21.772  -3.461   2.164  1.00  0.00    -0.007 C 
ATOM      9  C   UNL     1      20.637  -4.103   2.055  1.00  0.00    -0.033 C 
BRANCH   9  10
ATOM     10  C   UNL     1      20.489  -5.583   2.095  1.00  0.00     0.033 C 
ATOM     11  C   UNL     1      20.284  -6.013   3.518  1.00  0.00     0.009 C 
ENDBRANCH   9  10
BRANCH   9  12
ATOM     12  C   UNL     1      19.376  -3.380   1.808  1.00  0.00    -0.022 A 
ATOM     13  C   UNL     1      18.672  -2.780   2.820  1.00  0.00     0.008 A 
ATOM     14  C   UNL     1      18.905  -3.325   0.531  1.00  0.00     0.008 A 
ATOM     15  C   UNL     1      17.498  -2.128   2.538  1.00  0.00     0.001 A 
ATOM     16  C   UNL     1      17.714  -2.673   0.200  1.00  0.00     0.001 A 
ATOM     17  C   UNL     1      17.030  -2.079   1.236  1.00  0.00     0.000 A 
ENDBRANCH   9  12
BRANCH   8  18
ATOM     18  C   UNL     1      23.000  -4.211   2.328  1.00  0.00    -0.018 A 
ATOM     19  C   UNL     1      23.548  -4.467   3.569  1.00  0.00     0.009 A 
ATOM     20  C   UNL     1      23.688  -4.653   1.201  1.00  0.00     0.009 A 
ATOM     21  C   UNL     1      24.739  -5.141   3.651  1.00  0.00     0.001 A 
ATOM     22  C   UNL     1      24.882  -5.332   1.266  1.00  0.00     0.001 A 
ATOM     23  C   UNL     1      25.414  -5.578   2.528  1.00  0.00     0.000 A 
ENDBRANCH   8  18
ENDBRANCH   3   8
ENDBRANCH   1   2
BRANCH   1  24
ATOM     24  C   UNL     1      22.643   2.997   3.306  1.00  0.00     0.290 C 
BRANCH  24  25
ATOM     25  C   UNL     1      23.991   3.626   3.072  1.00  0.00     0.303 C 
BRANCH  25  26
ATOM     26  N   UNL     1      25.060   2.899   3.686  1.00  0.00    -0.337 N 
ATOM     27  C   UNL     1      26.107   3.748   4.211  1.00  0.00     0.332 C 
ATOM     28  C   UNL     1      25.689   1.955   2.785  1.00  0.00     0.332 C 
ATOM     29  H   UNL     1      24.712   2.318   4.507  1.00  0.00     0.347 HD
ENDBRANCH  25  26
ENDBRANCH  24  25
ENDBRANCH   1  24
TORSDOF 8
ENDMDL
MODEL 9
REMARK VINA RESULT:      -6.4      3.431      7.690
REMARK SMILES CC/C(=C(\c1ccccc1)c1ccc(OCC[NH+](C)C)cc1)c1ccccc1
REMARK SMILES IDX 15 1 14 2 11 3 12 4 22 5 13 6 21 7 4 8 3 9 2 10 1 11 23 12
REMARK SMILES IDX 24 13 28 14 25 15 27 16 26 17 5 18 6 19 10 20 7 21 9 22 8 23
REMARK SMILES IDX 16 24 17 25 18 26 19 27 20 28
REMARK H PARENT 18 29
ROOT
ATOM      1  O   UNL     1      17.522  -3.876   1.108  1.00  0.00    -0.488 OA
ENDROOT
BRANCH   1   2
ATOM      2  C   UNL     1      18.721  -3.287   1.465  1.00  0.00     0.119 A 
ATOM      3  C   UNL     1      21.169  -2.085   2.315  1.00  0.00    -0.017 A 
ATOM      4  C   UNL     1      20.892  -2.308   0.980  1.00  0.00     0.012 A 
ATOM      5  C   UNL     1      20.182  -2.479   3.213  1.00  0.00     0.012 A 
ATOM      6  C   UNL     1      19.700  -2.893   0.584  1.00  0.00     0.047 A 
ATOM      7  C   UNL     1      19.005  -3.057   2.819  1.00  0.00     0.047 A 
BRANCH   3   8
ATOM      8  C   UNL     1      22.398  -1.452   2.758  1.00  0.00    -0.007 C 
ATOM      9  C   UNL     1      23.529  -2.101   2.860  1.00  0.00    -0.033 C 
BRANCH   9  10
ATOM     10  C   UNL     1      24.806  -1.516   3.353  1.00  0.00     0.033 C 
ATOM     11  C   UNL     1      25.054  -1.998   4.752  1.00  0.00     0.009 C 
ENDBRANCH   9  10
BRANCH   9  12
ATOM     12  C   UNL     1      23.644  -3.502   2.415  1.00  0.00    -0.022 A 
ATOM     13  C   UNL     1      24.200  -3.837   1.207  1.00  0.00     0.008 A 
ATOM     14  C   UNL     1      23.170  -4.479   3.235  1.00  0.00     0.008 A 
ATOM     15  C   UNL     1      24.274  -5.155   0.834  1.00  0.00     0.001 A 
ATOM     16  C   UNL     1      23.224  -5.834   2.896  1.00  0.00     0.001 A 
ATOM     17  C   UNL     1      23.788  -6.140   1.678  1.00  0.00     0.000 A 
ENDBRANCH   9  12
BRANCH   8  18
ATOM     18  C   UNL     1      22.345  -0.054   3.133  1.00  0.00    -0.018 A 
ATOM     19  C   UNL     1      22.128   0.353   4.434  1.00  0.00     0.009 A 
ATOM     20  C   UNL     1      22.467   0.924   2.150  1.00  0.00     0.009 A 
ATOM     21  C   UNL     1      22.040   1.692   4.714  1.00  0.00     0.001 A 
ATOM     22  C   UNL     1      22.383   2.272   2.413  1.00  0.00     0.001 A 
ATOM     23  C   UNL     1      22.164   2.656   3.732  1.00  0.00     0.000 A 
ENDBRANCH   8  18
ENDBRANCH   3   8
ENDBRANCH   1   2
BRANCH   1  24
ATOM     24  C   UNL     1      16.806  -3.739  -0.068  1.00  0.00     0.290 C 
BRANCH  24  25
ATOM     25  C   UNL     1      15.992  -4.937  -0.483  1.00  0.00     0.303 C 
BRANCH  25  26
ATOM     26  N   UNL     1      16.132  -5.252  -1.872  1.00  0.00    -0.337 N 
ATOM     27  C   UNL     1      16.423  -4.099  -2.697  1.00  0.00     0.332 C 
ATOM     28  C   UNL     1      14.954  -5.886  -2.427  1.00  0.00     0.332 C 
ATOM     29  H   UNL     1      16.927  -5.939  -2.036  1.00  0.00     0.347 HD
ENDBRANCH  25  26
ENDBRANCH  24  25
ENDBRANCH   1  24
TORSDOF 8
ENDMDL
