MODEL 1
REMARK VINA RESULT:      -4.8      0.000      0.000
REMARK SMILES CC(C)C[C@@H](C=O)NC(=O)[C@H](CC(C)C)NC(=O)[C@H](CC(C)C)NC(=O)OCc1ccccc1
REMARK SMILES IDX 16 1 17 2 18 3 11 5 9 6 8 7 10 8 5 10 4 11 2 12 1 13 3 14
REMARK SMILES IDX 6 15 7 16 12 17 13 18 14 19 15 20 19 21 20 22 21 23 22 24
REMARK SMILES IDX 23 25 24 26 25 27 26 28 27 30 28 31 29 32 30 33 34 34 31 35
REMARK SMILES IDX 33 36 32 37
REMARK H PARENT 16 4 8 9 24 29
ROOT
ATOM      1  N   UNL     1      -7.407  -0.338  12.927  1.00  0.00    -0.343 N 
ATOM      2  C   UNL     1      -7.708   1.064  12.961  1.00  0.00     0.243 C 
ATOM      3  O   UNL     1      -8.894   1.392  13.274  1.00  0.00    -0.273 OA
ATOM      4  H   UNL     1      -6.418  -0.584  12.680  1.00  0.00     0.164 HD
ENDROOT
BRANCH   1   5
ATOM      5  C   UNL     1      -8.418  -1.354  13.239  1.00  0.00     0.171 C 
BRANCH   5   6
ATOM      6  C   UNL     1      -8.192  -1.749  14.700  1.00  0.00     0.243 C 
ATOM      7  N   UNL     1      -9.130  -1.437  15.700  1.00  0.00    -0.345 N 
ATOM      8  O   UNL     1      -7.147  -2.362  14.997  1.00  0.00    -0.273 OA
ATOM      9  H   UNL     1      -9.992  -0.925  15.416  1.00  0.00     0.164 HD
BRANCH   7  10
ATOM     10  C   UNL     1      -8.932  -1.808  17.104  1.00  0.00     0.146 C 
BRANCH  10  11
ATOM     11  C   UNL     1      -9.011  -0.552  17.938  1.00  0.00     0.035 C 
BRANCH  11  12
ATOM     12  C   UNL     1      -7.674   0.104  18.159  1.00  0.00    -0.015 C 
ATOM     13  C   UNL     1      -7.603   0.771  19.518  1.00  0.00     0.007 C 
ATOM     14  C   UNL     1      -7.461   1.173  17.111  1.00  0.00     0.007 C 
ENDBRANCH  11  12
ENDBRANCH  10  11
BRANCH  10  15
ATOM     15  C   UNL     1      -9.939  -2.831  17.452  1.00  0.00     0.248 C 
ATOM     16  O   UNL     1      -9.725  -3.729  18.245  1.00  0.00    -0.301 OA
ENDBRANCH  10  15
ENDBRANCH   7  10
ENDBRANCH   5   6
BRANCH   5  17
ATOM     17  C   UNL     1      -8.362  -2.568  12.387  1.00  0.00     0.038 C 
BRANCH  17  18
ATOM     18  C   UNL     1      -7.080  -2.783  11.653  1.00  0.00    -0.015 C 
ATOM     19  C   UNL     1      -7.305  -2.601  10.140  1.00  0.00     0.007 C 
ATOM     20  C   UNL     1      -6.454  -4.116  11.853  1.00  0.00     0.007 C 
ENDBRANCH  17  18
ENDBRANCH   5  17
ENDBRANCH   1   5
BRANCH   2  21
ATOM     21  C   UNL     1      -6.680   2.100  12.643  1.00  0.00     0.175 C 
BRANCH  21  22
ATOM     22  C   UNL     1      -5.672   1.579  11.659  1.00  0.00     0.038 C 
BRANCH  22  23
ATOM     23  C   UNL     1      -5.346   2.520  10.554  1.00  0.00    -0.015 C 
ATOM     24  C   UNL     1      -6.528   3.264  10.006  1.00  0.00     0.007 C 
ATOM     25  C   UNL     1      -4.175   3.443  10.866  1.00  0.00     0.007 C 
ENDBRANCH  22  23
ENDBRANCH  21  22
BRANCH  21  26
ATOM     26  N   UNL     1      -6.125   2.554  13.869  1.00  0.00    -0.310 N 
ATOM     27  C   UNL     1      -6.321   3.897  14.286  1.00  0.00     0.408 C 
ATOM     28  O   UNL     1      -7.000   4.690  13.553  1.00  0.00    -0.225 OA
ATOM     29  H   UNL     1      -5.579   1.925  14.469  1.00  0.00     0.167 HD
BRANCH  27  30
ATOM     30  O   UNL     1      -5.828   4.421  15.440  1.00  0.00    -0.445 OA
BRANCH  30  31
ATOM     31  C   UNL     1      -6.157   5.590  16.114  1.00  0.00     0.270 C 
BRANCH  31  32
ATOM     32  C   UNL     1      -5.946   5.467  17.577  1.00  0.00    -0.011 A 
ATOM     33  C   UNL     1      -6.491   4.435  18.315  1.00  0.00     0.007 A 
ATOM     34  C   UNL     1      -5.170   6.381  18.271  1.00  0.00     0.007 A 
ATOM     35  C   UNL     1      -6.294   4.292  19.666  1.00  0.00     0.000 A 
ATOM     36  C   UNL     1      -4.966   6.244  19.636  1.00  0.00     0.000 A 
ATOM     37  C   UNL     1      -5.519   5.208  20.350  1.00  0.00     0.000 A 
ENDBRANCH  31  32
ENDBRANCH  30  31
ENDBRANCH  27  30
ENDBRANCH  21  26
ENDBRANCH   2  21
TORSDOF 15
ENDMDL
MODEL 2
REMARK VINA RESULT:      -4.7      8.775     11.962
REMARK SMILES CC(C)C[C@@H](C=O)NC(=O)[C@H](CC(C)C)NC(=O)[C@H](CC(C)C)NC(=O)OCc1ccccc1
REMARK SMILES IDX 16 1 17 2 18 3 11 5 9 6 8 7 10 8 5 10 4 11 2 12 1 13 3 14
REMARK SMILES IDX 6 15 7 16 12 17 13 18 14 19 15 20 19 21 20 22 21 23 22 24
REMARK SMILES IDX 23 25 24 26 25 27 26 28 27 30 28 31 29 32 30 33 34 34 31 35
REMARK SMILES IDX 33 36 32 37
REMARK H PARENT 16 4 8 9 24 29
ROOT
ATOM      1  N   UNL     1      -3.854   2.302  24.933  1.00  0.00    -0.343 N 
ATOM      2  C   UNL     1      -4.992   2.324  24.060  1.00  0.00     0.243 C 
ATOM      3  O   UNL     1      -5.409   1.205  23.627  1.00  0.00    -0.273 OA
ATOM      4  H   UNL     1      -3.537   3.237  25.288  1.00  0.00     0.164 HD
ENDROOT
BRANCH   1   5
ATOM      5  C   UNL     1      -3.196   1.048  25.316  1.00  0.00     0.171 C 
BRANCH   5   6
ATOM      6  C   UNL     1      -2.472   1.329  26.634  1.00  0.00     0.243 C 
ATOM      7  N   UNL     1      -1.544   2.380  26.753  1.00  0.00    -0.345 N 
ATOM      8  O   UNL     1      -2.718   0.602  27.616  1.00  0.00    -0.273 OA
ATOM      9  H   UNL     1      -1.363   2.968  25.912  1.00  0.00     0.164 HD
BRANCH   7  10
ATOM     10  C   UNL     1      -0.841   2.665  28.008  1.00  0.00     0.146 C 
BRANCH  10  11
ATOM     11  C   UNL     1       0.618   2.887  27.689  1.00  0.00     0.035 C 
BRANCH  11  12
ATOM     12  C   UNL     1       1.544   2.446  28.791  1.00  0.00    -0.015 C 
ATOM     13  C   UNL     1       2.996   2.657  28.410  1.00  0.00     0.007 C 
ATOM     14  C   UNL     1       1.348   0.969  29.050  1.00  0.00     0.007 C 
ENDBRANCH  11  12
ENDBRANCH  10  11
BRANCH  10  15
ATOM     15  C   UNL     1      -1.503   3.819  28.649  1.00  0.00     0.248 C 
ATOM     16  O   UNL     1      -1.002   4.926  28.702  1.00  0.00    -0.301 OA
ENDBRANCH  10  15
ENDBRANCH   7  10
ENDBRANCH   5   6
BRANCH   5  17
ATOM     17  C   UNL     1      -2.225   0.528  24.321  1.00  0.00     0.038 C 
BRANCH  17  18
ATOM     18  C   UNL     1      -2.427  -0.890  23.903  1.00  0.00    -0.015 C 
ATOM     19  C   UNL     1      -1.416  -1.800  24.628  1.00  0.00     0.007 C 
ATOM     20  C   UNL     1      -2.288  -1.144  22.445  1.00  0.00     0.007 C 
ENDBRANCH  17  18
ENDBRANCH   5  17
ENDBRANCH   1   5
BRANCH   2  21
ATOM     21  C   UNL     1      -5.663   3.600  23.668  1.00  0.00     0.175 C 
BRANCH  21  22
ATOM     22  C   UNL     1      -5.633   3.792  22.179  1.00  0.00     0.038 C 
BRANCH  22  23
ATOM     23  C   UNL     1      -5.825   5.200  21.736  1.00  0.00    -0.015 C 
ATOM     24  C   UNL     1      -5.222   5.515  20.399  1.00  0.00     0.007 C 
ATOM     25  C   UNL     1      -7.265   5.684  21.851  1.00  0.00     0.007 C 
ENDBRANCH  22  23
ENDBRANCH  21  22
BRANCH  21  26
ATOM     26  N   UNL     1      -5.063   4.652  24.410  1.00  0.00    -0.310 N 
ATOM     27  C   UNL     1      -5.838   5.408  25.329  1.00  0.00     0.408 C 
ATOM     28  O   UNL     1      -7.074   5.132  25.484  1.00  0.00    -0.225 OA
ATOM     29  H   UNL     1      -4.069   4.882  24.295  1.00  0.00     0.167 HD
BRANCH  27  30
ATOM     30  O   UNL     1      -5.353   6.432  26.080  1.00  0.00    -0.445 OA
BRANCH  30  31
ATOM     31  C   UNL     1      -5.468   7.807  25.913  1.00  0.00     0.270 C 
BRANCH  31  32
ATOM     32  C   UNL     1      -5.274   8.214  24.500  1.00  0.00    -0.011 A 
ATOM     33  C   UNL     1      -4.093   7.986  23.823  1.00  0.00     0.007 A 
ATOM     34  C   UNL     1      -6.288   8.832  23.785  1.00  0.00     0.007 A 
ATOM     35  C   UNL     1      -3.899   8.338  22.511  1.00  0.00     0.000 A 
ATOM     36  C   UNL     1      -6.101   9.192  22.459  1.00  0.00     0.000 A 
ATOM     37  C   UNL     1      -4.915   8.954  21.805  1.00  0.00     0.000 A 
ENDBRANCH  31  32
ENDBRANCH  30  31
ENDBRANCH  27  30
ENDBRANCH  21  26
ENDBRANCH   2  21
TORSDOF 15
ENDMDL
MODEL 3
REMARK VINA RESULT:      -4.5      2.566      7.455
REMARK SMILES CC(C)C[C@@H](C=O)NC(=O)[C@H](CC(C)C)NC(=O)[C@H](CC(C)C)NC(=O)OCc1ccccc1
REMARK SMILES IDX 16 1 17 2 18 3 11 5 9 6 8 7 10 8 5 10 4 11 2 12 1 13 3 14
REMARK SMILES IDX 6 15 7 16 12 17 13 18 14 19 15 20 19 21 20 22 21 23 22 24
REMARK SMILES IDX 23 25 24 26 25 27 26 28 27 30 28 31 29 32 30 33 34 34 31 35
REMARK SMILES IDX 33 36 32 37
REMARK H PARENT 16 4 8 9 24 29
ROOT
ATOM      1  N   UNL     1      -6.811   3.708  12.349  1.00  0.00    -0.343 N 
ATOM      2  C   UNL     1      -6.174   3.550  13.624  1.00  0.00     0.243 C 
ATOM      3  O   UNL     1      -4.908   3.658  13.654  1.00  0.00    -0.273 OA
ATOM      4  H   UNL     1      -7.857   3.627  12.352  1.00  0.00     0.164 HD
ENDROOT
BRANCH   1   5
ATOM      5  C   UNL     1      -6.045   3.983  11.129  1.00  0.00     0.171 C 
BRANCH   5   6
ATOM      6  C   UNL     1      -5.909   5.505  11.043  1.00  0.00     0.243 C 
ATOM      7  N   UNL     1      -4.930   6.198  11.777  1.00  0.00    -0.345 N 
ATOM      8  O   UNL     1      -6.690   6.132  10.301  1.00  0.00    -0.273 OA
ATOM      9  H   UNL     1      -4.293   5.642  12.386  1.00  0.00     0.164 HD
BRANCH   7  10
ATOM     10  C   UNL     1      -4.783   7.655  11.706  1.00  0.00     0.146 C 
BRANCH  10  11
ATOM     11  C   UNL     1      -4.530   8.171  13.102  1.00  0.00     0.035 C 
BRANCH  11  12
ATOM     12  C   UNL     1      -4.912   7.191  14.180  1.00  0.00    -0.015 C 
ATOM     13  C   UNL     1      -6.117   7.673  14.962  1.00  0.00     0.007 C 
ATOM     14  C   UNL     1      -3.764   7.041  15.152  1.00  0.00     0.007 C 
ENDBRANCH  11  12
ENDBRANCH  10  11
BRANCH  10  15
ATOM     15  C   UNL     1      -3.706   7.959  10.743  1.00  0.00     0.248 C 
ATOM     16  O   UNL     1      -2.557   7.584  10.893  1.00  0.00    -0.301 OA
ENDBRANCH  10  15
ENDBRANCH   7  10
ENDBRANCH   5   6
BRANCH   5  17
ATOM     17  C   UNL     1      -6.662   3.473   9.879  1.00  0.00     0.038 C 
BRANCH  17  18
ATOM     18  C   UNL     1      -6.156   2.152   9.403  1.00  0.00    -0.015 C 
ATOM     19  C   UNL     1      -7.285   1.105   9.462  1.00  0.00     0.007 C 
ATOM     20  C   UNL     1      -5.003   1.606  10.166  1.00  0.00     0.007 C 
ENDBRANCH  17  18
ENDBRANCH   5  17
ENDBRANCH   1   5
BRANCH   2  21
ATOM     21  C   UNL     1      -6.953   3.269  14.868  1.00  0.00     0.175 C 
BRANCH  21  22
ATOM     22  C   UNL     1      -6.245   3.800  16.081  1.00  0.00     0.038 C 
BRANCH  22  23
ATOM     23  C   UNL     1      -7.098   3.900  17.297  1.00  0.00    -0.015 C 
ATOM     24  C   UNL     1      -6.355   4.284  18.543  1.00  0.00     0.007 C 
ATOM     25  C   UNL     1      -8.356   4.733  17.092  1.00  0.00     0.007 C 
ENDBRANCH  22  23
ENDBRANCH  21  22
BRANCH  21  26
ATOM     26  N   UNL     1      -7.223   1.875  14.906  1.00  0.00    -0.310 N 
ATOM     27  C   UNL     1      -8.564   1.409  14.913  1.00  0.00     0.408 C 
ATOM     28  O   UNL     1      -9.522   2.251  14.883  1.00  0.00    -0.225 OA
ATOM     29  H   UNL     1      -6.460   1.188  14.929  1.00  0.00     0.167 HD
BRANCH  27  30
ATOM     30  O   UNL     1      -8.919   0.097  14.952  1.00  0.00    -0.445 OA
BRANCH  30  31
ATOM     31  C   UNL     1      -8.824  -0.834  15.978  1.00  0.00     0.270 C 
BRANCH  31  32
ATOM     32  C   UNL     1      -8.752  -0.188  17.311  1.00  0.00    -0.011 A 
ATOM     33  C   UNL     1      -7.553   0.027  17.961  1.00  0.00     0.007 A 
ATOM     34  C   UNL     1      -9.895   0.250  17.961  1.00  0.00     0.007 A 
ATOM     35  C   UNL     1      -7.462   0.639  19.186  1.00  0.00     0.000 A 
ATOM     36  C   UNL     1      -9.813   0.869  19.199  1.00  0.00     0.000 A 
ATOM     37  C   UNL     1      -8.607   1.073  19.828  1.00  0.00     0.000 A 
ENDBRANCH  31  32
ENDBRANCH  30  31
ENDBRANCH  27  30
ENDBRANCH  21  26
ENDBRANCH   2  21
TORSDOF 15
ENDMDL
MODEL 4
REMARK VINA RESULT:      -4.5      1.980      5.720
REMARK SMILES CC(C)C[C@@H](C=O)NC(=O)[C@H](CC(C)C)NC(=O)[C@H](CC(C)C)NC(=O)OCc1ccccc1
REMARK SMILES IDX 16 1 17 2 18 3 11 5 9 6 8 7 10 8 5 10 4 11 2 12 1 13 3 14
REMARK SMILES IDX 6 15 7 16 12 17 13 18 14 19 15 20 19 21 20 22 21 23 22 24
REMARK SMILES IDX 23 25 24 26 25 27 26 28 27 30 28 31 29 32 30 33 34 34 31 35
REMARK SMILES IDX 33 36 32 37
REMARK H PARENT 16 4 8 9 24 29
ROOT
ATOM      1  N   UNL     1      -7.925  -0.602  14.081  1.00  0.00    -0.343 N 
ATOM      2  C   UNL     1      -8.078  -1.166  15.391  1.00  0.00     0.243 C 
ATOM      3  O   UNL     1      -7.448  -2.243  15.633  1.00  0.00    -0.273 OA
ATOM      4  H   UNL     1      -8.444   0.293  13.910  1.00  0.00     0.164 HD
ENDROOT
BRANCH   1   5
ATOM      5  C   UNL     1      -7.080  -1.232  13.061  1.00  0.00     0.171 C 
BRANCH   5   6
ATOM      6  C   UNL     1      -6.754  -0.140  12.040  1.00  0.00     0.243 C 
ATOM      7  N   UNL     1      -6.245   1.110  12.438  1.00  0.00    -0.345 N 
ATOM      8  O   UNL     1      -6.948  -0.376  10.832  1.00  0.00    -0.273 OA
ATOM      9  H   UNL     1      -6.095   1.273  13.456  1.00  0.00     0.164 HD
BRANCH   7  10
ATOM     10  C   UNL     1      -5.925   2.168  11.475  1.00  0.00     0.146 C 
BRANCH  10  11
ATOM     11  C   UNL     1      -7.125   3.077  11.360  1.00  0.00     0.035 C 
BRANCH  11  12
ATOM     12  C   UNL     1      -7.774   3.382  12.684  1.00  0.00    -0.015 C 
ATOM     13  C   UNL     1      -9.161   2.777  12.772  1.00  0.00     0.007 C 
ATOM     14  C   UNL     1      -7.915   4.879  12.840  1.00  0.00     0.007 C 
ENDBRANCH  11  12
ENDBRANCH  10  11
BRANCH  10  15
ATOM     15  C   UNL     1      -4.694   2.843  11.932  1.00  0.00     0.248 C 
ATOM     16  O   UNL     1      -3.851   2.294  12.616  1.00  0.00    -0.301 OA
ENDBRANCH  10  15
ENDBRANCH   7  10
ENDBRANCH   5   6
BRANCH   5  17
ATOM     17  C   UNL     1      -7.703  -2.386  12.365  1.00  0.00     0.038 C 
BRANCH  17  18
ATOM     18  C   UNL     1      -6.937  -3.664  12.423  1.00  0.00    -0.015 C 
ATOM     19  C   UNL     1      -6.346  -3.986  11.036  1.00  0.00     0.007 C 
ATOM     20  C   UNL     1      -7.720  -4.850  12.859  1.00  0.00     0.007 C 
ENDBRANCH  17  18
ENDBRANCH   5  17
ENDBRANCH   1   5
BRANCH   2  21
ATOM     21  C   UNL     1      -8.938  -0.526  16.431  1.00  0.00     0.175 C 
BRANCH  21  22
ATOM     22  C   UNL     1     -10.355  -1.017  16.338  1.00  0.00     0.038 C 
BRANCH  22  23
ATOM     23  C   UNL     1     -10.892  -1.591  17.601  1.00  0.00    -0.015 C 
ATOM     24  C   UNL     1     -11.906  -2.679  17.404  1.00  0.00     0.007 C 
ATOM     25  C   UNL     1      -9.811  -1.982  18.602  1.00  0.00     0.007 C 
ENDBRANCH  22  23
ENDBRANCH  21  22
BRANCH  21  26
ATOM     26  N   UNL     1      -8.794   0.881  16.310  1.00  0.00    -0.310 N 
ATOM     27  C   UNL     1      -8.303   1.644  17.402  1.00  0.00     0.408 C 
ATOM     28  O   UNL     1      -7.992   1.055  18.491  1.00  0.00    -0.225 OA
ATOM     29  H   UNL     1      -9.039   1.366  15.439  1.00  0.00     0.167 HD
BRANCH  27  30
ATOM     30  O   UNL     1      -8.133   2.993  17.381  1.00  0.00    -0.445 OA
BRANCH  30  31
ATOM     31  C   UNL     1      -7.217   3.798  18.044  1.00  0.00     0.270 C 
BRANCH  31  32
ATOM     32  C   UNL     1      -6.319   4.511  17.103  1.00  0.00    -0.011 A 
ATOM     33  C   UNL     1      -5.928   3.960  15.899  1.00  0.00     0.007 A 
ATOM     34  C   UNL     1      -5.842   5.781  17.386  1.00  0.00     0.007 A 
ATOM     35  C   UNL     1      -5.112   4.609  15.005  1.00  0.00     0.000 A 
ATOM     36  C   UNL     1      -5.018   6.444  16.489  1.00  0.00     0.000 A 
ATOM     37  C   UNL     1      -4.642   5.876  15.295  1.00  0.00     0.000 A 
ENDBRANCH  31  32
ENDBRANCH  30  31
ENDBRANCH  27  30
ENDBRANCH  21  26
ENDBRANCH   2  21
TORSDOF 15
ENDMDL
MODEL 5
REMARK VINA RESULT:      -4.4      1.878      5.597
REMARK SMILES CC(C)C[C@@H](C=O)NC(=O)[C@H](CC(C)C)NC(=O)[C@H](CC(C)C)NC(=O)OCc1ccccc1
REMARK SMILES IDX 16 1 17 2 18 3 11 5 9 6 8 7 10 8 5 10 4 11 2 12 1 13 3 14
REMARK SMILES IDX 6 15 7 16 12 17 13 18 14 19 15 20 19 21 20 22 21 23 22 24
REMARK SMILES IDX 23 25 24 26 25 27 26 28 27 30 28 31 29 32 30 33 34 34 31 35
REMARK SMILES IDX 33 36 32 37
REMARK H PARENT 16 4 8 9 24 29
ROOT
ATOM      1  N   UNL     1      -7.731  -0.758  13.978  1.00  0.00    -0.343 N 
ATOM      2  C   UNL     1      -7.699  -1.665  15.089  1.00  0.00     0.243 C 
ATOM      3  O   UNL     1      -7.180  -2.807  14.887  1.00  0.00    -0.273 OA
ATOM      4  H   UNL     1      -8.151   0.183  14.174  1.00  0.00     0.164 HD
ENDROOT
BRANCH   1   5
ATOM      5  C   UNL     1      -7.190  -1.123  12.665  1.00  0.00     0.171 C 
BRANCH   5   6
ATOM      6  C   UNL     1      -6.727   0.182  12.014  1.00  0.00     0.243 C 
ATOM      7  N   UNL     1      -6.550   1.356  12.767  1.00  0.00    -0.345 N 
ATOM      8  O   UNL     1      -6.505   0.190  10.787  1.00  0.00    -0.273 OA
ATOM      9  H   UNL     1      -6.744   1.313  13.790  1.00  0.00     0.164 HD
BRANCH   7  10
ATOM     10  C   UNL     1      -6.105   2.616  12.162  1.00  0.00     0.146 C 
BRANCH  10  11
ATOM     11  C   UNL     1      -7.234   3.613  12.270  1.00  0.00     0.035 C 
BRANCH  11  12
ATOM     12  C   UNL     1      -7.700   3.837  13.684  1.00  0.00    -0.015 C 
ATOM     13  C   UNL     1      -9.176   3.526  13.835  1.00  0.00     0.007 C 
ATOM     14  C   UNL     1      -7.498   5.289  14.054  1.00  0.00     0.007 C 
ENDBRANCH  11  12
ENDBRANCH  10  11
BRANCH  10  15
ATOM     15  C   UNL     1      -4.861   3.032  12.838  1.00  0.00     0.248 C 
ATOM     16  O   UNL     1      -3.780   2.522  12.611  1.00  0.00    -0.301 OA
ENDBRANCH  10  15
ENDBRANCH   7  10
ENDBRANCH   5   6
BRANCH   5  17
ATOM     17  C   UNL     1      -8.152  -1.807  11.765  1.00  0.00     0.038 C 
BRANCH  17  18
ATOM     18  C   UNL     1      -7.604  -2.957  10.989  1.00  0.00    -0.015 C 
ATOM     19  C   UNL     1      -8.728  -3.966  10.680  1.00  0.00     0.007 C 
ATOM     20  C   UNL     1      -6.507  -3.705  11.659  1.00  0.00     0.007 C 
ENDBRANCH  17  18
ENDBRANCH   5  17
ENDBRANCH   1   5
BRANCH   2  21
ATOM     21  C   UNL     1      -8.250  -1.295  16.428  1.00  0.00     0.175 C 
BRANCH  21  22
ATOM     22  C   UNL     1      -9.520  -2.044  16.716  1.00  0.00     0.038 C 
BRANCH  22  23
ATOM     23  C   UNL     1      -9.367  -3.169  17.677  1.00  0.00    -0.015 C 
ATOM     24  C   UNL     1     -10.127  -2.995  18.958  1.00  0.00     0.007 C 
ATOM     25  C   UNL     1      -9.591  -4.540  17.051  1.00  0.00     0.007 C 
ENDBRANCH  22  23
ENDBRANCH  21  22
BRANCH  21  26
ATOM     26  N   UNL     1      -8.377   0.118  16.470  1.00  0.00    -0.310 N 
ATOM     27  C   UNL     1      -7.979   0.835  17.629  1.00  0.00     0.408 C 
ATOM     28  O   UNL     1      -7.504   0.200  18.629  1.00  0.00    -0.225 OA
ATOM     29  H   UNL     1      -8.755   0.641  15.671  1.00  0.00     0.167 HD
BRANCH  27  30
ATOM     30  O   UNL     1      -8.065   2.185  17.763  1.00  0.00    -0.445 OA
BRANCH  30  31
ATOM     31  C   UNL     1      -7.268   3.197  17.243  1.00  0.00     0.270 C 
BRANCH  31  32
ATOM     32  C   UNL     1      -6.661   4.030  18.309  1.00  0.00    -0.011 A 
ATOM     33  C   UNL     1      -6.663   3.646  19.635  1.00  0.00     0.007 A 
ATOM     34  C   UNL     1      -6.042   5.236  18.016  1.00  0.00     0.007 A 
ATOM     35  C   UNL     1      -6.091   4.393  20.635  1.00  0.00     0.000 A 
ATOM     36  C   UNL     1      -5.463   5.996  19.019  1.00  0.00     0.000 A 
ATOM     37  C   UNL     1      -5.476   5.593  20.333  1.00  0.00     0.000 A 
ENDBRANCH  31  32
ENDBRANCH  30  31
ENDBRANCH  27  30
ENDBRANCH  21  26
ENDBRANCH   2  21
TORSDOF 15
ENDMDL
MODEL 6
REMARK VINA RESULT:      -4.4      3.751      8.463
REMARK SMILES CC(C)C[C@@H](C=O)NC(=O)[C@H](CC(C)C)NC(=O)[C@H](CC(C)C)NC(=O)OCc1ccccc1
REMARK SMILES IDX 16 1 17 2 18 3 11 5 9 6 8 7 10 8 5 10 4 11 2 12 1 13 3 14
REMARK SMILES IDX 6 15 7 16 12 17 13 18 14 19 15 20 19 21 20 22 21 23 22 24
REMARK SMILES IDX 23 25 24 26 25 27 26 28 27 30 28 31 29 32 30 33 34 34 31 35
REMARK SMILES IDX 33 36 32 37
REMARK H PARENT 16 4 8 9 24 29
ROOT
ATOM      1  N   UNL     1      -5.988   5.795  16.212  1.00  0.00    -0.343 N 
ATOM      2  C   UNL     1      -7.081   5.504  17.096  1.00  0.00     0.243 C 
ATOM      3  O   UNL     1      -8.254   5.656  16.632  1.00  0.00    -0.273 OA
ATOM      4  H   UNL     1      -5.030   5.650  16.613  1.00  0.00     0.164 HD
ENDROOT
BRANCH   1   5
ATOM      5  C   UNL     1      -6.207   6.246  14.834  1.00  0.00     0.171 C 
BRANCH   5   6
ATOM      6  C   UNL     1      -5.427   5.280  13.939  1.00  0.00     0.243 C 
ATOM      7  N   UNL     1      -5.683   5.188  12.559  1.00  0.00    -0.345 N 
ATOM      8  O   UNL     1      -4.547   4.565  14.457  1.00  0.00    -0.273 OA
ATOM      9  H   UNL     1      -6.425   5.802  12.159  1.00  0.00     0.164 HD
BRANCH   7  10
ATOM     10  C   UNL     1      -4.945   4.271  11.684  1.00  0.00     0.146 C 
BRANCH  10  11
ATOM     11  C   UNL     1      -5.933   3.300  11.082  1.00  0.00     0.035 C 
BRANCH  11  12
ATOM     12  C   UNL     1      -5.452   1.874  11.094  1.00  0.00    -0.015 C 
ATOM     13  C   UNL     1      -5.520   1.256   9.712  1.00  0.00     0.007 C 
ATOM     14  C   UNL     1      -6.337   1.054  12.006  1.00  0.00     0.007 C 
ENDBRANCH  11  12
ENDBRANCH  10  11
BRANCH  10  15
ATOM     15  C   UNL     1      -4.208   5.079  10.693  1.00  0.00     0.248 C 
ATOM     16  O   UNL     1      -4.661   6.093  10.195  1.00  0.00    -0.301 OA
ENDBRANCH  10  15
ENDBRANCH   7  10
ENDBRANCH   5   6
BRANCH   5  17
ATOM     17  C   UNL     1      -5.767   7.636  14.558  1.00  0.00     0.038 C 
BRANCH  17  18
ATOM     18  C   UNL     1      -6.792   8.526  13.939  1.00  0.00    -0.015 C 
ATOM     19  C   UNL     1      -6.241   9.961  13.823  1.00  0.00     0.007 C 
ATOM     20  C   UNL     1      -8.084   8.604  14.670  1.00  0.00     0.007 C 
ENDBRANCH  17  18
ENDBRANCH   5  17
ENDBRANCH   1   5
BRANCH   2  21
ATOM     21  C   UNL     1      -6.860   5.045  18.500  1.00  0.00     0.175 C 
BRANCH  21  22
ATOM     22  C   UNL     1      -7.864   4.000  18.892  1.00  0.00     0.038 C 
BRANCH  22  23
ATOM     23  C   UNL     1      -7.351   2.604  18.842  1.00  0.00    -0.015 C 
ATOM     24  C   UNL     1      -7.580   1.816  20.099  1.00  0.00     0.007 C 
ATOM     25  C   UNL     1      -7.777   1.841  17.595  1.00  0.00     0.007 C 
ENDBRANCH  22  23
ENDBRANCH  21  22
BRANCH  21  26
ATOM     26  N   UNL     1      -6.849   6.193  19.336  1.00  0.00    -0.310 N 
ATOM     27  C   UNL     1      -5.697   6.504  20.106  1.00  0.00     0.408 C 
ATOM     28  O   UNL     1      -4.673   5.745  20.038  1.00  0.00    -0.225 OA
ATOM     29  H   UNL     1      -7.667   6.812  19.397  1.00  0.00     0.167 HD
BRANCH  27  30
ATOM     30  O   UNL     1      -5.595   7.577  20.934  1.00  0.00    -0.445 OA
BRANCH  30  31
ATOM     31  C   UNL     1      -4.582   7.950  21.808  1.00  0.00     0.270 C 
BRANCH  31  32
ATOM     32  C   UNL     1      -5.096   8.216  23.174  1.00  0.00    -0.011 A 
ATOM     33  C   UNL     1      -4.457   7.747  24.305  1.00  0.00     0.007 A 
ATOM     34  C   UNL     1      -6.241   8.970  23.377  1.00  0.00     0.007 A 
ATOM     35  C   UNL     1      -4.905   7.997  25.578  1.00  0.00     0.000 A 
ATOM     36  C   UNL     1      -6.700   9.227  24.660  1.00  0.00     0.000 A 
ATOM     37  C   UNL     1      -6.048   8.750  25.772  1.00  0.00     0.000 A 
ENDBRANCH  31  32
ENDBRANCH  30  31
ENDBRANCH  27  30
ENDBRANCH  21  26
ENDBRANCH   2  21
TORSDOF 15
ENDMDL
MODEL 7
REMARK VINA RESULT:      -4.4      8.333     10.428
REMARK SMILES CC(C)C[C@@H](C=O)NC(=O)[C@H](CC(C)C)NC(=O)[C@H](CC(C)C)NC(=O)OCc1ccccc1
REMARK SMILES IDX 16 1 17 2 18 3 11 5 9 6 8 7 10 8 5 10 4 11 2 12 1 13 3 14
REMARK SMILES IDX 6 15 7 16 12 17 13 18 14 19 15 20 19 21 20 22 21 23 22 24
REMARK SMILES IDX 23 25 24 26 25 27 26 28 27 30 28 31 29 32 30 33 34 34 31 35
REMARK SMILES IDX 33 36 32 37
REMARK H PARENT 16 4 8 9 24 29
ROOT
ATOM      1  N   UNL     1      -4.978   1.738  24.362  1.00  0.00    -0.343 N 
ATOM      2  C   UNL     1      -5.924   2.086  23.341  1.00  0.00     0.243 C 
ATOM      3  O   UNL     1      -6.429   1.132  22.673  1.00  0.00    -0.273 OA
ATOM      4  H   UNL     1      -4.584   2.542  24.909  1.00  0.00     0.164 HD
ENDROOT
BRANCH   1   5
ATOM      5  C   UNL     1      -4.607   0.345  24.630  1.00  0.00     0.171 C 
BRANCH   5   6
ATOM      6  C   UNL     1      -5.217  -0.007  25.989  1.00  0.00     0.243 C 
ATOM      7  N   UNL     1      -6.591  -0.270  26.132  1.00  0.00    -0.345 N 
ATOM      8  O   UNL     1      -4.467  -0.059  26.984  1.00  0.00    -0.273 OA
ATOM      9  H   UNL     1      -7.188  -0.218  25.279  1.00  0.00     0.164 HD
BRANCH   7  10
ATOM     10  C   UNL     1      -7.193  -0.610  27.424  1.00  0.00     0.146 C 
BRANCH  10  11
ATOM     11  C   UNL     1      -8.233   0.436  27.749  1.00  0.00     0.035 C 
BRANCH  11  12
ATOM     12  C   UNL     1      -7.754   1.468  28.735  1.00  0.00    -0.015 C 
ATOM     13  C   UNL     1      -7.164   2.673  28.030  1.00  0.00     0.007 C 
ATOM     14  C   UNL     1      -6.672   0.868  29.603  1.00  0.00     0.007 C 
ENDBRANCH  11  12
ENDBRANCH  10  11
BRANCH  10  15
ATOM     15  C   UNL     1      -7.725  -1.985  27.332  1.00  0.00     0.248 C 
ATOM     16  O   UNL     1      -8.668  -2.285  26.624  1.00  0.00    -0.301 OA
ENDBRANCH  10  15
ENDBRANCH   7  10
ENDBRANCH   5   6
BRANCH   5  17
ATOM     17  C   UNL     1      -3.145   0.087  24.666  1.00  0.00     0.038 C 
BRANCH  17  18
ATOM     18  C   UNL     1      -2.698  -1.178  24.015  1.00  0.00    -0.015 C 
ATOM     19  C   UNL     1      -3.741  -1.631  22.975  1.00  0.00     0.007 C 
ATOM     20  C   UNL     1      -2.470  -2.318  24.941  1.00  0.00     0.007 C 
ENDBRANCH  17  18
ENDBRANCH   5  17
ENDBRANCH   1   5
BRANCH   2  21
ATOM     21  C   UNL     1      -6.302   3.505  23.066  1.00  0.00     0.175 C 
BRANCH  21  22
ATOM     22  C   UNL     1      -6.166   3.828  21.606  1.00  0.00     0.038 C 
BRANCH  22  23
ATOM     23  C   UNL     1      -5.941   5.269  21.312  1.00  0.00    -0.015 C 
ATOM     24  C   UNL     1      -4.998   5.528  20.174  1.00  0.00     0.007 C 
ATOM     25  C   UNL     1      -7.228   6.076  21.192  1.00  0.00     0.007 C 
ENDBRANCH  22  23
ENDBRANCH  21  22
BRANCH  21  26
ATOM     26  N   UNL     1      -5.536   4.335  23.926  1.00  0.00    -0.310 N 
ATOM     27  C   UNL     1      -6.182   5.153  24.890  1.00  0.00     0.408 C 
ATOM     28  O   UNL     1      -7.456   5.135  24.977  1.00  0.00    -0.225 OA
ATOM     29  H   UNL     1      -4.511   4.357  23.867  1.00  0.00     0.167 HD
BRANCH  27  30
ATOM     30  O   UNL     1      -5.534   5.980  25.752  1.00  0.00    -0.445 OA
BRANCH  30  31
ATOM     31  C   UNL     1      -5.470   7.367  25.798  1.00  0.00     0.270 C 
BRANCH  31  32
ATOM     32  C   UNL     1      -5.268   7.959  24.453  1.00  0.00    -0.011 A 
ATOM     33  C   UNL     1      -6.235   8.727  23.834  1.00  0.00     0.007 A 
ATOM     34  C   UNL     1      -4.082   7.781  23.759  1.00  0.00     0.007 A 
ATOM     35  C   UNL     1      -6.063   9.298  22.598  1.00  0.00     0.000 A 
ATOM     36  C   UNL     1      -3.899   8.356  22.510  1.00  0.00     0.000 A 
ATOM     37  C   UNL     1      -4.876   9.117  21.913  1.00  0.00     0.000 A 
ENDBRANCH  31  32
ENDBRANCH  30  31
ENDBRANCH  27  30
ENDBRANCH  21  26
ENDBRANCH   2  21
TORSDOF 15
ENDMDL
MODEL 8
REMARK VINA RESULT:      -4.3      3.052      6.380
REMARK SMILES CC(C)C[C@@H](C=O)NC(=O)[C@H](CC(C)C)NC(=O)[C@H](CC(C)C)NC(=O)OCc1ccccc1
REMARK SMILES IDX 16 1 17 2 18 3 11 5 9 6 8 7 10 8 5 10 4 11 2 12 1 13 3 14
REMARK SMILES IDX 6 15 7 16 12 17 13 18 14 19 15 20 19 21 20 22 21 23 22 24
REMARK SMILES IDX 23 25 24 26 25 27 26 28 27 30 28 31 29 32 30 33 34 34 31 35
REMARK SMILES IDX 33 36 32 37
REMARK H PARENT 16 4 8 9 24 29
ROOT
ATOM      1  N   UNL     1      -6.472   2.592  16.580  1.00  0.00    -0.343 N 
ATOM      2  C   UNL     1      -6.639   3.363  15.382  1.00  0.00     0.243 C 
ATOM      3  O   UNL     1      -7.813   3.433  14.900  1.00  0.00    -0.273 OA
ATOM      4  H   UNL     1      -5.497   2.560  16.965  1.00  0.00     0.164 HD
ENDROOT
BRANCH   1   5
ATOM      5  C   UNL     1      -7.599   1.912  17.227  1.00  0.00     0.171 C 
BRANCH   5   6
ATOM      6  C   UNL     1      -7.580   2.352  18.692  1.00  0.00     0.243 C 
ATOM      7  N   UNL     1      -7.412   3.700  19.053  1.00  0.00    -0.345 N 
ATOM      8  O   UNL     1      -7.717   1.483  19.577  1.00  0.00    -0.273 OA
ATOM      9  H   UNL     1      -7.301   4.399  18.288  1.00  0.00     0.164 HD
BRANCH   7  10
ATOM     10  C   UNL     1      -7.393   4.141  20.452  1.00  0.00     0.146 C 
BRANCH  10  11
ATOM     11  C   UNL     1      -5.958   4.401  20.843  1.00  0.00     0.035 C 
BRANCH  11  12
ATOM     12  C   UNL     1      -5.597   3.844  22.195  1.00  0.00    -0.015 C 
ATOM     13  C   UNL     1      -6.509   2.698  22.582  1.00  0.00     0.007 C 
ATOM     14  C   UNL     1      -5.751   4.926  23.240  1.00  0.00     0.007 C 
ENDBRANCH  11  12
ENDBRANCH  10  11
BRANCH  10  15
ATOM     15  C   UNL     1      -8.277   5.317  20.572  1.00  0.00     0.248 C 
ATOM     16  O   UNL     1      -7.861   6.461  20.588  1.00  0.00    -0.301 OA
ENDBRANCH  10  15
ENDBRANCH   7  10
ENDBRANCH   5   6
BRANCH   5  17
ATOM     17  C   UNL     1      -7.553   0.430  17.157  1.00  0.00     0.038 C 
BRANCH  17  18
ATOM     18  C   UNL     1      -8.667  -0.214  16.401  1.00  0.00    -0.015 C 
ATOM     19  C   UNL     1      -8.286  -0.344  14.914  1.00  0.00     0.007 C 
ATOM     20  C   UNL     1      -9.970   0.500  16.466  1.00  0.00     0.007 C 
ENDBRANCH  17  18
ENDBRANCH   5  17
ENDBRANCH   1   5
BRANCH   2  21
ATOM     21  C   UNL     1      -5.492   4.055  14.721  1.00  0.00     0.175 C 
BRANCH  21  22
ATOM     22  C   UNL     1      -5.107   5.299  15.469  1.00  0.00     0.038 C 
BRANCH  22  23
ATOM     23  C   UNL     1      -5.139   6.544  14.654  1.00  0.00    -0.015 C 
ATOM     24  C   UNL     1      -6.316   7.432  14.931  1.00  0.00     0.007 C 
ATOM     25  C   UNL     1      -3.822   7.309  14.657  1.00  0.00     0.007 C 
ENDBRANCH  22  23
ENDBRANCH  21  22
BRANCH  21  26
ATOM     26  N   UNL     1      -5.839   4.271  13.361  1.00  0.00    -0.310 N 
ATOM     27  C   UNL     1      -5.057   3.695  12.325  1.00  0.00     0.408 C 
ATOM     28  O   UNL     1      -4.043   2.981  12.627  1.00  0.00    -0.225 OA
ATOM     29  H   UNL     1      -6.654   4.841  13.105  1.00  0.00     0.167 HD
BRANCH  27  30
ATOM     30  O   UNL     1      -5.310   3.847  10.998  1.00  0.00    -0.445 OA
BRANCH  30  31
ATOM     31  C   UNL     1      -4.740   4.701  10.063  1.00  0.00     0.270 C 
BRANCH  31  32
ATOM     32  C   UNL     1      -4.745   6.112  10.522  1.00  0.00    -0.011 A 
ATOM     33  C   UNL     1      -3.582   6.837  10.685  1.00  0.00     0.007 A 
ATOM     34  C   UNL     1      -5.931   6.776  10.793  1.00  0.00     0.007 A 
ATOM     35  C   UNL     1      -3.564   8.148  11.092  1.00  0.00     0.000 A 
ATOM     36  C   UNL     1      -5.923   8.100  11.204  1.00  0.00     0.000 A 
ATOM     37  C   UNL     1      -4.752   8.803  11.359  1.00  0.00     0.000 A 
ENDBRANCH  31  32
ENDBRANCH  30  31
ENDBRANCH  27  30
ENDBRANCH  21  26
ENDBRANCH   2  21
TORSDOF 15
ENDMDL
MODEL 9
REMARK VINA RESULT:      -4.3      1.960      8.601
REMARK SMILES CC(C)C[C@@H](C=O)NC(=O)[C@H](CC(C)C)NC(=O)[C@H](CC(C)C)NC(=O)OCc1ccccc1
REMARK SMILES IDX 16 1 17 2 18 3 11 5 9 6 8 7 10 8 5 10 4 11 2 12 1 13 3 14
REMARK SMILES IDX 6 15 7 16 12 17 13 18 14 19 15 20 19 21 20 22 21 23 22 24
REMARK SMILES IDX 23 25 24 26 25 27 26 28 27 30 28 31 29 32 30 33 34 34 31 35
REMARK SMILES IDX 33 36 32 37
REMARK H PARENT 16 4 8 9 24 29
ROOT
ATOM      1  N   UNL     1      -6.765   2.780  15.755  1.00  0.00    -0.343 N 
ATOM      2  C   UNL     1      -7.803   2.477  16.698  1.00  0.00     0.243 C 
ATOM      3  O   UNL     1      -8.603   3.418  16.997  1.00  0.00    -0.273 OA
ATOM      4  H   UNL     1      -6.126   1.984  15.515  1.00  0.00     0.164 HD
ENDROOT
BRANCH   1   5
ATOM      5  C   UNL     1      -6.628   4.111  15.156  1.00  0.00     0.171 C 
BRANCH   5   6
ATOM      6  C   UNL     1      -7.016   3.961  13.683  1.00  0.00     0.243 C 
ATOM      7  N   UNL     1      -7.189   2.696  13.094  1.00  0.00    -0.345 N 
ATOM      8  O   UNL     1      -7.179   4.992  13.002  1.00  0.00    -0.273 OA
ATOM      9  H   UNL     1      -7.045   1.855  13.694  1.00  0.00     0.164 HD
BRANCH   7  10
ATOM     10  C   UNL     1      -7.562   2.532  11.686  1.00  0.00     0.146 C 
BRANCH  10  11
ATOM     11  C   UNL     1      -6.641   1.504  11.072  1.00  0.00     0.035 C 
BRANCH  11  12
ATOM     12  C   UNL     1      -6.667   1.502   9.567  1.00  0.00    -0.015 C 
ATOM     13  C   UNL     1      -5.674   0.508   8.999  1.00  0.00     0.007 C 
ATOM     14  C   UNL     1      -6.286   2.873   9.056  1.00  0.00     0.007 C 
ENDBRANCH  11  12
ENDBRANCH  10  11
BRANCH  10  15
ATOM     15  C   UNL     1      -8.993   2.173  11.632  1.00  0.00     0.248 C 
ATOM     16  O   UNL     1      -9.464   1.231  12.242  1.00  0.00    -0.301 OA
ENDBRANCH  10  15
ENDBRANCH   7  10
ENDBRANCH   5   6
BRANCH   5  17
ATOM     17  C   UNL     1      -5.266   4.696  15.249  1.00  0.00     0.038 C 
BRANCH  17  18
ATOM     18  C   UNL     1      -5.212   6.161  15.527  1.00  0.00    -0.015 C 
ATOM     19  C   UNL     1      -4.400   6.874  14.427  1.00  0.00     0.007 C 
ATOM     20  C   UNL     1      -4.612   6.533  16.835  1.00  0.00     0.007 C 
ENDBRANCH  17  18
ENDBRANCH   5  17
ENDBRANCH   1   5
BRANCH   2  21
ATOM     21  C   UNL     1      -7.944   1.122  17.310  1.00  0.00     0.175 C 
BRANCH  21  22
ATOM     22  C   UNL     1      -7.458   1.116  18.731  1.00  0.00     0.038 C 
BRANCH  22  23
ATOM     23  C   UNL     1      -8.521   1.348  19.746  1.00  0.00    -0.015 C 
ATOM     24  C   UNL     1      -9.869   0.813  19.363  1.00  0.00     0.007 C 
ATOM     25  C   UNL     1      -8.116   0.941  21.157  1.00  0.00     0.007 C 
ENDBRANCH  22  23
ENDBRANCH  21  22
BRANCH  21  26
ATOM     26  N   UNL     1      -7.291   0.191  16.461  1.00  0.00    -0.310 N 
ATOM     27  C   UNL     1      -7.843  -1.102  16.261  1.00  0.00     0.408 C 
ATOM     28  O   UNL     1      -8.931  -1.418  16.849  1.00  0.00    -0.225 OA
ATOM     29  H   UNL     1      -6.416   0.434  15.981  1.00  0.00     0.167 HD
BRANCH  27  30
ATOM     30  O   UNL     1      -7.289  -2.059  15.470  1.00  0.00    -0.445 OA
BRANCH  30  31
ATOM     31  C   UNL     1      -7.877  -3.104  14.769  1.00  0.00     0.270 C 
BRANCH  31  32
ATOM     32  C   UNL     1      -7.469  -3.116  13.343  1.00  0.00    -0.011 A 
ATOM     33  C   UNL     1      -6.828  -4.197  12.770  1.00  0.00     0.007 A 
ATOM     34  C   UNL     1      -7.733  -2.040  12.510  1.00  0.00     0.007 A 
ATOM     35  C   UNL     1      -6.458  -4.236  11.449  1.00  0.00     0.000 A 
ATOM     36  C   UNL     1      -7.363  -2.072  11.174  1.00  0.00     0.000 A 
ATOM     37  C   UNL     1      -6.726  -3.159  10.625  1.00  0.00     0.000 A 
ENDBRANCH  31  32
ENDBRANCH  30  31
ENDBRANCH  27  30
ENDBRANCH  21  26
ENDBRANCH   2  21
TORSDOF 15
ENDMDL
