MODEL 1
REMARK VINA RESULT:      -6.7      0.000      0.000
REMARK SMILES O=C(CCCN1CCC(O)(c2ccc(Cl)cc2)CC1)c1ccc(F)cc1
REMARK SMILES IDX 4 1 3 2 2 3 1 4 20 5 21 6 26 7 22 8 25 9 23 10 24 11 5 12
REMARK SMILES IDX 6 13 7 14 19 15 8 16 18 17 9 18 10 19 11 21 12 22 17 23
REMARK SMILES IDX 13 24 16 25 14 26 15 27
REMARK H PARENT 10 20
ROOT
ATOM      1  C   UNL     1     -14.135  -5.421  -7.656  1.00  0.00     0.024 C 
ENDROOT
BRANCH   1   2
ATOM      2  C   UNL     1     -15.184  -4.471  -8.177  1.00  0.00     0.082 C 
BRANCH   2   3
ATOM      3  C   UNL     1     -15.469  -4.633  -9.621  1.00  0.00     0.162 C 
ATOM      4  O   UNL     1     -15.146  -5.688 -10.221  1.00  0.00    -0.294 OA
BRANCH   3   5
ATOM      5  C   UNL     1     -16.130  -3.589 -10.401  1.00  0.00     0.018 A 
ATOM      6  C   UNL     1     -17.251  -2.953  -9.874  1.00  0.00     0.015 A 
ATOM      7  C   UNL     1     -15.669  -3.232 -11.626  1.00  0.00     0.015 A 
ATOM      8  C   UNL     1     -17.861  -1.969 -10.622  1.00  0.00     0.040 A 
ATOM      9  C   UNL     1     -16.301  -2.243 -12.356  1.00  0.00     0.040 A 
ATOM     10  C   UNL     1     -17.413  -1.585 -11.874  1.00  0.00     0.123 A 
ATOM     11  F   UNL     1     -18.044  -0.612 -12.580  1.00  0.00    -0.207 F 
ENDBRANCH   3   5
ENDBRANCH   2   3
ENDBRANCH   1   2
BRANCH   1  12
ATOM     12  C   UNL     1     -14.034  -5.528  -6.194  1.00  0.00     0.085 C 
BRANCH  12  13
ATOM     13  N   UNL     1     -15.181  -5.924  -5.493  1.00  0.00    -0.303 NA
ATOM     14  C   UNL     1     -15.494  -5.179  -4.333  1.00  0.00     0.088 C 
ATOM     15  C   UNL     1     -15.520  -7.286  -5.414  1.00  0.00     0.088 C 
ATOM     16  C   UNL     1     -16.641  -5.822  -3.583  1.00  0.00     0.056 C 
ATOM     17  C   UNL     1     -17.040  -7.419  -5.402  1.00  0.00     0.056 C 
ATOM     18  C   UNL     1     -17.641  -6.292  -4.620  1.00  0.00     0.092 C 
BRANCH  18  19
ATOM     19  O   UNL     1     -17.758  -5.194  -5.517  1.00  0.00    -0.385 OA
ATOM     20  H   UNL     1     -18.263  -4.508  -5.019  1.00  0.00     0.211 HD
ENDBRANCH  18  19
BRANCH  18  21
ATOM     21  C   UNL     1     -18.962  -6.592  -4.016  1.00  0.00    -0.016 A 
ATOM     22  C   UNL     1     -19.835  -5.536  -3.725  1.00  0.00     0.008 A 
ATOM     23  C   UNL     1     -19.408  -7.849  -3.702  1.00  0.00     0.008 A 
ATOM     24  C   UNL     1     -21.073  -5.742  -3.158  1.00  0.00     0.021 A 
ATOM     25  C   UNL     1     -20.667  -8.060  -3.124  1.00  0.00     0.021 A 
ATOM     26  C   UNL     1     -21.510  -7.010  -2.846  1.00  0.00     0.041 A 
ATOM     27  Cl  UNL     1     -23.100  -7.274  -2.118  1.00  0.00    -0.084 Cl
ENDBRANCH  18  21
ENDBRANCH  12  13
ENDBRANCH   1  12
TORSDOF 7
ENDMDL
MODEL 2
REMARK VINA RESULT:      -6.6      4.828      9.387
REMARK SMILES O=C(CCCN1CCC(O)(c2ccc(Cl)cc2)CC1)c1ccc(F)cc1
REMARK SMILES IDX 4 1 3 2 2 3 1 4 20 5 21 6 26 7 22 8 25 9 23 10 24 11 5 12
REMARK SMILES IDX 6 13 7 14 19 15 8 16 18 17 9 18 10 19 11 21 12 22 17 23
REMARK SMILES IDX 13 24 16 25 14 26 15 27
REMARK H PARENT 10 20
ROOT
ATOM      1  C   UNL     1     -19.053  -4.806  -5.467  1.00  0.00     0.024 C 
ENDROOT
BRANCH   1   2
ATOM      2  C   UNL     1     -18.945  -5.148  -4.001  1.00  0.00     0.082 C 
BRANCH   2   3
ATOM      3  C   UNL     1     -20.246  -5.155  -3.294  1.00  0.00     0.162 C 
ATOM      4  O   UNL     1     -20.744  -4.087  -2.862  1.00  0.00    -0.294 OA
BRANCH   3   5
ATOM      5  C   UNL     1     -20.997  -6.388  -3.071  1.00  0.00     0.018 A 
ATOM      6  C   UNL     1     -20.355  -7.614  -3.223  1.00  0.00     0.015 A 
ATOM      7  C   UNL     1     -22.307  -6.357  -2.718  1.00  0.00     0.015 A 
ATOM      8  C   UNL     1     -21.077  -8.767  -3.008  1.00  0.00     0.040 A 
ATOM      9  C   UNL     1     -23.010  -7.529  -2.509  1.00  0.00     0.040 A 
ATOM     10  C   UNL     1     -22.415  -8.765  -2.648  1.00  0.00     0.123 A 
ATOM     11  F   UNL     1     -23.092  -9.923  -2.446  1.00  0.00    -0.207 F 
ENDBRANCH   3   5
ENDBRANCH   2   3
ENDBRANCH   1   2
BRANCH   1  12
ATOM     12  C   UNL     1     -18.515  -5.803  -6.401  1.00  0.00     0.085 C 
BRANCH  12  13
ATOM     13  N   UNL     1     -17.758  -5.334  -7.484  1.00  0.00    -0.303 NA
ATOM     14  C   UNL     1     -17.430  -3.959  -7.468  1.00  0.00     0.088 C 
ATOM     15  C   UNL     1     -17.969  -5.864  -8.768  1.00  0.00     0.088 C 
ATOM     16  C   UNL     1     -16.775  -3.555  -8.772  1.00  0.00     0.056 C 
ATOM     17  C   UNL     1     -16.641  -5.888  -9.519  1.00  0.00     0.056 C 
ATOM     18  C   UNL     1     -15.834  -4.678  -9.162  1.00  0.00     0.092 C 
BRANCH  18  19
ATOM     19  O   UNL     1     -15.144  -4.992  -7.957  1.00  0.00    -0.385 OA
ATOM     20  H   UNL     1     -14.394  -5.569  -8.234  1.00  0.00     0.211 HD
ENDBRANCH  18  19
BRANCH  18  21
ATOM     21  C   UNL     1     -14.866  -4.250 -10.200  1.00  0.00    -0.016 A 
ATOM     22  C   UNL     1     -13.533  -4.671 -10.105  1.00  0.00     0.008 A 
ATOM     23  C   UNL     1     -15.172  -3.449 -11.269  1.00  0.00     0.008 A 
ATOM     24  C   UNL     1     -12.580  -4.306 -11.030  1.00  0.00     0.021 A 
ATOM     25  C   UNL     1     -14.203  -3.076 -12.210  1.00  0.00     0.021 A 
ATOM     26  C   UNL     1     -12.900  -3.500 -12.100  1.00  0.00     0.041 A 
ATOM     27  Cl  UNL     1     -11.676  -3.031 -13.288  1.00  0.00    -0.084 Cl
ENDBRANCH  18  21
ENDBRANCH  12  13
ENDBRANCH   1  12
TORSDOF 7
ENDMDL
MODEL 3
REMARK VINA RESULT:      -6.5      4.805      9.215
REMARK SMILES O=C(CCCN1CCC(O)(c2ccc(Cl)cc2)CC1)c1ccc(F)cc1
REMARK SMILES IDX 4 1 3 2 2 3 1 4 20 5 21 6 26 7 22 8 25 9 23 10 24 11 5 12
REMARK SMILES IDX 6 13 7 14 19 15 8 16 18 17 9 18 10 19 11 21 12 22 17 23
REMARK SMILES IDX 13 24 16 25 14 26 15 27
REMARK H PARENT 10 20
ROOT
ATOM      1  C   UNL     1     -20.218  -4.957  -6.420  1.00  0.00     0.024 C 
ENDROOT
BRANCH   1   2
ATOM      2  C   UNL     1     -19.444  -4.363  -5.270  1.00  0.00     0.082 C 
BRANCH   2   3
ATOM      3  C   UNL     1     -20.012  -4.686  -3.940  1.00  0.00     0.162 C 
ATOM      4  O   UNL     1     -20.205  -3.781  -3.091  1.00  0.00    -0.294 OA
BRANCH   3   5
ATOM      5  C   UNL     1     -20.367  -6.052  -3.563  1.00  0.00     0.018 A 
ATOM      6  C   UNL     1     -19.387  -7.041  -3.587  1.00  0.00     0.015 A 
ATOM      7  C   UNL     1     -21.632  -6.370  -3.191  1.00  0.00     0.015 A 
ATOM      8  C   UNL     1     -19.738  -8.324  -3.228  1.00  0.00     0.040 A 
ATOM      9  C   UNL     1     -21.958  -7.665  -2.836  1.00  0.00     0.040 A 
ATOM     10  C   UNL     1     -21.022  -8.676  -2.844  1.00  0.00     0.123 A 
ATOM     11  F   UNL     1     -21.328  -9.952  -2.498  1.00  0.00    -0.207 F 
ENDBRANCH   3   5
ENDBRANCH   2   3
ENDBRANCH   1   2
BRANCH   1  12
ATOM     12  C   UNL     1     -20.363  -4.104  -7.607  1.00  0.00     0.085 C 
BRANCH  12  13
ATOM     13  N   UNL     1     -19.272  -4.025  -8.484  1.00  0.00    -0.303 NA
ATOM     14  C   UNL     1     -18.931  -2.732  -8.943  1.00  0.00     0.088 C 
ATOM     15  C   UNL     1     -19.050  -5.049  -9.420  1.00  0.00     0.088 C 
ATOM     16  C   UNL     1     -17.863  -2.814 -10.012  1.00  0.00     0.056 C 
ATOM     17  C   UNL     1     -17.547  -5.216  -9.626  1.00  0.00     0.056 C 
ATOM     18  C   UNL     1     -16.876  -3.877  -9.573  1.00  0.00     0.092 C 
BRANCH  18  19
ATOM     19  O   UNL     1     -16.644  -3.594  -8.199  1.00  0.00    -0.385 OA
ATOM     20  H   UNL     1     -17.120  -4.303  -7.707  1.00  0.00     0.211 HD
ENDBRANCH  18  19
BRANCH  18  21
ATOM     21  C   UNL     1     -15.602  -3.793 -10.328  1.00  0.00    -0.016 A 
ATOM     22  C   UNL     1     -14.457  -4.405  -9.804  1.00  0.00     0.008 A 
ATOM     23  C   UNL     1     -15.446  -3.141 -11.523  1.00  0.00     0.008 A 
ATOM     24  C   UNL     1     -13.240  -4.360 -10.448  1.00  0.00     0.021 A 
ATOM     25  C   UNL     1     -14.209  -3.093 -12.179  1.00  0.00     0.021 A 
ATOM     26  C   UNL     1     -13.096  -3.701 -11.648  1.00  0.00     0.041 A 
ATOM     27  Cl  UNL     1     -11.533  -3.643 -12.476  1.00  0.00    -0.084 Cl
ENDBRANCH  18  21
ENDBRANCH  12  13
ENDBRANCH   1  12
TORSDOF 7
ENDMDL
MODEL 4
REMARK VINA RESULT:      -6.4      0.976      1.818
REMARK SMILES O=C(CCCN1CCC(O)(c2ccc(Cl)cc2)CC1)c1ccc(F)cc1
REMARK SMILES IDX 4 1 3 2 2 3 1 4 20 5 21 6 26 7 22 8 25 9 23 10 24 11 5 12
REMARK SMILES IDX 6 13 7 14 19 15 8 16 18 17 9 18 10 19 11 21 12 22 17 23
REMARK SMILES IDX 13 24 16 25 14 26 15 27
REMARK H PARENT 10 20
ROOT
ATOM      1  C   UNL     1     -14.133  -5.782  -8.132  1.00  0.00     0.024 C 
ENDROOT
BRANCH   1   2
ATOM      2  C   UNL     1     -13.833  -4.497  -8.864  1.00  0.00     0.082 C 
BRANCH   2   3
ATOM      3  C   UNL     1     -14.277  -4.500 -10.277  1.00  0.00     0.162 C 
ATOM      4  O   UNL     1     -13.715  -5.241 -11.121  1.00  0.00    -0.294 OA
BRANCH   3   5
ATOM      5  C   UNL     1     -15.372  -3.654 -10.745  1.00  0.00     0.018 A 
ATOM      6  C   UNL     1     -15.265  -3.024 -11.982  1.00  0.00     0.015 A 
ATOM      7  C   UNL     1     -16.488  -3.473  -9.994  1.00  0.00     0.015 A 
ATOM      8  C   UNL     1     -16.307  -2.230 -12.409  1.00  0.00     0.040 A 
ATOM      9  C   UNL     1     -17.518  -2.670 -10.445  1.00  0.00     0.040 A 
ATOM     10  C   UNL     1     -17.456  -2.028 -11.664  1.00  0.00     0.123 A 
ATOM     11  F   UNL     1     -18.460  -1.236 -12.119  1.00  0.00    -0.207 F 
ENDBRANCH   3   5
ENDBRANCH   2   3
ENDBRANCH   1   2
BRANCH   1  12
ATOM     12  C   UNL     1     -14.130  -5.702  -6.665  1.00  0.00     0.085 C 
BRANCH  12  13
ATOM     13  N   UNL     1     -15.372  -5.675  -6.016  1.00  0.00    -0.303 NA
ATOM     14  C   UNL     1     -16.509  -5.542  -6.845  1.00  0.00     0.088 C 
ATOM     15  C   UNL     1     -15.494  -5.052  -4.762  1.00  0.00     0.088 C 
ATOM     16  C   UNL     1     -17.755  -5.347  -6.008  1.00  0.00     0.056 C 
ATOM     17  C   UNL     1     -16.531  -5.804  -3.933  1.00  0.00     0.056 C 
ATOM     18  C   UNL     1     -17.642  -6.278  -4.818  1.00  0.00     0.092 C 
BRANCH  18  19
ATOM     19  O   UNL     1     -17.213  -7.513  -5.380  1.00  0.00    -0.385 OA
ATOM     20  H   UNL     1     -17.820  -8.192  -5.000  1.00  0.00     0.211 HD
ENDBRANCH  18  19
BRANCH  18  21
ATOM     21  C   UNL     1     -18.944  -6.461  -4.134  1.00  0.00    -0.016 A 
ATOM     22  C   UNL     1     -19.395  -7.758  -3.859  1.00  0.00     0.008 A 
ATOM     23  C   UNL     1     -19.770  -5.439  -3.745  1.00  0.00     0.008 A 
ATOM     24  C   UNL     1     -20.598  -8.000  -3.233  1.00  0.00     0.021 A 
ATOM     25  C   UNL     1     -20.994  -5.683  -3.108  1.00  0.00     0.021 A 
ATOM     26  C   UNL     1     -21.419  -6.964  -2.848  1.00  0.00     0.041 A 
ATOM     27  Cl  UNL     1     -22.964  -7.275  -2.043  1.00  0.00    -0.084 Cl
ENDBRANCH  18  21
ENDBRANCH  12  13
ENDBRANCH   1  12
TORSDOF 7
ENDMDL
MODEL 5
REMARK VINA RESULT:      -6.4      4.548      6.816
REMARK SMILES O=C(CCCN1CCC(O)(c2ccc(Cl)cc2)CC1)c1ccc(F)cc1
REMARK SMILES IDX 4 1 3 2 2 3 1 4 20 5 21 6 26 7 22 8 25 9 23 10 24 11 5 12
REMARK SMILES IDX 6 13 7 14 19 15 8 16 18 17 9 18 10 19 11 21 12 22 17 23
REMARK SMILES IDX 13 24 16 25 14 26 15 27
REMARK H PARENT 10 20
ROOT
ATOM      1  C   UNL     1     -14.893  -6.561  -5.641  1.00  0.00     0.024 C 
ENDROOT
BRANCH   1   2
ATOM      2  C   UNL     1     -15.066  -7.887  -6.340  1.00  0.00     0.082 C 
BRANCH   2   3
ATOM      3  C   UNL     1     -16.082  -8.762  -5.711  1.00  0.00     0.162 C 
ATOM      4  O   UNL     1     -17.185  -8.967  -6.275  1.00  0.00    -0.294 OA
BRANCH   3   5
ATOM      5  C   UNL     1     -15.850  -9.416  -4.426  1.00  0.00     0.018 A 
ATOM      6  C   UNL     1     -14.889 -10.421  -4.337  1.00  0.00     0.015 A 
ATOM      7  C   UNL     1     -16.553  -9.061  -3.321  1.00  0.00     0.015 A 
ATOM      8  C   UNL     1     -14.682 -11.027  -3.117  1.00  0.00     0.040 A 
ATOM      9  C   UNL     1     -16.326  -9.686  -2.110  1.00  0.00     0.040 A 
ATOM     10  C   UNL     1     -15.385 -10.685  -1.974  1.00  0.00     0.123 A 
ATOM     11  F   UNL     1     -15.152 -11.307  -0.791  1.00  0.00    -0.207 F 
ENDBRANCH   3   5
ENDBRANCH   2   3
ENDBRANCH   1   2
BRANCH   1  12
ATOM     12  C   UNL     1     -15.767  -5.474  -6.100  1.00  0.00     0.085 C 
BRANCH  12  13
ATOM     13  N   UNL     1     -17.091  -5.468  -5.637  1.00  0.00    -0.303 NA
ATOM     14  C   UNL     1     -18.016  -4.719  -6.398  1.00  0.00     0.088 C 
ATOM     15  C   UNL     1     -17.350  -5.477  -4.256  1.00  0.00     0.088 C 
ATOM     16  C   UNL     1     -19.353  -4.652  -5.692  1.00  0.00     0.056 C 
ATOM     17  C   UNL     1     -18.628  -6.270  -3.997  1.00  0.00     0.056 C 
ATOM     18  C   UNL     1     -19.611  -6.023  -5.100  1.00  0.00     0.092 C 
BRANCH  18  19
ATOM     19  O   UNL     1     -19.279  -6.925  -6.148  1.00  0.00    -0.385 OA
ATOM     20  H   UNL     1     -18.335  -6.734  -6.362  1.00  0.00     0.211 HD
ENDBRANCH  18  19
BRANCH  18  21
ATOM     21  C   UNL     1     -21.031  -6.199  -4.714  1.00  0.00    -0.016 A 
ATOM     22  C   UNL     1     -21.416  -5.944  -3.392  1.00  0.00     0.008 A 
ATOM     23  C   UNL     1     -22.025  -6.609  -5.565  1.00  0.00     0.008 A 
ATOM     24  C   UNL     1     -22.717  -6.094  -2.964  1.00  0.00     0.021 A 
ATOM     25  C   UNL     1     -23.348  -6.762  -5.131  1.00  0.00     0.021 A 
ATOM     26  C   UNL     1     -23.706  -6.507  -3.828  1.00  0.00     0.041 A 
ATOM     27  Cl  UNL     1     -25.377  -6.699  -3.279  1.00  0.00    -0.084 Cl
ENDBRANCH  18  21
ENDBRANCH  12  13
ENDBRANCH   1  12
TORSDOF 7
ENDMDL
MODEL 6
REMARK VINA RESULT:      -6.2      3.214      4.488
REMARK SMILES O=C(CCCN1CCC(O)(c2ccc(Cl)cc2)CC1)c1ccc(F)cc1
REMARK SMILES IDX 4 1 3 2 2 3 1 4 20 5 21 6 26 7 22 8 25 9 23 10 24 11 5 12
REMARK SMILES IDX 6 13 7 14 19 15 8 16 18 17 9 18 10 19 11 21 12 22 17 23
REMARK SMILES IDX 13 24 16 25 14 26 15 27
REMARK H PARENT 10 20
ROOT
ATOM      1  C   UNL     1     -18.460  -2.665 -10.295  1.00  0.00     0.024 C 
ENDROOT
BRANCH   1   2
ATOM      2  C   UNL     1     -17.465  -1.899 -11.132  1.00  0.00     0.082 C 
BRANCH   2   3
ATOM      3  C   UNL     1     -16.812  -2.719 -12.178  1.00  0.00     0.162 C 
ATOM      4  O   UNL     1     -17.495  -3.265 -13.080  1.00  0.00    -0.294 OA
BRANCH   3   5
ATOM      5  C   UNL     1     -15.367  -2.927 -12.208  1.00  0.00     0.018 A 
ATOM      6  C   UNL     1     -14.613  -2.325 -13.211  1.00  0.00     0.015 A 
ATOM      7  C   UNL     1     -14.750  -3.696 -11.275  1.00  0.00     0.015 A 
ATOM      8  C   UNL     1     -13.250  -2.530 -13.224  1.00  0.00     0.040 A 
ATOM      9  C   UNL     1     -13.381  -3.887 -11.311  1.00  0.00     0.040 A 
ATOM     10  C   UNL     1     -12.595  -3.310 -12.285  1.00  0.00     0.123 A 
ATOM     11  F   UNL     1     -11.251  -3.488 -12.334  1.00  0.00    -0.207 F 
ENDBRANCH   3   5
ENDBRANCH   2   3
ENDBRANCH   1   2
BRANCH   1  12
ATOM     12  C   UNL     1     -18.447  -2.375  -8.856  1.00  0.00     0.085 C 
BRANCH  12  13
ATOM     13  N   UNL     1     -18.309  -3.460  -7.978  1.00  0.00    -0.303 NA
ATOM     14  C   UNL     1     -17.565  -4.562  -8.457  1.00  0.00     0.088 C 
ATOM     15  C   UNL     1     -19.366  -3.806  -7.119  1.00  0.00     0.088 C 
ATOM     16  C   UNL     1     -17.649  -5.721  -7.488  1.00  0.00     0.056 C 
ATOM     17  C   UNL     1     -18.789  -4.339  -5.811  1.00  0.00     0.056 C 
ATOM     18  C   UNL     1     -17.553  -5.139  -6.091  1.00  0.00     0.092 C 
BRANCH  18  19
ATOM     19  O   UNL     1     -16.479  -4.210  -6.172  1.00  0.00    -0.385 OA
ATOM     20  H   UNL     1     -16.383  -4.011  -7.133  1.00  0.00     0.211 HD
ENDBRANCH  18  19
BRANCH  18  21
ATOM     21  C   UNL     1     -17.246  -6.179  -5.081  1.00  0.00    -0.016 A 
ATOM     22  C   UNL     1     -17.248  -7.526  -5.465  1.00  0.00     0.008 A 
ATOM     23  C   UNL     1     -16.960  -5.926  -3.764  1.00  0.00     0.008 A 
ATOM     24  C   UNL     1     -16.978  -8.543  -4.576  1.00  0.00     0.021 A 
ATOM     25  C   UNL     1     -16.686  -6.960  -2.859  1.00  0.00     0.021 A 
ATOM     26  C   UNL     1     -16.693  -8.276  -3.256  1.00  0.00     0.041 A 
ATOM     27  Cl  UNL     1     -16.346  -9.583  -2.115  1.00  0.00    -0.084 Cl
ENDBRANCH  18  21
ENDBRANCH  12  13
ENDBRANCH   1  12
TORSDOF 7
ENDMDL
MODEL 7
REMARK VINA RESULT:      -6.2      4.031      7.443
REMARK SMILES O=C(CCCN1CCC(O)(c2ccc(Cl)cc2)CC1)c1ccc(F)cc1
REMARK SMILES IDX 4 1 3 2 2 3 1 4 20 5 21 6 26 7 22 8 25 9 23 10 24 11 5 12
REMARK SMILES IDX 6 13 7 14 19 15 8 16 18 17 9 18 10 19 11 21 12 22 17 23
REMARK SMILES IDX 13 24 16 25 14 26 15 27
REMARK H PARENT 10 20
ROOT
ATOM      1  C   UNL     1     -15.766  -5.805  -5.444  1.00  0.00     0.024 C 
ENDROOT
BRANCH   1   2
ATOM      2  C   UNL     1     -16.400  -5.925  -4.080  1.00  0.00     0.082 C 
BRANCH   2   3
ATOM      3  C   UNL     1     -17.485  -6.930  -4.015  1.00  0.00     0.162 C 
ATOM      4  O   UNL     1     -17.257  -8.135  -4.289  1.00  0.00    -0.294 OA
BRANCH   3   5
ATOM      5  C   UNL     1     -18.850  -6.572  -3.636  1.00  0.00     0.018 A 
ATOM      6  C   UNL     1     -19.753  -7.580  -3.311  1.00  0.00     0.015 A 
ATOM      7  C   UNL     1     -19.248  -5.275  -3.595  1.00  0.00     0.015 A 
ATOM      8  C   UNL     1     -21.036  -7.225  -2.955  1.00  0.00     0.040 A 
ATOM      9  C   UNL     1     -20.541  -4.946  -3.235  1.00  0.00     0.040 A 
ATOM     10  C   UNL     1     -21.469  -5.910  -2.905  1.00  0.00     0.123 A 
ATOM     11  F   UNL     1     -22.742  -5.602  -2.549  1.00  0.00    -0.207 F 
ENDBRANCH   3   5
ENDBRANCH   2   3
ENDBRANCH   1   2
BRANCH   1  12
ATOM     12  C   UNL     1     -15.842  -4.480  -6.074  1.00  0.00     0.085 C 
BRANCH  12  13
ATOM     13  N   UNL     1     -16.824  -4.285  -7.056  1.00  0.00    -0.303 NA
ATOM     14  C   UNL     1     -17.582  -5.422  -7.416  1.00  0.00     0.088 C 
ATOM     15  C   UNL     1     -16.591  -3.387  -8.111  1.00  0.00     0.088 C 
ATOM     16  C   UNL     1     -18.470  -5.113  -8.602  1.00  0.00     0.056 C 
ATOM     17  C   UNL     1     -17.910  -2.727  -8.500  1.00  0.00     0.056 C 
ATOM     18  C   UNL     1     -19.027  -3.719  -8.388  1.00  0.00     0.092 C 
BRANCH  18  19
ATOM     19  O   UNL     1     -19.440  -3.712  -7.027  1.00  0.00    -0.385 OA
ATOM     20  H   UNL     1     -19.841  -2.823  -6.885  1.00  0.00     0.211 HD
ENDBRANCH  18  19
BRANCH  18  21
ATOM     21  C   UNL     1     -20.188  -3.448  -9.268  1.00  0.00    -0.016 A 
ATOM     22  C   UNL     1     -20.003  -3.431 -10.657  1.00  0.00     0.008 A 
ATOM     23  C   UNL     1     -21.461  -3.197  -8.826  1.00  0.00     0.008 A 
ATOM     24  C   UNL     1     -21.036  -3.178 -11.533  1.00  0.00     0.021 A 
ATOM     25  C   UNL     1     -22.512  -2.940  -9.715  1.00  0.00     0.021 A 
ATOM     26  C   UNL     1     -22.310  -2.928 -11.075  1.00  0.00     0.041 A 
ATOM     27  Cl  UNL     1     -23.636  -2.604 -12.200  1.00  0.00    -0.084 Cl
ENDBRANCH  18  21
ENDBRANCH  12  13
ENDBRANCH   1  12
TORSDOF 7
ENDMDL
MODEL 8
REMARK VINA RESULT:      -6.1      2.223      2.682
REMARK SMILES O=C(CCCN1CCC(O)(c2ccc(Cl)cc2)CC1)c1ccc(F)cc1
REMARK SMILES IDX 4 1 3 2 2 3 1 4 20 5 21 6 26 7 22 8 25 9 23 10 24 11 5 12
REMARK SMILES IDX 6 13 7 14 19 15 8 16 18 17 9 18 10 19 11 21 12 22 17 23
REMARK SMILES IDX 13 24 16 25 14 26 15 27
REMARK H PARENT 10 20
ROOT
ATOM      1  C   UNL     1     -14.154  -5.074  -7.248  1.00  0.00     0.024 C 
ENDROOT
BRANCH   1   2
ATOM      2  C   UNL     1     -14.996  -5.340  -8.472  1.00  0.00     0.082 C 
BRANCH   2   3
ATOM      3  C   UNL     1     -14.252  -5.991  -9.575  1.00  0.00     0.162 C 
ATOM      4  O   UNL     1     -14.246  -7.241  -9.691  1.00  0.00    -0.294 OA
BRANCH   3   5
ATOM      5  C   UNL     1     -13.503  -5.218 -10.564  1.00  0.00     0.018 A 
ATOM      6  C   UNL     1     -13.986  -3.975 -10.965  1.00  0.00     0.015 A 
ATOM      7  C   UNL     1     -12.348  -5.692 -11.095  1.00  0.00     0.015 A 
ATOM      8  C   UNL     1     -13.267  -3.260 -11.897  1.00  0.00     0.040 A 
ATOM      9  C   UNL     1     -11.647  -4.954 -12.030  1.00  0.00     0.040 A 
ATOM     10  C   UNL     1     -12.086  -3.719 -12.455  1.00  0.00     0.123 A 
ATOM     11  F   UNL     1     -11.409  -2.983 -13.372  1.00  0.00    -0.207 F 
ENDBRANCH   3   5
ENDBRANCH   2   3
ENDBRANCH   1   2
BRANCH   1  12
ATOM     12  C   UNL     1     -14.134  -6.141  -6.239  1.00  0.00     0.085 C 
BRANCH  12  13
ATOM     13  N   UNL     1     -15.310  -6.366  -5.510  1.00  0.00    -0.303 NA
ATOM     14  C   UNL     1     -15.567  -5.472  -4.446  1.00  0.00     0.088 C 
ATOM     15  C   UNL     1     -15.753  -7.680  -5.282  1.00  0.00     0.088 C 
ATOM     16  C   UNL     1     -16.762  -5.936  -3.640  1.00  0.00     0.056 C 
ATOM     17  C   UNL     1     -17.279  -7.694  -5.272  1.00  0.00     0.056 C 
ATOM     18  C   UNL     1     -17.793  -6.443  -4.629  1.00  0.00     0.092 C 
BRANCH  18  19
ATOM     19  O   UNL     1     -17.823  -5.448  -5.645  1.00  0.00    -0.385 OA
ATOM     20  H   UNL     1     -17.480  -5.897  -6.453  1.00  0.00     0.211 HD
ENDBRANCH  18  19
BRANCH  18  21
ATOM     21  C   UNL     1     -19.134  -6.571  -4.009  1.00  0.00    -0.016 A 
ATOM     22  C   UNL     1     -19.895  -5.416  -3.784  1.00  0.00     0.008 A 
ATOM     23  C   UNL     1     -19.704  -7.755  -3.621  1.00  0.00     0.008 A 
ATOM     24  C   UNL     1     -21.144  -5.461  -3.206  1.00  0.00     0.021 A 
ATOM     25  C   UNL     1     -20.975  -7.802  -3.033  1.00  0.00     0.021 A 
ATOM     26  C   UNL     1     -21.706  -6.657  -2.820  1.00  0.00     0.041 A 
ATOM     27  Cl  UNL     1     -23.311  -6.715  -2.079  1.00  0.00    -0.084 Cl
ENDBRANCH  18  21
ENDBRANCH  12  13
ENDBRANCH   1  12
TORSDOF 7
ENDMDL
MODEL 9
REMARK VINA RESULT:      -6.1      5.386      7.928
REMARK SMILES O=C(CCCN1CCC(O)(c2ccc(Cl)cc2)CC1)c1ccc(F)cc1
REMARK SMILES IDX 4 1 3 2 2 3 1 4 20 5 21 6 26 7 22 8 25 9 23 10 24 11 5 12
REMARK SMILES IDX 6 13 7 14 19 15 8 16 18 17 9 18 10 19 11 21 12 22 17 23
REMARK SMILES IDX 13 24 16 25 14 26 15 27
REMARK H PARENT 10 20
ROOT
ATOM      1  C   UNL     1     -16.500  -5.962  -4.260  1.00  0.00     0.024 C 
ENDROOT
BRANCH   1   2
ATOM      2  C   UNL     1     -17.037  -6.946  -3.251  1.00  0.00     0.082 C 
BRANCH   2   3
ATOM      3  C   UNL     1     -16.889  -8.361  -3.663  1.00  0.00     0.162 C 
ATOM      4  O   UNL     1     -16.646  -8.656  -4.859  1.00  0.00    -0.294 OA
BRANCH   3   5
ATOM      5  C   UNL     1     -17.016  -9.461  -2.710  1.00  0.00     0.018 A 
ATOM      6  C   UNL     1     -15.996  -9.683  -1.787  1.00  0.00     0.015 A 
ATOM      7  C   UNL     1     -18.108 -10.266  -2.710  1.00  0.00     0.015 A 
ATOM      8  C   UNL     1     -16.132 -10.724  -0.895  1.00  0.00     0.040 A 
ATOM      9  C   UNL     1     -18.218 -11.304  -1.804  1.00  0.00     0.040 A 
ATOM     10  C   UNL     1     -17.235 -11.561  -0.873  1.00  0.00     0.123 A 
ATOM     11  F   UNL     1     -17.330 -12.577   0.023  1.00  0.00    -0.207 F 
ENDBRANCH   3   5
ENDBRANCH   2   3
ENDBRANCH   1   2
BRANCH   1  12
ATOM     12  C   UNL     1     -17.501  -5.291  -5.100  1.00  0.00     0.085 C 
BRANCH  12  13
ATOM     13  N   UNL     1     -18.852  -5.562  -4.838  1.00  0.00    -0.303 NA
ATOM     14  C   UNL     1     -19.583  -6.171  -5.883  1.00  0.00     0.088 C 
ATOM     15  C   UNL     1     -19.603  -4.676  -4.047  1.00  0.00     0.088 C 
ATOM     16  C   UNL     1     -21.054  -6.238  -5.533  1.00  0.00     0.056 C 
ATOM     17  C   UNL     1     -20.625  -5.474  -3.241  1.00  0.00     0.056 C 
ATOM     18  C   UNL     1     -21.144  -6.611  -4.066  1.00  0.00     0.092 C 
BRANCH  18  19
ATOM     19  O   UNL     1     -20.213  -7.677  -3.918  1.00  0.00    -0.385 OA
ATOM     20  H   UNL     1     -20.208  -7.881  -2.953  1.00  0.00     0.211 HD
ENDBRANCH  18  19
BRANCH  18  21
ATOM     21  C   UNL     1     -22.503  -7.074  -3.698  1.00  0.00    -0.016 A 
ATOM     22  C   UNL     1     -22.657  -7.941  -2.608  1.00  0.00     0.008 A 
ATOM     23  C   UNL     1     -23.652  -6.722  -4.357  1.00  0.00     0.008 A 
ATOM     24  C   UNL     1     -23.889  -8.415  -2.215  1.00  0.00     0.021 A 
ATOM     25  C   UNL     1     -24.906  -7.204  -3.959  1.00  0.00     0.021 A 
ATOM     26  C   UNL     1     -25.036  -8.053  -2.886  1.00  0.00     0.041 A 
ATOM     27  Cl  UNL     1     -26.619  -8.662  -2.381  1.00  0.00    -0.084 Cl
ENDBRANCH  18  21
ENDBRANCH  12  13
ENDBRANCH   1  12
TORSDOF 7
ENDMDL
