MODEL 1
REMARK VINA RESULT:      -7.7      0.000      0.000
REMARK SMILES O=C(CCCN1CCC(O)(c2ccc(Cl)cc2)CC1)c1ccc(F)cc1
REMARK SMILES IDX 4 1 3 2 2 3 1 4 20 5 21 6 26 7 22 8 25 9 23 10 24 11 5 12
REMARK SMILES IDX 6 13 7 14 19 15 8 16 18 17 9 18 10 19 11 21 12 22 17 23
REMARK SMILES IDX 13 24 16 25 14 26 15 27
REMARK H PARENT 10 20
ROOT
ATOM      1  C   UNL     1     139.039 140.359 168.929  1.00  0.00     0.024 C 
ENDROOT
BRANCH   1   2
ATOM      2  C   UNL     1     139.978 139.877 167.852  1.00  0.00     0.082 C 
BRANCH   2   3
ATOM      3  C   UNL     1     139.563 140.265 166.484  1.00  0.00     0.162 C 
ATOM      4  O   UNL     1     138.346 140.360 166.188  1.00  0.00    -0.294 OA
BRANCH   3   5
ATOM      5  C   UNL     1     140.536 140.551 165.433  1.00  0.00     0.018 A 
ATOM      6  C   UNL     1     140.105 141.144 164.248  1.00  0.00     0.015 A 
ATOM      7  C   UNL     1     141.849 140.249 165.592  1.00  0.00     0.015 A 
ATOM      8  C   UNL     1     141.036 141.407 163.268  1.00  0.00     0.040 A 
ATOM      9  C   UNL     1     142.763 140.523 164.592  1.00  0.00     0.040 A 
ATOM     10  C   UNL     1     142.382 141.109 163.404  1.00  0.00     0.123 A 
ATOM     11  F   UNL     1     143.268 141.384 162.413  1.00  0.00    -0.207 F 
ENDBRANCH   3   5
ENDBRANCH   2   3
ENDBRANCH   1   2
BRANCH   1  12
ATOM     12  C   UNL     1     139.400 141.629 169.574  1.00  0.00     0.085 C 
BRANCH  12  13
ATOM     13  N   UNL     1     140.433 142.379 168.995  1.00  0.00    -0.303 NA
ATOM     14  C   UNL     1     141.533 142.678 169.830  1.00  0.00     0.088 C 
ATOM     15  C   UNL     1     140.131 143.379 168.056  1.00  0.00     0.088 C 
ATOM     16  C   UNL     1     142.480 143.635 169.138  1.00  0.00     0.056 C 
ATOM     17  C   UNL     1     141.253 143.445 167.023  1.00  0.00     0.056 C 
ATOM     18  C   UNL     1     142.571 143.200 167.689  1.00  0.00     0.092 C 
BRANCH  18  19
ATOM     19  O   UNL     1     142.734 141.788 167.758  1.00  0.00    -0.385 OA
ATOM     20  H   UNL     1     142.029 141.478 168.373  1.00  0.00     0.211 HD
ENDBRANCH  18  19
BRANCH  18  21
ATOM     21  C   UNL     1     143.735 143.809 167.003  1.00  0.00    -0.016 A 
ATOM     22  C   UNL     1     144.659 142.977 166.358  1.00  0.00     0.008 A 
ATOM     23  C   UNL     1     143.995 145.153 166.952  1.00  0.00     0.008 A 
ATOM     24  C   UNL     1     145.767 143.474 165.707  1.00  0.00     0.021 A 
ATOM     25  C   UNL     1     145.121 145.661 166.291  1.00  0.00     0.021 A 
ATOM     26  C   UNL     1     146.016 144.828 165.664  1.00  0.00     0.041 A 
ATOM     27  Cl  UNL     1     147.438 145.467 164.827  1.00  0.00    -0.084 Cl
ENDBRANCH  18  21
ENDBRANCH  12  13
ENDBRANCH   1  12
TORSDOF 7
ENDMDL
MODEL 2
REMARK VINA RESULT:      -7.7      2.927      5.732
REMARK SMILES O=C(CCCN1CCC(O)(c2ccc(Cl)cc2)CC1)c1ccc(F)cc1
REMARK SMILES IDX 4 1 3 2 2 3 1 4 20 5 21 6 26 7 22 8 25 9 23 10 24 11 5 12
REMARK SMILES IDX 6 13 7 14 19 15 8 16 18 17 9 18 10 19 11 21 12 22 17 23
REMARK SMILES IDX 13 24 16 25 14 26 15 27
REMARK H PARENT 10 20
ROOT
ATOM      1  C   UNL     1     141.899 145.135 168.557  1.00  0.00     0.024 C 
ENDROOT
BRANCH   1   2
ATOM      2  C   UNL     1     142.425 145.864 167.345  1.00  0.00     0.082 C 
BRANCH   2   3
ATOM      3  C   UNL     1     143.801 146.384 167.514  1.00  0.00     0.162 C 
ATOM      4  O   UNL     1     144.034 147.329 168.308  1.00  0.00    -0.294 OA
BRANCH   3   5
ATOM      5  C   UNL     1     144.933 145.830 166.775  1.00  0.00     0.018 A 
ATOM      6  C   UNL     1     146.226 146.219 167.118  1.00  0.00     0.015 A 
ATOM      7  C   UNL     1     144.745 144.946 165.764  1.00  0.00     0.015 A 
ATOM      8  C   UNL     1     147.282 145.686 166.411  1.00  0.00     0.040 A 
ATOM      9  C   UNL     1     145.822 144.427 165.070  1.00  0.00     0.040 A 
ATOM     10  C   UNL     1     147.119 144.782 165.375  1.00  0.00     0.123 A 
ATOM     11  F   UNL     1     148.186 144.282 164.702  1.00  0.00    -0.207 F 
ENDBRANCH   3   5
ENDBRANCH   2   3
ENDBRANCH   1   2
BRANCH   1  12
ATOM     12  C   UNL     1     141.149 143.902 168.289  1.00  0.00     0.085 C 
BRANCH  12  13
ATOM     13  N   UNL     1     141.798 142.894 167.562  1.00  0.00    -0.303 NA
ATOM     14  C   UNL     1     140.985 142.117 166.706  1.00  0.00     0.088 C 
ATOM     15  C   UNL     1     142.866 142.188 168.143  1.00  0.00     0.088 C 
ATOM     16  C   UNL     1     141.774 140.962 166.128  1.00  0.00     0.056 C 
ATOM     17  C   UNL     1     143.874 141.830 167.054  1.00  0.00     0.056 C 
ATOM     18  C   UNL     1     143.152 141.494 165.786  1.00  0.00     0.092 C 
BRANCH  18  19
ATOM     19  O   UNL     1     142.897 142.727 165.125  1.00  0.00    -0.385 OA
ATOM     20  H   UNL     1     143.784 143.140 165.001  1.00  0.00     0.211 HD
ENDBRANCH  18  19
BRANCH  18  21
ATOM     21  C   UNL     1     143.886 140.579 164.879  1.00  0.00    -0.016 A 
ATOM     22  C   UNL     1     145.229 140.846 164.581  1.00  0.00     0.008 A 
ATOM     23  C   UNL     1     143.344 139.469 164.285  1.00  0.00     0.008 A 
ATOM     24  C   UNL     1     145.968 140.042 163.742  1.00  0.00     0.021 A 
ATOM     25  C   UNL     1     144.095 138.651 163.430  1.00  0.00     0.021 A 
ATOM     26  C   UNL     1     145.412 138.930 163.151  1.00  0.00     0.041 A 
ATOM     27  Cl  UNL     1     146.362 137.898 162.072  1.00  0.00    -0.084 Cl
ENDBRANCH  18  21
ENDBRANCH  12  13
ENDBRANCH   1  12
TORSDOF 7
ENDMDL
MODEL 3
REMARK VINA RESULT:      -7.4      0.401      1.363
REMARK SMILES O=C(CCCN1CCC(O)(c2ccc(Cl)cc2)CC1)c1ccc(F)cc1
REMARK SMILES IDX 4 1 3 2 2 3 1 4 20 5 21 6 26 7 22 8 25 9 23 10 24 11 5 12
REMARK SMILES IDX 6 13 7 14 19 15 8 16 18 17 9 18 10 19 11 21 12 22 17 23
REMARK SMILES IDX 13 24 16 25 14 26 15 27
REMARK H PARENT 10 20
ROOT
ATOM      1  C   UNL     1     139.217 140.686 169.367  1.00  0.00     0.024 C 
ENDROOT
BRANCH   1   2
ATOM      2  C   UNL     1     139.995 140.035 168.250  1.00  0.00     0.082 C 
BRANCH   2   3
ATOM      3  C   UNL     1     139.424 140.282 166.905  1.00  0.00     0.162 C 
ATOM      4  O   UNL     1     138.182 140.262 166.726  1.00  0.00    -0.294 OA
BRANCH   3   5
ATOM      5  C   UNL     1     140.269 140.555 165.745  1.00  0.00     0.018 A 
ATOM      6  C   UNL     1     141.599 140.142 165.760  1.00  0.00     0.015 A 
ATOM      7  C   UNL     1     139.780 141.202 164.658  1.00  0.00     0.015 A 
ATOM      8  C   UNL     1     142.382 140.407 164.657  1.00  0.00     0.040 A 
ATOM      9  C   UNL     1     140.587 141.456 163.566  1.00  0.00     0.040 A 
ATOM     10  C   UNL     1     141.909 141.065 163.535  1.00  0.00     0.123 A 
ATOM     11  F   UNL     1     142.714 141.308 162.469  1.00  0.00    -0.207 F 
ENDBRANCH   3   5
ENDBRANCH   2   3
ENDBRANCH   1   2
BRANCH   1  12
ATOM     12  C   UNL     1     139.313 142.149 169.449  1.00  0.00     0.085 C 
BRANCH  12  13
ATOM     13  N   UNL     1     140.409 142.763 168.825  1.00  0.00    -0.303 NA
ATOM     14  C   UNL     1     141.506 143.079 169.658  1.00  0.00     0.088 C 
ATOM     15  C   UNL     1     140.199 143.671 167.774  1.00  0.00     0.088 C 
ATOM     16  C   UNL     1     142.532 143.892 168.898  1.00  0.00     0.056 C 
ATOM     17  C   UNL     1     141.347 143.551 166.777  1.00  0.00     0.056 C 
ATOM     18  C   UNL     1     142.629 143.295 167.508  1.00  0.00     0.092 C 
BRANCH  18  19
ATOM     19  O   UNL     1     142.694 141.892 167.733  1.00  0.00    -0.385 OA
ATOM     20  H   UNL     1     143.031 141.795 168.655  1.00  0.00     0.211 HD
ENDBRANCH  18  19
BRANCH  18  21
ATOM     21  C   UNL     1     143.849 143.748 166.798  1.00  0.00    -0.016 A 
ATOM     22  C   UNL     1     144.220 145.097 166.870  1.00  0.00     0.008 A 
ATOM     23  C   UNL     1     144.662 142.938 166.048  1.00  0.00     0.008 A 
ATOM     24  C   UNL     1     145.336 145.588 166.230  1.00  0.00     0.021 A 
ATOM     25  C   UNL     1     145.797 143.436 165.395  1.00  0.00     0.021 A 
ATOM     26  C   UNL     1     146.144 144.763 165.479  1.00  0.00     0.041 A 
ATOM     27  Cl  UNL     1     147.578 145.393 164.657  1.00  0.00    -0.084 Cl
ENDBRANCH  18  21
ENDBRANCH  12  13
ENDBRANCH   1  12
TORSDOF 7
ENDMDL
MODEL 4
REMARK VINA RESULT:      -7.4      2.543      4.352
REMARK SMILES O=C(CCCN1CCC(O)(c2ccc(Cl)cc2)CC1)c1ccc(F)cc1
REMARK SMILES IDX 4 1 3 2 2 3 1 4 20 5 21 6 26 7 22 8 25 9 23 10 24 11 5 12
REMARK SMILES IDX 6 13 7 14 19 15 8 16 18 17 9 18 10 19 11 21 12 22 17 23
REMARK SMILES IDX 13 24 16 25 14 26 15 27
REMARK H PARENT 10 20
ROOT
ATOM      1  C   UNL     1     141.270 139.881 163.298  1.00  0.00     0.024 C 
ENDROOT
BRANCH   1   2
ATOM      2  C   UNL     1     140.869 141.290 163.658  1.00  0.00     0.082 C 
BRANCH   2   3
ATOM      3  C   UNL     1     139.772 141.362 164.650  1.00  0.00     0.162 C 
ATOM      4  O   UNL     1     138.573 141.284 164.283  1.00  0.00    -0.294 OA
BRANCH   3   5
ATOM      5  C   UNL     1     140.031 141.524 166.079  1.00  0.00     0.018 A 
ATOM      6  C   UNL     1     140.003 140.405 166.907  1.00  0.00     0.015 A 
ATOM      7  C   UNL     1     140.297 142.744 166.609  1.00  0.00     0.015 A 
ATOM      8  C   UNL     1     140.250 140.575 168.252  1.00  0.00     0.040 A 
ATOM      9  C   UNL     1     140.540 142.888 167.962  1.00  0.00     0.040 A 
ATOM     10  C   UNL     1     140.524 141.808 168.819  1.00  0.00     0.123 A 
ATOM     11  F   UNL     1     140.761 141.934 170.150  1.00  0.00    -0.207 F 
ENDBRANCH   3   5
ENDBRANCH   2   3
ENDBRANCH   1   2
BRANCH   1  12
ATOM     12  C   UNL     1     142.603 139.457 163.746  1.00  0.00     0.085 C 
BRANCH  12  13
ATOM     13  N   UNL     1     143.421 140.424 164.347  1.00  0.00    -0.303 NA
ATOM     14  C   UNL     1     144.703 140.600 163.778  1.00  0.00     0.088 C 
ATOM     15  C   UNL     1     143.375 140.614 165.739  1.00  0.00     0.088 C 
ATOM     16  C   UNL     1     145.537 141.534 164.628  1.00  0.00     0.056 C 
ATOM     17  C   UNL     1     143.614 142.089 166.047  1.00  0.00     0.056 C 
ATOM     18  C   UNL     1     144.621 142.650 165.091  1.00  0.00     0.092 C 
BRANCH  18  19
ATOM     19  O   UNL     1     143.905 143.023 163.920  1.00  0.00    -0.385 OA
ATOM     20  H   UNL     1     143.176 142.363 163.843  1.00  0.00     0.211 HD
ENDBRANCH  18  19
BRANCH  18  21
ATOM     21  C   UNL     1     145.385 143.812 165.606  1.00  0.00    -0.016 A 
ATOM     22  C   UNL     1     146.737 143.945 165.266  1.00  0.00     0.008 A 
ATOM     23  C   UNL     1     144.867 144.788 166.416  1.00  0.00     0.008 A 
ATOM     24  C   UNL     1     147.507 144.995 165.715  1.00  0.00     0.021 A 
ATOM     25  C   UNL     1     145.649 145.857 166.874  1.00  0.00     0.021 A 
ATOM     26  C   UNL     1     146.975 145.970 166.529  1.00  0.00     0.041 A 
ATOM     27  Cl  UNL     1     147.964 147.318 167.105  1.00  0.00    -0.084 Cl
ENDBRANCH  18  21
ENDBRANCH  12  13
ENDBRANCH   1  12
TORSDOF 7
ENDMDL
MODEL 5
REMARK VINA RESULT:      -7.2      1.143      1.544
REMARK SMILES O=C(CCCN1CCC(O)(c2ccc(Cl)cc2)CC1)c1ccc(F)cc1
REMARK SMILES IDX 4 1 3 2 2 3 1 4 20 5 21 6 26 7 22 8 25 9 23 10 24 11 5 12
REMARK SMILES IDX 6 13 7 14 19 15 8 16 18 17 9 18 10 19 11 21 12 22 17 23
REMARK SMILES IDX 13 24 16 25 14 26 15 27
REMARK H PARENT 10 20
ROOT
ATOM      1  C   UNL     1     139.185 141.165 169.526  1.00  0.00     0.024 C 
ENDROOT
BRANCH   1   2
ATOM      2  C   UNL     1     139.012 140.376 168.252  1.00  0.00     0.082 C 
BRANCH   2   3
ATOM      3  C   UNL     1     140.261 140.233 167.468  1.00  0.00     0.162 C 
ATOM      4  O   UNL     1     141.329 139.883 168.026  1.00  0.00    -0.294 OA
BRANCH   3   5
ATOM      5  C   UNL     1     140.304 140.490 166.030  1.00  0.00     0.018 A 
ATOM      6  C   UNL     1     141.506 140.326 165.345  1.00  0.00     0.015 A 
ATOM      7  C   UNL     1     139.196 140.885 165.354  1.00  0.00     0.015 A 
ATOM      8  C   UNL     1     141.529 140.571 163.990  1.00  0.00     0.040 A 
ATOM      9  C   UNL     1     139.247 141.126 163.995  1.00  0.00     0.040 A 
ATOM     10  C   UNL     1     140.413 140.975 163.276  1.00  0.00     0.123 A 
ATOM     11  F   UNL     1     140.479 141.208 161.940  1.00  0.00    -0.207 F 
ENDBRANCH   3   5
ENDBRANCH   2   3
ENDBRANCH   1   2
BRANCH   1  12
ATOM     12  C   UNL     1     139.202 142.626 169.380  1.00  0.00     0.085 C 
BRANCH  12  13
ATOM     13  N   UNL     1     140.295 143.198 168.713  1.00  0.00    -0.303 NA
ATOM     14  C   UNL     1     141.262 143.832 169.526  1.00  0.00     0.088 C 
ATOM     15  C   UNL     1     140.113 143.797 167.456  1.00  0.00     0.088 C 
ATOM     16  C   UNL     1     142.281 144.554 168.672  1.00  0.00     0.056 C 
ATOM     17  C   UNL     1     141.368 143.578 166.615  1.00  0.00     0.056 C 
ATOM     18  C   UNL     1     142.583 143.658 167.488  1.00  0.00     0.092 C 
BRANCH  18  19
ATOM     19  O   UNL     1     142.756 142.367 168.060  1.00  0.00    -0.385 OA
ATOM     20  H   UNL     1     142.056 142.297 168.751  1.00  0.00     0.211 HD
ENDBRANCH  18  19
BRANCH  18  21
ATOM     21  C   UNL     1     143.823 144.069 166.787  1.00  0.00    -0.016 A 
ATOM     22  C   UNL     1     144.441 143.169 165.908  1.00  0.00     0.008 A 
ATOM     23  C   UNL     1     144.436 145.285 166.936  1.00  0.00     0.008 A 
ATOM     24  C   UNL     1     145.598 143.482 165.230  1.00  0.00     0.021 A 
ATOM     25  C   UNL     1     145.614 145.605 166.247  1.00  0.00     0.021 A 
ATOM     26  C   UNL     1     146.205 144.708 165.389  1.00  0.00     0.041 A 
ATOM     27  Cl  UNL     1     147.691 145.111 164.517  1.00  0.00    -0.084 Cl
ENDBRANCH  18  21
ENDBRANCH  12  13
ENDBRANCH   1  12
TORSDOF 7
ENDMDL
MODEL 6
REMARK VINA RESULT:      -7.1      2.529      4.492
REMARK SMILES O=C(CCCN1CCC(O)(c2ccc(Cl)cc2)CC1)c1ccc(F)cc1
REMARK SMILES IDX 4 1 3 2 2 3 1 4 20 5 21 6 26 7 22 8 25 9 23 10 24 11 5 12
REMARK SMILES IDX 6 13 7 14 19 15 8 16 18 17 9 18 10 19 11 21 12 22 17 23
REMARK SMILES IDX 13 24 16 25 14 26 15 27
REMARK H PARENT 10 20
ROOT
ATOM      1  C   UNL     1     140.658 139.853 164.576  1.00  0.00     0.024 C 
ENDROOT
BRANCH   1   2
ATOM      2  C   UNL     1     140.438 141.182 165.256  1.00  0.00     0.082 C 
BRANCH   2   3
ATOM      3  C   UNL     1     139.889 141.065 166.627  1.00  0.00     0.162 C 
ATOM      4  O   UNL     1     138.780 140.510 166.826  1.00  0.00    -0.294 OA
BRANCH   3   5
ATOM      5  C   UNL     1     140.603 141.581 167.792  1.00  0.00     0.018 A 
ATOM      6  C   UNL     1     139.936 142.418 168.683  1.00  0.00     0.015 A 
ATOM      7  C   UNL     1     141.901 141.259 168.019  1.00  0.00     0.015 A 
ATOM      8  C   UNL     1     140.624 142.896 169.777  1.00  0.00     0.040 A 
ATOM      9  C   UNL     1     142.568 141.753 169.124  1.00  0.00     0.040 A 
ATOM     10  C   UNL     1     141.949 142.584 170.033  1.00  0.00     0.123 A 
ATOM     11  F   UNL     1     142.591 143.076 171.122  1.00  0.00    -0.207 F 
ENDBRANCH   3   5
ENDBRANCH   2   3
ENDBRANCH   1   2
BRANCH   1  12
ATOM     12  C   UNL     1     141.996 139.635 164.010  1.00  0.00     0.085 C 
BRANCH  12  13
ATOM     13  N   UNL     1     142.981 140.594 164.289  1.00  0.00    -0.303 NA
ATOM     14  C   UNL     1     143.035 141.706 163.419  1.00  0.00     0.088 C 
ATOM     15  C   UNL     1     144.230 140.190 164.790  1.00  0.00     0.088 C 
ATOM     16  C   UNL     1     144.248 142.560 163.724  1.00  0.00     0.056 C 
ATOM     17  C   UNL     1     144.753 141.261 165.743  1.00  0.00     0.056 C 
ATOM     18  C   UNL     1     144.380 142.619 165.233  1.00  0.00     0.092 C 
BRANCH  18  19
ATOM     19  O   UNL     1     143.057 142.875 165.691  1.00  0.00    -0.385 OA
ATOM     20  H   UNL     1     142.468 142.447 165.025  1.00  0.00     0.211 HD
ENDBRANCH  18  19
BRANCH  18  21
ATOM     21  C   UNL     1     145.283 143.712 165.665  1.00  0.00    -0.016 A 
ATOM     22  C   UNL     1     144.776 144.736 166.476  1.00  0.00     0.008 A 
ATOM     23  C   UNL     1     146.606 143.813 165.321  1.00  0.00     0.008 A 
ATOM     24  C   UNL     1     145.557 145.785 166.908  1.00  0.00     0.021 A 
ATOM     25  C   UNL     1     147.401 144.880 165.759  1.00  0.00     0.021 A 
ATOM     26  C   UNL     1     146.885 145.875 166.555  1.00  0.00     0.041 A 
ATOM     27  Cl  UNL     1     147.888 147.222 167.110  1.00  0.00    -0.084 Cl
ENDBRANCH  18  21
ENDBRANCH  12  13
ENDBRANCH   1  12
TORSDOF 7
ENDMDL
MODEL 7
REMARK VINA RESULT:      -7.1      2.523      4.456
REMARK SMILES O=C(CCCN1CCC(O)(c2ccc(Cl)cc2)CC1)c1ccc(F)cc1
REMARK SMILES IDX 4 1 3 2 2 3 1 4 20 5 21 6 26 7 22 8 25 9 23 10 24 11 5 12
REMARK SMILES IDX 6 13 7 14 19 15 8 16 18 17 9 18 10 19 11 21 12 22 17 23
REMARK SMILES IDX 13 24 16 25 14 26 15 27
REMARK H PARENT 10 20
ROOT
ATOM      1  C   UNL     1     140.726 139.894 164.581  1.00  0.00     0.024 C 
ENDROOT
BRANCH   1   2
ATOM      2  C   UNL     1     140.445 141.216 165.250  1.00  0.00     0.082 C 
BRANCH   2   3
ATOM      3  C   UNL     1     139.873 141.085 166.610  1.00  0.00     0.162 C 
ATOM      4  O   UNL     1     138.770 140.512 166.787  1.00  0.00    -0.294 OA
BRANCH   3   5
ATOM      5  C   UNL     1     140.557 141.609 167.790  1.00  0.00     0.018 A 
ATOM      6  C   UNL     1     141.872 141.227 168.040  1.00  0.00     0.015 A 
ATOM      7  C   UNL     1     139.932 142.460 168.643  1.00  0.00     0.015 A 
ATOM      8  C   UNL     1     142.503 141.731 169.157  1.00  0.00     0.040 A 
ATOM      9  C   UNL     1     140.587 142.950 169.756  1.00  0.00     0.040 A 
ATOM     10  C   UNL     1     141.889 142.600 170.043  1.00  0.00     0.123 A 
ATOM     11  F   UNL     1     142.545 143.074 171.133  1.00  0.00    -0.207 F 
ENDBRANCH   3   5
ENDBRANCH   2   3
ENDBRANCH   1   2
BRANCH   1  12
ATOM     12  C   UNL     1     142.095 139.702 164.086  1.00  0.00     0.085 C 
BRANCH  12  13
ATOM     13  N   UNL     1     143.038 140.695 164.388  1.00  0.00    -0.303 NA
ATOM     14  C   UNL     1     143.070 141.811 163.523  1.00  0.00     0.088 C 
ATOM     15  C   UNL     1     144.290 140.335 164.916  1.00  0.00     0.088 C 
ATOM     16  C   UNL     1     144.243 142.708 163.856  1.00  0.00     0.056 C 
ATOM     17  C   UNL     1     144.751 141.422 165.883  1.00  0.00     0.056 C 
ATOM     18  C   UNL     1     144.340 142.767 165.368  1.00  0.00     0.092 C 
BRANCH  18  19
ATOM     19  O   UNL     1     143.000 142.973 165.797  1.00  0.00    -0.385 OA
ATOM     20  H   UNL     1     142.579 142.081 165.760  1.00  0.00     0.211 HD
ENDBRANCH  18  19
BRANCH  18  21
ATOM     21  C   UNL     1     145.193 143.891 165.822  1.00  0.00    -0.016 A 
ATOM     22  C   UNL     1     146.539 143.926 165.435  1.00  0.00     0.008 A 
ATOM     23  C   UNL     1     144.766 144.923 166.616  1.00  0.00     0.008 A 
ATOM     24  C   UNL     1     147.390 144.937 165.827  1.00  0.00     0.021 A 
ATOM     25  C   UNL     1     145.630 145.952 167.015  1.00  0.00     0.021 A 
ATOM     26  C   UNL     1     146.947 145.968 166.625  1.00  0.00     0.041 A 
ATOM     27  Cl  UNL     1     148.039 147.266 167.127  1.00  0.00    -0.084 Cl
ENDBRANCH  18  21
ENDBRANCH  12  13
ENDBRANCH   1  12
TORSDOF 7
ENDMDL
MODEL 8
REMARK VINA RESULT:      -7.1      2.996      5.771
REMARK SMILES O=C(CCCN1CCC(O)(c2ccc(Cl)cc2)CC1)c1ccc(F)cc1
REMARK SMILES IDX 4 1 3 2 2 3 1 4 20 5 21 6 26 7 22 8 25 9 23 10 24 11 5 12
REMARK SMILES IDX 6 13 7 14 19 15 8 16 18 17 9 18 10 19 11 21 12 22 17 23
REMARK SMILES IDX 13 24 16 25 14 26 15 27
REMARK H PARENT 10 20
ROOT
ATOM      1  C   UNL     1     142.062 144.931 168.517  1.00  0.00     0.024 C 
ENDROOT
BRANCH   1   2
ATOM      2  C   UNL     1     142.397 145.935 167.442  1.00  0.00     0.082 C 
BRANCH   2   3
ATOM      3  C   UNL     1     143.757 146.508 167.567  1.00  0.00     0.162 C 
ATOM      4  O   UNL     1     143.968 147.498 168.310  1.00  0.00    -0.294 OA
BRANCH   3   5
ATOM      5  C   UNL     1     144.898 145.956 166.840  1.00  0.00     0.018 A 
ATOM      6  C   UNL     1     144.671 145.128 165.744  1.00  0.00     0.015 A 
ATOM      7  C   UNL     1     146.171 146.237 167.216  1.00  0.00     0.015 A 
ATOM      8  C   UNL     1     145.758 144.616 165.069  1.00  0.00     0.040 A 
ATOM      9  C   UNL     1     147.244 145.709 166.522  1.00  0.00     0.040 A 
ATOM     10  C   UNL     1     147.067 144.886 165.431  1.00  0.00     0.123 A 
ATOM     11  F   UNL     1     148.110 144.361 164.740  1.00  0.00    -0.207 F 
ENDBRANCH   3   5
ENDBRANCH   2   3
ENDBRANCH   1   2
BRANCH   1  12
ATOM     12  C   UNL     1     141.307 143.750 168.081  1.00  0.00     0.085 C 
BRANCH  12  13
ATOM     13  N   UNL     1     142.003 142.763 167.367  1.00  0.00    -0.303 NA
ATOM     14  C   UNL     1     141.249 142.019 166.432  1.00  0.00     0.088 C 
ATOM     15  C   UNL     1     143.027 142.035 167.997  1.00  0.00     0.088 C 
ATOM     16  C   UNL     1     142.075 140.880 165.872  1.00  0.00     0.056 C 
ATOM     17  C   UNL     1     144.107 141.708 166.969  1.00  0.00     0.056 C 
ATOM     18  C   UNL     1     143.474 141.417 165.643  1.00  0.00     0.092 C 
BRANCH  18  19
ATOM     19  O   UNL     1     143.268 142.673 165.008  1.00  0.00    -0.385 OA
ATOM     20  H   UNL     1     142.323 142.666 164.726  1.00  0.00     0.211 HD
ENDBRANCH  18  19
BRANCH  18  21
ATOM     21  C   UNL     1     144.267 140.530 164.760  1.00  0.00    -0.016 A 
ATOM     22  C   UNL     1     144.036 140.558 163.378  1.00  0.00     0.008 A 
ATOM     23  C   UNL     1     145.228 139.654 165.193  1.00  0.00     0.008 A 
ATOM     24  C   UNL     1     144.732 139.757 162.500  1.00  0.00     0.021 A 
ATOM     25  C   UNL     1     145.936 138.837 164.302  1.00  0.00     0.021 A 
ATOM     26  C   UNL     1     145.694 138.880 162.949  1.00  0.00     0.041 A 
ATOM     27  Cl  UNL     1     146.588 137.851 161.822  1.00  0.00    -0.084 Cl
ENDBRANCH  18  21
ENDBRANCH  12  13
ENDBRANCH   1  12
TORSDOF 7
ENDMDL
MODEL 9
REMARK VINA RESULT:      -7.1      0.427      1.012
REMARK SMILES O=C(CCCN1CCC(O)(c2ccc(Cl)cc2)CC1)c1ccc(F)cc1
REMARK SMILES IDX 4 1 3 2 2 3 1 4 20 5 21 6 26 7 22 8 25 9 23 10 24 11 5 12
REMARK SMILES IDX 6 13 7 14 19 15 8 16 18 17 9 18 10 19 11 21 12 22 17 23
REMARK SMILES IDX 13 24 16 25 14 26 15 27
REMARK H PARENT 10 20
ROOT
ATOM      1  C   UNL     1     138.840 140.681 168.844  1.00  0.00     0.024 C 
ENDROOT
BRANCH   1   2
ATOM      2  C   UNL     1     139.713 139.931 167.869  1.00  0.00     0.082 C 
BRANCH   2   3
ATOM      3  C   UNL     1     139.473 140.295 166.454  1.00  0.00     0.162 C 
ATOM      4  O   UNL     1     138.304 140.463 166.027  1.00  0.00    -0.294 OA
BRANCH   3   5
ATOM      5  C   UNL     1     140.569 140.472 165.504  1.00  0.00     0.018 A 
ATOM      6  C   UNL     1     140.604 141.617 164.712  1.00  0.00     0.015 A 
ATOM      7  C   UNL     1     141.549 139.542 165.384  1.00  0.00     0.015 A 
ATOM      8  C   UNL     1     141.646 141.768 163.822  1.00  0.00     0.040 A 
ATOM      9  C   UNL     1     142.582 139.718 164.482  1.00  0.00     0.040 A 
ATOM     10  C   UNL     1     142.658 140.835 163.678  1.00  0.00     0.123 A 
ATOM     11  F   UNL     1     143.666 141.022 162.788  1.00  0.00    -0.207 F 
ENDBRANCH   3   5
ENDBRANCH   2   3
ENDBRANCH   1   2
BRANCH   1  12
ATOM     12  C   UNL     1     139.497 141.752 169.604  1.00  0.00     0.085 C 
BRANCH  12  13
ATOM     13  N   UNL     1     140.567 142.419 168.989  1.00  0.00    -0.303 NA
ATOM     14  C   UNL     1     141.750 142.541 169.753  1.00  0.00     0.088 C 
ATOM     15  C   UNL     1     140.317 143.505 168.133  1.00  0.00     0.088 C 
ATOM     16  C   UNL     1     142.749 143.431 169.045  1.00  0.00     0.056 C 
ATOM     17  C   UNL     1     141.363 143.512 167.022  1.00  0.00     0.056 C 
ATOM     18  C   UNL     1     142.688 143.080 167.571  1.00  0.00     0.092 C 
BRANCH  18  19
ATOM     19  O   UNL     1     142.693 141.658 167.549  1.00  0.00    -0.385 OA
ATOM     20  H   UNL     1     143.266 141.391 168.306  1.00  0.00     0.211 HD
ENDBRANCH  18  19
BRANCH  18  21
ATOM     21  C   UNL     1     143.864 143.600 166.832  1.00  0.00    -0.016 A 
ATOM     22  C   UNL     1     144.185 144.960 166.929  1.00  0.00     0.008 A 
ATOM     23  C   UNL     1     144.681 142.842 166.034  1.00  0.00     0.008 A 
ATOM     24  C   UNL     1     145.258 145.511 166.265  1.00  0.00     0.021 A 
ATOM     25  C   UNL     1     145.772 143.401 165.356  1.00  0.00     0.021 A 
ATOM     26  C   UNL     1     146.071 144.738 165.465  1.00  0.00     0.041 A 
ATOM     27  Cl  UNL     1     147.450 145.445 164.611  1.00  0.00    -0.084 Cl
ENDBRANCH  18  21
ENDBRANCH  12  13
ENDBRANCH   1  12
TORSDOF 7
ENDMDL
