MODEL 1
REMARK VINA RESULT:       4.1      0.000      0.000
REMARK SMILES O=S(=O)([N-]CC[NH2+]C/C=C/c1ccc(Br)cc1)c1cccc2cnccc12
REMARK SMILES IDX 6 1 5 2 4 3 2 4 1 5 3 6 18 7 19 8 27 9 20 10 26 11 22 12
REMARK SMILES IDX 21 13 25 14 23 15 24 16 7 17 8 20 9 21 10 22 11 23 12 24
REMARK SMILES IDX 17 25 13 26 16 27 14 28 15 29
REMARK H PARENT 7 18 7 19
ROOT
ATOM      1  C   UNL     1      26.286  20.887 117.967  1.00  0.00     0.238 C 
ENDROOT
BRANCH   1   2
ATOM      2  C   UNL     1      25.100  20.366 117.189  1.00  0.00    -0.070 C 
BRANCH   2   3
ATOM      3  N   UNL     1      25.211  18.937 116.986  1.00  0.00    -0.540 NA
BRANCH   3   4
ATOM      4  S   UNL     1      23.628  18.184 117.112  1.00  0.00     0.102 S 
ATOM      5  O   UNL     1      22.725  19.121 116.475  1.00  0.00    -0.244 OA
ATOM      6  O   UNL     1      23.337  18.153 118.589  1.00  0.00    -0.244 OA
BRANCH   4   7
ATOM      7  C   UNL     1      23.792  16.599 116.534  1.00  0.00     0.056 A 
ATOM      8  C   UNL     1      24.660  15.722 117.149  1.00  0.00     0.019 A 
ATOM      9  C   UNL     1      23.080  16.136 115.448  1.00  0.00     0.002 A 
ATOM     10  C   UNL     1      24.792  14.427 116.672  1.00  0.00     0.002 A 
ATOM     11  C   UNL     1      22.213  17.015 114.837  1.00  0.00     0.030 A 
ATOM     12  C   UNL     1      23.194  14.839 114.948  1.00  0.00     0.001 A 
ATOM     13  C   UNL     1      24.073  13.978 115.583  1.00  0.00     0.010 A 
ATOM     14  C   UNL     1      21.491  16.588 113.760  1.00  0.00     0.111 A 
ATOM     15  C   UNL     1      22.451  14.437 113.856  1.00  0.00     0.119 A 
ATOM     16  N   UNL     1      21.624  15.335 113.302  1.00  0.00    -0.264 NA
ENDBRANCH   4   7
ENDBRANCH   3   4
ENDBRANCH   2   3
ENDBRANCH   1   2
BRANCH   1  17
ATOM     17  N   UNL     1      27.307  21.440 117.125  1.00  0.00    -0.344 N 
ATOM     18  H   UNL     1      28.193  20.944 117.265  1.00  0.00     0.346 HD
ATOM     19  H   UNL     1      26.986  21.380 116.130  1.00  0.00     0.346 HD
BRANCH  17  20
ATOM     20  C   UNL     1      27.423  22.849 117.432  1.00  0.00     0.289 C 
BRANCH  20  21
ATOM     21  C   UNL     1      28.734  23.219 117.976  1.00  0.00     0.034 C 
ATOM     22  C   UNL     1      28.825  23.672 119.212  1.00  0.00     0.009 C 
BRANCH  22  23
ATOM     23  C   UNL     1      30.068  24.070 119.861  1.00  0.00    -0.026 A 
ATOM     24  C   UNL     1      31.170  23.246 119.805  1.00  0.00     0.009 A 
ATOM     25  C   UNL     1      30.215  25.251 120.547  1.00  0.00     0.009 A 
ATOM     26  C   UNL     1      32.375  23.571 120.401  1.00  0.00     0.016 A 
ATOM     27  C   UNL     1      31.431  25.590 121.155  1.00  0.00     0.016 A 
ATOM     28  C   UNL     1      32.518  24.756 121.088  1.00  0.00     0.018 A 
ATOM     29  Br  UNL     1      34.172  25.240 121.927  1.00  0.00    -0.051 Br
ENDBRANCH  22  23
ENDBRANCH  20  21
ENDBRANCH  17  20
ENDBRANCH   1  17
TORSDOF 8
ENDMDL
MODEL 2
REMARK VINA RESULT:       4.4      0.974      1.331
REMARK SMILES O=S(=O)([N-]CC[NH2+]C/C=C/c1ccc(Br)cc1)c1cccc2cnccc12
REMARK SMILES IDX 6 1 5 2 4 3 2 4 1 5 3 6 18 7 19 8 27 9 20 10 26 11 22 12
REMARK SMILES IDX 21 13 25 14 23 15 24 16 7 17 8 20 9 21 10 22 11 23 12 24
REMARK SMILES IDX 17 25 13 26 16 27 14 28 15 29
REMARK H PARENT 7 18 7 19
ROOT
ATOM      1  C   UNL     1      27.083  20.924 117.235  1.00  0.00     0.238 C 
ENDROOT
BRANCH   1   2
ATOM      2  C   UNL     1      25.653  20.481 117.028  1.00  0.00    -0.070 C 
BRANCH   2   3
ATOM      3  N   UNL     1      25.389  19.256 117.751  1.00  0.00    -0.540 NA
BRANCH   3   4
ATOM      4  S   UNL     1      23.694  18.817 117.596  1.00  0.00     0.102 S 
ATOM      5  O   UNL     1      23.103  19.898 116.833  1.00  0.00    -0.244 OA
ATOM      6  O   UNL     1      23.158  18.862 119.003  1.00  0.00    -0.244 OA
BRANCH   4   7
ATOM      7  C   UNL     1      23.652  17.221 117.025  1.00  0.00     0.056 A 
ATOM      8  C   UNL     1      24.702  16.365 117.279  1.00  0.00     0.019 A 
ATOM      9  C   UNL     1      22.589  16.729 116.298  1.00  0.00     0.002 A 
ATOM     10  C   UNL     1      24.664  15.061 116.808  1.00  0.00     0.002 A 
ATOM     11  C   UNL     1      21.541  17.587 116.048  1.00  0.00     0.030 A 
ATOM     12  C   UNL     1      22.525  15.423 115.813  1.00  0.00     0.001 A 
ATOM     13  C   UNL     1      23.593  14.583 116.081  1.00  0.00     0.010 A 
ATOM     14  C   UNL     1      20.472  17.132 115.333  1.00  0.00     0.111 A 
ATOM     15  C   UNL     1      21.430  14.992 115.092  1.00  0.00     0.119 A 
ATOM     16  N   UNL     1      20.440  15.870 114.879  1.00  0.00    -0.264 NA
ENDBRANCH   4   7
ENDBRANCH   3   4
ENDBRANCH   2   3
ENDBRANCH   1   2
BRANCH   1  17
ATOM     17  N   UNL     1      27.200  22.037 118.131  1.00  0.00    -0.344 N 
ATOM     18  H   UNL     1      26.283  22.283 118.517  1.00  0.00     0.346 HD
ATOM     19  H   UNL     1      27.879  21.784 118.887  1.00  0.00     0.346 HD
BRANCH  17  20
ATOM     20  C   UNL     1      27.792  23.137 117.401  1.00  0.00     0.289 C 
BRANCH  20  21
ATOM     21  C   UNL     1      29.084  23.566 117.945  1.00  0.00     0.034 C 
ATOM     22  C   UNL     1      29.247  23.653 119.252  1.00  0.00     0.009 C 
BRANCH  22  23
ATOM     23  C   UNL     1      30.480  24.066 119.910  1.00  0.00    -0.026 A 
ATOM     24  C   UNL     1      30.499  25.201 120.690  1.00  0.00     0.009 A 
ATOM     25  C   UNL     1      31.662  23.374 119.799  1.00  0.00     0.009 A 
ATOM     26  C   UNL     1      31.638  25.642 121.338  1.00  0.00     0.016 A 
ATOM     27  C   UNL     1      32.822  23.811 120.452  1.00  0.00     0.016 A 
ATOM     28  C   UNL     1      32.821  24.945 121.224  1.00  0.00     0.018 A 
ATOM     29  Br  UNL     1      34.421  25.524 122.108  1.00  0.00    -0.051 Br
ENDBRANCH  22  23
ENDBRANCH  20  21
ENDBRANCH  17  20
ENDBRANCH   1  17
TORSDOF 8
ENDMDL
MODEL 3
REMARK VINA RESULT:       5.1      5.093     11.949
REMARK SMILES O=S(=O)([N-]CC[NH2+]C/C=C/c1ccc(Br)cc1)c1cccc2cnccc12
REMARK SMILES IDX 6 1 5 2 4 3 2 4 1 5 3 6 18 7 19 8 27 9 20 10 26 11 22 12
REMARK SMILES IDX 21 13 25 14 23 15 24 16 7 17 8 20 9 21 10 22 11 23 12 24
REMARK SMILES IDX 17 25 13 26 16 27 14 28 15 29
REMARK H PARENT 7 18 7 19
ROOT
ATOM      1  C   UNL     1      27.540  22.901 117.790  1.00  0.00     0.238 C 
ENDROOT
BRANCH   1   2
ATOM      2  C   UNL     1      28.982  23.343 117.877  1.00  0.00    -0.070 C 
BRANCH   2   3
ATOM      3  N   UNL     1      29.684  22.595 118.898  1.00  0.00    -0.540 NA
BRANCH   3   4
ATOM      4  S   UNL     1      30.176  23.667 120.202  1.00  0.00     0.102 S 
ATOM      5  O   UNL     1      29.555  23.111 121.387  1.00  0.00    -0.244 OA
ATOM      6  O   UNL     1      29.522  24.985 119.879  1.00  0.00    -0.244 OA
BRANCH   4   7
ATOM      7  C   UNL     1      31.860  23.829 120.094  1.00  0.00     0.056 A 
ATOM      8  C   UNL     1      32.601  22.917 119.373  1.00  0.00     0.019 A 
ATOM      9  C   UNL     1      32.539  24.857 120.712  1.00  0.00     0.002 A 
ATOM     10  C   UNL     1      33.978  23.052 119.289  1.00  0.00     0.002 A 
ATOM     11  C   UNL     1      31.796  25.767 121.430  1.00  0.00     0.030 A 
ATOM     12  C   UNL     1      33.923  25.016 120.643  1.00  0.00     0.001 A 
ATOM     13  C   UNL     1      34.645  24.087 119.913  1.00  0.00     0.010 A 
ATOM     14  C   UNL     1      32.438  26.798 122.053  1.00  0.00     0.111 A 
ATOM     15  C   UNL     1      34.544  26.069 121.285  1.00  0.00     0.119 A 
ATOM     16  N   UNL     1      33.770  26.924 121.969  1.00  0.00    -0.264 NA
ENDBRANCH   4   7
ENDBRANCH   3   4
ENDBRANCH   2   3
ENDBRANCH   1   2
BRANCH   1  17
ATOM     17  N   UNL     1      27.391  21.586 117.238  1.00  0.00    -0.344 N 
ATOM     18  H   UNL     1      27.259  21.636 116.223  1.00  0.00     0.346 HD
ATOM     19  H   UNL     1      28.239  21.023 117.488  1.00  0.00     0.346 HD
BRANCH  17  20
ATOM     20  C   UNL     1      26.270  20.950 117.897  1.00  0.00     0.289 C 
BRANCH  20  21
ATOM     21  C   UNL     1      25.691  19.848 117.123  1.00  0.00     0.034 C 
ATOM     22  C   UNL     1      24.668  19.172 117.611  1.00  0.00     0.009 C 
BRANCH  22  23
ATOM     23  C   UNL     1      24.009  18.060 116.938  1.00  0.00    -0.026 A 
ATOM     24  C   UNL     1      23.048  18.304 115.982  1.00  0.00     0.009 A 
ATOM     25  C   UNL     1      24.295  16.742 117.204  1.00  0.00     0.009 A 
ATOM     26  C   UNL     1      22.390  17.290 115.311  1.00  0.00     0.016 A 
ATOM     27  C   UNL     1      23.634  15.707 116.529  1.00  0.00     0.016 A 
ATOM     28  C   UNL     1      22.679  15.970 115.580  1.00  0.00     0.018 A 
ATOM     29  Br  UNL     1      21.788  14.538 114.670  1.00  0.00    -0.051 Br
ENDBRANCH  22  23
ENDBRANCH  20  21
ENDBRANCH  17  20
ENDBRANCH   1  17
TORSDOF 8
ENDMDL
MODEL 4
REMARK VINA RESULT:       5.1      0.708      1.144
REMARK SMILES O=S(=O)([N-]CC[NH2+]C/C=C/c1ccc(Br)cc1)c1cccc2cnccc12
REMARK SMILES IDX 6 1 5 2 4 3 2 4 1 5 3 6 18 7 19 8 27 9 20 10 26 11 22 12
REMARK SMILES IDX 21 13 25 14 23 15 24 16 7 17 8 20 9 21 10 22 11 23 12 24
REMARK SMILES IDX 17 25 13 26 16 27 14 28 15 29
REMARK H PARENT 7 18 7 19
ROOT
ATOM      1  C   UNL     1      26.157  21.073 116.995  1.00  0.00     0.238 C 
ENDROOT
BRANCH   1   2
ATOM      2  C   UNL     1      25.478  19.831 117.525  1.00  0.00    -0.070 C 
BRANCH   2   3
ATOM      3  N   UNL     1      24.656  19.223 116.501  1.00  0.00    -0.540 NA
BRANCH   3   4
ATOM      4  S   UNL     1      23.489  18.131 117.233  1.00  0.00     0.102 S 
ATOM      5  O   UNL     1      22.198  18.646 116.823  1.00  0.00    -0.244 OA
ATOM      6  O   UNL     1      23.650  18.339 118.715  1.00  0.00    -0.244 OA
BRANCH   4   7
ATOM      7  C   UNL     1      23.969  16.556 116.826  1.00  0.00     0.056 A 
ATOM      8  C   UNL     1      24.906  15.897 117.592  1.00  0.00     0.019 A 
ATOM      9  C   UNL     1      23.452  15.890 115.736  1.00  0.00     0.002 A 
ATOM     10  C   UNL     1      25.297  14.610 117.256  1.00  0.00     0.002 A 
ATOM     11  C   UNL     1      22.515  16.551 114.974  1.00  0.00     0.030 A 
ATOM     12  C   UNL     1      23.828  14.596 115.376  1.00  0.00     0.001 A 
ATOM     13  C   UNL     1      24.771  13.955 116.160  1.00  0.00     0.010 A 
ATOM     14  C   UNL     1      21.982  15.919 113.889  1.00  0.00     0.111 A 
ATOM     15  C   UNL     1      23.271  13.983 114.271  1.00  0.00     0.119 A 
ATOM     16  N   UNL     1      22.364  14.675 113.567  1.00  0.00    -0.264 NA
ENDBRANCH   4   7
ENDBRANCH   3   4
ENDBRANCH   2   3
ENDBRANCH   1   2
BRANCH   1  17
ATOM     17  N   UNL     1      27.402  21.351 117.649  1.00  0.00    -0.344 N 
ATOM     18  H   UNL     1      27.437  20.889 118.563  1.00  0.00     0.346 HD
ATOM     19  H   UNL     1      28.182  21.031 117.027  1.00  0.00     0.346 HD
BRANCH  17  20
ATOM     20  C   UNL     1      27.535  22.787 117.764  1.00  0.00     0.289 C 
BRANCH  20  21
ATOM     21  C   UNL     1      28.499  23.201 118.788  1.00  0.00     0.034 C 
ATOM     22  C   UNL     1      29.743  23.475 118.443  1.00  0.00     0.009 C 
BRANCH  22  23
ATOM     23  C   UNL     1      30.789  23.895 119.367  1.00  0.00    -0.026 A 
ATOM     24  C   UNL     1      30.537  24.885 120.290  1.00  0.00     0.009 A 
ATOM     25  C   UNL     1      32.049  23.347 119.378  1.00  0.00     0.009 A 
ATOM     26  C   UNL     1      31.489  25.324 121.192  1.00  0.00     0.016 A 
ATOM     27  C   UNL     1      33.021  23.785 120.287  1.00  0.00     0.016 A 
ATOM     28  C   UNL     1      32.752  24.774 121.199  1.00  0.00     0.018 A 
ATOM     29  Br  UNL     1      34.098  25.355 122.433  1.00  0.00    -0.051 Br
ENDBRANCH  22  23
ENDBRANCH  20  21
ENDBRANCH  17  20
ENDBRANCH   1  17
TORSDOF 8
ENDMDL
MODEL 5
REMARK VINA RESULT:       5.2      5.005     11.793
REMARK SMILES O=S(=O)([N-]CC[NH2+]C/C=C/c1ccc(Br)cc1)c1cccc2cnccc12
REMARK SMILES IDX 6 1 5 2 4 3 2 4 1 5 3 6 18 7 19 8 27 9 20 10 26 11 22 12
REMARK SMILES IDX 21 13 25 14 23 15 24 16 7 17 8 20 9 21 10 22 11 23 12 24
REMARK SMILES IDX 17 25 13 26 16 27 14 28 15 29
REMARK H PARENT 7 18 7 19
ROOT
ATOM      1  C   UNL     1      28.483  22.699 117.614  1.00  0.00     0.238 C 
ENDROOT
BRANCH   1   2
ATOM      2  C   UNL     1      28.275  23.558 118.840  1.00  0.00    -0.070 C 
BRANCH   2   3
ATOM      3  N   UNL     1      29.511  24.201 119.229  1.00  0.00    -0.540 NA
BRANCH   3   4
ATOM      4  S   UNL     1      30.468  23.117 120.229  1.00  0.00     0.102 S 
ATOM      5  O   UNL     1      30.109  21.788 119.776  1.00  0.00    -0.244 OA
ATOM      6  O   UNL     1      29.937  23.318 121.624  1.00  0.00    -0.244 OA
BRANCH   4   7
ATOM      7  C   UNL     1      32.071  23.662 120.149  1.00  0.00     0.056 A 
ATOM      8  C   UNL     1      33.033  22.901 119.519  1.00  0.00     0.019 A 
ATOM      9  C   UNL     1      32.467  24.861 120.701  1.00  0.00     0.002 A 
ATOM     10  C   UNL     1      34.343  23.349 119.457  1.00  0.00     0.002 A 
ATOM     11  C   UNL     1      31.504  25.620 121.328  1.00  0.00     0.030 A 
ATOM     12  C   UNL     1      33.778  25.336 120.653  1.00  0.00     0.001 A 
ATOM     13  C   UNL     1      34.725  24.553 120.015  1.00  0.00     0.010 A 
ATOM     14  C   UNL     1      31.862  26.814 121.884  1.00  0.00     0.111 A 
ATOM     15  C   UNL     1      34.110  26.548 121.225  1.00  0.00     0.119 A 
ATOM     16  N   UNL     1      33.131  27.242 121.822  1.00  0.00    -0.264 NA
ENDBRANCH   4   7
ENDBRANCH   3   4
ENDBRANCH   2   3
ENDBRANCH   1   2
BRANCH   1  17
ATOM     17  N   UNL     1      27.254  22.225 117.049  1.00  0.00    -0.344 N 
ATOM     18  H   UNL     1      26.580  22.992 116.965  1.00  0.00     0.346 HD
ATOM     19  H   UNL     1      27.462  21.792 116.118  1.00  0.00     0.346 HD
BRANCH  17  20
ATOM     20  C   UNL     1      26.757  21.160 117.893  1.00  0.00     0.289 C 
BRANCH  20  21
ATOM     21  C   UNL     1      25.979  20.155 117.162  1.00  0.00     0.034 C 
ATOM     22  C   UNL     1      24.992  19.523 117.769  1.00  0.00     0.009 C 
BRANCH  22  23
ATOM     23  C   UNL     1      24.150  18.507 117.149  1.00  0.00    -0.026 A 
ATOM     24  C   UNL     1      24.472  17.174 117.276  1.00  0.00     0.009 A 
ATOM     25  C   UNL     1      23.021  18.803 116.424  1.00  0.00     0.009 A 
ATOM     26  C   UNL     1      23.711  16.167 116.711  1.00  0.00     0.016 A 
ATOM     27  C   UNL     1      22.244  17.791 115.847  1.00  0.00     0.016 A 
ATOM     28  C   UNL     1      22.580  16.468 115.984  1.00  0.00     0.018 A 
ATOM     29  Br  UNL     1      21.501  15.099 115.187  1.00  0.00    -0.051 Br
ENDBRANCH  22  23
ENDBRANCH  20  21
ENDBRANCH  17  20
ENDBRANCH   1  17
TORSDOF 8
ENDMDL
MODEL 6
REMARK VINA RESULT:       5.4      5.032     11.832
REMARK SMILES O=S(=O)([N-]CC[NH2+]C/C=C/c1ccc(Br)cc1)c1cccc2cnccc12
REMARK SMILES IDX 6 1 5 2 4 3 2 4 1 5 3 6 18 7 19 8 27 9 20 10 26 11 22 12
REMARK SMILES IDX 21 13 25 14 23 15 24 16 7 17 8 20 9 21 10 22 11 23 12 24
REMARK SMILES IDX 17 25 13 26 16 27 14 28 15 29
REMARK H PARENT 7 18 7 19
ROOT
ATOM      1  C   UNL     1      28.346  22.299 117.775  1.00  0.00     0.238 C 
ENDROOT
BRANCH   1   2
ATOM      2  C   UNL     1      28.111  23.532 118.616  1.00  0.00    -0.070 C 
BRANCH   2   3
ATOM      3  N   UNL     1      29.355  24.231 118.856  1.00  0.00    -0.540 NA
BRANCH   3   4
ATOM      4  S   UNL     1      30.239  23.459 120.165  1.00  0.00     0.102 S 
ATOM      5  O   UNL     1      30.554  22.136 119.665  1.00  0.00    -0.244 OA
ATOM      6  O   UNL     1      29.235  23.333 121.281  1.00  0.00    -0.244 OA
BRANCH   4   7
ATOM      7  C   UNL     1      31.467  24.533 120.627  1.00  0.00     0.056 A 
ATOM      8  C   UNL     1      31.165  25.656 121.367  1.00  0.00     0.019 A 
ATOM      9  C   UNL     1      32.787  24.328 120.286  1.00  0.00     0.002 A 
ATOM     10  C   UNL     1      32.172  26.533 121.741  1.00  0.00     0.002 A 
ATOM     11  C   UNL     1      33.085  23.204 119.549  1.00  0.00     0.030 A 
ATOM     12  C   UNL     1      33.819  25.193 120.650  1.00  0.00     0.001 A 
ATOM     13  C   UNL     1      33.490  26.315 121.392  1.00  0.00     0.010 A 
ATOM     14  C   UNL     1      34.382  22.971 119.197  1.00  0.00     0.111 A 
ATOM     15  C   UNL     1      35.122  24.930 120.277  1.00  0.00     0.119 A 
ATOM     16  N   UNL     1      35.353  23.822 119.560  1.00  0.00    -0.264 NA
ENDBRANCH   4   7
ENDBRANCH   3   4
ENDBRANCH   2   3
ENDBRANCH   1   2
BRANCH   1  17
ATOM     17  N   UNL     1      27.182  21.892 117.043  1.00  0.00    -0.344 N 
ATOM     18  H   UNL     1      26.689  22.710 116.672  1.00  0.00     0.346 HD
ATOM     19  H   UNL     1      27.483  21.245 116.275  1.00  0.00     0.346 HD
BRANCH  17  20
ATOM     20  C   UNL     1      26.346  21.114 117.931  1.00  0.00     0.289 C 
BRANCH  20  21
ATOM     21  C   UNL     1      25.813  19.898 117.309  1.00  0.00     0.034 C 
ATOM     22  C   UNL     1      24.571  19.527 117.556  1.00  0.00     0.009 C 
BRANCH  22  23
ATOM     23  C   UNL     1      23.930  18.343 116.999  1.00  0.00    -0.026 A 
ATOM     24  C   UNL     1      22.847  18.475 116.159  1.00  0.00     0.009 A 
ATOM     25  C   UNL     1      24.351  17.062 117.266  1.00  0.00     0.009 A 
ATOM     26  C   UNL     1      22.200  17.389 115.600  1.00  0.00     0.016 A 
ATOM     27  C   UNL     1      23.702  15.954 116.706  1.00  0.00     0.016 A 
ATOM     28  C   UNL     1      22.624  16.106 115.871  1.00  0.00     0.018 A 
ATOM     29  Br  UNL     1      21.752  14.576 115.115  1.00  0.00    -0.051 Br
ENDBRANCH  22  23
ENDBRANCH  20  21
ENDBRANCH  17  20
ENDBRANCH   1  17
TORSDOF 8
ENDMDL
MODEL 7
REMARK VINA RESULT:       5.5      5.054     11.679
REMARK SMILES O=S(=O)([N-]CC[NH2+]C/C=C/c1ccc(Br)cc1)c1cccc2cnccc12
REMARK SMILES IDX 6 1 5 2 4 3 2 4 1 5 3 6 18 7 19 8 27 9 20 10 26 11 22 12
REMARK SMILES IDX 21 13 25 14 23 15 24 16 7 17 8 20 9 21 10 22 11 23 12 24
REMARK SMILES IDX 17 25 13 26 16 27 14 28 15 29
REMARK H PARENT 7 18 7 19
ROOT
ATOM      1  C   UNL     1      28.366  23.629 117.456  1.00  0.00     0.238 C 
ENDROOT
BRANCH   1   2
ATOM      2  C   UNL     1      28.354  23.632 118.967  1.00  0.00    -0.070 C 
BRANCH   2   3
ATOM      3  N   UNL     1      29.547  24.266 119.485  1.00  0.00    -0.540 NA
BRANCH   3   4
ATOM      4  S   UNL     1      30.574  23.073 120.268  1.00  0.00     0.102 S 
ATOM      5  O   UNL     1      30.205  21.813 119.654  1.00  0.00    -0.244 OA
ATOM      6  O   UNL     1      30.123  23.067 121.705  1.00  0.00    -0.244 OA
BRANCH   4   7
ATOM      7  C   UNL     1      32.163  23.657 120.175  1.00  0.00     0.056 A 
ATOM      8  C   UNL     1      33.137  22.919 119.537  1.00  0.00     0.019 A 
ATOM      9  C   UNL     1      32.534  24.865 120.724  1.00  0.00     0.002 A 
ATOM     10  C   UNL     1      34.436  23.399 119.465  1.00  0.00     0.002 A 
ATOM     11  C   UNL     1      31.558  25.600 121.360  1.00  0.00     0.030 A 
ATOM     12  C   UNL     1      33.833  25.371 120.666  1.00  0.00     0.001 A 
ATOM     13  C   UNL     1      34.793  24.611 120.020  1.00  0.00     0.010 A 
ATOM     14  C   UNL     1      31.892  26.802 121.913  1.00  0.00     0.111 A 
ATOM     15  C   UNL     1      34.140  26.590 121.236  1.00  0.00     0.119 A 
ATOM     16  N   UNL     1      33.150  27.261 121.841  1.00  0.00    -0.264 NA
ENDBRANCH   4   7
ENDBRANCH   3   4
ENDBRANCH   2   3
ENDBRANCH   1   2
BRANCH   1  17
ATOM     17  N   UNL     1      27.412  22.719 116.892  1.00  0.00    -0.344 N 
ATOM     18  H   UNL     1      26.508  23.185 116.761  1.00  0.00     0.346 HD
ATOM     19  H   UNL     1      27.793  22.359 115.985  1.00  0.00     0.346 HD
BRANCH  17  20
ATOM     20  C   UNL     1      27.308  21.578 117.775  1.00  0.00     0.289 C 
BRANCH  20  21
ATOM     21  C   UNL     1      26.521  20.477 117.210  1.00  0.00     0.034 C 
ATOM     22  C   UNL     1      25.385  20.124 117.782  1.00  0.00     0.009 C 
BRANCH  22  23
ATOM     23  C   UNL     1      24.518  19.050 117.315  1.00  0.00    -0.026 A 
ATOM     24  C   UNL     1      23.334  19.348 116.677  1.00  0.00     0.009 A 
ATOM     25  C   UNL     1      24.815  17.718 117.475  1.00  0.00     0.009 A 
ATOM     26  C   UNL     1      22.472  18.372 116.212  1.00  0.00     0.016 A 
ATOM     27  C   UNL     1      23.948  16.721 117.008  1.00  0.00     0.016 A 
ATOM     28  C   UNL     1      22.773  17.037 116.374  1.00  0.00     0.018 A 
ATOM     29  Br  UNL     1      21.603  15.656 115.743  1.00  0.00    -0.051 Br
ENDBRANCH  22  23
ENDBRANCH  20  21
ENDBRANCH  17  20
ENDBRANCH   1  17
TORSDOF 8
ENDMDL
MODEL 8
REMARK VINA RESULT:       5.6      0.788      1.188
REMARK SMILES O=S(=O)([N-]CC[NH2+]C/C=C/c1ccc(Br)cc1)c1cccc2cnccc12
REMARK SMILES IDX 6 1 5 2 4 3 2 4 1 5 3 6 18 7 19 8 27 9 20 10 26 11 22 12
REMARK SMILES IDX 21 13 25 14 23 15 24 16 7 17 8 20 9 21 10 22 11 23 12 24
REMARK SMILES IDX 17 25 13 26 16 27 14 28 15 29
REMARK H PARENT 7 18 7 19
ROOT
ATOM      1  C   UNL     1      26.311  20.311 117.155  1.00  0.00     0.238 C 
ENDROOT
BRANCH   1   2
ATOM      2  C   UNL     1      25.222  19.348 117.565  1.00  0.00    -0.070 C 
BRANCH   2   3
ATOM      3  N   UNL     1      24.446  18.935 116.416  1.00  0.00    -0.540 NA
BRANCH   3   4
ATOM      4  S   UNL     1      22.971  18.135 116.937  1.00  0.00     0.102 S 
ATOM      5  O   UNL     1      21.909  19.051 116.573  1.00  0.00    -0.244 OA
ATOM      6  O   UNL     1      23.077  18.082 118.439  1.00  0.00    -0.244 OA
BRANCH   4   7
ATOM      7  C   UNL     1      23.018  16.561 116.311  1.00  0.00     0.056 A 
ATOM      8  C   UNL     1      23.633  15.550 117.019  1.00  0.00     0.019 A 
ATOM      9  C   UNL     1      22.458  16.238 115.094  1.00  0.00     0.002 A 
ATOM     10  C   UNL     1      23.672  14.264 116.502  1.00  0.00     0.002 A 
ATOM     11  C   UNL     1      21.843  17.250 114.390  1.00  0.00     0.030 A 
ATOM     12  C   UNL     1      22.482  14.953 114.551  1.00  0.00     0.001 A 
ATOM     13  C   UNL     1      23.106  13.956 115.281  1.00  0.00     0.010 A 
ATOM     14  C   UNL     1      21.276  16.964 113.182  1.00  0.00     0.111 A 
ATOM     15  C   UNL     1      21.900  14.695 113.326  1.00  0.00     0.119 A 
ATOM     16  N   UNL     1      21.317  15.718 112.686  1.00  0.00    -0.264 NA
ENDBRANCH   4   7
ENDBRANCH   3   4
ENDBRANCH   2   3
ENDBRANCH   1   2
BRANCH   1  17
ATOM     17  N   UNL     1      26.258  21.552 117.871  1.00  0.00    -0.344 N 
ATOM     18  H   UNL     1      25.300  21.916 117.885  1.00  0.00     0.346 HD
ATOM     19  H   UNL     1      26.623  21.392 118.840  1.00  0.00     0.346 HD
BRANCH  17  20
ATOM     20  C   UNL     1      27.176  22.473 117.236  1.00  0.00     0.289 C 
BRANCH  20  21
ATOM     21  C   UNL     1      28.421  22.663 117.986  1.00  0.00     0.034 C 
ATOM     22  C   UNL     1      28.526  23.668 118.836  1.00  0.00     0.009 C 
BRANCH  22  23
ATOM     23  C   UNL     1      29.708  23.958 119.637  1.00  0.00    -0.026 A 
ATOM     24  C   UNL     1      29.905  25.225 120.141  1.00  0.00     0.009 A 
ATOM     25  C   UNL     1      30.668  23.021 119.931  1.00  0.00     0.009 A 
ATOM     26  C   UNL     1      31.007  25.559 120.907  1.00  0.00     0.016 A 
ATOM     27  C   UNL     1      31.788  23.349 120.706  1.00  0.00     0.016 A 
ATOM     28  C   UNL     1      31.968  24.616 121.200  1.00  0.00     0.018 A 
ATOM     29  Br  UNL     1      33.508  25.042 122.259  1.00  0.00    -0.051 Br
ENDBRANCH  22  23
ENDBRANCH  20  21
ENDBRANCH  17  20
ENDBRANCH   1  17
TORSDOF 8
ENDMDL
MODEL 9
REMARK VINA RESULT:       6.1      5.154     11.940
REMARK SMILES O=S(=O)([N-]CC[NH2+]C/C=C/c1ccc(Br)cc1)c1cccc2cnccc12
REMARK SMILES IDX 6 1 5 2 4 3 2 4 1 5 3 6 18 7 19 8 27 9 20 10 26 11 22 12
REMARK SMILES IDX 21 13 25 14 23 15 24 16 7 17 8 20 9 21 10 22 11 23 12 24
REMARK SMILES IDX 17 25 13 26 16 27 14 28 15 29
REMARK H PARENT 7 18 7 19
ROOT
ATOM      1  C   UNL     1      27.647  22.389 117.239  1.00  0.00     0.238 C 
ENDROOT
BRANCH   1   2
ATOM      2  C   UNL     1      28.097  22.876 118.597  1.00  0.00    -0.070 C 
BRANCH   2   3
ATOM      3  N   UNL     1      29.257  23.732 118.474  1.00  0.00    -0.540 NA
BRANCH   3   4
ATOM      4  S   UNL     1      29.861  24.164 120.067  1.00  0.00     0.102 S 
ATOM      5  O   UNL     1      29.072  23.370 120.986  1.00  0.00    -0.244 OA
ATOM      6  O   UNL     1      29.492  25.614 120.234  1.00  0.00    -0.244 OA
BRANCH   4   7
ATOM      7  C   UNL     1      31.549  24.012 120.009  1.00  0.00     0.056 A 
ATOM      8  C   UNL     1      32.128  22.956 119.338  1.00  0.00     0.019 A 
ATOM      9  C   UNL     1      32.389  24.917 120.621  1.00  0.00     0.002 A 
ATOM     10  C   UNL     1      33.508  22.834 119.295  1.00  0.00     0.002 A 
ATOM     11  C   UNL     1      31.807  25.971 121.290  1.00  0.00     0.030 A 
ATOM     12  C   UNL     1      33.780  24.818 120.593  1.00  0.00     0.001 A 
ATOM     13  C   UNL     1      34.337  23.749 119.913  1.00  0.00     0.010 A 
ATOM     14  C   UNL     1      32.610  26.887 121.905  1.00  0.00     0.111 A 
ATOM     15  C   UNL     1      34.566  25.760 121.226  1.00  0.00     0.119 A 
ATOM     16  N   UNL     1      33.945  26.763 121.861  1.00  0.00    -0.264 NA
ENDBRANCH   4   7
ENDBRANCH   3   4
ENDBRANCH   2   3
ENDBRANCH   1   2
BRANCH   1  17
ATOM     17  N   UNL     1      27.327  20.992 117.224  1.00  0.00    -0.344 N 
ATOM     18  H   UNL     1      27.414  20.616 116.275  1.00  0.00     0.346 HD
ATOM     19  H   UNL     1      27.965  20.498 117.893  1.00  0.00     0.346 HD
BRANCH  17  20
ATOM     20  C   UNL     1      25.987  20.835 117.746  1.00  0.00     0.289 C 
BRANCH  20  21
ATOM     21  C   UNL     1      25.185  19.860 117.001  1.00  0.00     0.034 C 
ATOM     22  C   UNL     1      24.686  18.809 117.625  1.00  0.00     0.009 C 
BRANCH  22  23
ATOM     23  C   UNL     1      23.876  17.775 116.995  1.00  0.00    -0.026 A 
ATOM     24  C   UNL     1      24.286  16.460 117.031  1.00  0.00     0.009 A 
ATOM     25  C   UNL     1      22.692  18.035 116.348  1.00  0.00     0.009 A 
ATOM     26  C   UNL     1      23.559  15.437 116.451  1.00  0.00     0.016 A 
ATOM     27  C   UNL     1      21.948  17.005 115.757  1.00  0.00     0.016 A 
ATOM     28  C   UNL     1      22.373  15.701 115.802  1.00  0.00     0.018 A 
ATOM     29  Br  UNL     1      21.338  14.309 114.987  1.00  0.00    -0.051 Br
ENDBRANCH  22  23
ENDBRANCH  20  21
ENDBRANCH  17  20
ENDBRANCH   1  17
TORSDOF 8
ENDMDL
