MODEL 1
REMARK VINA RESULT:      -6.1      0.000      0.000
REMARK SMILES O=C1Nc2ccc(I)cc2/C1=C/c1cc(Br)c(O)c(Br)c1
REMARK SMILES IDX 13 1 14 2 15 3 16 4 17 5 19 6 20 7 21 8 12 9 1 10 2 11 3 12
REMARK SMILES IDX 11 13 4 14 10 15 5 16 9 17 6 18 7 19 8 21 18 22
REMARK H PARENT 3 20 18 23
ROOT
ATOM      1  C   UNL     1     -43.958  -5.564  20.730  1.00  0.00    -0.022 A 
ATOM      2  C   UNL     1     -42.616  -5.507  20.943  1.00  0.00     0.027 A 
ATOM      3  C   UNL     1     -41.983  -4.278  20.891  1.00  0.00     0.061 A 
ATOM      4  Br  UNL     1     -40.095  -4.201  21.193  1.00  0.00    -0.047 Br
ATOM      5  C   UNL     1     -42.681  -3.111  20.628  1.00  0.00     0.143 A 
ATOM      6  C   UNL     1     -44.029  -3.207  20.418  1.00  0.00     0.061 A 
ATOM      7  Br  UNL     1     -45.059  -1.638  20.047  1.00  0.00    -0.047 Br
ATOM      8  C   UNL     1     -44.675  -4.414  20.466  1.00  0.00     0.027 A 
ENDROOT
BRANCH   1   9
ATOM      9  C   UNL     1     -44.723  -6.798  20.798  1.00  0.00     0.022 C 
ATOM     10  O   UNL     1     -43.980  -6.328  17.900  1.00  0.00    -0.269 OA
ATOM     11  C   UNL     1     -44.662  -7.279  18.351  1.00  0.00     0.256 C 
ATOM     12  N   UNL     1     -45.241  -8.345  17.579  1.00  0.00    -0.321 N 
ATOM     13  C   UNL     1     -45.017  -7.526  19.738  1.00  0.00     0.050 C 
ATOM     14  C   UNL     1     -45.943  -9.241  18.457  1.00  0.00     0.049 A 
ATOM     15  C   UNL     1     -45.814  -8.757  19.753  1.00  0.00     0.012 A 
ATOM     16  C   UNL     1     -46.649 -10.397  18.174  1.00  0.00     0.028 A 
ATOM     17  C   UNL     1     -46.432  -9.499  20.752  1.00  0.00     0.025 A 
ATOM     18  C   UNL     1     -47.243 -11.093  19.212  1.00  0.00     0.017 A 
ATOM     19  C   UNL     1     -47.142 -10.653  20.515  1.00  0.00     0.014 A 
ATOM     20  H   UNL     1     -45.142  -8.415  16.559  1.00  0.00     0.170 HD
ATOM     21  I   UNL     1     -48.056 -11.731  22.092  1.00  0.00    -0.044 I 
ENDBRANCH   1   9
BRANCH   5  22
ATOM     22  O   UNL     1     -42.034  -1.880  20.580  1.00  0.00    -0.506 OA
ATOM     23  H   UNL     1     -41.929  -1.400  19.694  1.00  0.00     0.293 HD
ENDBRANCH   5  22
TORSDOF 2
ENDMDL
MODEL 2
REMARK VINA RESULT:      -6.1      0.264      2.050
REMARK SMILES O=C1Nc2ccc(I)cc2/C1=C/c1cc(Br)c(O)c(Br)c1
REMARK SMILES IDX 13 1 14 2 15 3 16 4 17 5 19 6 20 7 21 8 12 9 1 10 2 11 3 12
REMARK SMILES IDX 11 13 4 14 10 15 5 16 9 17 6 18 7 19 8 21 18 22
REMARK H PARENT 3 20 18 23
ROOT
ATOM      1  C   UNL     1     -44.049  -5.600  20.711  1.00  0.00    -0.022 A 
ATOM      2  C   UNL     1     -44.622  -4.410  20.386  1.00  0.00     0.027 A 
ATOM      3  C   UNL     1     -43.833  -3.273  20.367  1.00  0.00     0.061 A 
ATOM      4  Br  UNL     1     -44.641  -1.600  19.908  1.00  0.00    -0.047 Br
ATOM      5  C   UNL     1     -42.483  -3.319  20.671  1.00  0.00     0.143 A 
ATOM      6  C   UNL     1     -41.943  -4.533  20.995  1.00  0.00     0.061 A 
ATOM      7  Br  UNL     1     -40.085  -4.675  21.428  1.00  0.00    -0.047 Br
ATOM      8  C   UNL     1     -42.705  -5.670  21.018  1.00  0.00     0.027 A 
ENDROOT
BRANCH   1   9
ATOM      9  C   UNL     1     -44.780  -6.856  20.724  1.00  0.00     0.022 C 
ATOM     10  O   UNL     1     -44.005  -6.265  17.857  1.00  0.00    -0.269 OA
ATOM     11  C   UNL     1     -44.667  -7.249  18.263  1.00  0.00     0.256 C 
ATOM     12  N   UNL     1     -45.204  -8.304  17.445  1.00  0.00    -0.321 N 
ATOM     13  C   UNL     1     -45.037  -7.554  19.636  1.00  0.00     0.050 C 
ATOM     14  C   UNL     1     -45.894  -9.249  18.281  1.00  0.00     0.049 A 
ATOM     15  C   UNL     1     -45.798  -8.807  19.595  1.00  0.00     0.012 A 
ATOM     16  C   UNL     1     -46.562 -10.413  17.946  1.00  0.00     0.028 A 
ATOM     17  C   UNL     1     -46.411  -9.601  20.557  1.00  0.00     0.025 A 
ATOM     18  C   UNL     1     -47.152 -11.162  18.950  1.00  0.00     0.017 A 
ATOM     19  C   UNL     1     -47.085 -10.764  20.269  1.00  0.00     0.014 A 
ATOM     20  H   UNL     1     -45.087  -8.335  16.425  1.00  0.00     0.170 HD
ATOM     21  I   UNL     1     -47.992 -11.922  21.792  1.00  0.00    -0.044 I 
ENDBRANCH   1   9
BRANCH   5  22
ATOM     22  O   UNL     1     -41.700  -2.169  20.648  1.00  0.00    -0.506 OA
ATOM     23  H   UNL     1     -40.709  -2.230  20.851  1.00  0.00     0.293 HD
ENDBRANCH   5  22
TORSDOF 2
ENDMDL
MODEL 3
REMARK VINA RESULT:      -5.9      5.595      7.802
REMARK SMILES O=C1Nc2ccc(I)cc2/C1=C/c1cc(Br)c(O)c(Br)c1
REMARK SMILES IDX 13 1 14 2 15 3 16 4 17 5 19 6 20 7 21 8 12 9 1 10 2 11 3 12
REMARK SMILES IDX 11 13 4 14 10 15 5 16 9 17 6 18 7 19 8 21 18 22
REMARK H PARENT 3 20 18 23
ROOT
ATOM      1  C   UNL     1     -46.887 -11.207  22.077  1.00  0.00    -0.022 A 
ATOM      2  C   UNL     1     -46.500 -12.495  21.878  1.00  0.00     0.027 A 
ATOM      3  C   UNL     1     -47.117 -13.498  22.605  1.00  0.00     0.061 A 
ATOM      4  Br  UNL     1     -46.570 -15.310  22.323  1.00  0.00    -0.047 Br
ATOM      5  C   UNL     1     -48.115 -13.221  23.525  1.00  0.00     0.143 A 
ATOM      6  C   UNL     1     -48.477 -11.914  23.698  1.00  0.00     0.061 A 
ATOM      7  Br  UNL     1     -49.847 -11.454  24.953  1.00  0.00    -0.047 Br
ATOM      8  C   UNL     1     -47.880 -10.907  22.989  1.00  0.00     0.027 A 
ENDROOT
BRANCH   1   9
ATOM      9  C   UNL     1     -46.329 -10.086  21.340  1.00  0.00     0.022 C 
ATOM     10  O   UNL     1     -47.693 -11.916  19.350  1.00  0.00    -0.269 OA
ATOM     11  C   UNL     1     -47.075 -10.857  19.087  1.00  0.00     0.256 C 
ATOM     12  N   UNL     1     -46.879 -10.294  17.779  1.00  0.00    -0.321 N 
ATOM     13  C   UNL     1     -46.425  -9.962  20.031  1.00  0.00     0.050 C 
ATOM     14  C   UNL     1     -46.125  -9.074  17.894  1.00  0.00     0.049 A 
ATOM     15  C   UNL     1     -45.850  -8.868  19.241  1.00  0.00     0.012 A 
ATOM     16  C   UNL     1     -45.700  -8.193  16.916  1.00  0.00     0.028 A 
ATOM     17  C   UNL     1     -45.123  -7.726  19.552  1.00  0.00     0.025 A 
ATOM     18  C   UNL     1     -44.979  -7.072  17.289  1.00  0.00     0.017 A 
ATOM     19  C   UNL     1     -44.681  -6.824  18.612  1.00  0.00     0.014 A 
ATOM     20  H   UNL     1     -47.239 -10.731  16.922  1.00  0.00     0.170 HD
ATOM     21  I   UNL     1     -43.579  -5.103  19.166  1.00  0.00    -0.044 I 
ENDBRANCH   1   9
BRANCH   5  22
ATOM     22  O   UNL     1     -48.729 -14.238  24.249  1.00  0.00    -0.506 OA
ATOM     23  H   UNL     1     -48.163 -14.918  24.743  1.00  0.00     0.293 HD
ENDBRANCH   5  22
TORSDOF 2
ENDMDL
MODEL 4
REMARK VINA RESULT:      -5.9      6.031      8.081
REMARK SMILES O=C1Nc2ccc(I)cc2/C1=C/c1cc(Br)c(O)c(Br)c1
REMARK SMILES IDX 13 1 14 2 15 3 16 4 17 5 19 6 20 7 21 8 12 9 1 10 2 11 3 12
REMARK SMILES IDX 11 13 4 14 10 15 5 16 9 17 6 18 7 19 8 21 18 22
REMARK H PARENT 3 20 18 23
ROOT
ATOM      1  C   UNL     1     -48.024 -10.805  23.432  1.00  0.00    -0.022 A 
ATOM      2  C   UNL     1     -47.528 -11.955  23.961  1.00  0.00     0.027 A 
ATOM      3  C   UNL     1     -48.281 -12.636  24.902  1.00  0.00     0.061 A 
ATOM      4  Br  UNL     1     -47.581 -14.255  25.644  1.00  0.00    -0.047 Br
ATOM      5  C   UNL     1     -49.519 -12.175  25.315  1.00  0.00     0.143 A 
ATOM      6  C   UNL     1     -49.985 -11.014  24.762  1.00  0.00     0.061 A 
ATOM      7  Br  UNL     1     -51.687 -10.313  25.285  1.00  0.00    -0.047 Br
ATOM      8  C   UNL     1     -49.257 -10.325  23.828  1.00  0.00     0.027 A 
ENDROOT
BRANCH   1   9
ATOM      9  C   UNL     1     -47.331 -10.035  22.412  1.00  0.00     0.022 C 
ATOM     10  O   UNL     1     -48.882 -12.233  21.020  1.00  0.00    -0.269 OA
ATOM     11  C   UNL     1     -48.141 -11.382  20.474  1.00  0.00     0.256 C 
ATOM     12  N   UNL     1     -47.868 -11.276  19.066  1.00  0.00    -0.321 N 
ATOM     13  C   UNL     1     -47.400 -10.314  21.125  1.00  0.00     0.050 C 
ATOM     14  C   UNL     1     -46.977 -10.171  18.835  1.00  0.00     0.049 A 
ATOM     15  C   UNL     1     -46.693  -9.589  20.064  1.00  0.00     0.012 A 
ATOM     16  C   UNL     1     -46.443  -9.688  17.654  1.00  0.00     0.028 A 
ATOM     17  C   UNL     1     -45.839  -8.492  20.042  1.00  0.00     0.025 A 
ATOM     18  C   UNL     1     -45.599  -8.592  17.697  1.00  0.00     0.017 A 
ATOM     19  C   UNL     1     -45.286  -7.980  18.892  1.00  0.00     0.014 A 
ATOM     20  H   UNL     1     -48.269 -11.916  18.369  1.00  0.00     0.170 HD
ATOM     21  I   UNL     1     -43.995  -6.303  18.940  1.00  0.00    -0.044 I 
ENDBRANCH   1   9
BRANCH   5  22
ATOM     22  O   UNL     1     -50.267 -12.868  26.261  1.00  0.00    -0.506 OA
ATOM     23  H   UNL     1     -50.533 -12.413  27.126  1.00  0.00     0.293 HD
ENDBRANCH   5  22
TORSDOF 2
ENDMDL
MODEL 5
REMARK VINA RESULT:      -5.8     10.620     12.583
REMARK SMILES O=C1Nc2ccc(I)cc2/C1=C/c1cc(Br)c(O)c(Br)c1
REMARK SMILES IDX 13 1 14 2 15 3 16 4 17 5 19 6 20 7 21 8 12 9 1 10 2 11 3 12
REMARK SMILES IDX 11 13 4 14 10 15 5 16 9 17 6 18 7 19 8 21 18 22
REMARK H PARENT 3 20 18 23
ROOT
ATOM      1  C   UNL     1     -38.714 -15.544  17.231  1.00  0.00    -0.022 A 
ATOM      2  C   UNL     1     -37.836 -16.557  17.458  1.00  0.00     0.027 A 
ATOM      3  C   UNL     1     -38.261 -17.862  17.278  1.00  0.00     0.061 A 
ATOM      4  Br  UNL     1     -37.022 -19.286  17.597  1.00  0.00    -0.047 Br
ATOM      5  C   UNL     1     -39.552 -18.158  16.875  1.00  0.00     0.143 A 
ATOM      6  C   UNL     1     -40.407 -17.113  16.657  1.00  0.00     0.061 A 
ATOM      7  Br  UNL     1     -42.208 -17.443  16.101  1.00  0.00    -0.047 Br
ATOM      8  C   UNL     1     -40.007 -15.814  16.829  1.00  0.00     0.027 A 
ENDROOT
BRANCH   1   9
ATOM      9  C   UNL     1     -38.358 -14.141  17.355  1.00  0.00     0.022 C 
ATOM     10  O   UNL     1     -37.577 -15.051  14.575  1.00  0.00    -0.269 OA
ATOM     11  C   UNL     1     -37.404 -13.909  15.062  1.00  0.00     0.256 C 
ATOM     12  N   UNL     1     -36.789 -12.791  14.399  1.00  0.00    -0.321 N 
ATOM     13  C   UNL     1     -37.783 -13.452  16.389  1.00  0.00     0.050 C 
ATOM     14  C   UNL     1     -36.781 -11.658  15.285  1.00  0.00     0.049 A 
ATOM     15  C   UNL     1     -37.375 -12.047  16.479  1.00  0.00     0.012 A 
ATOM     16  C   UNL     1     -36.299 -10.376  15.089  1.00  0.00     0.028 A 
ATOM     17  C   UNL     1     -37.460 -11.074  17.469  1.00  0.00     0.025 A 
ATOM     18  C   UNL     1     -36.413  -9.452  16.113  1.00  0.00     0.017 A 
ATOM     19  C   UNL     1     -36.994  -9.789  17.316  1.00  0.00     0.014 A 
ATOM     20  H   UNL     1     -36.425 -12.840  13.439  1.00  0.00     0.170 HD
ATOM     21  I   UNL     1     -37.162  -8.362  18.871  1.00  0.00    -0.044 I 
ENDBRANCH   1   9
BRANCH   5  22
ATOM     22  O   UNL     1     -39.967 -19.473  16.696  1.00  0.00    -0.506 OA
ATOM     23  H   UNL     1     -40.478 -19.731  15.860  1.00  0.00     0.293 HD
ENDBRANCH   5  22
TORSDOF 2
ENDMDL
MODEL 6
REMARK VINA RESULT:      -5.8      5.613      8.020
REMARK SMILES O=C1Nc2ccc(I)cc2/C1=C/c1cc(Br)c(O)c(Br)c1
REMARK SMILES IDX 13 1 14 2 15 3 16 4 17 5 19 6 20 7 21 8 12 9 1 10 2 11 3 12
REMARK SMILES IDX 11 13 4 14 10 15 5 16 9 17 6 18 7 19 8 21 18 22
REMARK H PARENT 3 20 18 23
ROOT
ATOM      1  C   UNL     1     -46.903 -11.227  22.087  1.00  0.00    -0.022 A 
ATOM      2  C   UNL     1     -47.893 -11.096  23.009  1.00  0.00     0.027 A 
ATOM      3  C   UNL     1     -48.345 -12.225  23.669  1.00  0.00     0.061 A 
ATOM      4  Br  UNL     1     -49.739 -12.036  24.967  1.00  0.00    -0.047 Br
ATOM      5  C   UNL     1     -47.816 -13.479  23.413  1.00  0.00     0.143 A 
ATOM      6  C   UNL     1     -46.821 -13.572  22.478  1.00  0.00     0.061 A 
ATOM      7  Br  UNL     1     -46.041 -15.270  22.070  1.00  0.00    -0.047 Br
ATOM      8  C   UNL     1     -46.359 -12.467  21.815  1.00  0.00     0.027 A 
ENDROOT
BRANCH   1   9
ATOM      9  C   UNL     1     -46.332 -10.102  21.366  1.00  0.00     0.022 C 
ATOM     10  O   UNL     1     -47.761 -11.860  19.357  1.00  0.00    -0.269 OA
ATOM     11  C   UNL     1     -47.126 -10.808  19.109  1.00  0.00     0.256 C 
ATOM     12  N   UNL     1     -46.937 -10.220  17.810  1.00  0.00    -0.321 N 
ATOM     13  C   UNL     1     -46.445  -9.947  20.061  1.00  0.00     0.050 C 
ATOM     14  C   UNL     1     -46.157  -9.019  17.941  1.00  0.00     0.049 A 
ATOM     15  C   UNL     1     -45.858  -8.848  19.287  1.00  0.00     0.012 A 
ATOM     16  C   UNL     1     -45.728  -8.125  16.976  1.00  0.00     0.028 A 
ATOM     17  C   UNL     1     -45.104  -7.727  19.612  1.00  0.00     0.025 A 
ATOM     18  C   UNL     1     -44.979  -7.027  17.362  1.00  0.00     0.017 A 
ATOM     19  C   UNL     1     -44.657  -6.814  18.686  1.00  0.00     0.014 A 
ATOM     20  H   UNL     1     -47.318 -10.631  16.949  1.00  0.00     0.170 HD
ATOM     21  I   UNL     1     -43.513  -5.128  19.260  1.00  0.00    -0.044 I 
ENDBRANCH   1   9
BRANCH   5  22
ATOM     22  O   UNL     1     -48.277 -14.606  24.084  1.00  0.00    -0.506 OA
ATOM     23  H   UNL     1     -48.683 -15.373  23.560  1.00  0.00     0.293 HD
ENDBRANCH   5  22
TORSDOF 2
ENDMDL
MODEL 7
REMARK VINA RESULT:      -5.8      6.339      8.960
REMARK SMILES O=C1Nc2ccc(I)cc2/C1=C/c1cc(Br)c(O)c(Br)c1
REMARK SMILES IDX 13 1 14 2 15 3 16 4 17 5 19 6 20 7 21 8 12 9 1 10 2 11 3 12
REMARK SMILES IDX 11 13 4 14 10 15 5 16 9 17 6 18 7 19 8 21 18 22
REMARK H PARENT 3 20 18 23
ROOT
ATOM      1  C   UNL     1     -47.420 -12.553  22.781  1.00  0.00    -0.022 A 
ATOM      2  C   UNL     1     -48.349 -12.443  23.769  1.00  0.00     0.027 A 
ATOM      3  C   UNL     1     -48.760 -13.588  24.428  1.00  0.00     0.061 A 
ATOM      4  Br  UNL     1     -50.065 -13.430  25.819  1.00  0.00    -0.047 Br
ATOM      5  C   UNL     1     -48.251 -14.835  24.107  1.00  0.00     0.143 A 
ATOM      6  C   UNL     1     -47.320 -14.906  23.108  1.00  0.00     0.061 A 
ATOM      7  Br  UNL     1     -46.573 -16.595  22.607  1.00  0.00    -0.047 Br
ATOM      8  C   UNL     1     -46.899 -13.786  22.443  1.00  0.00     0.027 A 
ENDROOT
BRANCH   1   9
ATOM      9  C   UNL     1     -46.895 -11.410  22.053  1.00  0.00     0.022 C 
ATOM     10  O   UNL     1     -49.192 -12.556  20.446  1.00  0.00    -0.269 OA
ATOM     11  C   UNL     1     -48.473 -11.580  20.127  1.00  0.00     0.256 C 
ATOM     12  N   UNL     1     -48.588 -10.802  18.923  1.00  0.00    -0.321 N 
ATOM     13  C   UNL     1     -47.376 -11.009  20.892  1.00  0.00     0.050 C 
ATOM     14  C   UNL     1     -47.588  -9.768  18.928  1.00  0.00     0.049 A 
ATOM     15  C   UNL     1     -46.858  -9.886  20.105  1.00  0.00     0.012 A 
ATOM     16  C   UNL     1     -47.315  -8.787  17.992  1.00  0.00     0.028 A 
ATOM     17  C   UNL     1     -45.837  -8.961  20.290  1.00  0.00     0.025 A 
ATOM     18  C   UNL     1     -46.285  -7.895  18.233  1.00  0.00     0.017 A 
ATOM     19  C   UNL     1     -45.532  -7.971  19.386  1.00  0.00     0.014 A 
ATOM     20  H   UNL     1     -49.290 -10.993  18.199  1.00  0.00     0.170 HD
ATOM     21  I   UNL     1     -43.961  -6.597  19.741  1.00  0.00    -0.044 I 
ENDBRANCH   1   9
BRANCH   5  22
ATOM     22  O   UNL     1     -48.671 -15.979  24.778  1.00  0.00    -0.506 OA
ATOM     23  H   UNL     1     -47.986 -16.606  25.184  1.00  0.00     0.293 HD
ENDBRANCH   5  22
TORSDOF 2
ENDMDL
MODEL 8
REMARK VINA RESULT:      -5.7     10.530     12.667
REMARK SMILES O=C1Nc2ccc(I)cc2/C1=C/c1cc(Br)c(O)c(Br)c1
REMARK SMILES IDX 13 1 14 2 15 3 16 4 17 5 19 6 20 7 21 8 12 9 1 10 2 11 3 12
REMARK SMILES IDX 11 13 4 14 10 15 5 16 9 17 6 18 7 19 8 21 18 22
REMARK H PARENT 3 20 18 23
ROOT
ATOM      1  C   UNL     1     -38.991 -15.442  17.216  1.00  0.00    -0.022 A 
ATOM      2  C   UNL     1     -40.224 -15.789  16.759  1.00  0.00     0.027 A 
ATOM      3  C   UNL     1     -40.560 -17.130  16.696  1.00  0.00     0.061 A 
ATOM      4  Br  UNL     1     -42.297 -17.614  16.054  1.00  0.00    -0.047 Br
ATOM      5  C   UNL     1     -39.675 -18.121  17.086  1.00  0.00     0.143 A 
ATOM      6  C   UNL     1     -38.444 -17.734  17.539  1.00  0.00     0.061 A 
ATOM      7  Br  UNL     1     -37.166 -19.046  18.092  1.00  0.00    -0.047 Br
ATOM      8  C   UNL     1     -38.091 -16.412  17.610  1.00  0.00     0.027 A 
ENDROOT
BRANCH   1   9
ATOM      9  C   UNL     1     -38.554 -14.063  17.356  1.00  0.00     0.022 C 
ATOM     10  O   UNL     1     -37.750 -15.015  14.595  1.00  0.00    -0.269 OA
ATOM     11  C   UNL     1     -37.521 -13.886  15.091  1.00  0.00     0.256 C 
ATOM     12  N   UNL     1     -36.820 -12.807  14.450  1.00  0.00    -0.321 N 
ATOM     13  C   UNL     1     -37.910 -13.410  16.408  1.00  0.00     0.050 C 
ATOM     14  C   UNL     1     -36.768 -11.679  15.340  1.00  0.00     0.049 A 
ATOM     15  C   UNL     1     -37.419 -12.032  16.516  1.00  0.00     0.012 A 
ATOM     16  C   UNL     1     -36.203 -10.429  15.163  1.00  0.00     0.028 A 
ATOM     17  C   UNL     1     -37.472 -11.058  17.506  1.00  0.00     0.025 A 
ATOM     18  C   UNL     1     -36.289  -9.501  16.186  1.00  0.00     0.017 A 
ATOM     19  C   UNL     1     -36.924  -9.804  17.372  1.00  0.00     0.014 A 
ATOM     20  H   UNL     1     -36.433 -12.877  13.501  1.00  0.00     0.170 HD
ATOM     21  I   UNL     1     -37.049  -8.372  18.926  1.00  0.00    -0.044 I 
ENDBRANCH   1   9
BRANCH   5  22
ATOM     22  O   UNL     1     -40.024 -19.465  17.019  1.00  0.00    -0.506 OA
ATOM     23  H   UNL     1     -40.914 -19.774  17.392  1.00  0.00     0.293 HD
ENDBRANCH   5  22
TORSDOF 2
ENDMDL
MODEL 9
REMARK VINA RESULT:      -5.7      6.362      8.868
REMARK SMILES O=C1Nc2ccc(I)cc2/C1=C/c1cc(Br)c(O)c(Br)c1
REMARK SMILES IDX 13 1 14 2 15 3 16 4 17 5 19 6 20 7 21 8 12 9 1 10 2 11 3 12
REMARK SMILES IDX 11 13 4 14 10 15 5 16 9 17 6 18 7 19 8 21 18 22
REMARK H PARENT 3 20 18 23
ROOT
ATOM      1  C   UNL     1     -47.122 -12.849  22.670  1.00  0.00    -0.022 A 
ATOM      2  C   UNL     1     -46.682 -14.096  22.353  1.00  0.00     0.027 A 
ATOM      3  C   UNL     1     -47.196 -15.180  23.044  1.00  0.00     0.061 A 
ATOM      4  Br  UNL     1     -46.576 -16.935  22.596  1.00  0.00    -0.047 Br
ATOM      5  C   UNL     1     -48.141 -15.025  24.043  1.00  0.00     0.143 A 
ATOM      6  C   UNL     1     -48.559 -13.755  24.334  1.00  0.00     0.061 A 
ATOM      7  Br  UNL     1     -49.861 -13.461  25.704  1.00  0.00    -0.047 Br
ATOM      8  C   UNL     1     -48.064 -12.669  23.663  1.00  0.00     0.027 A 
ENDROOT
BRANCH   1   9
ATOM      9  C   UNL     1     -46.674 -11.650  21.982  1.00  0.00     0.022 C 
ATOM     10  O   UNL     1     -48.917 -12.870  20.353  1.00  0.00    -0.269 OA
ATOM     11  C   UNL     1     -48.262 -11.840  20.066  1.00  0.00     0.256 C 
ATOM     12  N   UNL     1     -48.436 -11.025  18.894  1.00  0.00    -0.321 N 
ATOM     13  C   UNL     1     -47.191 -11.235  20.841  1.00  0.00     0.050 C 
ATOM     14  C   UNL     1     -47.499  -9.934  18.930  1.00  0.00     0.049 A 
ATOM     15  C   UNL     1     -46.750 -10.053  20.094  1.00  0.00     0.012 A 
ATOM     16  C   UNL     1     -47.297  -8.904  18.029  1.00  0.00     0.028 A 
ATOM     17  C   UNL     1     -45.784  -9.077  20.305  1.00  0.00     0.025 A 
ATOM     18  C   UNL     1     -46.319  -7.961  18.296  1.00  0.00     0.017 A 
ATOM     19  C   UNL     1     -45.549  -8.036  19.437  1.00  0.00     0.014 A 
ATOM     20  H   UNL     1     -49.134 -11.230  18.169  1.00  0.00     0.170 HD
ATOM     21  I   UNL     1     -44.058  -6.585  19.830  1.00  0.00    -0.044 I 
ENDBRANCH   1   9
BRANCH   5  22
ATOM     22  O   UNL     1     -48.651 -16.122  24.730  1.00  0.00    -0.506 OA
ATOM     23  H   UNL     1     -49.115 -16.864  24.220  1.00  0.00     0.293 HD
ENDBRANCH   5  22
TORSDOF 2
ENDMDL
