MODEL 1
REMARK VINA RESULT:      -9.4      0.000      0.000
REMARK SMILES O=C1NCN(c2ccccc2)C12CC[NH+](CCCC(c1ccc(F)cc1)c1ccc(F)cc1)CC2
REMARK SMILES IDX 17 1 16 2 15 3 1 4 2 5 3 6 12 7 4 8 5 9 13 10 35 11 14 12
REMARK SMILES IDX 34 13 6 16 7 17 11 18 8 19 10 20 9 21 18 22 19 23 20 24
REMARK SMILES IDX 21 25 26 26 22 27 25 28 23 29 24 30 27 31 28 32 33 33 29 34
REMARK SMILES IDX 32 35 30 36 31 37
REMARK H PARENT 3 14 15 15
ROOT
ATOM      1  C   UNL     1     113.206  96.400 114.504  1.00  0.00     0.062 C 
ENDROOT
BRANCH   1   2
ATOM      2  C   UNL     1     112.171  97.162 113.730  1.00  0.00     0.262 C 
BRANCH   2   3
ATOM      3  N   UNL     1     112.732  97.635 112.470  1.00  0.00    -0.335 N 
ATOM      4  O   UNL     1     112.142  98.756 109.500  1.00  0.00    -0.272 OA
ATOM      5  C   UNL     1     113.343  98.545 109.232  1.00  0.00     0.247 C 
ATOM      6  N   UNL     1     113.932  98.798 107.981  1.00  0.00    -0.336 N 
ATOM      7  C   UNL     1     114.370  97.987 110.190  1.00  0.00     0.131 C 
ATOM      8  C   UNL     1     115.340  98.875 108.211  1.00  0.00     0.238 C 
ATOM      9  N   UNL     1     115.565  97.972 109.350  1.00  0.00    -0.339 N 
ATOM     10  C   UNL     1     113.941  96.593 110.603  1.00  0.00     0.100 C 
ATOM     11  C   UNL     1     114.456  98.912 111.351  1.00  0.00     0.100 C 
ATOM     12  C   UNL     1     112.677  96.629 111.431  1.00  0.00     0.265 C 
ATOM     13  C   UNL     1     114.046  98.209 112.604  1.00  0.00     0.265 C 
ATOM     14  H   UNL     1     113.413  98.905 107.068  1.00  0.00     0.165 HD
ATOM     15  H   UNL     1     112.089  98.404 112.180  1.00  0.00     0.348 HD
BRANCH   9  16
ATOM     16  C   UNL     1     116.778  97.250 109.485  1.00  0.00     0.039 A 
ATOM     17  C   UNL     1     117.788  97.706 110.298  1.00  0.00     0.026 A 
ATOM     18  C   UNL     1     116.941  96.075 108.818  1.00  0.00     0.026 A 
ATOM     19  C   UNL     1     118.980  96.991 110.455  1.00  0.00     0.002 A 
ATOM     20  C   UNL     1     118.099  95.360 108.957  1.00  0.00     0.002 A 
ATOM     21  C   UNL     1     119.113  95.805 109.765  1.00  0.00     0.000 A 
ENDBRANCH   9  16
ENDBRANCH   2   3
ENDBRANCH   1   2
BRANCH   1  22
ATOM     22  C   UNL     1     113.375  96.750 115.919  1.00  0.00     0.019 C 
BRANCH  22  23
ATOM     23  C   UNL     1     113.312  98.121 116.406  1.00  0.00     0.049 C 
BRANCH  23  24
ATOM     24  C   UNL     1     112.173  98.429 117.342  1.00  0.00    -0.040 A 
ATOM     25  C   UNL     1     111.108  97.555 117.325  1.00  0.00     0.007 A 
ATOM     26  C   UNL     1     112.163  99.528 118.157  1.00  0.00     0.007 A 
ATOM     27  C   UNL     1     110.021  97.779 118.131  1.00  0.00     0.039 A 
ATOM     28  C   UNL     1     111.077  99.748 118.961  1.00  0.00     0.039 A 
ATOM     29  C   UNL     1     109.982  98.875 118.963  1.00  0.00     0.123 A 
ATOM     30  F   UNL     1     108.901  99.086 119.756  1.00  0.00    -0.207 F 
ENDBRANCH  23  24
BRANCH  23  31
ATOM     31  C   UNL     1     114.518  98.821 116.818  1.00  0.00    -0.040 A 
ATOM     32  C   UNL     1     114.812 100.139 116.605  1.00  0.00     0.007 A 
ATOM     33  C   UNL     1     115.467  98.037 117.487  1.00  0.00     0.007 A 
ATOM     34  C   UNL     1     116.038 100.640 117.059  1.00  0.00     0.039 A 
ATOM     35  C   UNL     1     116.658  98.512 117.933  1.00  0.00     0.039 A 
ATOM     36  C   UNL     1     116.943  99.839 117.710  1.00  0.00     0.123 A 
ATOM     37  F   UNL     1     118.139 100.302 118.162  1.00  0.00    -0.207 F 
ENDBRANCH  23  31
ENDBRANCH  22  23
ENDBRANCH   1  22
TORSDOF 7
ENDMDL
MODEL 2
REMARK VINA RESULT:      -9.1      0.389      1.198
REMARK SMILES O=C1NCN(c2ccccc2)C12CC[NH+](CCCC(c1ccc(F)cc1)c1ccc(F)cc1)CC2
REMARK SMILES IDX 17 1 16 2 15 3 1 4 2 5 3 6 12 7 4 8 5 9 13 10 35 11 14 12
REMARK SMILES IDX 34 13 6 16 7 17 11 18 8 19 10 20 9 21 18 22 19 23 20 24
REMARK SMILES IDX 21 25 26 26 22 27 25 28 23 29 24 30 27 31 28 32 33 33 29 34
REMARK SMILES IDX 32 35 30 36 31 37
REMARK H PARENT 3 14 15 15
ROOT
ATOM      1  C   UNL     1     113.344  96.237 114.492  1.00  0.00     0.062 C 
ENDROOT
BRANCH   1   2
ATOM      2  C   UNL     1     112.276  96.539 113.482  1.00  0.00     0.262 C 
BRANCH   2   3
ATOM      3  N   UNL     1     112.868  97.129 112.287  1.00  0.00    -0.335 N 
ATOM      4  O   UNL     1     112.351  98.442 109.382  1.00  0.00    -0.272 OA
ATOM      5  C   UNL     1     113.571  98.304 109.154  1.00  0.00     0.247 C 
ATOM      6  N   UNL     1     114.200  98.674 107.953  1.00  0.00    -0.336 N 
ATOM      7  C   UNL     1     114.581  97.721 110.115  1.00  0.00     0.131 C 
ATOM      8  C   UNL     1     115.592  98.795 108.252  1.00  0.00     0.238 C 
ATOM      9  N   UNL     1     115.810  97.820 109.332  1.00  0.00    -0.339 N 
ATOM     10  C   UNL     1     114.201  96.283 110.406  1.00  0.00     0.100 C 
ATOM     11  C   UNL     1     114.575  98.560 111.343  1.00  0.00     0.100 C 
ATOM     12  C   UNL     1     112.903  96.201 111.175  1.00  0.00     0.265 C 
ATOM     13  C   UNL     1     114.146  97.748 112.521  1.00  0.00     0.265 C 
ATOM     14  H   UNL     1     113.716  98.827 107.027  1.00  0.00     0.165 HD
ATOM     15  H   UNL     1     112.202  97.889 112.024  1.00  0.00     0.348 HD
BRANCH   9  16
ATOM     16  C   UNL     1     117.049  97.143 109.469  1.00  0.00     0.039 A 
ATOM     17  C   UNL     1     117.329  96.019 108.728  1.00  0.00     0.026 A 
ATOM     18  C   UNL     1     117.988  97.622 110.330  1.00  0.00     0.026 A 
ATOM     19  C   UNL     1     118.555  95.356 108.840  1.00  0.00     0.002 A 
ATOM     20  C   UNL     1     119.193  96.988 110.455  1.00  0.00     0.002 A 
ATOM     21  C   UNL     1     119.483  95.866 109.722  1.00  0.00     0.000 A 
ENDBRANCH   9  16
ENDBRANCH   2   3
ENDBRANCH   1   2
BRANCH   1  22
ATOM     22  C   UNL     1     113.080  96.632 115.881  1.00  0.00     0.019 C 
BRANCH  22  23
ATOM     23  C   UNL     1     112.991  98.023 116.302  1.00  0.00     0.049 C 
BRANCH  23  24
ATOM     24  C   UNL     1     111.875  98.342 117.262  1.00  0.00    -0.040 A 
ATOM     25  C   UNL     1     112.003  99.502 117.994  1.00  0.00     0.007 A 
ATOM     26  C   UNL     1     110.792  97.522 117.434  1.00  0.00     0.007 A 
ATOM     27  C   UNL     1     111.040  99.850 118.907  1.00  0.00     0.039 A 
ATOM     28  C   UNL     1     109.833  97.874 118.346  1.00  0.00     0.039 A 
ATOM     29  C   UNL     1     109.939  99.047 119.101  1.00  0.00     0.123 A 
ATOM     30  F   UNL     1     108.993  99.402 120.008  1.00  0.00    -0.207 F 
ENDBRANCH  23  24
BRANCH  23  31
ATOM     31  C   UNL     1     114.187  98.778 116.638  1.00  0.00    -0.040 A 
ATOM     32  C   UNL     1     114.500 100.042 116.223  1.00  0.00     0.007 A 
ATOM     33  C   UNL     1     115.106  98.112 117.459  1.00  0.00     0.007 A 
ATOM     34  C   UNL     1     115.713 100.608 116.632  1.00  0.00     0.039 A 
ATOM     35  C   UNL     1     116.285  98.650 117.863  1.00  0.00     0.039 A 
ATOM     36  C   UNL     1     116.588  99.923 117.437  1.00  0.00     0.123 A 
ATOM     37  F   UNL     1     117.772 100.450 117.849  1.00  0.00    -0.207 F 
ENDBRANCH  23  31
ENDBRANCH  22  23
ENDBRANCH   1  22
TORSDOF 7
ENDMDL
MODEL 3
REMARK VINA RESULT:      -9.1      0.438      1.209
REMARK SMILES O=C1NCN(c2ccccc2)C12CC[NH+](CCCC(c1ccc(F)cc1)c1ccc(F)cc1)CC2
REMARK SMILES IDX 17 1 16 2 15 3 1 4 2 5 3 6 12 7 4 8 5 9 13 10 35 11 14 12
REMARK SMILES IDX 34 13 6 16 7 17 11 18 8 19 10 20 9 21 18 22 19 23 20 24
REMARK SMILES IDX 21 25 26 26 22 27 25 28 23 29 24 30 27 31 28 32 33 33 29 34
REMARK SMILES IDX 32 35 30 36 31 37
REMARK H PARENT 3 14 15 15
ROOT
ATOM      1  C   UNL     1     113.201  96.154 114.415  1.00  0.00     0.062 C 
ENDROOT
BRANCH   1   2
ATOM      2  C   UNL     1     112.142  96.500 113.410  1.00  0.00     0.262 C 
BRANCH   2   3
ATOM      3  N   UNL     1     112.743  97.135 112.243  1.00  0.00    -0.335 N 
ATOM      4  O   UNL     1     112.251  98.555 109.385  1.00  0.00    -0.272 OA
ATOM      5  C   UNL     1     113.473  98.425 109.163  1.00  0.00     0.247 C 
ATOM      6  N   UNL     1     114.113  98.841 107.982  1.00  0.00    -0.336 N 
ATOM      7  C   UNL     1     114.476  97.807 110.110  1.00  0.00     0.131 C 
ATOM      8  C   UNL     1     115.502  98.950 108.297  1.00  0.00     0.238 C 
ATOM      9  N   UNL     1     115.711  97.935 109.341  1.00  0.00    -0.339 N 
ATOM     10  C   UNL     1     114.093  96.359 110.343  1.00  0.00     0.100 C 
ATOM     11  C   UNL     1     114.458  98.599 111.368  1.00  0.00     0.100 C 
ATOM     12  C   UNL     1     112.789  96.249 111.098  1.00  0.00     0.265 C 
ATOM     13  C   UNL     1     114.020  97.744 112.511  1.00  0.00     0.265 C 
ATOM     14  H   UNL     1     113.636  99.028 107.058  1.00  0.00     0.165 HD
ATOM     15  H   UNL     1     112.080  97.903 112.003  1.00  0.00     0.348 HD
BRANCH   9  16
ATOM     16  C   UNL     1     116.948  97.254 109.464  1.00  0.00     0.039 A 
ATOM     17  C   UNL     1     117.923  97.701 110.325  1.00  0.00     0.026 A 
ATOM     18  C   UNL     1     117.173  96.126 108.735  1.00  0.00     0.026 A 
ATOM     19  C   UNL     1     119.138  97.025 110.469  1.00  0.00     0.002 A 
ATOM     20  C   UNL     1     118.355  95.450 108.861  1.00  0.00     0.002 A 
ATOM     21  C   UNL     1     119.333  95.886 109.716  1.00  0.00     0.000 A 
ENDBRANCH   9  16
ENDBRANCH   2   3
ENDBRANCH   1   2
BRANCH   1  22
ATOM     22  C   UNL     1     112.940  96.516 115.813  1.00  0.00     0.019 C 
BRANCH  22  23
ATOM     23  C   UNL     1     112.946  97.893 116.287  1.00  0.00     0.049 C 
BRANCH  23  24
ATOM     24  C   UNL     1     111.836  98.259 117.237  1.00  0.00    -0.040 A 
ATOM     25  C   UNL     1     111.989  99.434 117.941  1.00  0.00     0.007 A 
ATOM     26  C   UNL     1     110.735  97.468 117.427  1.00  0.00     0.007 A 
ATOM     27  C   UNL     1     111.033  99.825 118.844  1.00  0.00     0.039 A 
ATOM     28  C   UNL     1     109.783  97.863 118.328  1.00  0.00     0.039 A 
ATOM     29  C   UNL     1     109.915  99.052 119.055  1.00  0.00     0.123 A 
ATOM     30  F   UNL     1     108.976  99.449 119.951  1.00  0.00    -0.207 F 
ENDBRANCH  23  24
BRANCH  23  31
ATOM     31  C   UNL     1     114.188  98.541 116.674  1.00  0.00    -0.040 A 
ATOM     32  C   UNL     1     115.157  98.031 117.492  1.00  0.00     0.007 A 
ATOM     33  C   UNL     1     114.380  99.828 116.155  1.00  0.00     0.007 A 
ATOM     34  C   UNL     1     116.286  98.810 117.773  1.00  0.00     0.039 A 
ATOM     35  C   UNL     1     115.470 100.593 116.418  1.00  0.00     0.039 A 
ATOM     36  C   UNL     1     116.437 100.068 117.244  1.00  0.00     0.123 A 
ATOM     37  F   UNL     1     117.524 100.845 117.500  1.00  0.00    -0.207 F 
ENDBRANCH  23  31
ENDBRANCH  22  23
ENDBRANCH   1  22
TORSDOF 7
ENDMDL
MODEL 4
REMARK VINA RESULT:      -8.9      0.793      1.139
REMARK SMILES O=C1NCN(c2ccccc2)C12CC[NH+](CCCC(c1ccc(F)cc1)c1ccc(F)cc1)CC2
REMARK SMILES IDX 17 1 16 2 15 3 1 4 2 5 3 6 12 7 4 8 5 9 13 10 35 11 14 12
REMARK SMILES IDX 34 13 6 16 7 17 11 18 8 19 10 20 9 21 18 22 19 23 20 24
REMARK SMILES IDX 21 25 26 26 22 27 25 28 23 29 24 30 27 31 28 32 33 33 29 34
REMARK SMILES IDX 32 35 30 36 31 37
REMARK H PARENT 3 14 15 15
ROOT
ATOM      1  C   UNL     1     113.282  97.634 114.351  1.00  0.00     0.062 C 
ENDROOT
BRANCH   1   2
ATOM      2  C   UNL     1     112.576  96.978 113.201  1.00  0.00     0.262 C 
BRANCH   2   3
ATOM      3  N   UNL     1     113.158  97.416 111.937  1.00  0.00    -0.335 N 
ATOM      4  O   UNL     1     112.622  98.296 108.877  1.00  0.00    -0.272 OA
ATOM      5  C   UNL     1     113.847  98.169 108.675  1.00  0.00     0.247 C 
ATOM      6  N   UNL     1     114.474  98.390 107.436  1.00  0.00    -0.336 N 
ATOM      7  C   UNL     1     114.869  97.759 109.711  1.00  0.00     0.131 C 
ATOM      8  C   UNL     1     115.858  98.598 107.720  1.00  0.00     0.238 C 
ATOM      9  N   UNL     1     116.100  97.790 108.925  1.00  0.00    -0.339 N 
ATOM     10  C   UNL     1     114.533  96.363 110.197  1.00  0.00     0.100 C 
ATOM     11  C   UNL     1     114.825  98.759 110.810  1.00  0.00     0.100 C 
ATOM     12  C   UNL     1     113.233  96.345 110.966  1.00  0.00     0.265 C 
ATOM     13  C   UNL     1     114.413  98.104 112.088  1.00  0.00     0.265 C 
ATOM     14  H   UNL     1     113.992  98.397 106.496  1.00  0.00     0.165 HD
ATOM     15  H   UNL     1     112.470  98.109 111.569  1.00  0.00     0.348 HD
BRANCH   9  16
ATOM     16  C   UNL     1     117.359  97.181 109.159  1.00  0.00     0.039 A 
ATOM     17  C   UNL     1     118.142  97.557 110.224  1.00  0.00     0.026 A 
ATOM     18  C   UNL     1     117.794  96.191 108.332  1.00  0.00     0.026 A 
ATOM     19  C   UNL     1     119.376  96.949 110.476  1.00  0.00     0.002 A 
ATOM     20  C   UNL     1     118.997  95.583 108.561  1.00  0.00     0.002 A 
ATOM     21  C   UNL     1     119.787  95.951 109.619  1.00  0.00     0.000 A 
ENDBRANCH   9  16
ENDBRANCH   2   3
ENDBRANCH   1   2
BRANCH   1  22
ATOM     22  C   UNL     1     112.723  98.898 114.844  1.00  0.00     0.019 C 
BRANCH  22  23
ATOM     23  C   UNL     1     113.020  99.430 116.167  1.00  0.00     0.049 C 
BRANCH  23  24
ATOM     24  C   UNL     1     111.944  99.236 117.203  1.00  0.00    -0.040 A 
ATOM     25  C   UNL     1     111.143  98.125 117.060  1.00  0.00     0.007 A 
ATOM     26  C   UNL     1     111.738 100.121 118.228  1.00  0.00     0.007 A 
ATOM     27  C   UNL     1     110.124  97.892 117.949  1.00  0.00     0.039 A 
ATOM     28  C   UNL     1     110.722  99.883 119.113  1.00  0.00     0.039 A 
ATOM     29  C   UNL     1     109.893  98.762 118.991  1.00  0.00     0.123 A 
ATOM     30  F   UNL     1     108.883  98.520 119.864  1.00  0.00    -0.207 F 
ENDBRANCH  23  24
BRANCH  23  31
ATOM     31  C   UNL     1     114.338  99.262 116.758  1.00  0.00    -0.040 A 
ATOM     32  C   UNL     1     114.827  98.137 117.360  1.00  0.00     0.007 A 
ATOM     33  C   UNL     1     115.166 100.390 116.707  1.00  0.00     0.007 A 
ATOM     34  C   UNL     1     116.120  98.163 117.895  1.00  0.00     0.039 A 
ATOM     35  C   UNL     1     116.422 100.428 117.220  1.00  0.00     0.039 A 
ATOM     36  C   UNL     1     116.902  99.289 117.825  1.00  0.00     0.123 A 
ATOM     37  F   UNL     1     118.162  99.340 118.335  1.00  0.00    -0.207 F 
ENDBRANCH  23  31
ENDBRANCH  22  23
ENDBRANCH   1  22
TORSDOF 7
ENDMDL
MODEL 5
REMARK VINA RESULT:      -8.9      1.320      4.255
REMARK SMILES O=C1NCN(c2ccccc2)C12CC[NH+](CCCC(c1ccc(F)cc1)c1ccc(F)cc1)CC2
REMARK SMILES IDX 17 1 16 2 15 3 1 4 2 5 3 6 12 7 4 8 5 9 13 10 35 11 14 12
REMARK SMILES IDX 34 13 6 16 7 17 11 18 8 19 10 20 9 21 18 22 19 23 20 24
REMARK SMILES IDX 21 25 26 26 22 27 25 28 23 29 24 30 27 31 28 32 33 33 29 34
REMARK SMILES IDX 32 35 30 36 31 37
REMARK H PARENT 3 14 15 15
ROOT
ATOM      1  C   UNL     1     113.903  99.670 113.782  1.00  0.00     0.062 C 
ENDROOT
BRANCH   1   2
ATOM      2  C   UNL     1     113.528 100.268 112.459  1.00  0.00     0.262 C 
BRANCH   2   3
ATOM      3  N   UNL     1     113.499  99.235 111.430  1.00  0.00    -0.335 N 
ATOM      4  O   UNL     1     111.775  96.935 109.958  1.00  0.00    -0.272 OA
ATOM      5  C   UNL     1     112.840  96.525 109.453  1.00  0.00     0.247 C 
ATOM      6  N   UNL     1     112.935  95.416 108.593  1.00  0.00    -0.336 N 
ATOM      7  C   UNL     1     114.206  97.136 109.671  1.00  0.00     0.131 C 
ATOM      8  C   UNL     1     114.172  95.560 107.892  1.00  0.00     0.238 C 
ATOM      9  N   UNL     1     115.041  96.267 108.845  1.00  0.00    -0.339 N 
ATOM     10  C   UNL     1     114.553  97.036 111.142  1.00  0.00     0.100 C 
ATOM     11  C   UNL     1     114.150  98.546 109.204  1.00  0.00     0.100 C 
ATOM     12  C   UNL     1     113.647  97.905 111.982  1.00  0.00     0.265 C 
ATOM     13  C   UNL     1     114.410  99.478 110.343  1.00  0.00     0.265 C 
ATOM     14  H   UNL     1     112.219  94.646 108.503  1.00  0.00     0.165 HD
ATOM     15  H   UNL     1     112.533  99.294 111.040  1.00  0.00     0.348 HD
BRANCH   9  16
ATOM     16  C   UNL     1     116.441  96.042 108.867  1.00  0.00     0.039 A 
ATOM     17  C   UNL     1     117.028  95.141 108.010  1.00  0.00     0.026 A 
ATOM     18  C   UNL     1     117.223  96.740 109.735  1.00  0.00     0.026 A 
ATOM     19  C   UNL     1     118.410  94.926 108.010  1.00  0.00     0.002 A 
ATOM     20  C   UNL     1     118.577  96.544 109.751  1.00  0.00     0.002 A 
ATOM     21  C   UNL     1     119.173  95.650 108.901  1.00  0.00     0.000 A 
ENDBRANCH   9  16
ENDBRANCH   2   3
ENDBRANCH   1   2
BRANCH   1  22
ATOM     22  C   UNL     1     112.883  99.687 114.837  1.00  0.00     0.019 C 
BRANCH  22  23
ATOM     23  C   UNL     1     113.043  98.984 116.102  1.00  0.00     0.049 C 
BRANCH  23  24
ATOM     24  C   UNL     1     114.401  99.100 116.744  1.00  0.00    -0.040 A 
ATOM     25  C   UNL     1     115.031 100.321 116.640  1.00  0.00     0.007 A 
ATOM     26  C   UNL     1     115.009  98.052 117.381  1.00  0.00     0.007 A 
ATOM     27  C   UNL     1     116.280 100.500 117.177  1.00  0.00     0.039 A 
ATOM     28  C   UNL     1     116.255  98.234 117.917  1.00  0.00     0.039 A 
ATOM     29  C   UNL     1     116.916  99.465 117.825  1.00  0.00     0.123 A 
ATOM     30  F   UNL     1     118.152  99.654 118.352  1.00  0.00    -0.207 F 
ENDBRANCH  23  24
BRANCH  23  31
ATOM     31  C   UNL     1     111.996  99.016 117.109  1.00  0.00    -0.040 A 
ATOM     32  C   UNL     1     111.781  99.997 118.036  1.00  0.00     0.007 A 
ATOM     33  C   UNL     1     111.141  97.906 117.121  1.00  0.00     0.007 A 
ATOM     34  C   UNL     1     110.728  99.850 118.947  1.00  0.00     0.039 A 
ATOM     35  C   UNL     1     110.116  97.752 117.998  1.00  0.00     0.039 A 
ATOM     36  C   UNL     1     109.912  98.746 118.926  1.00  0.00     0.123 A 
ATOM     37  F   UNL     1     108.882  98.579 119.798  1.00  0.00    -0.207 F 
ENDBRANCH  23  31
ENDBRANCH  22  23
ENDBRANCH   1  22
TORSDOF 7
ENDMDL
MODEL 6
REMARK VINA RESULT:      -8.8      0.508      3.909
REMARK SMILES O=C1NCN(c2ccccc2)C12CC[NH+](CCCC(c1ccc(F)cc1)c1ccc(F)cc1)CC2
REMARK SMILES IDX 17 1 16 2 15 3 1 4 2 5 3 6 12 7 4 8 5 9 13 10 35 11 14 12
REMARK SMILES IDX 34 13 6 16 7 17 11 18 8 19 10 20 9 21 18 22 19 23 20 24
REMARK SMILES IDX 21 25 26 26 22 27 25 28 23 29 24 30 27 31 28 32 33 33 29 34
REMARK SMILES IDX 32 35 30 36 31 37
REMARK H PARENT 3 14 15 15
ROOT
ATOM      1  C   UNL     1     112.577  97.618 114.473  1.00  0.00     0.062 C 
ENDROOT
BRANCH   1   2
ATOM      2  C   UNL     1     112.233  96.759 113.292  1.00  0.00     0.262 C 
BRANCH   2   3
ATOM      3  N   UNL     1     112.853  97.292 112.084  1.00  0.00    -0.335 N 
ATOM      4  O   UNL     1     112.406  98.457 109.106  1.00  0.00    -0.272 OA
ATOM      5  C   UNL     1     113.632  98.313 108.916  1.00  0.00     0.247 C 
ATOM      6  N   UNL     1     114.290  98.626 107.714  1.00  0.00    -0.336 N 
ATOM      7  C   UNL     1     114.619  97.782 109.930  1.00  0.00     0.131 C 
ATOM      8  C   UNL     1     115.673  98.768 108.042  1.00  0.00     0.238 C 
ATOM      9  N   UNL     1     115.867  97.848 109.174  1.00  0.00    -0.339 N 
ATOM     10  C   UNL     1     114.236  96.359 110.282  1.00  0.00     0.100 C 
ATOM     11  C   UNL     1     114.579  98.681 111.114  1.00  0.00     0.100 C 
ATOM     12  C   UNL     1     112.920  96.310 111.022  1.00  0.00     0.265 C 
ATOM     13  C   UNL     1     114.123  97.927 112.320  1.00  0.00     0.265 C 
ATOM     14  H   UNL     1     113.828  98.731 106.770  1.00  0.00     0.165 HD
ATOM     15  H   UNL     1     112.192  98.034 111.768  1.00  0.00     0.348 HD
BRANCH   9  16
ATOM     16  C   UNL     1     117.104  97.185 109.375  1.00  0.00     0.039 A 
ATOM     17  C   UNL     1     117.438  96.069 108.645  1.00  0.00     0.026 A 
ATOM     18  C   UNL     1     117.988  97.668 110.290  1.00  0.00     0.026 A 
ATOM     19  C   UNL     1     118.663  95.419 108.821  1.00  0.00     0.002 A 
ATOM     20  C   UNL     1     119.192  97.047 110.478  1.00  0.00     0.002 A 
ATOM     21  C   UNL     1     119.535  95.934 109.756  1.00  0.00     0.000 A 
ENDBRANCH   9  16
ENDBRANCH   2   3
ENDBRANCH   1   2
BRANCH   1  22
ATOM     22  C   UNL     1     113.191  96.953 115.628  1.00  0.00     0.019 C 
BRANCH  22  23
ATOM     23  C   UNL     1     113.348  97.603 116.922  1.00  0.00     0.049 C 
BRANCH  23  24
ATOM     24  C   UNL     1     114.506  98.560 117.033  1.00  0.00    -0.040 A 
ATOM     25  C   UNL     1     115.628  98.098 117.684  1.00  0.00     0.007 A 
ATOM     26  C   UNL     1     114.458  99.838 116.543  1.00  0.00     0.007 A 
ATOM     27  C   UNL     1     116.716  98.917 117.848  1.00  0.00     0.039 A 
ATOM     28  C   UNL     1     115.546 100.652 116.708  1.00  0.00     0.039 A 
ATOM     29  C   UNL     1     116.699 100.206 117.365  1.00  0.00     0.123 A 
ATOM     30  F   UNL     1     117.781 101.007 117.533  1.00  0.00    -0.207 F 
ENDBRANCH  23  24
BRANCH  23  31
ATOM     31  C   UNL     1     112.194  98.108 117.646  1.00  0.00    -0.040 A 
ATOM     32  C   UNL     1     112.138  99.241 118.409  1.00  0.00     0.007 A 
ATOM     33  C   UNL     1     111.036  97.326 117.550  1.00  0.00     0.007 A 
ATOM     34  C   UNL     1     110.938  99.564 119.055  1.00  0.00     0.039 A 
ATOM     35  C   UNL     1     109.867  97.629 118.170  1.00  0.00     0.039 A 
ATOM     36  C   UNL     1     109.825  98.771 118.935  1.00  0.00     0.123 A 
ATOM     37  F   UNL     1     108.647  99.063 119.550  1.00  0.00    -0.207 F 
ENDBRANCH  23  31
ENDBRANCH  22  23
ENDBRANCH   1  22
TORSDOF 7
ENDMDL
MODEL 7
REMARK VINA RESULT:      -8.7      1.216      1.772
REMARK SMILES O=C1NCN(c2ccccc2)C12CC[NH+](CCCC(c1ccc(F)cc1)c1ccc(F)cc1)CC2
REMARK SMILES IDX 17 1 16 2 15 3 1 4 2 5 3 6 12 7 4 8 5 9 13 10 35 11 14 12
REMARK SMILES IDX 34 13 6 16 7 17 11 18 8 19 10 20 9 21 18 22 19 23 20 24
REMARK SMILES IDX 21 25 26 26 22 27 25 28 23 29 24 30 27 31 28 32 33 33 29 34
REMARK SMILES IDX 32 35 30 36 31 37
REMARK H PARENT 3 14 15 15
ROOT
ATOM      1  C   UNL     1     114.111 100.271 113.995  1.00  0.00     0.062 C 
ENDROOT
BRANCH   1   2
ATOM      2  C   UNL     1     112.876  99.927 113.216  1.00  0.00     0.262 C 
BRANCH   2   3
ATOM      3  N   UNL     1     113.230  99.560 111.849  1.00  0.00    -0.335 N 
ATOM      4  O   UNL     1     112.177  98.908 108.867  1.00  0.00    -0.272 OA
ATOM      5  C   UNL     1     113.313  98.454 108.616  1.00  0.00     0.247 C 
ATOM      6  N   UNL     1     113.691  97.905 107.378  1.00  0.00    -0.336 N 
ATOM      7  C   UNL     1     114.473  98.409 109.584  1.00  0.00     0.131 C 
ATOM      8  C   UNL     1     115.119  97.941 107.345  1.00  0.00     0.238 C 
ATOM      9  N   UNL     1     115.511  97.800 108.756  1.00  0.00    -0.339 N 
ATOM     10  C   UNL     1     114.090  97.533 110.760  1.00  0.00     0.100 C 
ATOM     11  C   UNL     1     114.769  99.806 109.999  1.00  0.00     0.100 C 
ATOM     12  C   UNL     1     112.982  98.160 111.575  1.00  0.00     0.265 C 
ATOM     13  C   UNL     1     114.559  99.962 111.470  1.00  0.00     0.265 C 
ATOM     14  H   UNL     1     113.030  97.547 106.637  1.00  0.00     0.165 HD
ATOM     15  H   UNL     1     112.564 100.105 111.260  1.00  0.00     0.348 HD
BRANCH   9  16
ATOM     16  C   UNL     1     116.714  97.144 109.120  1.00  0.00     0.039 A 
ATOM     17  C   UNL     1     117.633  97.753 109.942  1.00  0.00     0.026 A 
ATOM     18  C   UNL     1     116.959  95.884 108.670  1.00  0.00     0.026 A 
ATOM     19  C   UNL     1     118.814  97.108 110.324  1.00  0.00     0.002 A 
ATOM     20  C   UNL     1     118.107  95.235 109.032  1.00  0.00     0.002 A 
ATOM     21  C   UNL     1     119.030  95.832 109.850  1.00  0.00     0.000 A 
ENDBRANCH   9  16
ENDBRANCH   2   3
ENDBRANCH   1   2
BRANCH   1  22
ATOM     22  C   UNL     1     114.545  99.311 115.017  1.00  0.00     0.019 C 
BRANCH  22  23
ATOM     23  C   UNL     1     114.639  99.651 116.430  1.00  0.00     0.049 C 
BRANCH  23  24
ATOM     24  C   UNL     1     113.414  99.353 117.255  1.00  0.00    -0.040 A 
ATOM     25  C   UNL     1     112.682  98.244 116.894  1.00  0.00     0.007 A 
ATOM     26  C   UNL     1     113.015 100.146 118.297  1.00  0.00     0.007 A 
ATOM     27  C   UNL     1     111.539  97.919 117.581  1.00  0.00     0.039 A 
ATOM     28  C   UNL     1     111.875  99.818 118.980  1.00  0.00     0.039 A 
ATOM     29  C   UNL     1     111.114  98.696 118.634  1.00  0.00     0.123 A 
ATOM     30  F   UNL     1     109.982  98.364 119.306  1.00  0.00    -0.207 F 
ENDBRANCH  23  24
BRANCH  23  31
ATOM     31  C   UNL     1     115.847  99.366 117.186  1.00  0.00    -0.040 A 
ATOM     32  C   UNL     1     116.143  98.208 117.849  1.00  0.00     0.007 A 
ATOM     33  C   UNL     1     116.783 100.408 117.237  1.00  0.00     0.007 A 
ATOM     34  C   UNL     1     117.355  98.117 118.545  1.00  0.00     0.039 A 
ATOM     35  C   UNL     1     117.961 100.331 117.907  1.00  0.00     0.039 A 
ATOM     36  C   UNL     1     118.245  99.161 118.572  1.00  0.00     0.123 A 
ATOM     37  F   UNL     1     119.429  99.098 119.238  1.00  0.00    -0.207 F 
ENDBRANCH  23  31
ENDBRANCH  22  23
ENDBRANCH   1  22
TORSDOF 7
ENDMDL
MODEL 8
REMARK VINA RESULT:      -8.7      0.719      3.866
REMARK SMILES O=C1NCN(c2ccccc2)C12CC[NH+](CCCC(c1ccc(F)cc1)c1ccc(F)cc1)CC2
REMARK SMILES IDX 17 1 16 2 15 3 1 4 2 5 3 6 12 7 4 8 5 9 13 10 35 11 14 12
REMARK SMILES IDX 34 13 6 16 7 17 11 18 8 19 10 20 9 21 18 22 19 23 20 24
REMARK SMILES IDX 21 25 26 26 22 27 25 28 23 29 24 30 27 31 28 32 33 33 29 34
REMARK SMILES IDX 32 35 30 36 31 37
REMARK H PARENT 3 14 15 15
ROOT
ATOM      1  C   UNL     1     113.714  97.762 114.393  1.00  0.00     0.062 C 
ENDROOT
BRANCH   1   2
ATOM      2  C   UNL     1     112.982  98.835 113.643  1.00  0.00     0.262 C 
BRANCH   2   3
ATOM      3  N   UNL     1     113.422  98.866 112.252  1.00  0.00    -0.335 N 
ATOM      4  O   UNL     1     112.559  99.106 109.150  1.00  0.00    -0.272 OA
ATOM      5  C   UNL     1     113.708  98.724 108.849  1.00  0.00     0.247 C 
ATOM      6  N   UNL     1     114.165  98.544 107.531  1.00  0.00    -0.336 N 
ATOM      7  C   UNL     1     114.806  98.388 109.832  1.00  0.00     0.131 C 
ATOM      8  C   UNL     1     115.592  98.566 107.596  1.00  0.00     0.238 C 
ATOM      9  N   UNL     1     115.895  98.023 108.930  1.00  0.00    -0.339 N 
ATOM     10  C   UNL     1     114.352  97.220 110.685  1.00  0.00     0.100 C 
ATOM     11  C   UNL     1     115.073  99.604 110.645  1.00  0.00     0.100 C 
ATOM     12  C   UNL     1     113.195  97.606 111.576  1.00  0.00     0.265 C 
ATOM     13  C   UNL     1     114.771  99.339 112.084  1.00  0.00     0.265 C 
ATOM     14  H   UNL     1     113.552  98.421 106.680  1.00  0.00     0.165 HD
ATOM     15  H   UNL     1     112.792  99.566 111.803  1.00  0.00     0.348 HD
BRANCH   9  16
ATOM     16  C   UNL     1     117.075  97.272 109.164  1.00  0.00     0.039 A 
ATOM     17  C   UNL     1     118.003  97.680 110.092  1.00  0.00     0.026 A 
ATOM     18  C   UNL     1     117.286  96.116 108.478  1.00  0.00     0.026 A 
ATOM     19  C   UNL     1     119.160  96.937 110.347  1.00  0.00     0.002 A 
ATOM     20  C   UNL     1     118.411  95.374 108.711  1.00  0.00     0.002 A 
ATOM     21  C   UNL     1     119.344  95.771 109.634  1.00  0.00     0.000 A 
ENDBRANCH   9  16
ENDBRANCH   2   3
ENDBRANCH   1   2
BRANCH   1  22
ATOM     22  C   UNL     1     113.062  97.220 115.590  1.00  0.00     0.019 C 
BRANCH  22  23
ATOM     23  C   UNL     1     113.270  97.773 116.921  1.00  0.00     0.049 C 
BRANCH  23  24
ATOM     24  C   UNL     1     114.469  98.672 117.073  1.00  0.00    -0.040 A 
ATOM     25  C   UNL     1     115.605  98.101 117.602  1.00  0.00     0.007 A 
ATOM     26  C   UNL     1     114.445  99.998 116.733  1.00  0.00     0.007 A 
ATOM     27  C   UNL     1     116.732  98.860 117.795  1.00  0.00     0.039 A 
ATOM     28  C   UNL     1     115.571 100.752 116.926  1.00  0.00     0.039 A 
ATOM     29  C   UNL     1     116.739 100.196 117.462  1.00  0.00     0.123 A 
ATOM     30  F   UNL     1     117.860 100.936 117.657  1.00  0.00    -0.207 F 
ENDBRANCH  23  24
BRANCH  23  31
ATOM     31  C   UNL     1     112.151  98.274 117.702  1.00  0.00    -0.040 A 
ATOM     32  C   UNL     1     112.157  99.351 118.544  1.00  0.00     0.007 A 
ATOM     33  C   UNL     1     110.958  97.550 117.574  1.00  0.00     0.007 A 
ATOM     34  C   UNL     1     110.984  99.678 119.234  1.00  0.00     0.039 A 
ATOM     35  C   UNL     1     109.814  97.858 118.236  1.00  0.00     0.039 A 
ATOM     36  C   UNL     1     109.835  98.943 119.081  1.00  0.00     0.123 A 
ATOM     37  F   UNL     1     108.682  99.240 119.738  1.00  0.00    -0.207 F 
ENDBRANCH  23  31
ENDBRANCH  22  23
ENDBRANCH   1  22
TORSDOF 7
ENDMDL
MODEL 9
REMARK VINA RESULT:      -8.7      1.357      4.190
REMARK SMILES O=C1NCN(c2ccccc2)C12CC[NH+](CCCC(c1ccc(F)cc1)c1ccc(F)cc1)CC2
REMARK SMILES IDX 17 1 16 2 15 3 1 4 2 5 3 6 12 7 4 8 5 9 13 10 35 11 14 12
REMARK SMILES IDX 34 13 6 16 7 17 11 18 8 19 10 20 9 21 18 22 19 23 20 24
REMARK SMILES IDX 21 25 26 26 22 27 25 28 23 29 24 30 27 31 28 32 33 33 29 34
REMARK SMILES IDX 32 35 30 36 31 37
REMARK H PARENT 3 14 15 15
ROOT
ATOM      1  C   UNL     1     113.466  99.573 114.036  1.00  0.00     0.062 C 
ENDROOT
BRANCH   1   2
ATOM      2  C   UNL     1     113.514 100.393 112.781  1.00  0.00     0.262 C 
BRANCH   2   3
ATOM      3  N   UNL     1     113.490  99.523 111.610  1.00  0.00    -0.335 N 
ATOM      4  O   UNL     1     111.699  97.715 109.623  1.00  0.00    -0.272 OA
ATOM      5  C   UNL     1     112.761  97.227 109.185  1.00  0.00     0.247 C 
ATOM      6  N   UNL     1     112.827  96.242 108.183  1.00  0.00    -0.336 N 
ATOM      7  C   UNL     1     114.152  97.600 109.644  1.00  0.00     0.131 C 
ATOM      8  C   UNL     1     114.154  96.299 107.655  1.00  0.00     0.238 C 
ATOM      9  N   UNL     1     114.972  96.739 108.796  1.00  0.00    -0.339 N 
ATOM     10  C   UNL     1     114.287  97.253 111.113  1.00  0.00     0.100 C 
ATOM     11  C   UNL     1     114.337  99.054 109.393  1.00  0.00     0.100 C 
ATOM     12  C   UNL     1     113.394  98.123 111.968  1.00  0.00     0.265 C 
ATOM     13  C   UNL     1     114.561  99.776 110.682  1.00  0.00     0.265 C 
ATOM     14  H   UNL     1     112.038  95.602 107.898  1.00  0.00     0.165 HD
ATOM     15  H   UNL     1     112.599  99.772 111.128  1.00  0.00     0.348 HD
BRANCH   9  16
ATOM     16  C   UNL     1     116.317  96.313 108.941  1.00  0.00     0.039 A 
ATOM     17  C   UNL     1     116.819  95.280 108.186  1.00  0.00     0.026 A 
ATOM     18  C   UNL     1     117.134  96.947 109.825  1.00  0.00     0.026 A 
ATOM     19  C   UNL     1     118.149  94.864 108.306  1.00  0.00     0.002 A 
ATOM     20  C   UNL     1     118.438  96.557 109.958  1.00  0.00     0.002 A 
ATOM     21  C   UNL     1     118.950  95.528 109.211  1.00  0.00     0.000 A 
ENDBRANCH   9  16
ENDBRANCH   2   3
ENDBRANCH   1   2
BRANCH   1  22
ATOM     22  C   UNL     1     114.463  99.875 115.070  1.00  0.00     0.019 C 
BRANCH  22  23
ATOM     23  C   UNL     1     114.477  99.216 116.369  1.00  0.00     0.049 C 
BRANCH  23  24
ATOM     24  C   UNL     1     115.778  99.293 117.124  1.00  0.00    -0.040 A 
ATOM     25  C   UNL     1     116.153  98.168 117.823  1.00  0.00     0.007 A 
ATOM     26  C   UNL     1     116.551 100.423 117.149  1.00  0.00     0.007 A 
ATOM     27  C   UNL     1     117.313  98.167 118.556  1.00  0.00     0.039 A 
ATOM     28  C   UNL     1     117.707 100.418 117.881  1.00  0.00     0.039 A 
ATOM     29  C   UNL     1     118.112  99.287 118.600  1.00  0.00     0.123 A 
ATOM     30  F   UNL     1     119.257  99.274 119.329  1.00  0.00    -0.207 F 
ENDBRANCH  23  24
BRANCH  23  31
ATOM     31  C   UNL     1     113.348  99.337 117.277  1.00  0.00    -0.040 A 
ATOM     32  C   UNL     1     113.208 100.242 118.291  1.00  0.00     0.007 A 
ATOM     33  C   UNL     1     112.319  98.407 117.081  1.00  0.00     0.007 A 
ATOM     34  C   UNL     1     112.054 100.198 119.083  1.00  0.00     0.039 A 
ATOM     35  C   UNL     1     111.195  98.356 117.841  1.00  0.00     0.039 A 
ATOM     36  C   UNL     1     111.067  99.271 118.859  1.00  0.00     0.123 A 
ATOM     37  F   UNL     1     109.936  99.208 119.612  1.00  0.00    -0.207 F 
ENDBRANCH  23  31
ENDBRANCH  22  23
ENDBRANCH   1  22
TORSDOF 7
ENDMDL
