MODEL 1
REMARK VINA RESULT:      -5.2      0.000      0.000
REMARK SMILES O=c1c([O-])c(-c2ccccc2)oc2cc([O-])cc([O-])c12
REMARK SMILES IDX 1 1 2 2 3 3 4 4 5 5 12 6 13 7 14 8 15 9 16 10 17 11 18 12
REMARK SMILES IDX 19 13 20 14 6 15 7 16 11 17 8 18 10 19 9 20
REMARK H PARENT
ROOT
ATOM      1  O   UNL     1      16.611  17.456   2.962  1.00  0.00    -0.290 OA
ATOM      2  C   UNL     1      15.809  18.404   2.825  1.00  0.00     0.184 A 
ATOM      3  C   UNL     1      14.973  18.361   1.689  1.00  0.00    -0.014 A 
ATOM      4  O   UNL     1      15.074  17.315   0.814  1.00  0.00    -0.867 OA
ATOM      5  C   UNL     1      14.086  19.382   1.511  1.00  0.00     0.130 A 
ATOM      6  O   UNL     1      14.050  20.378   2.420  1.00  0.00    -0.457 OA
ATOM      7  C   UNL     1      14.805  20.425   3.453  1.00  0.00     0.137 A 
ATOM      8  C   UNL     1      14.719  21.463   4.339  1.00  0.00     0.039 A 
ATOM      9  C   UNL     1      15.516  21.544   5.461  1.00  0.00    -0.106 A 
ATOM     10  O   UNL     1      15.404  22.617   6.346  1.00  0.00    -0.872 OA
ATOM     11  C   UNL     1      16.444  20.528   5.699  1.00  0.00    -0.016 A 
ATOM     12  C   UNL     1      16.556  19.474   4.831  1.00  0.00    -0.094 A 
ATOM     13  O   UNL     1      17.476  18.476   5.074  1.00  0.00    -0.872 OA
ATOM     14  C   UNL     1      15.739  19.439   3.729  1.00  0.00     0.056 A 
ENDROOT
BRANCH   5  15
ATOM     15  C   UNL     1      13.176  19.450   0.383  1.00  0.00     0.017 A 
ATOM     16  C   UNL     1      13.474  19.731  -0.913  1.00  0.00     0.012 A 
ATOM     17  C   UNL     1      11.815  19.199   0.628  1.00  0.00     0.012 A 
ATOM     18  C   UNL     1      12.525  19.771  -1.923  1.00  0.00     0.001 A 
ATOM     19  C   UNL     1      10.861  19.235  -0.363  1.00  0.00     0.001 A 
ATOM     20  C   UNL     1      11.206  19.524  -1.662  1.00  0.00     0.000 A 
ENDBRANCH   5  15
TORSDOF 1
ENDMDL
MODEL 2
REMARK VINA RESULT:      -5.2      6.998     10.222
REMARK SMILES O=c1c([O-])c(-c2ccccc2)oc2cc([O-])cc([O-])c12
REMARK SMILES IDX 1 1 2 2 3 3 4 4 5 5 12 6 13 7 14 8 15 9 16 10 17 11 18 12
REMARK SMILES IDX 19 13 20 14 6 15 7 16 11 17 8 18 10 19 9 20
REMARK H PARENT
ROOT
ATOM      1  O   UNL     1      12.054  23.546  -6.365  1.00  0.00    -0.290 OA
ATOM      2  C   UNL     1      11.209  22.645  -6.183  1.00  0.00     0.184 A 
ATOM      3  C   UNL     1      10.157  22.570  -7.120  1.00  0.00    -0.014 A 
ATOM      4  O   UNL     1      10.109  23.462  -8.155  1.00  0.00    -0.867 OA
ATOM      5  C   UNL     1       9.218  21.596  -6.949  1.00  0.00     0.130 A 
ATOM      6  O   UNL     1       9.336  20.756  -5.900  1.00  0.00    -0.457 OA
ATOM      7  C   UNL     1      10.287  20.816  -5.046  1.00  0.00     0.137 A 
ATOM      8  C   UNL     1      10.352  19.932  -4.003  1.00  0.00     0.039 A 
ATOM      9  C   UNL     1      11.362  19.969  -3.066  1.00  0.00    -0.106 A 
ATOM     10  O   UNL     1      11.400  19.054  -2.014  1.00  0.00    -0.872 OA
ATOM     11  C   UNL     1      12.355  20.944  -3.187  1.00  0.00    -0.016 A 
ATOM     12  C   UNL     1      12.320  21.845  -4.220  1.00  0.00    -0.094 A 
ATOM     13  O   UNL     1      13.303  22.804  -4.331  1.00  0.00    -0.872 OA
ATOM     14  C   UNL     1      11.293  21.766  -5.127  1.00  0.00     0.056 A 
ENDROOT
BRANCH   5  15
ATOM     15  C   UNL     1       8.089  21.419  -7.845  1.00  0.00     0.017 A 
ATOM     16  C   UNL     1       8.029  21.697  -9.173  1.00  0.00     0.012 A 
ATOM     17  C   UNL     1       6.902  20.899  -7.301  1.00  0.00     0.012 A 
ATOM     18  C   UNL     1       6.896  21.490  -9.946  1.00  0.00     0.001 A 
ATOM     19  C   UNL     1       5.769  20.688  -8.054  1.00  0.00     0.001 A 
ATOM     20  C   UNL     1       5.750  20.983  -9.397  1.00  0.00     0.000 A 
ENDBRANCH   5  15
TORSDOF 1
ENDMDL
MODEL 3
REMARK VINA RESULT:      -5.2      5.131      7.904
REMARK SMILES O=c1c([O-])c(-c2ccccc2)oc2cc([O-])cc([O-])c12
REMARK SMILES IDX 1 1 2 2 3 3 4 4 5 5 12 6 13 7 14 8 15 9 16 10 17 11 18 12
REMARK SMILES IDX 19 13 20 14 6 15 7 16 11 17 8 18 10 19 9 20
REMARK H PARENT
ROOT
ATOM      1  O   UNL     1       9.902  18.978  -3.690  1.00  0.00    -0.290 OA
ATOM      2  C   UNL     1      10.692  19.944  -3.732  1.00  0.00     0.184 A 
ATOM      3  C   UNL     1      10.532  20.842  -4.809  1.00  0.00    -0.014 A 
ATOM      4  O   UNL     1       9.548  20.620  -5.733  1.00  0.00    -0.867 OA
ATOM      5  C   UNL     1      11.379  21.908  -4.883  1.00  0.00     0.130 A 
ATOM      6  O   UNL     1      12.324  22.055  -3.931  1.00  0.00    -0.457 OA
ATOM      7  C   UNL     1      12.476  21.245  -2.951  1.00  0.00     0.137 A 
ATOM      8  C   UNL     1      13.454  21.450  -2.017  1.00  0.00     0.039 A 
ATOM      9  C   UNL     1      13.646  20.599  -0.949  1.00  0.00    -0.106 A 
ATOM     10  O   UNL     1      14.653  20.835  -0.013  1.00  0.00    -0.872 OA
ATOM     11  C   UNL     1      12.809  19.488  -0.819  1.00  0.00    -0.016 A 
ATOM     12  C   UNL     1      11.819  19.254  -1.737  1.00  0.00    -0.094 A 
ATOM     13  O   UNL     1      10.999  18.155  -1.600  1.00  0.00    -0.872 OA
ATOM     14  C   UNL     1      11.669  20.131  -2.782  1.00  0.00     0.056 A 
ENDROOT
BRANCH   5  15
ATOM     15  C   UNL     1      11.314  22.898  -5.942  1.00  0.00     0.017 A 
ATOM     16  C   UNL     1      10.519  23.999  -6.006  1.00  0.00     0.012 A 
ATOM     17  C   UNL     1      12.164  22.725  -7.047  1.00  0.00     0.012 A 
ATOM     18  C   UNL     1      10.534  24.890  -7.069  1.00  0.00     0.001 A 
ATOM     19  C   UNL     1      12.191  23.600  -8.110  1.00  0.00     0.001 A 
ATOM     20  C   UNL     1      11.369  24.702  -8.135  1.00  0.00     0.000 A 
ENDBRANCH   5  15
TORSDOF 1
ENDMDL
MODEL 4
REMARK VINA RESULT:      -5.2      3.856      4.787
REMARK SMILES O=c1c([O-])c(-c2ccccc2)oc2cc([O-])cc([O-])c12
REMARK SMILES IDX 1 1 2 2 3 3 4 4 5 5 12 6 13 7 14 8 15 9 16 10 17 11 18 12
REMARK SMILES IDX 19 13 20 14 6 15 7 16 11 17 8 18 10 19 9 20
REMARK H PARENT
ROOT
ATOM      1  O   UNL     1      16.582  21.001   3.881  1.00  0.00    -0.290 OA
ATOM      2  C   UNL     1      16.445  22.089   3.284  1.00  0.00     0.184 A 
ATOM      3  C   UNL     1      16.431  22.036   1.875  1.00  0.00    -0.014 A 
ATOM      4  O   UNL     1      16.566  20.831   1.242  1.00  0.00    -0.867 OA
ATOM      5  C   UNL     1      16.282  23.208   1.193  1.00  0.00     0.130 A 
ATOM      6  O   UNL     1      16.156  24.355   1.892  1.00  0.00    -0.457 OA
ATOM      7  C   UNL     1      16.168  24.412   3.171  1.00  0.00     0.137 A 
ATOM      8  C   UNL     1      16.034  25.608   3.822  1.00  0.00     0.039 A 
ATOM      9  C   UNL     1      16.042  25.705   5.197  1.00  0.00    -0.106 A 
ATOM     10  O   UNL     1      15.905  26.940   5.831  1.00  0.00    -0.872 OA
ATOM     11  C   UNL     1      16.191  24.539   5.951  1.00  0.00    -0.016 A 
ATOM     12  C   UNL     1      16.327  23.325   5.330  1.00  0.00    -0.094 A 
ATOM     13  O   UNL     1      16.474  22.179   6.083  1.00  0.00    -0.872 OA
ATOM     14  C   UNL     1      16.312  23.281   3.959  1.00  0.00     0.056 A 
ENDROOT
BRANCH   5  15
ATOM     15  C   UNL     1      16.253  23.282  -0.256  1.00  0.00     0.017 A 
ATOM     16  C   UNL     1      15.164  23.284  -1.069  1.00  0.00     0.012 A 
ATOM     17  C   UNL     1      17.485  23.364  -0.928  1.00  0.00     0.012 A 
ATOM     18  C   UNL     1      15.244  23.360  -2.451  1.00  0.00     0.001 A 
ATOM     19  C   UNL     1      17.581  23.440  -2.299  1.00  0.00     0.001 A 
ATOM     20  C   UNL     1      16.453  23.439  -3.085  1.00  0.00     0.000 A 
ENDBRANCH   5  15
TORSDOF 1
ENDMDL
MODEL 5
REMARK VINA RESULT:      -5.2      2.205      6.442
REMARK SMILES O=c1c([O-])c(-c2ccccc2)oc2cc([O-])cc([O-])c12
REMARK SMILES IDX 1 1 2 2 3 3 4 4 5 5 12 6 13 7 14 8 15 9 16 10 17 11 18 12
REMARK SMILES IDX 19 13 20 14 6 15 7 16 11 17 8 18 10 19 9 20
REMARK H PARENT
ROOT
ATOM      1  O   UNL     1      15.391  22.172  -0.652  1.00  0.00    -0.290 OA
ATOM      2  C   UNL     1      14.778  21.384   0.099  1.00  0.00     0.184 A 
ATOM      3  C   UNL     1      15.245  21.288   1.426  1.00  0.00    -0.014 A 
ATOM      4  O   UNL     1      16.317  22.040   1.822  1.00  0.00    -0.867 OA
ATOM      5  C   UNL     1      14.597  20.437   2.271  1.00  0.00     0.130 A 
ATOM      6  O   UNL     1      13.548  19.729   1.803  1.00  0.00    -0.457 OA
ATOM      7  C   UNL     1      13.118  19.810   0.599  1.00  0.00     0.137 A 
ATOM      8  C   UNL     1      12.047  19.066   0.185  1.00  0.00     0.039 A 
ATOM      9  C   UNL     1      11.558  19.129  -1.102  1.00  0.00    -0.106 A 
ATOM     10  O   UNL     1      10.464  18.357  -1.494  1.00  0.00    -0.872 OA
ATOM     11  C   UNL     1      12.180  19.984  -2.015  1.00  0.00    -0.016 A 
ATOM     12  C   UNL     1      13.255  20.743  -1.632  1.00  0.00    -0.094 A 
ATOM     13  O   UNL     1      13.862  21.583  -2.540  1.00  0.00    -0.872 OA
ATOM     14  C   UNL     1      13.703  20.645  -0.339  1.00  0.00     0.056 A 
ENDROOT
BRANCH   5  15
ATOM     15  C   UNL     1      14.983  20.251   3.658  1.00  0.00     0.017 A 
ATOM     16  C   UNL     1      14.552  20.946   4.743  1.00  0.00     0.012 A 
ATOM     17  C   UNL     1      15.913  19.237   3.944  1.00  0.00     0.012 A 
ATOM     18  C   UNL     1      14.985  20.689   6.035  1.00  0.00     0.001 A 
ATOM     19  C   UNL     1      16.353  18.969   5.221  1.00  0.00     0.001 A 
ATOM     20  C   UNL     1      15.891  19.698   6.292  1.00  0.00     0.000 A 
ENDBRANCH   5  15
TORSDOF 1
ENDMDL
MODEL 6
REMARK VINA RESULT:      -5.1      1.798      5.977
REMARK SMILES O=c1c([O-])c(-c2ccccc2)oc2cc([O-])cc([O-])c12
REMARK SMILES IDX 1 1 2 2 3 3 4 4 5 5 12 6 13 7 14 8 15 9 16 10 17 11 18 12
REMARK SMILES IDX 19 13 20 14 6 15 7 16 11 17 8 18 10 19 9 20
REMARK H PARENT
ROOT
ATOM      1  O   UNL     1      16.115  17.034   0.148  1.00  0.00    -0.290 OA
ATOM      2  C   UNL     1      15.298  17.808   0.689  1.00  0.00     0.184 A 
ATOM      3  C   UNL     1      15.699  18.398   1.906  1.00  0.00    -0.014 A 
ATOM      4  O   UNL     1      16.931  18.105   2.425  1.00  0.00    -0.867 OA
ATOM      5  C   UNL     1      14.829  19.248   2.521  1.00  0.00     0.130 A 
ATOM      6  O   UNL     1      13.632  19.483   1.944  1.00  0.00    -0.457 OA
ATOM      7  C   UNL     1      13.260  18.952   0.840  1.00  0.00     0.137 A 
ATOM      8  C   UNL     1      12.032  19.232   0.305  1.00  0.00     0.039 A 
ATOM      9  C   UNL     1      11.599  18.678  -0.880  1.00  0.00    -0.106 A 
ATOM     10  O   UNL     1      10.341  18.984  -1.400  1.00  0.00    -0.872 OA
ATOM     11  C   UNL     1      12.447  17.800  -1.559  1.00  0.00    -0.016 A 
ATOM     12  C   UNL     1      13.683  17.497  -1.050  1.00  0.00    -0.094 A 
ATOM     13  O   UNL     1      14.513  16.629  -1.727  1.00  0.00    -0.872 OA
ATOM     14  C   UNL     1      14.067  18.076   0.133  1.00  0.00     0.056 A 
ENDROOT
BRANCH   5  15
ATOM     15  C   UNL     1      15.127  19.915   3.776  1.00  0.00     0.017 A 
ATOM     16  C   UNL     1      15.444  21.221   3.969  1.00  0.00     0.012 A 
ATOM     17  C   UNL     1      15.090  19.141   4.948  1.00  0.00     0.012 A 
ATOM     18  C   UNL     1      15.713  21.765   5.217  1.00  0.00     0.001 A 
ATOM     19  C   UNL     1      15.354  19.665   6.193  1.00  0.00     0.001 A 
ATOM     20  C   UNL     1      15.672  20.994   6.346  1.00  0.00     0.000 A 
ENDBRANCH   5  15
TORSDOF 1
ENDMDL
MODEL 7
REMARK VINA RESULT:      -5.1      4.221      6.528
REMARK SMILES O=c1c([O-])c(-c2ccccc2)oc2cc([O-])cc([O-])c12
REMARK SMILES IDX 1 1 2 2 3 3 4 4 5 5 12 6 13 7 14 8 15 9 16 10 17 11 18 12
REMARK SMILES IDX 19 13 20 14 6 15 7 16 11 17 8 18 10 19 9 20
REMARK H PARENT
ROOT
ATOM      1  O   UNL     1      11.079  19.612  -1.350  1.00  0.00    -0.290 OA
ATOM      2  C   UNL     1      11.452  18.423  -1.431  1.00  0.00     0.184 A 
ATOM      3  C   UNL     1      10.756  17.605  -2.344  1.00  0.00    -0.014 A 
ATOM      4  O   UNL     1       9.732  18.134  -3.081  1.00  0.00    -0.867 OA
ATOM      5  C   UNL     1      11.140  16.301  -2.456  1.00  0.00     0.130 A 
ATOM      6  O   UNL     1      12.159  15.856  -1.692  1.00  0.00    -0.457 OA
ATOM      7  C   UNL     1      12.797  16.592  -0.861  1.00  0.00     0.137 A 
ATOM      8  C   UNL     1      13.824  16.081  -0.115  1.00  0.00     0.039 A 
ATOM      9  C   UNL     1      14.531  16.844   0.789  1.00  0.00    -0.106 A 
ATOM     10  O   UNL     1      15.574  16.293   1.535  1.00  0.00    -0.872 OA
ATOM     11  C   UNL     1      14.186  18.188   0.947  1.00  0.00    -0.016 A 
ATOM     12  C   UNL     1      13.161  18.731   0.216  1.00  0.00    -0.094 A 
ATOM     13  O   UNL     1      12.827  20.058   0.380  1.00  0.00    -0.872 OA
ATOM     14  C   UNL     1      12.489  17.929  -0.671  1.00  0.00     0.056 A 
ENDROOT
BRANCH   5  15
ATOM     15  C   UNL     1      10.500  15.362  -3.359  1.00  0.00     0.017 A 
ATOM     16  C   UNL     1      10.625  15.290  -4.710  1.00  0.00     0.012 A 
ATOM     17  C   UNL     1       9.644  14.400  -2.798  1.00  0.00     0.012 A 
ATOM     18  C   UNL     1       9.968  14.348  -5.488  1.00  0.00     0.001 A 
ATOM     19  C   UNL     1       8.984  13.459  -3.556  1.00  0.00     0.001 A 
ATOM     20  C   UNL     1       9.138  13.420  -4.922  1.00  0.00     0.000 A 
ENDBRANCH   5  15
TORSDOF 1
ENDMDL
MODEL 8
REMARK VINA RESULT:      -5.1      6.207      9.458
REMARK SMILES O=c1c([O-])c(-c2ccccc2)oc2cc([O-])cc([O-])c12
REMARK SMILES IDX 1 1 2 2 3 3 4 4 5 5 12 6 13 7 14 8 15 9 16 10 17 11 18 12
REMARK SMILES IDX 19 13 20 14 6 15 7 16 11 17 8 18 10 19 9 20
REMARK H PARENT
ROOT
ATOM      1  O   UNL     1      12.343  23.152  -4.974  1.00  0.00    -0.290 OA
ATOM      2  C   UNL     1      11.503  22.231  -5.045  1.00  0.00     0.184 A 
ATOM      3  C   UNL     1      10.592  22.292  -6.121  1.00  0.00    -0.014 A 
ATOM      4  O   UNL     1      10.667  23.326  -7.013  1.00  0.00    -0.867 OA
ATOM      5  C   UNL     1       9.662  21.300  -6.227  1.00  0.00     0.130 A 
ATOM      6  O   UNL     1       9.654  20.316  -5.305  1.00  0.00    -0.457 OA
ATOM      7  C   UNL     1      10.476  20.253  -4.325  1.00  0.00     0.137 A 
ATOM      8  C   UNL     1      10.417  19.226  -3.423  1.00  0.00     0.039 A 
ATOM      9  C   UNL     1      11.286  19.128  -2.358  1.00  0.00    -0.106 A 
ATOM     10  O   UNL     1      11.199  18.068  -1.454  1.00  0.00    -0.872 OA
ATOM     11  C   UNL     1      12.262  20.113  -2.196  1.00  0.00    -0.016 A 
ATOM     12  C   UNL     1      12.349  21.155  -3.082  1.00  0.00    -0.094 A 
ATOM     13  O   UNL     1      13.316  22.123  -2.914  1.00  0.00    -0.872 OA
ATOM     14  C   UNL     1      11.460  21.207  -4.126  1.00  0.00     0.056 A 
ENDROOT
BRANCH   5  15
ATOM     15  C   UNL     1       8.672  21.254  -7.288  1.00  0.00     0.017 A 
ATOM     16  C   UNL     1       7.323  21.158  -7.165  1.00  0.00     0.012 A 
ATOM     17  C   UNL     1       9.136  21.314  -8.613  1.00  0.00     0.012 A 
ATOM     18  C   UNL     1       6.458  21.122  -8.248  1.00  0.00     0.001 A 
ATOM     19  C   UNL     1       8.292  21.279  -9.699  1.00  0.00     0.001 A 
ATOM     20  C   UNL     1       6.930  21.182  -9.530  1.00  0.00     0.000 A 
ENDBRANCH   5  15
TORSDOF 1
ENDMDL
MODEL 9
REMARK VINA RESULT:      -5.0      5.432      9.359
REMARK SMILES O=c1c([O-])c(-c2ccccc2)oc2cc([O-])cc([O-])c12
REMARK SMILES IDX 1 1 2 2 3 3 4 4 5 5 12 6 13 7 14 8 15 9 16 10 17 11 18 12
REMARK SMILES IDX 19 13 20 14 6 15 7 16 11 17 8 18 10 19 9 20
REMARK H PARENT
ROOT
ATOM      1  O   UNL     1      13.169  22.975  -4.825  1.00  0.00    -0.290 OA
ATOM      2  C   UNL     1      12.292  22.119  -4.589  1.00  0.00     0.184 A 
ATOM      3  C   UNL     1      12.534  21.252  -3.503  1.00  0.00    -0.014 A 
ATOM      4  O   UNL     1      13.685  21.384  -2.776  1.00  0.00    -0.867 OA
ATOM      5  C   UNL     1      11.594  20.305  -3.219  1.00  0.00     0.130 A 
ATOM      6  O   UNL     1      10.485  20.240  -3.985  1.00  0.00    -0.457 OA
ATOM      7  C   UNL     1      10.257  21.022  -4.972  1.00  0.00     0.137 A 
ATOM      8  C   UNL     1       9.111  20.906  -5.710  1.00  0.00     0.039 A 
ATOM      9  C   UNL     1       8.834  21.731  -6.779  1.00  0.00    -0.106 A 
ATOM     10  O   UNL     1       7.656  21.587  -7.512  1.00  0.00    -0.872 OA
ATOM     11  C   UNL     1       9.758  22.722  -7.119  1.00  0.00    -0.016 A 
ATOM     12  C   UNL     1      10.917  22.865  -6.400  1.00  0.00    -0.094 A 
ATOM     13  O   UNL     1      11.823  23.845  -6.743  1.00  0.00    -0.872 OA
ATOM     14  C   UNL     1      11.145  22.019  -5.344  1.00  0.00     0.056 A 
ENDROOT
BRANCH   5  15
ATOM     15  C   UNL     1      11.730  19.357  -2.128  1.00  0.00     0.017 A 
ATOM     16  C   UNL     1      11.474  19.561  -0.810  1.00  0.00     0.012 A 
ATOM     17  C   UNL     1      12.178  18.063  -2.444  1.00  0.00     0.012 A 
ATOM     18  C   UNL     1      11.636  18.583   0.160  1.00  0.00     0.001 A 
ATOM     19  C   UNL     1      12.344  17.081  -1.494  1.00  0.00     0.001 A 
ATOM     20  C   UNL     1      12.074  17.330  -0.168  1.00  0.00     0.000 A 
ENDBRANCH   5  15
TORSDOF 1
ENDMDL
