MODEL 1
REMARK VINA RESULT:      -5.2      0.000      0.000
REMARK SMILES COC(=O)C1=C(C)[NH2+]C(C)=C(C(=O)OCCC[NH+]2CCC(c3ccccc3)(c3ccccc3)CC2)C1c1cccc([N+](=O)[O-])c1
REMARK SMILES IDX 14 1 12 2 13 3 11 4 5 5 6 6 36 7 8 8 9 9 7 10 10 13 3 14
REMARK SMILES IDX 4 15 2 16 1 17 37 18 38 19 45 20 39 21 41 22 40 23 42 24
REMARK SMILES IDX 43 25 44 26 15 27 16 28 17 29 18 30 19 31 35 32 20 33 34 34
REMARK SMILES IDX 21 35 22 37 23 38 27 39 24 40 26 41 25 42 28 43 29 44 33 45
REMARK SMILES IDX 30 46 32 47 31 48
REMARK H PARENT 8 11 8 12 18 36
ROOT
ATOM      1  O   UNL     1     -29.832  21.718  34.521  1.00  0.00    -0.462 OA
ENDROOT
BRANCH   1   2
ATOM      2  C   UNL     1     -29.050  20.671  34.061  1.00  0.00     0.340 C 
ATOM      3  O   UNL     1     -29.523  19.910  33.214  1.00  0.00    -0.246 OA
BRANCH   2   4
ATOM      4  C   UNL     1     -27.688  20.467  34.564  1.00  0.00     0.106 C 
ATOM      5  C   UNL     1     -25.473  21.445  35.098  1.00  0.00     0.106 C 
ATOM      6  C   UNL     1     -25.248  20.380  35.875  1.00  0.00     0.119 C 
ATOM      7  C   UNL     1     -26.614  21.414  34.160  1.00  0.00     0.106 C 
ATOM      8  N   UNL     1     -26.064  19.224  35.868  1.00  0.00    -0.288 N 
ATOM      9  C   UNL     1     -27.378  19.464  35.353  1.00  0.00     0.119 C 
ATOM     10  C   UNL     1     -24.072  20.450  36.812  1.00  0.00     0.112 C 
ATOM     11  H   UNL     1     -25.613  18.379  35.460  1.00  0.00     0.357 HD
ATOM     12  H   UNL     1     -26.194  18.966  36.898  1.00  0.00     0.357 HD
ATOM     13  C   UNL     1     -28.427  18.486  35.769  1.00  0.00     0.112 C 
BRANCH   5  14
ATOM     14  C   UNL     1     -24.621  22.613  35.164  1.00  0.00     0.340 C 
ATOM     15  O   UNL     1     -23.576  22.774  34.467  1.00  0.00    -0.246 OA
BRANCH  14  16
ATOM     16  O   UNL     1     -24.961  23.638  36.053  1.00  0.00    -0.465 OA
ATOM     17  C   UNL     1     -24.021  24.044  37.040  1.00  0.00     0.282 C 
ENDBRANCH  14  16
ENDBRANCH   5  14
BRANCH   7  18
ATOM     18  C   UNL     1     -26.084  21.063  32.803  1.00  0.00    -0.028 A 
ATOM     19  C   UNL     1     -26.162  21.929  31.734  1.00  0.00     0.005 A 
ATOM     20  C   UNL     1     -25.513  19.834  32.623  1.00  0.00     0.090 A 
ATOM     21  C   UNL     1     -25.654  21.512  30.514  1.00  0.00     0.007 A 
ATOM     22  C   UNL     1     -25.006  19.430  31.387  1.00  0.00     0.269 A 
ATOM     23  C   UNL     1     -25.075  20.274  30.316  1.00  0.00     0.085 A 
BRANCH  22  24
ATOM     24  N   UNL     1     -24.413  18.144  31.207  1.00  0.00     0.062 N 
ATOM     25  O   UNL     1     -23.662  17.671  32.070  1.00  0.00    -0.258 OA
ATOM     26  O   UNL     1     -24.658  17.409  30.082  1.00  0.00    -0.258 OA
ENDBRANCH  22  24
ENDBRANCH   7  18
ENDBRANCH   2   4
ENDBRANCH   1   2
BRANCH   1  27
ATOM     27  C   UNL     1     -30.197  21.855  35.889  1.00  0.00     0.239 C 
BRANCH  27  28
ATOM     28  C   UNL     1     -29.768  23.210  36.368  1.00  0.00     0.103 C 
BRANCH  28  29
ATOM     29  C   UNL     1     -28.456  23.256  37.050  1.00  0.00     0.265 C 
BRANCH  29  30
ATOM     30  N   UNL     1     -28.214  24.531  37.691  1.00  0.00    -0.335 N 
ATOM     31  C   UNL     1     -28.375  24.521  39.102  1.00  0.00     0.263 C 
ATOM     32  C   UNL     1     -29.074  25.564  37.151  1.00  0.00     0.263 C 
ATOM     33  C   UNL     1     -27.606  25.719  39.669  1.00  0.00     0.078 C 
ATOM     34  C   UNL     1     -29.289  26.679  38.157  1.00  0.00     0.078 C 
ATOM     35  C   UNL     1     -28.056  26.947  38.982  1.00  0.00     0.031 C 
ATOM     36  H   UNL     1     -27.237  24.792  37.402  1.00  0.00     0.348 HD
BRANCH  35  37
ATOM     37  C   UNL     1     -27.067  27.633  38.142  1.00  0.00    -0.037 A 
ATOM     38  C   UNL     1     -25.788  27.102  38.149  1.00  0.00     0.004 A 
ATOM     39  C   UNL     1     -27.265  28.726  37.355  1.00  0.00     0.004 A 
ATOM     40  C   UNL     1     -24.760  27.633  37.411  1.00  0.00     0.000 A 
ATOM     41  C   UNL     1     -26.263  29.281  36.606  1.00  0.00     0.000 A 
ATOM     42  C   UNL     1     -24.979  28.729  36.628  1.00  0.00     0.000 A 
ENDBRANCH  35  37
BRANCH  35  43
ATOM     43  C   UNL     1     -28.392  27.945  40.050  1.00  0.00    -0.037 A 
ATOM     44  C   UNL     1     -29.715  28.411  39.958  1.00  0.00     0.004 A 
ATOM     45  C   UNL     1     -27.561  28.385  41.018  1.00  0.00     0.004 A 
ATOM     46  C   UNL     1     -30.183  29.329  40.861  1.00  0.00     0.000 A 
ATOM     47  C   UNL     1     -28.032  29.314  41.934  1.00  0.00     0.000 A 
ATOM     48  C   UNL     1     -29.337  29.778  41.848  1.00  0.00     0.000 A 
ENDBRANCH  35  43
ENDBRANCH  29  30
ENDBRANCH  28  29
ENDBRANCH  27  28
ENDBRANCH   1  27
TORSDOF 12
ENDMDL
MODEL 2
REMARK VINA RESULT:      -5.1      4.769      8.861
REMARK SMILES COC(=O)C1=C(C)[NH2+]C(C)=C(C(=O)OCCC[NH+]2CCC(c3ccccc3)(c3ccccc3)CC2)C1c1cccc([N+](=O)[O-])c1
REMARK SMILES IDX 14 1 12 2 13 3 11 4 5 5 6 6 36 7 8 8 9 9 7 10 10 13 3 14
REMARK SMILES IDX 4 15 2 16 1 17 37 18 38 19 45 20 39 21 41 22 40 23 42 24
REMARK SMILES IDX 43 25 44 26 15 27 16 28 17 29 18 30 19 31 35 32 20 33 34 34
REMARK SMILES IDX 21 35 22 37 23 38 27 39 24 40 26 41 25 42 28 43 29 44 33 45
REMARK SMILES IDX 30 46 32 47 31 48
REMARK H PARENT 8 11 8 12 18 36
ROOT
ATOM      1  O   UNL     1     -29.528  17.019  37.420  1.00  0.00    -0.462 OA
ENDROOT
BRANCH   1   2
ATOM      2  C   UNL     1     -30.642  17.540  36.781  1.00  0.00     0.340 C 
ATOM      3  O   UNL     1     -30.696  17.482  35.551  1.00  0.00    -0.246 OA
BRANCH   2   4
ATOM      4  C   UNL     1     -31.736  18.147  37.545  1.00  0.00     0.106 C 
ATOM      5  C   UNL     1     -33.060  20.175  38.076  1.00  0.00     0.106 C 
ATOM      6  C   UNL     1     -34.011  19.366  38.555  1.00  0.00     0.119 C 
ATOM      7  C   UNL     1     -31.723  19.614  37.793  1.00  0.00     0.106 C 
ATOM      8  N   UNL     1     -33.815  17.983  38.784  1.00  0.00    -0.288 N 
ATOM      9  C   UNL     1     -32.726  17.436  38.033  1.00  0.00     0.119 C 
ATOM     10  C   UNL     1     -35.358  19.979  38.834  1.00  0.00     0.112 C 
ATOM     11  H   UNL     1     -33.796  17.711  39.789  1.00  0.00     0.357 HD
ATOM     12  H   UNL     1     -34.698  17.508  38.412  1.00  0.00     0.357 HD
ATOM     13  C   UNL     1     -32.766  15.958  37.816  1.00  0.00     0.112 C 
BRANCH   5  14
ATOM     14  C   UNL     1     -33.323  21.578  37.835  1.00  0.00     0.340 C 
ATOM     15  O   UNL     1     -33.325  22.468  38.735  1.00  0.00    -0.246 OA
BRANCH  14  16
ATOM     16  O   UNL     1     -33.596  21.990  36.526  1.00  0.00    -0.465 OA
ATOM     17  C   UNL     1     -34.937  22.285  36.155  1.00  0.00     0.282 C 
ENDBRANCH  14  16
ENDBRANCH   5  14
BRANCH   7  18
ATOM     18  C   UNL     1     -30.832  19.945  38.951  1.00  0.00    -0.028 A 
ATOM     19  C   UNL     1     -31.012  19.397  40.201  1.00  0.00     0.005 A 
ATOM     20  C   UNL     1     -29.809  20.832  38.754  1.00  0.00     0.090 A 
ATOM     21  C   UNL     1     -30.144  19.772  41.214  1.00  0.00     0.007 A 
ATOM     22  C   UNL     1     -28.944  21.200  39.785  1.00  0.00     0.269 A 
ATOM     23  C   UNL     1     -29.107  20.667  41.032  1.00  0.00     0.085 A 
BRANCH  22  24
ATOM     24  N   UNL     1     -27.880  22.129  39.573  1.00  0.00     0.062 N 
ATOM     25  O   UNL     1     -26.829  21.767  39.027  1.00  0.00    -0.258 OA
ATOM     26  O   UNL     1     -27.996  23.431  39.965  1.00  0.00    -0.258 OA
ENDBRANCH  22  24
ENDBRANCH   7  18
ENDBRANCH   2   4
ENDBRANCH   1   2
BRANCH   1  27
ATOM     27  C   UNL     1     -28.280  17.698  37.454  1.00  0.00     0.239 C 
BRANCH  27  28
ATOM     28  C   UNL     1     -27.178  16.681  37.432  1.00  0.00     0.103 C 
BRANCH  28  29
ATOM     29  C   UNL     1     -26.001  17.038  36.609  1.00  0.00     0.265 C 
BRANCH  29  30
ATOM     30  N   UNL     1     -26.246  18.195  35.774  1.00  0.00    -0.335 N 
ATOM     31  C   UNL     1     -25.526  18.201  34.550  1.00  0.00     0.263 C 
ATOM     32  C   UNL     1     -25.943  19.425  36.477  1.00  0.00     0.263 C 
ATOM     33  C   UNL     1     -26.249  19.148  33.587  1.00  0.00     0.078 C 
ATOM     34  C   UNL     1     -25.598  20.538  35.506  1.00  0.00     0.078 C 
ATOM     35  C   UNL     1     -26.413  20.463  34.240  1.00  0.00     0.031 C 
ATOM     36  H   UNL     1     -27.287  18.199  35.626  1.00  0.00     0.348 HD
BRANCH  35  37
ATOM     37  C   UNL     1     -27.787  20.885  34.538  1.00  0.00    -0.037 A 
ATOM     38  C   UNL     1     -27.921  21.984  35.369  1.00  0.00     0.004 A 
ATOM     39  C   UNL     1     -28.942  20.321  34.086  1.00  0.00     0.004 A 
ATOM     40  C   UNL     1     -29.141  22.496  35.732  1.00  0.00     0.000 A 
ATOM     41  C   UNL     1     -30.175  20.806  34.429  1.00  0.00     0.000 A 
ATOM     42  C   UNL     1     -30.288  21.917  35.269  1.00  0.00     0.000 A 
ENDBRANCH  35  37
BRANCH  35  43
ATOM     43  C   UNL     1     -25.909  21.494  33.274  1.00  0.00    -0.037 A 
ATOM     44  C   UNL     1     -26.384  21.289  31.967  1.00  0.00     0.004 A 
ATOM     45  C   UNL     1     -25.089  22.525  33.566  1.00  0.00     0.004 A 
ATOM     46  C   UNL     1     -26.017  22.144  30.962  1.00  0.00     0.000 A 
ATOM     47  C   UNL     1     -24.716  23.393  32.552  1.00  0.00     0.000 A 
ATOM     48  C   UNL     1     -25.181  23.195  31.259  1.00  0.00     0.000 A 
ENDBRANCH  35  43
ENDBRANCH  29  30
ENDBRANCH  28  29
ENDBRANCH  27  28
ENDBRANCH   1  27
TORSDOF 12
ENDMDL
MODEL 3
REMARK VINA RESULT:      -5.1      3.900      8.290
REMARK SMILES COC(=O)C1=C(C)[NH2+]C(C)=C(C(=O)OCCC[NH+]2CCC(c3ccccc3)(c3ccccc3)CC2)C1c1cccc([N+](=O)[O-])c1
REMARK SMILES IDX 14 1 12 2 13 3 11 4 5 5 6 6 36 7 8 8 9 9 7 10 10 13 3 14
REMARK SMILES IDX 4 15 2 16 1 17 37 18 38 19 45 20 39 21 41 22 40 23 42 24
REMARK SMILES IDX 43 25 44 26 15 27 16 28 17 29 18 30 19 31 35 32 20 33 34 34
REMARK SMILES IDX 21 35 22 37 23 38 27 39 24 40 26 41 25 42 28 43 29 44 33 45
REMARK SMILES IDX 30 46 32 47 31 48
REMARK H PARENT 8 11 8 12 18 36
ROOT
ATOM      1  O   UNL     1     -28.997  16.765  38.208  1.00  0.00    -0.462 OA
ENDROOT
BRANCH   1   2
ATOM      2  C   UNL     1     -29.619  17.320  37.101  1.00  0.00     0.340 C 
ATOM      3  O   UNL     1     -29.479  16.766  36.008  1.00  0.00    -0.246 OA
BRANCH   2   4
ATOM      4  C   UNL     1     -30.426  18.537  37.219  1.00  0.00     0.106 C 
ATOM      5  C   UNL     1     -30.729  20.927  36.631  1.00  0.00     0.106 C 
ATOM      6  C   UNL     1     -32.017  20.792  36.964  1.00  0.00     0.119 C 
ATOM      7  C   UNL     1     -29.779  19.861  37.012  1.00  0.00     0.106 C 
ATOM      8  N   UNL     1     -32.532  19.663  37.644  1.00  0.00    -0.288 N 
ATOM      9  C   UNL     1     -31.704  18.502  37.517  1.00  0.00     0.119 C 
ATOM     10  C   UNL     1     -32.950  21.903  36.562  1.00  0.00     0.112 C 
ATOM     11  H   UNL     1     -32.829  19.848  38.625  1.00  0.00     0.357 HD
ATOM     12  H   UNL     1     -33.448  19.428  37.145  1.00  0.00     0.357 HD
ATOM     13  C   UNL     1     -32.384  17.192  37.746  1.00  0.00     0.112 C 
BRANCH   5  14
ATOM     14  C   UNL     1     -30.260  22.092  35.911  1.00  0.00     0.340 C 
ATOM     15  O   UNL     1     -29.841  22.071  34.717  1.00  0.00    -0.246 OA
BRANCH  14  16
ATOM     16  O   UNL     1     -30.263  23.327  36.567  1.00  0.00    -0.465 OA
ATOM     17  C   UNL     1     -29.110  23.731  37.296  1.00  0.00     0.282 C 
ENDBRANCH  14  16
ENDBRANCH   5  14
BRANCH   7  18
ATOM     18  C   UNL     1     -29.068  20.302  38.255  1.00  0.00    -0.028 A 
ATOM     19  C   UNL     1     -29.731  20.541  39.439  1.00  0.00     0.005 A 
ATOM     20  C   UNL     1     -27.713  20.480  38.204  1.00  0.00     0.090 A 
ATOM     21  C   UNL     1     -28.991  20.957  40.533  1.00  0.00     0.007 A 
ATOM     22  C   UNL     1     -26.982  20.899  39.316  1.00  0.00     0.269 A 
ATOM     23  C   UNL     1     -27.622  21.142  40.498  1.00  0.00     0.085 A 
BRANCH  22  24
ATOM     24  N   UNL     1     -25.568  21.085  39.254  1.00  0.00     0.062 N 
ATOM     25  O   UNL     1     -25.026  22.003  39.883  1.00  0.00    -0.258 OA
ATOM     26  O   UNL     1     -24.783  20.259  38.502  1.00  0.00    -0.258 OA
ENDBRANCH  22  24
ENDBRANCH   7  18
ENDBRANCH   2   4
ENDBRANCH   1   2
BRANCH   1  27
ATOM     27  C   UNL     1     -27.705  16.175  38.142  1.00  0.00     0.239 C 
BRANCH  27  28
ATOM     28  C   UNL     1     -26.705  17.242  37.803  1.00  0.00     0.103 C 
BRANCH  28  29
ATOM     29  C   UNL     1     -25.834  16.949  36.644  1.00  0.00     0.265 C 
BRANCH  29  30
ATOM     30  N   UNL     1     -25.720  18.078  35.745  1.00  0.00    -0.335 N 
ATOM     31  C   UNL     1     -26.608  18.040  34.637  1.00  0.00     0.263 C 
ATOM     32  C   UNL     1     -24.371  18.210  35.233  1.00  0.00     0.263 C 
ATOM     33  C   UNL     1     -26.751  19.469  34.102  1.00  0.00     0.078 C 
ATOM     34  C   UNL     1     -24.362  18.930  33.898  1.00  0.00     0.078 C 
ATOM     35  C   UNL     1     -25.406  20.016  33.828  1.00  0.00     0.031 C 
ATOM     36  H   UNL     1     -25.879  18.920  36.355  1.00  0.00     0.348 HD
BRANCH  35  37
ATOM     37  C   UNL     1     -24.970  21.144  34.659  1.00  0.00    -0.037 A 
ATOM     38  C   UNL     1     -25.953  21.764  35.410  1.00  0.00     0.004 A 
ATOM     39  C   UNL     1     -23.709  21.645  34.778  1.00  0.00     0.004 A 
ATOM     40  C   UNL     1     -25.696  22.828  36.237  1.00  0.00     0.000 A 
ATOM     41  C   UNL     1     -23.417  22.705  35.593  1.00  0.00     0.000 A 
ATOM     42  C   UNL     1     -24.426  23.317  36.343  1.00  0.00     0.000 A 
ENDBRANCH  35  37
BRANCH  35  43
ATOM     43  C   UNL     1     -25.439  20.571  32.435  1.00  0.00    -0.037 A 
ATOM     44  C   UNL     1     -24.788  19.741  31.506  1.00  0.00     0.004 A 
ATOM     45  C   UNL     1     -26.013  21.731  32.053  1.00  0.00     0.004 A 
ATOM     46  C   UNL     1     -24.727  20.103  30.187  1.00  0.00     0.000 A 
ATOM     47  C   UNL     1     -25.955  22.101  30.719  1.00  0.00     0.000 A 
ATOM     48  C   UNL     1     -25.312  21.285  29.797  1.00  0.00     0.000 A 
ENDBRANCH  35  43
ENDBRANCH  29  30
ENDBRANCH  28  29
ENDBRANCH  27  28
ENDBRANCH   1  27
TORSDOF 12
ENDMDL
MODEL 4
REMARK VINA RESULT:      -5.1     12.413     16.523
REMARK SMILES COC(=O)C1=C(C)[NH2+]C(C)=C(C(=O)OCCC[NH+]2CCC(c3ccccc3)(c3ccccc3)CC2)C1c1cccc([N+](=O)[O-])c1
REMARK SMILES IDX 14 1 12 2 13 3 11 4 5 5 6 6 36 7 8 8 9 9 7 10 10 13 3 14
REMARK SMILES IDX 4 15 2 16 1 17 37 18 38 19 45 20 39 21 41 22 40 23 42 24
REMARK SMILES IDX 43 25 44 26 15 27 16 28 17 29 18 30 19 31 35 32 20 33 34 34
REMARK SMILES IDX 21 35 22 37 23 38 27 39 24 40 26 41 25 42 28 43 29 44 33 45
REMARK SMILES IDX 30 46 32 47 31 48
REMARK H PARENT 8 11 8 12 18 36
ROOT
ATOM      1  O   UNL     1     -40.831  30.426  37.643  1.00  0.00    -0.462 OA
ENDROOT
BRANCH   1   2
ATOM      2  C   UNL     1     -41.509  30.784  38.798  1.00  0.00     0.340 C 
ATOM      3  O   UNL     1     -42.067  31.883  38.836  1.00  0.00    -0.246 OA
BRANCH   2   4
ATOM      4  C   UNL     1     -41.567  29.881  39.951  1.00  0.00     0.106 C 
ATOM      5  C   UNL     1     -40.751  29.314  42.223  1.00  0.00     0.106 C 
ATOM      6  C   UNL     1     -41.846  28.561  42.372  1.00  0.00     0.119 C 
ATOM      7  C   UNL     1     -40.402  29.806  40.874  1.00  0.00     0.106 C 
ATOM      8  N   UNL     1     -42.711  28.225  41.304  1.00  0.00    -0.288 N 
ATOM      9  C   UNL     1     -42.610  29.121  40.193  1.00  0.00     0.119 C 
ATOM     10  C   UNL     1     -42.162  28.076  43.762  1.00  0.00     0.112 C 
ATOM     11  H   UNL     1     -42.684  27.222  41.025  1.00  0.00     0.357 HD
ATOM     12  H   UNL     1     -43.700  28.349  41.694  1.00  0.00     0.357 HD
ATOM     13  C   UNL     1     -43.792  29.159  39.280  1.00  0.00     0.112 C 
BRANCH   5  14
ATOM     14  C   UNL     1     -39.914  29.650  43.355  1.00  0.00     0.340 C 
ATOM     15  O   UNL     1     -40.184  30.555  44.199  1.00  0.00    -0.246 OA
BRANCH  14  16
ATOM     16  O   UNL     1     -38.724  28.938  43.540  1.00  0.00    -0.465 OA
ATOM     17  C   UNL     1     -37.495  29.647  43.631  1.00  0.00     0.282 C 
ENDBRANCH  14  16
ENDBRANCH   5  14
BRANCH   7  18
ATOM     18  C   UNL     1     -39.344  28.904  40.316  1.00  0.00    -0.028 A 
ATOM     19  C   UNL     1     -38.088  29.360  39.980  1.00  0.00     0.005 A 
ATOM     20  C   UNL     1     -39.644  27.583  40.128  1.00  0.00     0.090 A 
ATOM     21  C   UNL     1     -37.178  28.453  39.460  1.00  0.00     0.007 A 
ATOM     22  C   UNL     1     -38.716  26.683  39.603  1.00  0.00     0.269 A 
ATOM     23  C   UNL     1     -37.466  27.117  39.263  1.00  0.00     0.085 A 
BRANCH  22  24
ATOM     24  N   UNL     1     -39.038  25.306  39.407  1.00  0.00     0.062 N 
ATOM     25  O   UNL     1     -39.059  24.821  38.268  1.00  0.00    -0.258 OA
ATOM     26  O   UNL     1     -39.330  24.495  40.466  1.00  0.00    -0.258 OA
ENDBRANCH  22  24
ENDBRANCH   7  18
ENDBRANCH   2   4
ENDBRANCH   1   2
BRANCH   1  27
ATOM     27  C   UNL     1     -41.046  29.184  36.986  1.00  0.00     0.239 C 
BRANCH  27  28
ATOM     28  C   UNL     1     -42.044  29.389  35.884  1.00  0.00     0.103 C 
BRANCH  28  29
ATOM     29  C   UNL     1     -41.633  30.334  34.824  1.00  0.00     0.265 C 
BRANCH  29  30
ATOM     30  N   UNL     1     -40.906  29.680  33.756  1.00  0.00    -0.335 N 
ATOM     31  C   UNL     1     -40.064  30.541  33.003  1.00  0.00     0.263 C 
ATOM     32  C   UNL     1     -41.807  29.017  32.835  1.00  0.00     0.263 C 
ATOM     33  C   UNL     1     -39.011  29.672  32.306  1.00  0.00     0.078 C 
ATOM     34  C   UNL     1     -41.178  28.878  31.461  1.00  0.00     0.078 C 
ATOM     35  C   UNL     1     -39.696  28.612  31.537  1.00  0.00     0.031 C 
ATOM     36  H   UNL     1     -40.369  28.912  34.233  1.00  0.00     0.348 HD
BRANCH  35  37
ATOM     37  C   UNL     1     -39.486  27.231  31.987  1.00  0.00    -0.037 A 
ATOM     38  C   UNL     1     -40.001  26.239  31.171  1.00  0.00     0.004 A 
ATOM     39  C   UNL     1     -38.840  26.817  33.112  1.00  0.00     0.004 A 
ATOM     40  C   UNL     1     -39.878  24.903  31.459  1.00  0.00     0.000 A 
ATOM     41  C   UNL     1     -38.701  25.493  33.430  1.00  0.00     0.000 A 
ATOM     42  C   UNL     1     -39.228  24.507  32.592  1.00  0.00     0.000 A 
ENDBRANCH  35  37
BRANCH  35  43
ATOM     43  C   UNL     1     -39.124  28.643  30.151  1.00  0.00    -0.037 A 
ATOM     44  C   UNL     1     -37.730  28.820  30.144  1.00  0.00     0.004 A 
ATOM     45  C   UNL     1     -39.819  28.520  29.000  1.00  0.00     0.004 A 
ATOM     46  C   UNL     1     -37.050  28.869  28.956  1.00  0.00     0.000 A 
ATOM     47  C   UNL     1     -39.134  28.569  27.796  1.00  0.00     0.000 A 
ATOM     48  C   UNL     1     -37.757  28.744  27.783  1.00  0.00     0.000 A 
ENDBRANCH  35  43
ENDBRANCH  29  30
ENDBRANCH  28  29
ENDBRANCH  27  28
ENDBRANCH   1  27
TORSDOF 12
ENDMDL
MODEL 5
REMARK VINA RESULT:      -5.0     11.420     14.386
REMARK SMILES COC(=O)C1=C(C)[NH2+]C(C)=C(C(=O)OCCC[NH+]2CCC(c3ccccc3)(c3ccccc3)CC2)C1c1cccc([N+](=O)[O-])c1
REMARK SMILES IDX 14 1 12 2 13 3 11 4 5 5 6 6 36 7 8 8 9 9 7 10 10 13 3 14
REMARK SMILES IDX 4 15 2 16 1 17 37 18 38 19 45 20 39 21 41 22 40 23 42 24
REMARK SMILES IDX 43 25 44 26 15 27 16 28 17 29 18 30 19 31 35 32 20 33 34 34
REMARK SMILES IDX 21 35 22 37 23 38 27 39 24 40 26 41 25 42 28 43 29 44 33 45
REMARK SMILES IDX 30 46 32 47 31 48
REMARK H PARENT 8 11 8 12 18 36
ROOT
ATOM      1  O   UNL     1     -38.398  23.705  35.896  1.00  0.00    -0.462 OA
ENDROOT
BRANCH   1   2
ATOM      2  C   UNL     1     -37.821  24.534  34.947  1.00  0.00     0.340 C 
ATOM      3  O   UNL     1     -36.609  24.749  35.012  1.00  0.00    -0.246 OA
BRANCH   2   4
ATOM      4  C   UNL     1     -38.627  25.143  33.886  1.00  0.00     0.106 C 
ATOM      5  C   UNL     1     -39.454  27.211  32.794  1.00  0.00     0.106 C 
ATOM      6  C   UNL     1     -39.729  26.469  31.716  1.00  0.00     0.119 C 
ATOM      7  C   UNL     1     -39.140  26.528  34.067  1.00  0.00     0.106 C 
ATOM      8  N   UNL     1     -39.711  25.055  31.717  1.00  0.00    -0.288 N 
ATOM      9  C   UNL     1     -38.927  24.502  32.780  1.00  0.00     0.119 C 
ATOM     10  C   UNL     1     -40.050  27.205  30.441  1.00  0.00     0.112 C 
ATOM     11  H   UNL     1     -40.649  24.611  31.627  1.00  0.00     0.357 HD
ATOM     12  H   UNL     1     -39.216  24.779  30.811  1.00  0.00     0.357 HD
ATOM     13  C   UNL     1     -38.442  23.105  32.569  1.00  0.00     0.112 C 
BRANCH   5  14
ATOM     14  C   UNL     1     -39.461  28.657  32.731  1.00  0.00     0.340 C 
ATOM     15  O   UNL     1     -38.429  29.368  32.553  1.00  0.00    -0.246 OA
BRANCH  14  16
ATOM     16  O   UNL     1     -40.681  29.326  32.876  1.00  0.00    -0.465 OA
ATOM     17  C   UNL     1     -40.937  30.484  32.092  1.00  0.00     0.282 C 
ENDBRANCH  14  16
ENDBRANCH   5  14
BRANCH   7  18
ATOM     18  C   UNL     1     -40.382  26.526  34.905  1.00  0.00    -0.028 A 
ATOM     19  C   UNL     1     -40.697  27.560  35.759  1.00  0.00     0.005 A 
ATOM     20  C   UNL     1     -41.224  25.451  34.823  1.00  0.00     0.090 A 
ATOM     21  C   UNL     1     -41.862  27.465  36.503  1.00  0.00     0.007 A 
ATOM     22  C   UNL     1     -42.393  25.371  35.580  1.00  0.00     0.269 A 
ATOM     23  C   UNL     1     -42.722  26.386  36.432  1.00  0.00     0.085 A 
BRANCH  22  24
ATOM     24  N   UNL     1     -43.266  24.244  35.490  1.00  0.00     0.062 N 
ATOM     25  O   UNL     1     -44.343  24.233  36.100  1.00  0.00    -0.258 OA
ATOM     26  O   UNL     1     -42.934  23.157  34.734  1.00  0.00    -0.258 OA
ENDBRANCH  22  24
ENDBRANCH   7  18
ENDBRANCH   2   4
ENDBRANCH   1   2
BRANCH   1  27
ATOM     27  C   UNL     1     -37.641  23.075  36.921  1.00  0.00     0.239 C 
BRANCH  27  28
ATOM     28  C   UNL     1     -38.243  23.428  38.249  1.00  0.00     0.103 C 
BRANCH  28  29
ATOM     29  C   UNL     1     -37.442  24.349  39.084  1.00  0.00     0.265 C 
BRANCH  29  30
ATOM     30  N   UNL     1     -38.180  25.540  39.450  1.00  0.00    -0.335 N 
ATOM     31  C   UNL     1     -39.450  25.661  38.826  1.00  0.00     0.263 C 
ATOM     32  C   UNL     1     -37.422  26.740  39.159  1.00  0.00     0.263 C 
ATOM     33  C   UNL     1     -40.294  26.624  39.667  1.00  0.00     0.078 C 
ATOM     34  C   UNL     1     -38.341  27.928  38.946  1.00  0.00     0.078 C 
ATOM     35  C   UNL     1     -39.547  27.885  39.849  1.00  0.00     0.031 C 
ATOM     36  H   UNL     1     -38.252  25.495  40.498  1.00  0.00     0.348 HD
BRANCH  35  37
ATOM     37  C   UNL     1     -39.124  28.210  41.217  1.00  0.00    -0.037 A 
ATOM     38  C   UNL     1     -39.501  27.313  42.201  1.00  0.00     0.004 A 
ATOM     39  C   UNL     1     -38.400  29.289  41.624  1.00  0.00     0.004 A 
ATOM     40  C   UNL     1     -39.175  27.481  43.523  1.00  0.00     0.000 A 
ATOM     41  C   UNL     1     -38.058  29.488  42.934  1.00  0.00     0.000 A 
ATOM     42  C   UNL     1     -38.449  28.569  43.912  1.00  0.00     0.000 A 
ENDBRANCH  35  37
BRANCH  35  43
ATOM     43  C   UNL     1     -40.477  29.000  39.473  1.00  0.00    -0.037 A 
ATOM     44  C   UNL     1     -41.756  28.850  40.035  1.00  0.00     0.004 A 
ATOM     45  C   UNL     1     -40.178  30.055  38.685  1.00  0.00     0.004 A 
ATOM     46  C   UNL     1     -42.727  29.784  39.790  1.00  0.00     0.000 A 
ATOM     47  C   UNL     1     -41.158  31.003  38.435  1.00  0.00     0.000 A 
ATOM     48  C   UNL     1     -42.424  30.860  38.988  1.00  0.00     0.000 A 
ENDBRANCH  35  43
ENDBRANCH  29  30
ENDBRANCH  28  29
ENDBRANCH  27  28
ENDBRANCH   1  27
TORSDOF 12
ENDMDL
MODEL 6
REMARK VINA RESULT:      -5.0     12.089     16.318
REMARK SMILES COC(=O)C1=C(C)[NH2+]C(C)=C(C(=O)OCCC[NH+]2CCC(c3ccccc3)(c3ccccc3)CC2)C1c1cccc([N+](=O)[O-])c1
REMARK SMILES IDX 14 1 12 2 13 3 11 4 5 5 6 6 36 7 8 8 9 9 7 10 10 13 3 14
REMARK SMILES IDX 4 15 2 16 1 17 37 18 38 19 45 20 39 21 41 22 40 23 42 24
REMARK SMILES IDX 43 25 44 26 15 27 16 28 17 29 18 30 19 31 35 32 20 33 34 34
REMARK SMILES IDX 21 35 22 37 23 38 27 39 24 40 26 41 25 42 28 43 29 44 33 45
REMARK SMILES IDX 30 46 32 47 31 48
REMARK H PARENT 8 11 8 12 18 36
ROOT
ATOM      1  O   UNL     1     -40.796  30.437  37.423  1.00  0.00    -0.462 OA
ENDROOT
BRANCH   1   2
ATOM      2  C   UNL     1     -41.436  30.748  38.613  1.00  0.00     0.340 C 
ATOM      3  O   UNL     1     -41.897  31.882  38.755  1.00  0.00    -0.246 OA
BRANCH   2   4
ATOM      4  C   UNL     1     -41.564  29.754  39.683  1.00  0.00     0.106 C 
ATOM      5  C   UNL     1     -40.925  29.024  41.965  1.00  0.00     0.106 C 
ATOM      6  C   UNL     1     -42.007  28.238  41.961  1.00  0.00     0.119 C 
ATOM      7  C   UNL     1     -40.479  29.629  40.693  1.00  0.00     0.106 C 
ATOM      8  N   UNL     1     -42.771  27.972  40.800  1.00  0.00    -0.288 N 
ATOM      9  C   UNL     1     -42.603  28.956  39.775  1.00  0.00     0.119 C 
ATOM     10  C   UNL     1     -42.424  27.638  43.277  1.00  0.00     0.112 C 
ATOM     11  H   UNL     1     -42.694  26.995  40.447  1.00  0.00     0.357 HD
ATOM     12  H   UNL     1     -43.792  28.044  41.113  1.00  0.00     0.357 HD
ATOM     13  C   UNL     1     -43.706  29.043  38.771  1.00  0.00     0.112 C 
BRANCH   5  14
ATOM     14  C   UNL     1     -40.194  29.285  43.187  1.00  0.00     0.340 C 
ATOM     15  O   UNL     1     -40.189  30.398  43.791  1.00  0.00    -0.246 OA
BRANCH  14  16
ATOM     16  O   UNL     1     -39.438  28.250  43.746  1.00  0.00    -0.465 OA
ATOM     17  C   UNL     1     -38.082  28.086  43.350  1.00  0.00     0.282 C 
ENDBRANCH  14  16
ENDBRANCH   5  14
BRANCH   7  18
ATOM     18  C   UNL     1     -39.353  28.797  40.158  1.00  0.00    -0.028 A 
ATOM     19  C   UNL     1     -38.082  29.298  39.986  1.00  0.00     0.005 A 
ATOM     20  C   UNL     1     -39.606  27.496  39.822  1.00  0.00     0.090 A 
ATOM     21  C   UNL     1     -37.108  28.456  39.475  1.00  0.00     0.007 A 
ATOM     22  C   UNL     1     -38.613  26.661  39.308  1.00  0.00     0.269 A 
ATOM     23  C   UNL     1     -37.347  27.140  39.129  1.00  0.00     0.085 A 
BRANCH  22  24
ATOM     24  N   UNL     1     -38.886  25.304  38.956  1.00  0.00     0.062 N 
ATOM     25  O   UNL     1     -38.568  24.381  39.719  1.00  0.00    -0.258 OA
ATOM     26  O   UNL     1     -39.500  24.993  37.777  1.00  0.00    -0.258 OA
ENDBRANCH  22  24
ENDBRANCH   7  18
ENDBRANCH   2   4
ENDBRANCH   1   2
BRANCH   1  27
ATOM     27  C   UNL     1     -40.927  31.237  36.255  1.00  0.00     0.239 C 
BRANCH  27  28
ATOM     28  C   UNL     1     -41.953  30.612  35.356  1.00  0.00     0.103 C 
BRANCH  28  29
ATOM     29  C   UNL     1     -42.003  29.134  35.383  1.00  0.00     0.265 C 
BRANCH  29  30
ATOM     30  N   UNL     1     -41.185  28.538  34.348  1.00  0.00    -0.335 N 
ATOM     31  C   UNL     1     -40.498  29.472  33.528  1.00  0.00     0.263 C 
ATOM     32  C   UNL     1     -41.970  27.678  33.486  1.00  0.00     0.263 C 
ATOM     33  C   UNL     1     -39.322  28.743  32.872  1.00  0.00     0.078 C 
ATOM     34  C   UNL     1     -41.333  27.552  32.114  1.00  0.00     0.078 C 
ATOM     35  C   UNL     1     -39.827  27.537  32.184  1.00  0.00     0.031 C 
ATOM     36  H   UNL     1     -40.527  27.901  34.866  1.00  0.00     0.348 HD
BRANCH  35  37
ATOM     37  C   UNL     1     -39.393  26.241  32.719  1.00  0.00    -0.037 A 
ATOM     38  C   UNL     1     -38.482  26.286  33.761  1.00  0.00     0.004 A 
ATOM     39  C   UNL     1     -39.786  25.003  32.310  1.00  0.00     0.004 A 
ATOM     40  C   UNL     1     -37.989  25.157  34.365  1.00  0.00     0.000 A 
ATOM     41  C   UNL     1     -39.314  23.857  32.890  1.00  0.00     0.000 A 
ATOM     42  C   UNL     1     -38.395  23.925  33.941  1.00  0.00     0.000 A 
ENDBRANCH  35  37
BRANCH  35  43
ATOM     43  C   UNL     1     -39.275  27.568  30.790  1.00  0.00    -0.037 A 
ATOM     44  C   UNL     1     -38.269  28.536  30.628  1.00  0.00     0.004 A 
ATOM     45  C   UNL     1     -39.661  26.781  29.763  1.00  0.00     0.004 A 
ATOM     46  C   UNL     1     -37.659  28.694  29.412  1.00  0.00     0.000 A 
ATOM     47  C   UNL     1     -39.045  26.938  28.531  1.00  0.00     0.000 A 
ATOM     48  C   UNL     1     -38.051  27.893  28.365  1.00  0.00     0.000 A 
ENDBRANCH  35  43
ENDBRANCH  29  30
ENDBRANCH  28  29
ENDBRANCH  27  28
ENDBRANCH   1  27
TORSDOF 12
ENDMDL
MODEL 7
REMARK VINA RESULT:      -4.9     11.897     15.950
REMARK SMILES COC(=O)C1=C(C)[NH2+]C(C)=C(C(=O)OCCC[NH+]2CCC(c3ccccc3)(c3ccccc3)CC2)C1c1cccc([N+](=O)[O-])c1
REMARK SMILES IDX 14 1 12 2 13 3 11 4 5 5 6 6 36 7 8 8 9 9 7 10 10 13 3 14
REMARK SMILES IDX 4 15 2 16 1 17 37 18 38 19 45 20 39 21 41 22 40 23 42 24
REMARK SMILES IDX 43 25 44 26 15 27 16 28 17 29 18 30 19 31 35 32 20 33 34 34
REMARK SMILES IDX 21 35 22 37 23 38 27 39 24 40 26 41 25 42 28 43 29 44 33 45
REMARK SMILES IDX 30 46 32 47 31 48
REMARK H PARENT 8 11 8 12 18 36
ROOT
ATOM      1  O   UNL     1     -41.620  29.642  37.059  1.00  0.00    -0.462 OA
ENDROOT
BRANCH   1   2
ATOM      2  C   UNL     1     -41.082  30.422  38.071  1.00  0.00     0.340 C 
ATOM      3  O   UNL     1     -40.644  31.538  37.784  1.00  0.00    -0.246 OA
BRANCH   2   4
ATOM      4  C   UNL     1     -41.034  29.937  39.453  1.00  0.00     0.106 C 
ATOM      5  C   UNL     1     -39.655  29.285  41.408  1.00  0.00     0.106 C 
ATOM      6  C   UNL     1     -40.743  29.452  42.167  1.00  0.00     0.119 C 
ATOM      7  C   UNL     1     -39.809  29.247  39.939  1.00  0.00     0.106 C 
ATOM      8  N   UNL     1     -42.044  29.622  41.636  1.00  0.00    -0.288 N 
ATOM      9  C   UNL     1     -42.045  30.079  40.280  1.00  0.00     0.119 C 
ATOM     10  C   UNL     1     -40.543  29.480  43.659  1.00  0.00     0.112 C 
ATOM     11  H   UNL     1     -42.684  28.817  41.797  1.00  0.00     0.357 HD
ATOM     12  H   UNL     1     -42.482  30.409  42.212  1.00  0.00     0.357 HD
ATOM     13  C   UNL     1     -43.296  30.755  39.823  1.00  0.00     0.112 C 
BRANCH   5  14
ATOM     14  C   UNL     1     -38.342  29.143  42.003  1.00  0.00     0.340 C 
ATOM     15  O   UNL     1     -37.838  28.038  42.361  1.00  0.00    -0.246 OA
BRANCH  14  16
ATOM     16  O   UNL     1     -37.572  30.293  42.202  1.00  0.00    -0.465 OA
ATOM     17  C   UNL     1     -37.013  30.542  43.486  1.00  0.00     0.282 C 
ENDBRANCH  14  16
ENDBRANCH   5  14
BRANCH   7  18
ATOM     18  C   UNL     1     -39.809  27.810  39.515  1.00  0.00    -0.028 A 
ATOM     19  C   UNL     1     -38.687  27.188  39.013  1.00  0.00     0.005 A 
ATOM     20  C   UNL     1     -40.972  27.097  39.624  1.00  0.00     0.090 A 
ATOM     21  C   UNL     1     -38.786  25.859  38.636  1.00  0.00     0.007 A 
ATOM     22  C   UNL     1     -41.055  25.758  39.239  1.00  0.00     0.269 A 
ATOM     23  C   UNL     1     -39.953  25.126  38.739  1.00  0.00     0.085 A 
BRANCH  22  24
ATOM     24  N   UNL     1     -42.273  25.022  39.353  1.00  0.00     0.062 N 
ATOM     25  O   UNL     1     -43.294  25.561  39.801  1.00  0.00    -0.258 OA
ATOM     26  O   UNL     1     -42.339  23.712  38.974  1.00  0.00    -0.258 OA
ENDBRANCH  22  24
ENDBRANCH   7  18
ENDBRANCH   2   4
ENDBRANCH   1   2
BRANCH   1  27
ATOM     27  C   UNL     1     -41.368  29.897  35.683  1.00  0.00     0.239 C 
BRANCH  27  28
ATOM     28  C   UNL     1     -40.891  28.629  35.038  1.00  0.00     0.103 C 
BRANCH  28  29
ATOM     29  C   UNL     1     -41.064  27.403  35.847  1.00  0.00     0.265 C 
BRANCH  29  30
ATOM     30  N   UNL     1     -40.257  26.304  35.358  1.00  0.00    -0.335 N 
ATOM     31  C   UNL     1     -39.590  26.564  34.131  1.00  0.00     0.263 C 
ATOM     32  C   UNL     1     -41.048  25.102  35.191  1.00  0.00     0.263 C 
ATOM     33  C   UNL     1     -38.418  25.584  34.018  1.00  0.00     0.078 C 
ATOM     34  C   UNL     1     -40.432  24.182  34.155  1.00  0.00     0.078 C 
ATOM     35  C   UNL     1     -38.925  24.207  34.194  1.00  0.00     0.031 C 
ATOM     36  H   UNL     1     -39.586  26.100  36.141  1.00  0.00     0.348 HD
BRANCH  35  37
ATOM     37  C   UNL     1     -38.472  23.484  35.388  1.00  0.00    -0.037 A 
ATOM     38  C   UNL     1     -37.289  23.926  35.956  1.00  0.00     0.004 A 
ATOM     39  C   UNL     1     -39.084  22.434  36.002  1.00  0.00     0.004 A 
ATOM     40  C   UNL     1     -36.744  23.352  37.077  1.00  0.00     0.000 A 
ATOM     41  C   UNL     1     -38.568  21.838  37.120  1.00  0.00     0.000 A 
ATOM     42  C   UNL     1     -37.373  22.300  37.678  1.00  0.00     0.000 A 
ENDBRANCH  35  37
BRANCH  35  43
ATOM     43  C   UNL     1     -38.394  23.399  33.046  1.00  0.00    -0.037 A 
ATOM     44  C   UNL     1     -39.274  23.373  31.951  1.00  0.00     0.004 A 
ATOM     45  C   UNL     1     -37.213  22.748  33.011  1.00  0.00     0.004 A 
ATOM     46  C   UNL     1     -38.939  22.678  30.819  1.00  0.00     0.000 A 
ATOM     47  C   UNL     1     -36.870  22.044  31.867  1.00  0.00     0.000 A 
ATOM     48  C   UNL     1     -37.736  22.014  30.781  1.00  0.00     0.000 A 
ENDBRANCH  35  43
ENDBRANCH  29  30
ENDBRANCH  28  29
ENDBRANCH  27  28
ENDBRANCH   1  27
TORSDOF 12
ENDMDL
MODEL 8
REMARK VINA RESULT:      -4.9      4.076     10.595
REMARK SMILES COC(=O)C1=C(C)[NH2+]C(C)=C(C(=O)OCCC[NH+]2CCC(c3ccccc3)(c3ccccc3)CC2)C1c1cccc([N+](=O)[O-])c1
REMARK SMILES IDX 14 1 12 2 13 3 11 4 5 5 6 6 36 7 8 8 9 9 7 10 10 13 3 14
REMARK SMILES IDX 4 15 2 16 1 17 37 18 38 19 45 20 39 21 41 22 40 23 42 24
REMARK SMILES IDX 43 25 44 26 15 27 16 28 17 29 18 30 19 31 35 32 20 33 34 34
REMARK SMILES IDX 21 35 22 37 23 38 27 39 24 40 26 41 25 42 28 43 29 44 33 45
REMARK SMILES IDX 30 46 32 47 31 48
REMARK H PARENT 8 11 8 12 18 36
ROOT
ATOM      1  O   UNL     1     -29.278  26.707  38.699  1.00  0.00    -0.462 OA
ENDROOT
BRANCH   1   2
ATOM      2  C   UNL     1     -30.030  27.814  38.338  1.00  0.00     0.340 C 
ATOM      3  O   UNL     1     -30.757  27.733  37.345  1.00  0.00    -0.246 OA
BRANCH   2   4
ATOM      4  C   UNL     1     -29.968  29.055  39.114  1.00  0.00     0.106 C 
ATOM      5  C   UNL     1     -29.899  31.534  39.119  1.00  0.00     0.106 C 
ATOM      6  C   UNL     1     -30.290  31.491  40.397  1.00  0.00     0.119 C 
ATOM      7  C   UNL     1     -29.436  30.288  38.473  1.00  0.00     0.106 C 
ATOM      8  N   UNL     1     -30.312  30.303  41.166  1.00  0.00    -0.288 N 
ATOM      9  C   UNL     1     -30.354  29.116  40.368  1.00  0.00     0.119 C 
ATOM     10  C   UNL     1     -30.749  32.784  41.018  1.00  0.00     0.112 C 
ATOM     11  H   UNL     1     -29.594  30.264  41.920  1.00  0.00     0.357 HD
ATOM     12  H   UNL     1     -31.237  30.332  41.702  1.00  0.00     0.357 HD
ATOM     13  C   UNL     1     -30.881  27.895  41.050  1.00  0.00     0.112 C 
BRANCH   5  14
ATOM     14  C   UNL     1     -29.922  32.773  38.370  1.00  0.00     0.340 C 
ATOM     15  O   UNL     1     -30.881  33.140  37.630  1.00  0.00    -0.246 OA
BRANCH  14  16
ATOM     16  O   UNL     1     -28.818  33.627  38.460  1.00  0.00    -0.465 OA
ATOM     17  C   UNL     1     -28.080  33.936  37.284  1.00  0.00     0.282 C 
ENDBRANCH  14  16
ENDBRANCH   5  14
BRANCH   7  18
ATOM     18  C   UNL     1     -27.938  30.289  38.493  1.00  0.00    -0.028 A 
ATOM     19  C   UNL     1     -27.215  30.294  39.666  1.00  0.00     0.005 A 
ATOM     20  C   UNL     1     -27.269  30.294  37.300  1.00  0.00     0.090 A 
ATOM     21  C   UNL     1     -25.832  30.307  39.585  1.00  0.00     0.007 A 
ATOM     22  C   UNL     1     -25.875  30.306  37.236  1.00  0.00     0.269 A 
ATOM     23  C   UNL     1     -25.142  30.313  38.388  1.00  0.00     0.085 A 
BRANCH  22  24
ATOM     24  N   UNL     1     -25.185  30.314  35.987  1.00  0.00     0.062 N 
ATOM     25  O   UNL     1     -24.243  29.537  35.784  1.00  0.00    -0.258 OA
ATOM     26  O   UNL     1     -25.544  31.176  34.990  1.00  0.00    -0.258 OA
ENDBRANCH  22  24
ENDBRANCH   7  18
ENDBRANCH   2   4
ENDBRANCH   1   2
BRANCH   1  27
ATOM     27  C   UNL     1     -28.308  26.129  37.835  1.00  0.00     0.239 C 
BRANCH  27  28
ATOM     28  C   UNL     1     -27.973  24.756  38.339  1.00  0.00     0.103 C 
BRANCH  28  29
ATOM     29  C   UNL     1     -29.020  23.731  38.134  1.00  0.00     0.265 C 
BRANCH  29  30
ATOM     30  N   UNL     1     -28.557  22.630  37.316  1.00  0.00    -0.335 N 
ATOM     31  C   UNL     1     -27.219  22.758  36.857  1.00  0.00     0.263 C 
ATOM     32  C   UNL     1     -29.410  22.436  36.161  1.00  0.00     0.263 C 
ATOM     33  C   UNL     1     -26.716  21.359  36.486  1.00  0.00     0.078 C 
ATOM     34  C   UNL     1     -28.654  21.764  35.031  1.00  0.00     0.078 C 
ATOM     35  C   UNL     1     -27.664  20.745  35.534  1.00  0.00     0.031 C 
ATOM     36  H   UNL     1     -28.693  21.778  37.918  1.00  0.00     0.348 HD
BRANCH  35  37
ATOM     37  C   UNL     1     -28.399  19.564  36.005  1.00  0.00    -0.037 A 
ATOM     38  C   UNL     1     -29.351  19.053  35.139  1.00  0.00     0.004 A 
ATOM     39  C   UNL     1     -28.248  18.914  37.192  1.00  0.00     0.004 A 
ATOM     40  C   UNL     1     -30.112  17.952  35.439  1.00  0.00     0.000 A 
ATOM     41  C   UNL     1     -28.991  17.814  37.523  1.00  0.00     0.000 A 
ATOM     42  C   UNL     1     -29.947  17.314  36.634  1.00  0.00     0.000 A 
ENDBRANCH  35  37
BRANCH  35  43
ATOM     43  C   UNL     1     -26.853  20.241  34.377  1.00  0.00    -0.037 A 
ATOM     44  C   UNL     1     -26.882  21.113  33.276  1.00  0.00     0.004 A 
ATOM     45  C   UNL     1     -26.152  19.088  34.338  1.00  0.00     0.004 A 
ATOM     46  C   UNL     1     -26.192  20.800  32.135  1.00  0.00     0.000 A 
ATOM     47  C   UNL     1     -25.451  18.768  33.186  1.00  0.00     0.000 A 
ATOM     48  C   UNL     1     -25.477  19.626  32.094  1.00  0.00     0.000 A 
ENDBRANCH  35  43
ENDBRANCH  29  30
ENDBRANCH  28  29
ENDBRANCH  27  28
ENDBRANCH   1  27
TORSDOF 12
ENDMDL
MODEL 9
REMARK VINA RESULT:      -4.9     11.999     16.123
REMARK SMILES COC(=O)C1=C(C)[NH2+]C(C)=C(C(=O)OCCC[NH+]2CCC(c3ccccc3)(c3ccccc3)CC2)C1c1cccc([N+](=O)[O-])c1
REMARK SMILES IDX 14 1 12 2 13 3 11 4 5 5 6 6 36 7 8 8 9 9 7 10 10 13 3 14
REMARK SMILES IDX 4 15 2 16 1 17 37 18 38 19 45 20 39 21 41 22 40 23 42 24
REMARK SMILES IDX 43 25 44 26 15 27 16 28 17 29 18 30 19 31 35 32 20 33 34 34
REMARK SMILES IDX 21 35 22 37 23 38 27 39 24 40 26 41 25 42 28 43 29 44 33 45
REMARK SMILES IDX 30 46 32 47 31 48
REMARK H PARENT 8 11 8 12 18 36
ROOT
ATOM      1  O   UNL     1     -37.067  27.402  28.477  1.00  0.00    -0.462 OA
ENDROOT
BRANCH   1   2
ATOM      2  C   UNL     1     -36.917  28.736  28.822  1.00  0.00     0.340 C 
ATOM      3  O   UNL     1     -35.779  29.206  28.873  1.00  0.00    -0.246 OA
BRANCH   2   4
ATOM      4  C   UNL     1     -38.081  29.574  29.121  1.00  0.00     0.106 C 
ATOM      5  C   UNL     1     -39.591  30.548  30.831  1.00  0.00     0.106 C 
ATOM      6  C   UNL     1     -39.964  31.447  29.914  1.00  0.00     0.119 C 
ATOM      7  C   UNL     1     -38.820  29.365  30.395  1.00  0.00     0.106 C 
ATOM      8  N   UNL     1     -39.638  31.342  28.541  1.00  0.00    -0.288 N 
ATOM      9  C   UNL     1     -38.507  30.500  28.293  1.00  0.00     0.119 C 
ATOM     10  C   UNL     1     -40.752  32.635  30.399  1.00  0.00     0.112 C 
ATOM     11  H   UNL     1     -40.447  31.133  27.920  1.00  0.00     0.357 HD
ATOM     12  H   UNL     1     -39.343  32.327  28.246  1.00  0.00     0.357 HD
ATOM     13  C   UNL     1     -37.799  30.730  26.998  1.00  0.00     0.112 C 
BRANCH   5  14
ATOM     14  C   UNL     1     -39.929  30.718  32.228  1.00  0.00     0.340 C 
ATOM     15  O   UNL     1     -39.211  31.340  33.065  1.00  0.00    -0.246 OA
BRANCH  14  16
ATOM     16  O   UNL     1     -41.124  30.163  32.698  1.00  0.00    -0.465 OA
ATOM     17  C   UNL     1     -41.241  29.827  34.075  1.00  0.00     0.282 C 
ENDBRANCH  14  16
ENDBRANCH   5  14
BRANCH   7  18
ATOM     18  C   UNL     1     -39.774  28.216  30.270  1.00  0.00    -0.028 A 
ATOM     19  C   UNL     1     -40.696  28.130  29.250  1.00  0.00     0.005 A 
ATOM     20  C   UNL     1     -39.729  27.224  31.210  1.00  0.00     0.090 A 
ATOM     21  C   UNL     1     -41.545  27.036  29.222  1.00  0.00     0.007 A 
ATOM     22  C   UNL     1     -40.591  26.128  31.168  1.00  0.00     0.269 A 
ATOM     23  C   UNL     1     -41.513  26.026  30.165  1.00  0.00     0.085 A 
BRANCH  22  24
ATOM     24  N   UNL     1     -40.540  25.098  32.155  1.00  0.00     0.062 N 
ATOM     25  O   UNL     1     -41.387  25.048  33.057  1.00  0.00    -0.258 OA
ATOM     26  O   UNL     1     -39.559  24.148  32.129  1.00  0.00    -0.258 OA
ENDBRANCH  22  24
ENDBRANCH   7  18
ENDBRANCH   2   4
ENDBRANCH   1   2
BRANCH   1  27
ATOM     27  C   UNL     1     -37.688  26.992  27.266  1.00  0.00     0.239 C 
BRANCH  27  28
ATOM     28  C   UNL     1     -37.774  25.494  27.253  1.00  0.00     0.103 C 
BRANCH  28  29
ATOM     29  C   UNL     1     -38.673  24.901  28.266  1.00  0.00     0.265 C 
BRANCH  29  30
ATOM     30  N   UNL     1     -38.185  23.629  28.757  1.00  0.00    -0.335 N 
ATOM     31  C   UNL     1     -37.186  23.029  27.945  1.00  0.00     0.263 C 
ATOM     32  C   UNL     1     -39.264  22.676  28.915  1.00  0.00     0.263 C 
ATOM     33  C   UNL     1     -36.420  22.024  28.812  1.00  0.00     0.078 C 
ATOM     34  C   UNL     1     -38.753  21.251  28.820  1.00  0.00     0.078 C 
ATOM     35  C   UNL     1     -37.385  21.093  29.434  1.00  0.00     0.031 C 
ATOM     36  H   UNL     1     -37.840  23.836  29.728  1.00  0.00     0.348 HD
BRANCH  35  37
ATOM     37  C   UNL     1     -37.514  21.155  30.895  1.00  0.00    -0.037 A 
ATOM     38  C   UNL     1     -36.727  22.096  31.537  1.00  0.00     0.004 A 
ATOM     39  C   UNL     1     -38.321  20.397  31.687  1.00  0.00     0.004 A 
ATOM     40  C   UNL     1     -36.743  22.273  32.897  1.00  0.00     0.000 A 
ATOM     41  C   UNL     1     -38.362  20.547  33.047  1.00  0.00     0.000 A 
ATOM     42  C   UNL     1     -37.559  21.503  33.675  1.00  0.00     0.000 A 
ENDBRANCH  35  37
BRANCH  35  43
ATOM     43  C   UNL     1     -36.886  19.705  29.163  1.00  0.00    -0.037 A 
ATOM     44  C   UNL     1     -35.492  19.594  29.305  1.00  0.00     0.004 A 
ATOM     45  C   UNL     1     -37.641  18.641  28.816  1.00  0.00     0.004 A 
ATOM     46  C   UNL     1     -34.875  18.390  29.093  1.00  0.00     0.000 A 
ATOM     47  C   UNL     1     -37.020  17.421  28.601  1.00  0.00     0.000 A 
ATOM     48  C   UNL     1     -35.643  17.305  28.740  1.00  0.00     0.000 A 
ENDBRANCH  35  43
ENDBRANCH  29  30
ENDBRANCH  28  29
ENDBRANCH  27  28
ENDBRANCH   1  27
TORSDOF 12
ENDMDL
