MODEL 1
REMARK VINA RESULT:      -5.7      0.000      0.000
REMARK SMILES O=c1c([O-])c(-c2ccccc2)oc2cc([O-])cc([O-])c12
REMARK SMILES IDX 1 1 2 2 3 3 4 4 5 5 12 6 13 7 14 8 15 9 16 10 17 11 18 12
REMARK SMILES IDX 19 13 20 14 6 15 7 16 11 17 8 18 10 19 9 20
REMARK H PARENT
ROOT
ATOM      1  O   UNL     1       3.052 -71.419 -53.353  1.00  0.00    -0.290 OA
ATOM      2  C   UNL     1       3.324 -70.522 -52.528  1.00  0.00     0.184 A 
ATOM      3  C   UNL     1       4.257 -70.853 -51.523  1.00  0.00    -0.014 A 
ATOM      4  O   UNL     1       4.806 -72.106 -51.497  1.00  0.00    -0.867 OA
ATOM      5  C   UNL     1       4.575 -69.895 -50.606  1.00  0.00     0.130 A 
ATOM      6  O   UNL     1       3.988 -68.684 -50.701  1.00  0.00    -0.457 OA
ATOM      7  C   UNL     1       3.140 -68.375 -51.609  1.00  0.00     0.137 A 
ATOM      8  C   UNL     1       2.580 -67.128 -51.652  1.00  0.00     0.039 A 
ATOM      9  C   UNL     1       1.665 -66.762 -52.615  1.00  0.00    -0.106 A 
ATOM     10  O   UNL     1       1.111 -65.482 -52.631  1.00  0.00    -0.872 OA
ATOM     11  C   UNL     1       1.298 -67.700 -53.583  1.00  0.00    -0.016 A 
ATOM     12  C   UNL     1       1.841 -68.959 -53.569  1.00  0.00    -0.094 A 
ATOM     13  O   UNL     1       1.473 -69.878 -54.528  1.00  0.00    -0.872 OA
ATOM     14  C   UNL     1       2.748 -69.273 -52.589  1.00  0.00     0.056 A 
ENDROOT
BRANCH   5  15
ATOM     15  C   UNL     1       5.520 -70.116 -49.526  1.00  0.00     0.017 A 
ATOM     16  C   UNL     1       6.871 -69.975 -49.559  1.00  0.00     0.012 A 
ATOM     17  C   UNL     1       5.004 -70.524 -48.284  1.00  0.00     0.012 A 
ATOM     18  C   UNL     1       7.690 -70.211 -48.465  1.00  0.00     0.001 A 
ATOM     19  C   UNL     1       5.803 -70.762 -47.189  1.00  0.00     0.001 A 
ATOM     20  C   UNL     1       7.167 -70.608 -47.265  1.00  0.00     0.000 A 
ENDBRANCH   5  15
TORSDOF 1
ENDMDL
MODEL 2
REMARK VINA RESULT:      -5.6      0.371      1.105
REMARK SMILES O=c1c([O-])c(-c2ccccc2)oc2cc([O-])cc([O-])c12
REMARK SMILES IDX 1 1 2 2 3 3 4 4 5 5 12 6 13 7 14 8 15 9 16 10 17 11 18 12
REMARK SMILES IDX 19 13 20 14 6 15 7 16 11 17 8 18 10 19 9 20
REMARK H PARENT
ROOT
ATOM      1  O   UNL     1       3.072 -71.583 -53.587  1.00  0.00    -0.290 OA
ATOM      2  C   UNL     1       3.257 -70.664 -52.762  1.00  0.00     0.184 A 
ATOM      3  C   UNL     1       4.135 -70.942 -51.695  1.00  0.00    -0.014 A 
ATOM      4  O   UNL     1       4.730 -72.171 -51.611  1.00  0.00    -0.867 OA
ATOM      5  C   UNL     1       4.359 -69.957 -50.778  1.00  0.00     0.130 A 
ATOM      6  O   UNL     1       3.732 -68.772 -50.931  1.00  0.00    -0.457 OA
ATOM      7  C   UNL     1       2.933 -68.511 -51.897  1.00  0.00     0.137 A 
ATOM      8  C   UNL     1       2.330 -67.288 -51.998  1.00  0.00     0.039 A 
ATOM      9  C   UNL     1       1.464 -66.973 -53.023  1.00  0.00    -0.106 A 
ATOM     10  O   UNL     1       0.864 -65.716 -53.097  1.00  0.00    -0.872 OA
ATOM     11  C   UNL     1       1.196 -67.940 -53.995  1.00  0.00    -0.016 A 
ATOM     12  C   UNL     1       1.784 -69.176 -53.924  1.00  0.00    -0.094 A 
ATOM     13  O   UNL     1       1.513 -70.124 -54.887  1.00  0.00    -0.872 OA
ATOM     14  C   UNL     1       2.639 -69.439 -52.882  1.00  0.00     0.056 A 
ENDROOT
BRANCH   5  15
ATOM     15  C   UNL     1       5.240 -70.124 -49.637  1.00  0.00     0.017 A 
ATOM     16  C   UNL     1       4.910 -70.525 -48.381  1.00  0.00     0.012 A 
ATOM     17  C   UNL     1       6.605 -69.847 -49.823  1.00  0.00     0.012 A 
ATOM     18  C   UNL     1       5.833 -70.655 -47.354  1.00  0.00     0.001 A 
ATOM     19  C   UNL     1       7.534 -69.970 -48.815  1.00  0.00     0.001 A 
ATOM     20  C   UNL     1       7.157 -70.379 -47.557  1.00  0.00     0.000 A 
ENDBRANCH   5  15
TORSDOF 1
ENDMDL
MODEL 3
REMARK VINA RESULT:      -5.6      1.273      3.171
REMARK SMILES O=c1c([O-])c(-c2ccccc2)oc2cc([O-])cc([O-])c12
REMARK SMILES IDX 1 1 2 2 3 3 4 4 5 5 12 6 13 7 14 8 15 9 16 10 17 11 18 12
REMARK SMILES IDX 19 13 20 14 6 15 7 16 11 17 8 18 10 19 9 20
REMARK H PARENT
ROOT
ATOM      1  O   UNL     1       2.330 -67.122 -51.493  1.00  0.00    -0.290 OA
ATOM      2  C   UNL     1       2.953 -68.204 -51.479  1.00  0.00     0.184 A 
ATOM      3  C   UNL     1       3.838 -68.408 -50.399  1.00  0.00    -0.014 A 
ATOM      4  O   UNL     1       3.971 -67.439 -49.442  1.00  0.00    -0.867 OA
ATOM      5  C   UNL     1       4.533 -69.580 -50.355  1.00  0.00     0.130 A 
ATOM      6  O   UNL     1       4.346 -70.484 -51.339  1.00  0.00    -0.457 OA
ATOM      7  C   UNL     1       3.545 -70.308 -52.322  1.00  0.00     0.137 A 
ATOM      8  C   UNL     1       3.399 -71.265 -53.289  1.00  0.00     0.039 A 
ATOM      9  C   UNL     1       2.547 -71.108 -54.361  1.00  0.00    -0.106 A 
ATOM     10  O   UNL     1       2.420 -72.103 -55.330  1.00  0.00    -0.872 OA
ATOM     11  C   UNL     1       1.806 -69.928 -54.461  1.00  0.00    -0.016 A 
ATOM     12  C   UNL     1       1.929 -68.948 -53.510  1.00  0.00    -0.094 A 
ATOM     13  O   UNL     1       1.195 -67.787 -53.618  1.00  0.00    -0.872 OA
ATOM     14  C   UNL     1       2.791 -69.154 -52.462  1.00  0.00     0.056 A 
ENDROOT
BRANCH   5  15
ATOM     15  C   UNL     1       5.472 -69.904 -49.296  1.00  0.00     0.017 A 
ATOM     16  C   UNL     1       5.197 -70.418 -48.069  1.00  0.00     0.012 A 
ATOM     17  C   UNL     1       6.835 -69.670 -49.541  1.00  0.00     0.012 A 
ATOM     18  C   UNL     1       6.172 -70.696 -47.122  1.00  0.00     0.001 A 
ATOM     19  C   UNL     1       7.815 -69.939 -48.613  1.00  0.00     0.001 A 
ATOM     20  C   UNL     1       7.494 -70.459 -47.381  1.00  0.00     0.000 A 
ENDBRANCH   5  15
TORSDOF 1
ENDMDL
MODEL 4
REMARK VINA RESULT:      -5.6      1.047      1.163
REMARK SMILES O=c1c([O-])c(-c2ccccc2)oc2cc([O-])cc([O-])c12
REMARK SMILES IDX 1 1 2 2 3 3 4 4 5 5 12 6 13 7 14 8 15 9 16 10 17 11 18 12
REMARK SMILES IDX 19 13 20 14 6 15 7 16 11 17 8 18 10 19 9 20
REMARK H PARENT
ROOT
ATOM      1  O   UNL     1       3.194 -72.099 -54.221  1.00  0.00    -0.290 OA
ATOM      2  C   UNL     1       3.239 -71.204 -53.352  1.00  0.00     0.184 A 
ATOM      3  C   UNL     1       4.145 -71.403 -52.289  1.00  0.00    -0.014 A 
ATOM      4  O   UNL     1       4.911 -72.536 -52.258  1.00  0.00    -0.867 OA
ATOM      5  C   UNL     1       4.219 -70.442 -51.324  1.00  0.00     0.130 A 
ATOM      6  O   UNL     1       3.428 -69.355 -51.428  1.00  0.00    -0.457 OA
ATOM      7  C   UNL     1       2.603 -69.165 -52.389  1.00  0.00     0.137 A 
ATOM      8  C   UNL     1       1.829 -68.039 -52.438  1.00  0.00     0.039 A 
ATOM      9  C   UNL     1       0.932 -67.803 -53.458  1.00  0.00    -0.106 A 
ATOM     10  O   UNL     1       0.156 -66.644 -53.479  1.00  0.00    -0.872 OA
ATOM     11  C   UNL     1       0.811 -68.750 -54.477  1.00  0.00    -0.016 A 
ATOM     12  C   UNL     1       1.572 -69.890 -54.458  1.00  0.00    -0.094 A 
ATOM     13  O   UNL     1       1.445 -70.820 -55.468  1.00  0.00    -0.872 OA
ATOM     14  C   UNL     1       2.451 -70.077 -53.421  1.00  0.00     0.056 A 
ENDROOT
BRANCH   5  15
ATOM     15  C   UNL     1       5.111 -70.535 -50.183  1.00  0.00     0.017 A 
ATOM     16  C   UNL     1       6.447 -70.782 -50.187  1.00  0.00     0.012 A 
ATOM     17  C   UNL     1       4.554 -70.350 -48.906  1.00  0.00     0.012 A 
ATOM     18  C   UNL     1       7.214 -70.849 -49.034  1.00  0.00     0.001 A 
ATOM     19  C   UNL     1       5.301 -70.414 -47.752  1.00  0.00     0.001 A 
ATOM     20  C   UNL     1       6.652 -70.667 -47.801  1.00  0.00     0.000 A 
ENDBRANCH   5  15
TORSDOF 1
ENDMDL
MODEL 5
REMARK VINA RESULT:      -5.6      1.279      2.981
REMARK SMILES O=c1c([O-])c(-c2ccccc2)oc2cc([O-])cc([O-])c12
REMARK SMILES IDX 1 1 2 2 3 3 4 4 5 5 12 6 13 7 14 8 15 9 16 10 17 11 18 12
REMARK SMILES IDX 19 13 20 14 6 15 7 16 11 17 8 18 10 19 9 20
REMARK H PARENT
ROOT
ATOM      1  O   UNL     1       2.389 -67.015 -51.490  1.00  0.00    -0.290 OA
ATOM      2  C   UNL     1       3.010 -68.098 -51.504  1.00  0.00     0.184 A 
ATOM      3  C   UNL     1       3.959 -68.293 -50.479  1.00  0.00    -0.014 A 
ATOM      4  O   UNL     1       4.152 -67.315 -49.542  1.00  0.00    -0.867 OA
ATOM      5  C   UNL     1       4.654 -69.467 -50.466  1.00  0.00     0.130 A 
ATOM      6  O   UNL     1       4.404 -70.380 -51.427  1.00  0.00    -0.457 OA
ATOM      7  C   UNL     1       3.545 -70.211 -52.361  1.00  0.00     0.137 A 
ATOM      8  C   UNL     1       3.338 -71.177 -53.307  1.00  0.00     0.039 A 
ATOM      9  C   UNL     1       2.421 -71.029 -54.326  1.00  0.00    -0.106 A 
ATOM     10  O   UNL     1       2.233 -72.033 -55.276  1.00  0.00    -0.872 OA
ATOM     11  C   UNL     1       1.678 -69.848 -54.392  1.00  0.00    -0.016 A 
ATOM     12  C   UNL     1       1.861 -68.860 -53.460  1.00  0.00    -0.094 A 
ATOM     13  O   UNL     1       1.123 -67.698 -53.534  1.00  0.00    -0.872 OA
ATOM     14  C   UNL     1       2.786 -69.057 -52.466  1.00  0.00     0.056 A 
ENDROOT
BRANCH   5  15
ATOM     15  C   UNL     1       5.655 -69.782 -49.464  1.00  0.00     0.017 A 
ATOM     16  C   UNL     1       6.997 -69.580 -49.535  1.00  0.00     0.012 A 
ATOM     17  C   UNL     1       5.215 -70.367 -48.265  1.00  0.00     0.012 A 
ATOM     18  C   UNL     1       7.875 -69.918 -48.516  1.00  0.00     0.001 A 
ATOM     19  C   UNL     1       6.072 -70.708 -47.244  1.00  0.00     0.001 A 
ATOM     20  C   UNL     1       7.425 -70.486 -47.357  1.00  0.00     0.000 A 
ENDBRANCH   5  15
TORSDOF 1
ENDMDL
MODEL 6
REMARK VINA RESULT:      -5.5      2.203      6.847
REMARK SMILES O=c1c([O-])c(-c2ccccc2)oc2cc([O-])cc([O-])c12
REMARK SMILES IDX 1 1 2 2 3 3 4 4 5 5 12 6 13 7 14 8 15 9 16 10 17 11 18 12
REMARK SMILES IDX 19 13 20 14 6 15 7 16 11 17 8 18 10 19 9 20
REMARK H PARENT
ROOT
ATOM      1  O   UNL     1       2.987 -68.302 -49.528  1.00  0.00    -0.290 OA
ATOM      2  C   UNL     1       2.700 -68.662 -50.689  1.00  0.00     0.184 A 
ATOM      3  C   UNL     1       1.711 -67.910 -51.355  1.00  0.00    -0.014 A 
ATOM      4  O   UNL     1       1.125 -66.850 -50.720  1.00  0.00    -0.867 OA
ATOM      5  C   UNL     1       1.376 -68.278 -52.625  1.00  0.00     0.130 A 
ATOM      6  O   UNL     1       2.000 -69.337 -53.181  1.00  0.00    -0.457 OA
ATOM      7  C   UNL     1       2.899 -70.026 -52.583  1.00  0.00     0.137 A 
ATOM      8  C   UNL     1       3.496 -71.090 -53.202  1.00  0.00     0.039 A 
ATOM      9  C   UNL     1       4.466 -71.852 -52.588  1.00  0.00    -0.106 A 
ATOM     10  O   UNL     1       5.056 -72.931 -53.247  1.00  0.00    -0.872 OA
ATOM     11  C   UNL     1       4.853 -71.524 -51.287  1.00  0.00    -0.016 A 
ATOM     12  C   UNL     1       4.275 -70.464 -50.638  1.00  0.00    -0.094 A 
ATOM     13  O   UNL     1       4.663 -70.148 -49.353  1.00  0.00    -0.872 OA
ATOM     14  C   UNL     1       3.314 -69.736 -51.293  1.00  0.00     0.056 A 
ENDROOT
BRANCH   5  15
ATOM     15  C   UNL     1       0.373 -67.583 -53.412  1.00  0.00     0.017 A 
ATOM     16  C   UNL     1      -0.912 -67.959 -53.642  1.00  0.00     0.012 A 
ATOM     17  C   UNL     1       0.747 -66.373 -54.020  1.00  0.00     0.012 A 
ATOM     18  C   UNL     1      -1.798 -67.220 -54.412  1.00  0.00     0.001 A 
ATOM     19  C   UNL     1      -0.119 -65.628 -54.787  1.00  0.00     0.001 A 
ATOM     20  C   UNL     1      -1.413 -66.044 -54.996  1.00  0.00     0.000 A 
ENDBRANCH   5  15
TORSDOF 1
ENDMDL
MODEL 7
REMARK VINA RESULT:      -5.5      1.042      1.192
REMARK SMILES O=c1c([O-])c(-c2ccccc2)oc2cc([O-])cc([O-])c12
REMARK SMILES IDX 1 1 2 2 3 3 4 4 5 5 12 6 13 7 14 8 15 9 16 10 17 11 18 12
REMARK SMILES IDX 19 13 20 14 6 15 7 16 11 17 8 18 10 19 9 20
REMARK H PARENT
ROOT
ATOM      1  O   UNL     1       4.336 -72.202 -52.998  1.00  0.00    -0.290 OA
ATOM      2  C   UNL     1       4.295 -71.271 -52.167  1.00  0.00     0.184 A 
ATOM      3  C   UNL     1       5.238 -71.321 -51.119  1.00  0.00    -0.014 A 
ATOM      4  O   UNL     1       6.129 -72.357 -51.061  1.00  0.00    -0.867 OA
ATOM      5  C   UNL     1       5.220 -70.318 -50.195  1.00  0.00     0.130 A 
ATOM      6  O   UNL     1       4.308 -69.332 -50.324  1.00  0.00    -0.457 OA
ATOM      7  C   UNL     1       3.449 -69.279 -51.272  1.00  0.00     0.137 A 
ATOM      8  C   UNL     1       2.549 -68.251 -51.347  1.00  0.00     0.039 A 
ATOM      9  C   UNL     1       1.611 -68.162 -52.354  1.00  0.00    -0.106 A 
ATOM     10  O   UNL     1       0.707 -67.101 -52.403  1.00  0.00    -0.872 OA
ATOM     11  C   UNL     1       1.580 -69.159 -53.331  1.00  0.00    -0.016 A 
ATOM     12  C   UNL     1       2.467 -70.204 -53.284  1.00  0.00    -0.094 A 
ATOM     13  O   UNL     1       2.428 -71.184 -54.253  1.00  0.00    -0.872 OA
ATOM     14  C   UNL     1       3.382 -70.245 -52.262  1.00  0.00     0.056 A 
ENDROOT
BRANCH   5  15
ATOM     15  C   UNL     1       6.138 -70.260 -49.072  1.00  0.00     0.017 A 
ATOM     16  C   UNL     1       7.445 -69.890 -49.084  1.00  0.00     0.012 A 
ATOM     17  C   UNL     1       5.643 -70.622 -47.808  1.00  0.00     0.012 A 
ATOM     18  C   UNL     1       8.242 -69.867 -47.949  1.00  0.00     0.001 A 
ATOM     19  C   UNL     1       6.420 -70.604 -46.672  1.00  0.00     0.001 A 
ATOM     20  C   UNL     1       7.741 -70.224 -46.728  1.00  0.00     0.000 A 
ENDBRANCH   5  15
TORSDOF 1
ENDMDL
MODEL 8
REMARK VINA RESULT:      -5.5      0.964      1.465
REMARK SMILES O=c1c([O-])c(-c2ccccc2)oc2cc([O-])cc([O-])c12
REMARK SMILES IDX 1 1 2 2 3 3 4 4 5 5 12 6 13 7 14 8 15 9 16 10 17 11 18 12
REMARK SMILES IDX 19 13 20 14 6 15 7 16 11 17 8 18 10 19 9 20
REMARK H PARENT
ROOT
ATOM      1  O   UNL     1       4.305 -71.990 -53.367  1.00  0.00    -0.290 OA
ATOM      2  C   UNL     1       4.173 -71.142 -52.460  1.00  0.00     0.184 A 
ATOM      3  C   UNL     1       5.046 -71.258 -51.358  1.00  0.00    -0.014 A 
ATOM      4  O   UNL     1       5.972 -72.265 -51.332  1.00  0.00    -0.867 OA
ATOM      5  C   UNL     1       4.927 -70.347 -50.350  1.00  0.00     0.130 A 
ATOM      6  O   UNL     1       3.987 -69.384 -50.452  1.00  0.00    -0.457 OA
ATOM      7  C   UNL     1       3.191 -69.272 -51.448  1.00  0.00     0.137 A 
ATOM      8  C   UNL     1       2.259 -68.271 -51.492  1.00  0.00     0.039 A 
ATOM      9  C   UNL     1       1.386 -68.121 -52.549  1.00  0.00    -0.106 A 
ATOM     10  O   UNL     1       0.446 -67.091 -52.564  1.00  0.00    -0.872 OA
ATOM     11  C   UNL     1       1.459 -69.023 -53.612  1.00  0.00    -0.016 A 
ATOM     12  C   UNL     1       2.382 -70.038 -53.599  1.00  0.00    -0.094 A 
ATOM     13  O   UNL     1       2.446 -70.924 -54.653  1.00  0.00    -0.872 OA
ATOM     14  C   UNL     1       3.228 -70.144 -52.524  1.00  0.00     0.056 A 
ENDROOT
BRANCH   5  15
ATOM     15  C   UNL     1       5.766 -70.363 -49.166  1.00  0.00     0.017 A 
ATOM     16  C   UNL     1       5.429 -70.763 -47.912  1.00  0.00     0.012 A 
ATOM     17  C   UNL     1       7.092 -69.918 -49.302  1.00  0.00     0.012 A 
ATOM     18  C   UNL     1       6.310 -70.741 -46.841  1.00  0.00     0.001 A 
ATOM     19  C   UNL     1       7.979 -69.890 -48.250  1.00  0.00     0.001 A 
ATOM     20  C   UNL     1       7.597 -70.304 -46.995  1.00  0.00     0.000 A 
ENDBRANCH   5  15
TORSDOF 1
ENDMDL
MODEL 9
REMARK VINA RESULT:      -5.4      2.202      4.029
REMARK SMILES O=c1c([O-])c(-c2ccccc2)oc2cc([O-])cc([O-])c12
REMARK SMILES IDX 1 1 2 2 3 3 4 4 5 5 12 6 13 7 14 8 15 9 16 10 17 11 18 12
REMARK SMILES IDX 19 13 20 14 6 15 7 16 11 17 8 18 10 19 9 20
REMARK H PARENT
ROOT
ATOM      1  O   UNL     1       4.328 -69.029 -48.187  1.00  0.00    -0.290 OA
ATOM      2  C   UNL     1       4.861 -69.691 -49.102  1.00  0.00     0.184 A 
ATOM      3  C   UNL     1       6.126 -70.249 -48.820  1.00  0.00    -0.014 A 
ATOM      4  O   UNL     1       6.696 -70.047 -47.593  1.00  0.00    -0.867 OA
ATOM      5  C   UNL     1       6.734 -70.978 -49.799  1.00  0.00     0.130 A 
ATOM      6  O   UNL     1       6.105 -71.130 -50.983  1.00  0.00    -0.457 OA
ATOM      7  C   UNL     1       4.958 -70.627 -51.247  1.00  0.00     0.137 A 
ATOM      8  C   UNL     1       4.372 -70.818 -52.468  1.00  0.00     0.039 A 
ATOM      9  C   UNL     1       3.139 -70.291 -52.786  1.00  0.00    -0.106 A 
ATOM     10  O   UNL     1       2.568 -70.503 -54.041  1.00  0.00    -0.872 OA
ATOM     11  C   UNL     1       2.464 -69.535 -51.825  1.00  0.00    -0.016 A 
ATOM     12  C   UNL     1       3.024 -69.324 -50.591  1.00  0.00    -0.094 A 
ATOM     13  O   UNL     1       2.351 -68.576 -49.649  1.00  0.00    -0.872 OA
ATOM     14  C   UNL     1       4.254 -69.871 -50.324  1.00  0.00     0.056 A 
ENDROOT
BRANCH   5  15
ATOM     15  C   UNL     1       8.034 -71.601 -49.629  1.00  0.00     0.017 A 
ATOM     16  C   UNL     1       8.303 -72.880 -49.258  1.00  0.00     0.012 A 
ATOM     17  C   UNL     1       9.171 -70.811 -49.871  1.00  0.00     0.012 A 
ATOM     18  C   UNL     1       9.589 -73.382 -49.125  1.00  0.00     0.001 A 
ATOM     19  C   UNL     1      10.453 -71.293 -49.743  1.00  0.00     0.001 A 
ATOM     20  C   UNL     1      10.682 -72.596 -49.365  1.00  0.00     0.000 A 
ENDBRANCH   5  15
TORSDOF 1
ENDMDL
