MODEL 1
REMARK VINA RESULT:     -10.1      0.000      0.000
REMARK SMILES O=C1NCN(c2ccccc2)C12CC[NH+](CCCC(c1ccc(F)cc1)c1ccc(F)cc1)CC2
REMARK SMILES IDX 17 1 16 2 15 3 1 4 2 5 3 6 12 7 4 8 5 9 13 10 35 11 14 12
REMARK SMILES IDX 34 13 6 16 7 17 11 18 8 19 10 20 9 21 18 22 19 23 20 24
REMARK SMILES IDX 21 25 26 26 22 27 25 28 23 29 24 30 27 31 28 32 33 33 29 34
REMARK SMILES IDX 32 35 30 36 31 37
REMARK H PARENT 3 14 15 15
ROOT
ATOM      1  C   UNL     1     153.842 150.078 118.033  1.00  0.00     0.062 C 
ENDROOT
BRANCH   1   2
ATOM      2  C   UNL     1     152.370 149.827 117.889  1.00  0.00     0.262 C 
BRANCH   2   3
ATOM      3  N   UNL     1     151.613 150.924 118.481  1.00  0.00    -0.335 N 
ATOM      4  O   UNL     1     149.336 151.805 120.595  1.00  0.00    -0.272 OA
ATOM      5  C   UNL     1     149.324 152.925 120.043  1.00  0.00     0.247 C 
ATOM      6  N   UNL     1     148.489 153.989 120.428  1.00  0.00    -0.336 N 
ATOM      7  C   UNL     1     150.191 153.337 118.876  1.00  0.00     0.131 C 
ATOM      8  C   UNL     1     149.084 155.175 119.898  1.00  0.00     0.238 C 
ATOM      9  N   UNL     1     149.760 154.718 118.674  1.00  0.00    -0.339 N 
ATOM     10  C   UNL     1     149.861 152.453 117.690  1.00  0.00     0.100 C 
ATOM     11  C   UNL     1     151.611 153.201 119.297  1.00  0.00     0.100 C 
ATOM     12  C   UNL     1     150.273 151.021 117.940  1.00  0.00     0.265 C 
ATOM     13  C   UNL     1     152.305 152.185 118.450  1.00  0.00     0.265 C 
ATOM     14  H   UNL     1     147.604 153.901 120.996  1.00  0.00     0.165 HD
ATOM     15  H   UNL     1     151.514 150.652 119.483  1.00  0.00     0.348 HD
BRANCH   9  16
ATOM     16  C   UNL     1     149.889 155.569 117.547  1.00  0.00     0.039 A 
ATOM     17  C   UNL     1     151.126 155.919 117.060  1.00  0.00     0.026 A 
ATOM     18  C   UNL     1     148.773 156.032 116.919  1.00  0.00     0.026 A 
ATOM     19  C   UNL     1     151.265 156.740 115.937  1.00  0.00     0.002 A 
ATOM     20  C   UNL     1     148.887 156.837 115.820  1.00  0.00     0.002 A 
ATOM     21  C   UNL     1     150.115 157.192 115.325  1.00  0.00     0.000 A 
ENDBRANCH   9  16
ENDBRANCH   2   3
ENDBRANCH   1   2
BRANCH   1  22
ATOM     22  C   UNL     1     154.577 149.228 118.976  1.00  0.00     0.019 C 
BRANCH  22  23
ATOM     23  C   UNL     1     155.087 149.719 120.249  1.00  0.00     0.049 C 
BRANCH  23  24
ATOM     24  C   UNL     1     154.043 150.080 121.274  1.00  0.00    -0.040 A 
ATOM     25  C   UNL     1     153.104 149.115 121.564  1.00  0.00     0.007 A 
ATOM     26  C   UNL     1     153.996 151.307 121.879  1.00  0.00     0.007 A 
ATOM     27  C   UNL     1     152.106 149.375 122.469  1.00  0.00     0.039 A 
ATOM     28  C   UNL     1     152.999 151.562 122.781  1.00  0.00     0.039 A 
ATOM     29  C   UNL     1     152.033 150.599 123.095  1.00  0.00     0.123 A 
ATOM     30  F   UNL     1     151.041 150.845 123.988  1.00  0.00    -0.207 F 
ENDBRANCH  23  24
BRANCH  23  31
ATOM     31  C   UNL     1     156.233 149.090 120.884  1.00  0.00    -0.040 A 
ATOM     32  C   UNL     1     157.304 149.723 121.451  1.00  0.00     0.007 A 
ATOM     33  C   UNL     1     156.223 147.689 120.888  1.00  0.00     0.007 A 
ATOM     34  C   UNL     1     158.333 148.950 122.003  1.00  0.00     0.039 A 
ATOM     35  C   UNL     1     157.213 146.929 121.421  1.00  0.00     0.039 A 
ATOM     36  C   UNL     1     158.286 147.578 121.987  1.00  0.00     0.123 A 
ATOM     37  F   UNL     1     159.271 146.804 122.517  1.00  0.00    -0.207 F 
ENDBRANCH  23  31
ENDBRANCH  22  23
ENDBRANCH   1  22
TORSDOF 7
ENDMDL
MODEL 2
REMARK VINA RESULT:     -10.1      0.849      1.248
REMARK SMILES O=C1NCN(c2ccccc2)C12CC[NH+](CCCC(c1ccc(F)cc1)c1ccc(F)cc1)CC2
REMARK SMILES IDX 17 1 16 2 15 3 1 4 2 5 3 6 12 7 4 8 5 9 13 10 35 11 14 12
REMARK SMILES IDX 34 13 6 16 7 17 11 18 8 19 10 20 9 21 18 22 19 23 20 24
REMARK SMILES IDX 21 25 26 26 22 27 25 28 23 29 24 30 27 31 28 32 33 33 29 34
REMARK SMILES IDX 32 35 30 36 31 37
REMARK H PARENT 3 14 15 15
ROOT
ATOM      1  C   UNL     1     153.685 148.910 119.040  1.00  0.00     0.062 C 
ENDROOT
BRANCH   1   2
ATOM      2  C   UNL     1     153.336 149.968 118.035  1.00  0.00     0.262 C 
BRANCH   2   3
ATOM      3  N   UNL     1     152.294 150.840 118.565  1.00  0.00    -0.335 N 
ATOM      4  O   UNL     1     149.538 151.052 120.236  1.00  0.00    -0.272 OA
ATOM      5  C   UNL     1     149.426 152.221 119.812  1.00  0.00     0.247 C 
ATOM      6  N   UNL     1     148.354 153.077 120.121  1.00  0.00    -0.336 N 
ATOM      7  C   UNL     1     150.408 152.921 118.901  1.00  0.00     0.131 C 
ATOM      8  C   UNL     1     148.812 154.403 119.852  1.00  0.00     0.238 C 
ATOM      9  N   UNL     1     149.778 154.231 118.756  1.00  0.00    -0.339 N 
ATOM     10  C   UNL     1     150.473 152.168 117.588  1.00  0.00     0.100 C 
ATOM     11  C   UNL     1     151.723 152.954 119.593  1.00  0.00     0.100 C 
ATOM     12  C   UNL     1     151.085 150.798 117.769  1.00  0.00     0.265 C 
ATOM     13  C   UNL     1     152.738 152.187 118.810  1.00  0.00     0.265 C 
ATOM     14  H   UNL     1     147.409 152.772 120.480  1.00  0.00     0.165 HD
ATOM     15  H   UNL     1     152.059 150.420 119.491  1.00  0.00     0.348 HD
BRANCH   9  16
ATOM     16  C   UNL     1     149.959 155.238 117.775  1.00  0.00     0.039 A 
ATOM     17  C   UNL     1     148.933 155.607 116.938  1.00  0.00     0.026 A 
ATOM     18  C   UNL     1     151.161 155.869 117.669  1.00  0.00     0.026 A 
ATOM     19  C   UNL     1     149.094 156.613 115.980  1.00  0.00     0.002 A 
ATOM     20  C   UNL     1     151.340 156.855 116.739  1.00  0.00     0.002 A 
ATOM     21  C   UNL     1     150.324 157.231 115.900  1.00  0.00     0.000 A 
ENDBRANCH   9  16
ENDBRANCH   2   3
ENDBRANCH   1   2
BRANCH   1  22
ATOM     22  C   UNL     1     155.043 148.938 119.595  1.00  0.00     0.019 C 
BRANCH  22  23
ATOM     23  C   UNL     1     155.435 149.827 120.679  1.00  0.00     0.049 C 
BRANCH  23  24
ATOM     24  C   UNL     1     154.365 150.125 121.697  1.00  0.00    -0.040 A 
ATOM     25  C   UNL     1     153.828 149.045 122.361  1.00  0.00     0.007 A 
ATOM     26  C   UNL     1     153.915 151.394 121.946  1.00  0.00     0.007 A 
ATOM     27  C   UNL     1     152.831 149.230 123.286  1.00  0.00     0.039 A 
ATOM     28  C   UNL     1     152.921 151.575 122.869  1.00  0.00     0.039 A 
ATOM     29  C   UNL     1     152.359 150.494 123.559  1.00  0.00     0.123 A 
ATOM     30  F   UNL     1     151.373 150.665 124.475  1.00  0.00    -0.207 F 
ENDBRANCH  23  24
BRANCH  23  31
ATOM     31  C   UNL     1     156.731 149.690 121.324  1.00  0.00    -0.040 A 
ATOM     32  C   UNL     1     157.472 150.689 121.891  1.00  0.00     0.007 A 
ATOM     33  C   UNL     1     157.260 148.393 121.336  1.00  0.00     0.007 A 
ATOM     34  C   UNL     1     158.716 150.373 122.452  1.00  0.00     0.039 A 
ATOM     35  C   UNL     1     158.463 148.075 121.878  1.00  0.00     0.039 A 
ATOM     36  C   UNL     1     159.200 149.089 122.444  1.00  0.00     0.123 A 
ATOM     37  F   UNL     1     160.403 148.756 122.984  1.00  0.00    -0.207 F 
ENDBRANCH  23  31
ENDBRANCH  22  23
ENDBRANCH   1  22
TORSDOF 7
ENDMDL
MODEL 3
REMARK VINA RESULT:     -10.0      0.517      1.204
REMARK SMILES O=C1NCN(c2ccccc2)C12CC[NH+](CCCC(c1ccc(F)cc1)c1ccc(F)cc1)CC2
REMARK SMILES IDX 17 1 16 2 15 3 1 4 2 5 3 6 12 7 4 8 5 9 13 10 35 11 14 12
REMARK SMILES IDX 34 13 6 16 7 17 11 18 8 19 10 20 9 21 18 22 19 23 20 24
REMARK SMILES IDX 21 25 26 26 22 27 25 28 23 29 24 30 27 31 28 32 33 33 29 34
REMARK SMILES IDX 32 35 30 36 31 37
REMARK H PARENT 3 14 15 15
ROOT
ATOM      1  C   UNL     1     154.053 149.857 118.135  1.00  0.00     0.062 C 
ENDROOT
BRANCH   1   2
ATOM      2  C   UNL     1     152.587 149.588 117.970  1.00  0.00     0.262 C 
BRANCH   2   3
ATOM      3  N   UNL     1     151.808 150.684 118.534  1.00  0.00    -0.335 N 
ATOM      4  O   UNL     1     149.401 151.557 120.502  1.00  0.00    -0.272 OA
ATOM      5  C   UNL     1     149.448 152.690 119.981  1.00  0.00     0.247 C 
ATOM      6  N   UNL     1     148.606 153.760 120.333  1.00  0.00    -0.336 N 
ATOM      7  C   UNL     1     150.404 153.114 118.891  1.00  0.00     0.131 C 
ATOM      8  C   UNL     1     149.259 154.947 119.879  1.00  0.00     0.238 C 
ATOM      9  N   UNL     1     150.013 154.508 118.694  1.00  0.00    -0.339 N 
ATOM     10  C   UNL     1     150.145 152.267 117.661  1.00  0.00     0.100 C 
ATOM     11  C   UNL     1     151.787 152.940 119.409  1.00  0.00     0.100 C 
ATOM     12  C   UNL     1     150.513 150.822 117.901  1.00  0.00     0.265 C 
ATOM     13  C   UNL     1     152.523 151.933 118.587  1.00  0.00     0.265 C 
ATOM     14  H   UNL     1     147.681 153.675 120.834  1.00  0.00     0.165 HD
ATOM     15  H   UNL     1     151.632 150.389 119.519  1.00  0.00     0.348 HD
BRANCH   9  16
ATOM     16  C   UNL     1     150.238 155.384 117.602  1.00  0.00     0.039 A 
ATOM     17  C   UNL     1     149.364 155.436 116.543  1.00  0.00     0.026 A 
ATOM     18  C   UNL     1     151.324 156.205 117.608  1.00  0.00     0.026 A 
ATOM     19  C   UNL     1     149.564 156.311 115.470  1.00  0.00     0.002 A 
ATOM     20  C   UNL     1     151.539 157.068 116.569  1.00  0.00     0.002 A 
ATOM     21  C   UNL     1     150.674 157.128 115.507  1.00  0.00     0.000 A 
ENDBRANCH   9  16
ENDBRANCH   2   3
ENDBRANCH   1   2
BRANCH   1  22
ATOM     22  C   UNL     1     154.772 149.054 119.132  1.00  0.00     0.019 C 
BRANCH  22  23
ATOM     23  C   UNL     1     155.278 149.612 120.378  1.00  0.00     0.049 C 
BRANCH  23  24
ATOM     24  C   UNL     1     154.234 149.977 121.401  1.00  0.00    -0.040 A 
ATOM     25  C   UNL     1     153.373 148.974 121.788  1.00  0.00     0.007 A 
ATOM     26  C   UNL     1     154.111 151.240 121.913  1.00  0.00     0.007 A 
ATOM     27  C   UNL     1     152.379 149.232 122.698  1.00  0.00     0.039 A 
ATOM     28  C   UNL     1     153.118 151.494 122.820  1.00  0.00     0.039 A 
ATOM     29  C   UNL     1     152.231 150.492 123.231  1.00  0.00     0.123 A 
ATOM     30  F   UNL     1     151.244 150.736 124.130  1.00  0.00    -0.207 F 
ENDBRANCH  23  24
BRANCH  23  31
ATOM     31  C   UNL     1     156.452 149.048 121.023  1.00  0.00    -0.040 A 
ATOM     32  C   UNL     1     156.732 147.721 121.197  1.00  0.00     0.007 A 
ATOM     33  C   UNL     1     157.369 149.982 121.524  1.00  0.00     0.007 A 
ATOM     34  C   UNL     1     157.909 147.360 121.863  1.00  0.00     0.039 A 
ATOM     35  C   UNL     1     158.514 149.644 122.169  1.00  0.00     0.039 A 
ATOM     36  C   UNL     1     158.782 148.305 122.339  1.00  0.00     0.123 A 
ATOM     37  F   UNL     1     159.933 147.981 122.988  1.00  0.00    -0.207 F 
ENDBRANCH  23  31
ENDBRANCH  22  23
ENDBRANCH   1  22
TORSDOF 7
ENDMDL
MODEL 4
REMARK VINA RESULT:      -9.8      1.181      1.748
REMARK SMILES O=C1NCN(c2ccccc2)C12CC[NH+](CCCC(c1ccc(F)cc1)c1ccc(F)cc1)CC2
REMARK SMILES IDX 17 1 16 2 15 3 1 4 2 5 3 6 12 7 4 8 5 9 13 10 35 11 14 12
REMARK SMILES IDX 34 13 6 16 7 17 11 18 8 19 10 20 9 21 18 22 19 23 20 24
REMARK SMILES IDX 21 25 26 26 22 27 25 28 23 29 24 30 27 31 28 32 33 33 29 34
REMARK SMILES IDX 32 35 30 36 31 37
REMARK H PARENT 3 14 15 15
ROOT
ATOM      1  C   UNL     1     154.031 148.692 119.020  1.00  0.00     0.062 C 
ENDROOT
BRANCH   1   2
ATOM      2  C   UNL     1     153.770 149.840 118.090  1.00  0.00     0.262 C 
BRANCH   2   3
ATOM      3  N   UNL     1     152.649 150.636 118.576  1.00  0.00    -0.335 N 
ATOM      4  O   UNL     1     149.779 150.642 120.056  1.00  0.00    -0.272 OA
ATOM      5  C   UNL     1     149.633 151.820 119.668  1.00  0.00     0.247 C 
ATOM      6  N   UNL     1     148.499 152.607 119.931  1.00  0.00    -0.336 N 
ATOM      7  C   UNL     1     150.637 152.605 118.854  1.00  0.00     0.131 C 
ATOM      8  C   UNL     1     148.903 153.965 119.743  1.00  0.00     0.238 C 
ATOM      9  N   UNL     1     149.949 153.886 118.712  1.00  0.00    -0.339 N 
ATOM     10  C   UNL     1     150.832 151.908 117.522  1.00  0.00     0.100 C 
ATOM     11  C   UNL     1     151.898 152.676 119.637  1.00  0.00     0.100 C 
ATOM     12  C   UNL     1     151.502 150.565 117.696  1.00  0.00     0.265 C 
ATOM     13  C   UNL     1     153.003 151.993 118.901  1.00  0.00     0.265 C 
ATOM     14  H   UNL     1     147.549 152.242 120.212  1.00  0.00     0.165 HD
ATOM     15  H   UNL     1     152.375 150.169 119.468  1.00  0.00     0.348 HD
BRANCH   9  16
ATOM     16  C   UNL     1     150.143 154.939 117.783  1.00  0.00     0.039 A 
ATOM     17  C   UNL     1     151.178 155.832 117.929  1.00  0.00     0.026 A 
ATOM     18  C   UNL     1     149.308 155.059 116.715  1.00  0.00     0.026 A 
ATOM     19  C   UNL     1     151.391 156.862 117.007  1.00  0.00     0.002 A 
ATOM     20  C   UNL     1     149.499 156.059 115.802  1.00  0.00     0.002 A 
ATOM     21  C   UNL     1     150.527 156.956 115.937  1.00  0.00     0.000 A 
ENDBRANCH   9  16
ENDBRANCH   2   3
ENDBRANCH   1   2
BRANCH   1  22
ATOM     22  C   UNL     1     155.324 148.673 119.712  1.00  0.00     0.019 C 
BRANCH  22  23
ATOM     23  C   UNL     1     155.673 149.622 120.761  1.00  0.00     0.049 C 
BRANCH  23  24
ATOM     24  C   UNL     1     154.591 149.903 121.771  1.00  0.00    -0.040 A 
ATOM     25  C   UNL     1     154.266 151.226 121.974  1.00  0.00     0.007 A 
ATOM     26  C   UNL     1     153.967 148.912 122.480  1.00  0.00     0.007 A 
ATOM     27  C   UNL     1     153.307 151.566 122.895  1.00  0.00     0.039 A 
ATOM     28  C   UNL     1     153.011 149.255 123.397  1.00  0.00     0.039 A 
ATOM     29  C   UNL     1     152.662 150.592 123.623  1.00  0.00     0.123 A 
ATOM     30  F   UNL     1     151.715 150.941 124.531  1.00  0.00    -0.207 F 
ENDBRANCH  23  24
BRANCH  23  31
ATOM     31  C   UNL     1     156.976 149.575 121.405  1.00  0.00    -0.040 A 
ATOM     32  C   UNL     1     157.744 148.465 121.615  1.00  0.00     0.007 A 
ATOM     33  C   UNL     1     157.463 150.806 121.862  1.00  0.00     0.007 A 
ATOM     34  C   UNL     1     158.972 148.606 122.273  1.00  0.00     0.039 A 
ATOM     35  C   UNL     1     158.652 150.956 122.500  1.00  0.00     0.039 A 
ATOM     36  C   UNL     1     159.415 149.831 122.706  1.00  0.00     0.123 A 
ATOM     37  F   UNL     1     160.604 149.996 123.347  1.00  0.00    -0.207 F 
ENDBRANCH  23  31
ENDBRANCH  22  23
ENDBRANCH   1  22
TORSDOF 7
ENDMDL
MODEL 5
REMARK VINA RESULT:      -9.7      0.660      1.305
REMARK SMILES O=C1NCN(c2ccccc2)C12CC[NH+](CCCC(c1ccc(F)cc1)c1ccc(F)cc1)CC2
REMARK SMILES IDX 17 1 16 2 15 3 1 4 2 5 3 6 12 7 4 8 5 9 13 10 35 11 14 12
REMARK SMILES IDX 34 13 6 16 7 17 11 18 8 19 10 20 9 21 18 22 19 23 20 24
REMARK SMILES IDX 21 25 26 26 22 27 25 28 23 29 24 30 27 31 28 32 33 33 29 34
REMARK SMILES IDX 32 35 30 36 31 37
REMARK H PARENT 3 14 15 15
ROOT
ATOM      1  C   UNL     1     153.149 149.314 118.737  1.00  0.00     0.062 C 
ENDROOT
BRANCH   1   2
ATOM      2  C   UNL     1     152.567 150.232 117.703  1.00  0.00     0.262 C 
BRANCH   2   3
ATOM      3  N   UNL     1     151.748 151.255 118.342  1.00  0.00    -0.335 N 
ATOM      4  O   UNL     1     149.421 151.904 120.486  1.00  0.00    -0.272 OA
ATOM      5  C   UNL     1     149.346 153.046 119.988  1.00  0.00     0.247 C 
ATOM      6  N   UNL     1     148.451 154.041 120.419  1.00  0.00    -0.336 N 
ATOM      7  C   UNL     1     150.190 153.562 118.846  1.00  0.00     0.131 C 
ATOM      8  C   UNL     1     148.978 155.283 119.949  1.00  0.00     0.238 C 
ATOM      9  N   UNL     1     149.681 154.924 118.707  1.00  0.00    -0.339 N 
ATOM     10  C   UNL     1     149.913 152.718 117.618  1.00  0.00     0.100 C 
ATOM     11  C   UNL     1     151.615 153.487 119.266  1.00  0.00     0.100 C 
ATOM     12  C   UNL     1     150.406 151.302 117.800  1.00  0.00     0.265 C 
ATOM     13  C   UNL     1     152.367 152.554 118.375  1.00  0.00     0.265 C 
ATOM     14  H   UNL     1     147.571 153.876 120.979  1.00  0.00     0.165 HD
ATOM     15  H   UNL     1     151.663 150.930 119.330  1.00  0.00     0.348 HD
BRANCH   9  16
ATOM     16  C   UNL     1     149.763 155.834 117.622  1.00  0.00     0.039 A 
ATOM     17  C   UNL     1     150.979 156.224 117.114  1.00  0.00     0.026 A 
ATOM     18  C   UNL     1     148.622 156.314 117.057  1.00  0.00     0.026 A 
ATOM     19  C   UNL     1     151.071 157.104 116.032  1.00  0.00     0.002 A 
ATOM     20  C   UNL     1     148.690 157.176 115.998  1.00  0.00     0.002 A 
ATOM     21  C   UNL     1     149.897 157.573 115.483  1.00  0.00     0.000 A 
ENDBRANCH   9  16
ENDBRANCH   2   3
ENDBRANCH   1   2
BRANCH   1  22
ATOM     22  C   UNL     1     154.560 149.509 119.087  1.00  0.00     0.019 C 
BRANCH  22  23
ATOM     23  C   UNL     1     154.989 150.028 120.378  1.00  0.00     0.049 C 
BRANCH  23  24
ATOM     24  C   UNL     1     153.913 150.135 121.427  1.00  0.00    -0.040 A 
ATOM     25  C   UNL     1     153.376 151.387 121.634  1.00  0.00     0.007 A 
ATOM     26  C   UNL     1     153.493 149.062 122.166  1.00  0.00     0.007 A 
ATOM     27  C   UNL     1     152.408 151.572 122.589  1.00  0.00     0.039 A 
ATOM     28  C   UNL     1     152.526 149.251 123.117  1.00  0.00     0.039 A 
ATOM     29  C   UNL     1     151.964 150.512 123.347  1.00  0.00     0.123 A 
ATOM     30  F   UNL     1     151.006 150.708 124.288  1.00  0.00    -0.207 F 
ENDBRANCH  23  24
BRANCH  23  31
ATOM     31  C   UNL     1     156.244 149.598 120.973  1.00  0.00    -0.040 A 
ATOM     32  C   UNL     1     156.732 148.322 121.021  1.00  0.00     0.007 A 
ATOM     33  C   UNL     1     157.005 150.613 121.567  1.00  0.00     0.007 A 
ATOM     34  C   UNL     1     157.958 148.090 121.656  1.00  0.00     0.039 A 
ATOM     35  C   UNL     1     158.195 150.401 122.185  1.00  0.00     0.039 A 
ATOM     36  C   UNL     1     158.674 149.112 122.227  1.00  0.00     0.123 A 
ATOM     37  F   UNL     1     159.868 148.914 122.848  1.00  0.00    -0.207 F 
ENDBRANCH  23  31
ENDBRANCH  22  23
ENDBRANCH   1  22
TORSDOF 7
ENDMDL
MODEL 6
REMARK VINA RESULT:      -9.6      0.592      3.737
REMARK SMILES O=C1NCN(c2ccccc2)C12CC[NH+](CCCC(c1ccc(F)cc1)c1ccc(F)cc1)CC2
REMARK SMILES IDX 17 1 16 2 15 3 1 4 2 5 3 6 12 7 4 8 5 9 13 10 35 11 14 12
REMARK SMILES IDX 34 13 6 16 7 17 11 18 8 19 10 20 9 21 18 22 19 23 20 24
REMARK SMILES IDX 21 25 26 26 22 27 25 28 23 29 24 30 27 31 28 32 33 33 29 34
REMARK SMILES IDX 32 35 30 36 31 37
REMARK H PARENT 3 14 15 15
ROOT
ATOM      1  C   UNL     1     153.911 150.211 118.074  1.00  0.00     0.062 C 
ENDROOT
BRANCH   1   2
ATOM      2  C   UNL     1     152.490 150.095 117.608  1.00  0.00     0.262 C 
BRANCH   2   3
ATOM      3  N   UNL     1     151.659 151.090 118.276  1.00  0.00    -0.335 N 
ATOM      4  O   UNL     1     149.147 151.643 120.229  1.00  0.00    -0.272 OA
ATOM      5  C   UNL     1     149.187 152.837 119.865  1.00  0.00     0.247 C 
ATOM      6  N   UNL     1     148.303 153.833 120.316  1.00  0.00    -0.336 N 
ATOM      7  C   UNL     1     150.178 153.422 118.885  1.00  0.00     0.131 C 
ATOM      8  C   UNL     1     148.943 155.083 120.053  1.00  0.00     0.238 C 
ATOM      9  N   UNL     1     149.759 154.821 118.857  1.00  0.00    -0.339 N 
ATOM     10  C   UNL     1     149.994 152.741 117.544  1.00  0.00     0.100 C 
ATOM     11  C   UNL     1     151.541 153.208 119.439  1.00  0.00     0.100 C 
ATOM     12  C   UNL     1     150.389 151.284 117.608  1.00  0.00     0.265 C 
ATOM     13  C   UNL     1     152.338 152.334 118.526  1.00  0.00     0.265 C 
ATOM     14  H   UNL     1     147.360 153.663 120.759  1.00  0.00     0.165 HD
ATOM     15  H   UNL     1     151.449 150.663 119.204  1.00  0.00     0.348 HD
BRANCH   9  16
ATOM     16  C   UNL     1     150.007 155.839 117.902  1.00  0.00     0.039 A 
ATOM     17  C   UNL     1     151.290 156.221 117.589  1.00  0.00     0.026 A 
ATOM     18  C   UNL     1     148.963 156.436 117.265  1.00  0.00     0.026 A 
ATOM     19  C   UNL     1     151.547 157.209 116.634  1.00  0.00     0.002 A 
ATOM     20  C   UNL     1     149.192 157.405 116.328  1.00  0.00     0.002 A 
ATOM     21  C   UNL     1     150.467 157.794 116.008  1.00  0.00     0.000 A 
ENDBRANCH   9  16
ENDBRANCH   2   3
ENDBRANCH   1   2
BRANCH   1  22
ATOM     22  C   UNL     1     154.491 149.044 118.749  1.00  0.00     0.019 C 
BRANCH  22  23
ATOM     23  C   UNL     1     154.517 148.903 120.199  1.00  0.00     0.049 C 
BRANCH  23  24
ATOM     24  C   UNL     1     155.880 148.713 120.810  1.00  0.00    -0.040 A 
ATOM     25  C   UNL     1     156.277 147.414 121.041  1.00  0.00     0.007 A 
ATOM     26  C   UNL     1     156.690 149.763 121.151  1.00  0.00     0.007 A 
ATOM     27  C   UNL     1     157.496 147.158 121.617  1.00  0.00     0.039 A 
ATOM     28  C   UNL     1     157.905 149.503 121.726  1.00  0.00     0.039 A 
ATOM     29  C   UNL     1     158.332 148.193 121.970  1.00  0.00     0.123 A 
ATOM     30  F   UNL     1     159.535 147.927 122.540  1.00  0.00    -0.207 F 
ENDBRANCH  23  24
BRANCH  23  31
ATOM     31  C   UNL     1     153.689 149.748 121.044  1.00  0.00    -0.040 A 
ATOM     32  C   UNL     1     154.035 150.955 121.584  1.00  0.00     0.007 A 
ATOM     33  C   UNL     1     152.415 149.242 121.333  1.00  0.00     0.007 A 
ATOM     34  C   UNL     1     153.111 151.623 122.396  1.00  0.00     0.039 A 
ATOM     35  C   UNL     1     151.510 149.881 122.117  1.00  0.00     0.039 A 
ATOM     36  C   UNL     1     151.872 151.094 122.655  1.00  0.00     0.123 A 
ATOM     37  F   UNL     1     150.955 151.724 123.439  1.00  0.00    -0.207 F 
ENDBRANCH  23  31
ENDBRANCH  22  23
ENDBRANCH   1  22
TORSDOF 7
ENDMDL
MODEL 7
REMARK VINA RESULT:      -9.4      1.166      1.673
REMARK SMILES O=C1NCN(c2ccccc2)C12CC[NH+](CCCC(c1ccc(F)cc1)c1ccc(F)cc1)CC2
REMARK SMILES IDX 17 1 16 2 15 3 1 4 2 5 3 6 12 7 4 8 5 9 13 10 35 11 14 12
REMARK SMILES IDX 34 13 6 16 7 17 11 18 8 19 10 20 9 21 18 22 19 23 20 24
REMARK SMILES IDX 21 25 26 26 22 27 25 28 23 29 24 30 27 31 28 32 33 33 29 34
REMARK SMILES IDX 32 35 30 36 31 37
REMARK H PARENT 3 14 15 15
ROOT
ATOM      1  C   UNL     1     152.380 150.059 118.797  1.00  0.00     0.062 C 
ENDROOT
BRANCH   1   2
ATOM      2  C   UNL     1     151.834 150.935 117.708  1.00  0.00     0.262 C 
BRANCH   2   3
ATOM      3  N   UNL     1     151.012 151.995 118.280  1.00  0.00    -0.335 N 
ATOM      4  O   UNL     1     148.278 152.763 119.817  1.00  0.00    -0.272 OA
ATOM      5  C   UNL     1     148.505 153.956 119.526  1.00  0.00     0.247 C 
ATOM      6  N   UNL     1     147.667 155.030 119.876  1.00  0.00    -0.336 N 
ATOM      7  C   UNL     1     149.704 154.458 118.755  1.00  0.00     0.131 C 
ATOM      8  C   UNL     1     148.471 156.208 119.787  1.00  0.00     0.238 C 
ATOM      9  N   UNL     1     149.445 155.895 118.730  1.00  0.00    -0.339 N 
ATOM     10  C   UNL     1     149.679 153.846 117.369  1.00  0.00     0.100 C 
ATOM     11  C   UNL     1     150.923 154.073 119.514  1.00  0.00     0.100 C 
ATOM     12  C   UNL     1     149.901 152.353 117.422  1.00  0.00     0.265 C 
ATOM     13  C   UNL     1     151.766 153.146 118.702  1.00  0.00     0.265 C 
ATOM     14  H   UNL     1     146.650 154.953 120.148  1.00  0.00     0.165 HD
ATOM     15  H   UNL     1     150.603 151.564 119.137  1.00  0.00     0.348 HD
BRANCH   9  16
ATOM     16  C   UNL     1     149.958 156.910 117.883  1.00  0.00     0.039 A 
ATOM     17  C   UNL     1     149.132 157.863 117.337  1.00  0.00     0.026 A 
ATOM     18  C   UNL     1     151.293 156.958 117.619  1.00  0.00     0.026 A 
ATOM     19  C   UNL     1     149.630 158.880 116.516  1.00  0.00     0.002 A 
ATOM     20  C   UNL     1     151.800 157.944 116.819  1.00  0.00     0.002 A 
ATOM     21  C   UNL     1     150.986 158.900 116.269  1.00  0.00     0.000 A 
ENDBRANCH   9  16
ENDBRANCH   2   3
ENDBRANCH   1   2
BRANCH   1  22
ATOM     22  C   UNL     1     153.834 150.062 118.992  1.00  0.00     0.019 C 
BRANCH  22  23
ATOM     23  C   UNL     1     154.456 150.276 120.291  1.00  0.00     0.049 C 
BRANCH  23  24
ATOM     24  C   UNL     1     153.506 150.458 121.446  1.00  0.00    -0.040 A 
ATOM     25  C   UNL     1     153.189 149.329 122.168  1.00  0.00     0.007 A 
ATOM     26  C   UNL     1     152.954 151.670 121.764  1.00  0.00     0.007 A 
ATOM     27  C   UNL     1     152.312 149.407 123.220  1.00  0.00     0.039 A 
ATOM     28  C   UNL     1     152.079 151.744 122.814  1.00  0.00     0.039 A 
ATOM     29  C   UNL     1     151.741 150.611 123.565  1.00  0.00     0.123 A 
ATOM     30  F   UNL     1     150.875 150.677 124.607  1.00  0.00    -0.207 F 
ENDBRANCH  23  24
BRANCH  23  31
ATOM     31  C   UNL     1     155.616 149.500 120.698  1.00  0.00    -0.040 A 
ATOM     32  C   UNL     1     155.792 148.153 120.549  1.00  0.00     0.007 A 
ATOM     33  C   UNL     1     156.637 150.229 121.320  1.00  0.00     0.007 A 
ATOM     34  C   UNL     1     156.973 147.568 121.021  1.00  0.00     0.039 A 
ATOM     35  C   UNL     1     157.787 149.674 121.781  1.00  0.00     0.039 A 
ATOM     36  C   UNL     1     157.951 148.317 121.625  1.00  0.00     0.123 A 
ATOM     37  F   UNL     1     159.108 147.775 122.091  1.00  0.00    -0.207 F 
ENDBRANCH  23  31
ENDBRANCH  22  23
ENDBRANCH   1  22
TORSDOF 7
ENDMDL
MODEL 8
REMARK VINA RESULT:      -9.4      0.704      3.912
REMARK SMILES O=C1NCN(c2ccccc2)C12CC[NH+](CCCC(c1ccc(F)cc1)c1ccc(F)cc1)CC2
REMARK SMILES IDX 17 1 16 2 15 3 1 4 2 5 3 6 12 7 4 8 5 9 13 10 35 11 14 12
REMARK SMILES IDX 34 13 6 16 7 17 11 18 8 19 10 20 9 21 18 22 19 23 20 24
REMARK SMILES IDX 21 25 26 26 22 27 25 28 23 29 24 30 27 31 28 32 33 33 29 34
REMARK SMILES IDX 32 35 30 36 31 37
REMARK H PARENT 3 14 15 15
ROOT
ATOM      1  C   UNL     1     154.224 150.104 118.674  1.00  0.00     0.062 C 
ENDROOT
BRANCH   1   2
ATOM      2  C   UNL     1     152.925 150.008 117.929  1.00  0.00     0.262 C 
BRANCH   2   3
ATOM      3  N   UNL     1     151.950 150.933 118.496  1.00  0.00    -0.335 N 
ATOM      4  O   UNL     1     149.237 151.284 120.210  1.00  0.00    -0.272 OA
ATOM      5  C   UNL     1     149.198 152.469 119.818  1.00  0.00     0.247 C 
ATOM      6  N   UNL     1     148.189 153.386 120.164  1.00  0.00    -0.336 N 
ATOM      7  C   UNL     1     150.213 153.126 118.911  1.00  0.00     0.131 C 
ATOM      8  C   UNL     1     148.732 154.686 119.922  1.00  0.00     0.238 C 
ATOM      9  N   UNL     1     149.670 154.478 118.808  1.00  0.00    -0.339 N 
ATOM     10  C   UNL     1     150.211 152.404 117.578  1.00  0.00     0.100 C 
ATOM     11  C   UNL     1     151.536 153.053 119.585  1.00  0.00     0.100 C 
ATOM     12  C   UNL     1     150.732 150.993 117.716  1.00  0.00     0.265 C 
ATOM     13  C   UNL     1     152.487 152.240 118.768  1.00  0.00     0.265 C 
ATOM     14  H   UNL     1     147.230 153.136 120.528  1.00  0.00     0.165 HD
ATOM     15  H   UNL     1     151.700 150.506 119.414  1.00  0.00     0.348 HD
BRANCH   9  16
ATOM     16  C   UNL     1     149.906 155.496 117.850  1.00  0.00     0.039 A 
ATOM     17  C   UNL     1     148.886 155.989 117.071  1.00  0.00     0.026 A 
ATOM     18  C   UNL     1     151.157 156.014 117.709  1.00  0.00     0.026 A 
ATOM     19  C   UNL     1     149.103 157.007 116.138  1.00  0.00     0.002 A 
ATOM     20  C   UNL     1     151.392 157.010 116.802  1.00  0.00     0.002 A 
ATOM     21  C   UNL     1     150.382 157.508 116.020  1.00  0.00     0.000 A 
ENDBRANCH   9  16
ENDBRANCH   2   3
ENDBRANCH   1   2
BRANCH   1  22
ATOM     22  C   UNL     1     154.804 148.852 119.172  1.00  0.00     0.019 C 
BRANCH  22  23
ATOM     23  C   UNL     1     154.858 148.514 120.588  1.00  0.00     0.049 C 
BRANCH  23  24
ATOM     24  C   UNL     1     156.239 148.334 121.162  1.00  0.00    -0.040 A 
ATOM     25  C   UNL     1     157.021 149.463 121.255  1.00  0.00     0.007 A 
ATOM     26  C   UNL     1     156.721 147.114 121.555  1.00  0.00     0.007 A 
ATOM     27  C   UNL     1     158.300 149.377 121.744  1.00  0.00     0.039 A 
ATOM     28  C   UNL     1     157.997 147.033 122.043  1.00  0.00     0.039 A 
ATOM     29  C   UNL     1     158.813 148.165 122.148  1.00  0.00     0.123 A 
ATOM     30  F   UNL     1     160.079 148.093 122.631  1.00  0.00    -0.207 F 
ENDBRANCH  23  24
BRANCH  23  31
ATOM     31  C   UNL     1     153.987 149.177 121.545  1.00  0.00    -0.040 A 
ATOM     32  C   UNL     1     154.367 150.034 122.540  1.00  0.00     0.007 A 
ATOM     33  C   UNL     1     152.624 148.877 121.423  1.00  0.00     0.007 A 
ATOM     34  C   UNL     1     153.386 150.566 123.385  1.00  0.00     0.039 A 
ATOM     35  C   UNL     1     151.664 149.387 122.236  1.00  0.00     0.039 A 
ATOM     36  C   UNL     1     152.060 150.247 123.234  1.00  0.00     0.123 A 
ATOM     37  F   UNL     1     151.088 150.751 124.041  1.00  0.00    -0.207 F 
ENDBRANCH  23  31
ENDBRANCH  22  23
ENDBRANCH   1  22
TORSDOF 7
ENDMDL
MODEL 9
REMARK VINA RESULT:      -9.3      1.131      3.831
REMARK SMILES O=C1NCN(c2ccccc2)C12CC[NH+](CCCC(c1ccc(F)cc1)c1ccc(F)cc1)CC2
REMARK SMILES IDX 17 1 16 2 15 3 1 4 2 5 3 6 12 7 4 8 5 9 13 10 35 11 14 12
REMARK SMILES IDX 34 13 6 16 7 17 11 18 8 19 10 20 9 21 18 22 19 23 20 24
REMARK SMILES IDX 21 25 26 26 22 27 25 28 23 29 24 30 27 31 28 32 33 33 29 34
REMARK SMILES IDX 32 35 30 36 31 37
REMARK H PARENT 3 14 15 15
ROOT
ATOM      1  C   UNL     1     154.117 148.742 118.937  1.00  0.00     0.062 C 
ENDROOT
BRANCH   1   2
ATOM      2  C   UNL     1     153.635 149.747 117.933  1.00  0.00     0.262 C 
BRANCH   2   3
ATOM      3  N   UNL     1     152.564 150.556 118.504  1.00  0.00    -0.335 N 
ATOM      4  O   UNL     1     149.807 150.591 120.185  1.00  0.00    -0.272 OA
ATOM      5  C   UNL     1     149.653 151.774 119.818  1.00  0.00     0.247 C 
ATOM      6  N   UNL     1     148.552 152.576 120.168  1.00  0.00    -0.336 N 
ATOM      7  C   UNL     1     150.607 152.551 118.940  1.00  0.00     0.131 C 
ATOM      8  C   UNL     1     148.963 153.929 119.962  1.00  0.00     0.238 C 
ATOM      9  N   UNL     1     149.931 153.844 118.858  1.00  0.00    -0.339 N 
ATOM     10  C   UNL     1     150.696 151.864 117.592  1.00  0.00     0.100 C 
ATOM     11  C   UNL     1     151.923 152.598 119.632  1.00  0.00     0.100 C 
ATOM     12  C   UNL     1     151.356 150.510 117.708  1.00  0.00     0.265 C 
ATOM     13  C   UNL     1     152.962 151.905 118.813  1.00  0.00     0.265 C 
ATOM     14  H   UNL     1     147.619 152.222 120.513  1.00  0.00     0.165 HD
ATOM     15  H   UNL     1     152.347 150.085 119.409  1.00  0.00     0.348 HD
BRANCH   9  16
ATOM     16  C   UNL     1     150.075 154.902 117.926  1.00  0.00     0.039 A 
ATOM     17  C   UNL     1     151.262 155.584 117.804  1.00  0.00     0.026 A 
ATOM     18  C   UNL     1     149.030 155.239 117.120  1.00  0.00     0.026 A 
ATOM     19  C   UNL     1     151.422 156.616 116.873  1.00  0.00     0.002 A 
ATOM     20  C   UNL     1     149.165 156.245 116.204  1.00  0.00     0.002 A 
ATOM     21  C   UNL     1     150.344 156.931 116.074  1.00  0.00     0.000 A 
ENDBRANCH   9  16
ENDBRANCH   2   3
ENDBRANCH   1   2
BRANCH   1  22
ATOM     22  C   UNL     1     155.387 149.030 119.614  1.00  0.00     0.019 C 
BRANCH  22  23
ATOM     23  C   UNL     1     155.510 149.103 121.063  1.00  0.00     0.049 C 
BRANCH  23  24
ATOM     24  C   UNL     1     156.882 149.444 121.584  1.00  0.00    -0.040 A 
ATOM     25  C   UNL     1     157.741 148.388 121.798  1.00  0.00     0.007 A 
ATOM     26  C   UNL     1     157.269 150.728 121.861  1.00  0.00     0.007 A 
ATOM     27  C   UNL     1     159.000 148.614 122.294  1.00  0.00     0.039 A 
ATOM     28  C   UNL     1     158.526 150.949 122.355  1.00  0.00     0.039 A 
ATOM     29  C   UNL     1     159.418 149.894 122.581  1.00  0.00     0.123 A 
ATOM     30  F   UNL     1     160.666 150.105 123.071  1.00  0.00    -0.207 F 
ENDBRANCH  23  24
BRANCH  23  31
ATOM     31  C   UNL     1     154.483 149.745 121.867  1.00  0.00    -0.040 A 
ATOM     32  C   UNL     1     154.325 151.086 122.073  1.00  0.00     0.007 A 
ATOM     33  C   UNL     1     153.584 148.874 122.497  1.00  0.00     0.007 A 
ATOM     34  C   UNL     1     153.283 151.526 122.899  1.00  0.00     0.039 A 
ATOM     35  C   UNL     1     152.569 149.289 123.298  1.00  0.00     0.039 A 
ATOM     36  C   UNL     1     152.423 150.642 123.499  1.00  0.00     0.123 A 
ATOM     37  F   UNL     1     151.402 151.043 124.303  1.00  0.00    -0.207 F 
ENDBRANCH  23  31
ENDBRANCH  22  23
ENDBRANCH   1  22
TORSDOF 7
ENDMDL
