MODEL 1
REMARK VINA RESULT:      -7.4      0.000      0.000
REMARK SMILES O=C(CCC[NH+]1CCC(O)(c2ccc(Cl)cc2)CC1)c1ccc(F)cc1
REMARK SMILES IDX 4 1 3 2 2 3 1 4 20 5 21 6 26 7 22 8 25 9 23 10 24 11 5 12
REMARK SMILES IDX 6 13 7 14 19 15 8 16 18 17 9 18 10 20 11 22 12 23 17 24
REMARK SMILES IDX 13 25 16 26 14 27 15 28
REMARK H PARENT 6 19 10 21
ROOT
ATOM      1  C   UNL     1     -25.888  -9.683 112.609  1.00  0.00     0.070 C 
ENDROOT
BRANCH   1   2
ATOM      2  C   UNL     1     -26.201 -10.566 113.796  1.00  0.00     0.087 C 
BRANCH   2   3
ATOM      3  C   UNL     1     -25.095 -11.431 114.212  1.00  0.00     0.163 C 
ATOM      4  O   UNL     1     -23.925 -11.251 113.787  1.00  0.00    -0.294 OA
BRANCH   3   5
ATOM      5  C   UNL     1     -25.282 -12.559 115.148  1.00  0.00     0.018 A 
ATOM      6  C   UNL     1     -26.502 -12.766 115.766  1.00  0.00     0.015 A 
ATOM      7  C   UNL     1     -24.254 -13.424 115.427  1.00  0.00     0.015 A 
ATOM      8  C   UNL     1     -26.669 -13.816 116.636  1.00  0.00     0.040 A 
ATOM      9  C   UNL     1     -24.412 -14.473 116.292  1.00  0.00     0.040 A 
ATOM     10  C   UNL     1     -25.624 -14.667 116.896  1.00  0.00     0.123 A 
ATOM     11  F   UNL     1     -25.743 -15.726 117.759  1.00  0.00    -0.207 F 
ENDBRANCH   3   5
ENDBRANCH   2   3
ENDBRANCH   1   2
BRANCH   1  12
ATOM     12  C   UNL     1     -26.753 -10.101 111.469  1.00  0.00     0.262 C 
BRANCH  12  13
ATOM     13  N   UNL     1     -26.094  -9.955 110.178  1.00  0.00    -0.335 N 
ATOM     14  C   UNL     1     -24.718 -10.350 110.219  1.00  0.00     0.265 C 
ATOM     15  C   UNL     1     -26.802 -10.688 109.180  1.00  0.00     0.265 C 
ATOM     16  C   UNL     1     -24.568 -11.790 110.628  1.00  0.00     0.102 C 
ATOM     17  C   UNL     1     -26.195 -11.944 108.714  1.00  0.00     0.102 C 
ATOM     18  C   UNL     1     -25.279 -12.661 109.636  1.00  0.00     0.100 C 
ATOM     19  H   UNL     1     -26.100  -8.908 109.991  1.00  0.00     0.348 HD
BRANCH  18  20
ATOM     20  O   UNL     1     -24.267 -13.248 108.838  1.00  0.00    -0.385 OA
ATOM     21  H   UNL     1     -24.529 -14.192 108.699  1.00  0.00     0.211 HD
ENDBRANCH  18  20
BRANCH  18  22
ATOM     22  C   UNL     1     -25.938 -13.835 110.312  1.00  0.00    -0.016 A 
ATOM     23  C   UNL     1     -26.695 -14.752 109.613  1.00  0.00     0.008 A 
ATOM     24  C   UNL     1     -25.828 -14.067 111.665  1.00  0.00     0.008 A 
ATOM     25  C   UNL     1     -27.313 -15.837 110.192  1.00  0.00     0.021 A 
ATOM     26  C   UNL     1     -26.440 -15.149 112.268  1.00  0.00     0.021 A 
ATOM     27  C   UNL     1     -27.181 -16.032 111.531  1.00  0.00     0.041 A 
ATOM     28  Cl  UNL     1     -27.957 -17.404 112.286  1.00  0.00    -0.084 Cl
ENDBRANCH  18  22
ENDBRANCH  12  13
ENDBRANCH   1  12
TORSDOF 7
ENDMDL
MODEL 2
REMARK VINA RESULT:      -7.3      1.755      2.559
REMARK SMILES O=C(CCC[NH+]1CCC(O)(c2ccc(Cl)cc2)CC1)c1ccc(F)cc1
REMARK SMILES IDX 4 1 3 2 2 3 1 4 20 5 21 6 26 7 22 8 25 9 23 10 24 11 5 12
REMARK SMILES IDX 6 13 7 14 19 15 8 16 18 17 9 18 10 20 11 22 12 23 17 24
REMARK SMILES IDX 13 25 16 26 14 27 15 28
REMARK H PARENT 6 19 10 21
ROOT
ATOM      1  C   UNL     1     -25.542 -10.967 111.611  1.00  0.00     0.070 C 
ENDROOT
BRANCH   1   2
ATOM      2  C   UNL     1     -24.934 -11.020 112.995  1.00  0.00     0.087 C 
BRANCH   2   3
ATOM      3  C   UNL     1     -25.899 -11.277 114.067  1.00  0.00     0.163 C 
ATOM      4  O   UNL     1     -26.884 -10.519 114.260  1.00  0.00    -0.294 OA
BRANCH   3   5
ATOM      5  C   UNL     1     -25.778 -12.432 114.981  1.00  0.00     0.018 A 
ATOM      6  C   UNL     1     -24.611 -13.173 115.026  1.00  0.00     0.015 A 
ATOM      7  C   UNL     1     -26.814 -12.794 115.803  1.00  0.00     0.015 A 
ATOM      8  C   UNL     1     -24.505 -14.246 115.878  1.00  0.00     0.040 A 
ATOM      9  C   UNL     1     -26.716 -13.862 116.655  1.00  0.00     0.040 A 
ATOM     10  C   UNL     1     -25.557 -14.587 116.690  1.00  0.00     0.123 A 
ATOM     11  F   UNL     1     -25.497 -15.650 117.554  1.00  0.00    -0.207 F 
ENDBRANCH   3   5
ENDBRANCH   2   3
ENDBRANCH   1   2
BRANCH   1  12
ATOM     12  C   UNL     1     -25.609 -12.355 111.073  1.00  0.00     0.262 C 
BRANCH  12  13
ATOM     13  N   UNL     1     -24.551 -12.638 110.112  1.00  0.00    -0.335 N 
ATOM     14  C   UNL     1     -23.424 -13.283 110.713  1.00  0.00     0.265 C 
ATOM     15  C   UNL     1     -25.064 -13.418 109.032  1.00  0.00     0.265 C 
ATOM     16  C   UNL     1     -23.808 -14.595 111.342  1.00  0.00     0.102 C 
ATOM     17  C   UNL     1     -24.700 -14.842 109.002  1.00  0.00     0.102 C 
ATOM     18  C   UNL     1     -24.363 -15.504 110.287  1.00  0.00     0.100 C 
ATOM     19  H   UNL     1     -24.215 -11.681 109.794  1.00  0.00     0.348 HD
BRANCH  18  20
ATOM     20  O   UNL     1     -23.343 -16.447 110.010  1.00  0.00    -0.385 OA
ATOM     21  H   UNL     1     -22.500 -15.935 109.926  1.00  0.00     0.211 HD
ENDBRANCH  18  20
BRANCH  18  22
ATOM     22  C   UNL     1     -25.496 -16.339 110.824  1.00  0.00    -0.016 A 
ATOM     23  C   UNL     1     -26.168 -16.003 111.980  1.00  0.00     0.008 A 
ATOM     24  C   UNL     1     -25.931 -17.487 110.199  1.00  0.00     0.008 A 
ATOM     25  C   UNL     1     -27.207 -16.738 112.504  1.00  0.00     0.021 A 
ATOM     26  C   UNL     1     -26.970 -18.241 110.706  1.00  0.00     0.021 A 
ATOM     27  C   UNL     1     -27.608 -17.865 111.858  1.00  0.00     0.041 A 
ATOM     28  Cl  UNL     1     -28.926 -18.812 112.505  1.00  0.00    -0.084 Cl
ENDBRANCH  18  22
ENDBRANCH  12  13
ENDBRANCH   1  12
TORSDOF 7
ENDMDL
MODEL 3
REMARK VINA RESULT:      -7.2      1.727      2.312
REMARK SMILES O=C(CCC[NH+]1CCC(O)(c2ccc(Cl)cc2)CC1)c1ccc(F)cc1
REMARK SMILES IDX 4 1 3 2 2 3 1 4 20 5 21 6 26 7 22 8 25 9 23 10 24 11 5 12
REMARK SMILES IDX 6 13 7 14 19 15 8 16 18 17 9 18 10 20 11 22 12 23 17 24
REMARK SMILES IDX 13 25 16 26 14 27 15 28
REMARK H PARENT 6 19 10 21
ROOT
ATOM      1  C   UNL     1     -25.515 -11.083 112.031  1.00  0.00     0.070 C 
ENDROOT
BRANCH   1   2
ATOM      2  C   UNL     1     -26.143 -11.687 113.267  1.00  0.00     0.087 C 
BRANCH   2   3
ATOM      3  C   UNL     1     -25.190 -12.013 114.330  1.00  0.00     0.163 C 
ATOM      4  O   UNL     1     -24.318 -11.187 114.707  1.00  0.00    -0.294 OA
BRANCH   3   5
ATOM      5  C   UNL     1     -25.192 -13.318 115.022  1.00  0.00     0.018 A 
ATOM      6  C   UNL     1     -24.312 -13.564 116.061  1.00  0.00     0.015 A 
ATOM      7  C   UNL     1     -26.062 -14.313 114.654  1.00  0.00     0.015 A 
ATOM      8  C   UNL     1     -24.318 -14.781 116.700  1.00  0.00     0.040 A 
ATOM      9  C   UNL     1     -26.075 -15.527 115.286  1.00  0.00     0.040 A 
ATOM     10  C   UNL     1     -25.199 -15.758 116.312  1.00  0.00     0.123 A 
ATOM     11  F   UNL     1     -25.240 -16.986 116.919  1.00  0.00    -0.207 F 
ENDBRANCH   3   5
ENDBRANCH   2   3
ENDBRANCH   1   2
BRANCH   1  12
ATOM     12  C   UNL     1     -25.721 -12.021 110.892  1.00  0.00     0.262 C 
BRANCH  12  13
ATOM     13  N   UNL     1     -24.505 -12.249 110.122  1.00  0.00    -0.335 N 
ATOM     14  C   UNL     1     -23.437 -12.760 110.926  1.00  0.00     0.265 C 
ATOM     15  C   UNL     1     -24.774 -13.120 109.024  1.00  0.00     0.265 C 
ATOM     16  C   UNL     1     -23.803 -14.071 111.564  1.00  0.00     0.102 C 
ATOM     17  C   UNL     1     -24.292 -14.504 109.134  1.00  0.00     0.102 C 
ATOM     18  C   UNL     1     -24.107 -15.074 110.491  1.00  0.00     0.100 C 
ATOM     19  H   UNL     1     -24.204 -11.280 109.804  1.00  0.00     0.348 HD
BRANCH  18  20
ATOM     20  O   UNL     1     -22.981 -15.930 110.429  1.00  0.00    -0.385 OA
ATOM     21  H   UNL     1     -22.462 -15.776 111.258  1.00  0.00     0.211 HD
ENDBRANCH  18  20
BRANCH  18  22
ATOM     22  C   UNL     1     -25.236 -15.985 110.897  1.00  0.00    -0.016 A 
ATOM     23  C   UNL     1     -26.394 -15.504 111.472  1.00  0.00     0.008 A 
ATOM     24  C   UNL     1     -25.186 -17.350 110.720  1.00  0.00     0.008 A 
ATOM     25  C   UNL     1     -27.448 -16.301 111.856  1.00  0.00     0.021 A 
ATOM     26  C   UNL     1     -26.230 -18.170 111.099  1.00  0.00     0.021 A 
ATOM     27  C   UNL     1     -27.360 -17.645 111.666  1.00  0.00     0.041 A 
ATOM     28  Cl  UNL     1     -28.687 -18.675 112.145  1.00  0.00    -0.084 Cl
ENDBRANCH  18  22
ENDBRANCH  12  13
ENDBRANCH   1  12
TORSDOF 7
ENDMDL
MODEL 4
REMARK VINA RESULT:      -7.2      1.869      2.643
REMARK SMILES O=C(CCC[NH+]1CCC(O)(c2ccc(Cl)cc2)CC1)c1ccc(F)cc1
REMARK SMILES IDX 4 1 3 2 2 3 1 4 20 5 21 6 26 7 22 8 25 9 23 10 24 11 5 12
REMARK SMILES IDX 6 13 7 14 19 15 8 16 18 17 9 18 10 20 11 22 12 23 17 24
REMARK SMILES IDX 13 25 16 26 14 27 15 28
REMARK H PARENT 6 19 10 21
ROOT
ATOM      1  C   UNL     1     -25.805 -10.899 113.336  1.00  0.00     0.070 C 
ENDROOT
BRANCH   1   2
ATOM      2  C   UNL     1     -24.563 -11.685 113.695  1.00  0.00     0.087 C 
BRANCH   2   3
ATOM      3  C   UNL     1     -24.798 -13.113 113.916  1.00  0.00     0.163 C 
ATOM      4  O   UNL     1     -24.603 -13.960 113.006  1.00  0.00    -0.294 OA
BRANCH   3   5
ATOM      5  C   UNL     1     -25.272 -13.647 115.211  1.00  0.00     0.018 A 
ATOM      6  C   UNL     1     -24.396 -14.287 116.070  1.00  0.00     0.015 A 
ATOM      7  C   UNL     1     -26.584 -13.520 115.590  1.00  0.00     0.015 A 
ATOM      8  C   UNL     1     -24.844 -14.781 117.272  1.00  0.00     0.040 A 
ATOM      9  C   UNL     1     -27.037 -14.009 116.785  1.00  0.00     0.040 A 
ATOM     10  C   UNL     1     -26.161 -14.640 117.626  1.00  0.00     0.123 A 
ATOM     11  F   UNL     1     -26.653 -15.119 118.813  1.00  0.00    -0.207 F 
ENDBRANCH   3   5
ENDBRANCH   2   3
ENDBRANCH   1   2
BRANCH   1  12
ATOM     12  C   UNL     1     -25.395  -9.513 112.972  1.00  0.00     0.262 C 
BRANCH  12  13
ATOM     13  N   UNL     1     -26.377  -8.837 112.133  1.00  0.00    -0.335 N 
ATOM     14  C   UNL     1     -25.800  -8.304 110.937  1.00  0.00     0.265 C 
ATOM     15  C   UNL     1     -27.452  -9.723 111.825  1.00  0.00     0.265 C 
ATOM     16  C   UNL     1     -25.173  -9.383 110.096  1.00  0.00     0.102 C 
ATOM     17  C   UNL     1     -27.499 -10.272 110.463  1.00  0.00     0.102 C 
ATOM     18  C   UNL     1     -26.225 -10.380 109.709  1.00  0.00     0.100 C 
ATOM     19  H   UNL     1     -26.694  -8.003 112.711  1.00  0.00     0.348 HD
BRANCH  18  20
ATOM     20  O   UNL     1     -26.526 -10.118 108.350  1.00  0.00    -0.385 OA
ATOM     21  H   UNL     1     -25.963  -9.350 108.078  1.00  0.00     0.211 HD
ENDBRANCH  18  20
BRANCH  18  22
ATOM     22  C   UNL     1     -25.674 -11.781 109.697  1.00  0.00    -0.016 A 
ATOM     23  C   UNL     1     -26.491 -12.890 109.773  1.00  0.00     0.008 A 
ATOM     24  C   UNL     1     -24.324 -12.046 109.611  1.00  0.00     0.008 A 
ATOM     25  C   UNL     1     -26.028 -14.186 109.766  1.00  0.00     0.021 A 
ATOM     26  C   UNL     1     -23.836 -13.337 109.603  1.00  0.00     0.021 A 
ATOM     27  C   UNL     1     -24.688 -14.406 109.680  1.00  0.00     0.041 A 
ATOM     28  Cl  UNL     1     -24.080 -16.043 109.667  1.00  0.00    -0.084 Cl
ENDBRANCH  18  22
ENDBRANCH  12  13
ENDBRANCH   1  12
TORSDOF 7
ENDMDL
MODEL 5
REMARK VINA RESULT:      -7.1      2.007      2.788
REMARK SMILES O=C(CCC[NH+]1CCC(O)(c2ccc(Cl)cc2)CC1)c1ccc(F)cc1
REMARK SMILES IDX 4 1 3 2 2 3 1 4 20 5 21 6 26 7 22 8 25 9 23 10 24 11 5 12
REMARK SMILES IDX 6 13 7 14 19 15 8 16 18 17 9 18 10 20 11 22 12 23 17 24
REMARK SMILES IDX 13 25 16 26 14 27 15 28
REMARK H PARENT 6 19 10 21
ROOT
ATOM      1  C   UNL     1     -25.420 -12.504 112.526  1.00  0.00     0.070 C 
ENDROOT
BRANCH   1   2
ATOM      2  C   UNL     1     -25.248 -11.858 113.883  1.00  0.00     0.087 C 
BRANCH   2   3
ATOM      3  C   UNL     1     -26.006 -12.503 114.958  1.00  0.00     0.163 C 
ATOM      4  O   UNL     1     -27.030 -11.967 115.454  1.00  0.00    -0.294 OA
BRANCH   3   5
ATOM      5  C   UNL     1     -25.620 -13.814 115.522  1.00  0.00     0.018 A 
ATOM      6  C   UNL     1     -24.684 -13.894 116.537  1.00  0.00     0.015 A 
ATOM      7  C   UNL     1     -26.178 -14.977 115.054  1.00  0.00     0.015 A 
ATOM      8  C   UNL     1     -24.330 -15.116 117.057  1.00  0.00     0.040 A 
ATOM      9  C   UNL     1     -25.830 -16.197 115.567  1.00  0.00     0.040 A 
ATOM     10  C   UNL     1     -24.904 -16.263 116.571  1.00  0.00     0.123 A 
ATOM     11  F   UNL     1     -24.579 -17.504 117.057  1.00  0.00    -0.207 F 
ENDBRANCH   3   5
ENDBRANCH   2   3
ENDBRANCH   1   2
BRANCH   1  12
ATOM     12  C   UNL     1     -24.126 -13.130 112.135  1.00  0.00     0.262 C 
BRANCH  12  13
ATOM     13  N   UNL     1     -23.782 -12.889 110.740  1.00  0.00    -0.335 N 
ATOM     14  C   UNL     1     -22.857 -13.855 110.229  1.00  0.00     0.265 C 
ATOM     15  C   UNL     1     -24.964 -12.849 109.942  1.00  0.00     0.265 C 
ATOM     16  C   UNL     1     -23.415 -15.249 110.309  1.00  0.00     0.102 C 
ATOM     17  C   UNL     1     -25.235 -14.014 109.088  1.00  0.00     0.102 C 
ATOM     18  C   UNL     1     -24.672 -15.325 109.495  1.00  0.00     0.100 C 
ATOM     19  H   UNL     1     -23.269 -11.957 110.748  1.00  0.00     0.348 HD
BRANCH  18  20
ATOM     20  O   UNL     1     -24.325 -16.012 108.306  1.00  0.00    -0.385 OA
ATOM     21  H   UNL     1     -25.174 -16.220 107.842  1.00  0.00     0.211 HD
ENDBRANCH  18  20
BRANCH  18  22
ATOM     22  C   UNL     1     -25.694 -16.218 110.148  1.00  0.00    -0.016 A 
ATOM     23  C   UNL     1     -25.789 -16.341 111.519  1.00  0.00     0.008 A 
ATOM     24  C   UNL     1     -26.595 -16.967 109.423  1.00  0.00     0.008 A 
ATOM     25  C   UNL     1     -26.707 -17.146 112.155  1.00  0.00     0.021 A 
ATOM     26  C   UNL     1     -27.524 -17.781 110.039  1.00  0.00     0.021 A 
ATOM     27  C   UNL     1     -27.580 -17.870 111.403  1.00  0.00     0.041 A 
ATOM     28  Cl  UNL     1     -28.755 -18.896 112.190  1.00  0.00    -0.084 Cl
ENDBRANCH  18  22
ENDBRANCH  12  13
ENDBRANCH   1  12
TORSDOF 7
ENDMDL
MODEL 6
REMARK VINA RESULT:      -7.1      3.308      5.733
REMARK SMILES O=C(CCC[NH+]1CCC(O)(c2ccc(Cl)cc2)CC1)c1ccc(F)cc1
REMARK SMILES IDX 4 1 3 2 2 3 1 4 20 5 21 6 26 7 22 8 25 9 23 10 24 11 5 12
REMARK SMILES IDX 6 13 7 14 19 15 8 16 18 17 9 18 10 20 11 22 12 23 17 24
REMARK SMILES IDX 13 25 16 26 14 27 15 28
REMARK H PARENT 6 19 10 21
ROOT
ATOM      1  C   UNL     1     -23.714 -14.794 109.462  1.00  0.00     0.070 C 
ENDROOT
BRANCH   1   2
ATOM      2  C   UNL     1     -23.365 -13.963 110.677  1.00  0.00     0.087 C 
BRANCH   2   3
ATOM      3  C   UNL     1     -23.507 -12.519 110.481  1.00  0.00     0.163 C 
ATOM      4  O   UNL     1     -22.516 -11.792 110.212  1.00  0.00    -0.294 OA
BRANCH   3   5
ATOM      5  C   UNL     1     -24.811 -11.830 110.584  1.00  0.00     0.018 A 
ATOM      6  C   UNL     1     -25.025 -10.873 111.559  1.00  0.00     0.015 A 
ATOM      7  C   UNL     1     -25.835 -12.122 109.719  1.00  0.00     0.015 A 
ATOM      8  C   UNL     1     -26.240 -10.236 111.649  1.00  0.00     0.040 A 
ATOM      9  C   UNL     1     -27.047 -11.492 109.802  1.00  0.00     0.040 A 
ATOM     10  C   UNL     1     -27.247 -10.546 110.771  1.00  0.00     0.123 A 
ATOM     11  F   UNL     1     -28.475  -9.939 110.825  1.00  0.00    -0.207 F 
ENDBRANCH   3   5
ENDBRANCH   2   3
ENDBRANCH   1   2
BRANCH   1  12
ATOM     12  C   UNL     1     -24.002 -16.185 109.910  1.00  0.00     0.262 C 
BRANCH  12  13
ATOM     13  N   UNL     1     -25.286 -16.678 109.426  1.00  0.00    -0.335 N 
ATOM     14  C   UNL     1     -25.710 -17.862 110.109  1.00  0.00     0.265 C 
ATOM     15  C   UNL     1     -26.274 -15.654 109.526  1.00  0.00     0.265 C 
ATOM     16  C   UNL     1     -25.861 -17.624 111.586  1.00  0.00     0.102 C 
ATOM     17  C   UNL     1     -27.267 -15.785 110.601  1.00  0.00     0.102 C 
ATOM     18  C   UNL     1     -26.889 -16.557 111.811  1.00  0.00     0.100 C 
ATOM     19  H   UNL     1     -25.100 -16.963 108.419  1.00  0.00     0.348 HD
BRANCH  18  20
ATOM     20  O   UNL     1     -28.055 -17.228 112.254  1.00  0.00    -0.385 OA
ATOM     21  H   UNL     1     -28.720 -16.527 112.469  1.00  0.00     0.211 HD
ENDBRANCH  18  20
BRANCH  18  22
ATOM     22  C   UNL     1     -26.515 -15.671 112.971  1.00  0.00    -0.016 A 
ATOM     23  C   UNL     1     -26.645 -16.086 114.280  1.00  0.00     0.008 A 
ATOM     24  C   UNL     1     -26.021 -14.397 112.800  1.00  0.00     0.008 A 
ATOM     25  C   UNL     1     -26.315 -15.308 115.367  1.00  0.00     0.021 A 
ATOM     26  C   UNL     1     -25.684 -13.598 113.875  1.00  0.00     0.021 A 
ATOM     27  C   UNL     1     -25.831 -14.055 115.157  1.00  0.00     0.041 A 
ATOM     28  Cl  UNL     1     -25.404 -13.052 116.522  1.00  0.00    -0.084 Cl
ENDBRANCH  18  22
ENDBRANCH  12  13
ENDBRANCH   1  12
TORSDOF 7
ENDMDL
MODEL 7
REMARK VINA RESULT:      -7.1      1.810      2.353
REMARK SMILES O=C(CCC[NH+]1CCC(O)(c2ccc(Cl)cc2)CC1)c1ccc(F)cc1
REMARK SMILES IDX 4 1 3 2 2 3 1 4 20 5 21 6 26 7 22 8 25 9 23 10 24 11 5 12
REMARK SMILES IDX 6 13 7 14 19 15 8 16 18 17 9 18 10 20 11 22 12 23 17 24
REMARK SMILES IDX 13 25 16 26 14 27 15 28
REMARK H PARENT 6 19 10 21
ROOT
ATOM      1  C   UNL     1     -25.396 -10.884 110.972  1.00  0.00     0.070 C 
ENDROOT
BRANCH   1   2
ATOM      2  C   UNL     1     -25.887 -10.964 112.400  1.00  0.00     0.087 C 
BRANCH   2   3
ATOM      3  C   UNL     1     -24.937 -11.574 113.332  1.00  0.00     0.163 C 
ATOM      4  O   UNL     1     -23.708 -11.306 113.287  1.00  0.00    -0.294 OA
BRANCH   3   5
ATOM      5  C   UNL     1     -25.356 -12.535 114.374  1.00  0.00     0.018 A 
ATOM      6  C   UNL     1     -25.524 -12.121 115.683  1.00  0.00     0.015 A 
ATOM      7  C   UNL     1     -25.587 -13.852 114.070  1.00  0.00     0.015 A 
ATOM      8  C   UNL     1     -25.913 -13.019 116.648  1.00  0.00     0.040 A 
ATOM      9  C   UNL     1     -25.975 -14.752 115.026  1.00  0.00     0.040 A 
ATOM     10  C   UNL     1     -26.138 -14.331 116.317  1.00  0.00     0.123 A 
ATOM     11  F   UNL     1     -26.525 -15.261 117.246  1.00  0.00    -0.207 F 
ENDBRANCH   3   5
ENDBRANCH   2   3
ENDBRANCH   1   2
BRANCH   1  12
ATOM     12  C   UNL     1     -25.519 -12.235 110.355  1.00  0.00     0.262 C 
BRANCH  12  13
ATOM     13  N   UNL     1     -24.373 -12.583 109.525  1.00  0.00    -0.335 N 
ATOM     14  C   UNL     1     -23.276 -13.092 110.292  1.00  0.00     0.265 C 
ATOM     15  C   UNL     1     -24.761 -13.514 108.516  1.00  0.00     0.265 C 
ATOM     16  C   UNL     1     -23.660 -14.333 111.050  1.00  0.00     0.102 C 
ATOM     17  C   UNL     1     -24.340 -14.911 108.697  1.00  0.00     0.102 C 
ATOM     18  C   UNL     1     -24.088 -15.392 110.078  1.00  0.00     0.100 C 
ATOM     19  H   UNL     1     -24.048 -11.656 109.116  1.00  0.00     0.348 HD
BRANCH  18  20
ATOM     20  O   UNL     1     -23.011 -16.310 110.005  1.00  0.00    -0.385 OA
ATOM     21  H   UNL     1     -23.278 -17.100 110.538  1.00  0.00     0.211 HD
ENDBRANCH  18  20
BRANCH  18  22
ATOM     22  C   UNL     1     -25.228 -16.209 110.625  1.00  0.00    -0.016 A 
ATOM     23  C   UNL     1     -26.336 -15.625 111.203  1.00  0.00     0.008 A 
ATOM     24  C   UNL     1     -25.239 -17.586 110.585  1.00  0.00     0.008 A 
ATOM     25  C   UNL     1     -27.399 -16.335 111.714  1.00  0.00     0.021 A 
ATOM     26  C   UNL     1     -26.293 -18.320 111.093  1.00  0.00     0.021 A 
ATOM     27  C   UNL     1     -27.371 -17.693 111.656  1.00  0.00     0.041 A 
ATOM     28  Cl  UNL     1     -28.711 -18.614 112.299  1.00  0.00    -0.084 Cl
ENDBRANCH  18  22
ENDBRANCH  12  13
ENDBRANCH   1  12
TORSDOF 7
ENDMDL
MODEL 8
REMARK VINA RESULT:      -7.0      3.159      5.529
REMARK SMILES O=C(CCC[NH+]1CCC(O)(c2ccc(Cl)cc2)CC1)c1ccc(F)cc1
REMARK SMILES IDX 4 1 3 2 2 3 1 4 20 5 21 6 26 7 22 8 25 9 23 10 24 11 5 12
REMARK SMILES IDX 6 13 7 14 19 15 8 16 18 17 9 18 10 20 11 22 12 23 17 24
REMARK SMILES IDX 13 25 16 26 14 27 15 28
REMARK H PARENT 6 19 10 21
ROOT
ATOM      1  C   UNL     1     -26.498 -10.938 114.220  1.00  0.00     0.070 C 
ENDROOT
BRANCH   1   2
ATOM      2  C   UNL     1     -27.379  -9.730 113.993  1.00  0.00     0.087 C 
BRANCH   2   3
ATOM      3  C   UNL     1     -27.240  -9.121 112.668  1.00  0.00     0.163 C 
ATOM      4  O   UNL     1     -27.478  -7.901 112.477  1.00  0.00    -0.294 OA
BRANCH   3   5
ATOM      5  C   UNL     1     -26.812  -9.894 111.483  1.00  0.00     0.018 A 
ATOM      6  C   UNL     1     -27.743 -10.346 110.565  1.00  0.00     0.015 A 
ATOM      7  C   UNL     1     -25.488 -10.180 111.266  1.00  0.00     0.015 A 
ATOM      8  C   UNL     1     -27.338 -11.065 109.466  1.00  0.00     0.040 A 
ATOM      9  C   UNL     1     -25.077 -10.895 110.173  1.00  0.00     0.040 A 
ATOM     10  C   UNL     1     -26.008 -11.337 109.272  1.00  0.00     0.123 A 
ATOM     11  F   UNL     1     -25.559 -12.051 108.192  1.00  0.00    -0.207 F 
ENDBRANCH   3   5
ENDBRANCH   2   3
ENDBRANCH   1   2
BRANCH   1  12
ATOM     12  C   UNL     1     -27.103 -11.765 115.302  1.00  0.00     0.262 C 
BRANCH  12  13
ATOM     13  N   UNL     1     -26.103 -12.416 116.138  1.00  0.00    -0.335 N 
ATOM     14  C   UNL     1     -26.602 -13.604 116.763  1.00  0.00     0.265 C 
ATOM     15  C   UNL     1     -24.932 -12.699 115.374  1.00  0.00     0.265 C 
ATOM     16  C   UNL     1     -27.049 -14.617 115.746  1.00  0.00     0.102 C 
ATOM     17  C   UNL     1     -24.705 -14.100 114.991  1.00  0.00     0.102 C 
ATOM     18  C   UNL     1     -25.884 -14.994 114.879  1.00  0.00     0.100 C 
ATOM     19  H   UNL     1     -25.916 -11.722 116.921  1.00  0.00     0.348 HD
BRANCH  18  20
ATOM     20  O   UNL     1     -25.473 -16.277 115.317  1.00  0.00    -0.385 OA
ATOM     21  H   UNL     1     -26.246 -16.675 115.790  1.00  0.00     0.211 HD
ENDBRANCH  18  20
BRANCH  18  22
ATOM     22  C   UNL     1     -26.312 -15.215 113.452  1.00  0.00    -0.016 A 
ATOM     23  C   UNL     1     -27.040 -16.323 113.069  1.00  0.00     0.008 A 
ATOM     24  C   UNL     1     -26.006 -14.330 112.442  1.00  0.00     0.008 A 
ATOM     25  C   UNL     1     -27.450 -16.562 111.778  1.00  0.00     0.021 A 
ATOM     26  C   UNL     1     -26.405 -14.550 111.138  1.00  0.00     0.021 A 
ATOM     27  C   UNL     1     -27.127 -15.665 110.808  1.00  0.00     0.041 A 
ATOM     28  Cl  UNL     1     -27.639 -15.949 109.161  1.00  0.00    -0.084 Cl
ENDBRANCH  18  22
ENDBRANCH  12  13
ENDBRANCH   1  12
TORSDOF 7
ENDMDL
MODEL 9
REMARK VINA RESULT:      -6.9      1.259      1.912
REMARK SMILES O=C(CCC[NH+]1CCC(O)(c2ccc(Cl)cc2)CC1)c1ccc(F)cc1
REMARK SMILES IDX 4 1 3 2 2 3 1 4 20 5 21 6 26 7 22 8 25 9 23 10 24 11 5 12
REMARK SMILES IDX 6 13 7 14 19 15 8 16 18 17 9 18 10 20 11 22 12 23 17 24
REMARK SMILES IDX 13 25 16 26 14 27 15 28
REMARK H PARENT 6 19 10 21
ROOT
ATOM      1  C   UNL     1     -25.205 -10.833 113.531  1.00  0.00     0.070 C 
ENDROOT
BRANCH   1   2
ATOM      2  C   UNL     1     -24.100 -11.816 113.847  1.00  0.00     0.087 C 
BRANCH   2   3
ATOM      3  C   UNL     1     -24.554 -13.197 114.024  1.00  0.00     0.163 C 
ATOM      4  O   UNL     1     -24.453 -14.045 113.100  1.00  0.00    -0.294 OA
BRANCH   3   5
ATOM      5  C   UNL     1     -25.151 -13.678 115.287  1.00  0.00     0.018 A 
ATOM      6  C   UNL     1     -24.378 -14.344 116.221  1.00  0.00     0.015 A 
ATOM      7  C   UNL     1     -26.480 -13.478 115.562  1.00  0.00     0.015 A 
ATOM      8  C   UNL     1     -24.940 -14.789 117.394  1.00  0.00     0.040 A 
ATOM      9  C   UNL     1     -27.047 -13.918 116.728  1.00  0.00     0.040 A 
ATOM     10  C   UNL     1     -26.271 -14.575 117.644  1.00  0.00     0.123 A 
ATOM     11  F   UNL     1     -26.875 -15.003 118.798  1.00  0.00    -0.207 F 
ENDBRANCH   3   5
ENDBRANCH   2   3
ENDBRANCH   1   2
BRANCH   1  12
ATOM     12  C   UNL     1     -26.017 -11.382 112.408  1.00  0.00     0.262 C 
BRANCH  12  13
ATOM     13  N   UNL     1     -25.904 -10.589 111.191  1.00  0.00    -0.335 N 
ATOM     14  C   UNL     1     -24.686 -10.842 110.484  1.00  0.00     0.265 C 
ATOM     15  C   UNL     1     -27.034 -10.816 110.350  1.00  0.00     0.265 C 
ATOM     16  C   UNL     1     -24.572 -12.286 110.078  1.00  0.00     0.102 C 
ATOM     17  C   UNL     1     -26.824 -11.647 109.156  1.00  0.00     0.102 C 
ATOM     18  C   UNL     1     -25.720 -12.638 109.180  1.00  0.00     0.100 C 
ATOM     19  H   UNL     1     -25.849  -9.583 111.531  1.00  0.00     0.348 HD
BRANCH  18  20
ATOM     20  O   UNL     1     -25.186 -12.692 107.869  1.00  0.00    -0.385 OA
ATOM     21  H   UNL     1     -24.869 -11.779 107.655  1.00  0.00     0.211 HD
ENDBRANCH  18  20
BRANCH  18  22
ATOM     22  C   UNL     1     -26.205 -14.041 109.435  1.00  0.00    -0.016 A 
ATOM     23  C   UNL     1     -26.786 -14.409 110.631  1.00  0.00     0.008 A 
ATOM     24  C   UNL     1     -26.100 -15.043 108.495  1.00  0.00     0.008 A 
ATOM     25  C   UNL     1     -27.242 -15.679 110.903  1.00  0.00     0.021 A 
ATOM     26  C   UNL     1     -26.549 -16.325 108.747  1.00  0.00     0.021 A 
ATOM     27  C   UNL     1     -27.120 -16.641 109.950  1.00  0.00     0.041 A 
ATOM     28  Cl  UNL     1     -27.693 -18.259 110.275  1.00  0.00    -0.084 Cl
ENDBRANCH  18  22
ENDBRANCH  12  13
ENDBRANCH   1  12
TORSDOF 7
ENDMDL
