MODEL 1
REMARK VINA RESULT:      -7.8      0.000      0.000
REMARK SMILES O=C1NCN(c2ccccc2)C12CC[NH+](CCCC(c1ccc(F)cc1)c1ccc(F)cc1)CC2
REMARK SMILES IDX 17 1 16 2 15 3 1 4 2 5 3 6 12 7 4 8 5 9 13 10 35 11 14 12
REMARK SMILES IDX 34 13 6 16 7 17 11 18 8 19 10 20 9 21 18 22 19 23 20 24
REMARK SMILES IDX 21 25 26 26 22 27 25 28 23 29 24 30 27 31 28 32 33 33 29 34
REMARK SMILES IDX 32 35 30 36 31 37
REMARK H PARENT 3 14 15 15
ROOT
ATOM      1  C   UNL     1     -25.232 -10.200 108.595  1.00  0.00     0.062 C 
ENDROOT
BRANCH   1   2
ATOM      2  C   UNL     1     -24.180 -11.245 108.822  1.00  0.00     0.262 C 
BRANCH   2   3
ATOM      3  N   UNL     1     -24.762 -12.410 109.479  1.00  0.00    -0.335 N 
ATOM      4  O   UNL     1     -26.750 -14.942 109.227  1.00  0.00    -0.272 OA
ATOM      5  C   UNL     1     -26.684 -15.059 110.468  1.00  0.00     0.247 C 
ATOM      6  N   UNL     1     -27.363 -16.042 111.209  1.00  0.00    -0.336 N 
ATOM      7  C   UNL     1     -25.872 -14.177 111.389  1.00  0.00     0.131 C 
ATOM      8  C   UNL     1     -26.685 -16.134 112.464  1.00  0.00     0.238 C 
ATOM      9  N   UNL     1     -26.164 -14.777 112.688  1.00  0.00    -0.339 N 
ATOM     10  C   UNL     1     -26.392 -12.757 111.283  1.00  0.00     0.100 C 
ATOM     11  C   UNL     1     -24.447 -14.283 110.978  1.00  0.00     0.100 C 
ATOM     12  C   UNL     1     -26.122 -12.173 109.916  1.00  0.00     0.265 C 
ATOM     13  C   UNL     1     -23.939 -12.952 110.528  1.00  0.00     0.265 C 
ATOM     14  H   UNL     1     -28.204 -16.588 110.880  1.00  0.00     0.165 HD
ATOM     15  H   UNL     1     -24.810 -13.129 108.724  1.00  0.00     0.348 HD
BRANCH   9  16
ATOM     16  C   UNL     1     -26.033 -14.249 113.998  1.00  0.00     0.039 A 
ATOM     17  C   UNL     1     -25.210 -13.179 114.253  1.00  0.00     0.026 A 
ATOM     18  C   UNL     1     -26.749 -14.794 115.020  1.00  0.00     0.026 A 
ATOM     19  C   UNL     1     -25.088 -12.637 115.536  1.00  0.00     0.002 A 
ATOM     20  C   UNL     1     -26.645 -14.280 116.283  1.00  0.00     0.002 A 
ATOM     21  C   UNL     1     -25.827 -13.213 116.548  1.00  0.00     0.000 A 
ENDBRANCH   9  16
ENDBRANCH   2   3
ENDBRANCH   1   2
BRANCH   1  22
ATOM     22  C   UNL     1     -24.940  -8.843 109.071  1.00  0.00     0.019 C 
BRANCH  22  23
ATOM     23  C   UNL     1     -25.877  -8.071 109.876  1.00  0.00     0.049 C 
BRANCH  23  24
ATOM     24  C   UNL     1     -26.282  -8.697 111.184  1.00  0.00    -0.040 A 
ATOM     25  C   UNL     1     -27.634  -8.770 111.440  1.00  0.00     0.007 A 
ATOM     26  C   UNL     1     -25.371  -9.152 112.099  1.00  0.00     0.007 A 
ATOM     27  C   UNL     1     -28.083  -9.305 112.621  1.00  0.00     0.039 A 
ATOM     28  C   UNL     1     -25.823  -9.686 113.275  1.00  0.00     0.039 A 
ATOM     29  C   UNL     1     -27.191  -9.773 113.560  1.00  0.00     0.123 A 
ATOM     30  F   UNL     1     -27.647 -10.300 114.724  1.00  0.00    -0.207 F 
ENDBRANCH  23  24
BRANCH  23  31
ATOM     31  C   UNL     1     -25.723  -6.632 110.021  1.00  0.00    -0.040 A 
ATOM     32  C   UNL     1     -26.719  -5.697 109.995  1.00  0.00     0.007 A 
ATOM     33  C   UNL     1     -24.406  -6.184 110.187  1.00  0.00     0.007 A 
ATOM     34  C   UNL     1     -26.380  -4.345 110.133  1.00  0.00     0.039 A 
ATOM     35  C   UNL     1     -24.066  -4.877 110.322  1.00  0.00     0.039 A 
ATOM     36  C   UNL     1     -25.078  -3.945 110.293  1.00  0.00     0.123 A 
ATOM     37  F   UNL     1     -24.723  -2.639 110.430  1.00  0.00    -0.207 F 
ENDBRANCH  23  31
ENDBRANCH  22  23
ENDBRANCH   1  22
TORSDOF 7
ENDMDL
MODEL 2
REMARK VINA RESULT:      -7.7      0.652      3.817
REMARK SMILES O=C1NCN(c2ccccc2)C12CC[NH+](CCCC(c1ccc(F)cc1)c1ccc(F)cc1)CC2
REMARK SMILES IDX 17 1 16 2 15 3 1 4 2 5 3 6 12 7 4 8 5 9 13 10 35 11 14 12
REMARK SMILES IDX 34 13 6 16 7 17 11 18 8 19 10 20 9 21 18 22 19 23 20 24
REMARK SMILES IDX 21 25 26 26 22 27 25 28 23 29 24 30 27 31 28 32 33 33 29 34
REMARK SMILES IDX 32 35 30 36 31 37
REMARK H PARENT 3 14 15 15
ROOT
ATOM      1  C   UNL     1     -25.812 -10.551 108.879  1.00  0.00     0.062 C 
ENDROOT
BRANCH   1   2
ATOM      2  C   UNL     1     -24.725 -11.586 108.894  1.00  0.00     0.262 C 
BRANCH   2   3
ATOM      3  N   UNL     1     -25.161 -12.762 109.637  1.00  0.00    -0.335 N 
ATOM      4  O   UNL     1     -26.884 -15.494 109.606  1.00  0.00    -0.272 OA
ATOM      5  C   UNL     1     -26.765 -15.528 110.848  1.00  0.00     0.247 C 
ATOM      6  N   UNL     1     -27.314 -16.529 111.670  1.00  0.00    -0.336 N 
ATOM      7  C   UNL     1     -26.020 -14.514 111.686  1.00  0.00     0.131 C 
ATOM      8  C   UNL     1     -26.589 -16.476 112.900  1.00  0.00     0.238 C 
ATOM      9  N   UNL     1     -26.205 -15.062 113.027  1.00  0.00    -0.339 N 
ATOM     10  C   UNL     1     -26.687 -13.164 111.520  1.00  0.00     0.100 C 
ATOM     11  C   UNL     1     -24.606 -14.500 111.226  1.00  0.00     0.100 C 
ATOM     12  C   UNL     1     -26.524 -12.638 110.113  1.00  0.00     0.265 C 
ATOM     13  C   UNL     1     -24.253 -13.154 110.683  1.00  0.00     0.265 C 
ATOM     14  H   UNL     1     -28.104 -17.177 111.404  1.00  0.00     0.165 HD
ATOM     15  H   UNL     1     -25.159 -13.526 108.926  1.00  0.00     0.348 HD
BRANCH   9  16
ATOM     16  C   UNL     1     -26.087 -14.446 114.299  1.00  0.00     0.039 A 
ATOM     17  C   UNL     1     -26.997 -14.699 115.297  1.00  0.00     0.026 A 
ATOM     18  C   UNL     1     -25.044 -13.607 114.548  1.00  0.00     0.026 A 
ATOM     19  C   UNL     1     -26.879 -14.113 116.562  1.00  0.00     0.002 A 
ATOM     20  C   UNL     1     -24.910 -13.023 115.777  1.00  0.00     0.002 A 
ATOM     21  C   UNL     1     -25.812 -13.268 116.780  1.00  0.00     0.000 A 
ENDBRANCH   9  16
ENDBRANCH   2   3
ENDBRANCH   1   2
BRANCH   1  22
ATOM     22  C   UNL     1     -25.401  -9.149 109.010  1.00  0.00     0.019 C 
BRANCH  22  23
ATOM     23  C   UNL     1     -25.326  -8.465 110.294  1.00  0.00     0.049 C 
BRANCH  23  24
ATOM     24  C   UNL     1     -25.417  -6.963 110.238  1.00  0.00    -0.040 A 
ATOM     25  C   UNL     1     -26.135  -6.426 109.192  1.00  0.00     0.007 A 
ATOM     26  C   UNL     1     -24.802  -6.151 111.154  1.00  0.00     0.007 A 
ATOM     27  C   UNL     1     -26.244  -5.065 109.057  1.00  0.00     0.039 A 
ATOM     28  C   UNL     1     -24.914  -4.794 111.016  1.00  0.00     0.039 A 
ATOM     29  C   UNL     1     -25.639  -4.224 109.963  1.00  0.00     0.123 A 
ATOM     30  F   UNL     1     -25.753  -2.879 109.819  1.00  0.00    -0.207 F 
ENDBRANCH  23  24
BRANCH  23  31
ATOM     31  C   UNL     1     -26.037  -8.979 111.453  1.00  0.00    -0.040 A 
ATOM     32  C   UNL     1     -27.357  -8.790 111.754  1.00  0.00     0.007 A 
ATOM     33  C   UNL     1     -25.262  -9.728 112.348  1.00  0.00     0.007 A 
ATOM     34  C   UNL     1     -27.869  -9.347 112.932  1.00  0.00     0.039 A 
ATOM     35  C   UNL     1     -25.747 -10.274 113.492  1.00  0.00     0.039 A 
ATOM     36  C   UNL     1     -27.077 -10.075 113.783  1.00  0.00     0.123 A 
ATOM     37  F   UNL     1     -27.550 -10.628 114.933  1.00  0.00    -0.207 F 
ENDBRANCH  23  31
ENDBRANCH  22  23
ENDBRANCH   1  22
TORSDOF 7
ENDMDL
MODEL 3
REMARK VINA RESULT:      -7.5      0.646      1.094
REMARK SMILES O=C1NCN(c2ccccc2)C12CC[NH+](CCCC(c1ccc(F)cc1)c1ccc(F)cc1)CC2
REMARK SMILES IDX 17 1 16 2 15 3 1 4 2 5 3 6 12 7 4 8 5 9 13 10 35 11 14 12
REMARK SMILES IDX 34 13 6 16 7 17 11 18 8 19 10 20 9 21 18 22 19 23 20 24
REMARK SMILES IDX 21 25 26 26 22 27 25 28 23 29 24 30 27 31 28 32 33 33 29 34
REMARK SMILES IDX 32 35 30 36 31 37
REMARK H PARENT 3 14 15 15
ROOT
ATOM      1  C   UNL     1     -24.285 -10.426 109.553  1.00  0.00     0.062 C 
ENDROOT
BRANCH   1   2
ATOM      2  C   UNL     1     -24.294 -11.656 108.694  1.00  0.00     0.262 C 
BRANCH   2   3
ATOM      3  N   UNL     1     -24.868 -12.778 109.429  1.00  0.00    -0.335 N 
ATOM      4  O   UNL     1     -26.870 -15.311 109.363  1.00  0.00    -0.272 OA
ATOM      5  C   UNL     1     -26.780 -15.354 110.608  1.00  0.00     0.247 C 
ATOM      6  N   UNL     1     -27.449 -16.289 111.419  1.00  0.00    -0.336 N 
ATOM      7  C   UNL     1     -25.949 -14.424 111.460  1.00  0.00     0.131 C 
ATOM      8  C   UNL     1     -26.748 -16.311 112.663  1.00  0.00     0.238 C 
ATOM      9  N   UNL     1     -26.218 -14.945 112.798  1.00  0.00    -0.339 N 
ATOM     10  C   UNL     1     -26.465 -13.010 111.280  1.00  0.00     0.100 C 
ATOM     11  C   UNL     1     -24.532 -14.560 111.029  1.00  0.00     0.100 C 
ATOM     12  C   UNL     1     -26.219 -12.508 109.877  1.00  0.00     0.265 C 
ATOM     13  C   UNL     1     -24.028 -13.261 110.493  1.00  0.00     0.265 C 
ATOM     14  H   UNL     1     -28.298 -16.850 111.137  1.00  0.00     0.165 HD
ATOM     15  H   UNL     1     -24.933 -13.539 108.718  1.00  0.00     0.348 HD
BRANCH   9  16
ATOM     16  C   UNL     1     -26.060 -14.342 114.071  1.00  0.00     0.039 A 
ATOM     17  C   UNL     1     -25.188 -13.296 114.258  1.00  0.00     0.026 A 
ATOM     18  C   UNL     1     -26.798 -14.788 115.125  1.00  0.00     0.026 A 
ATOM     19  C   UNL     1     -25.039 -12.681 115.505  1.00  0.00     0.002 A 
ATOM     20  C   UNL     1     -26.668 -14.200 116.353  1.00  0.00     0.002 A 
ATOM     21  C   UNL     1     -25.801 -13.157 116.551  1.00  0.00     0.000 A 
ENDBRANCH   9  16
ENDBRANCH   2   3
ENDBRANCH   1   2
BRANCH   1  22
ATOM     22  C   UNL     1     -24.932  -9.226 109.010  1.00  0.00     0.019 C 
BRANCH  22  23
ATOM     23  C   UNL     1     -25.589  -8.235 109.850  1.00  0.00     0.049 C 
BRANCH  23  24
ATOM     24  C   UNL     1     -26.192  -8.759 111.126  1.00  0.00    -0.040 A 
ATOM     25  C   UNL     1     -25.315  -9.252 112.066  1.00  0.00     0.007 A 
ATOM     26  C   UNL     1     -27.543  -8.779 111.351  1.00  0.00     0.007 A 
ATOM     27  C   UNL     1     -25.788  -9.770 113.246  1.00  0.00     0.039 A 
ATOM     28  C   UNL     1     -28.010  -9.296 112.530  1.00  0.00     0.039 A 
ATOM     29  C   UNL     1     -27.140  -9.802 113.502  1.00  0.00     0.123 A 
ATOM     30  F   UNL     1     -27.595 -10.317 114.672  1.00  0.00    -0.207 F 
ENDBRANCH  23  24
BRANCH  23  31
ATOM     31  C   UNL     1     -24.992  -6.927 110.064  1.00  0.00    -0.040 A 
ATOM     32  C   UNL     1     -25.551  -5.871 110.728  1.00  0.00     0.007 A 
ATOM     33  C   UNL     1     -23.718  -6.751 109.508  1.00  0.00     0.007 A 
ATOM     34  C   UNL     1     -24.832  -4.673 110.820  1.00  0.00     0.039 A 
ATOM     35  C   UNL     1     -23.011  -5.595 109.592  1.00  0.00     0.039 A 
ATOM     36  C   UNL     1     -23.586  -4.540 110.262  1.00  0.00     0.123 A 
ATOM     37  F   UNL     1     -22.867  -3.388 110.339  1.00  0.00    -0.207 F 
ENDBRANCH  23  31
ENDBRANCH  22  23
ENDBRANCH   1  22
TORSDOF 7
ENDMDL
MODEL 4
REMARK VINA RESULT:      -7.5      3.644      9.102
REMARK SMILES O=C1NCN(c2ccccc2)C12CC[NH+](CCCC(c1ccc(F)cc1)c1ccc(F)cc1)CC2
REMARK SMILES IDX 17 1 16 2 15 3 1 4 2 5 3 6 12 7 4 8 5 9 13 10 35 11 14 12
REMARK SMILES IDX 34 13 6 16 7 17 11 18 8 19 10 20 9 21 18 22 19 23 20 24
REMARK SMILES IDX 21 25 26 26 22 27 25 28 23 29 24 30 27 31 28 32 33 33 29 34
REMARK SMILES IDX 32 35 30 36 31 37
REMARK H PARENT 3 14 15 15
ROOT
ATOM      1  C   UNL     1     -26.001 -10.096 113.500  1.00  0.00     0.062 C 
ENDROOT
BRANCH   1   2
ATOM      2  C   UNL     1     -26.888  -9.979 112.296  1.00  0.00     0.262 C 
BRANCH   2   3
ATOM      3  N   UNL     1     -26.299  -9.066 111.324  1.00  0.00    -0.335 N 
ATOM      4  O   UNL     1     -23.595  -7.968 109.940  1.00  0.00    -0.272 OA
ATOM      5  C   UNL     1     -24.269  -7.023 109.481  1.00  0.00     0.247 C 
ATOM      6  N   UNL     1     -23.746  -5.989 108.685  1.00  0.00    -0.336 N 
ATOM      7  C   UNL     1     -25.751  -6.818 109.695  1.00  0.00     0.131 C 
ATOM      8  C   UNL     1     -24.859  -5.407 108.004  1.00  0.00     0.238 C 
ATOM      9  N   UNL     1     -25.982  -5.592 108.936  1.00  0.00    -0.339 N 
ATOM     10  C   UNL     1     -26.006  -6.631 111.178  1.00  0.00     0.100 C 
ATOM     11  C   UNL     1     -26.456  -8.010 109.153  1.00  0.00     0.100 C 
ATOM     12  C   UNL     1     -25.716  -7.897 111.950  1.00  0.00     0.265 C 
ATOM     13  C   UNL     1     -27.187  -8.719 110.245  1.00  0.00     0.265 C 
ATOM     14  H   UNL     1     -22.727  -5.719 108.620  1.00  0.00     0.165 HD
ATOM     15  H   UNL     1     -25.511  -9.610 110.910  1.00  0.00     0.348 HD
BRANCH   9  16
ATOM     16  C   UNL     1     -27.043  -4.653 109.001  1.00  0.00     0.039 A 
ATOM     17  C   UNL     1     -28.273  -4.932 108.454  1.00  0.00     0.026 A 
ATOM     18  C   UNL     1     -26.852  -3.462 109.633  1.00  0.00     0.026 A 
ATOM     19  C   UNL     1     -29.331  -4.022 108.531  1.00  0.00     0.002 A 
ATOM     20  C   UNL     1     -27.874  -2.558 109.718  1.00  0.00     0.002 A 
ATOM     21  C   UNL     1     -29.105  -2.826 109.177  1.00  0.00     0.000 A 
ENDBRANCH   9  16
ENDBRANCH   2   3
ENDBRANCH   1   2
BRANCH   1  22
ATOM     22  C   UNL     1     -25.036 -11.201 113.514  1.00  0.00     0.019 C 
BRANCH  22  23
ATOM     23  C   UNL     1     -25.438 -12.599 113.595  1.00  0.00     0.049 C 
BRANCH  23  24
ATOM     24  C   UNL     1     -24.901 -13.495 112.510  1.00  0.00    -0.040 A 
ATOM     25  C   UNL     1     -25.716 -14.528 112.103  1.00  0.00     0.007 A 
ATOM     26  C   UNL     1     -23.658 -13.326 111.960  1.00  0.00     0.007 A 
ATOM     27  C   UNL     1     -25.288 -15.403 111.136  1.00  0.00     0.039 A 
ATOM     28  C   UNL     1     -23.236 -14.200 110.995  1.00  0.00     0.039 A 
ATOM     29  C   UNL     1     -24.045 -15.258 110.563  1.00  0.00     0.123 A 
ATOM     30  F   UNL     1     -23.633 -16.129 109.608  1.00  0.00    -0.207 F 
ENDBRANCH  23  24
BRANCH  23  31
ATOM     31  C   UNL     1     -25.459 -13.295 114.871  1.00  0.00    -0.040 A 
ATOM     32  C   UNL     1     -24.405 -13.911 115.485  1.00  0.00     0.007 A 
ATOM     33  C   UNL     1     -26.706 -13.339 115.509  1.00  0.00     0.007 A 
ATOM     34  C   UNL     1     -24.616 -14.552 116.711  1.00  0.00     0.039 A 
ATOM     35  C   UNL     1     -26.923 -13.956 116.698  1.00  0.00     0.039 A 
ATOM     36  C   UNL     1     -25.853 -14.573 117.305  1.00  0.00     0.123 A 
ATOM     37  F   UNL     1     -26.085 -15.188 118.496  1.00  0.00    -0.207 F 
ENDBRANCH  23  31
ENDBRANCH  22  23
ENDBRANCH   1  22
TORSDOF 7
ENDMDL
MODEL 5
REMARK VINA RESULT:      -7.4      0.952      3.868
REMARK SMILES O=C1NCN(c2ccccc2)C12CC[NH+](CCCC(c1ccc(F)cc1)c1ccc(F)cc1)CC2
REMARK SMILES IDX 17 1 16 2 15 3 1 4 2 5 3 6 12 7 4 8 5 9 13 10 35 11 14 12
REMARK SMILES IDX 34 13 6 16 7 17 11 18 8 19 10 20 9 21 18 22 19 23 20 24
REMARK SMILES IDX 21 25 26 26 22 27 25 28 23 29 24 30 27 31 28 32 33 33 29 34
REMARK SMILES IDX 32 35 30 36 31 37
REMARK H PARENT 3 14 15 15
ROOT
ATOM      1  C   UNL     1     -24.245 -10.547 109.395  1.00  0.00     0.062 C 
ENDROOT
BRANCH   1   2
ATOM      2  C   UNL     1     -24.497 -11.727 108.503  1.00  0.00     0.262 C 
BRANCH   2   3
ATOM      3  N   UNL     1     -25.044 -12.835 109.277  1.00  0.00    -0.335 N 
ATOM      4  O   UNL     1     -27.066 -15.352 109.339  1.00  0.00    -0.272 OA
ATOM      5  C   UNL     1     -26.917 -15.382 110.578  1.00  0.00     0.247 C 
ATOM      6  N   UNL     1     -27.552 -16.301 111.431  1.00  0.00    -0.336 N 
ATOM      7  C   UNL     1     -26.037 -14.448 111.378  1.00  0.00     0.131 C 
ATOM      8  C   UNL     1     -26.792 -16.315 112.641  1.00  0.00     0.238 C 
ATOM      9  N   UNL     1     -26.245 -14.952 112.733  1.00  0.00    -0.339 N 
ATOM     10  C   UNL     1     -26.551 -13.033 111.207  1.00  0.00     0.100 C 
ATOM     11  C   UNL     1     -24.644 -14.602 110.881  1.00  0.00     0.100 C 
ATOM     12  C   UNL     1     -26.369 -12.549 109.787  1.00  0.00     0.265 C 
ATOM     13  C   UNL     1     -24.156 -13.313 110.305  1.00  0.00     0.265 C 
ATOM     14  H   UNL     1     -28.418 -16.858 111.198  1.00  0.00     0.165 HD
ATOM     15  H   UNL     1     -25.149 -13.604 108.580  1.00  0.00     0.348 HD
BRANCH   9  16
ATOM     16  C   UNL     1     -26.021 -14.336 113.990  1.00  0.00     0.039 A 
ATOM     17  C   UNL     1     -26.775 -14.673 115.090  1.00  0.00     0.026 A 
ATOM     18  C   UNL     1     -25.031 -13.412 114.122  1.00  0.00     0.026 A 
ATOM     19  C   UNL     1     -26.549 -14.087 116.339  1.00  0.00     0.002 A 
ATOM     20  C   UNL     1     -24.794 -12.826 115.335  1.00  0.00     0.002 A 
ATOM     21  C   UNL     1     -25.539 -13.154 116.438  1.00  0.00     0.000 A 
ENDBRANCH   9  16
ENDBRANCH   2   3
ENDBRANCH   1   2
BRANCH   1  22
ATOM     22  C   UNL     1     -25.074  -9.356 109.178  1.00  0.00     0.019 C 
BRANCH  22  23
ATOM     23  C   UNL     1     -25.425  -8.433 110.249  1.00  0.00     0.049 C 
BRANCH  23  24
ATOM     24  C   UNL     1     -26.042  -7.131 109.810  1.00  0.00    -0.040 A 
ATOM     25  C   UNL     1     -26.776  -7.157 108.644  1.00  0.00     0.007 A 
ATOM     26  C   UNL     1     -25.873  -5.963 110.504  1.00  0.00     0.007 A 
ATOM     27  C   UNL     1     -27.349  -6.006 108.165  1.00  0.00     0.039 A 
ATOM     28  C   UNL     1     -26.448  -4.817 110.023  1.00  0.00     0.039 A 
ATOM     29  C   UNL     1     -27.198  -4.817 108.842  1.00  0.00     0.123 A 
ATOM     30  F   UNL     1     -27.770  -3.685 108.358  1.00  0.00    -0.207 F 
ENDBRANCH  23  24
BRANCH  23  31
ATOM     31  C   UNL     1     -26.054  -8.913 111.469  1.00  0.00    -0.040 A 
ATOM     32  C   UNL     1     -25.426  -9.467 112.549  1.00  0.00     0.007 A 
ATOM     33  C   UNL     1     -27.450  -8.799 111.509  1.00  0.00     0.007 A 
ATOM     34  C   UNL     1     -26.199  -9.893 113.636  1.00  0.00     0.039 A 
ATOM     35  C   UNL     1     -28.209  -9.207 112.557  1.00  0.00     0.039 A 
ATOM     36  C   UNL     1     -27.565  -9.765 113.637  1.00  0.00     0.123 A 
ATOM     37  F   UNL     1     -28.338 -10.169 114.681  1.00  0.00    -0.207 F 
ENDBRANCH  23  31
ENDBRANCH  22  23
ENDBRANCH   1  22
TORSDOF 7
ENDMDL
MODEL 6
REMARK VINA RESULT:      -7.3      0.362      1.428
REMARK SMILES O=C1NCN(c2ccccc2)C12CC[NH+](CCCC(c1ccc(F)cc1)c1ccc(F)cc1)CC2
REMARK SMILES IDX 17 1 16 2 15 3 1 4 2 5 3 6 12 7 4 8 5 9 13 10 35 11 14 12
REMARK SMILES IDX 34 13 6 16 7 17 11 18 8 19 10 20 9 21 18 22 19 23 20 24
REMARK SMILES IDX 21 25 26 26 22 27 25 28 23 29 24 30 27 31 28 32 33 33 29 34
REMARK SMILES IDX 32 35 30 36 31 37
REMARK H PARENT 3 14 15 15
ROOT
ATOM      1  C   UNL     1     -24.394 -10.309 109.430  1.00  0.00     0.062 C 
ENDROOT
BRANCH   1   2
ATOM      2  C   UNL     1     -24.595 -11.482 108.517  1.00  0.00     0.262 C 
BRANCH   2   3
ATOM      3  N   UNL     1     -25.107 -12.623 109.269  1.00  0.00    -0.335 N 
ATOM      4  O   UNL     1     -27.046 -15.205 109.275  1.00  0.00    -0.272 OA
ATOM      5  C   UNL     1     -26.898 -15.254 110.514  1.00  0.00     0.247 C 
ATOM      6  N   UNL     1     -27.505 -16.210 111.347  1.00  0.00    -0.336 N 
ATOM      7  C   UNL     1     -26.052 -14.308 111.334  1.00  0.00     0.131 C 
ATOM      8  C   UNL     1     -26.747 -16.222 112.559  1.00  0.00     0.238 C 
ATOM      9  N   UNL     1     -26.247 -14.845 112.679  1.00  0.00    -0.339 N 
ATOM     10  C   UNL     1     -26.611 -12.907 111.189  1.00  0.00     0.100 C 
ATOM     11  C   UNL     1     -24.653 -14.406 110.839  1.00  0.00     0.100 C 
ATOM     12  C   UNL     1     -26.441 -12.390 109.780  1.00  0.00     0.265 C 
ATOM     13  C   UNL     1     -24.207 -13.091 110.290  1.00  0.00     0.265 C 
ATOM     14  H   UNL     1     -28.352 -16.791 111.101  1.00  0.00     0.165 HD
ATOM     15  H   UNL     1     -25.185 -13.381 108.556  1.00  0.00     0.348 HD
BRANCH   9  16
ATOM     16  C   UNL     1     -26.046 -14.246 113.949  1.00  0.00     0.039 A 
ATOM     17  C   UNL     1     -26.631 -14.766 115.079  1.00  0.00     0.026 A 
ATOM     18  C   UNL     1     -25.244 -13.152 114.060  1.00  0.00     0.026 A 
ATOM     19  C   UNL     1     -26.424 -14.196 116.339  1.00  0.00     0.002 A 
ATOM     20  C   UNL     1     -25.028 -12.579 115.283  1.00  0.00     0.002 A 
ATOM     21  C   UNL     1     -25.607 -13.088 116.416  1.00  0.00     0.000 A 
ENDBRANCH   9  16
ENDBRANCH   2   3
ENDBRANCH   1   2
BRANCH   1  22
ATOM     22  C   UNL     1     -24.807  -8.993 108.929  1.00  0.00     0.019 C 
BRANCH  22  23
ATOM     23  C   UNL     1     -25.668  -8.095 109.685  1.00  0.00     0.049 C 
BRANCH  23  24
ATOM     24  C   UNL     1     -26.243  -8.661 110.957  1.00  0.00    -0.040 A 
ATOM     25  C   UNL     1     -25.362  -8.863 111.996  1.00  0.00     0.007 A 
ATOM     26  C   UNL     1     -27.566  -8.989 111.088  1.00  0.00     0.007 A 
ATOM     27  C   UNL     1     -25.803  -9.398 113.180  1.00  0.00     0.039 A 
ATOM     28  C   UNL     1     -28.003  -9.522 112.271  1.00  0.00     0.039 A 
ATOM     29  C   UNL     1     -27.127  -9.737 113.342  1.00  0.00     0.123 A 
ATOM     30  F   UNL     1     -27.552 -10.265 114.517  1.00  0.00    -0.207 F 
ENDBRANCH  23  24
BRANCH  23  31
ATOM     31  C   UNL     1     -25.314  -6.696 109.860  1.00  0.00    -0.040 A 
ATOM     32  C   UNL     1     -24.053  -6.172 109.916  1.00  0.00     0.007 A 
ATOM     33  C   UNL     1     -26.396  -5.816 109.999  1.00  0.00     0.007 A 
ATOM     34  C   UNL     1     -23.901  -4.794 110.111  1.00  0.00     0.039 A 
ATOM     35  C   UNL     1     -26.261  -4.479 110.186  1.00  0.00     0.039 A 
ATOM     36  C   UNL     1     -24.986  -3.965 110.242  1.00  0.00     0.123 A 
ATOM     37  F   UNL     1     -24.866  -2.623 110.430  1.00  0.00    -0.207 F 
ENDBRANCH  23  31
ENDBRANCH  22  23
ENDBRANCH   1  22
TORSDOF 7
ENDMDL
MODEL 7
REMARK VINA RESULT:      -7.3      3.459      8.539
REMARK SMILES O=C1NCN(c2ccccc2)C12CC[NH+](CCCC(c1ccc(F)cc1)c1ccc(F)cc1)CC2
REMARK SMILES IDX 17 1 16 2 15 3 1 4 2 5 3 6 12 7 4 8 5 9 13 10 35 11 14 12
REMARK SMILES IDX 34 13 6 16 7 17 11 18 8 19 10 20 9 21 18 22 19 23 20 24
REMARK SMILES IDX 21 25 26 26 22 27 25 28 23 29 24 30 27 31 28 32 33 33 29 34
REMARK SMILES IDX 32 35 30 36 31 37
REMARK H PARENT 3 14 15 15
ROOT
ATOM      1  C   UNL     1     -26.159 -10.471 113.995  1.00  0.00     0.062 C 
ENDROOT
BRANCH   1   2
ATOM      2  C   UNL     1     -27.208  -9.812 113.148  1.00  0.00     0.262 C 
BRANCH   2   3
ATOM      3  N   UNL     1     -26.587  -9.132 112.018  1.00  0.00    -0.335 N 
ATOM      4  O   UNL     1     -23.981  -8.855 110.130  1.00  0.00    -0.272 OA
ATOM      5  C   UNL     1     -24.463  -7.785 109.702  1.00  0.00     0.247 C 
ATOM      6  N   UNL     1     -23.843  -6.964 108.744  1.00  0.00    -0.336 N 
ATOM      7  C   UNL     1     -25.782  -7.184 110.131  1.00  0.00     0.131 C 
ATOM      8  C   UNL     1     -24.873  -6.137 108.201  1.00  0.00     0.238 C 
ATOM      9  N   UNL     1     -25.823  -5.975 109.312  1.00  0.00    -0.339 N 
ATOM     10  C   UNL     1     -25.714  -6.872 111.612  1.00  0.00     0.100 C 
ATOM     11  C   UNL     1     -26.851  -8.168 109.815  1.00  0.00     0.100 C 
ATOM     12  C   UNL     1     -25.624  -8.135 112.437  1.00  0.00     0.265 C 
ATOM     13  C   UNL     1     -27.534  -8.609 111.068  1.00  0.00     0.265 C 
ATOM     14  H   UNL     1     -22.817  -6.978 108.495  1.00  0.00     0.165 HD
ATOM     15  H   UNL     1     -26.050  -9.884 111.534  1.00  0.00     0.348 HD
BRANCH   9  16
ATOM     16  C   UNL     1     -26.581  -4.786 109.462  1.00  0.00     0.039 A 
ATOM     17  C   UNL     1     -27.925  -4.760 109.175  1.00  0.00     0.026 A 
ATOM     18  C   UNL     1     -25.977  -3.654 109.917  1.00  0.00     0.026 A 
ATOM     19  C   UNL     1     -28.686  -3.598 109.339  1.00  0.00     0.002 A 
ATOM     20  C   UNL     1     -26.702  -2.507 110.083  1.00  0.00     0.002 A 
ATOM     21  C   UNL     1     -28.043  -2.469 109.801  1.00  0.00     0.000 A 
ENDBRANCH   9  16
ENDBRANCH   2   3
ENDBRANCH   1   2
BRANCH   1  22
ATOM     22  C   UNL     1     -25.165 -11.299 113.303  1.00  0.00     0.019 C 
BRANCH  22  23
ATOM     23  C   UNL     1     -25.153 -12.753 113.386  1.00  0.00     0.049 C 
BRANCH  23  24
ATOM     24  C   UNL     1     -25.447 -13.331 114.746  1.00  0.00    -0.040 A 
ATOM     25  C   UNL     1     -24.375 -13.835 115.447  1.00  0.00     0.007 A 
ATOM     26  C   UNL     1     -26.712 -13.385 115.267  1.00  0.00     0.007 A 
ATOM     27  C   UNL     1     -24.564 -14.400 116.683  1.00  0.00     0.039 A 
ATOM     28  C   UNL     1     -26.897 -13.949 116.500  1.00  0.00     0.039 A 
ATOM     29  C   UNL     1     -25.824 -14.468 117.234  1.00  0.00     0.123 A 
ATOM     30  F   UNL     1     -25.998 -15.030 118.457  1.00  0.00    -0.207 F 
ENDBRANCH  23  24
BRANCH  23  31
ATOM     31  C   UNL     1     -25.760 -13.563 112.343  1.00  0.00    -0.040 A 
ATOM     32  C   UNL     1     -26.137 -14.873 112.439  1.00  0.00     0.007 A 
ATOM     33  C   UNL     1     -25.951 -12.915 111.115  1.00  0.00     0.007 A 
ATOM     34  C   UNL     1     -26.692 -15.503 111.318  1.00  0.00     0.039 A 
ATOM     35  C   UNL     1     -26.488 -13.514 110.022  1.00  0.00     0.039 A 
ATOM     36  C   UNL     1     -26.863 -14.833 110.133  1.00  0.00     0.123 A 
ATOM     37  F   UNL     1     -27.400 -15.420 109.030  1.00  0.00    -0.207 F 
ENDBRANCH  23  31
ENDBRANCH  22  23
ENDBRANCH   1  22
TORSDOF 7
ENDMDL
MODEL 8
REMARK VINA RESULT:      -7.2      3.650      8.700
REMARK SMILES O=C1NCN(c2ccccc2)C12CC[NH+](CCCC(c1ccc(F)cc1)c1ccc(F)cc1)CC2
REMARK SMILES IDX 17 1 16 2 15 3 1 4 2 5 3 6 12 7 4 8 5 9 13 10 35 11 14 12
REMARK SMILES IDX 34 13 6 16 7 17 11 18 8 19 10 20 9 21 18 22 19 23 20 24
REMARK SMILES IDX 21 25 26 26 22 27 25 28 23 29 24 30 27 31 28 32 33 33 29 34
REMARK SMILES IDX 32 35 30 36 31 37
REMARK H PARENT 3 14 15 15
ROOT
ATOM      1  C   UNL     1     -26.409 -10.727 113.501  1.00  0.00     0.062 C 
ENDROOT
BRANCH   1   2
ATOM      2  C   UNL     1     -26.873  -9.303 113.414  1.00  0.00     0.262 C 
BRANCH   2   3
ATOM      3  N   UNL     1     -26.400  -8.695 112.176  1.00  0.00    -0.335 N 
ATOM      4  O   UNL     1     -23.967  -8.385 110.075  1.00  0.00    -0.272 OA
ATOM      5  C   UNL     1     -24.579  -7.416 109.580  1.00  0.00     0.247 C 
ATOM      6  N   UNL     1     -24.109  -6.650 108.499  1.00  0.00    -0.336 N 
ATOM      7  C   UNL     1     -25.920  -6.897 110.046  1.00  0.00     0.131 C 
ATOM      8  C   UNL     1     -25.251  -5.985 107.955  1.00  0.00     0.238 C 
ATOM      9  N   UNL     1     -26.136  -5.792 109.114  1.00  0.00    -0.339 N 
ATOM     10  C   UNL     1     -25.785  -6.421 111.478  1.00  0.00     0.100 C 
ATOM     11  C   UNL     1     -26.905  -8.003 109.914  1.00  0.00     0.100 C 
ATOM     12  C   UNL     1     -25.515  -7.573 112.417  1.00  0.00     0.265 C 
ATOM     13  C   UNL     1     -27.455  -8.367 111.254  1.00  0.00     0.265 C 
ATOM     14  H   UNL     1     -23.106  -6.596 108.175  1.00  0.00     0.165 HD
ATOM     15  H   UNL     1     -25.824  -9.442 111.731  1.00  0.00     0.348 HD
BRANCH   9  16
ATOM     16  C   UNL     1     -26.997  -4.668 109.201  1.00  0.00     0.039 A 
ATOM     17  C   UNL     1     -26.600  -3.518 109.840  1.00  0.00     0.026 A 
ATOM     18  C   UNL     1     -28.229  -4.716 108.624  1.00  0.00     0.026 A 
ATOM     19  C   UNL     1     -27.432  -2.397 109.914  1.00  0.00     0.002 A 
ATOM     20  C   UNL     1     -29.059  -3.630 108.685  1.00  0.00     0.002 A 
ATOM     21  C   UNL     1     -28.673  -2.478 109.320  1.00  0.00     0.000 A 
ENDBRANCH   9  16
ENDBRANCH   2   3
ENDBRANCH   1   2
BRANCH   1  22
ATOM     22  C   UNL     1     -25.010 -10.952 113.881  1.00  0.00     0.019 C 
BRANCH  22  23
ATOM     23  C   UNL     1     -24.441 -12.282 114.046  1.00  0.00     0.049 C 
BRANCH  23  24
ATOM     24  C   UNL     1     -24.970 -13.077 115.211  1.00  0.00    -0.040 A 
ATOM     25  C   UNL     1     -24.106 -13.985 115.782  1.00  0.00     0.007 A 
ATOM     26  C   UNL     1     -26.249 -12.939 115.679  1.00  0.00     0.007 A 
ATOM     27  C   UNL     1     -24.520 -14.765 116.832  1.00  0.00     0.039 A 
ATOM     28  C   UNL     1     -26.659 -13.719 116.727  1.00  0.00     0.039 A 
ATOM     29  C   UNL     1     -25.800 -14.648 117.325  1.00  0.00     0.123 A 
ATOM     30  F   UNL     1     -26.199 -15.425 118.364  1.00  0.00    -0.207 F 
ENDBRANCH  23  24
BRANCH  23  31
ATOM     31  C   UNL     1     -24.216 -13.143 112.897  1.00  0.00    -0.040 A 
ATOM     32  C   UNL     1     -23.061 -13.259 112.175  1.00  0.00     0.007 A 
ATOM     33  C   UNL     1     -25.317 -13.912 112.499  1.00  0.00     0.007 A 
ATOM     34  C   UNL     1     -23.032 -14.130 111.079  1.00  0.00     0.039 A 
ATOM     35  C   UNL     1     -25.301 -14.761 111.440  1.00  0.00     0.039 A 
ATOM     36  C   UNL     1     -24.133 -14.867 110.721  1.00  0.00     0.123 A 
ATOM     37  F   UNL     1     -24.132 -15.721 109.662  1.00  0.00    -0.207 F 
ENDBRANCH  23  31
ENDBRANCH  22  23
ENDBRANCH   1  22
TORSDOF 7
ENDMDL
MODEL 9
REMARK VINA RESULT:      -7.1      1.602      3.043
REMARK SMILES O=C1NCN(c2ccccc2)C12CC[NH+](CCCC(c1ccc(F)cc1)c1ccc(F)cc1)CC2
REMARK SMILES IDX 17 1 16 2 15 3 1 4 2 5 3 6 12 7 4 8 5 9 13 10 35 11 14 12
REMARK SMILES IDX 34 13 6 16 7 17 11 18 8 19 10 20 9 21 18 22 19 23 20 24
REMARK SMILES IDX 21 25 26 26 22 27 25 28 23 29 24 30 27 31 28 32 33 33 29 34
REMARK SMILES IDX 32 35 30 36 31 37
REMARK H PARENT 3 14 15 15
ROOT
ATOM      1  C   UNL     1     -24.862  -9.400 108.452  1.00  0.00     0.062 C 
ENDROOT
BRANCH   1   2
ATOM      2  C   UNL     1     -23.770 -10.338 108.876  1.00  0.00     0.262 C 
BRANCH   2   3
ATOM      3  N   UNL     1     -24.182 -11.087 110.058  1.00  0.00    -0.335 N 
ATOM      4  O   UNL     1     -23.708 -11.648 113.203  1.00  0.00    -0.272 OA
ATOM      5  C   UNL     1     -24.424 -12.664 113.082  1.00  0.00     0.247 C 
ATOM      6  N   UNL     1     -24.724 -13.552 114.130  1.00  0.00    -0.336 N 
ATOM      7  C   UNL     1     -25.089 -13.120 111.803  1.00  0.00     0.131 C 
ATOM      8  C   UNL     1     -25.891 -14.269 113.723  1.00  0.00     0.238 C 
ATOM      9  N   UNL     1     -25.783 -14.323 112.257  1.00  0.00    -0.339 N 
ATOM     10  C   UNL     1     -24.015 -13.428 110.780  1.00  0.00     0.100 C 
ATOM     11  C   UNL     1     -25.996 -12.031 111.352  1.00  0.00     0.100 C 
ATOM     12  C   UNL     1     -23.279 -12.177 110.361  1.00  0.00     0.265 C 
ATOM     13  C   UNL     1     -25.557 -11.513 110.021  1.00  0.00     0.265 C 
ATOM     14  H   UNL     1     -24.179 -13.648 115.029  1.00  0.00     0.165 HD
ATOM     15  H   UNL     1     -24.095 -10.398 110.837  1.00  0.00     0.348 HD
BRANCH   9  16
ATOM     16  C   UNL     1     -26.292 -15.425 111.524  1.00  0.00     0.039 A 
ATOM     17  C   UNL     1     -27.156 -15.239 110.471  1.00  0.00     0.026 A 
ATOM     18  C   UNL     1     -25.906 -16.689 111.851  1.00  0.00     0.026 A 
ATOM     19  C   UNL     1     -27.648 -16.317 109.729  1.00  0.00     0.002 A 
ATOM     20  C   UNL     1     -26.376 -17.757 111.138  1.00  0.00     0.002 A 
ATOM     21  C   UNL     1     -27.238 -17.583 110.086  1.00  0.00     0.000 A 
ENDBRANCH   9  16
ENDBRANCH   2   3
ENDBRANCH   1   2
BRANCH   1  22
ATOM     22  C   UNL     1     -24.716  -7.990 108.833  1.00  0.00     0.019 C 
BRANCH  22  23
ATOM     23  C   UNL     1     -25.705  -7.283 109.635  1.00  0.00     0.049 C 
BRANCH  23  24
ATOM     24  C   UNL     1     -26.162  -7.993 110.882  1.00  0.00    -0.040 A 
ATOM     25  C   UNL     1     -27.489  -8.355 110.936  1.00  0.00     0.007 A 
ATOM     26  C   UNL     1     -25.322  -8.254 111.932  1.00  0.00     0.007 A 
ATOM     27  C   UNL     1     -27.988  -8.984 112.048  1.00  0.00     0.039 A 
ATOM     28  C   UNL     1     -25.823  -8.883 113.040  1.00  0.00     0.039 A 
ATOM     29  C   UNL     1     -27.169  -9.261 113.119  1.00  0.00     0.123 A 
ATOM     30  F   UNL     1     -27.673  -9.884 114.215  1.00  0.00    -0.207 F 
ENDBRANCH  23  24
BRANCH  23  31
ATOM     31  C   UNL     1     -25.587  -5.854 109.873  1.00  0.00    -0.040 A 
ATOM     32  C   UNL     1     -26.606  -4.943 109.912  1.00  0.00     0.007 A 
ATOM     33  C   UNL     1     -24.281  -5.384 110.063  1.00  0.00     0.007 A 
ATOM     34  C   UNL     1     -26.301  -3.595 110.136  1.00  0.00     0.039 A 
ATOM     35  C   UNL     1     -23.973  -4.080 110.282  1.00  0.00     0.039 A 
ATOM     36  C   UNL     1     -25.007  -3.174 110.317  1.00  0.00     0.123 A 
ATOM     37  F   UNL     1     -24.685  -1.871 110.538  1.00  0.00    -0.207 F 
ENDBRANCH  23  31
ENDBRANCH  22  23
ENDBRANCH   1  22
TORSDOF 7
ENDMDL
