MODEL 1
REMARK VINA RESULT:      -6.4      0.000      0.000
REMARK SMILES CNCC[C@H](Oc1cccc2ccccc12)c1cccs1
REMARK SMILES IDX 4 1 3 2 2 3 1 4 5 6 6 7 7 8 8 9 16 10 9 11 15 12 11 13 10 14
REMARK SMILES IDX 14 15 12 16 13 17 17 18 18 19 21 20 19 21 20 22
REMARK H PARENT 2 5
ROOT
ATOM      1  C   UNL     1     -24.766 -11.398 114.316  1.00  0.00     0.066 C 
ENDROOT
BRANCH   1   2
ATOM      2  C   UNL     1     -25.159 -10.397 113.322  1.00  0.00     0.085 C 
BRANCH   2   3
ATOM      3  N   UNL     1     -24.858 -10.523 111.967  1.00  0.00    -0.320 NA
ATOM      4  C   UNL     1     -25.402  -9.650 111.008  1.00  0.00     0.101 C 
ATOM      5  H   UNL     1     -23.994 -10.982 111.675  1.00  0.00     0.122 HD
ENDBRANCH   2   3
ENDBRANCH   1   2
BRANCH   1   6
ATOM      6  C   UNL     1     -24.696 -12.840 113.992  1.00  0.00     0.215 C 
BRANCH   6   7
ATOM      7  O   UNL     1     -25.458 -13.312 112.930  1.00  0.00    -0.484 OA
BRANCH   7   8
ATOM      8  C   UNL     1     -24.982 -14.204 112.001  1.00  0.00     0.128 A 
ATOM      9  C   UNL     1     -23.889 -13.995 111.220  1.00  0.00     0.047 A 
ATOM     10  C   UNL     1     -25.690 -15.414 111.866  1.00  0.00     0.024 A 
ATOM     11  C   UNL     1     -23.498 -14.976 110.309  1.00  0.00     0.004 A 
ATOM     12  C   UNL     1     -26.802 -15.642 112.661  1.00  0.00     0.012 A 
ATOM     13  C   UNL     1     -25.318 -16.398 110.970  1.00  0.00    -0.015 A 
ATOM     14  C   UNL     1     -24.190 -16.154 110.180  1.00  0.00     0.009 A 
ATOM     15  C   UNL     1     -27.489 -16.829 112.532  1.00  0.00     0.001 A 
ATOM     16  C   UNL     1     -26.012 -17.583 110.847  1.00  0.00     0.009 A 
ATOM     17  C   UNL     1     -27.111 -17.804 111.634  1.00  0.00     0.001 A 
ENDBRANCH   7   8
ENDBRANCH   6   7
BRANCH   6  18
ATOM     18  C   UNL     1     -25.142 -13.553 115.260  1.00  0.00     0.045 A 
ATOM     19  C   UNL     1     -24.503 -14.456 116.030  1.00  0.00     0.019 A 
ATOM     20  S   UNL     1     -26.706 -13.359 116.083  1.00  0.00    -0.145 S 
ATOM     21  C   UNL     1     -25.087 -14.957 117.112  1.00  0.00     0.012 A 
ATOM     22  C   UNL     1     -26.356 -14.517 117.401  1.00  0.00     0.065 A 
ENDBRANCH   6  18
ENDBRANCH   1   6
TORSDOF 6
ENDMDL
MODEL 2
REMARK VINA RESULT:      -6.3      0.951      1.184
REMARK SMILES CNCC[C@H](Oc1cccc2ccccc12)c1cccs1
REMARK SMILES IDX 4 1 3 2 2 3 1 4 5 6 6 7 7 8 8 9 16 10 9 11 15 12 11 13 10 14
REMARK SMILES IDX 14 15 12 16 13 17 17 18 18 19 21 20 19 21 20 22
REMARK H PARENT 2 5
ROOT
ATOM      1  C   UNL     1     -24.626 -11.417 114.252  1.00  0.00     0.066 C 
ENDROOT
BRANCH   1   2
ATOM      2  C   UNL     1     -25.096 -10.409 113.300  1.00  0.00     0.085 C 
BRANCH   2   3
ATOM      3  N   UNL     1     -26.412 -10.355 112.848  1.00  0.00    -0.320 NA
ATOM      4  C   UNL     1     -27.363  -9.512 113.449  1.00  0.00     0.101 C 
ATOM      5  H   UNL     1     -26.634 -10.621 111.887  1.00  0.00     0.122 HD
ENDBRANCH   2   3
ENDBRANCH   1   2
BRANCH   1   6
ATOM      6  C   UNL     1     -24.697 -12.866 113.958  1.00  0.00     0.215 C 
BRANCH   6   7
ATOM      7  O   UNL     1     -25.425 -13.275 112.847  1.00  0.00    -0.484 OA
BRANCH   7   8
ATOM      8  C   UNL     1     -24.947 -14.172 111.923  1.00  0.00     0.128 A 
ATOM      9  C   UNL     1     -23.859 -13.962 111.136  1.00  0.00     0.047 A 
ATOM     10  C   UNL     1     -25.647 -15.389 111.803  1.00  0.00     0.024 A 
ATOM     11  C   UNL     1     -23.465 -14.948 110.231  1.00  0.00     0.004 A 
ATOM     12  C   UNL     1     -26.753 -15.617 112.605  1.00  0.00     0.012 A 
ATOM     13  C   UNL     1     -25.271 -16.378 110.913  1.00  0.00    -0.015 A 
ATOM     14  C   UNL     1     -24.149 -16.132 110.116  1.00  0.00     0.009 A 
ATOM     15  C   UNL     1     -27.432 -16.810 112.489  1.00  0.00     0.001 A 
ATOM     16  C   UNL     1     -25.958 -17.568 110.804  1.00  0.00     0.009 A 
ATOM     17  C   UNL     1     -27.052 -17.791 111.597  1.00  0.00     0.001 A 
ENDBRANCH   7   8
ENDBRANCH   6   7
BRANCH   6  18
ATOM     18  C   UNL     1     -25.315 -13.493 115.198  1.00  0.00     0.045 A 
ATOM     19  C   UNL     1     -26.581 -13.459 115.661  1.00  0.00     0.019 A 
ATOM     20  S   UNL     1     -24.472 -14.481 116.412  1.00  0.00    -0.145 S 
ATOM     21  C   UNL     1     -26.908 -14.088 116.784  1.00  0.00     0.012 A 
ATOM     22  C   UNL     1     -25.908 -14.764 117.439  1.00  0.00     0.065 A 
ENDBRANCH   6  18
ENDBRANCH   1   6
TORSDOF 6
ENDMDL
MODEL 3
REMARK VINA RESULT:      -6.3      1.386      1.550
REMARK SMILES CNCC[C@H](Oc1cccc2ccccc12)c1cccs1
REMARK SMILES IDX 4 1 3 2 2 3 1 4 5 6 6 7 7 8 8 9 16 10 9 11 15 12 11 13 10 14
REMARK SMILES IDX 14 15 12 16 13 17 17 18 18 19 21 20 19 21 20 22
REMARK H PARENT 2 5
ROOT
ATOM      1  C   UNL     1     -25.895 -11.798 113.798  1.00  0.00     0.066 C 
ENDROOT
BRANCH   1   2
ATOM      2  C   UNL     1     -25.612 -10.366 113.691  1.00  0.00     0.085 C 
BRANCH   2   3
ATOM      3  N   UNL     1     -24.860  -9.822 112.651  1.00  0.00    -0.320 NA
ATOM      4  C   UNL     1     -25.459  -9.408 111.448  1.00  0.00     0.101 C 
ATOM      5  H   UNL     1     -23.961  -9.379 112.847  1.00  0.00     0.122 HD
ENDBRANCH   2   3
ENDBRANCH   1   2
BRANCH   1   6
ATOM      6  C   UNL     1     -24.846 -12.781 114.149  1.00  0.00     0.215 C 
BRANCH   6   7
ATOM      7  O   UNL     1     -24.500 -13.738 113.202  1.00  0.00    -0.484 OA
BRANCH   7   8
ATOM      8  C   UNL     1     -25.114 -13.841 111.978  1.00  0.00     0.128 A 
ATOM      9  C   UNL     1     -24.891 -13.004 110.930  1.00  0.00     0.047 A 
ATOM     10  C   UNL     1     -26.033 -14.897 111.820  1.00  0.00     0.024 A 
ATOM     11  C   UNL     1     -25.575 -13.208 109.731  1.00  0.00     0.004 A 
ATOM     12  C   UNL     1     -26.264 -15.761 112.878  1.00  0.00     0.012 A 
ATOM     13  C   UNL     1     -26.719 -15.115 110.640  1.00  0.00    -0.015 A 
ATOM     14  C   UNL     1     -26.470 -14.237 109.580  1.00  0.00     0.009 A 
ATOM     15  C   UNL     1     -27.159 -16.795 112.718  1.00  0.00     0.001 A 
ATOM     16  C   UNL     1     -27.614 -16.153 110.489  1.00  0.00     0.009 A 
ATOM     17  C   UNL     1     -27.840 -17.004 111.538  1.00  0.00     0.001 A 
ENDBRANCH   7   8
ENDBRANCH   6   7
BRANCH   6  18
ATOM     18  C   UNL     1     -25.369 -13.494 115.387  1.00  0.00     0.045 A 
ATOM     19  C   UNL     1     -26.603 -13.521 115.928  1.00  0.00     0.019 A 
ATOM     20  S   UNL     1     -24.426 -14.526 116.486  1.00  0.00    -0.145 S 
ATOM     21  C   UNL     1     -26.843 -14.222 117.031  1.00  0.00     0.012 A 
ATOM     22  C   UNL     1     -25.787 -14.906 117.582  1.00  0.00     0.065 A 
ENDBRANCH   6  18
ENDBRANCH   1   6
TORSDOF 6
ENDMDL
MODEL 4
REMARK VINA RESULT:      -6.3      1.362      1.489
REMARK SMILES CNCC[C@H](Oc1cccc2ccccc12)c1cccs1
REMARK SMILES IDX 4 1 3 2 2 3 1 4 5 6 6 7 7 8 8 9 16 10 9 11 15 12 11 13 10 14
REMARK SMILES IDX 14 15 12 16 13 17 17 18 18 19 21 20 19 21 20 22
REMARK H PARENT 2 5
ROOT
ATOM      1  C   UNL     1     -25.496 -11.742 113.737  1.00  0.00     0.066 C 
ENDROOT
BRANCH   1   2
ATOM      2  C   UNL     1     -25.078 -10.379 113.401  1.00  0.00     0.085 C 
BRANCH   2   3
ATOM      3  N   UNL     1     -25.961  -9.302 113.388  1.00  0.00    -0.320 NA
ATOM      4  C   UNL     1     -27.354  -9.492 113.339  1.00  0.00     0.101 C 
ATOM      5  H   UNL     1     -25.674  -8.400 113.771  1.00  0.00     0.122 HD
ENDBRANCH   2   3
ENDBRANCH   1   2
BRANCH   1   6
ATOM      6  C   UNL     1     -24.518 -12.804 114.060  1.00  0.00     0.215 C 
BRANCH   6   7
ATOM      7  O   UNL     1     -24.261 -13.775 113.099  1.00  0.00    -0.484 OA
BRANCH   7   8
ATOM      8  C   UNL     1     -24.962 -13.870 111.921  1.00  0.00     0.128 A 
ATOM      9  C   UNL     1     -24.783 -13.055 110.849  1.00  0.00     0.047 A 
ATOM     10  C   UNL     1     -25.927 -14.894 111.842  1.00  0.00     0.024 A 
ATOM     11  C   UNL     1     -25.555 -13.248 109.703  1.00  0.00     0.004 A 
ATOM     12  C   UNL     1     -26.114 -15.736 112.927  1.00  0.00     0.012 A 
ATOM     13  C   UNL     1     -26.700 -15.101 110.716  1.00  0.00    -0.015 A 
ATOM     14  C   UNL     1     -26.494 -14.246 109.628  1.00  0.00     0.009 A 
ATOM     15  C   UNL     1     -27.054 -16.739 112.844  1.00  0.00     0.001 A 
ATOM     16  C   UNL     1     -27.639 -16.108 110.643  1.00  0.00     0.009 A 
ATOM     17  C   UNL     1     -27.822 -16.938 111.717  1.00  0.00     0.001 A 
ENDBRANCH   7   8
ENDBRANCH   6   7
BRANCH   6  18
ATOM     18  C   UNL     1     -25.073 -13.489 115.300  1.00  0.00     0.045 A 
ATOM     19  C   UNL     1     -24.516 -14.400 116.123  1.00  0.00     0.019 A 
ATOM     20  S   UNL     1     -26.685 -13.241 116.009  1.00  0.00    -0.145 S 
ATOM     21  C   UNL     1     -25.190 -14.871 117.166  1.00  0.00     0.012 A 
ATOM     22  C   UNL     1     -26.463 -14.392 117.360  1.00  0.00     0.065 A 
ENDBRANCH   6  18
ENDBRANCH   1   6
TORSDOF 6
ENDMDL
MODEL 5
REMARK VINA RESULT:      -6.0      1.364      1.438
REMARK SMILES CNCC[C@H](Oc1cccc2ccccc12)c1cccs1
REMARK SMILES IDX 4 1 3 2 2 3 1 4 5 6 6 7 7 8 8 9 16 10 9 11 15 12 11 13 10 14
REMARK SMILES IDX 14 15 12 16 13 17 17 18 18 19 21 20 19 21 20 22
REMARK H PARENT 2 5
ROOT
ATOM      1  C   UNL     1     -24.140 -12.589 113.697  1.00  0.00     0.066 C 
ENDROOT
BRANCH   1   2
ATOM      2  C   UNL     1     -24.647 -11.320 114.225  1.00  0.00     0.085 C 
BRANCH   2   3
ATOM      3  N   UNL     1     -24.778 -10.176 113.441  1.00  0.00    -0.320 NA
ATOM      4  C   UNL     1     -25.439 -10.207 112.200  1.00  0.00     0.101 C 
ATOM      5  H   UNL     1     -24.738  -9.252 113.873  1.00  0.00     0.122 HD
ENDBRANCH   2   3
ENDBRANCH   1   2
BRANCH   1   6
ATOM      6  C   UNL     1     -24.973 -13.812 113.661  1.00  0.00     0.215 C 
BRANCH   6   7
ATOM      7  O   UNL     1     -26.168 -13.771 112.954  1.00  0.00    -0.484 OA
BRANCH   7   8
ATOM      8  C   UNL     1     -26.288 -14.199 111.654  1.00  0.00     0.128 A 
ATOM      9  C   UNL     1     -25.979 -13.449 110.563  1.00  0.00     0.047 A 
ATOM     10  C   UNL     1     -26.764 -15.511 111.463  1.00  0.00     0.024 A 
ATOM     11  C   UNL     1     -26.140 -13.992 109.288  1.00  0.00     0.004 A 
ATOM     12  C   UNL     1     -27.076 -16.288 112.567  1.00  0.00     0.012 A 
ATOM     13  C   UNL     1     -26.929 -16.067 110.208  1.00  0.00    -0.015 A 
ATOM     14  C   UNL     1     -26.604 -15.271 109.105  1.00  0.00     0.009 A 
ATOM     15  C   UNL     1     -27.535 -17.572 112.377  1.00  0.00     0.001 A 
ATOM     16  C   UNL     1     -27.391 -17.353 110.028  1.00  0.00     0.009 A 
ATOM     17  C   UNL     1     -27.699 -18.118 111.122  1.00  0.00     0.001 A 
ENDBRANCH   7   8
ENDBRANCH   6   7
BRANCH   6  18
ATOM     18  C   UNL     1     -25.284 -14.122 115.117  1.00  0.00     0.045 A 
ATOM     19  C   UNL     1     -24.515 -14.663 116.083  1.00  0.00     0.019 A 
ATOM     20  S   UNL     1     -26.828 -13.830 115.950  1.00  0.00    -0.145 S 
ATOM     21  C   UNL     1     -24.997 -14.847 117.308  1.00  0.00     0.012 A 
ATOM     22  C   UNL     1     -26.296 -14.465 117.535  1.00  0.00     0.065 A 
ENDBRANCH   6  18
ENDBRANCH   1   6
TORSDOF 6
ENDMDL
MODEL 6
REMARK VINA RESULT:      -6.0      2.533      5.003
REMARK SMILES CNCC[C@H](Oc1cccc2ccccc12)c1cccs1
REMARK SMILES IDX 4 1 3 2 2 3 1 4 5 6 6 7 7 8 8 9 16 10 9 11 15 12 11 13 10 14
REMARK SMILES IDX 14 15 12 16 13 17 17 18 18 19 21 20 19 21 20 22
REMARK H PARENT 2 5
ROOT
ATOM      1  C   UNL     1     -26.548 -16.481 113.497  1.00  0.00     0.066 C 
ENDROOT
BRANCH   1   2
ATOM      2  C   UNL     1     -27.208 -16.963 112.282  1.00  0.00     0.085 C 
BRANCH   2   3
ATOM      3  N   UNL     1     -27.465 -18.312 112.049  1.00  0.00    -0.320 NA
ATOM      4  C   UNL     1     -28.750 -18.857 112.223  1.00  0.00     0.101 C 
ATOM      5  H   UNL     1     -26.864 -18.847 111.421  1.00  0.00     0.122 HD
ENDBRANCH   2   3
ENDBRANCH   1   2
BRANCH   1   6
ATOM      6  C   UNL     1     -26.373 -15.038 113.774  1.00  0.00     0.215 C 
BRANCH   6   7
ATOM      7  O   UNL     1     -25.291 -14.385 113.195  1.00  0.00    -0.484 OA
BRANCH   7   8
ATOM      8  C   UNL     1     -25.224 -13.021 113.052  1.00  0.00     0.128 A 
ATOM      9  C   UNL     1     -24.783 -12.166 114.012  1.00  0.00     0.047 A 
ATOM     10  C   UNL     1     -25.645 -12.494 111.815  1.00  0.00     0.024 A 
ATOM     11  C   UNL     1     -24.759 -10.795 113.752  1.00  0.00     0.004 A 
ATOM     12  C   UNL     1     -26.091 -13.356 110.826  1.00  0.00     0.012 A 
ATOM     13  C   UNL     1     -25.628 -11.140 111.539  1.00  0.00    -0.015 A 
ATOM     14  C   UNL     1     -25.169 -10.285 112.547  1.00  0.00     0.009 A 
ATOM     15  C   UNL     1     -26.496 -12.838 109.616  1.00  0.00     0.001 A 
ATOM     16  C   UNL     1     -26.036 -10.631 110.325  1.00  0.00     0.009 A 
ATOM     17  C   UNL     1     -26.477 -11.486 109.350  1.00  0.00     0.001 A 
ENDBRANCH   7   8
ENDBRANCH   6   7
BRANCH   6  18
ATOM     18  C   UNL     1     -26.243 -14.937 115.286  1.00  0.00     0.045 A 
ATOM     19  C   UNL     1     -26.951 -14.221 116.182  1.00  0.00     0.019 A 
ATOM     20  S   UNL     1     -25.057 -15.790 116.301  1.00  0.00    -0.145 S 
ATOM     21  C   UNL     1     -26.664 -14.285 117.478  1.00  0.00     0.012 A 
ATOM     22  C   UNL     1     -25.626 -15.103 117.851  1.00  0.00     0.065 A 
ENDBRANCH   6  18
ENDBRANCH   1   6
TORSDOF 6
ENDMDL
MODEL 7
REMARK VINA RESULT:      -5.9      0.908      2.339
REMARK SMILES CNCC[C@H](Oc1cccc2ccccc12)c1cccs1
REMARK SMILES IDX 4 1 3 2 2 3 1 4 5 6 6 7 7 8 8 9 16 10 9 11 15 12 11 13 10 14
REMARK SMILES IDX 14 15 12 16 13 17 17 18 18 19 21 20 19 21 20 22
REMARK H PARENT 2 5
ROOT
ATOM      1  C   UNL     1     -24.886 -11.891 114.095  1.00  0.00     0.066 C 
ENDROOT
BRANCH   1   2
ATOM      2  C   UNL     1     -25.022 -10.953 112.979  1.00  0.00     0.085 C 
BRANCH   2   3
ATOM      3  N   UNL     1     -24.895  -9.575 113.134  1.00  0.00    -0.320 NA
ATOM      4  C   UNL     1     -25.908  -8.691 112.722  1.00  0.00     0.101 C 
ATOM      5  H   UNL     1     -24.271  -9.195 113.847  1.00  0.00     0.122 HD
ENDBRANCH   2   3
ENDBRANCH   1   2
BRANCH   1   6
ATOM      6  C   UNL     1     -24.999 -13.355 113.909  1.00  0.00     0.215 C 
BRANCH   6   7
ATOM      7  O   UNL     1     -25.966 -13.831 113.030  1.00  0.00    -0.484 OA
BRANCH   7   8
ATOM      8  C   UNL     1     -26.042 -15.144 112.635  1.00  0.00     0.128 A 
ATOM      9  C   UNL     1     -26.712 -16.115 113.310  1.00  0.00     0.047 A 
ATOM     10  C   UNL     1     -25.372 -15.485 111.444  1.00  0.00     0.024 A 
ATOM     11  C   UNL     1     -26.721 -17.418 112.811  1.00  0.00     0.004 A 
ATOM     12  C   UNL     1     -24.690 -14.503 110.743  1.00  0.00     0.012 A 
ATOM     13  C   UNL     1     -25.369 -16.769 110.934  1.00  0.00    -0.015 A 
ATOM     14  C   UNL     1     -26.067 -17.747 111.651  1.00  0.00     0.009 A 
ATOM     15  C   UNL     1     -24.041 -14.838 109.576  1.00  0.00     0.001 A 
ATOM     16  C   UNL     1     -24.716 -17.096 109.764  1.00  0.00     0.009 A 
ATOM     17  C   UNL     1     -24.043 -16.122 109.075  1.00  0.00     0.001 A 
ENDBRANCH   7   8
ENDBRANCH   6   7
BRANCH   6  18
ATOM     18  C   UNL     1     -25.292 -13.910 115.294  1.00  0.00     0.045 A 
ATOM     19  C   UNL     1     -24.568 -14.729 116.082  1.00  0.00     0.019 A 
ATOM     20  S   UNL     1     -26.744 -13.595 116.271  1.00  0.00    -0.145 S 
ATOM     21  C   UNL     1     -25.019 -15.093 117.277  1.00  0.00     0.012 A 
ATOM     22  C   UNL     1     -26.242 -14.600 117.662  1.00  0.00     0.065 A 
ENDBRANCH   6  18
ENDBRANCH   1   6
TORSDOF 6
ENDMDL
MODEL 8
REMARK VINA RESULT:      -5.9      1.620      1.755
REMARK SMILES CNCC[C@H](Oc1cccc2ccccc12)c1cccs1
REMARK SMILES IDX 4 1 3 2 2 3 1 4 5 6 6 7 7 8 8 9 16 10 9 11 15 12 11 13 10 14
REMARK SMILES IDX 14 15 12 16 13 17 17 18 18 19 21 20 19 21 20 22
REMARK H PARENT 2 5
ROOT
ATOM      1  C   UNL     1     -24.376 -12.502 113.008  1.00  0.00     0.066 C 
ENDROOT
BRANCH   1   2
ATOM      2  C   UNL     1     -24.868 -11.255 112.417  1.00  0.00     0.085 C 
BRANCH   2   3
ATOM      3  N   UNL     1     -24.882 -10.047 113.111  1.00  0.00    -0.320 NA
ATOM      4  C   UNL     1     -25.573  -8.925 112.620  1.00  0.00     0.101 C 
ATOM      5  H   UNL     1     -24.721 -10.034 114.119  1.00  0.00     0.122 HD
ENDBRANCH   2   3
ENDBRANCH   1   2
BRANCH   1   6
ATOM      6  C   UNL     1     -25.217 -13.717 113.089  1.00  0.00     0.215 C 
BRANCH   6   7
ATOM      7  O   UNL     1     -26.348 -13.786 112.284  1.00  0.00    -0.484 OA
BRANCH   7   8
ATOM      8  C   UNL     1     -26.370 -14.431 111.072  1.00  0.00     0.128 A 
ATOM      9  C   UNL     1     -25.952 -13.885 109.899  1.00  0.00     0.047 A 
ATOM     10  C   UNL     1     -26.861 -15.752 111.067  1.00  0.00     0.024 A 
ATOM     11  C   UNL     1     -26.020 -14.638 108.727  1.00  0.00     0.004 A 
ATOM     12  C   UNL     1     -27.284 -16.322 112.257  1.00  0.00     0.012 A 
ATOM     13  C   UNL     1     -26.937 -16.514 109.917  1.00  0.00    -0.015 A 
ATOM     14  C   UNL     1     -26.500 -15.923 108.726  1.00  0.00     0.009 A 
ATOM     15  C   UNL     1     -27.759 -17.615 112.251  1.00  0.00     0.001 A 
ATOM     16  C   UNL     1     -27.414 -17.807 109.920  1.00  0.00     0.009 A 
ATOM     17  C   UNL     1     -27.832 -18.367 111.098  1.00  0.00     0.001 A 
ENDBRANCH   7   8
ENDBRANCH   6   7
BRANCH   6  18
ATOM     18  C   UNL     1     -25.653 -13.801 114.543  1.00  0.00     0.045 A 
ATOM     19  C   UNL     1     -25.844 -12.832 115.460  1.00  0.00     0.019 A 
ATOM     20  S   UNL     1     -26.041 -15.285 115.443  1.00  0.00    -0.145 S 
ATOM     21  C   UNL     1     -26.235 -13.133 116.693  1.00  0.00     0.012 A 
ATOM     22  C   UNL     1     -26.430 -14.462 116.982  1.00  0.00     0.065 A 
ENDBRANCH   6  18
ENDBRANCH   1   6
TORSDOF 6
ENDMDL
MODEL 9
REMARK VINA RESULT:      -5.8      1.316      2.607
REMARK SMILES CNCC[C@H](Oc1cccc2ccccc12)c1cccs1
REMARK SMILES IDX 4 1 3 2 2 3 1 4 5 6 6 7 7 8 8 9 16 10 9 11 15 12 11 13 10 14
REMARK SMILES IDX 14 15 12 16 13 17 17 18 18 19 21 20 19 21 20 22
REMARK H PARENT 2 5
ROOT
ATOM      1  C   UNL     1     -25.726 -11.931 113.955  1.00  0.00     0.066 C 
ENDROOT
BRANCH   1   2
ATOM      2  C   UNL     1     -25.442 -10.569 113.496  1.00  0.00     0.085 C 
BRANCH   2   3
ATOM      3  N   UNL     1     -24.784 -10.300 112.298  1.00  0.00    -0.320 NA
ATOM      4  C   UNL     1     -25.439  -9.674 111.223  1.00  0.00     0.101 C 
ATOM      5  H   UNL     1     -23.767 -10.206 112.283  1.00  0.00     0.122 HD
ENDBRANCH   2   3
ENDBRANCH   1   2
BRANCH   1   6
ATOM      6  C   UNL     1     -24.648 -12.908 114.225  1.00  0.00     0.215 C 
BRANCH   6   7
ATOM      7  O   UNL     1     -24.366 -13.858 113.250  1.00  0.00    -0.484 OA
BRANCH   7   8
ATOM      8  C   UNL     1     -25.336 -14.484 112.506  1.00  0.00     0.128 A 
ATOM      9  C   UNL     1     -26.272 -15.329 113.014  1.00  0.00     0.047 A 
ATOM     10  C   UNL     1     -25.343 -14.214 111.124  1.00  0.00     0.024 A 
ATOM     11  C   UNL     1     -27.211 -15.906 112.159  1.00  0.00     0.004 A 
ATOM     12  C   UNL     1     -24.398 -13.350 110.595  1.00  0.00     0.012 A 
ATOM     13  C   UNL     1     -26.266 -14.776 110.261  1.00  0.00    -0.015 A 
ATOM     14  C   UNL     1     -27.216 -15.642 110.813  1.00  0.00     0.009 A 
ATOM     15  C   UNL     1     -24.412 -13.084 109.244  1.00  0.00     0.001 A 
ATOM     16  C   UNL     1     -26.271 -14.505 108.910  1.00  0.00     0.009 A 
ATOM     17  C   UNL     1     -25.335 -13.650 108.391  1.00  0.00     0.001 A 
ENDBRANCH   7   8
ENDBRANCH   6   7
BRANCH   6  18
ATOM     18  C   UNL     1     -25.077 -13.631 115.493  1.00  0.00     0.045 A 
ATOM     19  C   UNL     1     -24.422 -14.530 116.255  1.00  0.00     0.019 A 
ATOM     20  S   UNL     1     -26.636 -13.456 116.329  1.00  0.00    -0.145 S 
ATOM     21  C   UNL     1     -24.993 -15.041 117.340  1.00  0.00     0.012 A 
ATOM     22  C   UNL     1     -26.264 -14.615 117.640  1.00  0.00     0.065 A 
ENDBRANCH   6  18
ENDBRANCH   1   6
TORSDOF 6
ENDMDL
