MODEL 1
REMARK VINA RESULT:      -8.4      0.000      0.000
REMARK SMILES Clc1ccccc1C(c1ccccc1)(c1ccccc1)n1ccnc1
REMARK SMILES IDX 1 1 2 2 3 3 4 4 5 5 6 6 7 7 8 8 9 9 10 10 14 11 11 12 13 13
REMARK SMILES IDX 12 14 15 15 16 16 20 17 17 18 19 19 18 20 21 21 22 22 25 23
REMARK SMILES IDX 23 24 24 25
REMARK H PARENT
ROOT
ATOM      1  Cl  UNL     1      87.212  54.615  43.281  1.00  0.00    -0.084 Cl
ATOM      2  C   UNL     1      86.177  54.160  44.616  1.00  0.00     0.047 A 
ATOM      3  C   UNL     1      86.283  54.764  45.848  1.00  0.00     0.021 A 
ATOM      4  C   UNL     1      85.449  54.431  46.893  1.00  0.00     0.002 A 
ATOM      5  C   UNL     1      84.495  53.468  46.674  1.00  0.00     0.001 A 
ATOM      6  C   UNL     1      84.388  52.854  45.419  1.00  0.00     0.008 A 
ATOM      7  C   UNL     1      85.216  53.187  44.393  1.00  0.00     0.006 A 
ENDROOT
BRANCH   7   8
ATOM      8  C   UNL     1      85.101  52.503  43.076  1.00  0.00     0.123 C 
BRANCH   8   9
ATOM      9  C   UNL     1      84.019  51.484  43.185  1.00  0.00    -0.013 A 
ATOM     10  C   UNL     1      84.089  50.324  43.886  1.00  0.00     0.007 A 
ATOM     11  C   UNL     1      82.834  51.805  42.496  1.00  0.00     0.007 A 
ATOM     12  C   UNL     1      82.994  49.478  43.910  1.00  0.00     0.000 A 
ATOM     13  C   UNL     1      81.754  50.961  42.525  1.00  0.00     0.000 A 
ATOM     14  C   UNL     1      81.814  49.784  43.232  1.00  0.00     0.000 A 
ENDBRANCH   8   9
BRANCH   8  15
ATOM     15  C   UNL     1      86.317  51.702  42.775  1.00  0.00    -0.013 A 
ATOM     16  C   UNL     1      86.648  51.278  41.515  1.00  0.00     0.007 A 
ATOM     17  C   UNL     1      87.167  51.389  43.806  1.00  0.00     0.007 A 
ATOM     18  C   UNL     1      87.803  50.550  41.259  1.00  0.00     0.000 A 
ATOM     19  C   UNL     1      88.341  50.654  43.572  1.00  0.00     0.000 A 
ATOM     20  C   UNL     1      88.643  50.244  42.303  1.00  0.00     0.000 A 
ENDBRANCH   8  15
BRANCH   8  21
ATOM     21  N   UNL     1      84.889  53.466  42.036  1.00  0.00    -0.319 N 
ATOM     22  C   UNL     1      84.164  54.614  42.147  1.00  0.00     0.109 A 
ATOM     23  C   UNL     1      85.371  53.431  40.795  1.00  0.00     0.200 A 
ATOM     24  C   UNL     1      84.206  55.288  40.947  1.00  0.00     0.131 A 
ATOM     25  N   UNL     1      84.950  54.544  40.138  1.00  0.00    -0.245 NA
ENDBRANCH   8  21
ENDBRANCH   7   8
TORSDOF 4
ENDMDL
MODEL 2
REMARK VINA RESULT:      -8.3      1.164      4.326
REMARK SMILES Clc1ccccc1C(c1ccccc1)(c1ccccc1)n1ccnc1
REMARK SMILES IDX 1 1 2 2 3 3 4 4 5 5 6 6 7 7 8 8 9 9 10 10 14 11 11 12 13 13
REMARK SMILES IDX 12 14 15 15 16 16 20 17 17 18 19 19 18 20 21 21 22 22 25 23
REMARK SMILES IDX 23 24 24 25
REMARK H PARENT
ROOT
ATOM      1  Cl  UNL     1      87.632  54.491  43.220  1.00  0.00    -0.084 Cl
ATOM      2  C   UNL     1      87.590  52.914  42.464  1.00  0.00     0.047 A 
ATOM      3  C   UNL     1      88.692  52.391  41.826  1.00  0.00     0.021 A 
ATOM      4  C   UNL     1      88.673  51.136  41.258  1.00  0.00     0.002 A 
ATOM      5  C   UNL     1      87.512  50.408  41.343  1.00  0.00     0.001 A 
ATOM      6  C   UNL     1      86.391  50.941  41.992  1.00  0.00     0.008 A 
ATOM      7  C   UNL     1      86.417  52.182  42.550  1.00  0.00     0.006 A 
ENDROOT
BRANCH   7   8
ATOM      8  C   UNL     1      85.206  52.738  43.213  1.00  0.00     0.123 C 
BRANCH   8   9
ATOM      9  C   UNL     1      85.445  52.725  44.684  1.00  0.00    -0.013 A 
ATOM     10  C   UNL     1      86.517  52.177  45.309  1.00  0.00     0.007 A 
ATOM     11  C   UNL     1      84.449  53.363  45.449  1.00  0.00     0.007 A 
ATOM     12  C   UNL     1      86.612  52.255  46.687  1.00  0.00     0.000 A 
ATOM     13  C   UNL     1      84.552  53.436  46.814  1.00  0.00     0.000 A 
ATOM     14  C   UNL     1      85.634  52.884  47.457  1.00  0.00     0.000 A 
ENDBRANCH   8   9
BRANCH   8  15
ATOM     15  C   UNL     1      84.033  51.842  43.034  1.00  0.00    -0.013 A 
ATOM     16  C   UNL     1      83.827  50.712  43.780  1.00  0.00     0.007 A 
ATOM     17  C   UNL     1      83.094  52.174  42.090  1.00  0.00     0.007 A 
ATOM     18  C   UNL     1      82.709  49.905  43.607  1.00  0.00     0.000 A 
ATOM     19  C   UNL     1      81.955  51.373  41.896  1.00  0.00     0.000 A 
ATOM     20  C   UNL     1      81.778  50.251  42.657  1.00  0.00     0.000 A 
ENDBRANCH   8  15
BRANCH   8  21
ATOM     21  N   UNL     1      84.907  54.036  42.684  1.00  0.00    -0.319 N 
ATOM     22  C   UNL     1      84.565  55.135  43.412  1.00  0.00     0.109 A 
ATOM     23  C   UNL     1      84.927  54.410  41.405  1.00  0.00     0.200 A 
ATOM     24  C   UNL     1      84.373  56.198  42.558  1.00  0.00     0.131 A 
ATOM     25  N   UNL     1      84.601  55.728  41.337  1.00  0.00    -0.245 NA
ENDBRANCH   8  21
ENDBRANCH   7   8
TORSDOF 4
ENDMDL
MODEL 3
REMARK VINA RESULT:      -8.3      1.120      4.035
REMARK SMILES Clc1ccccc1C(c1ccccc1)(c1ccccc1)n1ccnc1
REMARK SMILES IDX 1 1 2 2 3 3 4 4 5 5 6 6 7 7 8 8 9 9 10 10 14 11 11 12 13 13
REMARK SMILES IDX 12 14 15 15 16 16 20 17 17 18 19 19 18 20 21 21 22 22 25 23
REMARK SMILES IDX 23 24 24 25
REMARK H PARENT
ROOT
ATOM      1  Cl  UNL     1      87.212  54.410  43.200  1.00  0.00    -0.084 Cl
ATOM      2  C   UNL     1      86.209  54.020  44.579  1.00  0.00     0.047 A 
ATOM      3  C   UNL     1      86.334  54.690  45.774  1.00  0.00     0.021 A 
ATOM      4  C   UNL     1      85.524  54.407  46.853  1.00  0.00     0.002 A 
ATOM      5  C   UNL     1      84.574  53.427  46.705  1.00  0.00     0.001 A 
ATOM      6  C   UNL     1      84.447  52.745  45.488  1.00  0.00     0.008 A 
ATOM      7  C   UNL     1      85.252  53.029  44.428  1.00  0.00     0.006 A 
ENDROOT
BRANCH   7   8
ATOM      8  C   UNL     1      85.116  52.274  43.153  1.00  0.00     0.123 C 
BRANCH   8   9
ATOM      9  C   UNL     1      84.796  53.253  42.075  1.00  0.00    -0.013 A 
ATOM     10  C   UNL     1      85.152  53.142  40.771  1.00  0.00     0.007 A 
ATOM     11  C   UNL     1      84.045  54.368  42.494  1.00  0.00     0.007 A 
ATOM     12  C   UNL     1      84.770  54.126  39.876  1.00  0.00     0.000 A 
ATOM     13  C   UNL     1      83.670  55.338  41.601  1.00  0.00     0.000 A 
ATOM     14  C   UNL     1      84.026  55.235  40.278  1.00  0.00     0.000 A 
ENDBRANCH   8   9
BRANCH   8  15
ATOM     15  C   UNL     1      83.931  51.375  43.181  1.00  0.00    -0.013 A 
ATOM     16  C   UNL     1      82.747  51.670  42.557  1.00  0.00     0.007 A 
ATOM     17  C   UNL     1      84.032  50.179  43.844  1.00  0.00     0.007 A 
ATOM     18  C   UNL     1      81.663  50.800  42.580  1.00  0.00     0.000 A 
ATOM     19  C   UNL     1      82.950  49.284  43.882  1.00  0.00     0.000 A 
ATOM     20  C   UNL     1      81.781  49.606  43.250  1.00  0.00     0.000 A 
ENDBRANCH   8  15
BRANCH   8  21
ATOM     21  N   UNL     1      86.299  51.504  42.906  1.00  0.00    -0.319 N 
ATOM     22  C   UNL     1      87.183  51.075  43.849  1.00  0.00     0.109 A 
ATOM     23  C   UNL     1      86.736  51.052  41.731  1.00  0.00     0.200 A 
ATOM     24  C   UNL     1      88.178  50.349  43.234  1.00  0.00     0.131 A 
ATOM     25  N   UNL     1      87.882  50.350  41.939  1.00  0.00    -0.245 NA
ENDBRANCH   8  21
ENDBRANCH   7   8
TORSDOF 4
ENDMDL
MODEL 4
REMARK VINA RESULT:      -8.3      1.868      4.408
REMARK SMILES Clc1ccccc1C(c1ccccc1)(c1ccccc1)n1ccnc1
REMARK SMILES IDX 1 1 2 2 3 3 4 4 5 5 6 6 7 7 8 8 9 9 10 10 14 11 11 12 13 13
REMARK SMILES IDX 12 14 15 15 16 16 20 17 17 18 19 19 18 20 21 21 22 22 25 23
REMARK SMILES IDX 23 24 24 25
REMARK H PARENT
ROOT
ATOM      1  Cl  UNL     1      85.089  53.634  40.722  1.00  0.00    -0.084 Cl
ATOM      2  C   UNL     1      84.133  52.585  41.745  1.00  0.00     0.047 A 
ATOM      3  C   UNL     1      82.920  52.085  41.331  1.00  0.00     0.021 A 
ATOM      4  C   UNL     1      82.180  51.232  42.121  1.00  0.00     0.002 A 
ATOM      5  C   UNL     1      82.687  50.889  43.350  1.00  0.00     0.001 A 
ATOM      6  C   UNL     1      83.922  51.399  43.771  1.00  0.00     0.008 A 
ATOM      7  C   UNL     1      84.647  52.241  42.985  1.00  0.00     0.006 A 
ENDROOT
BRANCH   7   8
ATOM      8  C   UNL     1      85.944  52.791  43.464  1.00  0.00     0.123 C 
BRANCH   8   9
ATOM      9  C   UNL     1      87.018  52.268  42.573  1.00  0.00    -0.013 A 
ATOM     10  C   UNL     1      88.135  52.940  42.198  1.00  0.00     0.007 A 
ATOM     11  C   UNL     1      86.817  50.952  42.117  1.00  0.00     0.007 A 
ATOM     12  C   UNL     1      89.057  52.319  41.374  1.00  0.00     0.000 A 
ATOM     13  C   UNL     1      87.736  50.343  41.302  1.00  0.00     0.000 A 
ATOM     14  C   UNL     1      88.871  51.015  40.916  1.00  0.00     0.000 A 
ENDBRANCH   8   9
BRANCH   8  15
ATOM     15  C   UNL     1      86.298  52.251  44.804  1.00  0.00    -0.013 A 
ATOM     16  C   UNL     1      87.331  51.375  45.015  1.00  0.00     0.007 A 
ATOM     17  C   UNL     1      85.572  52.668  45.891  1.00  0.00     0.007 A 
ATOM     18  C   UNL     1      87.654  50.905  46.282  1.00  0.00     0.000 A 
ATOM     19  C   UNL     1      85.879  52.205  47.181  1.00  0.00     0.000 A 
ATOM     20  C   UNL     1      86.915  51.331  47.360  1.00  0.00     0.000 A 
ENDBRANCH   8  15
BRANCH   8  21
ATOM     21  N   UNL     1      85.882  54.222  43.522  1.00  0.00    -0.319 N 
ATOM     22  C   UNL     1      84.748  54.968  43.629  1.00  0.00     0.109 A 
ATOM     23  C   UNL     1      86.906  55.074  43.506  1.00  0.00     0.200 A 
ATOM     24  C   UNL     1      85.091  56.301  43.676  1.00  0.00     0.131 A 
ATOM     25  N   UNL     1      86.416  56.338  43.600  1.00  0.00    -0.245 NA
ENDBRANCH   8  21
ENDBRANCH   7   8
TORSDOF 4
ENDMDL
MODEL 5
REMARK VINA RESULT:      -8.3      1.971      2.803
REMARK SMILES Clc1ccccc1C(c1ccccc1)(c1ccccc1)n1ccnc1
REMARK SMILES IDX 1 1 2 2 3 3 4 4 5 5 6 6 7 7 8 8 9 9 10 10 14 11 11 12 13 13
REMARK SMILES IDX 12 14 15 15 16 16 20 17 17 18 19 19 18 20 21 21 22 22 25 23
REMARK SMILES IDX 23 24 24 25
REMARK H PARENT
ROOT
ATOM      1  Cl  UNL     1      84.267  53.066  46.263  1.00  0.00    -0.084 Cl
ATOM      2  C   UNL     1      85.690  52.079  46.512  1.00  0.00     0.047 A 
ATOM      3  C   UNL     1      86.048  51.635  47.764  1.00  0.00     0.021 A 
ATOM      4  C   UNL     1      87.150  50.830  47.960  1.00  0.00     0.002 A 
ATOM      5  C   UNL     1      87.893  50.477  46.862  1.00  0.00     0.001 A 
ATOM      6  C   UNL     1      87.527  50.930  45.587  1.00  0.00     0.008 A 
ATOM      7  C   UNL     1      86.439  51.726  45.402  1.00  0.00     0.006 A 
ENDROOT
BRANCH   7   8
ATOM      8  C   UNL     1      86.085  52.216  44.042  1.00  0.00     0.123 C 
BRANCH   8   9
ATOM      9  C   UNL     1      84.760  51.637  43.680  1.00  0.00    -0.013 A 
ATOM     10  C   UNL     1      83.829  52.222  42.885  1.00  0.00     0.007 A 
ATOM     11  C   UNL     1      84.505  50.363  44.222  1.00  0.00     0.007 A 
ATOM     12  C   UNL     1      82.645  51.555  42.622  1.00  0.00     0.000 A 
ATOM     13  C   UNL     1      83.330  49.709  43.955  1.00  0.00     0.000 A 
ATOM     14  C   UNL     1      82.379  50.293  43.152  1.00  0.00     0.000 A 
ENDBRANCH   8   9
BRANCH   8  15
ATOM     15  C   UNL     1      87.008  51.667  43.013  1.00  0.00    -0.013 A 
ATOM     16  C   UNL     1      86.788  50.485  42.357  1.00  0.00     0.007 A 
ATOM     17  C   UNL     1      88.125  52.392  42.682  1.00  0.00     0.007 A 
ATOM     18  C   UNL     1      87.656  50.008  41.382  1.00  0.00     0.000 A 
ATOM     19  C   UNL     1      89.017  51.930  41.700  1.00  0.00     0.000 A 
ATOM     20  C   UNL     1      88.771  50.745  41.064  1.00  0.00     0.000 A 
ENDBRANCH   8  15
BRANCH   8  21
ATOM     21  N   UNL     1      86.122  53.648  44.009  1.00  0.00    -0.319 N 
ATOM     22  C   UNL     1      86.776  54.450  44.894  1.00  0.00     0.109 A 
ATOM     23  C   UNL     1      85.551  54.448  43.109  1.00  0.00     0.200 A 
ATOM     24  C   UNL     1      86.598  55.765  44.524  1.00  0.00     0.131 A 
ATOM     25  N   UNL     1      85.846  55.736  43.430  1.00  0.00    -0.245 NA
ENDBRANCH   8  21
ENDBRANCH   7   8
TORSDOF 4
ENDMDL
MODEL 6
REMARK VINA RESULT:      -8.2      1.898      4.429
REMARK SMILES Clc1ccccc1C(c1ccccc1)(c1ccccc1)n1ccnc1
REMARK SMILES IDX 1 1 2 2 3 3 4 4 5 5 6 6 7 7 8 8 9 9 10 10 14 11 11 12 13 13
REMARK SMILES IDX 12 14 15 15 16 16 20 17 17 18 19 19 18 20 21 21 22 22 25 23
REMARK SMILES IDX 23 24 24 25
REMARK H PARENT
ROOT
ATOM      1  Cl  UNL     1      84.987  53.627  40.976  1.00  0.00    -0.084 Cl
ATOM      2  C   UNL     1      84.125  52.467  41.961  1.00  0.00     0.047 A 
ATOM      3  C   UNL     1      82.916  51.943  41.566  1.00  0.00     0.021 A 
ATOM      4  C   UNL     1      82.249  51.004  42.323  1.00  0.00     0.002 A 
ATOM      5  C   UNL     1      82.827  50.598  43.501  1.00  0.00     0.001 A 
ATOM      6  C   UNL     1      84.059  51.133  43.903  1.00  0.00     0.008 A 
ATOM      7  C   UNL     1      84.710  52.060  43.149  1.00  0.00     0.006 A 
ENDROOT
BRANCH   7   8
ATOM      8  C   UNL     1      86.005  52.632  43.609  1.00  0.00     0.123 C 
BRANCH   8   9
ATOM      9  C   UNL     1      87.056  52.221  42.636  1.00  0.00    -0.013 A 
ATOM     10  C   UNL     1      88.154  52.945  42.301  1.00  0.00     0.007 A 
ATOM     11  C   UNL     1      86.856  50.957  42.051  1.00  0.00     0.007 A 
ATOM     12  C   UNL     1      89.057  52.426  41.390  1.00  0.00     0.000 A 
ATOM     13  C   UNL     1      87.756  50.450  41.149  1.00  0.00     0.000 A 
ATOM     14  C   UNL     1      88.871  51.175  40.803  1.00  0.00     0.000 A 
ENDBRANCH   8   9
BRANCH   8  15
ATOM     15  C   UNL     1      86.443  52.016  44.890  1.00  0.00    -0.013 A 
ATOM     16  C   UNL     1      85.946  52.385  46.112  1.00  0.00     0.007 A 
ATOM     17  C   UNL     1      87.375  51.010  44.848  1.00  0.00     0.007 A 
ATOM     18  C   UNL     1      86.357  51.775  47.292  1.00  0.00     0.000 A 
ATOM     19  C   UNL     1      87.806  50.379  46.027  1.00  0.00     0.000 A 
ATOM     20  C   UNL     1      87.292  50.770  47.232  1.00  0.00     0.000 A 
ENDBRANCH   8  15
BRANCH   8  21
ATOM     21  N   UNL     1      85.887  54.051  43.772  1.00  0.00    -0.319 N 
ATOM     22  C   UNL     1      84.769  54.718  44.172  1.00  0.00     0.109 A 
ATOM     23  C   UNL     1      86.838  54.966  43.589  1.00  0.00     0.200 A 
ATOM     24  C   UNL     1      85.047  56.066  44.230  1.00  0.00     0.131 A 
ATOM     25  N   UNL     1      86.319  56.190  43.869  1.00  0.00    -0.245 NA
ENDBRANCH   8  21
ENDBRANCH   7   8
TORSDOF 4
ENDMDL
MODEL 7
REMARK VINA RESULT:      -8.2      0.271      1.360
REMARK SMILES Clc1ccccc1C(c1ccccc1)(c1ccccc1)n1ccnc1
REMARK SMILES IDX 1 1 2 2 3 3 4 4 5 5 6 6 7 7 8 8 9 9 10 10 14 11 11 12 13 13
REMARK SMILES IDX 12 14 15 15 16 16 20 17 17 18 19 19 18 20 21 21 22 22 25 23
REMARK SMILES IDX 23 24 24 25
REMARK H PARENT
ROOT
ATOM      1  Cl  UNL     1      87.216  54.669  43.346  1.00  0.00    -0.084 Cl
ATOM      2  C   UNL     1      86.180  54.172  44.666  1.00  0.00     0.047 A 
ATOM      3  C   UNL     1      86.259  54.763  45.906  1.00  0.00     0.021 A 
ATOM      4  C   UNL     1      85.423  54.398  46.938  1.00  0.00     0.002 A 
ATOM      5  C   UNL     1      84.495  53.414  46.698  1.00  0.00     0.001 A 
ATOM      6  C   UNL     1      84.416  52.813  45.435  1.00  0.00     0.008 A 
ATOM      7  C   UNL     1      85.246  53.179  44.421  1.00  0.00     0.006 A 
ENDROOT
BRANCH   7   8
ATOM      8  C   UNL     1      85.160  52.509  43.095  1.00  0.00     0.123 C 
BRANCH   8   9
ATOM      9  C   UNL     1      84.103  51.461  43.182  1.00  0.00    -0.013 A 
ATOM     10  C   UNL     1      82.843  51.563  42.691  1.00  0.00     0.007 A 
ATOM     11  C   UNL     1      84.500  50.274  43.825  1.00  0.00     0.007 A 
ATOM     12  C   UNL     1      81.971  50.499  42.831  1.00  0.00     0.000 A 
ATOM     13  C   UNL     1      83.630  49.223  43.960  1.00  0.00     0.000 A 
ATOM     14  C   UNL     1      82.351  49.316  43.466  1.00  0.00     0.000 A 
ENDBRANCH   8   9
BRANCH   8  15
ATOM     15  C   UNL     1      86.399  51.742  42.797  1.00  0.00    -0.013 A 
ATOM     16  C   UNL     1      87.341  51.434  43.743  1.00  0.00     0.007 A 
ATOM     17  C   UNL     1      86.600  51.296  41.515  1.00  0.00     0.007 A 
ATOM     18  C   UNL     1      88.479  50.695  43.440  1.00  0.00     0.000 A 
ATOM     19  C   UNL     1      87.743  50.548  41.185  1.00  0.00     0.000 A 
ATOM     20  C   UNL     1      88.666  50.258  42.151  1.00  0.00     0.000 A 
ENDBRANCH   8  15
BRANCH   8  21
ATOM     21  N   UNL     1      84.934  53.479  42.065  1.00  0.00    -0.319 N 
ATOM     22  C   UNL     1      84.203  54.621  42.191  1.00  0.00     0.109 A 
ATOM     23  C   UNL     1      85.406  53.457  40.819  1.00  0.00     0.200 A 
ATOM     24  C   UNL     1      84.231  55.306  40.997  1.00  0.00     0.131 A 
ATOM     25  N   UNL     1      84.974  54.573  40.175  1.00  0.00    -0.245 NA
ENDBRANCH   8  21
ENDBRANCH   7   8
TORSDOF 4
ENDMDL
MODEL 8
REMARK VINA RESULT:      -8.2      1.903      2.566
REMARK SMILES Clc1ccccc1C(c1ccccc1)(c1ccccc1)n1ccnc1
REMARK SMILES IDX 1 1 2 2 3 3 4 4 5 5 6 6 7 7 8 8 9 9 10 10 14 11 11 12 13 13
REMARK SMILES IDX 12 14 15 15 16 16 20 17 17 18 19 19 18 20 21 21 22 22 25 23
REMARK SMILES IDX 23 24 24 25
REMARK H PARENT
ROOT
ATOM      1  Cl  UNL     1      84.216  53.448  45.974  1.00  0.00    -0.084 Cl
ATOM      2  C   UNL     1      85.611  52.425  46.240  1.00  0.00     0.047 A 
ATOM      3  C   UNL     1      85.940  51.966  47.494  1.00  0.00     0.021 A 
ATOM      4  C   UNL     1      87.019  51.135  47.702  1.00  0.00     0.002 A 
ATOM      5  C   UNL     1      87.770  50.769  46.613  1.00  0.00     0.001 A 
ATOM      6  C   UNL     1      87.433  51.237  45.335  1.00  0.00     0.008 A 
ATOM      7  C   UNL     1      86.367  52.059  45.138  1.00  0.00     0.006 A 
ENDROOT
BRANCH   7   8
ATOM      8  C   UNL     1      86.045  52.563  43.776  1.00  0.00     0.123 C 
BRANCH   8   9
ATOM      9  C   UNL     1      84.736  51.976  43.370  1.00  0.00    -0.013 A 
ATOM     10  C   UNL     1      84.164  50.868  43.904  1.00  0.00     0.007 A 
ATOM     11  C   UNL     1      84.066  52.677  42.349  1.00  0.00     0.007 A 
ATOM     12  C   UNL     1      82.932  50.447  43.435  1.00  0.00     0.000 A 
ATOM     13  C   UNL     1      82.846  52.253  41.891  1.00  0.00     0.000 A 
ATOM     14  C   UNL     1      82.257  51.132  42.425  1.00  0.00     0.000 A 
ENDBRANCH   8   9
BRANCH   8  15
ATOM     15  C   UNL     1      87.001  52.038  42.765  1.00  0.00    -0.013 A 
ATOM     16  C   UNL     1      86.886  50.799  42.192  1.00  0.00     0.007 A 
ATOM     17  C   UNL     1      88.038  52.842  42.365  1.00  0.00     0.007 A 
ATOM     18  C   UNL     1      87.781  50.343  41.232  1.00  0.00     0.000 A 
ATOM     19  C   UNL     1      88.956  52.403  41.396  1.00  0.00     0.000 A 
ATOM     20  C   UNL     1      88.815  51.161  40.843  1.00  0.00     0.000 A 
ENDBRANCH   8  15
BRANCH   8  21
ATOM     21  N   UNL     1      86.068  53.996  43.762  1.00  0.00    -0.319 N 
ATOM     22  C   UNL     1      86.790  54.791  44.600  1.00  0.00     0.109 A 
ATOM     23  C   UNL     1      85.416  54.805  42.928  1.00  0.00     0.200 A 
ATOM     24  C   UNL     1      86.570  56.109  44.268  1.00  0.00     0.131 A 
ATOM     25  N   UNL     1      85.727  56.090  43.243  1.00  0.00    -0.245 NA
ENDBRANCH   8  21
ENDBRANCH   7   8
TORSDOF 4
ENDMDL
MODEL 9
REMARK VINA RESULT:      -8.2      2.052      2.861
REMARK SMILES Clc1ccccc1C(c1ccccc1)(c1ccccc1)n1ccnc1
REMARK SMILES IDX 1 1 2 2 3 3 4 4 5 5 6 6 7 7 8 8 9 9 10 10 14 11 11 12 13 13
REMARK SMILES IDX 12 14 15 15 16 16 20 17 17 18 19 19 18 20 21 21 22 22 25 23
REMARK SMILES IDX 23 24 24 25
REMARK H PARENT
ROOT
ATOM      1  Cl  UNL     1      84.265  53.185  46.299  1.00  0.00    -0.084 Cl
ATOM      2  C   UNL     1      85.677  52.174  46.507  1.00  0.00     0.047 A 
ATOM      3  C   UNL     1      86.037  51.683  47.741  1.00  0.00     0.021 A 
ATOM      4  C   UNL     1      87.130  50.860  47.903  1.00  0.00     0.002 A 
ATOM      5  C   UNL     1      87.864  50.536  46.789  1.00  0.00     0.001 A 
ATOM      6  C   UNL     1      87.497  51.037  45.533  1.00  0.00     0.008 A 
ATOM      7  C   UNL     1      86.416  51.850  45.381  1.00  0.00     0.006 A 
ENDROOT
BRANCH   7   8
ATOM      8  C   UNL     1      86.060  52.391  44.041  1.00  0.00     0.123 C 
BRANCH   8   9
ATOM      9  C   UNL     1      84.742  51.814  43.652  1.00  0.00    -0.013 A 
ATOM     10  C   UNL     1      83.844  52.383  42.810  1.00  0.00     0.007 A 
ATOM     11  C   UNL     1      84.455  50.560  44.223  1.00  0.00     0.007 A 
ATOM     12  C   UNL     1      82.663  51.721  42.528  1.00  0.00     0.000 A 
ATOM     13  C   UNL     1      83.283  49.910  43.938  1.00  0.00     0.000 A 
ATOM     14  C   UNL     1      82.366  50.478  43.086  1.00  0.00     0.000 A 
ENDBRANCH   8   9
BRANCH   8  15
ATOM     15  C   UNL     1      86.991  51.892  42.992  1.00  0.00    -0.013 A 
ATOM     16  C   UNL     1      88.117  52.569  42.601  1.00  0.00     0.007 A 
ATOM     17  C   UNL     1      86.725  50.683  42.403  1.00  0.00     0.007 A 
ATOM     18  C   UNL     1      88.981  52.068  41.635  1.00  0.00     0.000 A 
ATOM     19  C   UNL     1      87.585  50.156  41.423  1.00  0.00     0.000 A 
ATOM     20  C   UNL     1      88.700  50.855  41.053  1.00  0.00     0.000 A 
ENDBRANCH   8  15
BRANCH   8  21
ATOM     21  N   UNL     1      86.084  53.823  44.064  1.00  0.00    -0.319 N 
ATOM     22  C   UNL     1      85.390  54.647  43.230  1.00  0.00     0.109 A 
ATOM     23  C   UNL     1      86.759  54.605  44.906  1.00  0.00     0.200 A 
ATOM     24  C   UNL     1      85.651  55.955  43.571  1.00  0.00     0.131 A 
ATOM     25  N   UNL     1      86.490  55.902  44.599  1.00  0.00    -0.245 NA
ENDBRANCH   8  21
ENDBRANCH   7   8
TORSDOF 4
ENDMDL
