MODEL 1
REMARK VINA RESULT:      -8.1      0.000      0.000
REMARK SMILES Clc1ccc(COC(Cn2ccnc2)c2ccc(Cl)cc2Cl)c(Cl)c1
REMARK SMILES IDX 7 1 6 2 5 3 2 4 3 5 25 6 4 7 23 8 1 9 24 10 8 11 9 12 10 13
REMARK SMILES IDX 11 14 14 15 12 16 13 17 15 18 16 19 21 20 17 21 20 22 18 23
REMARK SMILES IDX 22 24 19 25
REMARK H PARENT
ROOT
ATOM      1  O   UNL     1     -16.292 -69.035 -15.917  1.00  0.00    -0.367 OA
ENDROOT
BRANCH   1   2
ATOM      2  C   UNL     1     -16.566 -68.627 -17.166  1.00  0.00     0.198 C 
BRANCH   2   3
ATOM      3  C   UNL     1     -16.580 -69.710 -18.174  1.00  0.00    -0.004 A 
ATOM      4  C   UNL     1     -16.374 -71.641 -20.244  1.00  0.00     0.042 A 
ATOM      5  C   UNL     1     -15.268 -70.964 -19.761  1.00  0.00     0.021 A 
ATOM      6  C   UNL     1     -17.580 -71.328 -19.666  1.00  0.00     0.041 A 
ATOM      7  C   UNL     1     -15.344 -70.025 -18.760  1.00  0.00     0.009 A 
ATOM      8  C   UNL     1     -17.672 -70.373 -18.642  1.00  0.00     0.048 A 
ATOM      9  Cl  UNL     1     -16.248 -72.831 -21.531  1.00  0.00    -0.084 Cl
ATOM     10  Cl  UNL     1     -19.230 -70.087 -17.872  1.00  0.00    -0.084 Cl
ENDBRANCH   2   3
ENDBRANCH   1   2
BRANCH   1  11
ATOM     11  C   UNL     1     -17.106 -69.131 -14.885  1.00  0.00     0.170 C 
BRANCH  11  12
ATOM     12  C   UNL     1     -16.594 -70.297 -14.002  1.00  0.00     0.160 C 
BRANCH  12  13
ATOM     13  N   UNL     1     -17.711 -71.109 -13.632  1.00  0.00    -0.335 N 
ATOM     14  C   UNL     1     -17.808 -71.951 -12.591  1.00  0.00     0.107 A 
ATOM     15  C   UNL     1     -18.870 -71.134 -14.322  1.00  0.00     0.199 A 
ATOM     16  C   UNL     1     -19.073 -72.495 -12.668  1.00  0.00     0.130 A 
ATOM     17  N   UNL     1     -19.703 -71.980 -13.736  1.00  0.00    -0.245 NA
ENDBRANCH  12  13
ENDBRANCH  11  12
BRANCH  11  18
ATOM     18  C   UNL     1     -17.106 -67.883 -14.020  1.00  0.00     0.001 A 
ATOM     19  C   UNL     1     -16.059 -67.591 -13.179  1.00  0.00     0.009 A 
ATOM     20  C   UNL     1     -18.172 -67.022 -14.066  1.00  0.00     0.048 A 
ATOM     21  C   UNL     1     -16.097 -66.432 -12.391  1.00  0.00     0.021 A 
ATOM     22  C   UNL     1     -18.219 -65.866 -13.288  1.00  0.00     0.041 A 
ATOM     23  C   UNL     1     -17.167 -65.570 -12.442  1.00  0.00     0.042 A 
ATOM     24  Cl  UNL     1     -19.499 -67.413 -15.144  1.00  0.00    -0.084 Cl
ATOM     25  Cl  UNL     1     -17.218 -64.119 -11.453  1.00  0.00    -0.084 Cl
ENDBRANCH  11  18
ENDBRANCH   1  11
TORSDOF 6
ENDMDL
MODEL 2
REMARK VINA RESULT:      -8.0      2.393      3.449
REMARK SMILES Clc1ccc(COC(Cn2ccnc2)c2ccc(Cl)cc2Cl)c(Cl)c1
REMARK SMILES IDX 7 1 6 2 5 3 2 4 3 5 25 6 4 7 23 8 1 9 24 10 8 11 9 12 10 13
REMARK SMILES IDX 11 14 14 15 12 16 13 17 15 18 16 19 21 20 17 21 20 22 18 23
REMARK SMILES IDX 22 24 19 25
REMARK H PARENT
ROOT
ATOM      1  O   UNL     1     -15.248 -69.885 -17.756  1.00  0.00    -0.367 OA
ENDROOT
BRANCH   1   2
ATOM      2  C   UNL     1     -15.651 -70.027 -19.028  1.00  0.00     0.198 C 
BRANCH   2   3
ATOM      3  C   UNL     1     -15.524 -71.402 -19.560  1.00  0.00    -0.004 A 
ATOM      4  C   UNL     1     -15.563 -74.089 -20.473  1.00  0.00     0.042 A 
ATOM      5  C   UNL     1     -16.709 -73.314 -20.427  1.00  0.00     0.021 A 
ATOM      6  C   UNL     1     -14.403 -73.486 -20.053  1.00  0.00     0.041 A 
ATOM      7  C   UNL     1     -16.714 -72.011 -19.989  1.00  0.00     0.009 A 
ATOM      8  C   UNL     1     -14.392 -72.156 -19.604  1.00  0.00     0.048 A 
ATOM      9  Cl  UNL     1     -15.588 -75.755 -21.031  1.00  0.00    -0.084 Cl
ATOM     10  Cl  UNL     1     -12.858 -71.407 -19.173  1.00  0.00    -0.084 Cl
ENDBRANCH   2   3
ENDBRANCH   1   2
BRANCH   1  11
ATOM     11  C   UNL     1     -15.793 -70.372 -16.660  1.00  0.00     0.170 C 
BRANCH  11  12
ATOM     12  C   UNL     1     -14.637 -70.795 -15.720  1.00  0.00     0.160 C 
BRANCH  12  13
ATOM     13  N   UNL     1     -14.899 -72.119 -15.247  1.00  0.00    -0.335 N 
ATOM     14  C   UNL     1     -14.855 -72.565 -13.982  1.00  0.00     0.107 A 
ATOM     15  C   UNL     1     -15.240 -73.142 -16.058  1.00  0.00     0.199 A 
ATOM     16  C   UNL     1     -15.182 -73.904 -14.046  1.00  0.00     0.130 A 
ATOM     17  N   UNL     1     -15.413 -74.233 -15.328  1.00  0.00    -0.245 NA
ENDBRANCH  12  13
ENDBRANCH  11  12
BRANCH  11  18
ATOM     18  C   UNL     1     -16.624 -69.345 -15.912  1.00  0.00     0.001 A 
ATOM     19  C   UNL     1     -16.045 -68.432 -15.063  1.00  0.00     0.009 A 
ATOM     20  C   UNL     1     -17.985 -69.320 -16.074  1.00  0.00     0.048 A 
ATOM     21  C   UNL     1     -16.844 -67.502 -14.385  1.00  0.00     0.021 A 
ATOM     22  C   UNL     1     -18.789 -68.398 -15.405  1.00  0.00     0.041 A 
ATOM     23  C   UNL     1     -18.209 -67.479 -14.551  1.00  0.00     0.042 A 
ATOM     24  Cl  UNL     1     -18.706 -70.494 -17.159  1.00  0.00    -0.084 Cl
ATOM     25  Cl  UNL     1     -19.213 -66.316 -13.700  1.00  0.00    -0.084 Cl
ENDBRANCH  11  18
ENDBRANCH   1  11
TORSDOF 6
ENDMDL
MODEL 3
REMARK VINA RESULT:      -7.8      1.466      1.801
REMARK SMILES Clc1ccc(COC(Cn2ccnc2)c2ccc(Cl)cc2Cl)c(Cl)c1
REMARK SMILES IDX 7 1 6 2 5 3 2 4 3 5 25 6 4 7 23 8 1 9 24 10 8 11 9 12 10 13
REMARK SMILES IDX 11 14 14 15 12 16 13 17 15 18 16 19 21 20 17 21 20 22 18 23
REMARK SMILES IDX 22 24 19 25
REMARK H PARENT
ROOT
ATOM      1  O   UNL     1     -16.543 -68.701 -16.572  1.00  0.00    -0.367 OA
ENDROOT
BRANCH   1   2
ATOM      2  C   UNL     1     -17.238 -68.884 -17.705  1.00  0.00     0.198 C 
BRANCH   2   3
ATOM      3  C   UNL     1     -16.729 -69.974 -18.566  1.00  0.00    -0.004 A 
ATOM      4  C   UNL     1     -15.549 -71.862 -20.327  1.00  0.00     0.042 A 
ATOM      5  C   UNL     1     -14.813 -70.848 -19.740  1.00  0.00     0.021 A 
ATOM      6  C   UNL     1     -16.886 -71.906 -20.010  1.00  0.00     0.041 A 
ATOM      7  C   UNL     1     -15.362 -69.924 -18.885  1.00  0.00     0.009 A 
ATOM      8  C   UNL     1     -17.460 -70.970 -19.138  1.00  0.00     0.048 A 
ATOM      9  Cl  UNL     1     -14.822 -73.027 -21.424  1.00  0.00    -0.084 Cl
ATOM     10  Cl  UNL     1     -19.155 -71.137 -18.692  1.00  0.00    -0.084 Cl
ENDBRANCH   2   3
ENDBRANCH   1   2
BRANCH   1  11
ATOM     11  C   UNL     1     -16.863 -69.055 -15.343  1.00  0.00     0.170 C 
BRANCH  11  12
ATOM     12  C   UNL     1     -15.607 -69.700 -14.707  1.00  0.00     0.160 C 
BRANCH  12  13
ATOM     13  N   UNL     1     -15.700 -71.119 -14.862  1.00  0.00    -0.335 N 
ATOM     14  C   UNL     1     -15.101 -71.887 -15.785  1.00  0.00     0.107 A 
ATOM     15  C   UNL     1     -16.442 -71.905 -14.056  1.00  0.00     0.199 A 
ATOM     16  C   UNL     1     -15.506 -73.178 -15.516  1.00  0.00     0.130 A 
ATOM     17  N   UNL     1     -16.326 -73.163 -14.454  1.00  0.00    -0.245 NA
ENDBRANCH  12  13
ENDBRANCH  11  12
BRANCH  11  18
ATOM     18  C   UNL     1     -17.246 -67.871 -14.473  1.00  0.00     0.001 A 
ATOM     19  C   UNL     1     -16.311 -67.200 -13.721  1.00  0.00     0.009 A 
ATOM     20  C   UNL     1     -18.552 -67.454 -14.424  1.00  0.00     0.048 A 
ATOM     21  C   UNL     1     -16.702 -66.114 -12.926  1.00  0.00     0.021 A 
ATOM     22  C   UNL     1     -18.950 -66.375 -13.637  1.00  0.00     0.041 A 
ATOM     23  C   UNL     1     -18.012 -65.698 -12.880  1.00  0.00     0.042 A 
ATOM     24  Cl  UNL     1     -19.729 -68.324 -15.389  1.00  0.00    -0.084 Cl
ATOM     25  Cl  UNL     1     -18.504 -64.340 -11.882  1.00  0.00    -0.084 Cl
ENDBRANCH  11  18
ENDBRANCH   1  11
TORSDOF 6
ENDMDL
MODEL 4
REMARK VINA RESULT:      -7.8      1.525      2.126
REMARK SMILES Clc1ccc(COC(Cn2ccnc2)c2ccc(Cl)cc2Cl)c(Cl)c1
REMARK SMILES IDX 7 1 6 2 5 3 2 4 3 5 25 6 4 7 23 8 1 9 24 10 8 11 9 12 10 13
REMARK SMILES IDX 11 14 14 15 12 16 13 17 15 18 16 19 21 20 17 21 20 22 18 23
REMARK SMILES IDX 22 24 19 25
REMARK H PARENT
ROOT
ATOM      1  O   UNL     1     -16.783 -69.101 -16.642  1.00  0.00    -0.367 OA
ENDROOT
BRANCH   1   2
ATOM      2  C   UNL     1     -15.631 -69.232 -17.318  1.00  0.00     0.198 C 
BRANCH   2   3
ATOM      3  C   UNL     1     -15.714 -70.113 -18.504  1.00  0.00    -0.004 A 
ATOM      4  C   UNL     1     -16.120 -71.929 -20.647  1.00  0.00     0.042 A 
ATOM      5  C   UNL     1     -17.175 -71.407 -19.919  1.00  0.00     0.021 A 
ATOM      6  C   UNL     1     -14.862 -71.520 -20.276  1.00  0.00     0.041 A 
ATOM      7  C   UNL     1     -17.002 -70.526 -18.879  1.00  0.00     0.009 A 
ATOM      8  C   UNL     1     -14.671 -70.621 -19.216  1.00  0.00     0.048 A 
ATOM      9  Cl  UNL     1     -16.370 -73.060 -21.969  1.00  0.00    -0.084 Cl
ATOM     10  Cl  UNL     1     -13.043 -70.057 -18.851  1.00  0.00    -0.084 Cl
ENDBRANCH   2   3
ENDBRANCH   1   2
BRANCH   1  11
ATOM     11  C   UNL     1     -17.025 -69.354 -15.371  1.00  0.00     0.170 C 
BRANCH  11  12
ATOM     12  C   UNL     1     -15.745 -69.993 -14.777  1.00  0.00     0.160 C 
BRANCH  12  13
ATOM     13  N   UNL     1     -16.094 -71.256 -14.204  1.00  0.00    -0.335 N 
ATOM     14  C   UNL     1     -15.999 -72.470 -14.768  1.00  0.00     0.107 A 
ATOM     15  C   UNL     1     -16.592 -71.392 -12.958  1.00  0.00     0.199 A 
ATOM     16  C   UNL     1     -16.459 -73.359 -13.819  1.00  0.00     0.130 A 
ATOM     17  N   UNL     1     -16.817 -72.675 -12.720  1.00  0.00    -0.245 NA
ENDBRANCH  12  13
ENDBRANCH  11  12
BRANCH  11  18
ATOM     18  C   UNL     1     -17.310 -68.097 -14.568  1.00  0.00     0.001 A 
ATOM     19  C   UNL     1     -16.334 -67.485 -13.819  1.00  0.00     0.009 A 
ATOM     20  C   UNL     1     -18.569 -67.552 -14.578  1.00  0.00     0.048 A 
ATOM     21  C   UNL     1     -16.635 -66.329 -13.086  1.00  0.00     0.021 A 
ATOM     22  C   UNL     1     -18.878 -66.402 -13.854  1.00  0.00     0.041 A 
ATOM     23  C   UNL     1     -17.898 -65.785 -13.100  1.00  0.00     0.042 A 
ATOM     24  Cl  UNL     1     -19.801 -68.348 -15.539  1.00  0.00    -0.084 Cl
ATOM     25  Cl  UNL     1     -18.279 -64.339 -12.180  1.00  0.00    -0.084 Cl
ENDBRANCH  11  18
ENDBRANCH   1  11
TORSDOF 6
ENDMDL
MODEL 5
REMARK VINA RESULT:      -7.8      1.890      2.540
REMARK SMILES Clc1ccc(COC(Cn2ccnc2)c2ccc(Cl)cc2Cl)c(Cl)c1
REMARK SMILES IDX 7 1 6 2 5 3 2 4 3 5 25 6 4 7 23 8 1 9 24 10 8 11 9 12 10 13
REMARK SMILES IDX 11 14 14 15 12 16 13 17 15 18 16 19 21 20 17 21 20 22 18 23
REMARK SMILES IDX 22 24 19 25
REMARK H PARENT
ROOT
ATOM      1  O   UNL     1     -17.110 -69.229 -16.864  1.00  0.00    -0.367 OA
ENDROOT
BRANCH   1   2
ATOM      2  C   UNL     1     -16.199 -69.083 -17.837  1.00  0.00     0.198 C 
BRANCH   2   3
ATOM      3  C   UNL     1     -16.164 -70.192 -18.815  1.00  0.00    -0.004 A 
ATOM      4  C   UNL     1     -16.313 -72.457 -20.520  1.00  0.00     0.042 A 
ATOM      5  C   UNL     1     -17.417 -71.982 -19.835  1.00  0.00     0.021 A 
ATOM      6  C   UNL     1     -15.137 -71.772 -20.330  1.00  0.00     0.041 A 
ATOM      7  C   UNL     1     -17.369 -70.888 -19.005  1.00  0.00     0.009 A 
ATOM      8  C   UNL     1     -15.073 -70.652 -19.487  1.00  0.00     0.048 A 
ATOM      9  Cl  UNL     1     -16.402 -73.864 -21.570  1.00  0.00    -0.084 Cl
ATOM     10  Cl  UNL     1     -13.562 -69.756 -19.362  1.00  0.00    -0.084 Cl
ENDBRANCH   2   3
ENDBRANCH   1   2
BRANCH   1  11
ATOM     11  C   UNL     1     -16.915 -69.445 -15.578  1.00  0.00     0.170 C 
BRANCH  11  12
ATOM     12  C   UNL     1     -15.407 -69.741 -15.385  1.00  0.00     0.160 C 
BRANCH  12  13
ATOM     13  N   UNL     1     -15.249 -71.140 -15.131  1.00  0.00    -0.335 N 
ATOM     14  C   UNL     1     -15.480 -71.799 -13.985  1.00  0.00     0.107 A 
ATOM     15  C   UNL     1     -14.825 -72.019 -16.062  1.00  0.00     0.199 A 
ATOM     16  C   UNL     1     -15.179 -73.119 -14.247  1.00  0.00     0.130 A 
ATOM     17  N   UNL     1     -14.780 -73.229 -15.524  1.00  0.00    -0.245 NA
ENDBRANCH  12  13
ENDBRANCH  11  12
BRANCH  11  18
ATOM     18  C   UNL     1     -17.244 -68.233 -14.724  1.00  0.00     0.001 A 
ATOM     19  C   UNL     1     -16.274 -67.571 -14.011  1.00  0.00     0.009 A 
ATOM     20  C   UNL     1     -18.537 -67.782 -14.651  1.00  0.00     0.048 A 
ATOM     21  C   UNL     1     -16.616 -66.459 -13.228  1.00  0.00     0.021 A 
ATOM     22  C   UNL     1     -18.888 -66.676 -13.878  1.00  0.00     0.041 A 
ATOM     23  C   UNL     1     -17.913 -66.009 -13.159  1.00  0.00     0.042 A 
ATOM     24  Cl  UNL     1     -19.761 -68.641 -15.567  1.00  0.00    -0.084 Cl
ATOM     25  Cl  UNL     1     -18.345 -64.618 -12.178  1.00  0.00    -0.084 Cl
ENDBRANCH  11  18
ENDBRANCH   1  11
TORSDOF 6
ENDMDL
MODEL 6
REMARK VINA RESULT:      -7.8      1.267      1.511
REMARK SMILES Clc1ccc(COC(Cn2ccnc2)c2ccc(Cl)cc2Cl)c(Cl)c1
REMARK SMILES IDX 7 1 6 2 5 3 2 4 3 5 25 6 4 7 23 8 1 9 24 10 8 11 9 12 10 13
REMARK SMILES IDX 11 14 14 15 12 16 13 17 15 18 16 19 21 20 17 21 20 22 18 23
REMARK SMILES IDX 22 24 19 25
REMARK H PARENT
ROOT
ATOM      1  O   UNL     1     -16.250 -69.228 -15.460  1.00  0.00    -0.367 OA
ENDROOT
BRANCH   1   2
ATOM      2  C   UNL     1     -15.471 -70.306 -15.638  1.00  0.00     0.198 C 
BRANCH   2   3
ATOM      3  C   UNL     1     -15.070 -70.546 -17.041  1.00  0.00    -0.004 A 
ATOM      4  C   UNL     1     -14.064 -70.816 -19.682  1.00  0.00     0.042 A 
ATOM      5  C   UNL     1     -13.228 -70.622 -18.596  1.00  0.00     0.021 A 
ATOM      6  C   UNL     1     -15.410 -70.871 -19.412  1.00  0.00     0.041 A 
ATOM      7  C   UNL     1     -13.693 -70.489 -17.310  1.00  0.00     0.009 A 
ATOM      8  C   UNL     1     -15.898 -70.738 -18.104  1.00  0.00     0.048 A 
ATOM      9  Cl  UNL     1     -13.443 -70.976 -21.319  1.00  0.00    -0.084 Cl
ATOM     10  Cl  UNL     1     -17.625 -70.917 -17.808  1.00  0.00    -0.084 Cl
ENDBRANCH   2   3
ENDBRANCH   1   2
BRANCH   1  11
ATOM     11  C   UNL     1     -17.266 -69.074 -14.635  1.00  0.00     0.170 C 
BRANCH  11  12
ATOM     12  C   UNL     1     -17.212 -70.238 -13.614  1.00  0.00     0.160 C 
BRANCH  12  13
ATOM     13  N   UNL     1     -18.421 -70.994 -13.726  1.00  0.00    -0.335 N 
ATOM     14  C   UNL     1     -18.794 -72.062 -13.003  1.00  0.00     0.107 A 
ATOM     15  C   UNL     1     -19.389 -70.716 -14.624  1.00  0.00     0.199 A 
ATOM     16  C   UNL     1     -20.030 -72.430 -13.491  1.00  0.00     0.130 A 
ATOM     17  N   UNL     1     -20.372 -71.592 -14.483  1.00  0.00    -0.245 NA
ENDBRANCH  12  13
ENDBRANCH  11  12
BRANCH  11  18
ATOM     18  C   UNL     1     -17.187 -67.781 -13.842  1.00  0.00     0.001 A 
ATOM     19  C   UNL     1     -16.147 -67.530 -12.979  1.00  0.00     0.009 A 
ATOM     20  C   UNL     1     -18.172 -66.836 -13.977  1.00  0.00     0.048 A 
ATOM     21  C   UNL     1     -16.110 -66.327 -12.259  1.00  0.00     0.021 A 
ATOM     22  C   UNL     1     -18.143 -65.637 -13.268  1.00  0.00     0.041 A 
ATOM     23  C   UNL     1     -17.098 -65.382 -12.399  1.00  0.00     0.042 A 
ATOM     24  Cl  UNL     1     -19.491 -67.176 -15.082  1.00  0.00    -0.084 Cl
ATOM     25  Cl  UNL     1     -17.055 -63.876 -11.497  1.00  0.00    -0.084 Cl
ENDBRANCH  11  18
ENDBRANCH   1  11
TORSDOF 6
ENDMDL
MODEL 7
REMARK VINA RESULT:      -7.8      2.094      2.367
REMARK SMILES Clc1ccc(COC(Cn2ccnc2)c2ccc(Cl)cc2Cl)c(Cl)c1
REMARK SMILES IDX 7 1 6 2 5 3 2 4 3 5 25 6 4 7 23 8 1 9 24 10 8 11 9 12 10 13
REMARK SMILES IDX 11 14 14 15 12 16 13 17 15 18 16 19 21 20 17 21 20 22 18 23
REMARK SMILES IDX 22 24 19 25
REMARK H PARENT
ROOT
ATOM      1  O   UNL     1     -15.860 -69.588 -15.146  1.00  0.00    -0.367 OA
ENDROOT
BRANCH   1   2
ATOM      2  C   UNL     1     -15.103 -70.685 -14.989  1.00  0.00     0.198 C 
BRANCH   2   3
ATOM      3  C   UNL     1     -14.540 -71.224 -16.247  1.00  0.00    -0.004 A 
ATOM      4  C   UNL     1     -13.515 -71.982 -18.783  1.00  0.00     0.042 A 
ATOM      5  C   UNL     1     -13.400 -70.689 -18.303  1.00  0.00     0.021 A 
ATOM      6  C   UNL     1     -14.154 -72.881 -17.964  1.00  0.00     0.041 A 
ATOM      7  C   UNL     1     -13.888 -70.300 -17.079  1.00  0.00     0.009 A 
ATOM      8  C   UNL     1     -14.656 -72.498 -16.711  1.00  0.00     0.048 A 
ATOM      9  Cl  UNL     1     -12.888 -72.451 -20.357  1.00  0.00    -0.084 Cl
ATOM     10  Cl  UNL     1     -15.376 -73.718 -15.665  1.00  0.00    -0.084 Cl
ENDBRANCH   2   3
ENDBRANCH   1   2
BRANCH   1  11
ATOM     11  C   UNL     1     -17.036 -69.317 -14.615  1.00  0.00     0.170 C 
BRANCH  11  12
ATOM     12  C   UNL     1     -17.343 -70.431 -13.583  1.00  0.00     0.160 C 
BRANCH  12  13
ATOM     13  N   UNL     1     -18.754 -70.661 -13.572  1.00  0.00    -0.335 N 
ATOM     14  C   UNL     1     -19.625 -70.394 -12.586  1.00  0.00     0.107 A 
ATOM     15  C   UNL     1     -19.423 -71.209 -14.608  1.00  0.00     0.199 A 
ATOM     16  C   UNL     1     -20.857 -70.799 -13.056  1.00  0.00     0.130 A 
ATOM     17  N   UNL     1     -20.708 -71.295 -14.295  1.00  0.00    -0.245 NA
ENDBRANCH  12  13
ENDBRANCH  11  12
BRANCH  11  18
ATOM     18  C   UNL     1     -17.051 -67.997 -13.865  1.00  0.00     0.001 A 
ATOM     19  C   UNL     1     -16.036 -67.647 -13.007  1.00  0.00     0.009 A 
ATOM     20  C   UNL     1     -18.097 -67.127 -14.036  1.00  0.00     0.048 A 
ATOM     21  C   UNL     1     -16.085 -66.421 -12.327  1.00  0.00     0.021 A 
ATOM     22  C   UNL     1     -18.155 -65.906 -13.366  1.00  0.00     0.041 A 
ATOM     23  C   UNL     1     -17.136 -65.551 -12.503  1.00  0.00     0.042 A 
ATOM     24  Cl  UNL     1     -19.383 -67.593 -15.134  1.00  0.00    -0.084 Cl
ATOM     25  Cl  UNL     1     -17.201 -64.017 -11.650  1.00  0.00    -0.084 Cl
ENDBRANCH  11  18
ENDBRANCH   1  11
TORSDOF 6
ENDMDL
MODEL 8
REMARK VINA RESULT:      -7.7      6.020      7.734
REMARK SMILES Clc1ccc(COC(Cn2ccnc2)c2ccc(Cl)cc2Cl)c(Cl)c1
REMARK SMILES IDX 7 1 6 2 5 3 2 4 3 5 25 6 4 7 23 8 1 9 24 10 8 11 9 12 10 13
REMARK SMILES IDX 11 14 14 15 12 16 13 17 15 18 16 19 21 20 17 21 20 22 18 23
REMARK SMILES IDX 22 24 19 25
REMARK H PARENT
ROOT
ATOM      1  O   UNL     1     -21.088 -68.591 -10.870  1.00  0.00    -0.367 OA
ENDROOT
BRANCH   1   2
ATOM      2  C   UNL     1     -22.174 -68.225 -10.171  1.00  0.00     0.198 C 
BRANCH   2   3
ATOM      3  C   UNL     1     -23.444 -68.790 -10.676  1.00  0.00    -0.004 A 
ATOM      4  C   UNL     1     -25.726 -69.958 -11.894  1.00  0.00     0.042 A 
ATOM      5  C   UNL     1     -24.452 -70.461 -12.092  1.00  0.00     0.021 A 
ATOM      6  C   UNL     1     -25.828 -68.861 -11.073  1.00  0.00     0.041 A 
ATOM      7  C   UNL     1     -23.333 -69.912 -11.513  1.00  0.00     0.009 A 
ATOM      8  C   UNL     1     -24.694 -68.291 -10.474  1.00  0.00     0.048 A 
ATOM      9  Cl  UNL     1     -27.139 -70.677 -12.654  1.00  0.00    -0.084 Cl
ATOM     10  Cl  UNL     1     -24.899 -66.948  -9.354  1.00  0.00    -0.084 Cl
ENDBRANCH   2   3
ENDBRANCH   1   2
BRANCH   1  11
ATOM     11  C   UNL     1     -19.816 -68.426 -10.562  1.00  0.00     0.170 C 
BRANCH  11  12
ATOM     12  C   UNL     1     -19.033 -69.602 -11.197  1.00  0.00     0.160 C 
BRANCH  12  13
ATOM     13  N   UNL     1     -17.924 -69.916 -10.352  1.00  0.00    -0.335 N 
ATOM     14  C   UNL     1     -16.616 -69.800 -10.631  1.00  0.00     0.107 A 
ATOM     15  C   UNL     1     -18.060 -70.398  -9.099  1.00  0.00     0.199 A 
ATOM     16  C   UNL     1     -15.953 -70.229  -9.501  1.00  0.00     0.130 A 
ATOM     17  N   UNL     1     -16.858 -70.590  -8.577  1.00  0.00    -0.245 NA
ENDBRANCH  12  13
ENDBRANCH  11  12
BRANCH  11  18
ATOM     18  C   UNL     1     -19.237 -67.144 -11.132  1.00  0.00     0.001 A 
ATOM     19  C   UNL     1     -19.420 -66.795 -12.448  1.00  0.00     0.009 A 
ATOM     20  C   UNL     1     -18.507 -66.308 -10.326  1.00  0.00     0.048 A 
ATOM     21  C   UNL     1     -18.865 -65.605 -12.941  1.00  0.00     0.021 A 
ATOM     22  C   UNL     1     -17.953 -65.123 -10.805  1.00  0.00     0.041 A 
ATOM     23  C   UNL     1     -18.136 -64.769 -12.129  1.00  0.00     0.042 A 
ATOM     24  Cl  UNL     1     -18.283 -66.772  -8.649  1.00  0.00    -0.084 Cl
ATOM     25  Cl  UNL     1     -17.437 -63.280 -12.744  1.00  0.00    -0.084 Cl
ENDBRANCH  11  18
ENDBRANCH   1  11
TORSDOF 6
ENDMDL
MODEL 9
REMARK VINA RESULT:      -7.7      2.830      4.825
REMARK SMILES Clc1ccc(COC(Cn2ccnc2)c2ccc(Cl)cc2Cl)c(Cl)c1
REMARK SMILES IDX 7 1 6 2 5 3 2 4 3 5 25 6 4 7 23 8 1 9 24 10 8 11 9 12 10 13
REMARK SMILES IDX 11 14 14 15 12 16 13 17 15 18 16 19 21 20 17 21 20 22 18 23
REMARK SMILES IDX 22 24 19 25
REMARK H PARENT
ROOT
ATOM      1  O   UNL     1     -15.241 -69.828 -14.741  1.00  0.00    -0.367 OA
ENDROOT
BRANCH   1   2
ATOM      2  C   UNL     1     -14.971 -71.138 -14.850  1.00  0.00     0.198 C 
BRANCH   2   3
ATOM      3  C   UNL     1     -14.457 -71.549 -16.175  1.00  0.00    -0.004 A 
ATOM      4  C   UNL     1     -13.537 -72.052 -18.812  1.00  0.00     0.042 A 
ATOM      5  C   UNL     1     -13.424 -70.805 -18.223  1.00  0.00     0.021 A 
ATOM      6  C   UNL     1     -14.119 -73.036 -18.050  1.00  0.00     0.041 A 
ATOM      7  C   UNL     1     -13.862 -70.539 -16.948  1.00  0.00     0.009 A 
ATOM      8  C   UNL     1     -14.570 -72.779 -16.747  1.00  0.00     0.048 A 
ATOM      9  Cl  UNL     1     -12.974 -72.363 -20.448  1.00  0.00    -0.084 Cl
ATOM     10  Cl  UNL     1     -15.217 -74.104 -15.784  1.00  0.00    -0.084 Cl
ENDBRANCH   2   3
ENDBRANCH   1   2
BRANCH   1  11
ATOM     11  C   UNL     1     -16.405 -69.241 -14.545  1.00  0.00     0.170 C 
BRANCH  11  12
ATOM     12  C   UNL     1     -16.152 -67.712 -14.531  1.00  0.00     0.160 C 
BRANCH  12  13
ATOM     13  N   UNL     1     -16.913 -67.138 -13.465  1.00  0.00    -0.335 N 
ATOM     14  C   UNL     1     -18.152 -66.625 -13.521  1.00  0.00     0.107 A 
ATOM     15  C   UNL     1     -16.455 -67.032 -12.201  1.00  0.00     0.199 A 
ATOM     16  C   UNL     1     -18.438 -66.198 -12.241  1.00  0.00     0.130 A 
ATOM     17  N   UNL     1     -17.384 -66.458 -11.451  1.00  0.00    -0.245 NA
ENDBRANCH  12  13
ENDBRANCH  11  12
BRANCH  11  18
ATOM     18  C   UNL     1     -17.397 -69.519 -15.660  1.00  0.00     0.001 A 
ATOM     19  C   UNL     1     -17.205 -69.032 -16.931  1.00  0.00     0.009 A 
ATOM     20  C   UNL     1     -18.517 -70.268 -15.406  1.00  0.00     0.048 A 
ATOM     21  C   UNL     1     -18.145 -69.304 -17.935  1.00  0.00     0.021 A 
ATOM     22  C   UNL     1     -19.457 -70.546 -16.397  1.00  0.00     0.041 A 
ATOM     23  C   UNL     1     -19.266 -70.057 -17.676  1.00  0.00     0.042 A 
ATOM     24  Cl  UNL     1     -18.745 -70.878 -13.778  1.00  0.00    -0.084 Cl
ATOM     25  Cl  UNL     1     -20.447 -70.397 -18.931  1.00  0.00    -0.084 Cl
ENDBRANCH  11  18
ENDBRANCH   1  11
TORSDOF 6
ENDMDL
