MODEL 1
REMARK VINA RESULT:      -5.5      0.000      0.000
REMARK SMILES Clc1ccc(COC(Cn2ccnc2)c2ccc(Cl)cc2Cl)c(Cl)c1
REMARK SMILES IDX 7 1 6 2 5 3 2 4 3 5 25 6 4 7 23 8 1 9 24 10 8 11 9 12 10 13
REMARK SMILES IDX 11 14 14 15 12 16 13 17 15 18 16 19 21 20 17 21 20 22 18 23
REMARK SMILES IDX 22 24 19 25
REMARK H PARENT
ROOT
ATOM      1  O   UNL     1      30.404 -18.278-113.699  1.00  0.00    -0.367 OA
ENDROOT
BRANCH   1   2
ATOM      2  C   UNL     1      31.275 -19.006-114.413  1.00  0.00     0.198 C 
BRANCH   2   3
ATOM      3  C   UNL     1      32.041 -18.234-115.416  1.00  0.00    -0.004 A 
ATOM      4  C   UNL     1      33.288 -16.820-117.538  1.00  0.00     0.042 A 
ATOM      5  C   UNL     1      31.912 -16.908-117.425  1.00  0.00     0.021 A 
ATOM      6  C   UNL     1      34.021 -17.456-116.565  1.00  0.00     0.041 A 
ATOM      7  C   UNL     1      31.286 -17.586-116.407  1.00  0.00     0.009 A 
ATOM      8  C   UNL     1      33.396 -18.151-115.518  1.00  0.00     0.048 A 
ATOM      9  Cl  UNL     1      34.061 -15.951-118.856  1.00  0.00    -0.084 Cl
ATOM     10  Cl  UNL     1      34.386 -18.861-114.247  1.00  0.00    -0.084 Cl
ENDBRANCH   2   3
ENDBRANCH   1   2
BRANCH   1  11
ATOM     11  C   UNL     1      30.636 -17.509-112.653  1.00  0.00     0.170 C 
BRANCH  11  12
ATOM     12  C   UNL     1      31.799 -18.152-111.858  1.00  0.00     0.160 C 
BRANCH  12  13
ATOM     13  N   UNL     1      31.389 -18.300-110.496  1.00  0.00    -0.335 N 
ATOM     14  C   UNL     1      32.157 -18.577-109.431  1.00  0.00     0.107 A 
ATOM     15  C   UNL     1      30.109 -18.174-110.090  1.00  0.00     0.199 A 
ATOM     16  C   UNL     1      31.298 -18.618-108.352  1.00  0.00     0.130 A 
ATOM     17  N   UNL     1      30.050 -18.368-108.781  1.00  0.00    -0.245 NA
ENDBRANCH  12  13
ENDBRANCH  11  12
BRANCH  11  18
ATOM     18  C   UNL     1      31.080 -16.110-113.042  1.00  0.00     0.001 A 
ATOM     19  C   UNL     1      32.405 -15.745-113.022  1.00  0.00     0.009 A 
ATOM     20  C   UNL     1      30.147 -15.178-113.419  1.00  0.00     0.048 A 
ATOM     21  C   UNL     1      32.778 -14.442-113.382  1.00  0.00     0.021 A 
ATOM     22  C   UNL     1      30.507 -13.881-113.780  1.00  0.00     0.041 A 
ATOM     23  C   UNL     1      31.839 -13.512-113.761  1.00  0.00     0.042 A 
ATOM     24  Cl  UNL     1      28.461 -15.662-113.436  1.00  0.00    -0.084 Cl
ATOM     25  Cl  UNL     1      32.303 -11.878-114.210  1.00  0.00    -0.084 Cl
ENDBRANCH  11  18
ENDBRANCH   1  11
TORSDOF 6
ENDMDL
MODEL 2
REMARK VINA RESULT:      -5.1      2.664      4.729
REMARK SMILES Clc1ccc(COC(Cn2ccnc2)c2ccc(Cl)cc2Cl)c(Cl)c1
REMARK SMILES IDX 7 1 6 2 5 3 2 4 3 5 25 6 4 7 23 8 1 9 24 10 8 11 9 12 10 13
REMARK SMILES IDX 11 14 14 15 12 16 13 17 15 18 16 19 21 20 17 21 20 22 18 23
REMARK SMILES IDX 22 24 19 25
REMARK H PARENT
ROOT
ATOM      1  O   UNL     1      30.416 -16.335-114.954  1.00  0.00    -0.367 OA
ENDROOT
BRANCH   1   2
ATOM      2  C   UNL     1      30.536 -17.260-115.919  1.00  0.00     0.198 C 
BRANCH   2   3
ATOM      3  C   UNL     1      31.801 -18.027-115.876  1.00  0.00    -0.004 A 
ATOM      4  C   UNL     1      34.169 -19.545-115.496  1.00  0.00     0.042 A 
ATOM      5  C   UNL     1      33.011 -19.803-114.783  1.00  0.00     0.021 A 
ATOM      6  C   UNL     1      34.110 -18.512-116.400  1.00  0.00     0.041 A 
ATOM      7  C   UNL     1      31.854 -19.082-114.951  1.00  0.00     0.009 A 
ATOM      8  C   UNL     1      32.935 -17.768-116.583  1.00  0.00     0.048 A 
ATOM      9  Cl  UNL     1      35.639 -20.479-115.256  1.00  0.00    -0.084 Cl
ATOM     10  Cl  UNL     1      32.891 -16.523-117.827  1.00  0.00    -0.084 Cl
ENDBRANCH   2   3
ENDBRANCH   1   2
BRANCH   1  11
ATOM     11  C   UNL     1      31.110 -16.212-113.840  1.00  0.00     0.170 C 
BRANCH  11  12
ATOM     12  C   UNL     1      31.512 -14.722-113.711  1.00  0.00     0.160 C 
BRANCH  12  13
ATOM     13  N   UNL     1      32.936 -14.644-113.612  1.00  0.00    -0.335 N 
ATOM     14  C   UNL     1      33.675 -14.444-112.510  1.00  0.00     0.107 A 
ATOM     15  C   UNL     1      33.760 -14.768-114.673  1.00  0.00     0.199 A 
ATOM     16  C   UNL     1      34.988 -14.448-112.934  1.00  0.00     0.130 A 
ATOM     17  N   UNL     1      35.014 -14.647-114.262  1.00  0.00    -0.245 NA
ENDBRANCH  12  13
ENDBRANCH  11  12
BRANCH  11  18
ATOM     18  C   UNL     1      30.302 -16.565-112.605  1.00  0.00     0.001 A 
ATOM     19  C   UNL     1      28.986 -16.188-112.473  1.00  0.00     0.009 A 
ATOM     20  C   UNL     1      30.887 -17.272-111.585  1.00  0.00     0.048 A 
ATOM     21  C   UNL     1      28.273 -16.527-111.315  1.00  0.00     0.021 A 
ATOM     22  C   UNL     1      30.186 -17.616-110.431  1.00  0.00     0.041 A 
ATOM     23  C   UNL     1      28.863 -17.238-110.297  1.00  0.00     0.042 A 
ATOM     24  Cl  UNL     1      32.566 -17.743-111.771  1.00  0.00    -0.084 Cl
ATOM     25  Cl  UNL     1      27.972 -17.662-108.844  1.00  0.00    -0.084 Cl
ENDBRANCH  11  18
ENDBRANCH   1  11
TORSDOF 6
ENDMDL
MODEL 3
REMARK VINA RESULT:      -5.0      3.063      6.057
REMARK SMILES Clc1ccc(COC(Cn2ccnc2)c2ccc(Cl)cc2Cl)c(Cl)c1
REMARK SMILES IDX 7 1 6 2 5 3 2 4 3 5 25 6 4 7 23 8 1 9 24 10 8 11 9 12 10 13
REMARK SMILES IDX 11 14 14 15 12 16 13 17 15 18 16 19 21 20 17 21 20 22 18 23
REMARK SMILES IDX 22 24 19 25
REMARK H PARENT
ROOT
ATOM      1  O   UNL     1      30.558 -16.516-115.129  1.00  0.00    -0.367 OA
ENDROOT
BRANCH   1   2
ATOM      2  C   UNL     1      29.585 -17.266-114.587  1.00  0.00     0.198 C 
BRANCH   2   3
ATOM      3  C   UNL     1      29.393 -17.062-113.134  1.00  0.00    -0.004 A 
ATOM      4  C   UNL     1      29.070 -16.974-110.316  1.00  0.00     0.042 A 
ATOM      5  C   UNL     1      29.928 -17.872-110.927  1.00  0.00     0.021 A 
ATOM      6  C   UNL     1      28.382 -16.125-111.148  1.00  0.00     0.041 A 
ATOM      7  C   UNL     1      30.100 -17.933-112.289  1.00  0.00     0.009 A 
ATOM      8  C   UNL     1      28.549 -16.175-112.541  1.00  0.00     0.048 A 
ATOM      9  Cl  UNL     1      28.863 -16.924-108.571  1.00  0.00    -0.084 Cl
ATOM     10  Cl  UNL     1      27.716 -14.996-113.549  1.00  0.00    -0.084 Cl
ENDBRANCH   2   3
ENDBRANCH   1   2
BRANCH   1  11
ATOM     11  C   UNL     1      31.862 -16.703-115.088  1.00  0.00     0.170 C 
BRANCH  11  12
ATOM     12  C   UNL     1      32.392 -16.566-116.538  1.00  0.00     0.160 C 
BRANCH  12  13
ATOM     13  N   UNL     1      33.662 -17.218-116.618  1.00  0.00    -0.335 N 
ATOM     14  C   UNL     1      34.871 -16.651-116.756  1.00  0.00     0.107 A 
ATOM     15  C   UNL     1      33.812 -18.558-116.566  1.00  0.00     0.199 A 
ATOM     16  C   UNL     1      35.771 -17.696-116.787  1.00  0.00     0.130 A 
ATOM     17  N   UNL     1      35.099 -18.852-116.670  1.00  0.00    -0.245 NA
ENDBRANCH  12  13
ENDBRANCH  11  12
BRANCH  11  18
ATOM     18  C   UNL     1      32.579 -15.660-114.250  1.00  0.00     0.001 A 
ATOM     19  C   UNL     1      32.415 -14.315-114.482  1.00  0.00     0.009 A 
ATOM     20  C   UNL     1      33.416 -16.055-113.238  1.00  0.00     0.048 A 
ATOM     21  C   UNL     1      33.097 -13.380-113.692  1.00  0.00     0.021 A 
ATOM     22  C   UNL     1      34.098 -15.134-112.446  1.00  0.00     0.041 A 
ATOM     23  C   UNL     1      33.934 -13.781-112.677  1.00  0.00     0.042 A 
ATOM     24  Cl  UNL     1      33.614 -17.775-112.959  1.00  0.00    -0.084 Cl
ATOM     25  Cl  UNL     1      34.793 -12.611-111.687  1.00  0.00    -0.084 Cl
ENDBRANCH  11  18
ENDBRANCH   1  11
TORSDOF 6
ENDMDL
MODEL 4
REMARK VINA RESULT:      -4.9      1.527      2.046
REMARK SMILES Clc1ccc(COC(Cn2ccnc2)c2ccc(Cl)cc2Cl)c(Cl)c1
REMARK SMILES IDX 7 1 6 2 5 3 2 4 3 5 25 6 4 7 23 8 1 9 24 10 8 11 9 12 10 13
REMARK SMILES IDX 11 14 14 15 12 16 13 17 15 18 16 19 21 20 17 21 20 22 18 23
REMARK SMILES IDX 22 24 19 25
REMARK H PARENT
ROOT
ATOM      1  O   UNL     1      33.925 -17.499-112.432  1.00  0.00    -0.367 OA
ENDROOT
BRANCH   1   2
ATOM      2  C   UNL     1      34.172 -18.360-113.431  1.00  0.00     0.198 C 
BRANCH   2   3
ATOM      3  C   UNL     1      33.853 -17.842-114.779  1.00  0.00    -0.004 A 
ATOM      4  C   UNL     1      33.408 -16.600-117.292  1.00  0.00     0.042 A 
ATOM      5  C   UNL     1      34.589 -16.431-116.591  1.00  0.00     0.021 A 
ATOM      6  C   UNL     1      32.461 -17.403-116.706  1.00  0.00     0.041 A 
ATOM      7  C   UNL     1      34.826 -17.022-115.373  1.00  0.00     0.009 A 
ATOM      8  C   UNL     1      32.690 -18.015-115.464  1.00  0.00     0.048 A 
ATOM      9  Cl  UNL     1      33.129 -15.825-118.846  1.00  0.00    -0.084 Cl
ATOM     10  Cl  UNL     1      31.478 -19.112-114.810  1.00  0.00    -0.084 Cl
ENDBRANCH   2   3
ENDBRANCH   1   2
BRANCH   1  11
ATOM     11  C   UNL     1      32.794 -16.895-112.126  1.00  0.00     0.170 C 
BRANCH  11  12
ATOM     12  C   UNL     1      32.760 -16.734-110.586  1.00  0.00     0.160 C 
BRANCH  12  13
ATOM     13  N   UNL     1      31.960 -17.785-110.038  1.00  0.00    -0.335 N 
ATOM     14  C   UNL     1      30.623 -17.903-110.068  1.00  0.00     0.107 A 
ATOM     15  C   UNL     1      32.477 -18.846-109.385  1.00  0.00     0.199 A 
ATOM     16  C   UNL     1      30.338 -19.079-109.407  1.00  0.00     0.130 A 
ATOM     17  N   UNL     1      31.488 -19.638-108.998  1.00  0.00    -0.245 NA
ENDBRANCH  12  13
ENDBRANCH  11  12
BRANCH  11  18
ATOM     18  C   UNL     1      32.692 -15.503-112.723  1.00  0.00     0.001 A 
ATOM     19  C   UNL     1      33.754 -14.631-112.700  1.00  0.00     0.009 A 
ATOM     20  C   UNL     1      31.516 -15.092-113.298  1.00  0.00     0.048 A 
ATOM     21  C   UNL     1      33.621 -13.351-113.256  1.00  0.00     0.021 A 
ATOM     22  C   UNL     1      31.375 -13.822-113.855  1.00  0.00     0.041 A 
ATOM     23  C   UNL     1      32.441 -12.944-113.833  1.00  0.00     0.042 A 
ATOM     24  Cl  UNL     1      30.172 -16.218-113.317  1.00  0.00    -0.084 Cl
ATOM     25  Cl  UNL     1      32.272 -11.340-114.528  1.00  0.00    -0.084 Cl
ENDBRANCH  11  18
ENDBRANCH   1  11
TORSDOF 6
ENDMDL
MODEL 5
REMARK VINA RESULT:      -4.7      3.047      5.901
REMARK SMILES Clc1ccc(COC(Cn2ccnc2)c2ccc(Cl)cc2Cl)c(Cl)c1
REMARK SMILES IDX 7 1 6 2 5 3 2 4 3 5 25 6 4 7 23 8 1 9 24 10 8 11 9 12 10 13
REMARK SMILES IDX 11 14 14 15 12 16 13 17 15 18 16 19 21 20 17 21 20 22 18 23
REMARK SMILES IDX 22 24 19 25
REMARK H PARENT
ROOT
ATOM      1  O   UNL     1      31.662 -17.164-115.173  1.00  0.00    -0.367 OA
ENDROOT
BRANCH   1   2
ATOM      2  C   UNL     1      30.644 -17.910-114.715  1.00  0.00     0.198 C 
BRANCH   2   3
ATOM      3  C   UNL     1      30.276 -17.644-113.307  1.00  0.00    -0.004 A 
ATOM      4  C   UNL     1      29.707 -17.399-110.537  1.00  0.00     0.042 A 
ATOM      5  C   UNL     1      30.855 -18.019-110.997  1.00  0.00     0.021 A 
ATOM      6  C   UNL     1      28.855 -16.907-111.496  1.00  0.00     0.041 A 
ATOM      7  C   UNL     1      31.151 -18.148-112.333  1.00  0.00     0.009 A 
ATOM      8  C   UNL     1      29.145 -17.031-112.863  1.00  0.00     0.048 A 
ATOM      9  Cl  UNL     1      29.350 -17.254-108.822  1.00  0.00    -0.084 Cl
ATOM     10  Cl  UNL     1      28.063 -16.293-114.041  1.00  0.00    -0.084 Cl
ENDBRANCH   2   3
ENDBRANCH   1   2
BRANCH   1  11
ATOM     11  C   UNL     1      32.927 -17.182-114.803  1.00  0.00     0.170 C 
BRANCH  11  12
ATOM     12  C   UNL     1      33.784 -17.221-116.093  1.00  0.00     0.160 C 
BRANCH  12  13
ATOM     13  N   UNL     1      34.247 -18.559-116.287  1.00  0.00    -0.335 N 
ATOM     14  C   UNL     1      33.514 -19.658-116.527  1.00  0.00     0.107 A 
ATOM     15  C   UNL     1      35.551 -18.905-116.251  1.00  0.00     0.199 A 
ATOM     16  C   UNL     1      34.418 -20.694-116.636  1.00  0.00     0.130 A 
ATOM     17  N   UNL     1      35.658 -20.208-116.462  1.00  0.00    -0.245 NA
ENDBRANCH  12  13
ENDBRANCH  11  12
BRANCH  11  18
ATOM     18  C   UNL     1      33.331 -15.935-114.036  1.00  0.00     0.001 A 
ATOM     19  C   UNL     1      32.867 -14.691-114.391  1.00  0.00     0.009 A 
ATOM     20  C   UNL     1      34.182 -16.038-112.965  1.00  0.00     0.048 A 
ATOM     21  C   UNL     1      33.265 -13.561-113.664  1.00  0.00     0.021 A 
ATOM     22  C   UNL     1      34.583 -14.921-112.234  1.00  0.00     0.041 A 
ATOM     23  C   UNL     1      34.117 -13.669-112.590  1.00  0.00     0.042 A 
ATOM     24  Cl  UNL     1      34.764 -17.634-112.529  1.00  0.00    -0.084 Cl
ATOM     25  Cl  UNL     1      34.620 -12.255-111.678  1.00  0.00    -0.084 Cl
ENDBRANCH  11  18
ENDBRANCH   1  11
TORSDOF 6
ENDMDL
MODEL 6
REMARK VINA RESULT:      -4.5      2.156      4.116
REMARK SMILES Clc1ccc(COC(Cn2ccnc2)c2ccc(Cl)cc2Cl)c(Cl)c1
REMARK SMILES IDX 7 1 6 2 5 3 2 4 3 5 25 6 4 7 23 8 1 9 24 10 8 11 9 12 10 13
REMARK SMILES IDX 11 14 14 15 12 16 13 17 15 18 16 19 21 20 17 21 20 22 18 23
REMARK SMILES IDX 22 24 19 25
REMARK H PARENT
ROOT
ATOM      1  O   UNL     1      31.522 -15.877-112.255  1.00  0.00    -0.367 OA
ENDROOT
BRANCH   1   2
ATOM      2  C   UNL     1      30.875 -15.546-113.384  1.00  0.00     0.198 C 
BRANCH   2   3
ATOM      3  C   UNL     1      31.701 -15.627-114.609  1.00  0.00    -0.004 A 
ATOM      4  C   UNL     1      33.209 -16.080-116.970  1.00  0.00     0.042 A 
ATOM      5  C   UNL     1      32.039 -16.769-116.705  1.00  0.00     0.021 A 
ATOM      6  C   UNL     1      33.603 -15.162-116.026  1.00  0.00     0.041 A 
ATOM      7  C   UNL     1      31.292 -16.566-115.569  1.00  0.00     0.009 A 
ATOM      8  C   UNL     1      32.850 -14.944-114.863  1.00  0.00     0.048 A 
ATOM      9  Cl  UNL     1      34.148 -16.365-118.428  1.00  0.00    -0.084 Cl
ATOM     10  Cl  UNL     1      33.352 -13.684-113.739  1.00  0.00    -0.084 Cl
ENDBRANCH   2   3
ENDBRANCH   1   2
BRANCH   1  11
ATOM     11  C   UNL     1      31.499 -17.019-111.598  1.00  0.00     0.170 C 
BRANCH  11  12
ATOM     12  C   UNL     1      30.112 -17.664-111.843  1.00  0.00     0.160 C 
BRANCH  12  13
ATOM     13  N   UNL     1      29.290 -17.416-110.699  1.00  0.00    -0.335 N 
ATOM     14  C   UNL     1      29.434 -17.911-109.459  1.00  0.00     0.107 A 
ATOM     15  C   UNL     1      28.207 -16.612-110.724  1.00  0.00     0.199 A 
ATOM     16  C   UNL     1      28.396 -17.380-108.722  1.00  0.00     0.130 A 
ATOM     17  N   UNL     1      27.659 -16.589-109.519  1.00  0.00    -0.245 NA
ENDBRANCH  12  13
ENDBRANCH  11  12
BRANCH  11  18
ATOM     18  C   UNL     1      32.542 -18.003-112.097  1.00  0.00     0.001 A 
ATOM     19  C   UNL     1      32.224 -18.996-112.992  1.00  0.00     0.009 A 
ATOM     20  C   UNL     1      33.835 -17.913-111.648  1.00  0.00     0.048 A 
ATOM     21  C   UNL     1      33.212 -19.891-113.427  1.00  0.00     0.021 A 
ATOM     22  C   UNL     1      34.825 -18.796-112.075  1.00  0.00     0.041 A 
ATOM     23  C   UNL     1      34.507 -19.795-112.975  1.00  0.00     0.042 A 
ATOM     24  Cl  UNL     1      34.221 -16.640-110.505  1.00  0.00    -0.084 Cl
ATOM     25  Cl  UNL     1      35.747 -20.916-113.516  1.00  0.00    -0.084 Cl
ENDBRANCH  11  18
ENDBRANCH   1  11
TORSDOF 6
ENDMDL
MODEL 7
REMARK VINA RESULT:      -4.4      2.929      6.620
REMARK SMILES Clc1ccc(COC(Cn2ccnc2)c2ccc(Cl)cc2Cl)c(Cl)c1
REMARK SMILES IDX 7 1 6 2 5 3 2 4 3 5 25 6 4 7 23 8 1 9 24 10 8 11 9 12 10 13
REMARK SMILES IDX 11 14 14 15 12 16 13 17 15 18 16 19 21 20 17 21 20 22 18 23
REMARK SMILES IDX 22 24 19 25
REMARK H PARENT
ROOT
ATOM      1  O   UNL     1      32.097 -16.365-114.142  1.00  0.00    -0.367 OA
ENDROOT
BRANCH   1   2
ATOM      2  C   UNL     1      31.076 -17.228-114.030  1.00  0.00     0.198 C 
BRANCH   2   3
ATOM      3  C   UNL     1      30.372 -17.178-112.730  1.00  0.00    -0.004 A 
ATOM      4  C   UNL     1      29.200 -17.313-110.148  1.00  0.00     0.042 A 
ATOM      5  C   UNL     1      30.534 -17.613-110.364  1.00  0.00     0.021 A 
ATOM      6  C   UNL     1      28.472 -16.945-111.254  1.00  0.00     0.041 A 
ATOM      7  C   UNL     1      31.122 -17.555-111.605  1.00  0.00     0.009 A 
ATOM      8  C   UNL     1      29.059 -16.879-112.526  1.00  0.00     0.048 A 
ATOM      9  Cl  UNL     1      28.471 -17.405-108.551  1.00  0.00    -0.084 Cl
ATOM     10  Cl  UNL     1      28.100 -16.305-113.887  1.00  0.00    -0.084 Cl
ENDBRANCH   2   3
ENDBRANCH   1   2
BRANCH   1  11
ATOM     11  C   UNL     1      33.161 -16.443-114.915  1.00  0.00     0.170 C 
BRANCH  11  12
ATOM     12  C   UNL     1      34.298 -15.655-114.217  1.00  0.00     0.160 C 
BRANCH  12  13
ATOM     13  N   UNL     1      33.824 -14.337-113.931  1.00  0.00    -0.335 N 
ATOM     14  C   UNL     1      32.957 -13.601-114.643  1.00  0.00     0.107 A 
ATOM     15  C   UNL     1      34.212 -13.628-112.851  1.00  0.00     0.199 A 
ATOM     16  C   UNL     1      32.827 -12.410-113.959  1.00  0.00     0.130 A 
ATOM     17  N   UNL     1      33.606 -12.451-112.866  1.00  0.00    -0.245 NA
ENDBRANCH  12  13
ENDBRANCH  11  12
BRANCH  11  18
ATOM     18  C   UNL     1      33.652 -17.869-115.094  1.00  0.00     0.001 A 
ATOM     19  C   UNL     1      34.400 -18.499-114.129  1.00  0.00     0.009 A 
ATOM     20  C   UNL     1      33.352 -18.554-116.244  1.00  0.00     0.048 A 
ATOM     21  C   UNL     1      34.840 -19.814-114.331  1.00  0.00     0.021 A 
ATOM     22  C   UNL     1      33.783 -19.863-116.454  1.00  0.00     0.041 A 
ATOM     23  C   UNL     1      34.536 -20.498-115.484  1.00  0.00     0.042 A 
ATOM     24  Cl  UNL     1      32.398 -17.733-117.466  1.00  0.00    -0.084 Cl
ATOM     25  Cl  UNL     1      35.088 -22.145-115.741  1.00  0.00    -0.084 Cl
ENDBRANCH  11  18
ENDBRANCH   1  11
TORSDOF 6
ENDMDL
MODEL 8
REMARK VINA RESULT:      -4.4      2.486      5.074
REMARK SMILES Clc1ccc(COC(Cn2ccnc2)c2ccc(Cl)cc2Cl)c(Cl)c1
REMARK SMILES IDX 7 1 6 2 5 3 2 4 3 5 25 6 4 7 23 8 1 9 24 10 8 11 9 12 10 13
REMARK SMILES IDX 11 14 14 15 12 16 13 17 15 18 16 19 21 20 17 21 20 22 18 23
REMARK SMILES IDX 22 24 19 25
REMARK H PARENT
ROOT
ATOM      1  O   UNL     1      31.090 -17.678-113.554  1.00  0.00    -0.367 OA
ENDROOT
BRANCH   1   2
ATOM      2  C   UNL     1      31.168 -16.803-112.538  1.00  0.00     0.198 C 
BRANCH   2   3
ATOM      3  C   UNL     1      31.558 -15.434-112.939  1.00  0.00    -0.004 A 
ATOM      4  C   UNL     1      32.085 -12.823-113.920  1.00  0.00     0.042 A 
ATOM      5  C   UNL     1      30.810 -13.362-113.919  1.00  0.00     0.021 A 
ATOM      6  C   UNL     1      33.084 -13.622-113.420  1.00  0.00     0.041 A 
ATOM      7  C   UNL     1      30.532 -14.623-113.449  1.00  0.00     0.009 A 
ATOM      8  C   UNL     1      32.814 -14.911-112.935  1.00  0.00     0.048 A 
ATOM      9  Cl  UNL     1      32.413 -11.209-114.535  1.00  0.00    -0.084 Cl
ATOM     10  Cl  UNL     1      34.120 -15.848-112.215  1.00  0.00    -0.084 Cl
ENDBRANCH   2   3
ENDBRANCH   1   2
BRANCH   1  11
ATOM     11  C   UNL     1      32.063 -18.343-114.144  1.00  0.00     0.170 C 
BRANCH  11  12
ATOM     12  C   UNL     1      31.509 -19.744-114.506  1.00  0.00     0.160 C 
BRANCH  12  13
ATOM     13  N   UNL     1      32.567 -20.697-114.374  1.00  0.00    -0.335 N 
ATOM     14  C   UNL     1      33.223 -21.339-115.352  1.00  0.00     0.107 A 
ATOM     15  C   UNL     1      33.062 -21.093-113.183  1.00  0.00     0.199 A 
ATOM     16  C   UNL     1      34.143 -22.147-114.717  1.00  0.00     0.130 A 
ATOM     17  N   UNL     1      34.025 -21.979-113.390  1.00  0.00    -0.245 NA
ENDBRANCH  12  13
ENDBRANCH  11  12
BRANCH  11  18
ATOM     18  C   UNL     1      32.516 -17.693-115.439  1.00  0.00     0.001 A 
ATOM     19  C   UNL     1      31.612 -17.253-116.377  1.00  0.00     0.009 A 
ATOM     20  C   UNL     1      33.855 -17.540-115.694  1.00  0.00     0.048 A 
ATOM     21  C   UNL     1      32.067 -16.662-117.564  1.00  0.00     0.021 A 
ATOM     22  C   UNL     1      34.317 -16.952-116.870  1.00  0.00     0.041 A 
ATOM     23  C   UNL     1      33.410 -16.509-117.815  1.00  0.00     0.042 A 
ATOM     24  Cl  UNL     1      34.992 -18.109-114.486  1.00  0.00    -0.084 Cl
ATOM     25  Cl  UNL     1      33.983 -15.772-119.303  1.00  0.00    -0.084 Cl
ENDBRANCH  11  18
ENDBRANCH   1  11
TORSDOF 6
ENDMDL
MODEL 9
REMARK VINA RESULT:      -4.4      2.479      4.484
REMARK SMILES Clc1ccc(COC(Cn2ccnc2)c2ccc(Cl)cc2Cl)c(Cl)c1
REMARK SMILES IDX 7 1 6 2 5 3 2 4 3 5 25 6 4 7 23 8 1 9 24 10 8 11 9 12 10 13
REMARK SMILES IDX 11 14 14 15 12 16 13 17 15 18 16 19 21 20 17 21 20 22 18 23
REMARK SMILES IDX 22 24 19 25
REMARK H PARENT
ROOT
ATOM      1  O   UNL     1      34.879 -18.042-113.603  1.00  0.00    -0.367 OA
ENDROOT
BRANCH   1   2
ATOM      2  C   UNL     1      35.571 -16.902-113.452  1.00  0.00     0.198 C 
BRANCH   2   3
ATOM      3  C   UNL     1      34.794 -15.673-113.730  1.00  0.00    -0.004 A 
ATOM      4  C   UNL     1      33.239 -13.311-113.964  1.00  0.00     0.042 A 
ATOM      5  C   UNL     1      33.974 -13.595-112.826  1.00  0.00     0.021 A 
ATOM      6  C   UNL     1      33.303 -14.236-114.977  1.00  0.00     0.041 A 
ATOM      7  C   UNL     1      34.733 -14.731-112.691  1.00  0.00     0.009 A 
ATOM      8  C   UNL     1      34.076 -15.401-114.853  1.00  0.00     0.048 A 
ATOM      9  Cl  UNL     1      32.269 -11.852-114.107  1.00  0.00    -0.084 Cl
ATOM     10  Cl  UNL     1      34.198 -16.501-116.223  1.00  0.00    -0.084 Cl
ENDBRANCH   2   3
ENDBRANCH   1   2
BRANCH   1  11
ATOM     11  C   UNL     1      33.999 -18.586-112.786  1.00  0.00     0.170 C 
BRANCH  11  12
ATOM     12  C   UNL     1      34.375 -18.149-111.348  1.00  0.00     0.160 C 
BRANCH  12  13
ATOM     13  N   UNL     1      34.590 -19.323-110.560  1.00  0.00    -0.335 N 
ATOM     14  C   UNL     1      33.921 -19.712-109.463  1.00  0.00     0.107 A 
ATOM     15  C   UNL     1      35.545 -20.235-110.834  1.00  0.00     0.199 A 
ATOM     16  C   UNL     1      34.503 -20.900-109.072  1.00  0.00     0.130 A 
ATOM     17  N   UNL     1      35.495 -21.199-109.927  1.00  0.00    -0.245 NA
ENDBRANCH  12  13
ENDBRANCH  11  12
BRANCH  11  18
ATOM     18  C   UNL     1      32.583 -18.103-113.043  1.00  0.00     0.001 A 
ATOM     19  C   UNL     1      31.941 -17.260-112.167  1.00  0.00     0.009 A 
ATOM     20  C   UNL     1      31.916 -18.514-114.169  1.00  0.00     0.048 A 
ATOM     21  C   UNL     1      30.631 -16.839-112.435  1.00  0.00     0.021 A 
ATOM     22  C   UNL     1      30.614 -18.100-114.444  1.00  0.00     0.041 A 
ATOM     23  C   UNL     1      29.966 -17.252-113.566  1.00  0.00     0.042 A 
ATOM     24  Cl  UNL     1      32.752 -19.590-115.272  1.00  0.00    -0.084 Cl
ATOM     25  Cl  UNL     1      28.324 -16.728-113.901  1.00  0.00    -0.084 Cl
ENDBRANCH  11  18
ENDBRANCH   1  11
TORSDOF 6
ENDMDL
