MODEL 1
REMARK VINA RESULT:      -7.0      0.000      0.000
REMARK SMILES Clc1ccccc1C(c1ccccc1)(c1ccccc1)n1ccnc1
REMARK SMILES IDX 1 1 2 2 3 3 4 4 5 5 6 6 7 7 8 8 9 9 10 10 14 11 11 12 13 13
REMARK SMILES IDX 12 14 15 15 16 16 20 17 17 18 19 19 18 20 21 21 22 22 25 23
REMARK SMILES IDX 23 24 24 25
REMARK H PARENT
ROOT
ATOM      1  Cl  UNL     1      31.898 -16.916-111.143  1.00  0.00    -0.084 Cl
ATOM      2  C   UNL     1      30.646 -16.899-112.364  1.00  0.00     0.047 A 
ATOM      3  C   UNL     1      29.312 -16.945-112.029  1.00  0.00     0.021 A 
ATOM      4  C   UNL     1      28.321 -16.899-112.986  1.00  0.00     0.002 A 
ATOM      5  C   UNL     1      28.702 -16.806-114.302  1.00  0.00     0.001 A 
ATOM      6  C   UNL     1      30.060 -16.759-114.642  1.00  0.00     0.008 A 
ATOM      7  C   UNL     1      31.032 -16.806-113.691  1.00  0.00     0.006 A 
ENDROOT
BRANCH   7   8
ATOM      8  C   UNL     1      32.469 -16.780-114.078  1.00  0.00     0.123 C 
BRANCH   8   9
ATOM      9  C   UNL     1      33.062 -15.521-113.545  1.00  0.00    -0.013 A 
ATOM     10  C   UNL     1      34.109 -15.439-112.686  1.00  0.00     0.007 A 
ATOM     11  C   UNL     1      32.458 -14.339-114.014  1.00  0.00     0.007 A 
ATOM     12  C   UNL     1      34.564 -14.194-112.288  1.00  0.00     0.000 A 
ATOM     13  C   UNL     1      32.916 -13.111-113.615  1.00  0.00     0.000 A 
ATOM     14  C   UNL     1      33.976 -13.016-112.746  1.00  0.00     0.000 A 
ENDBRANCH   8   9
BRANCH   8  15
ATOM     15  C   UNL     1      32.630 -16.655-115.551  1.00  0.00    -0.013 A 
ATOM     16  C   UNL     1      31.800 -17.266-116.454  1.00  0.00     0.007 A 
ATOM     17  C   UNL     1      33.645 -15.869-116.034  1.00  0.00     0.007 A 
ATOM     18  C   UNL     1      31.960 -17.112-117.826  1.00  0.00     0.000 A 
ATOM     19  C   UNL     1      33.826 -15.699-117.417  1.00  0.00     0.000 A 
ATOM     20  C   UNL     1      32.982 -16.322-118.294  1.00  0.00     0.000 A 
ENDBRANCH   8  15
BRANCH   8  21
ATOM     21  N   UNL     1      33.124 -17.970-113.621  1.00  0.00    -0.319 N 
ATOM     22  C   UNL     1      34.414 -18.057-113.194  1.00  0.00     0.109 A 
ATOM     23  C   UNL     1      32.596 -19.189-113.510  1.00  0.00     0.200 A 
ATOM     24  C   UNL     1      34.675 -19.356-112.817  1.00  0.00     0.131 A 
ATOM     25  N   UNL     1      33.548 -20.027-113.019  1.00  0.00    -0.245 NA
ENDBRANCH   8  21
ENDBRANCH   7   8
TORSDOF 4
ENDMDL
MODEL 2
REMARK VINA RESULT:      -7.0      1.419      3.771
REMARK SMILES Clc1ccccc1C(c1ccccc1)(c1ccccc1)n1ccnc1
REMARK SMILES IDX 1 1 2 2 3 3 4 4 5 5 6 6 7 7 8 8 9 9 10 10 14 11 11 12 13 13
REMARK SMILES IDX 12 14 15 15 16 16 20 17 17 18 19 19 18 20 21 21 22 22 25 23
REMARK SMILES IDX 23 24 24 25
REMARK H PARENT
ROOT
ATOM      1  Cl  UNL     1      31.638 -17.229-111.076  1.00  0.00    -0.084 Cl
ATOM      2  C   UNL     1      32.324 -18.440-112.137  1.00  0.00     0.047 A 
ATOM      3  C   UNL     1      32.585 -19.718-111.698  1.00  0.00     0.021 A 
ATOM      4  C   UNL     1      33.094 -20.684-112.539  1.00  0.00     0.002 A 
ATOM      5  C   UNL     1      33.340 -20.337-113.844  1.00  0.00     0.001 A 
ATOM      6  C   UNL     1      33.074 -19.035-114.290  1.00  0.00     0.008 A 
ATOM      7  C   UNL     1      32.572 -18.087-113.453  1.00  0.00     0.006 A 
ENDROOT
BRANCH   7   8
ATOM      8  C   UNL     1      32.321 -16.704-113.943  1.00  0.00     0.123 C 
BRANCH   8   9
ATOM      9  C   UNL     1      30.865 -16.422-113.788  1.00  0.00    -0.013 A 
ATOM     10  C   UNL     1      30.322 -15.234-113.423  1.00  0.00     0.007 A 
ATOM     11  C   UNL     1      30.020 -17.512-114.069  1.00  0.00     0.007 A 
ATOM     12  C   UNL     1      28.946 -15.116-113.335  1.00  0.00     0.000 A 
ATOM     13  C   UNL     1      28.658 -17.386-113.981  1.00  0.00     0.000 A 
ATOM     14  C   UNL     1      28.097 -16.187-113.612  1.00  0.00     0.000 A 
ENDBRANCH   8   9
BRANCH   8  15
ATOM     15  C   UNL     1      32.550 -16.600-115.409  1.00  0.00    -0.013 A 
ATOM     16  C   UNL     1      31.738 -17.190-116.342  1.00  0.00     0.007 A 
ATOM     17  C   UNL     1      33.613 -15.856-115.854  1.00  0.00     0.007 A 
ATOM     18  C   UNL     1      31.964 -17.056-117.707  1.00  0.00     0.000 A 
ATOM     19  C   UNL     1      33.861 -15.708-117.229  1.00  0.00     0.000 A 
ATOM     20  C   UNL     1      33.034 -16.309-118.136  1.00  0.00     0.000 A 
ENDBRANCH   8  15
BRANCH   8  21
ATOM     21  N   UNL     1      33.169 -15.776-113.255  1.00  0.00    -0.319 N 
ATOM     22  C   UNL     1      34.408 -16.044-112.758  1.00  0.00     0.109 A 
ATOM     23  C   UNL     1      32.918 -14.493-112.998  1.00  0.00     0.200 A 
ATOM     24  C   UNL     1      34.919 -14.901-112.185  1.00  0.00     0.131 A 
ATOM     25  N   UNL     1      33.988 -13.967-112.346  1.00  0.00    -0.245 NA
ENDBRANCH   8  21
ENDBRANCH   7   8
TORSDOF 4
ENDMDL
MODEL 3
REMARK VINA RESULT:      -6.8      1.973      4.967
REMARK SMILES Clc1ccccc1C(c1ccccc1)(c1ccccc1)n1ccnc1
REMARK SMILES IDX 1 1 2 2 3 3 4 4 5 5 6 6 7 7 8 8 9 9 10 10 14 11 11 12 13 13
REMARK SMILES IDX 12 14 15 15 16 16 20 17 17 18 19 19 18 20 21 21 22 22 25 23
REMARK SMILES IDX 23 24 24 25
REMARK H PARENT
ROOT
ATOM      1  Cl  UNL     1      35.484 -15.662-114.636  1.00  0.00    -0.084 Cl
ATOM      2  C   UNL     1      34.275 -16.025-115.848  1.00  0.00     0.047 A 
ATOM      3  C   UNL     1      34.607 -16.175-117.175  1.00  0.00     0.021 A 
ATOM      4  C   UNL     1      33.663 -16.493-118.127  1.00  0.00     0.002 A 
ATOM      5  C   UNL     1      32.364 -16.659-117.716  1.00  0.00     0.001 A 
ATOM      6  C   UNL     1      32.027 -16.506-116.365  1.00  0.00     0.008 A 
ATOM      7  C   UNL     1      32.964 -16.190-115.430  1.00  0.00     0.006 A 
ENDROOT
BRANCH   7   8
ATOM      8  C   UNL     1      32.579 -16.008-114.005  1.00  0.00     0.123 C 
BRANCH   8   9
ATOM      9  C   UNL     1      33.076 -17.189-113.243  1.00  0.00    -0.013 A 
ATOM     10  C   UNL     1      33.683 -18.278-113.776  1.00  0.00     0.007 A 
ATOM     11  C   UNL     1      32.890 -17.113-111.849  1.00  0.00     0.007 A 
ATOM     12  C   UNL     1      34.109 -19.295-112.939  1.00  0.00     0.000 A 
ATOM     13  C   UNL     1      33.315 -18.125-111.028  1.00  0.00     0.000 A 
ATOM     14  C   UNL     1      33.931 -19.233-111.557  1.00  0.00     0.000 A 
ENDBRANCH   8   9
BRANCH   8  15
ATOM     15  C   UNL     1      31.102 -16.069-113.833  1.00  0.00    -0.013 A 
ATOM     16  C   UNL     1      30.365 -17.204-114.045  1.00  0.00     0.007 A 
ATOM     17  C   UNL     1      30.445 -14.939-113.416  1.00  0.00     0.007 A 
ATOM     18  C   UNL     1      28.989 -17.237-113.854  1.00  0.00     0.000 A 
ATOM     19  C   UNL     1      29.054 -14.949-113.217  1.00  0.00     0.000 A 
ATOM     20  C   UNL     1      28.345 -16.097-113.438  1.00  0.00     0.000 A 
ENDBRANCH   8  15
BRANCH   8  21
ATOM     21  N   UNL     1      33.069 -14.753-113.517  1.00  0.00    -0.319 N 
ATOM     22  C   UNL     1      33.869 -14.577-112.429  1.00  0.00     0.109 A 
ATOM     23  C   UNL     1      32.857 -13.546-114.041  1.00  0.00     0.200 A 
ATOM     24  C   UNL     1      34.147 -13.236-112.289  1.00  0.00     0.131 A 
ATOM     25  N   UNL     1      33.517 -12.628-113.287  1.00  0.00    -0.245 NA
ENDBRANCH   8  21
ENDBRANCH   7   8
TORSDOF 4
ENDMDL
MODEL 4
REMARK VINA RESULT:      -6.8      1.397      4.395
REMARK SMILES Clc1ccccc1C(c1ccccc1)(c1ccccc1)n1ccnc1
REMARK SMILES IDX 1 1 2 2 3 3 4 4 5 5 6 6 7 7 8 8 9 9 10 10 14 11 11 12 13 13
REMARK SMILES IDX 12 14 15 15 16 16 20 17 17 18 19 19 18 20 21 21 22 22 25 23
REMARK SMILES IDX 23 24 24 25
REMARK H PARENT
ROOT
ATOM      1  Cl  UNL     1      30.515 -18.084-115.265  1.00  0.00    -0.084 Cl
ATOM      2  C   UNL     1      31.803 -17.147-115.989  1.00  0.00     0.047 A 
ATOM      3  C   UNL     1      31.978 -17.095-117.353  1.00  0.00     0.021 A 
ATOM      4  C   UNL     1      32.972 -16.333-117.928  1.00  0.00     0.002 A 
ATOM      5  C   UNL     1      33.795 -15.615-117.096  1.00  0.00     0.001 A 
ATOM      6  C   UNL     1      33.616 -15.669-115.708  1.00  0.00     0.008 A 
ATOM      7  C   UNL     1      32.634 -16.425-115.147  1.00  0.00     0.006 A 
ENDROOT
BRANCH   7   8
ATOM      8  C   UNL     1      32.479 -16.486-113.669  1.00  0.00     0.123 C 
BRANCH   8   9
ATOM      9  C   UNL     1      31.076 -16.103-113.341  1.00  0.00    -0.013 A 
ATOM     10  C   UNL     1      30.179 -16.872-112.675  1.00  0.00     0.007 A 
ATOM     11  C   UNL     1      30.701 -14.815-113.768  1.00  0.00     0.007 A 
ATOM     12  C   UNL     1      28.911 -16.376-112.428  1.00  0.00     0.000 A 
ATOM     13  C   UNL     1      29.444 -14.331-113.518  1.00  0.00     0.000 A 
ATOM     14  C   UNL     1      28.526 -15.102-112.844  1.00  0.00     0.000 A 
ENDBRANCH   8   9
BRANCH   8  15
ATOM     15  C   UNL     1      33.300 -15.445-112.996  1.00  0.00    -0.013 A 
ATOM     16  C   UNL     1      33.455 -14.175-113.486  1.00  0.00     0.007 A 
ATOM     17  C   UNL     1      33.915 -15.760-111.810  1.00  0.00     0.007 A 
ATOM     18  C   UNL     1      34.210 -13.214-112.823  1.00  0.00     0.000 A 
ATOM     19  C   UNL     1      34.683 -14.805-111.123  1.00  0.00     0.000 A 
ATOM     20  C   UNL     1      34.820 -13.546-111.638  1.00  0.00     0.000 A 
ENDBRANCH   8  15
BRANCH   8  21
ATOM     21  N   UNL     1      32.855 -17.782-113.186  1.00  0.00    -0.319 N 
ATOM     22  C   UNL     1      32.263 -18.455-112.161  1.00  0.00     0.109 A 
ATOM     23  C   UNL     1      33.823 -18.568-113.657  1.00  0.00     0.200 A 
ATOM     24  C   UNL     1      32.886 -19.673-112.005  1.00  0.00     0.131 A 
ATOM     25  N   UNL     1      33.835 -19.718-112.932  1.00  0.00    -0.245 NA
ENDBRANCH   8  21
ENDBRANCH   7   8
TORSDOF 4
ENDMDL
MODEL 5
REMARK VINA RESULT:      -6.7      1.775      3.988
REMARK SMILES Clc1ccccc1C(c1ccccc1)(c1ccccc1)n1ccnc1
REMARK SMILES IDX 1 1 2 2 3 3 4 4 5 5 6 6 7 7 8 8 9 9 10 10 14 11 11 12 13 13
REMARK SMILES IDX 12 14 15 15 16 16 20 17 17 18 19 19 18 20 21 21 22 22 25 23
REMARK SMILES IDX 23 24 24 25
REMARK H PARENT
ROOT
ATOM      1  Cl  UNL     1      32.157 -14.057-114.227  1.00  0.00    -0.084 Cl
ATOM      2  C   UNL     1      30.852 -15.071-113.654  1.00  0.00     0.047 A 
ATOM      3  C   UNL     1      29.602 -14.558-113.392  1.00  0.00     0.021 A 
ATOM      4  C   UNL     1      28.562 -15.359-112.972  1.00  0.00     0.002 A 
ATOM      5  C   UNL     1      28.806 -16.701-112.817  1.00  0.00     0.001 A 
ATOM      6  C   UNL     1      30.078 -17.223-113.084  1.00  0.00     0.008 A 
ATOM      7  C   UNL     1      31.100 -16.425-113.498  1.00  0.00     0.006 A 
ENDROOT
BRANCH   7   8
ATOM      8  C   UNL     1      32.450 -16.997-113.751  1.00  0.00     0.123 C 
BRANCH   8   9
ATOM      9  C   UNL     1      32.762 -16.808-115.196  1.00  0.00    -0.013 A 
ATOM     10  C   UNL     1      33.955 -16.411-115.705  1.00  0.00     0.007 A 
ATOM     11  C   UNL     1      31.697 -17.093-116.072  1.00  0.00     0.007 A 
ATOM     12  C   UNL     1      34.104 -16.294-117.076  1.00  0.00     0.000 A 
ATOM     13  C   UNL     1      31.853 -16.975-117.429  1.00  0.00     0.000 A 
ATOM     14  C   UNL     1      33.057 -16.573-117.955  1.00  0.00     0.000 A 
ENDBRANCH   8   9
BRANCH   8  15
ATOM     15  C   UNL     1      32.452 -18.474-113.576  1.00  0.00    -0.013 A 
ATOM     16  C   UNL     1      32.350 -19.357-114.619  1.00  0.00     0.007 A 
ATOM     17  C   UNL     1      32.588 -18.983-112.309  1.00  0.00     0.007 A 
ATOM     18  C   UNL     1      32.378 -20.733-114.428  1.00  0.00     0.000 A 
ATOM     19  C   UNL     1      32.619 -20.371-112.091  1.00  0.00     0.000 A 
ATOM     20  C   UNL     1      32.514 -21.227-113.152  1.00  0.00     0.000 A 
ENDBRANCH   8  15
BRANCH   8  21
ATOM     21  N   UNL     1      33.411 -16.406-112.867  1.00  0.00    -0.319 N 
ATOM     22  C   UNL     1      33.154 -15.917-111.622  1.00  0.00     0.109 A 
ATOM     23  C   UNL     1      34.716 -16.246-113.085  1.00  0.00     0.200 A 
ATOM     24  C   UNL     1      34.328 -15.449-111.073  1.00  0.00     0.131 A 
ATOM     25  N   UNL     1      35.267 -15.663-111.988  1.00  0.00    -0.245 NA
ENDBRANCH   8  21
ENDBRANCH   7   8
TORSDOF 4
ENDMDL
MODEL 6
REMARK VINA RESULT:      -6.7      1.295      1.726
REMARK SMILES Clc1ccccc1C(c1ccccc1)(c1ccccc1)n1ccnc1
REMARK SMILES IDX 1 1 2 2 3 3 4 4 5 5 6 6 7 7 8 8 9 9 10 10 14 11 11 12 13 13
REMARK SMILES IDX 12 14 15 15 16 16 20 17 17 18 19 19 18 20 21 21 22 22 25 23
REMARK SMILES IDX 23 24 24 25
REMARK H PARENT
ROOT
ATOM      1  Cl  UNL     1      30.915 -18.839-114.650  1.00  0.00    -0.084 Cl
ATOM      2  C   UNL     1      30.163 -17.346-114.135  1.00  0.00     0.047 A 
ATOM      3  C   UNL     1      28.796 -17.221-114.044  1.00  0.00     0.021 A 
ATOM      4  C   UNL     1      28.201 -16.057-113.608  1.00  0.00     0.002 A 
ATOM      5  C   UNL     1      29.016 -15.008-113.261  1.00  0.00     0.001 A 
ATOM      6  C   UNL     1      30.408 -15.136-113.354  1.00  0.00     0.008 A 
ATOM      7  C   UNL     1      30.988 -16.288-113.787  1.00  0.00     0.006 A 
ENDROOT
BRANCH   7   8
ATOM      8  C   UNL     1      32.468 -16.393-113.902  1.00  0.00     0.123 C 
BRANCH   8   9
ATOM      9  C   UNL     1      33.055 -15.115-113.406  1.00  0.00    -0.013 A 
ATOM     10  C   UNL     1      32.831 -13.884-113.927  1.00  0.00     0.007 A 
ATOM     11  C   UNL     1      33.898 -15.249-112.286  1.00  0.00     0.007 A 
ATOM     12  C   UNL     1      33.435 -12.781-113.350  1.00  0.00     0.000 A 
ATOM     13  C   UNL     1      34.492 -14.151-111.720  1.00  0.00     0.000 A 
ATOM     14  C   UNL     1      34.272 -12.899-112.240  1.00  0.00     0.000 A 
ENDBRANCH   8   9
BRANCH   8  15
ATOM     15  C   UNL     1      32.897 -16.453-115.325  1.00  0.00    -0.013 A 
ATOM     16  C   UNL     1      32.026 -16.642-116.366  1.00  0.00     0.007 A 
ATOM     17  C   UNL     1      34.227 -16.287-115.616  1.00  0.00     0.007 A 
ATOM     18  C   UNL     1      32.452 -16.672-117.689  1.00  0.00     0.000 A 
ATOM     19  C   UNL     1      34.681 -16.314-116.945  1.00  0.00     0.000 A 
ATOM     20  C   UNL     1      33.788 -16.505-117.963  1.00  0.00     0.000 A 
ENDBRANCH   8  15
BRANCH   8  21
ATOM     21  N   UNL     1      32.936 -17.555-113.207  1.00  0.00    -0.319 N 
ATOM     22  C   UNL     1      32.542 -17.957-111.967  1.00  0.00     0.109 A 
ATOM     23  C   UNL     1      33.813 -18.458-113.646  1.00  0.00     0.200 A 
ATOM     24  C   UNL     1      33.194 -19.127-111.646  1.00  0.00     0.131 A 
ATOM     25  N   UNL     1      33.965 -19.412-112.690  1.00  0.00    -0.245 NA
ENDBRANCH   8  21
ENDBRANCH   7   8
TORSDOF 4
ENDMDL
MODEL 7
REMARK VINA RESULT:      -6.7      1.465      3.573
REMARK SMILES Clc1ccccc1C(c1ccccc1)(c1ccccc1)n1ccnc1
REMARK SMILES IDX 1 1 2 2 3 3 4 4 5 5 6 6 7 7 8 8 9 9 10 10 14 11 11 12 13 13
REMARK SMILES IDX 12 14 15 15 16 16 20 17 17 18 19 19 18 20 21 21 22 22 25 23
REMARK SMILES IDX 23 24 24 25
REMARK H PARENT
ROOT
ATOM      1  Cl  UNL     1      32.188 -17.491-110.952  1.00  0.00    -0.084 Cl
ATOM      2  C   UNL     1      32.450 -18.708-112.181  1.00  0.00     0.047 A 
ATOM      3  C   UNL     1      32.528 -20.045-111.866  1.00  0.00     0.021 A 
ATOM      4  C   UNL     1      32.701 -21.010-112.835  1.00  0.00     0.002 A 
ATOM      5  C   UNL     1      32.795 -20.600-114.142  1.00  0.00     0.001 A 
ATOM      6  C   UNL     1      32.716 -19.238-114.462  1.00  0.00     0.008 A 
ATOM      7  C   UNL     1      32.546 -18.291-113.499  1.00  0.00     0.006 A 
ENDROOT
BRANCH   7   8
ATOM      8  C   UNL     1      32.489 -16.849-113.859  1.00  0.00     0.123 C 
BRANCH   8   9
ATOM      9  C   UNL     1      31.105 -16.366-113.592  1.00  0.00    -0.013 A 
ATOM     10  C   UNL     1      30.036 -17.146-113.294  1.00  0.00     0.007 A 
ATOM     11  C   UNL     1      30.946 -14.968-113.651  1.00  0.00     0.007 A 
ATOM     12  C   UNL     1      28.809 -16.553-113.054  1.00  0.00     0.000 A 
ATOM     13  C   UNL     1      29.727 -14.389-113.411  1.00  0.00     0.000 A 
ATOM     14  C   UNL     1      28.637 -15.170-113.108  1.00  0.00     0.000 A 
ENDBRANCH   8   9
BRANCH   8  15
ATOM     15  C   UNL     1      32.660 -16.651-115.324  1.00  0.00    -0.013 A 
ATOM     16  C   UNL     1      33.700 -15.947-115.873  1.00  0.00     0.007 A 
ATOM     17  C   UNL     1      31.746 -17.222-116.172  1.00  0.00     0.007 A 
ATOM     18  C   UNL     1      33.847 -15.798-117.247  1.00  0.00     0.000 A 
ATOM     19  C   UNL     1      31.874 -17.084-117.565  1.00  0.00     0.000 A 
ATOM     20  C   UNL     1      32.922 -16.375-118.083  1.00  0.00     0.000 A 
ENDBRANCH   8  15
BRANCH   8  21
ATOM     21  N   UNL     1      33.504 -16.124-113.154  1.00  0.00    -0.319 N 
ATOM     22  C   UNL     1      34.795 -16.521-112.981  1.00  0.00     0.109 A 
ATOM     23  C   UNL     1      33.383 -14.935-112.563  1.00  0.00     0.200 A 
ATOM     24  C   UNL     1      35.471 -15.555-112.270  1.00  0.00     0.131 A 
ATOM     25  N   UNL     1      34.585 -14.596-112.027  1.00  0.00    -0.245 NA
ENDBRANCH   8  21
ENDBRANCH   7   8
TORSDOF 4
ENDMDL
MODEL 8
REMARK VINA RESULT:      -6.7      0.583      1.615
REMARK SMILES Clc1ccccc1C(c1ccccc1)(c1ccccc1)n1ccnc1
REMARK SMILES IDX 1 1 2 2 3 3 4 4 5 5 6 6 7 7 8 8 9 9 10 10 14 11 11 12 13 13
REMARK SMILES IDX 12 14 15 15 16 16 20 17 17 18 19 19 18 20 21 21 22 22 25 23
REMARK SMILES IDX 23 24 24 25
REMARK H PARENT
ROOT
ATOM      1  Cl  UNL     1      32.136 -17.167-111.077  1.00  0.00    -0.084 Cl
ATOM      2  C   UNL     1      30.850 -16.939-112.241  1.00  0.00     0.047 A 
ATOM      3  C   UNL     1      29.532 -16.862-111.854  1.00  0.00     0.021 A 
ATOM      4  C   UNL     1      28.520 -16.650-112.765  1.00  0.00     0.002 A 
ATOM      5  C   UNL     1      28.861 -16.516-114.088  1.00  0.00     0.001 A 
ATOM      6  C   UNL     1      30.204 -16.595-114.481  1.00  0.00     0.008 A 
ATOM      7  C   UNL     1      31.198 -16.805-113.576  1.00  0.00     0.006 A 
ENDROOT
BRANCH   7   8
ATOM      8  C   UNL     1      32.614 -16.911-114.020  1.00  0.00     0.123 C 
BRANCH   8   9
ATOM      9  C   UNL     1      33.374 -15.793-113.391  1.00  0.00    -0.013 A 
ATOM     10  C   UNL     1      33.002 -14.489-113.379  1.00  0.00     0.007 A 
ATOM     11  C   UNL     1      34.568 -16.178-112.753  1.00  0.00     0.007 A 
ATOM     12  C   UNL     1      33.803 -13.560-112.739  1.00  0.00     0.000 A 
ATOM     13  C   UNL     1      35.356 -15.251-112.121  1.00  0.00     0.000 A 
ATOM     14  C   UNL     1      34.989 -13.927-112.103  1.00  0.00     0.000 A 
ENDBRANCH   8   9
BRANCH   8  15
ATOM     15  C   UNL     1      32.743 -16.653-115.480  1.00  0.00    -0.013 A 
ATOM     16  C   UNL     1      33.607 -15.730-116.008  1.00  0.00     0.007 A 
ATOM     17  C   UNL     1      31.978 -17.392-116.345  1.00  0.00     0.007 A 
ATOM     18  C   UNL     1      33.723 -15.526-117.378  1.00  0.00     0.000 A 
ATOM     19  C   UNL     1      32.078 -17.204-117.734  1.00  0.00     0.000 A 
ATOM     20  C   UNL     1      32.948 -16.274-118.232  1.00  0.00     0.000 A 
ENDBRANCH   8  15
BRANCH   8  21
ATOM     21  N   UNL     1      33.132 -18.211-113.713  1.00  0.00    -0.319 N 
ATOM     22  C   UNL     1      32.392 -19.319-113.432  1.00  0.00     0.109 A 
ATOM     23  C   UNL     1      34.412 -18.579-113.668  1.00  0.00     0.200 A 
ATOM     24  C   UNL     1      33.240 -20.381-113.210  1.00  0.00     0.131 A 
ATOM     25  N   UNL     1      34.469 -19.901-113.360  1.00  0.00    -0.245 NA
ENDBRANCH   8  21
ENDBRANCH   7   8
TORSDOF 4
ENDMDL
MODEL 9
REMARK VINA RESULT:      -6.7      1.424      3.625
REMARK SMILES Clc1ccccc1C(c1ccccc1)(c1ccccc1)n1ccnc1
REMARK SMILES IDX 1 1 2 2 3 3 4 4 5 5 6 6 7 7 8 8 9 9 10 10 14 11 11 12 13 13
REMARK SMILES IDX 12 14 15 15 16 16 20 17 17 18 19 19 18 20 21 21 22 22 25 23
REMARK SMILES IDX 23 24 24 25
REMARK H PARENT
ROOT
ATOM      1  Cl  UNL     1      31.845 -17.687-111.159  1.00  0.00    -0.084 Cl
ATOM      2  C   UNL     1      32.364 -18.849-112.360  1.00  0.00     0.047 A 
ATOM      3  C   UNL     1      32.562 -20.173-112.044  1.00  0.00     0.021 A 
ATOM      4  C   UNL     1      32.939 -21.097-112.994  1.00  0.00     0.002 A 
ATOM      5  C   UNL     1      33.115 -20.660-114.283  1.00  0.00     0.001 A 
ATOM      6  C   UNL     1      32.912 -19.311-114.605  1.00  0.00     0.008 A 
ATOM      7  C   UNL     1      32.541 -18.404-113.660  1.00  0.00     0.006 A 
ENDROOT
BRANCH   7   8
ATOM      8  C   UNL     1      32.357 -16.972-114.020  1.00  0.00     0.123 C 
BRANCH   8   9
ATOM      9  C   UNL     1      30.918 -16.635-113.825  1.00  0.00    -0.013 A 
ATOM     10  C   UNL     1      29.883 -17.508-113.890  1.00  0.00     0.007 A 
ATOM     11  C   UNL     1      30.664 -15.281-113.536  1.00  0.00     0.007 A 
ATOM     12  C   UNL     1      28.595 -17.052-113.670  1.00  0.00     0.000 A 
ATOM     13  C   UNL     1      29.385 -14.838-113.320  1.00  0.00     0.000 A 
ATOM     14  C   UNL     1      28.328 -15.714-113.383  1.00  0.00     0.000 A 
ENDBRANCH   8   9
BRANCH   8  15
ATOM     15  C   UNL     1      32.583 -16.746-115.473  1.00  0.00    -0.013 A 
ATOM     16  C   UNL     1      31.760 -17.243-116.449  1.00  0.00     0.007 A 
ATOM     17  C   UNL     1      33.655 -15.983-115.857  1.00  0.00     0.007 A 
ATOM     18  C   UNL     1      31.982 -16.996-117.799  1.00  0.00     0.000 A 
ATOM     19  C   UNL     1      33.901 -15.720-117.216  1.00  0.00     0.000 A 
ATOM     20  C   UNL     1      33.062 -16.230-118.167  1.00  0.00     0.000 A 
ENDBRANCH   8  15
BRANCH   8  21
ATOM     21  N   UNL     1      33.254 -16.153-113.260  1.00  0.00    -0.319 N 
ATOM     22  C   UNL     1      34.524 -16.484-112.897  1.00  0.00     0.109 A 
ATOM     23  C   UNL     1      33.026 -14.926-112.793  1.00  0.00     0.200 A 
ATOM     24  C   UNL     1      35.077 -15.438-112.193  1.00  0.00     0.131 A 
ATOM     25  N   UNL     1      34.141 -14.498-112.144  1.00  0.00    -0.245 NA
ENDBRANCH   8  21
ENDBRANCH   7   8
TORSDOF 4
ENDMDL
