MODEL 1
REMARK VINA RESULT:      -5.8      0.000      0.000
REMARK SMILES Clc1ccc(COC(Cn2ccnc2)c2ccc(Cl)cc2Cl)c(Cl)c1
REMARK SMILES IDX 7 1 6 2 5 3 2 4 3 5 25 6 4 7 23 8 1 9 24 10 8 11 9 12 10 13
REMARK SMILES IDX 11 14 14 15 12 16 13 17 15 18 16 19 21 20 17 21 20 22 18 23
REMARK SMILES IDX 22 24 19 25
REMARK H PARENT
ROOT
ATOM      1  O   UNL     1     -23.540  21.193  13.250  1.00  0.00    -0.367 OA
ENDROOT
BRANCH   1   2
ATOM      2  C   UNL     1     -22.948  21.015  12.059  1.00  0.00     0.198 C 
BRANCH   2   3
ATOM      3  C   UNL     1     -22.515  22.266  11.398  1.00  0.00    -0.004 A 
ATOM      4  C   UNL     1     -21.403  24.607  10.242  1.00  0.00     0.042 A 
ATOM      5  C   UNL     1     -20.666  23.446  10.396  1.00  0.00     0.021 A 
ATOM      6  C   UNL     1     -22.705  24.566  10.678  1.00  0.00     0.041 A 
ATOM      7  C   UNL     1     -21.183  22.301  10.953  1.00  0.00     0.009 A 
ATOM      8  C   UNL     1     -23.247  23.403  11.248  1.00  0.00     0.048 A 
ATOM      9  Cl  UNL     1     -20.713  26.060   9.533  1.00  0.00    -0.084 Cl
ATOM     10  Cl  UNL     1     -24.949  23.380  11.697  1.00  0.00    -0.084 Cl
ENDBRANCH   2   3
ENDBRANCH   1   2
BRANCH   1  11
ATOM     11  C   UNL     1     -23.058  20.954  14.453  1.00  0.00     0.170 C 
BRANCH  11  12
ATOM     12  C   UNL     1     -21.599  20.467  14.276  1.00  0.00     0.160 C 
BRANCH  12  13
ATOM     13  N   UNL     1     -21.494  19.146  14.813  1.00  0.00    -0.335 N 
ATOM     14  C   UNL     1     -20.814  18.751  15.901  1.00  0.00     0.107 A 
ATOM     15  C   UNL     1     -22.097  18.072  14.263  1.00  0.00     0.199 A 
ATOM     16  C   UNL     1     -21.022  17.391  15.998  1.00  0.00     0.130 A 
ATOM     17  N   UNL     1     -21.810  16.999  14.984  1.00  0.00    -0.245 NA
ENDBRANCH  12  13
ENDBRANCH  11  12
BRANCH  11  18
ATOM     18  C   UNL     1     -23.012  22.197  15.324  1.00  0.00     0.001 A 
ATOM     19  C   UNL     1     -22.687  23.427  14.804  1.00  0.00     0.009 A 
ATOM     20  C   UNL     1     -23.293  22.103  16.663  1.00  0.00     0.048 A 
ATOM     21  C   UNL     1     -22.648  24.552  15.639  1.00  0.00     0.021 A 
ATOM     22  C   UNL     1     -23.259  23.215  17.501  1.00  0.00     0.041 A 
ATOM     23  C   UNL     1     -22.933  24.453  16.981  1.00  0.00     0.042 A 
ATOM     24  Cl  UNL     1     -23.704  20.524  17.307  1.00  0.00    -0.084 Cl
ATOM     25  Cl  UNL     1     -22.882  25.861  18.030  1.00  0.00    -0.084 Cl
ENDBRANCH  11  18
ENDBRANCH   1  11
TORSDOF 6
ENDMDL
MODEL 2
REMARK VINA RESULT:      -5.6      3.255      5.835
REMARK SMILES Clc1ccc(COC(Cn2ccnc2)c2ccc(Cl)cc2Cl)c(Cl)c1
REMARK SMILES IDX 7 1 6 2 5 3 2 4 3 5 25 6 4 7 23 8 1 9 24 10 8 11 9 12 10 13
REMARK SMILES IDX 11 14 14 15 12 16 13 17 15 18 16 19 21 20 17 21 20 22 18 23
REMARK SMILES IDX 22 24 19 25
REMARK H PARENT
ROOT
ATOM      1  O   UNL     1     -23.554  20.529  11.246  1.00  0.00    -0.367 OA
ENDROOT
BRANCH   1   2
ATOM      2  C   UNL     1     -24.853  20.199  11.316  1.00  0.00     0.198 C 
BRANCH   2   3
ATOM      3  C   UNL     1     -25.195  18.917  10.661  1.00  0.00    -0.004 A 
ATOM      4  C   UNL     1     -25.669  16.322   9.615  1.00  0.00     0.042 A 
ATOM      5  C   UNL     1     -25.456  16.539  10.965  1.00  0.00     0.021 A 
ATOM      6  C   UNL     1     -25.639  17.432   8.806  1.00  0.00     0.041 A 
ATOM      7  C   UNL     1     -25.224  17.786  11.493  1.00  0.00     0.009 A 
ATOM      8  C   UNL     1     -25.405  18.712   9.333  1.00  0.00     0.048 A 
ATOM      9  Cl  UNL     1     -25.956  14.714   8.964  1.00  0.00    -0.084 Cl
ATOM     10  Cl  UNL     1     -25.478  20.107   8.261  1.00  0.00    -0.084 Cl
ENDBRANCH   2   3
ENDBRANCH   1   2
BRANCH   1  11
ATOM     11  C   UNL     1     -22.857  21.302  12.054  1.00  0.00     0.170 C 
BRANCH  11  12
ATOM     12  C   UNL     1     -21.604  20.501  12.490  1.00  0.00     0.160 C 
BRANCH  12  13
ATOM     13  N   UNL     1     -21.733  20.180  13.878  1.00  0.00    -0.335 N 
ATOM     14  C   UNL     1     -21.478  19.007  14.478  1.00  0.00     0.107 A 
ATOM     15  C   UNL     1     -22.153  21.063  14.807  1.00  0.00     0.199 A 
ATOM     16  C   UNL     1     -21.758  19.203  15.814  1.00  0.00     0.130 A 
ATOM     17  N   UNL     1     -22.169  20.469  15.991  1.00  0.00    -0.245 NA
ENDBRANCH  12  13
ENDBRANCH  11  12
BRANCH  11  18
ATOM     18  C   UNL     1     -22.363  22.567  11.374  1.00  0.00     0.001 A 
ATOM     19  C   UNL     1     -21.116  22.635  10.800  1.00  0.00     0.009 A 
ATOM     20  C   UNL     1     -23.168  23.676  11.329  1.00  0.00     0.048 A 
ATOM     21  C   UNL     1     -20.692  23.821  10.185  1.00  0.00     0.021 A 
ATOM     22  C   UNL     1     -22.757  24.860  10.719  1.00  0.00     0.041 A 
ATOM     23  C   UNL     1     -21.503  24.930  10.141  1.00  0.00     0.042 A 
ATOM     24  Cl  UNL     1     -24.755  23.571  12.069  1.00  0.00    -0.084 Cl
ATOM     25  Cl  UNL     1     -20.973  26.419   9.374  1.00  0.00    -0.084 Cl
ENDBRANCH  11  18
ENDBRANCH   1  11
TORSDOF 6
ENDMDL
MODEL 3
REMARK VINA RESULT:      -5.5      2.803      6.616
REMARK SMILES Clc1ccc(COC(Cn2ccnc2)c2ccc(Cl)cc2Cl)c(Cl)c1
REMARK SMILES IDX 7 1 6 2 5 3 2 4 3 5 25 6 4 7 23 8 1 9 24 10 8 11 9 12 10 13
REMARK SMILES IDX 11 14 14 15 12 16 13 17 15 18 16 19 21 20 17 21 20 22 18 23
REMARK SMILES IDX 22 24 19 25
REMARK H PARENT
ROOT
ATOM      1  O   UNL     1     -22.489  20.517  14.752  1.00  0.00    -0.367 OA
ENDROOT
BRANCH   1   2
ATOM      2  C   UNL     1     -22.520  19.391  14.022  1.00  0.00     0.198 C 
BRANCH   2   3
ATOM      3  C   UNL     1     -21.872  18.227  14.667  1.00  0.00    -0.004 A 
ATOM      4  C   UNL     1     -20.369  16.155  15.891  1.00  0.00     0.042 A 
ATOM      5  C   UNL     1     -20.069  17.491  16.088  1.00  0.00     0.021 A 
ATOM      6  C   UNL     1     -21.437  15.884  15.070  1.00  0.00     0.041 A 
ATOM      7  C   UNL     1     -20.783  18.511  15.505  1.00  0.00     0.009 A 
ATOM      8  C   UNL     1     -22.175  16.915  14.470  1.00  0.00     0.048 A 
ATOM      9  Cl  UNL     1     -19.434  14.870  16.643  1.00  0.00    -0.084 Cl
ATOM     10  Cl  UNL     1     -23.593  16.508  13.508  1.00  0.00    -0.084 Cl
ENDBRANCH   2   3
ENDBRANCH   1   2
BRANCH   1  11
ATOM     11  C   UNL     1     -22.884  21.729  14.414  1.00  0.00     0.170 C 
BRANCH  11  12
ATOM     12  C   UNL     1     -22.744  22.625  15.669  1.00  0.00     0.160 C 
BRANCH  12  13
ATOM     13  N   UNL     1     -24.055  22.946  16.144  1.00  0.00    -0.335 N 
ATOM     14  C   UNL     1     -24.405  23.369  17.369  1.00  0.00     0.107 A 
ATOM     15  C   UNL     1     -25.162  22.856  15.380  1.00  0.00     0.199 A 
ATOM     16  C   UNL     1     -25.774  23.535  17.328  1.00  0.00     0.130 A 
ATOM     17  N   UNL     1     -26.214  23.215  16.101  1.00  0.00    -0.245 NA
ENDBRANCH  12  13
ENDBRANCH  11  12
BRANCH  11  18
ATOM     18  C   UNL     1     -22.021  22.344  13.327  1.00  0.00     0.001 A 
ATOM     19  C   UNL     1     -20.694  22.631  13.539  1.00  0.00     0.009 A 
ATOM     20  C   UNL     1     -22.567  22.630  12.102  1.00  0.00     0.048 A 
ATOM     21  C   UNL     1     -19.928  23.204  12.514  1.00  0.00     0.021 A 
ATOM     22  C   UNL     1     -21.815  23.199  11.076  1.00  0.00     0.041 A 
ATOM     23  C   UNL     1     -20.480  23.488  11.287  1.00  0.00     0.042 A 
ATOM     24  Cl  UNL     1     -24.263  22.259  11.851  1.00  0.00    -0.084 Cl
ATOM     25  Cl  UNL     1     -19.524  24.209  10.002  1.00  0.00    -0.084 Cl
ENDBRANCH  11  18
ENDBRANCH   1  11
TORSDOF 6
ENDMDL
MODEL 4
REMARK VINA RESULT:      -5.5      2.657      6.110
REMARK SMILES Clc1ccc(COC(Cn2ccnc2)c2ccc(Cl)cc2Cl)c(Cl)c1
REMARK SMILES IDX 7 1 6 2 5 3 2 4 3 5 25 6 4 7 23 8 1 9 24 10 8 11 9 12 10 13
REMARK SMILES IDX 11 14 14 15 12 16 13 17 15 18 16 19 21 20 17 21 20 22 18 23
REMARK SMILES IDX 22 24 19 25
REMARK H PARENT
ROOT
ATOM      1  O   UNL     1     -23.721  21.622  13.514  1.00  0.00    -0.367 OA
ENDROOT
BRANCH   1   2
ATOM      2  C   UNL     1     -22.663  21.807  14.319  1.00  0.00     0.198 C 
BRANCH   2   3
ATOM      3  C   UNL     1     -22.831  22.894  15.309  1.00  0.00    -0.004 A 
ATOM      4  C   UNL     1     -22.919  25.118  17.069  1.00  0.00     0.042 A 
ATOM      5  C   UNL     1     -22.548  25.248  15.742  1.00  0.00     0.021 A 
ATOM      6  C   UNL     1     -23.243  23.851  17.490  1.00  0.00     0.041 A 
ATOM      7  C   UNL     1     -22.498  24.186  14.872  1.00  0.00     0.009 A 
ATOM      8  C   UNL     1     -23.198  22.757  16.612  1.00  0.00     0.048 A 
ATOM      9  Cl  UNL     1     -22.966  26.494  18.162  1.00  0.00    -0.084 Cl
ATOM     10  Cl  UNL     1     -23.720  21.176  17.184  1.00  0.00    -0.084 Cl
ENDBRANCH   2   3
ENDBRANCH   1   2
BRANCH   1  11
ATOM     11  C   UNL     1     -23.751  21.545  12.198  1.00  0.00     0.170 C 
BRANCH  11  12
ATOM     12  C   UNL     1     -25.237  21.625  11.767  1.00  0.00     0.160 C 
BRANCH  12  13
ATOM     13  N   UNL     1     -25.392  20.905  10.541  1.00  0.00    -0.335 N 
ATOM     14  C   UNL     1     -24.686  19.846  10.114  1.00  0.00     0.107 A 
ATOM     15  C   UNL     1     -26.315  21.218   9.609  1.00  0.00     0.199 A 
ATOM     16  C   UNL     1     -25.212  19.519   8.882  1.00  0.00     0.130 A 
ATOM     17  N   UNL     1     -26.207  20.374   8.594  1.00  0.00    -0.245 NA
ENDBRANCH  12  13
ENDBRANCH  11  12
BRANCH  11  18
ATOM     18  C   UNL     1     -23.028  22.698  11.526  1.00  0.00     0.001 A 
ATOM     19  C   UNL     1     -23.652  23.900  11.292  1.00  0.00     0.009 A 
ATOM     20  C   UNL     1     -21.722  22.549  11.134  1.00  0.00     0.048 A 
ATOM     21  C   UNL     1     -22.955  24.941  10.665  1.00  0.00     0.021 A 
ATOM     22  C   UNL     1     -21.019  23.578  10.511  1.00  0.00     0.041 A 
ATOM     23  C   UNL     1     -21.645  24.787  10.275  1.00  0.00     0.042 A 
ATOM     24  Cl  UNL     1     -20.943  21.007  11.440  1.00  0.00    -0.084 Cl
ATOM     25  Cl  UNL     1     -20.769  26.089   9.486  1.00  0.00    -0.084 Cl
ENDBRANCH  11  18
ENDBRANCH   1  11
TORSDOF 6
ENDMDL
MODEL 5
REMARK VINA RESULT:      -5.5      3.105      4.314
REMARK SMILES Clc1ccc(COC(Cn2ccnc2)c2ccc(Cl)cc2Cl)c(Cl)c1
REMARK SMILES IDX 7 1 6 2 5 3 2 4 3 5 25 6 4 7 23 8 1 9 24 10 8 11 9 12 10 13
REMARK SMILES IDX 11 14 14 15 12 16 13 17 15 18 16 19 21 20 17 21 20 22 18 23
REMARK SMILES IDX 22 24 19 25
REMARK H PARENT
ROOT
ATOM      1  O   UNL     1     -22.522  24.909  12.025  1.00  0.00    -0.367 OA
ENDROOT
BRANCH   1   2
ATOM      2  C   UNL     1     -23.166  24.740  10.860  1.00  0.00     0.198 C 
BRANCH   2   3
ATOM      3  C   UNL     1     -24.046  25.867  10.478  1.00  0.00    -0.004 A 
ATOM      4  C   UNL     1     -25.621  28.177   9.988  1.00  0.00     0.042 A 
ATOM      5  C   UNL     1     -24.356  28.257  10.543  1.00  0.00     0.021 A 
ATOM      6  C   UNL     1     -26.075  26.916   9.686  1.00  0.00     0.041 A 
ATOM      7  C   UNL     1     -23.576  27.152  10.789  1.00  0.00     0.009 A 
ATOM      8  C   UNL     1     -25.289  25.779   9.930  1.00  0.00     0.048 A 
ATOM      9  Cl  UNL     1     -26.600  29.606   9.692  1.00  0.00    -0.084 Cl
ATOM     10  Cl  UNL     1     -25.884  24.199   9.430  1.00  0.00    -0.084 Cl
ENDBRANCH   2   3
ENDBRANCH   1   2
BRANCH   1  11
ATOM     11  C   UNL     1     -22.788  24.370  13.198  1.00  0.00     0.170 C 
BRANCH  11  12
ATOM     12  C   UNL     1     -21.486  23.697  13.701  1.00  0.00     0.160 C 
BRANCH  12  13
ATOM     13  N   UNL     1     -21.430  22.369  13.174  1.00  0.00    -0.335 N 
ATOM     14  C   UNL     1     -22.081  21.281  13.614  1.00  0.00     0.107 A 
ATOM     15  C   UNL     1     -20.673  22.025  12.113  1.00  0.00     0.199 A 
ATOM     16  C   UNL     1     -21.694  20.252  12.781  1.00  0.00     0.130 A 
ATOM     17  N   UNL     1     -20.832  20.732  11.870  1.00  0.00    -0.245 NA
ENDBRANCH  12  13
ENDBRANCH  11  12
BRANCH  11  18
ATOM     18  C   UNL     1     -23.190  25.399  14.239  1.00  0.00     0.001 A 
ATOM     19  C   UNL     1     -22.255  26.031  15.025  1.00  0.00     0.009 A 
ATOM     20  C   UNL     1     -24.514  25.712  14.414  1.00  0.00     0.048 A 
ATOM     21  C   UNL     1     -22.663  26.972  15.980  1.00  0.00     0.021 A 
ATOM     22  C   UNL     1     -24.930  26.648  15.360  1.00  0.00     0.041 A 
ATOM     23  C   UNL     1     -23.991  27.284  16.150  1.00  0.00     0.042 A 
ATOM     24  Cl  UNL     1     -25.692  24.895  13.404  1.00  0.00    -0.084 Cl
ATOM     25  Cl  UNL     1     -24.506  28.461  17.348  1.00  0.00    -0.084 Cl
ENDBRANCH  11  18
ENDBRANCH   1  11
TORSDOF 6
ENDMDL
MODEL 6
REMARK VINA RESULT:      -5.4      1.458      1.920
REMARK SMILES Clc1ccc(COC(Cn2ccnc2)c2ccc(Cl)cc2Cl)c(Cl)c1
REMARK SMILES IDX 7 1 6 2 5 3 2 4 3 5 25 6 4 7 23 8 1 9 24 10 8 11 9 12 10 13
REMARK SMILES IDX 11 14 14 15 12 16 13 17 15 18 16 19 21 20 17 21 20 22 18 23
REMARK SMILES IDX 22 24 19 25
REMARK H PARENT
ROOT
ATOM      1  O   UNL     1     -24.059  22.426  13.054  1.00  0.00    -0.367 OA
ENDROOT
BRANCH   1   2
ATOM      2  C   UNL     1     -23.559  22.249  11.821  1.00  0.00     0.198 C 
BRANCH   2   3
ATOM      3  C   UNL     1     -23.009  23.475  11.202  1.00  0.00    -0.004 A 
ATOM      4  C   UNL     1     -22.220  25.852   9.867  1.00  0.00     0.042 A 
ATOM      5  C   UNL     1     -23.533  25.620  10.234  1.00  0.00     0.021 A 
ATOM      6  C   UNL     1     -21.315  24.867  10.184  1.00  0.00     0.041 A 
ATOM      7  C   UNL     1     -23.938  24.477  10.881  1.00  0.00     0.009 A 
ATOM      8  C   UNL     1     -21.714  23.696  10.845  1.00  0.00     0.048 A 
ATOM      9  Cl  UNL     1     -21.731  27.320   9.033  1.00  0.00    -0.084 Cl
ATOM     10  Cl  UNL     1     -20.494  22.516  11.313  1.00  0.00    -0.084 Cl
ENDBRANCH   2   3
ENDBRANCH   1   2
BRANCH   1  11
ATOM     11  C   UNL     1     -23.620  21.939  14.197  1.00  0.00     0.170 C 
BRANCH  11  12
ATOM     12  C   UNL     1     -22.285  21.211  13.906  1.00  0.00     0.160 C 
BRANCH  12  13
ATOM     13  N   UNL     1     -22.489  19.805  14.075  1.00  0.00    -0.335 N 
ATOM     14  C   UNL     1     -23.655  19.141  14.103  1.00  0.00     0.107 A 
ATOM     15  C   UNL     1     -21.481  18.924  14.238  1.00  0.00     0.199 A 
ATOM     16  C   UNL     1     -23.324  17.815  14.291  1.00  0.00     0.130 A 
ATOM     17  N   UNL     1     -21.988  17.708  14.371  1.00  0.00    -0.245 NA
ENDBRANCH  12  13
ENDBRANCH  11  12
BRANCH  11  18
ATOM     18  C   UNL     1     -23.325  23.021  15.220  1.00  0.00     0.001 A 
ATOM     19  C   UNL     1     -22.882  24.266  14.842  1.00  0.00     0.009 A 
ATOM     20  C   UNL     1     -23.495  22.762  16.556  1.00  0.00     0.048 A 
ATOM     21  C   UNL     1     -22.614  25.239  15.815  1.00  0.00     0.021 A 
ATOM     22  C   UNL     1     -23.233  23.722  17.531  1.00  0.00     0.041 A 
ATOM     23  C   UNL     1     -22.788  24.975  17.153  1.00  0.00     0.042 A 
ATOM     24  Cl  UNL     1     -24.059  21.167  17.019  1.00  0.00    -0.084 Cl
ATOM     25  Cl  UNL     1     -22.450  26.192  18.375  1.00  0.00    -0.084 Cl
ENDBRANCH  11  18
ENDBRANCH   1  11
TORSDOF 6
ENDMDL
MODEL 7
REMARK VINA RESULT:      -5.4      3.897      7.438
REMARK SMILES Clc1ccc(COC(Cn2ccnc2)c2ccc(Cl)cc2Cl)c(Cl)c1
REMARK SMILES IDX 7 1 6 2 5 3 2 4 3 5 25 6 4 7 23 8 1 9 24 10 8 11 9 12 10 13
REMARK SMILES IDX 11 14 14 15 12 16 13 17 15 18 16 19 21 20 17 21 20 22 18 23
REMARK SMILES IDX 22 24 19 25
REMARK H PARENT
ROOT
ATOM      1  O   UNL     1     -23.533  25.322  12.673  1.00  0.00    -0.367 OA
ENDROOT
BRANCH   1   2
ATOM      2  C   UNL     1     -22.951  24.520  13.578  1.00  0.00     0.198 C 
BRANCH   2   3
ATOM      3  C   UNL     1     -23.058  24.995  14.975  1.00  0.00    -0.004 A 
ATOM      4  C   UNL     1     -23.128  26.163  17.561  1.00  0.00     0.042 A 
ATOM      5  C   UNL     1     -23.232  26.925  16.410  1.00  0.00     0.021 A 
ATOM      6  C   UNL     1     -22.989  24.808  17.385  1.00  0.00     0.041 A 
ATOM      7  C   UNL     1     -23.201  26.381  15.149  1.00  0.00     0.009 A 
ATOM      8  C   UNL     1     -22.957  24.239  16.103  1.00  0.00     0.048 A 
ATOM      9  Cl  UNL     1     -23.163  26.887  19.163  1.00  0.00    -0.084 Cl
ATOM     10  Cl  UNL     1     -22.877  22.487  15.942  1.00  0.00    -0.084 Cl
ENDBRANCH   2   3
ENDBRANCH   1   2
BRANCH   1  11
ATOM     11  C   UNL     1     -23.311  25.397  11.376  1.00  0.00     0.170 C 
BRANCH  11  12
ATOM     12  C   UNL     1     -22.684  24.050  10.938  1.00  0.00     0.160 C 
BRANCH  12  13
ATOM     13  N   UNL     1     -21.333  24.290  10.535  1.00  0.00    -0.335 N 
ATOM     14  C   UNL     1     -20.895  25.115   9.572  1.00  0.00     0.107 A 
ATOM     15  C   UNL     1     -20.271  23.681  11.103  1.00  0.00     0.199 A 
ATOM     16  C   UNL     1     -19.522  24.991   9.568  1.00  0.00     0.130 A 
ATOM     17  N   UNL     1     -19.164  24.107  10.514  1.00  0.00    -0.245 NA
ENDBRANCH  12  13
ENDBRANCH  11  12
BRANCH  11  18
ATOM     18  C   UNL     1     -24.587  25.577  10.573  1.00  0.00     0.001 A 
ATOM     19  C   UNL     1     -25.320  24.500  10.135  1.00  0.00     0.009 A 
ATOM     20  C   UNL     1     -25.027  26.840  10.266  1.00  0.00     0.048 A 
ATOM     21  C   UNL     1     -26.490  24.705   9.392  1.00  0.00     0.021 A 
ATOM     22  C   UNL     1     -26.190  27.054   9.529  1.00  0.00     0.041 A 
ATOM     23  C   UNL     1     -26.929  25.972   9.088  1.00  0.00     0.042 A 
ATOM     24  Cl  UNL     1     -24.078  28.201  10.832  1.00  0.00    -0.084 Cl
ATOM     25  Cl  UNL     1     -28.393  26.231   8.153  1.00  0.00    -0.084 Cl
ENDBRANCH  11  18
ENDBRANCH   1  11
TORSDOF 6
ENDMDL
MODEL 8
REMARK VINA RESULT:      -5.4      2.668      6.796
REMARK SMILES Clc1ccc(COC(Cn2ccnc2)c2ccc(Cl)cc2Cl)c(Cl)c1
REMARK SMILES IDX 7 1 6 2 5 3 2 4 3 5 25 6 4 7 23 8 1 9 24 10 8 11 9 12 10 13
REMARK SMILES IDX 11 14 14 15 12 16 13 17 15 18 16 19 21 20 17 21 20 22 18 23
REMARK SMILES IDX 22 24 19 25
REMARK H PARENT
ROOT
ATOM      1  O   UNL     1     -23.198  21.557  14.188  1.00  0.00    -0.367 OA
ENDROOT
BRANCH   1   2
ATOM      2  C   UNL     1     -23.459  20.815  15.276  1.00  0.00     0.198 C 
BRANCH   2   3
ATOM      3  C   UNL     1     -22.652  19.580  15.382  1.00  0.00    -0.004 A 
ATOM      4  C   UNL     1     -21.128  17.187  15.279  1.00  0.00     0.042 A 
ATOM      5  C   UNL     1     -21.099  18.119  14.256  1.00  0.00     0.021 A 
ATOM      6  C   UNL     1     -21.936  17.484  16.350  1.00  0.00     0.041 A 
ATOM      7  C   UNL     1     -21.828  19.283  14.284  1.00  0.00     0.009 A 
ATOM      8  C   UNL     1     -22.684  18.670  16.393  1.00  0.00     0.048 A 
ATOM      9  Cl  UNL     1     -20.191  15.702  15.213  1.00  0.00    -0.084 Cl
ATOM     10  Cl  UNL     1     -23.623  19.042  17.836  1.00  0.00    -0.084 Cl
ENDBRANCH   2   3
ENDBRANCH   1   2
BRANCH   1  11
ATOM     11  C   UNL     1     -23.213  22.869  14.064  1.00  0.00     0.170 C 
BRANCH  11  12
ATOM     12  C   UNL     1     -22.429  23.455  15.265  1.00  0.00     0.160 C 
BRANCH  12  13
ATOM     13  N   UNL     1     -22.956  24.751  15.560  1.00  0.00    -0.335 N 
ATOM     14  C   UNL     1     -24.164  25.055  16.060  1.00  0.00     0.107 A 
ATOM     15  C   UNL     1     -22.268  25.894  15.359  1.00  0.00     0.199 A 
ATOM     16  C   UNL     1     -24.192  26.430  16.159  1.00  0.00     0.130 A 
ATOM     17  N   UNL     1     -23.021  26.921  15.723  1.00  0.00    -0.245 NA
ENDBRANCH  12  13
ENDBRANCH  11  12
BRANCH  11  18
ATOM     18  C   UNL     1     -22.517  23.346  12.802  1.00  0.00     0.001 A 
ATOM     19  C   UNL     1     -21.292  22.849  12.424  1.00  0.00     0.009 A 
ATOM     20  C   UNL     1     -23.111  24.298  12.013  1.00  0.00     0.048 A 
ATOM     21  C   UNL     1     -20.677  23.317  11.255  1.00  0.00     0.021 A 
ATOM     22  C   UNL     1     -22.509  24.769  10.848  1.00  0.00     0.041 A 
ATOM     23  C   UNL     1     -21.277  24.270  10.466  1.00  0.00     0.042 A 
ATOM     24  Cl  UNL     1     -24.673  24.921  12.512  1.00  0.00    -0.084 Cl
ATOM     25  Cl  UNL     1     -20.507  24.860   9.002  1.00  0.00    -0.084 Cl
ENDBRANCH  11  18
ENDBRANCH   1  11
TORSDOF 6
ENDMDL
MODEL 9
REMARK VINA RESULT:      -5.4      6.000      9.475
REMARK SMILES Clc1ccc(COC(Cn2ccnc2)c2ccc(Cl)cc2Cl)c(Cl)c1
REMARK SMILES IDX 7 1 6 2 5 3 2 4 3 5 25 6 4 7 23 8 1 9 24 10 8 11 9 12 10 13
REMARK SMILES IDX 11 14 14 15 12 16 13 17 15 18 16 19 21 20 17 21 20 22 18 23
REMARK SMILES IDX 22 24 19 25
REMARK H PARENT
ROOT
ATOM      1  O   UNL     1     -25.861  26.086   9.171  1.00  0.00    -0.367 OA
ENDROOT
BRANCH   1   2
ATOM      2  C   UNL     1     -25.334  25.762  10.362  1.00  0.00     0.198 C 
BRANCH   2   3
ATOM      3  C   UNL     1     -23.888  25.453  10.327  1.00  0.00    -0.004 A 
ATOM      4  C   UNL     1     -21.123  24.926   9.960  1.00  0.00     0.042 A 
ATOM      5  C   UNL     1     -21.788  25.892   9.226  1.00  0.00     0.021 A 
ATOM      6  C   UNL     1     -21.875  24.234  10.879  1.00  0.00     0.041 A 
ATOM      7  C   UNL     1     -23.126  26.164   9.387  1.00  0.00     0.009 A 
ATOM      8  C   UNL     1     -23.241  24.502  11.055  1.00  0.00     0.048 A 
ATOM      9  Cl  UNL     1     -19.413  24.593   9.729  1.00  0.00    -0.084 Cl
ATOM     10  Cl  UNL     1     -24.128  23.652  12.316  1.00  0.00    -0.084 Cl
ENDBRANCH   2   3
ENDBRANCH   1   2
BRANCH   1  11
ATOM     11  C   UNL     1     -27.063  25.815   8.701  1.00  0.00     0.170 C 
BRANCH  11  12
ATOM     12  C   UNL     1     -27.719  27.163   8.309  1.00  0.00     0.160 C 
BRANCH  12  13
ATOM     13  N   UNL     1     -27.994  27.896   9.506  1.00  0.00    -0.335 N 
ATOM     14  C   UNL     1     -28.778  27.531  10.533  1.00  0.00     0.107 A 
ATOM     15  C   UNL     1     -27.476  29.114   9.765  1.00  0.00     0.199 A 
ATOM     16  C   UNL     1     -28.721  28.573  11.434  1.00  0.00     0.130 A 
ATOM     17  N   UNL     1     -27.918  29.531  10.942  1.00  0.00    -0.245 NA
ENDBRANCH  12  13
ENDBRANCH  11  12
BRANCH  11  18
ATOM     18  C   UNL     1     -27.023  24.958   7.449  1.00  0.00     0.001 A 
ATOM     19  C   UNL     1     -26.934  25.518   6.197  1.00  0.00     0.009 A 
ATOM     20  C   UNL     1     -27.081  23.592   7.555  1.00  0.00     0.048 A 
ATOM     21  C   UNL     1     -26.905  24.695   5.062  1.00  0.00     0.021 A 
ATOM     22  C   UNL     1     -27.052  22.765   6.434  1.00  0.00     0.041 A 
ATOM     23  C   UNL     1     -26.962  23.325   5.174  1.00  0.00     0.042 A 
ATOM     24  Cl  UNL     1     -27.196  22.897   9.161  1.00  0.00    -0.084 Cl
ATOM     25  Cl  UNL     1     -26.929  22.292   3.754  1.00  0.00    -0.084 Cl
ENDBRANCH  11  18
ENDBRANCH   1  11
TORSDOF 6
ENDMDL
