MODEL 1
REMARK VINA RESULT:      -6.0      0.000      0.000
REMARK SMILES Clc1ccccc1C(c1ccccc1)(c1ccccc1)n1ccnc1
REMARK SMILES IDX 1 1 2 2 3 3 4 4 5 5 6 6 7 7 8 8 9 9 10 10 14 11 11 12 13 13
REMARK SMILES IDX 12 14 15 15 16 16 20 17 17 18 19 19 18 20 21 21 22 22 25 23
REMARK SMILES IDX 23 24 24 25
REMARK H PARENT
ROOT
ATOM      1  Cl  UNL     1     -24.872  22.546  14.591  1.00  0.00    -0.084 Cl
ATOM      2  C   UNL     1     -25.355  22.819  12.932  1.00  0.00     0.047 A 
ATOM      3  C   UNL     1     -26.640  22.571  12.505  1.00  0.00     0.021 A 
ATOM      4  C   UNL     1     -27.033  22.816  11.207  1.00  0.00     0.002 A 
ATOM      5  C   UNL     1     -26.099  23.320  10.335  1.00  0.00     0.001 A 
ATOM      6  C   UNL     1     -24.791  23.572  10.771  1.00  0.00     0.008 A 
ATOM      7  C   UNL     1     -24.411  23.326  12.054  1.00  0.00     0.006 A 
ENDROOT
BRANCH   7   8
ATOM      8  C   UNL     1     -23.009  23.578  12.487  1.00  0.00     0.123 C 
BRANCH   8   9
ATOM      9  C   UNL     1     -23.032  24.687  13.483  1.00  0.00    -0.013 A 
ATOM     10  C   UNL     1     -22.126  24.882  14.474  1.00  0.00     0.007 A 
ATOM     11  C   UNL     1     -24.098  25.594  13.332  1.00  0.00     0.007 A 
ATOM     12  C   UNL     1     -22.267  25.969  15.318  1.00  0.00     0.000 A 
ATOM     13  C   UNL     1     -24.229  26.669  14.172  1.00  0.00     0.000 A 
ATOM     14  C   UNL     1     -23.317  26.876  15.179  1.00  0.00     0.000 A 
ENDBRANCH   8   9
BRANCH   8  15
ATOM     15  C   UNL     1     -22.187  24.117  11.371  1.00  0.00    -0.013 A 
ATOM     16  C   UNL     1     -22.505  25.261  10.686  1.00  0.00     0.007 A 
ATOM     17  C   UNL     1     -21.039  23.452  11.022  1.00  0.00     0.007 A 
ATOM     18  C   UNL     1     -21.705  25.755   9.662  1.00  0.00     0.000 A 
ATOM     19  C   UNL     1     -20.216  23.932   9.990  1.00  0.00     0.000 A 
ATOM     20  C   UNL     1     -20.559  25.076   9.324  1.00  0.00     0.000 A 
ENDBRANCH   8  15
BRANCH   8  21
ATOM     21  N   UNL     1     -22.420  22.368  12.978  1.00  0.00    -0.319 N 
ATOM     22  C   UNL     1     -22.500  21.144  12.387  1.00  0.00     0.109 A 
ATOM     23  C   UNL     1     -21.677  22.220  14.075  1.00  0.00     0.200 A 
ATOM     24  C   UNL     1     -21.793  20.234  13.141  1.00  0.00     0.131 A 
ATOM     25  N   UNL     1     -21.299  20.918  14.167  1.00  0.00    -0.245 NA
ENDBRANCH   8  21
ENDBRANCH   7   8
TORSDOF 4
ENDMDL
MODEL 2
REMARK VINA RESULT:      -5.9      2.046      4.240
REMARK SMILES Clc1ccccc1C(c1ccccc1)(c1ccccc1)n1ccnc1
REMARK SMILES IDX 1 1 2 2 3 3 4 4 5 5 6 6 7 7 8 8 9 9 10 10 14 11 11 12 13 13
REMARK SMILES IDX 12 14 15 15 16 16 20 17 17 18 19 19 18 20 21 21 22 22 25 23
REMARK SMILES IDX 23 24 24 25
REMARK H PARENT
ROOT
ATOM      1  Cl  UNL     1     -24.909  27.080  11.798  1.00  0.00    -0.084 Cl
ATOM      2  C   UNL     1     -23.508  26.660  10.838  1.00  0.00     0.047 A 
ATOM      3  C   UNL     1     -22.959  27.544   9.939  1.00  0.00     0.021 A 
ATOM      4  C   UNL     1     -21.836  27.229   9.204  1.00  0.00     0.002 A 
ATOM      5  C   UNL     1     -21.270  25.993   9.393  1.00  0.00     0.001 A 
ATOM      6  C   UNL     1     -21.830  25.093  10.309  1.00  0.00     0.008 A 
ATOM      7  C   UNL     1     -22.939  25.411  11.030  1.00  0.00     0.006 A 
ENDROOT
BRANCH   7   8
ATOM      8  C   UNL     1     -23.531  24.429  11.978  1.00  0.00     0.123 C 
BRANCH   8   9
ATOM      9  C   UNL     1     -23.367  24.971  13.357  1.00  0.00    -0.013 A 
ATOM     10  C   UNL     1     -22.782  26.151  13.681  1.00  0.00     0.007 A 
ATOM     11  C   UNL     1     -23.894  24.157  14.378  1.00  0.00     0.007 A 
ATOM     12  C   UNL     1     -22.715  26.533  15.010  1.00  0.00     0.000 A 
ATOM     13  C   UNL     1     -23.823  24.543  15.691  1.00  0.00     0.000 A 
ATOM     14  C   UNL     1     -23.233  25.737  16.031  1.00  0.00     0.000 A 
ENDBRANCH   8   9
BRANCH   8  15
ATOM     15  C   UNL     1     -22.754  23.161  11.998  1.00  0.00    -0.013 A 
ATOM     16  C   UNL     1     -23.230  21.978  11.498  1.00  0.00     0.007 A 
ATOM     17  C   UNL     1     -21.485  23.179  12.521  1.00  0.00     0.007 A 
ATOM     18  C   UNL     1     -22.472  20.813  11.509  1.00  0.00     0.000 A 
ATOM     19  C   UNL     1     -20.701  22.013  12.543  1.00  0.00     0.000 A 
ATOM     20  C   UNL     1     -21.204  20.847  12.037  1.00  0.00     0.000 A 
ENDBRANCH   8  15
BRANCH   8  21
ATOM     21  N   UNL     1     -24.891  24.155  11.620  1.00  0.00    -0.319 N 
ATOM     22  C   UNL     1     -25.942  24.069  12.482  1.00  0.00     0.109 A 
ATOM     23  C   UNL     1     -25.378  23.959  10.395  1.00  0.00     0.200 A 
ATOM     24  C   UNL     1     -27.090  23.813  11.766  1.00  0.00     0.131 A 
ATOM     25  N   UNL     1     -26.718  23.751  10.493  1.00  0.00    -0.245 NA
ENDBRANCH   8  21
ENDBRANCH   7   8
TORSDOF 4
ENDMDL
MODEL 3
REMARK VINA RESULT:      -5.9      2.036      3.457
REMARK SMILES Clc1ccccc1C(c1ccccc1)(c1ccccc1)n1ccnc1
REMARK SMILES IDX 1 1 2 2 3 3 4 4 5 5 6 6 7 7 8 8 9 9 10 10 14 11 11 12 13 13
REMARK SMILES IDX 12 14 15 15 16 16 20 17 17 18 19 19 18 20 21 21 22 22 25 23
REMARK SMILES IDX 23 24 24 25
REMARK H PARENT
ROOT
ATOM      1  Cl  UNL     1     -26.334  24.160  12.971  1.00  0.00    -0.084 Cl
ATOM      2  C   UNL     1     -25.443  22.860  12.211  1.00  0.00     0.047 A 
ATOM      3  C   UNL     1     -25.955  21.585  12.132  1.00  0.00     0.021 A 
ATOM      4  C   UNL     1     -25.270  20.566  11.505  1.00  0.00     0.002 A 
ATOM      5  C   UNL     1     -24.048  20.857  10.952  1.00  0.00     0.001 A 
ATOM      6  C   UNL     1     -23.528  22.155  11.033  1.00  0.00     0.008 A 
ATOM      7  C   UNL     1     -24.209  23.156  11.654  1.00  0.00     0.006 A 
ENDROOT
BRANCH   7   8
ATOM      8  C   UNL     1     -23.625  24.521  11.750  1.00  0.00     0.123 C 
BRANCH   8   9
ATOM      9  C   UNL     1     -24.536  25.458  11.032  1.00  0.00    -0.013 A 
ATOM     10  C   UNL     1     -24.883  26.702  11.447  1.00  0.00     0.007 A 
ATOM     11  C   UNL     1     -25.045  24.968   9.814  1.00  0.00     0.007 A 
ATOM     12  C   UNL     1     -25.730  27.467  10.666  1.00  0.00     0.000 A 
ATOM     13  C   UNL     1     -25.883  25.734   9.045  1.00  0.00     0.000 A 
ATOM     14  C   UNL     1     -26.241  26.995   9.457  1.00  0.00     0.000 A 
ENDBRANCH   8   9
BRANCH   8  15
ATOM     15  C   UNL     1     -22.348  24.617  10.994  1.00  0.00    -0.013 A 
ATOM     16  C   UNL     1     -21.301  23.751  11.171  1.00  0.00     0.007 A 
ATOM     17  C   UNL     1     -22.216  25.606  10.052  1.00  0.00     0.007 A 
ATOM     18  C   UNL     1     -20.127  23.850  10.434  1.00  0.00     0.000 A 
ATOM     19  C   UNL     1     -21.039  25.726   9.295  1.00  0.00     0.000 A 
ATOM     20  C   UNL     1     -20.011  24.847   9.495  1.00  0.00     0.000 A 
ENDBRANCH   8  15
BRANCH   8  21
ATOM     21  N   UNL     1     -23.400  24.867  13.122  1.00  0.00    -0.319 N 
ATOM     22  C   UNL     1     -23.248  23.989  14.152  1.00  0.00     0.109 A 
ATOM     23  C   UNL     1     -23.277  26.090  13.636  1.00  0.00     0.200 A 
ATOM     24  C   UNL     1     -23.030  24.694  15.314  1.00  0.00     0.131 A 
ATOM     25  N   UNL     1     -23.052  25.976  14.971  1.00  0.00    -0.245 NA
ENDBRANCH   8  21
ENDBRANCH   7   8
TORSDOF 4
ENDMDL
MODEL 4
REMARK VINA RESULT:      -5.9      1.054      3.848
REMARK SMILES Clc1ccccc1C(c1ccccc1)(c1ccccc1)n1ccnc1
REMARK SMILES IDX 1 1 2 2 3 3 4 4 5 5 6 6 7 7 8 8 9 9 10 10 14 11 11 12 13 13
REMARK SMILES IDX 12 14 15 15 16 16 20 17 17 18 19 19 18 20 21 21 22 22 25 23
REMARK SMILES IDX 23 24 24 25
REMARK H PARENT
ROOT
ATOM      1  Cl  UNL     1     -25.208  22.477  14.113  1.00  0.00    -0.084 Cl
ATOM      2  C   UNL     1     -24.558  24.098  14.006  1.00  0.00     0.047 A 
ATOM      3  C   UNL     1     -25.038  25.120  14.792  1.00  0.00     0.021 A 
ATOM      4  C   UNL     1     -24.506  26.390  14.734  1.00  0.00     0.002 A 
ATOM      5  C   UNL     1     -23.471  26.616  13.861  1.00  0.00     0.001 A 
ATOM      6  C   UNL     1     -22.983  25.574  13.061  1.00  0.00     0.008 A 
ATOM      7  C   UNL     1     -23.514  24.323  13.123  1.00  0.00     0.006 A 
ENDROOT
BRANCH   7   8
ATOM      8  C   UNL     1     -22.996  23.239  12.246  1.00  0.00     0.123 C 
BRANCH   8   9
ATOM      9  C   UNL     1     -22.055  23.854  11.267  1.00  0.00    -0.013 A 
ATOM     10  C   UNL     1     -20.758  23.502  11.085  1.00  0.00     0.007 A 
ATOM     11  C   UNL     1     -22.612  24.876  10.476  1.00  0.00     0.007 A 
ATOM     12  C   UNL     1     -20.006  24.154  10.124  1.00  0.00     0.000 A 
ATOM     13  C   UNL     1     -21.860  25.516   9.525  1.00  0.00     0.000 A 
ATOM     14  C   UNL     1     -20.545  25.168   9.332  1.00  0.00     0.000 A 
ENDBRANCH   8   9
BRANCH   8  15
ATOM     15  C   UNL     1     -24.076  22.671  11.394  1.00  0.00    -0.013 A 
ATOM     16  C   UNL     1     -25.200  23.368  11.039  1.00  0.00     0.007 A 
ATOM     17  C   UNL     1     -23.929  21.393  10.917  1.00  0.00     0.007 A 
ATOM     18  C   UNL     1     -26.182  22.820  10.223  1.00  0.00     0.000 A 
ATOM     19  C   UNL     1     -24.909  20.818  10.090  1.00  0.00     0.000 A 
ATOM     20  C   UNL     1     -26.021  21.538   9.754  1.00  0.00     0.000 A 
ENDBRANCH   8  15
BRANCH   8  21
ATOM     21  N   UNL     1     -22.411  22.199  13.039  1.00  0.00    -0.319 N 
ATOM     22  C   UNL     1     -22.414  20.870  12.741  1.00  0.00     0.109 A 
ATOM     23  C   UNL     1     -21.748  22.336  14.187  1.00  0.00     0.200 A 
ATOM     24  C   UNL     1     -21.739  20.187  13.728  1.00  0.00     0.131 A 
ATOM     25  N   UNL     1     -21.342  21.107  14.600  1.00  0.00    -0.245 NA
ENDBRANCH   8  21
ENDBRANCH   7   8
TORSDOF 4
ENDMDL
MODEL 5
REMARK VINA RESULT:      -5.9      1.782      4.622
REMARK SMILES Clc1ccccc1C(c1ccccc1)(c1ccccc1)n1ccnc1
REMARK SMILES IDX 1 1 2 2 3 3 4 4 5 5 6 6 7 7 8 8 9 9 10 10 14 11 11 12 13 13
REMARK SMILES IDX 12 14 15 15 16 16 20 17 17 18 19 19 18 20 21 21 22 22 25 23
REMARK SMILES IDX 23 24 24 25
REMARK H PARENT
ROOT
ATOM      1  Cl  UNL     1     -23.937  22.518  14.914  1.00  0.00    -0.084 Cl
ATOM      2  C   UNL     1     -23.350  24.149  15.153  1.00  0.00     0.047 A 
ATOM      3  C   UNL     1     -23.065  24.636  16.408  1.00  0.00     0.021 A 
ATOM      4  C   UNL     1     -22.572  25.908  16.597  1.00  0.00     0.002 A 
ATOM      5  C   UNL     1     -22.368  26.692  15.488  1.00  0.00     0.001 A 
ATOM      6  C   UNL     1     -22.659  26.195  14.211  1.00  0.00     0.008 A 
ATOM      7  C   UNL     1     -23.147  24.938  14.032  1.00  0.00     0.006 A 
ENDROOT
BRANCH   7   8
ATOM      8  C   UNL     1     -23.472  24.441  12.667  1.00  0.00     0.123 C 
BRANCH   8   9
ATOM      9  C   UNL     1     -22.588  23.275  12.384  1.00  0.00    -0.013 A 
ATOM     10  C   UNL     1     -22.960  22.132  11.755  1.00  0.00     0.007 A 
ATOM     11  C   UNL     1     -21.256  23.427  12.813  1.00  0.00     0.007 A 
ATOM     12  C   UNL     1     -22.022  21.136  11.546  1.00  0.00     0.000 A 
ATOM     13  C   UNL     1     -20.333  22.435  12.601  1.00  0.00     0.000 A 
ATOM     14  C   UNL     1     -20.699  21.273  11.965  1.00  0.00     0.000 A 
ENDBRANCH   8   9
BRANCH   8  15
ATOM     15  C   UNL     1     -23.097  25.435  11.627  1.00  0.00    -0.013 A 
ATOM     16  C   UNL     1     -22.289  25.140  10.560  1.00  0.00     0.007 A 
ATOM     17  C   UNL     1     -23.603  26.706  11.723  1.00  0.00     0.007 A 
ATOM     18  C   UNL     1     -21.974  26.083   9.589  1.00  0.00     0.000 A 
ATOM     19  C   UNL     1     -23.298  27.677  10.754  1.00  0.00     0.000 A 
ATOM     20  C   UNL     1     -22.488  27.353   9.701  1.00  0.00     0.000 A 
ENDBRANCH   8  15
BRANCH   8  21
ATOM     21  N   UNL     1     -24.871  24.146  12.570  1.00  0.00    -0.319 N 
ATOM     22  C   UNL     1     -25.862  24.726  13.303  1.00  0.00     0.109 A 
ATOM     23  C   UNL     1     -25.458  23.281  11.743  1.00  0.00     0.200 A 
ATOM     24  C   UNL     1     -27.074  24.201  12.915  1.00  0.00     0.131 A 
ATOM     25  N   UNL     1     -26.799  23.320  11.959  1.00  0.00    -0.245 NA
ENDBRANCH   8  21
ENDBRANCH   7   8
TORSDOF 4
ENDMDL
MODEL 6
REMARK VINA RESULT:      -5.9      1.519      4.232
REMARK SMILES Clc1ccccc1C(c1ccccc1)(c1ccccc1)n1ccnc1
REMARK SMILES IDX 1 1 2 2 3 3 4 4 5 5 6 6 7 7 8 8 9 9 10 10 14 11 11 12 13 13
REMARK SMILES IDX 12 14 15 15 16 16 20 17 17 18 19 19 18 20 21 21 22 22 25 23
REMARK SMILES IDX 23 24 24 25
REMARK H PARENT
ROOT
ATOM      1  Cl  UNL     1     -21.348  23.897  13.667  1.00  0.00    -0.084 Cl
ATOM      2  C   UNL     1     -22.708  24.991  13.790  1.00  0.00     0.047 A 
ATOM      3  C   UNL     1     -22.836  25.866  14.844  1.00  0.00     0.021 A 
ATOM      4  C   UNL     1     -23.888  26.752  14.927  1.00  0.00     0.002 A 
ATOM      5  C   UNL     1     -24.820  26.741  13.919  1.00  0.00     0.001 A 
ATOM      6  C   UNL     1     -24.689  25.850  12.846  1.00  0.00     0.008 A 
ATOM      7  C   UNL     1     -23.647  24.977  12.771  1.00  0.00     0.006 A 
ENDROOT
BRANCH   7   8
ATOM      8  C   UNL     1     -23.542  24.022  11.635  1.00  0.00     0.123 C 
BRANCH   8   9
ATOM      9  C   UNL     1     -22.297  24.345  10.881  1.00  0.00    -0.013 A 
ATOM     10  C   UNL     1     -21.269  23.493  10.645  1.00  0.00     0.007 A 
ATOM     11  C   UNL     1     -22.237  25.659  10.378  1.00  0.00     0.007 A 
ATOM     12  C   UNL     1     -20.180  23.930   9.913  1.00  0.00     0.000 A 
ATOM     13  C   UNL     1     -21.154  26.083   9.653  1.00  0.00     0.000 A 
ATOM     14  C   UNL     1     -20.107  25.228   9.407  1.00  0.00     0.000 A 
ENDBRANCH   8   9
BRANCH   8  15
ATOM     15  C   UNL     1     -24.628  24.242  10.642  1.00  0.00    -0.013 A 
ATOM     16  C   UNL     1     -24.729  25.372   9.874  1.00  0.00     0.007 A 
ATOM     17  C   UNL     1     -25.564  23.254  10.466  1.00  0.00     0.007 A 
ATOM     18  C   UNL     1     -25.742  25.540   8.937  1.00  0.00     0.000 A 
ATOM     19  C   UNL     1     -26.597  23.402   9.526  1.00  0.00     0.000 A 
ATOM     20  C   UNL     1     -26.672  24.542   8.774  1.00  0.00     0.000 A 
ENDBRANCH   8  15
BRANCH   8  21
ATOM     21  N   UNL     1     -23.596  22.674  12.117  1.00  0.00    -0.319 N 
ATOM     22  C   UNL     1     -24.263  22.248  13.225  1.00  0.00     0.109 A 
ATOM     23  C   UNL     1     -23.031  21.599  11.569  1.00  0.00     0.200 A 
ATOM     24  C   UNL     1     -24.099  20.887  13.353  1.00  0.00     0.131 A 
ATOM     25  N   UNL     1     -23.341  20.515  12.328  1.00  0.00    -0.245 NA
ENDBRANCH   8  21
ENDBRANCH   7   8
TORSDOF 4
ENDMDL
MODEL 7
REMARK VINA RESULT:      -5.8      1.019      4.085
REMARK SMILES Clc1ccccc1C(c1ccccc1)(c1ccccc1)n1ccnc1
REMARK SMILES IDX 1 1 2 2 3 3 4 4 5 5 6 6 7 7 8 8 9 9 10 10 14 11 11 12 13 13
REMARK SMILES IDX 12 14 15 15 16 16 20 17 17 18 19 19 18 20 21 21 22 22 25 23
REMARK SMILES IDX 23 24 24 25
REMARK H PARENT
ROOT
ATOM      1  Cl  UNL     1     -25.076  22.417  14.234  1.00  0.00    -0.084 Cl
ATOM      2  C   UNL     1     -24.536  24.076  14.107  1.00  0.00     0.047 A 
ATOM      3  C   UNL     1     -25.017  25.057  14.944  1.00  0.00     0.021 A 
ATOM      4  C   UNL     1     -24.571  26.358  14.868  1.00  0.00     0.002 A 
ATOM      5  C   UNL     1     -23.621  26.659  13.923  1.00  0.00     0.001 A 
ATOM      6  C   UNL     1     -23.132  25.660  13.071  1.00  0.00     0.008 A 
ATOM      7  C   UNL     1     -23.579  24.377  13.152  1.00  0.00     0.006 A 
ENDROOT
BRANCH   7   8
ATOM      8  C   UNL     1     -23.064  23.338  12.219  1.00  0.00     0.123 C 
BRANCH   8   9
ATOM      9  C   UNL     1     -22.193  24.016  11.217  1.00  0.00    -0.013 A 
ATOM     10  C   UNL     1     -22.561  25.046  10.414  1.00  0.00     0.007 A 
ATOM     11  C   UNL     1     -20.878  23.518  11.144  1.00  0.00     0.007 A 
ATOM     12  C   UNL     1     -21.636  25.588   9.539  1.00  0.00     0.000 A 
ATOM     13  C   UNL     1     -19.969  24.062  10.275  1.00  0.00     0.000 A 
ATOM     14  C   UNL     1     -20.331  25.105   9.457  1.00  0.00     0.000 A 
ENDBRANCH   8   9
BRANCH   8  15
ATOM     15  C   UNL     1     -24.161  22.754  11.402  1.00  0.00    -0.013 A 
ATOM     16  C   UNL     1     -24.152  21.464  10.941  1.00  0.00     0.007 A 
ATOM     17  C   UNL     1     -25.250  23.537  11.113  1.00  0.00     0.007 A 
ATOM     18  C   UNL     1     -25.203  20.937  10.199  1.00  0.00     0.000 A 
ATOM     19  C   UNL     1     -26.323  23.027  10.364  1.00  0.00     0.000 A 
ATOM     20  C   UNL     1     -26.286  21.735   9.917  1.00  0.00     0.000 A 
ENDBRANCH   8  15
BRANCH   8  21
ATOM     21  N   UNL     1     -22.404  22.300  12.953  1.00  0.00    -0.319 N 
ATOM     22  C   UNL     1     -22.380  20.979  12.621  1.00  0.00     0.109 A 
ATOM     23  C   UNL     1     -21.685  22.432  14.067  1.00  0.00     0.200 A 
ATOM     24  C   UNL     1     -21.632  20.295  13.553  1.00  0.00     0.131 A 
ATOM     25  N   UNL     1     -21.218  21.207  14.426  1.00  0.00    -0.245 NA
ENDBRANCH   8  21
ENDBRANCH   7   8
TORSDOF 4
ENDMDL
MODEL 8
REMARK VINA RESULT:      -5.8      0.993      1.764
REMARK SMILES Clc1ccccc1C(c1ccccc1)(c1ccccc1)n1ccnc1
REMARK SMILES IDX 1 1 2 2 3 3 4 4 5 5 6 6 7 7 8 8 9 9 10 10 14 11 11 12 13 13
REMARK SMILES IDX 12 14 15 15 16 16 20 17 17 18 19 19 18 20 21 21 22 22 25 23
REMARK SMILES IDX 23 24 24 25
REMARK H PARENT
ROOT
ATOM      1  Cl  UNL     1     -24.506  22.396  13.937  1.00  0.00    -0.084 Cl
ATOM      2  C   UNL     1     -25.197  22.873  12.402  1.00  0.00     0.047 A 
ATOM      3  C   UNL     1     -26.416  22.395  11.981  1.00  0.00     0.021 A 
ATOM      4  C   UNL     1     -26.979  22.793  10.788  1.00  0.00     0.002 A 
ATOM      5  C   UNL     1     -26.285  23.692  10.017  1.00  0.00     0.001 A 
ATOM      6  C   UNL     1     -25.043  24.178  10.446  1.00  0.00     0.008 A 
ATOM      7  C   UNL     1     -24.493  23.779  11.625  1.00  0.00     0.006 A 
ENDROOT
BRANCH   7   8
ATOM      8  C   UNL     1     -23.161  24.290  12.049  1.00  0.00     0.123 C 
BRANCH   8   9
ATOM      9  C   UNL     1     -23.360  25.125  13.267  1.00  0.00    -0.013 A 
ATOM     10  C   UNL     1     -24.503  25.771  13.609  1.00  0.00     0.007 A 
ATOM     11  C   UNL     1     -22.238  25.210  14.114  1.00  0.00     0.007 A 
ATOM     12  C   UNL     1     -24.545  26.500  14.784  1.00  0.00     0.000 A 
ATOM     13  C   UNL     1     -22.289  25.934  15.277  1.00  0.00     0.000 A 
ATOM     14  C   UNL     1     -23.442  26.592  15.633  1.00  0.00     0.000 A 
ENDBRANCH   8   9
BRANCH   8  15
ATOM     15  C   UNL     1     -22.605  25.242  11.050  1.00  0.00    -0.013 A 
ATOM     16  C   UNL     1     -21.584  24.924  10.194  1.00  0.00     0.007 A 
ATOM     17  C   UNL     1     -23.157  26.495  10.962  1.00  0.00     0.007 A 
ATOM     18  C   UNL     1     -21.099  25.827   9.255  1.00  0.00     0.000 A 
ATOM     19  C   UNL     1     -22.684  27.424  10.020  1.00  0.00     0.000 A 
ATOM     20  C   UNL     1     -21.662  27.078   9.180  1.00  0.00     0.000 A 
ENDBRANCH   8  15
BRANCH   8  21
ATOM     21  N   UNL     1     -22.251  23.199  12.234  1.00  0.00    -0.319 N 
ATOM     22  C   UNL     1     -22.143  22.105  11.432  1.00  0.00     0.109 A 
ATOM     23  C   UNL     1     -21.340  23.064  13.197  1.00  0.00     0.200 A 
ATOM     24  C   UNL     1     -21.147  21.288  11.918  1.00  0.00     0.131 A 
ATOM     25  N   UNL     1     -20.672  21.898  12.998  1.00  0.00    -0.245 NA
ENDBRANCH   8  21
ENDBRANCH   7   8
TORSDOF 4
ENDMDL
MODEL 9
REMARK VINA RESULT:      -5.8      1.029      1.257
REMARK SMILES Clc1ccccc1C(c1ccccc1)(c1ccccc1)n1ccnc1
REMARK SMILES IDX 1 1 2 2 3 3 4 4 5 5 6 6 7 7 8 8 9 9 10 10 14 11 11 12 13 13
REMARK SMILES IDX 12 14 15 15 16 16 20 17 17 18 19 19 18 20 21 21 22 22 25 23
REMARK SMILES IDX 23 24 24 25
REMARK H PARENT
ROOT
ATOM      1  Cl  UNL     1     -24.613  22.939  14.763  1.00  0.00    -0.084 Cl
ATOM      2  C   UNL     1     -25.245  23.020  13.134  1.00  0.00     0.047 A 
ATOM      3  C   UNL     1     -26.406  22.373  12.779  1.00  0.00     0.021 A 
ATOM      4  C   UNL     1     -26.926  22.461  11.505  1.00  0.00     0.002 A 
ATOM      5  C   UNL     1     -26.248  23.222  10.585  1.00  0.00     0.001 A 
ATOM      6  C   UNL     1     -25.066  23.881  10.948  1.00  0.00     0.008 A 
ATOM      7  C   UNL     1     -24.559  23.788  12.207  1.00  0.00     0.006 A 
ENDROOT
BRANCH   7   8
ATOM      8  C   UNL     1     -23.288  24.476  12.562  1.00  0.00     0.123 C 
BRANCH   8   9
ATOM      9  C   UNL     1     -23.593  25.477  13.624  1.00  0.00    -0.013 A 
ATOM     10  C   UNL     1     -22.739  25.891  14.593  1.00  0.00     0.007 A 
ATOM     11  C   UNL     1     -24.890  26.022  13.566  1.00  0.00     0.007 A 
ATOM     12  C   UNL     1     -23.157  26.843  15.506  1.00  0.00     0.000 A 
ATOM     13  C   UNL     1     -25.296  26.965  14.474  1.00  0.00     0.000 A 
ATOM     14  C   UNL     1     -24.439  27.392  15.459  1.00  0.00     0.000 A 
ENDBRANCH   8   9
BRANCH   8  15
ATOM     15  C   UNL     1     -22.784  25.299  11.430  1.00  0.00    -0.013 A 
ATOM     16  C   UNL     1     -23.133  26.610  11.238  1.00  0.00     0.007 A 
ATOM     17  C   UNL     1     -21.907  24.727  10.545  1.00  0.00     0.007 A 
ATOM     18  C   UNL     1     -22.628  27.362  10.184  1.00  0.00     0.000 A 
ATOM     19  C   UNL     1     -21.384  25.467   9.471  1.00  0.00     0.000 A 
ATOM     20  C   UNL     1     -21.751  26.773   9.305  1.00  0.00     0.000 A 
ENDBRANCH   8  15
BRANCH   8  21
ATOM     21  N   UNL     1     -22.295  23.514  12.938  1.00  0.00    -0.319 N 
ATOM     22  C   UNL     1     -22.158  22.263  12.419  1.00  0.00     0.109 A 
ATOM     23  C   UNL     1     -21.321  23.669  13.836  1.00  0.00     0.200 A 
ATOM     24  C   UNL     1     -21.080  21.645  13.014  1.00  0.00     0.131 A 
ATOM     25  N   UNL     1     -20.587  22.526  13.876  1.00  0.00    -0.245 NA
ENDBRANCH   8  21
ENDBRANCH   7   8
TORSDOF 4
ENDMDL
