MODEL 1
REMARK VINA RESULT:      -7.0      0.000      0.000
REMARK SMILES O=c1[nH]c2cc(C(F)(F)F)ccc2n1-c1cc(C(F)(F)F)ccc1[O-]
REMARK SMILES IDX 1 1 2 2 3 3 4 4 5 5 6 6 11 7 12 8 13 9 14 10 15 12 16 13
REMARK SMILES IDX 24 14 17 15 23 16 22 17 25 18 18 19 19 20 20 21 21 22 7 23
REMARK SMILES IDX 8 24 9 25 10 26
REMARK H PARENT 3 11
ROOT
ATOM      1  O   UNL     1     -24.024  19.423  12.303  1.00  0.00    -0.247 OA
ATOM      2  C   UNL     1     -23.174  20.335  12.072  1.00  0.00     0.331 A 
ATOM      3  N   UNL     1     -23.056  21.080  10.969  1.00  0.00    -0.305 N 
ATOM      4  C   UNL     1     -22.033  21.930  11.114  1.00  0.00     0.067 A 
ATOM      5  C   UNL     1     -21.470  22.907  10.315  1.00  0.00     0.041 A 
ATOM      6  C   UNL     1     -20.393  23.624  10.777  1.00  0.00     0.058 A 
ATOM      7  C   UNL     1     -19.865  23.381  12.032  1.00  0.00     0.015 A 
ATOM      8  C   UNL     1     -20.454  22.392  12.813  1.00  0.00     0.029 A 
ATOM      9  C   UNL     1     -21.525  21.658  12.389  1.00  0.00     0.074 A 
ATOM     10  N   UNL     1     -22.230  20.674  12.977  1.00  0.00    -0.261 N 
ATOM     11  H   UNL     1     -23.642  21.044  10.106  1.00  0.00     0.171 HD
ENDROOT
BRANCH  10  12
ATOM     12  C   UNL     1     -22.040  20.100  14.267  1.00  0.00     0.044 A 
ATOM     13  C   UNL     1     -21.371  18.915  14.478  1.00  0.00     0.039 A 
ATOM     14  C   UNL     1     -22.544  20.751  15.374  1.00  0.00    -0.084 A 
ATOM     15  C   UNL     1     -21.197  18.376  15.744  1.00  0.00     0.058 A 
ATOM     16  C   UNL     1     -22.391  20.245  16.655  1.00  0.00    -0.006 A 
ATOM     17  C   UNL     1     -21.714  19.049  16.844  1.00  0.00     0.012 A 
ATOM     18  O   UNL     1     -23.227  21.959  15.167  1.00  0.00    -0.871 OA
BRANCH  15  19
ATOM     19  C   UNL     1     -20.472  17.094  15.960  1.00  0.00     0.416 C 
ATOM     20  F   UNL     1     -20.148  16.578  14.707  1.00  0.00    -0.166 F 
ATOM     21  F   UNL     1     -21.251  16.154  16.584  1.00  0.00    -0.166 F 
ATOM     22  F   UNL     1     -19.287  17.309  16.621  1.00  0.00    -0.166 F 
ENDBRANCH  15  19
ENDBRANCH  10  12
BRANCH   6  23
ATOM     23  C   UNL     1     -19.813  24.663   9.899  1.00  0.00     0.416 C 
ATOM     24  F   UNL     1     -18.430  24.528   9.842  1.00  0.00    -0.166 F 
ATOM     25  F   UNL     1     -20.300  24.518   8.596  1.00  0.00    -0.166 F 
ATOM     26  F   UNL     1     -20.096  25.938  10.343  1.00  0.00    -0.166 F 
ENDBRANCH   6  23
TORSDOF 3
ENDMDL
MODEL 2
REMARK VINA RESULT:      -7.0      0.121      1.096
REMARK SMILES O=c1[nH]c2cc(C(F)(F)F)ccc2n1-c1cc(C(F)(F)F)ccc1[O-]
REMARK SMILES IDX 1 1 2 2 3 3 4 4 5 5 6 6 11 7 12 8 13 9 14 10 15 12 16 13
REMARK SMILES IDX 24 14 17 15 23 16 22 17 25 18 18 19 19 20 20 21 21 22 7 23
REMARK SMILES IDX 8 24 9 25 10 26
REMARK H PARENT 3 11
ROOT
ATOM      1  O   UNL     1     -24.159  19.542  12.413  1.00  0.00    -0.247 OA
ATOM      2  C   UNL     1     -23.278  20.418  12.160  1.00  0.00     0.331 A 
ATOM      3  N   UNL     1     -23.178  21.183  11.069  1.00  0.00    -0.305 N 
ATOM      4  C   UNL     1     -22.110  21.981  11.181  1.00  0.00     0.067 A 
ATOM      5  C   UNL     1     -21.540  22.949  10.377  1.00  0.00     0.041 A 
ATOM      6  C   UNL     1     -20.409  23.605  10.801  1.00  0.00     0.058 A 
ATOM      7  C   UNL     1     -19.835  23.308  12.023  1.00  0.00     0.015 A 
ATOM      8  C   UNL     1     -20.432  22.330  12.811  1.00  0.00     0.029 A 
ATOM      9  C   UNL     1     -21.555  21.656  12.424  1.00  0.00     0.074 A 
ATOM     10  N   UNL     1     -22.277  20.693  13.025  1.00  0.00    -0.261 N 
ATOM     11  H   UNL     1     -23.805  21.194  10.235  1.00  0.00     0.171 HD
ENDROOT
BRANCH  10  12
ATOM     12  C   UNL     1     -22.053  20.080  14.292  1.00  0.00     0.044 A 
ATOM     13  C   UNL     1     -21.403  18.877  14.447  1.00  0.00     0.039 A 
ATOM     14  C   UNL     1     -22.503  20.712  15.433  1.00  0.00    -0.084 A 
ATOM     15  C   UNL     1     -21.195  18.300  15.691  1.00  0.00     0.058 A 
ATOM     16  C   UNL     1     -22.315  20.168  16.694  1.00  0.00    -0.006 A 
ATOM     17  C   UNL     1     -21.657  18.954  16.827  1.00  0.00     0.012 A 
ATOM     18  O   UNL     1     -23.166  21.939  15.283  1.00  0.00    -0.871 OA
BRANCH  15  19
ATOM     19  C   UNL     1     -20.492  16.998  15.848  1.00  0.00     0.416 C 
ATOM     20  F   UNL     1     -21.343  16.141  16.542  1.00  0.00    -0.166 F 
ATOM     21  F   UNL     1     -19.349  17.110  16.595  1.00  0.00    -0.166 F 
ATOM     22  F   UNL     1     -20.257  16.419  14.624  1.00  0.00    -0.166 F 
ENDBRANCH  15  19
ENDBRANCH  10  12
BRANCH   6  23
ATOM     23  C   UNL     1     -19.823  24.636   9.918  1.00  0.00     0.416 C 
ATOM     24  F   UNL     1     -20.269  24.461   8.612  1.00  0.00    -0.166 F 
ATOM     25  F   UNL     1     -20.230  25.909  10.330  1.00  0.00    -0.166 F 
ATOM     26  F   UNL     1     -18.445  24.588   9.905  1.00  0.00    -0.166 F 
ENDBRANCH   6  23
TORSDOF 3
ENDMDL
MODEL 3
REMARK VINA RESULT:      -7.0      1.567      2.520
REMARK SMILES O=c1[nH]c2cc(C(F)(F)F)ccc2n1-c1cc(C(F)(F)F)ccc1[O-]
REMARK SMILES IDX 1 1 2 2 3 3 4 4 5 5 6 6 11 7 12 8 13 9 14 10 15 12 16 13
REMARK SMILES IDX 24 14 17 15 23 16 22 17 25 18 18 19 19 20 20 21 21 22 7 23
REMARK SMILES IDX 8 24 9 25 10 26
REMARK H PARENT 3 11
ROOT
ATOM      1  O   UNL     1     -22.866  21.342  16.660  1.00  0.00    -0.247 OA
ATOM      2  C   UNL     1     -22.433  21.582  15.493  1.00  0.00     0.331 A 
ATOM      3  N   UNL     1     -22.141  22.772  14.961  1.00  0.00    -0.305 N 
ATOM      4  C   UNL     1     -21.711  22.605  13.705  1.00  0.00     0.067 A 
ATOM      5  C   UNL     1     -21.284  23.462  12.709  1.00  0.00     0.041 A 
ATOM      6  C   UNL     1     -20.899  22.951  11.493  1.00  0.00     0.058 A 
ATOM      7  C   UNL     1     -20.934  21.590  11.253  1.00  0.00     0.015 A 
ATOM      8  C   UNL     1     -21.367  20.753  12.275  1.00  0.00     0.029 A 
ATOM      9  C   UNL     1     -21.758  21.222  13.496  1.00  0.00     0.074 A 
ATOM     10  N   UNL     1     -22.203  20.594  14.601  1.00  0.00    -0.261 N 
ATOM     11  H   UNL     1     -22.217  23.711  15.410  1.00  0.00     0.171 HD
ENDROOT
BRANCH  10  12
ATOM     12  C   UNL     1     -22.399  19.198  14.806  1.00  0.00     0.044 A 
ATOM     13  C   UNL     1     -21.405  18.350  15.241  1.00  0.00     0.039 A 
ATOM     14  C   UNL     1     -23.641  18.650  14.562  1.00  0.00    -0.084 A 
ATOM     15  C   UNL     1     -21.619  16.993  15.434  1.00  0.00     0.058 A 
ATOM     16  C   UNL     1     -23.895  17.300  14.743  1.00  0.00    -0.006 A 
ATOM     17  C   UNL     1     -22.878  16.463  15.182  1.00  0.00     0.012 A 
ATOM     18  O   UNL     1     -24.658  19.508  14.118  1.00  0.00    -0.871 OA
BRANCH  15  19
ATOM     19  C   UNL     1     -20.538  16.085  15.905  1.00  0.00     0.416 C 
ATOM     20  F   UNL     1     -19.982  15.477  14.781  1.00  0.00    -0.166 F 
ATOM     21  F   UNL     1     -21.014  15.078  16.703  1.00  0.00    -0.166 F 
ATOM     22  F   UNL     1     -19.532  16.797  16.511  1.00  0.00    -0.166 F 
ENDBRANCH  15  19
ENDBRANCH  10  12
BRANCH   6  23
ATOM     23  C   UNL     1     -20.446  23.894  10.447  1.00  0.00     0.416 C 
ATOM     24  F   UNL     1     -21.383  24.908  10.275  1.00  0.00    -0.166 F 
ATOM     25  F   UNL     1     -19.245  24.497  10.832  1.00  0.00    -0.166 F 
ATOM     26  F   UNL     1     -20.265  23.273   9.229  1.00  0.00    -0.166 F 
ENDBRANCH   6  23
TORSDOF 3
ENDMDL
MODEL 4
REMARK VINA RESULT:      -6.9      1.493      2.430
REMARK SMILES O=c1[nH]c2cc(C(F)(F)F)ccc2n1-c1cc(C(F)(F)F)ccc1[O-]
REMARK SMILES IDX 1 1 2 2 3 3 4 4 5 5 6 6 11 7 12 8 13 9 14 10 15 12 16 13
REMARK SMILES IDX 24 14 17 15 23 16 22 17 25 18 18 19 19 20 20 21 21 22 7 23
REMARK SMILES IDX 8 24 9 25 10 26
REMARK H PARENT 3 11
ROOT
ATOM      1  O   UNL     1     -22.906  21.421  16.422  1.00  0.00    -0.247 OA
ATOM      2  C   UNL     1     -22.452  21.681  15.268  1.00  0.00     0.331 A 
ATOM      3  N   UNL     1     -22.125  22.877  14.770  1.00  0.00    -0.305 N 
ATOM      4  C   UNL     1     -21.684  22.732  13.515  1.00  0.00     0.067 A 
ATOM      5  C   UNL     1     -21.224  23.604  12.547  1.00  0.00     0.041 A 
ATOM      6  C   UNL     1     -20.835  23.115  11.323  1.00  0.00     0.058 A 
ATOM      7  C   UNL     1     -20.899  21.762  11.048  1.00  0.00     0.015 A 
ATOM      8  C   UNL     1     -21.365  20.909  12.042  1.00  0.00     0.029 A 
ATOM      9  C   UNL     1     -21.761  21.356  13.270  1.00  0.00     0.074 A 
ATOM     10  N   UNL     1     -22.234  20.711  14.353  1.00  0.00    -0.261 N 
ATOM     11  H   UNL     1     -22.185  23.806  15.243  1.00  0.00     0.171 HD
ENDROOT
BRANCH  10  12
ATOM     12  C   UNL     1     -22.465  19.315  14.518  1.00  0.00     0.044 A 
ATOM     13  C   UNL     1     -21.523  18.446  15.021  1.00  0.00     0.039 A 
ATOM     14  C   UNL     1     -23.690  18.789  14.164  1.00  0.00    -0.084 A 
ATOM     15  C   UNL     1     -21.771  17.090  15.175  1.00  0.00     0.058 A 
ATOM     16  C   UNL     1     -23.977  17.440  14.303  1.00  0.00    -0.006 A 
ATOM     17  C   UNL     1     -23.012  16.582  14.811  1.00  0.00     0.012 A 
ATOM     18  O   UNL     1     -24.655  19.669  13.652  1.00  0.00    -0.871 OA
BRANCH  15  19
ATOM     19  C   UNL     1     -20.745  16.159  15.718  1.00  0.00     0.416 C 
ATOM     20  F   UNL     1     -19.806  16.924  16.406  1.00  0.00    -0.166 F 
ATOM     21  F   UNL     1     -20.065  15.497  14.729  1.00  0.00    -0.166 F 
ATOM     22  F   UNL     1     -21.302  15.297  16.632  1.00  0.00    -0.166 F 
ENDBRANCH  15  19
ENDBRANCH  10  12
BRANCH   6  23
ATOM     23  C   UNL     1     -20.347  24.074  10.308  1.00  0.00     0.416 C 
ATOM     24  F   UNL     1     -19.089  24.549  10.661  1.00  0.00    -0.166 F 
ATOM     25  F   UNL     1     -20.220  23.438   9.069  1.00  0.00    -0.166 F 
ATOM     26  F   UNL     1     -21.187  25.159  10.170  1.00  0.00    -0.166 F 
ENDBRANCH   6  23
TORSDOF 3
ENDMDL
MODEL 5
REMARK VINA RESULT:      -6.8      3.035      3.923
REMARK SMILES O=c1[nH]c2cc(C(F)(F)F)ccc2n1-c1cc(C(F)(F)F)ccc1[O-]
REMARK SMILES IDX 1 1 2 2 3 3 4 4 5 5 6 6 11 7 12 8 13 9 14 10 15 12 16 13
REMARK SMILES IDX 24 14 17 15 23 16 22 17 25 18 18 19 19 20 20 21 21 22 7 23
REMARK SMILES IDX 8 24 9 25 10 26
REMARK H PARENT 3 11
ROOT
ATOM      1  O   UNL     1     -20.705  20.605  11.612  1.00  0.00    -0.247 OA
ATOM      2  C   UNL     1     -21.123  21.409  12.498  1.00  0.00     0.331 A 
ATOM      3  N   UNL     1     -20.989  22.739  12.521  1.00  0.00    -0.305 N 
ATOM      4  C   UNL     1     -21.566  23.225  13.625  1.00  0.00     0.067 A 
ATOM      5  C   UNL     1     -21.727  24.493  14.151  1.00  0.00     0.041 A 
ATOM      6  C   UNL     1     -22.391  24.653  15.344  1.00  0.00     0.058 A 
ATOM      7  C   UNL     1     -22.900  23.563  16.024  1.00  0.00     0.015 A 
ATOM      8  C   UNL     1     -22.724  22.300  15.469  1.00  0.00     0.029 A 
ATOM      9  C   UNL     1     -22.070  22.100  14.287  1.00  0.00     0.074 A 
ATOM     10  N   UNL     1     -21.795  20.982  13.589  1.00  0.00    -0.261 N 
ATOM     11  H   UNL     1     -20.518  23.347  11.815  1.00  0.00     0.171 HD
ENDROOT
BRANCH  10  12
ATOM     12  C   UNL     1     -22.127  19.634  13.912  1.00  0.00     0.044 A 
ATOM     13  C   UNL     1     -21.291  18.796  14.615  1.00  0.00     0.039 A 
ATOM     14  C   UNL     1     -23.345  19.127  13.509  1.00  0.00    -0.084 A 
ATOM     15  C   UNL     1     -21.637  17.487  14.919  1.00  0.00     0.058 A 
ATOM     16  C   UNL     1     -23.727  17.825  13.793  1.00  0.00    -0.006 A 
ATOM     17  C   UNL     1     -22.868  16.997  14.502  1.00  0.00     0.012 A 
ATOM     18  O   UNL     1     -24.201  19.976  12.792  1.00  0.00    -0.871 OA
BRANCH  15  19
ATOM     19  C   UNL     1     -20.725  16.589  15.679  1.00  0.00     0.416 C 
ATOM     20  F   UNL     1     -20.070  15.777  14.757  1.00  0.00    -0.166 F 
ATOM     21  F   UNL     1     -21.405  15.754  16.527  1.00  0.00    -0.166 F 
ATOM     22  F   UNL     1     -19.757  17.314  16.330  1.00  0.00    -0.166 F 
ENDBRANCH  15  19
ENDBRANCH  10  12
BRANCH   6  23
ATOM     23  C   UNL     1     -22.548  26.023  15.881  1.00  0.00     0.416 C 
ATOM     24  F   UNL     1     -22.910  25.974  17.223  1.00  0.00    -0.166 F 
ATOM     25  F   UNL     1     -21.334  26.712  15.801  1.00  0.00    -0.166 F 
ATOM     26  F   UNL     1     -23.515  26.739  15.207  1.00  0.00    -0.166 F 
ENDBRANCH   6  23
TORSDOF 3
ENDMDL
MODEL 6
REMARK VINA RESULT:      -6.8      3.109      4.150
REMARK SMILES O=c1[nH]c2cc(C(F)(F)F)ccc2n1-c1cc(C(F)(F)F)ccc1[O-]
REMARK SMILES IDX 1 1 2 2 3 3 4 4 5 5 6 6 11 7 12 8 13 9 14 10 15 12 16 13
REMARK SMILES IDX 24 14 17 15 23 16 22 17 25 18 18 19 19 20 20 21 21 22 7 23
REMARK SMILES IDX 8 24 9 25 10 26
REMARK H PARENT 3 11
ROOT
ATOM      1  O   UNL     1     -20.793  20.673  11.653  1.00  0.00    -0.247 OA
ATOM      2  C   UNL     1     -21.211  21.435  12.576  1.00  0.00     0.331 A 
ATOM      3  N   UNL     1     -21.107  22.765  12.645  1.00  0.00    -0.305 N 
ATOM      4  C   UNL     1     -21.673  23.197  13.779  1.00  0.00     0.067 A 
ATOM      5  C   UNL     1     -21.852  24.440  14.355  1.00  0.00     0.041 A 
ATOM      6  C   UNL     1     -22.495  24.541  15.565  1.00  0.00     0.058 A 
ATOM      7  C   UNL     1     -22.965  23.414  16.214  1.00  0.00     0.015 A 
ATOM      8  C   UNL     1     -22.770  22.177  15.609  1.00  0.00     0.029 A 
ATOM      9  C   UNL     1     -22.136  22.036  14.407  1.00  0.00     0.074 A 
ATOM     10  N   UNL     1     -21.850  20.952  13.663  1.00  0.00    -0.261 N 
ATOM     11  H   UNL     1     -20.665  23.410  11.954  1.00  0.00     0.171 HD
ENDROOT
BRANCH  10  12
ATOM     12  C   UNL     1     -22.145  19.586  13.942  1.00  0.00     0.044 A 
ATOM     13  C   UNL     1     -21.290  18.751  14.627  1.00  0.00     0.039 A 
ATOM     14  C   UNL     1     -23.344  19.055  13.513  1.00  0.00    -0.084 A 
ATOM     15  C   UNL     1     -21.599  17.424  14.888  1.00  0.00     0.058 A 
ATOM     16  C   UNL     1     -23.689  17.735  13.754  1.00  0.00    -0.006 A 
ATOM     17  C   UNL     1     -22.812  16.911  14.446  1.00  0.00     0.012 A 
ATOM     18  O   UNL     1     -24.220  19.900  12.815  1.00  0.00    -0.871 OA
BRANCH  15  19
ATOM     19  C   UNL     1     -20.667  16.530  15.628  1.00  0.00     0.416 C 
ATOM     20  F   UNL     1     -21.428  15.779  16.522  1.00  0.00    -0.166 F 
ATOM     21  F   UNL     1     -19.758  17.231  16.376  1.00  0.00    -0.166 F 
ATOM     22  F   UNL     1     -20.062  15.640  14.774  1.00  0.00    -0.166 F 
ENDBRANCH  15  19
ENDBRANCH  10  12
BRANCH   6  23
ATOM     23  C   UNL     1     -22.672  25.885  16.156  1.00  0.00     0.416 C 
ATOM     24  F   UNL     1     -23.962  26.348  15.921  1.00  0.00    -0.166 F 
ATOM     25  F   UNL     1     -22.495  25.828  17.542  1.00  0.00    -0.166 F 
ATOM     26  F   UNL     1     -21.789  26.805  15.630  1.00  0.00    -0.166 F 
ENDBRANCH   6  23
TORSDOF 3
ENDMDL
MODEL 7
REMARK VINA RESULT:      -6.8      0.936      1.214
REMARK SMILES O=c1[nH]c2cc(C(F)(F)F)ccc2n1-c1cc(C(F)(F)F)ccc1[O-]
REMARK SMILES IDX 1 1 2 2 3 3 4 4 5 5 6 6 11 7 12 8 13 9 14 10 15 12 16 13
REMARK SMILES IDX 24 14 17 15 23 16 22 17 25 18 18 19 19 20 20 21 21 22 7 23
REMARK SMILES IDX 8 24 9 25 10 26
REMARK H PARENT 3 11
ROOT
ATOM      1  O   UNL     1     -25.015  21.120  13.219  1.00  0.00    -0.247 OA
ATOM      2  C   UNL     1     -23.989  21.709  12.763  1.00  0.00     0.331 A 
ATOM      3  N   UNL     1     -23.912  22.494  11.685  1.00  0.00    -0.305 N 
ATOM      4  C   UNL     1     -22.653  22.923  11.536  1.00  0.00     0.067 A 
ATOM      5  C   UNL     1     -22.013  23.738  10.622  1.00  0.00     0.041 A 
ATOM      6  C   UNL     1     -20.668  23.987  10.760  1.00  0.00     0.058 A 
ATOM      7  C   UNL     1     -19.948  23.433  11.802  1.00  0.00     0.015 A 
ATOM      8  C   UNL     1     -20.620  22.619  12.706  1.00  0.00     0.029 A 
ATOM      9  C   UNL     1     -21.955  22.347  12.603  1.00  0.00     0.074 A 
ATOM     10  N   UNL     1     -22.781  21.599  13.358  1.00  0.00    -0.261 N 
ATOM     11  H   UNL     1     -24.679  22.761  11.030  1.00  0.00     0.171 HD
ENDROOT
BRANCH  10  12
ATOM     12  C   UNL     1     -22.472  20.847  14.528  1.00  0.00     0.044 A 
ATOM     13  C   UNL     1     -21.810  19.640  14.499  1.00  0.00     0.039 A 
ATOM     14  C   UNL     1     -22.846  21.338  15.761  1.00  0.00    -0.084 A 
ATOM     15  C   UNL     1     -21.519  18.925  15.652  1.00  0.00     0.058 A 
ATOM     16  C   UNL     1     -22.573  20.655  16.936  1.00  0.00    -0.006 A 
ATOM     17  C   UNL     1     -21.905  19.439  16.883  1.00  0.00     0.012 A 
ATOM     18  O   UNL     1     -23.520  22.568  15.798  1.00  0.00    -0.871 OA
BRANCH  15  19
ATOM     19  C   UNL     1     -20.804  17.621  15.610  1.00  0.00     0.416 C 
ATOM     20  F   UNL     1     -21.645  16.662  16.171  1.00  0.00    -0.166 F 
ATOM     21  F   UNL     1     -19.659  17.630  16.362  1.00  0.00    -0.166 F 
ATOM     22  F   UNL     1     -20.569  17.234  14.312  1.00  0.00    -0.166 F 
ENDBRANCH  15  19
ENDBRANCH  10  12
BRANCH   6  23
ATOM     23  C   UNL     1     -20.012  24.863   9.765  1.00  0.00     0.416 C 
ATOM     24  F   UNL     1     -18.636  24.661   9.780  1.00  0.00    -0.166 F 
ATOM     25  F   UNL     1     -20.465  24.554   8.479  1.00  0.00    -0.166 F 
ATOM     26  F   UNL     1     -20.246  26.199  10.014  1.00  0.00    -0.166 F 
ENDBRANCH   6  23
TORSDOF 3
ENDMDL
MODEL 8
REMARK VINA RESULT:      -6.7      1.109      1.591
REMARK SMILES O=c1[nH]c2cc(C(F)(F)F)ccc2n1-c1cc(C(F)(F)F)ccc1[O-]
REMARK SMILES IDX 1 1 2 2 3 3 4 4 5 5 6 6 11 7 12 8 13 9 14 10 15 12 16 13
REMARK SMILES IDX 24 14 17 15 23 16 22 17 25 18 18 19 19 20 20 21 21 22 7 23
REMARK SMILES IDX 8 24 9 25 10 26
REMARK H PARENT 3 11
ROOT
ATOM      1  O   UNL     1     -25.138  21.456  13.360  1.00  0.00    -0.247 OA
ATOM      2  C   UNL     1     -24.100  21.982  12.858  1.00  0.00     0.331 A 
ATOM      3  N   UNL     1     -24.022  22.755  11.771  1.00  0.00    -0.305 N 
ATOM      4  C   UNL     1     -22.748  23.111  11.568  1.00  0.00     0.067 A 
ATOM      5  C   UNL     1     -22.100  23.882  10.622  1.00  0.00     0.041 A 
ATOM      6  C   UNL     1     -20.739  24.055  10.702  1.00  0.00     0.058 A 
ATOM      7  C   UNL     1     -20.010  23.466  11.719  1.00  0.00     0.015 A 
ATOM      8  C   UNL     1     -20.690  22.697  12.657  1.00  0.00     0.029 A 
ATOM      9  C   UNL     1     -22.040  22.502  12.610  1.00  0.00     0.074 A 
ATOM     10  N   UNL     1     -22.876  21.807  13.404  1.00  0.00    -0.261 N 
ATOM     11  H   UNL     1     -24.799  23.061  11.145  1.00  0.00     0.171 HD
ENDROOT
BRANCH  10  12
ATOM     12  C   UNL     1     -22.563  21.045  14.566  1.00  0.00     0.044 A 
ATOM     13  C   UNL     1     -21.909  19.834  14.525  1.00  0.00     0.039 A 
ATOM     14  C   UNL     1     -22.924  21.531  15.806  1.00  0.00    -0.084 A 
ATOM     15  C   UNL     1     -21.613  19.110  15.671  1.00  0.00     0.058 A 
ATOM     16  C   UNL     1     -22.647  20.838  16.974  1.00  0.00    -0.006 A 
ATOM     17  C   UNL     1     -21.987  19.619  16.908  1.00  0.00     0.012 A 
ATOM     18  O   UNL     1     -23.591  22.764  15.856  1.00  0.00    -0.871 OA
BRANCH  15  19
ATOM     19  C   UNL     1     -20.906  17.802  15.615  1.00  0.00     0.416 C 
ATOM     20  F   UNL     1     -19.705  17.944  16.305  1.00  0.00    -0.166 F 
ATOM     21  F   UNL     1     -20.584  17.439  14.333  1.00  0.00    -0.166 F 
ATOM     22  F   UNL     1     -21.627  16.829  16.265  1.00  0.00    -0.166 F 
ENDBRANCH  15  19
ENDBRANCH  10  12
BRANCH   6  23
ATOM     23  C   UNL     1     -20.075  24.886   9.675  1.00  0.00     0.416 C 
ATOM     24  F   UNL     1     -20.345  26.232   9.898  1.00  0.00    -0.166 F 
ATOM     25  F   UNL     1     -18.689  24.720   9.746  1.00  0.00    -0.166 F 
ATOM     26  F   UNL     1     -20.499  24.574   8.400  1.00  0.00    -0.166 F 
ENDBRANCH   6  23
TORSDOF 3
ENDMDL
MODEL 9
REMARK VINA RESULT:      -6.7      5.913      7.872
REMARK SMILES O=c1[nH]c2cc(C(F)(F)F)ccc2n1-c1cc(C(F)(F)F)ccc1[O-]
REMARK SMILES IDX 1 1 2 2 3 3 4 4 5 5 6 6 11 7 12 8 13 9 14 10 15 12 16 13
REMARK SMILES IDX 24 14 17 15 23 16 22 17 25 18 18 19 19 20 20 21 21 22 7 23
REMARK SMILES IDX 8 24 9 25 10 26
REMARK H PARENT 3 11
ROOT
ATOM      1  O   UNL     1     -22.940  27.937  11.749  1.00  0.00    -0.247 OA
ATOM      2  C   UNL     1     -23.884  27.524  11.010  1.00  0.00     0.331 A 
ATOM      3  N   UNL     1     -25.070  28.103  10.801  1.00  0.00    -0.305 N 
ATOM      4  C   UNL     1     -25.787  27.355   9.955  1.00  0.00     0.067 A 
ATOM      5  C   UNL     1     -27.048  27.465   9.401  1.00  0.00     0.041 A 
ATOM      6  C   UNL     1     -27.499  26.493   8.541  1.00  0.00     0.058 A 
ATOM      7  C   UNL     1     -26.707  25.406   8.222  1.00  0.00     0.015 A 
ATOM      8  C   UNL     1     -25.442  25.323   8.794  1.00  0.00     0.029 A 
ATOM      9  C   UNL     1     -24.959  26.268   9.654  1.00  0.00     0.074 A 
ATOM     10  N   UNL     1     -23.786  26.375  10.305  1.00  0.00    -0.261 N 
ATOM     11  H   UNL     1     -25.428  28.995  11.208  1.00  0.00     0.171 HD
ENDROOT
BRANCH  10  12
ATOM     12  C   UNL     1     -22.674  25.485  10.275  1.00  0.00     0.044 A 
ATOM     13  C   UNL     1     -22.631  24.302  10.979  1.00  0.00     0.039 A 
ATOM     14  C   UNL     1     -21.575  25.808   9.507  1.00  0.00    -0.084 A 
ATOM     15  C   UNL     1     -21.537  23.451  10.934  1.00  0.00     0.058 A 
ATOM     16  C   UNL     1     -20.463  24.984   9.435  1.00  0.00    -0.006 A 
ATOM     17  C   UNL     1     -20.441  23.796  10.153  1.00  0.00     0.012 A 
ATOM     18  O   UNL     1     -21.611  27.012   8.787  1.00  0.00    -0.871 OA
BRANCH  15  19
ATOM     19  C   UNL     1     -21.501  22.175  11.699  1.00  0.00     0.416 C 
ATOM     20  F   UNL     1     -20.813  22.416  12.886  1.00  0.00    -0.166 F 
ATOM     21  F   UNL     1     -20.815  21.190  11.038  1.00  0.00    -0.166 F 
ATOM     22  F   UNL     1     -22.770  21.779  12.048  1.00  0.00    -0.166 F 
ENDBRANCH  15  19
ENDBRANCH  10  12
BRANCH   6  23
ATOM     23  C   UNL     1     -28.853  26.640   7.964  1.00  0.00     0.416 C 
ATOM     24  F   UNL     1     -29.500  25.409   7.937  1.00  0.00    -0.166 F 
ATOM     25  F   UNL     1     -29.622  27.498   8.756  1.00  0.00    -0.166 F 
ATOM     26  F   UNL     1     -28.820  27.130   6.675  1.00  0.00    -0.166 F 
ENDBRANCH   6  23
TORSDOF 3
ENDMDL
