MODEL 1
REMARK VINA RESULT:      -5.7      0.000      0.000
REMARK SMILES CC1=[NH+]c2ccc(Cl)cc2S(=O)(=O)N1
REMARK SMILES IDX 1 1 2 2 3 3 4 4 5 5 6 6 7 7 8 8 9 9 10 10 11 11 12 12 13 13
REMARK SMILES IDX 14 14
REMARK H PARENT 3 15 14 16
ROOT
ATOM      1  C   UNL     1      21.093 -29.789  25.559  1.00  0.00     0.146 C 
ATOM      2  C   UNL     1      20.729 -28.427  26.101  1.00  0.00     0.259 C 
ATOM      3  N   UNL     1      20.225 -27.595  25.296  1.00  0.00    -0.243 N 
ATOM      4  C   UNL     1      19.824 -26.278  25.627  1.00  0.00     0.147 A 
ATOM      5  C   UNL     1      19.280 -25.468  24.626  1.00  0.00     0.055 A 
ATOM      6  C   UNL     1      18.870 -24.178  24.876  1.00  0.00     0.025 A 
ATOM      7  C   UNL     1      18.980 -23.632  26.128  1.00  0.00     0.042 A 
ATOM      8  Cl  UNL     1      18.466 -22.010  26.441  1.00  0.00    -0.084 Cl
ATOM      9  C   UNL     1      19.517 -24.429  27.113  1.00  0.00     0.049 A 
ATOM     10  C   UNL     1      19.926 -25.706  26.875  1.00  0.00     0.156 A 
ATOM     11  S   UNL     1      20.604 -26.687  28.165  1.00  0.00     0.332 S 
ATOM     12  O   UNL     1      19.670 -26.801  29.328  1.00  0.00    -0.179 OA
ATOM     13  O   UNL     1      21.918 -26.052  28.583  1.00  0.00    -0.179 OA
ATOM     14  N   UNL     1      20.987 -28.208  27.467  1.00  0.00    -0.166 N 
ATOM     15  H   UNL     1      20.088 -27.897  24.301  1.00  0.00     0.312 HD
ATOM     16  H   UNL     1      21.405 -28.987  28.001  1.00  0.00     0.327 HD
ENDROOT
TORSDOF 0
ENDMDL
MODEL 2
REMARK VINA RESULT:      -5.5      0.980      1.150
REMARK SMILES CC1=[NH+]c2ccc(Cl)cc2S(=O)(=O)N1
REMARK SMILES IDX 1 1 2 2 3 3 4 4 5 5 6 6 7 7 8 8 9 9 10 10 11 11 12 12 13 13
REMARK SMILES IDX 14 14
REMARK H PARENT 3 15 14 16
ROOT
ATOM      1  C   UNL     1      21.281 -29.952  26.165  1.00  0.00     0.146 C 
ATOM      2  C   UNL     1      20.583 -28.647  26.472  1.00  0.00     0.259 C 
ATOM      3  N   UNL     1      20.651 -27.732  25.604  1.00  0.00    -0.243 N 
ATOM      4  C   UNL     1      20.060 -26.451  25.721  1.00  0.00     0.147 A 
ATOM      5  C   UNL     1      20.219 -25.538  24.675  1.00  0.00     0.055 A 
ATOM      6  C   UNL     1      19.673 -24.275  24.721  1.00  0.00     0.025 A 
ATOM      7  C   UNL     1      18.945 -23.859  25.805  1.00  0.00     0.042 A 
ATOM      8  Cl  UNL     1      18.260 -22.272  25.863  1.00  0.00    -0.084 Cl
ATOM      9  C   UNL     1      18.789 -24.758  26.835  1.00  0.00     0.049 A 
ATOM     10  C   UNL     1      19.325 -26.009  26.799  1.00  0.00     0.156 A 
ATOM     11  S   UNL     1      19.099 -27.123  28.138  1.00  0.00     0.332 S 
ATOM     12  O   UNL     1      17.650 -27.344  28.441  1.00  0.00    -0.179 OA
ATOM     13  O   UNL     1      19.825 -26.549  29.342  1.00  0.00    -0.179 OA
ATOM     14  N   UNL     1      19.917 -28.570  27.709  1.00  0.00    -0.166 N 
ATOM     15  H   UNL     1      21.184 -27.931  24.723  1.00  0.00     0.312 HD
ATOM     16  H   UNL     1      19.951 -29.403  28.318  1.00  0.00     0.327 HD
ENDROOT
TORSDOF 0
ENDMDL
MODEL 3
REMARK VINA RESULT:      -4.8      2.739      3.312
REMARK SMILES CC1=[NH+]c2ccc(Cl)cc2S(=O)(=O)N1
REMARK SMILES IDX 1 1 2 2 3 3 4 4 5 5 6 6 7 7 8 8 9 9 10 10 11 11 12 12 13 13
REMARK SMILES IDX 14 14
REMARK H PARENT 3 15 14 16
ROOT
ATOM      1  C   UNL     1      21.678 -31.300  25.981  1.00  0.00     0.146 C 
ATOM      2  C   UNL     1      20.856 -30.044  26.147  1.00  0.00     0.259 C 
ATOM      3  N   UNL     1      21.374 -29.089  26.791  1.00  0.00    -0.243 N 
ATOM      4  C   UNL     1      20.752 -27.843  27.044  1.00  0.00     0.147 A 
ATOM      5  C   UNL     1      21.451 -26.877  27.774  1.00  0.00     0.055 A 
ATOM      6  C   UNL     1      20.908 -25.644  28.057  1.00  0.00     0.025 A 
ATOM      7  C   UNL     1      19.649 -25.312  27.630  1.00  0.00     0.042 A 
ATOM      8  Cl  UNL     1      18.967 -23.763  27.987  1.00  0.00    -0.084 Cl
ATOM      9  C   UNL     1      18.961 -26.262  26.912  1.00  0.00     0.049 A 
ATOM     10  C   UNL     1      19.489 -27.485  26.627  1.00  0.00     0.156 A 
ATOM     11  S   UNL     1      18.573 -28.667  25.705  1.00  0.00     0.332 S 
ATOM     12  O   UNL     1      18.141 -28.126  24.379  1.00  0.00    -0.179 OA
ATOM     13  O   UNL     1      17.375 -29.075  26.544  1.00  0.00    -0.179 OA
ATOM     14  N   UNL     1      19.575 -30.053  25.564  1.00  0.00    -0.166 N 
ATOM     15  H   UNL     1      22.342 -29.223  27.171  1.00  0.00     0.312 HD
ATOM     16  H   UNL     1      19.287 -30.912  25.066  1.00  0.00     0.327 HD
ENDROOT
TORSDOF 0
ENDMDL
MODEL 4
REMARK VINA RESULT:      -4.7      3.490      3.900
REMARK SMILES CC1=[NH+]c2ccc(Cl)cc2S(=O)(=O)N1
REMARK SMILES IDX 1 1 2 2 3 3 4 4 5 5 6 6 7 7 8 8 9 9 10 10 11 11 12 12 13 13
REMARK SMILES IDX 14 14
REMARK H PARENT 3 15 14 16
ROOT
ATOM      1  C   UNL     1      21.355 -26.121  28.127  1.00  0.00     0.146 C 
ATOM      2  C   UNL     1      20.088 -25.576  27.513  1.00  0.00     0.259 C 
ATOM      3  N   UNL     1      19.345 -26.388  26.893  1.00  0.00    -0.243 N 
ATOM      4  C   UNL     1      18.124 -26.055  26.257  1.00  0.00     0.147 A 
ATOM      5  C   UNL     1      17.407 -27.063  25.607  1.00  0.00     0.055 A 
ATOM      6  C   UNL     1      16.214 -26.812  24.968  1.00  0.00     0.025 A 
ATOM      7  C   UNL     1      15.677 -25.551  24.944  1.00  0.00     0.042 A 
ATOM      8  Cl  UNL     1      14.178 -25.237  24.140  1.00  0.00    -0.084 Cl
ATOM      9  C   UNL     1      16.383 -24.559  25.583  1.00  0.00     0.049 A 
ATOM     10  C   UNL     1      17.564 -24.797  26.218  1.00  0.00     0.156 A 
ATOM     11  S   UNL     1      18.431 -23.498  27.022  1.00  0.00     0.332 S 
ATOM     12  O   UNL     1      17.583 -22.816  28.049  1.00  0.00    -0.179 OA
ATOM     13  O   UNL     1      18.886 -22.519  25.955  1.00  0.00    -0.179 OA
ATOM     14  N   UNL     1      19.848 -24.201  27.689  1.00  0.00    -0.166 N 
ATOM     15  H   UNL     1      19.650 -27.389  26.841  1.00  0.00     0.312 HD
ATOM     16  H   UNL     1      20.550 -23.662  28.221  1.00  0.00     0.327 HD
ENDROOT
TORSDOF 0
ENDMDL
MODEL 5
REMARK VINA RESULT:      -4.6      4.005      4.590
REMARK SMILES CC1=[NH+]c2ccc(Cl)cc2S(=O)(=O)N1
REMARK SMILES IDX 1 1 2 2 3 3 4 4 5 5 6 6 7 7 8 8 9 9 10 10 11 11 12 12 13 13
REMARK SMILES IDX 14 14
REMARK H PARENT 3 15 14 16
ROOT
ATOM      1  C   UNL     1      20.100 -25.109  24.386  1.00  0.00     0.146 C 
ATOM      2  C   UNL     1      18.906 -24.747  25.237  1.00  0.00     0.259 C 
ATOM      3  N   UNL     1      17.777 -25.181  24.872  1.00  0.00    -0.243 N 
ATOM      4  C   UNL     1      16.554 -24.942  25.544  1.00  0.00     0.147 A 
ATOM      5  C   UNL     1      15.380 -25.490  25.021  1.00  0.00     0.055 A 
ATOM      6  C   UNL     1      14.156 -25.298  25.622  1.00  0.00     0.025 A 
ATOM      7  C   UNL     1      14.041 -24.556  26.768  1.00  0.00     0.042 A 
ATOM      8  Cl  UNL     1      12.503 -24.316  27.522  1.00  0.00    -0.084 Cl
ATOM      9  C   UNL     1      15.196 -24.017  27.282  1.00  0.00     0.049 A 
ATOM     10  C   UNL     1      16.411 -24.200  26.696  1.00  0.00     0.156 A 
ATOM     11  S   UNL     1      17.861 -23.492  27.390  1.00  0.00     0.332 S 
ATOM     12  O   UNL     1      18.063 -23.916  28.811  1.00  0.00    -0.179 OA
ATOM     13  O   UNL     1      17.732 -21.983  27.286  1.00  0.00    -0.179 OA
ATOM     14  N   UNL     1      19.162 -23.951  26.368  1.00  0.00    -0.166 N 
ATOM     15  H   UNL     1      17.736 -25.766  24.003  1.00  0.00     0.312 HD
ATOM     16  H   UNL     1      20.142 -23.671  26.538  1.00  0.00     0.327 HD
ENDROOT
TORSDOF 0
ENDMDL
MODEL 6
REMARK VINA RESULT:      -4.5      3.062      4.428
REMARK SMILES CC1=[NH+]c2ccc(Cl)cc2S(=O)(=O)N1
REMARK SMILES IDX 1 1 2 2 3 3 4 4 5 5 6 6 7 7 8 8 9 9 10 10 11 11 12 12 13 13
REMARK SMILES IDX 14 14
REMARK H PARENT 3 15 14 16
ROOT
ATOM      1  C   UNL     1      18.658 -22.632  25.701  1.00  0.00     0.146 C 
ATOM      2  C   UNL     1      18.922 -24.076  26.057  1.00  0.00     0.259 C 
ATOM      3  N   UNL     1      18.463 -24.960  25.281  1.00  0.00    -0.243 N 
ATOM      4  C   UNL     1      18.612 -26.358  25.456  1.00  0.00     0.147 A 
ATOM      5  C   UNL     1      18.049 -27.219  24.511  1.00  0.00     0.055 A 
ATOM      6  C   UNL     1      18.154 -28.587  24.618  1.00  0.00     0.025 A 
ATOM      7  C   UNL     1      18.824 -29.164  25.665  1.00  0.00     0.042 A 
ATOM      8  Cl  UNL     1      18.956 -30.884  25.799  1.00  0.00    -0.084 Cl
ATOM      9  C   UNL     1      19.378 -28.316  26.596  1.00  0.00     0.049 A 
ATOM     10  C   UNL     1      19.279 -26.962  26.499  1.00  0.00     0.156 A 
ATOM     11  S   UNL     1      20.005 -25.918  27.711  1.00  0.00     0.332 S 
ATOM     12  O   UNL     1      21.470 -26.177  27.864  1.00  0.00    -0.179 OA
ATOM     13  O   UNL     1      19.271 -26.154  29.020  1.00  0.00    -0.179 OA
ATOM     14  N   UNL     1      19.660 -24.306  27.232  1.00  0.00    -0.166 N 
ATOM     15  H   UNL     1      17.928 -24.642  24.437  1.00  0.00     0.312 HD
ATOM     16  H   UNL     1      19.969 -23.478  27.767  1.00  0.00     0.327 HD
ENDROOT
TORSDOF 0
ENDMDL
MODEL 7
REMARK VINA RESULT:      -4.5      1.304      1.304
REMARK SMILES CC1=[NH+]c2ccc(Cl)cc2S(=O)(=O)N1
REMARK SMILES IDX 1 1 2 2 3 3 4 4 5 5 6 6 7 7 8 8 9 9 10 10 11 11 12 12 13 13
REMARK SMILES IDX 14 14
REMARK H PARENT 3 15 14 16
ROOT
ATOM      1  C   UNL     1      20.038 -29.840  25.598  1.00  0.00     0.146 C 
ATOM      2  C   UNL     1      19.710 -28.492  26.194  1.00  0.00     0.259 C 
ATOM      3  N   UNL     1      18.857 -27.781  25.593  1.00  0.00    -0.243 N 
ATOM      4  C   UNL     1      18.428 -26.496  26.006  1.00  0.00     0.147 A 
ATOM      5  C   UNL     1      17.472 -25.825  25.237  1.00  0.00     0.055 A 
ATOM      6  C   UNL     1      17.011 -24.574  25.578  1.00  0.00     0.025 A 
ATOM      7  C   UNL     1      17.474 -23.931  26.696  1.00  0.00     0.042 A 
ATOM      8  Cl  UNL     1      16.893 -22.359  27.124  1.00  0.00    -0.084 Cl
ATOM      9  C   UNL     1      18.414 -24.591  27.452  1.00  0.00     0.049 A 
ATOM     10  C   UNL     1      18.878 -25.828  27.123  1.00  0.00     0.156 A 
ATOM     11  S   UNL     1      20.079 -26.633  28.121  1.00  0.00     0.332 S 
ATOM     12  O   UNL     1      19.626 -26.767  29.540  1.00  0.00    -0.179 OA
ATOM     13  O   UNL     1      21.363 -25.827  28.034  1.00  0.00    -0.179 OA
ATOM     14  N   UNL     1      20.392 -28.148  27.376  1.00  0.00    -0.166 N 
ATOM     15  H   UNL     1      18.427 -28.167  24.718  1.00  0.00     0.312 HD
ATOM     16  H   UNL     1      21.065 -28.835  27.752  1.00  0.00     0.327 HD
ENDROOT
TORSDOF 0
ENDMDL
MODEL 8
REMARK VINA RESULT:      -4.4      3.397      4.835
REMARK SMILES CC1=[NH+]c2ccc(Cl)cc2S(=O)(=O)N1
REMARK SMILES IDX 1 1 2 2 3 3 4 4 5 5 6 6 7 7 8 8 9 9 10 10 11 11 12 12 13 13
REMARK SMILES IDX 14 14
REMARK H PARENT 3 15 14 16
ROOT
ATOM      1  C   UNL     1      18.595 -21.987  25.805  1.00  0.00     0.146 C 
ATOM      2  C   UNL     1      18.488 -23.407  26.308  1.00  0.00     0.259 C 
ATOM      3  N   UNL     1      19.361 -24.231  25.917  1.00  0.00    -0.243 N 
ATOM      4  C   UNL     1      19.417 -25.597  26.284  1.00  0.00     0.147 A 
ATOM      5  C   UNL     1      20.447 -26.391  25.771  1.00  0.00     0.055 A 
ATOM      6  C   UNL     1      20.562 -27.727  26.085  1.00  0.00     0.025 A 
ATOM      7  C   UNL     1      19.664 -28.336  26.922  1.00  0.00     0.042 A 
ATOM      8  Cl  UNL     1      19.810 -30.014  27.315  1.00  0.00    -0.084 Cl
ATOM      9  C   UNL     1      18.650 -27.555  27.426  1.00  0.00     0.049 A 
ATOM     10  C   UNL     1      18.527 -26.233  27.121  1.00  0.00     0.156 A 
ATOM     11  S   UNL     1      17.217 -25.274  27.791  1.00  0.00     0.332 S 
ATOM     12  O   UNL     1      17.202 -25.318  29.287  1.00  0.00    -0.179 OA
ATOM     13  O   UNL     1      15.916 -25.810  27.219  1.00  0.00    -0.179 OA
ATOM     14  N   UNL     1      17.414 -23.685  27.173  1.00  0.00    -0.166 N 
ATOM     15  H   UNL     1      20.108 -23.882  25.269  1.00  0.00     0.312 HD
ATOM     16  H   UNL     1      16.777 -22.905  27.404  1.00  0.00     0.327 HD
ENDROOT
TORSDOF 0
ENDMDL
MODEL 9
REMARK VINA RESULT:      -4.4      2.403      2.936
REMARK SMILES CC1=[NH+]c2ccc(Cl)cc2S(=O)(=O)N1
REMARK SMILES IDX 1 1 2 2 3 3 4 4 5 5 6 6 7 7 8 8 9 9 10 10 11 11 12 12 13 13
REMARK SMILES IDX 14 14
REMARK H PARENT 3 15 14 16
ROOT
ATOM      1  C   UNL     1      17.965 -28.946  29.909  1.00  0.00     0.146 C 
ATOM      2  C   UNL     1      18.449 -27.802  29.050  1.00  0.00     0.259 C 
ATOM      3  N   UNL     1      17.656 -26.835  28.866  1.00  0.00    -0.243 N 
ATOM      4  C   UNL     1      17.939 -25.683  28.093  1.00  0.00     0.147 A 
ATOM      5  C   UNL     1      16.961 -24.691  27.980  1.00  0.00     0.055 A 
ATOM      6  C   UNL     1      17.166 -23.546  27.245  1.00  0.00     0.025 A 
ATOM      7  C   UNL     1      18.351 -23.331  26.589  1.00  0.00     0.042 A 
ATOM      8  Cl  UNL     1      18.608 -21.891  25.665  1.00  0.00    -0.084 Cl
ATOM      9  C   UNL     1      19.313 -24.307  26.700  1.00  0.00     0.049 A 
ATOM     10  C   UNL     1      19.119 -25.444  27.424  1.00  0.00     0.156 A 
ATOM     11  S   UNL     1      20.378 -26.663  27.539  1.00  0.00     0.332 S 
ATOM     12  O   UNL     1      21.658 -26.095  28.066  1.00  0.00    -0.179 OA
ATOM     13  O   UNL     1      20.575 -27.252  26.153  1.00  0.00    -0.179 OA
ATOM     14  N   UNL     1      19.750 -27.918  28.526  1.00  0.00    -0.166 N 
ATOM     15  H   UNL     1      16.713 -26.883  29.320  1.00  0.00     0.312 HD
ATOM     16  H   UNL     1      20.281 -28.772  28.764  1.00  0.00     0.327 HD
ENDROOT
TORSDOF 0
ENDMDL
