MODEL 1
REMARK VINA RESULT:     -10.4      0.000      0.000
REMARK SMILES O=c1cc(-c2ccccc2)oc2cc(O)cc(O)c12
REMARK SMILES IDX 1 1 2 2 3 3 4 4 11 5 12 6 13 7 14 8 16 9 17 10 19 11 5 12
REMARK SMILES IDX 6 13 10 14 7 15 9 16 8 17 18 18 15 20
REMARK H PARENT 18 19 15 21
ROOT
ATOM      1  O   UNL     1     -11.711  87.465 -62.326  1.00  0.00    -0.289 OA
ATOM      2  C   UNL     1     -12.790  87.902 -61.852  1.00  0.00     0.197 A 
ATOM      3  C   UNL     1     -13.480  87.251 -60.820  1.00  0.00     0.100 A 
ATOM      4  C   UNL     1     -14.659  87.748 -60.316  1.00  0.00     0.138 A 
ATOM      5  O   UNL     1     -15.104  88.859 -60.851  1.00  0.00    -0.456 OA
ATOM      6  C   UNL     1     -14.506  89.513 -61.816  1.00  0.00     0.146 A 
ATOM      7  C   UNL     1     -15.030  90.688 -62.341  1.00  0.00     0.094 A 
ATOM      8  C   UNL     1     -14.428  91.398 -63.351  1.00  0.00     0.123 A 
ATOM      9  C   UNL     1     -13.246  90.935 -63.883  1.00  0.00     0.093 A 
ATOM     10  C   UNL     1     -12.694  89.773 -63.391  1.00  0.00     0.134 A 
ATOM     11  C   UNL     1     -13.322  89.064 -62.360  1.00  0.00     0.107 A 
ENDROOT
BRANCH   4  12
ATOM     12  C   UNL     1     -15.387  87.074 -59.238  1.00  0.00     0.017 A 
ATOM     13  C   UNL     1     -14.796  86.275 -58.296  1.00  0.00     0.012 A 
ATOM     14  C   UNL     1     -16.758  87.242 -59.145  1.00  0.00     0.012 A 
ATOM     15  C   UNL     1     -15.532  85.653 -57.284  1.00  0.00     0.001 A 
ATOM     16  C   UNL     1     -17.515  86.638 -58.153  1.00  0.00     0.001 A 
ATOM     17  C   UNL     1     -16.897  85.831 -57.207  1.00  0.00     0.000 A 
ENDBRANCH   4  12
BRANCH  10  18
ATOM     18  O   UNL     1     -11.513  89.312 -63.923  1.00  0.00    -0.507 OA
ATOM     19  H   UNL     1     -10.636  89.545 -63.493  1.00  0.00     0.293 HD
ENDBRANCH  10  18
BRANCH   8  20
ATOM     20  O   UNL     1     -14.993  92.576 -63.847  1.00  0.00    -0.508 OA
ATOM     21  H   UNL     1     -15.319  93.323 -63.251  1.00  0.00     0.293 HD
ENDBRANCH   8  20
TORSDOF 3
ENDMDL
MODEL 2
REMARK VINA RESULT:     -10.3      0.142      1.091
REMARK SMILES O=c1cc(-c2ccccc2)oc2cc(O)cc(O)c12
REMARK SMILES IDX 1 1 2 2 3 3 4 4 11 5 12 6 13 7 14 8 16 9 17 10 19 11 5 12
REMARK SMILES IDX 6 13 10 14 7 15 9 16 8 17 18 18 15 20
REMARK H PARENT 18 19 15 21
ROOT
ATOM      1  O   UNL     1     -11.703  87.439 -62.399  1.00  0.00    -0.289 OA
ATOM      2  C   UNL     1     -12.771  87.881 -61.907  1.00  0.00     0.197 A 
ATOM      3  C   UNL     1     -13.449  87.230 -60.866  1.00  0.00     0.100 A 
ATOM      4  C   UNL     1     -14.617  87.733 -60.342  1.00  0.00     0.138 A 
ATOM      5  O   UNL     1     -15.063  88.849 -60.866  1.00  0.00    -0.456 OA
ATOM      6  C   UNL     1     -14.476  89.503 -61.837  1.00  0.00     0.146 A 
ATOM      7  C   UNL     1     -15.000  90.684 -62.349  1.00  0.00     0.094 A 
ATOM      8  C   UNL     1     -14.410  91.394 -63.366  1.00  0.00     0.123 A 
ATOM      9  C   UNL     1     -13.240  90.925 -63.919  1.00  0.00     0.093 A 
ATOM     10  C   UNL     1     -12.687  89.757 -63.439  1.00  0.00     0.134 A 
ATOM     11  C   UNL     1     -13.304  89.048 -62.402  1.00  0.00     0.107 A 
ENDROOT
BRANCH   4  12
ATOM     12  C   UNL     1     -15.333  87.060 -59.255  1.00  0.00     0.017 A 
ATOM     13  C   UNL     1     -16.686  87.143 -59.061  1.00  0.00     0.012 A 
ATOM     14  C   UNL     1     -14.618  86.286 -58.358  1.00  0.00     0.012 A 
ATOM     15  C   UNL     1     -17.325  86.483 -58.009  1.00  0.00     0.001 A 
ATOM     16  C   UNL     1     -15.224  85.619 -57.304  1.00  0.00     0.001 A 
ATOM     17  C   UNL     1     -16.598  85.716 -57.124  1.00  0.00     0.000 A 
ENDBRANCH   4  12
BRANCH  10  18
ATOM     18  O   UNL     1     -11.518  89.290 -63.992  1.00  0.00    -0.507 OA
ATOM     19  H   UNL     1     -11.525  88.833 -64.886  1.00  0.00     0.293 HD
ENDBRANCH  10  18
BRANCH   8  20
ATOM     20  O   UNL     1     -14.975  92.577 -63.849  1.00  0.00    -0.508 OA
ATOM     21  H   UNL     1     -15.816  92.596 -64.408  1.00  0.00     0.293 HD
ENDBRANCH   8  20
TORSDOF 3
ENDMDL
MODEL 3
REMARK VINA RESULT:     -10.1      1.346      3.189
REMARK SMILES O=c1cc(-c2ccccc2)oc2cc(O)cc(O)c12
REMARK SMILES IDX 1 1 2 2 3 3 4 4 11 5 12 6 13 7 14 8 16 9 17 10 19 11 5 12
REMARK SMILES IDX 6 13 10 14 7 15 9 16 8 17 18 18 15 20
REMARK H PARENT 18 19 15 21
ROOT
ATOM      1  O   UNL     1     -14.950  91.606 -62.992  1.00  0.00    -0.289 OA
ATOM      2  C   UNL     1     -14.779  90.533 -62.361  1.00  0.00     0.197 A 
ATOM      3  C   UNL     1     -15.684  90.073 -61.394  1.00  0.00     0.100 A 
ATOM      4  C   UNL     1     -15.477  88.896 -60.716  1.00  0.00     0.138 A 
ATOM      5  O   UNL     1     -14.391  88.226 -61.019  1.00  0.00    -0.456 OA
ATOM      6  C   UNL     1     -13.509  88.602 -61.912  1.00  0.00     0.146 A 
ATOM      7  C   UNL     1     -12.376  87.846 -62.188  1.00  0.00     0.094 A 
ATOM      8  C   UNL     1     -11.433  88.211 -63.118  1.00  0.00     0.123 A 
ATOM      9  C   UNL     1     -11.603  89.384 -63.819  1.00  0.00     0.093 A 
ATOM     10  C   UNL     1     -12.713  90.162 -63.574  1.00  0.00     0.134 A 
ATOM     11  C   UNL     1     -13.663  89.773 -62.623  1.00  0.00     0.107 A 
ENDROOT
BRANCH   4  12
ATOM     12  C   UNL     1     -16.417  88.408 -59.703  1.00  0.00     0.017 A 
ATOM     13  C   UNL     1     -17.388  89.180 -59.122  1.00  0.00     0.012 A 
ATOM     14  C   UNL     1     -16.338  87.088 -59.292  1.00  0.00     0.012 A 
ATOM     15  C   UNL     1     -18.263  88.670 -58.160  1.00  0.00     0.001 A 
ATOM     16  C   UNL     1     -17.192  86.554 -58.340  1.00  0.00     0.001 A 
ATOM     17  C   UNL     1     -18.170  87.353 -57.763  1.00  0.00     0.000 A 
ENDBRANCH   4  12
BRANCH  10  18
ATOM     18  O   UNL     1     -12.881  91.333 -64.275  1.00  0.00    -0.507 OA
ATOM     19  H   UNL     1     -12.534  92.200 -63.908  1.00  0.00     0.293 HD
ENDBRANCH  10  18
BRANCH   8  20
ATOM     20  O   UNL     1     -10.309  87.419 -63.362  1.00  0.00    -0.508 OA
ATOM     21  H   UNL     1     -10.136  86.969 -64.249  1.00  0.00     0.293 HD
ENDBRANCH   8  20
TORSDOF 3
ENDMDL
MODEL 4
REMARK VINA RESULT:     -10.1      1.354      3.046
REMARK SMILES O=c1cc(-c2ccccc2)oc2cc(O)cc(O)c12
REMARK SMILES IDX 1 1 2 2 3 3 4 4 11 5 12 6 13 7 14 8 16 9 17 10 19 11 5 12
REMARK SMILES IDX 6 13 10 14 7 15 9 16 8 17 18 18 15 20
REMARK H PARENT 18 19 15 21
ROOT
ATOM      1  O   UNL     1     -14.942  91.552 -62.948  1.00  0.00    -0.289 OA
ATOM      2  C   UNL     1     -14.754  90.473 -62.332  1.00  0.00     0.197 A 
ATOM      3  C   UNL     1     -15.647  89.990 -61.365  1.00  0.00     0.100 A 
ATOM      4  C   UNL     1     -15.422  88.806 -60.704  1.00  0.00     0.138 A 
ATOM      5  O   UNL     1     -14.330  88.153 -61.023  1.00  0.00    -0.456 OA
ATOM      6  C   UNL     1     -13.459  88.552 -61.916  1.00  0.00     0.146 A 
ATOM      7  C   UNL     1     -12.319  87.813 -62.210  1.00  0.00     0.094 A 
ATOM      8  C   UNL     1     -11.386  88.202 -63.141  1.00  0.00     0.123 A 
ATOM      9  C   UNL     1     -11.575  89.381 -63.825  1.00  0.00     0.093 A 
ATOM     10  C   UNL     1     -12.692  90.143 -63.563  1.00  0.00     0.134 A 
ATOM     11  C   UNL     1     -13.631  89.730 -62.611  1.00  0.00     0.107 A 
ENDROOT
BRANCH   4  12
ATOM     12  C   UNL     1     -16.349  88.294 -59.691  1.00  0.00     0.017 A 
ATOM     13  C   UNL     1     -16.321  87.014 -59.204  1.00  0.00     0.012 A 
ATOM     14  C   UNL     1     -17.320  89.137 -59.181  1.00  0.00     0.012 A 
ATOM     15  C   UNL     1     -17.226  86.570 -58.237  1.00  0.00     0.001 A 
ATOM     16  C   UNL     1     -18.232  88.725 -58.221  1.00  0.00     0.001 A 
ATOM     17  C   UNL     1     -18.188  87.424 -57.739  1.00  0.00     0.000 A 
ENDBRANCH   4  12
BRANCH  10  18
ATOM     18  O   UNL     1     -12.879  91.320 -64.248  1.00  0.00    -0.507 OA
ATOM     19  H   UNL     1     -12.789  91.347 -65.247  1.00  0.00     0.293 HD
ENDBRANCH  10  18
BRANCH   8  20
ATOM     20  O   UNL     1     -10.254  87.426 -63.403  1.00  0.00    -0.508 OA
ATOM     21  H   UNL     1     -10.246  86.678 -64.082  1.00  0.00     0.293 HD
ENDBRANCH   8  20
TORSDOF 3
ENDMDL
MODEL 5
REMARK VINA RESULT:     -10.1      2.082      6.140
REMARK SMILES O=c1cc(-c2ccccc2)oc2cc(O)cc(O)c12
REMARK SMILES IDX 1 1 2 2 3 3 4 4 11 5 12 6 13 7 14 8 16 9 17 10 19 11 5 12
REMARK SMILES IDX 6 13 10 14 7 15 9 16 8 17 18 18 15 20
REMARK H PARENT 18 19 15 21
ROOT
ATOM      1  O   UNL     1     -13.675  85.624 -59.161  1.00  0.00    -0.289 OA
ATOM      2  C   UNL     1     -14.266  86.640 -59.605  1.00  0.00     0.197 A 
ATOM      3  C   UNL     1     -13.740  87.427 -60.640  1.00  0.00     0.100 A 
ATOM      4  C   UNL     1     -14.405  88.535 -61.110  1.00  0.00     0.138 A 
ATOM      5  O   UNL     1     -15.553  88.817 -60.542  1.00  0.00    -0.456 OA
ATOM      6  C   UNL     1     -16.095  88.121 -59.573  1.00  0.00     0.146 A 
ATOM      7  C   UNL     1     -17.317  88.473 -59.013  1.00  0.00     0.094 A 
ATOM      8  C   UNL     1     -17.913  87.766 -57.997  1.00  0.00     0.123 A 
ATOM      9  C   UNL     1     -17.280  86.650 -57.497  1.00  0.00     0.093 A 
ATOM     10  C   UNL     1     -16.067  86.268 -58.026  1.00  0.00     0.134 A 
ATOM     11  C   UNL     1     -15.476  87.002 -59.061  1.00  0.00     0.107 A 
ENDROOT
BRANCH   4  12
ATOM     12  C   UNL     1     -13.863  89.364 -62.190  1.00  0.00     0.017 A 
ATOM     13  C   UNL     1     -12.701  89.087 -62.861  1.00  0.00     0.012 A 
ATOM     14  C   UNL     1     -14.552  90.501 -62.575  1.00  0.00     0.012 A 
ATOM     15  C   UNL     1     -12.224  89.907 -63.886  1.00  0.00     0.001 A 
ATOM     16  C   UNL     1     -14.104  91.334 -63.588  1.00  0.00     0.001 A 
ATOM     17  C   UNL     1     -12.923  91.036 -64.256  1.00  0.00     0.000 A 
ENDBRANCH   4  12
BRANCH  10  18
ATOM     18  O   UNL     1     -15.437  85.153 -57.526  1.00  0.00    -0.507 OA
ATOM     19  H   UNL     1     -15.508  84.272 -58.002  1.00  0.00     0.293 HD
ENDBRANCH  10  18
BRANCH   8  20
ATOM     20  O   UNL     1     -19.143  88.158 -57.464  1.00  0.00    -0.508 OA
ATOM     21  H   UNL     1     -19.376  89.121 -57.269  1.00  0.00     0.293 HD
ENDBRANCH   8  20
TORSDOF 3
ENDMDL
MODEL 6
REMARK VINA RESULT:     -10.1      2.151      6.737
REMARK SMILES O=c1cc(-c2ccccc2)oc2cc(O)cc(O)c12
REMARK SMILES IDX 1 1 2 2 3 3 4 4 11 5 12 6 13 7 14 8 16 9 17 10 19 11 5 12
REMARK SMILES IDX 6 13 10 14 7 15 9 16 8 17 18 18 15 20
REMARK H PARENT 18 19 15 21
ROOT
ATOM      1  O   UNL     1     -18.117  90.354 -59.838  1.00  0.00    -0.289 OA
ATOM      2  C   UNL     1     -17.096  89.648 -60.035  1.00  0.00     0.197 A 
ATOM      3  C   UNL     1     -16.135  89.964 -61.007  1.00  0.00     0.100 A 
ATOM      4  C   UNL     1     -15.026  89.177 -61.205  1.00  0.00     0.138 A 
ATOM      5  O   UNL     1     -14.913  88.116 -60.441  1.00  0.00    -0.456 OA
ATOM      6  C   UNL     1     -15.776  87.769 -59.518  1.00  0.00     0.146 A 
ATOM      7  C   UNL     1     -15.598  86.631 -58.740  1.00  0.00     0.094 A 
ATOM      8  C   UNL     1     -16.482  86.239 -57.764  1.00  0.00     0.123 A 
ATOM      9  C   UNL     1     -17.606  87.000 -57.534  1.00  0.00     0.093 A 
ATOM     10  C   UNL     1     -17.819  88.136 -58.284  1.00  0.00     0.134 A 
ATOM     11  C   UNL     1     -16.906  88.519 -59.274  1.00  0.00     0.107 A 
ENDROOT
BRANCH   4  12
ATOM     12  C   UNL     1     -14.017  89.499 -62.218  1.00  0.00     0.017 A 
ATOM     13  C   UNL     1     -14.044  90.625 -62.997  1.00  0.00     0.012 A 
ATOM     14  C   UNL     1     -12.962  88.626 -62.416  1.00  0.00     0.012 A 
ATOM     15  C   UNL     1     -13.059  90.890 -63.950  1.00  0.00     0.001 A 
ATOM     16  C   UNL     1     -11.969  88.862 -63.355  1.00  0.00     0.001 A 
ATOM     17  C   UNL     1     -12.014  90.010 -64.135  1.00  0.00     0.000 A 
ENDBRANCH   4  12
BRANCH  10  18
ATOM     18  O   UNL     1     -18.941  88.894 -58.052  1.00  0.00    -0.507 OA
ATOM     19  H   UNL     1     -19.108  89.731 -58.582  1.00  0.00     0.293 HD
ENDBRANCH  10  18
BRANCH   8  20
ATOM     20  O   UNL     1     -16.263  85.086 -57.006  1.00  0.00    -0.508 OA
ATOM     21  H   UNL     1     -16.957  84.362 -56.894  1.00  0.00     0.293 HD
ENDBRANCH   8  20
TORSDOF 3
ENDMDL
MODEL 7
REMARK VINA RESULT:     -10.1      1.916      6.193
REMARK SMILES O=c1cc(-c2ccccc2)oc2cc(O)cc(O)c12
REMARK SMILES IDX 1 1 2 2 3 3 4 4 11 5 12 6 13 7 14 8 16 9 17 10 19 11 5 12
REMARK SMILES IDX 6 13 10 14 7 15 9 16 8 17 18 18 15 20
REMARK H PARENT 18 19 15 21
ROOT
ATOM      1  O   UNL     1     -12.768  86.039 -59.719  1.00  0.00    -0.289 OA
ATOM      2  C   UNL     1     -13.621  86.905 -60.039  1.00  0.00     0.197 A 
ATOM      3  C   UNL     1     -13.383  87.868 -61.031  1.00  0.00     0.100 A 
ATOM      4  C   UNL     1     -14.331  88.805 -61.365  1.00  0.00     0.138 A 
ATOM      5  O   UNL     1     -15.466  88.754 -60.709  1.00  0.00    -0.456 OA
ATOM      6  C   UNL     1     -15.746  87.880 -59.774  1.00  0.00     0.146 A 
ATOM      7  C   UNL     1     -16.970  87.878 -59.116  1.00  0.00     0.094 A 
ATOM      8  C   UNL     1     -17.296  86.977 -58.132  1.00  0.00     0.123 A 
ATOM      9  C   UNL     1     -16.375  86.021 -57.767  1.00  0.00     0.093 A 
ATOM     10  C   UNL     1     -15.150  85.989 -58.396  1.00  0.00     0.134 A 
ATOM     11  C   UNL     1     -14.836  86.917 -59.397  1.00  0.00     0.107 A 
ENDROOT
BRANCH   4  12
ATOM     12  C   UNL     1     -14.093  89.815 -62.400  1.00  0.00     0.017 A 
ATOM     13  C   UNL     1     -14.927  90.873 -62.646  1.00  0.00     0.012 A 
ATOM     14  C   UNL     1     -12.960  89.715 -63.189  1.00  0.00     0.012 A 
ATOM     15  C   UNL     1     -14.658  91.813 -63.644  1.00  0.00     0.001 A 
ATOM     16  C   UNL     1     -12.666  90.632 -64.187  1.00  0.00     0.001 A 
ATOM     17  C   UNL     1     -13.525  91.697 -64.420  1.00  0.00     0.000 A 
ENDBRANCH   4  12
BRANCH  10  18
ATOM     18  O   UNL     1     -14.231  85.034 -58.031  1.00  0.00    -0.507 OA
ATOM     19  H   UNL     1     -13.545  85.231 -57.325  1.00  0.00     0.293 HD
ENDBRANCH  10  18
BRANCH   8  20
ATOM     20  O   UNL     1     -18.540  87.014 -57.496  1.00  0.00    -0.508 OA
ATOM     21  H   UNL     1     -19.242  86.299 -57.622  1.00  0.00     0.293 HD
ENDBRANCH   8  20
TORSDOF 3
ENDMDL
MODEL 8
REMARK VINA RESULT:     -10.0      2.186      6.698
REMARK SMILES O=c1cc(-c2ccccc2)oc2cc(O)cc(O)c12
REMARK SMILES IDX 1 1 2 2 3 3 4 4 11 5 12 6 13 7 14 8 16 9 17 10 19 11 5 12
REMARK SMILES IDX 6 13 10 14 7 15 9 16 8 17 18 18 15 20
REMARK H PARENT 18 19 15 21
ROOT
ATOM      1  O   UNL     1     -18.170  90.318 -59.744  1.00  0.00    -0.289 OA
ATOM      2  C   UNL     1     -17.151  89.608 -59.939  1.00  0.00     0.197 A 
ATOM      3  C   UNL     1     -16.185  89.923 -60.905  1.00  0.00     0.100 A 
ATOM      4  C   UNL     1     -15.078  89.131 -61.100  1.00  0.00     0.138 A 
ATOM      5  O   UNL     1     -14.974  88.068 -60.339  1.00  0.00    -0.456 OA
ATOM      6  C   UNL     1     -15.842  87.721 -59.421  1.00  0.00     0.146 A 
ATOM      7  C   UNL     1     -15.674  86.580 -58.646  1.00  0.00     0.094 A 
ATOM      8  C   UNL     1     -16.564  86.189 -57.676  1.00  0.00     0.123 A 
ATOM      9  C   UNL     1     -17.686  86.954 -57.448  1.00  0.00     0.093 A 
ATOM     10  C   UNL     1     -17.889  88.093 -58.196  1.00  0.00     0.134 A 
ATOM     11  C   UNL     1     -16.970  88.475 -59.180  1.00  0.00     0.107 A 
ENDROOT
BRANCH   4  12
ATOM     12  C   UNL     1     -14.062  89.452 -62.107  1.00  0.00     0.017 A 
ATOM     13  C   UNL     1     -12.974  88.665 -62.376  1.00  0.00     0.012 A 
ATOM     14  C   UNL     1     -14.191  90.615 -62.844  1.00  0.00     0.012 A 
ATOM     15  C   UNL     1     -12.031  89.011 -63.346  1.00  0.00     0.001 A 
ATOM     16  C   UNL     1     -13.272  90.986 -63.814  1.00  0.00     0.001 A 
ATOM     17  C   UNL     1     -12.175  90.175 -64.072  1.00  0.00     0.000 A 
ENDBRANCH   4  12
BRANCH  10  18
ATOM     18  O   UNL     1     -19.009  88.856 -57.968  1.00  0.00    -0.507 OA
ATOM     19  H   UNL     1     -19.921  88.436 -57.972  1.00  0.00     0.293 HD
ENDBRANCH  10  18
BRANCH   8  20
ATOM     20  O   UNL     1     -16.353  85.033 -56.921  1.00  0.00    -0.508 OA
ATOM     21  H   UNL     1     -16.947  84.765 -56.149  1.00  0.00     0.293 HD
ENDBRANCH   8  20
TORSDOF 3
ENDMDL
MODEL 9
REMARK VINA RESULT:     -10.0      1.251      3.022
REMARK SMILES O=c1cc(-c2ccccc2)oc2cc(O)cc(O)c12
REMARK SMILES IDX 1 1 2 2 3 3 4 4 11 5 12 6 13 7 14 8 16 9 17 10 19 11 5 12
REMARK SMILES IDX 6 13 10 14 7 15 9 16 8 17 18 18 15 20
REMARK H PARENT 18 19 15 21
ROOT
ATOM      1  O   UNL     1     -14.941  90.983 -62.519  1.00  0.00    -0.289 OA
ATOM      2  C   UNL     1     -14.583  89.881 -62.031  1.00  0.00     0.197 A 
ATOM      3  C   UNL     1     -15.316  89.225 -61.032  1.00  0.00     0.100 A 
ATOM      4  C   UNL     1     -14.906  88.020 -60.512  1.00  0.00     0.138 A 
ATOM      5  O   UNL     1     -13.795  87.518 -60.997  1.00  0.00    -0.456 OA
ATOM      6  C   UNL     1     -13.068  88.083 -61.930  1.00  0.00     0.146 A 
ATOM      7  C   UNL     1     -11.900  87.498 -62.403  1.00  0.00     0.094 A 
ATOM      8  C   UNL     1     -11.115  88.063 -63.379  1.00  0.00     0.123 A 
ATOM      9  C   UNL     1     -11.490  89.269 -63.925  1.00  0.00     0.093 A 
ATOM     10  C   UNL     1     -12.643  89.881 -63.483  1.00  0.00     0.134 A 
ATOM     11  C   UNL     1     -13.429  89.290 -62.488  1.00  0.00     0.107 A 
ENDROOT
BRANCH   4  12
ATOM     12  C   UNL     1     -15.664  87.327 -59.467  1.00  0.00     0.017 A 
ATOM     13  C   UNL     1     -17.014  87.464 -59.281  1.00  0.00     0.012 A 
ATOM     14  C   UNL     1     -14.997  86.475 -58.605  1.00  0.00     0.012 A 
ATOM     15  C   UNL     1     -17.696  86.782 -58.270  1.00  0.00     0.001 A 
ATOM     16  C   UNL     1     -15.646  85.784 -57.593  1.00  0.00     0.001 A 
ATOM     17  C   UNL     1     -17.015  85.937 -57.420  1.00  0.00     0.000 A 
ENDBRANCH   4  12
BRANCH  10  18
ATOM     18  O   UNL     1     -13.016  91.085 -64.031  1.00  0.00    -0.507 OA
ATOM     19  H   UNL     1     -12.333  91.801 -64.201  1.00  0.00     0.293 HD
ENDBRANCH  10  18
BRANCH   8  20
ATOM     20  O   UNL     1      -9.947  87.438 -63.823  1.00  0.00    -0.508 OA
ATOM     21  H   UNL     1      -9.783  87.204 -64.791  1.00  0.00     0.293 HD
ENDBRANCH   8  20
TORSDOF 3
ENDMDL
