MODEL 1
REMARK VINA RESULT:     -10.9      0.000      0.000
REMARK SMILES O=c1c([O-])c(-c2ccccc2)oc2cc([O-])cc([O-])c12
REMARK SMILES IDX 1 1 2 2 3 3 4 4 5 5 12 6 13 7 14 8 15 9 16 10 17 11 18 12
REMARK SMILES IDX 19 13 20 14 6 15 7 16 11 17 8 18 10 19 9 20
REMARK H PARENT
ROOT
ATOM      1  O   UNL     1     -14.881  91.011 -62.489  1.00  0.00    -0.290 OA
ATOM      2  C   UNL     1     -14.486  89.904 -62.068  1.00  0.00     0.184 A 
ATOM      3  C   UNL     1     -15.268  89.296 -61.065  1.00  0.00    -0.014 A 
ATOM      4  O   UNL     1     -16.394  89.926 -60.611  1.00  0.00    -0.867 OA
ATOM      5  C   UNL     1     -14.862  88.085 -60.585  1.00  0.00     0.130 A 
ATOM      6  O   UNL     1     -13.739  87.531 -61.085  1.00  0.00    -0.457 OA
ATOM      7  C   UNL     1     -13.022  88.077 -61.995  1.00  0.00     0.137 A 
ATOM      8  C   UNL     1     -11.893  87.462 -62.463  1.00  0.00     0.039 A 
ATOM      9  C   UNL     1     -11.099  88.021 -63.441  1.00  0.00    -0.106 A 
ATOM     10  O   UNL     1      -9.953  87.369 -63.896  1.00  0.00    -0.872 OA
ATOM     11  C   UNL     1     -11.463  89.259 -63.974  1.00  0.00    -0.016 A 
ATOM     12  C   UNL     1     -12.589  89.902 -63.528  1.00  0.00    -0.094 A 
ATOM     13  O   UNL     1     -12.940  91.125 -64.059  1.00  0.00    -0.872 OA
ATOM     14  C   UNL     1     -13.346  89.303 -62.552  1.00  0.00     0.056 A 
ENDROOT
BRANCH   5  15
ATOM     15  C   UNL     1     -15.583  87.362 -59.553  1.00  0.00     0.017 A 
ATOM     16  C   UNL     1     -16.924  87.332 -59.339  1.00  0.00     0.012 A 
ATOM     17  C   UNL     1     -14.830  86.589 -58.653  1.00  0.00     0.012 A 
ATOM     18  C   UNL     1     -17.519  86.603 -58.320  1.00  0.00     0.001 A 
ATOM     19  C   UNL     1     -15.403  85.860 -57.637  1.00  0.00     0.001 A 
ATOM     20  C   UNL     1     -16.767  85.857 -57.455  1.00  0.00     0.000 A 
ENDBRANCH   5  15
TORSDOF 1
ENDMDL
MODEL 2
REMARK VINA RESULT:     -10.7      1.145      3.128
REMARK SMILES O=c1c([O-])c(-c2ccccc2)oc2cc([O-])cc([O-])c12
REMARK SMILES IDX 1 1 2 2 3 3 4 4 5 5 12 6 13 7 14 8 15 9 16 10 17 11 18 12
REMARK SMILES IDX 19 13 20 14 6 15 7 16 11 17 8 18 10 19 9 20
REMARK H PARENT
ROOT
ATOM      1  O   UNL     1     -11.210  86.425 -62.118  1.00  0.00    -0.290 OA
ATOM      2  C   UNL     1     -12.218  87.097 -61.818  1.00  0.00     0.184 A 
ATOM      3  C   UNL     1     -13.029  86.588 -60.782  1.00  0.00    -0.014 A 
ATOM      4  O   UNL     1     -12.685  85.414 -60.169  1.00  0.00    -0.867 OA
ATOM      5  C   UNL     1     -14.138  87.300 -60.430  1.00  0.00     0.130 A 
ATOM      6  O   UNL     1     -14.408  88.448 -61.085  1.00  0.00    -0.457 OA
ATOM      7  C   UNL     1     -13.677  88.918 -62.026  1.00  0.00     0.137 A 
ATOM      8  C   UNL     1     -14.005  90.090 -62.650  1.00  0.00     0.039 A 
ATOM      9  C   UNL     1     -13.242  90.624 -63.666  1.00  0.00    -0.106 A 
ATOM     10  O   UNL     1     -13.603  91.822 -64.284  1.00  0.00    -0.872 OA
ATOM     11  C   UNL     1     -12.092  89.941 -64.071  1.00  0.00    -0.016 A 
ATOM     12  C   UNL     1     -11.736  88.764 -63.467  1.00  0.00    -0.094 A 
ATOM     13  O   UNL     1     -10.600  88.097 -63.873  1.00  0.00    -0.872 OA
ATOM     14  C   UNL     1     -12.529  88.275 -62.459  1.00  0.00     0.056 A 
ENDROOT
BRANCH   5  15
ATOM     15  C   UNL     1     -15.049  86.878 -59.382  1.00  0.00     0.017 A 
ATOM     16  C   UNL     1     -14.752  86.194 -58.246  1.00  0.00     0.012 A 
ATOM     17  C   UNL     1     -16.408  87.204 -59.530  1.00  0.00     0.012 A 
ATOM     18  C   UNL     1     -15.701  85.837 -57.300  1.00  0.00     0.001 A 
ATOM     19  C   UNL     1     -17.362  86.858 -58.601  1.00  0.00     0.001 A 
ATOM     20  C   UNL     1     -17.019  86.164 -57.464  1.00  0.00     0.000 A 
ENDBRANCH   5  15
TORSDOF 1
ENDMDL
MODEL 3
REMARK VINA RESULT:     -10.6      1.138      1.351
REMARK SMILES O=c1c([O-])c(-c2ccccc2)oc2cc([O-])cc([O-])c12
REMARK SMILES IDX 1 1 2 2 3 3 4 4 5 5 12 6 13 7 14 8 15 9 16 10 17 11 18 12
REMARK SMILES IDX 19 13 20 14 6 15 7 16 11 17 8 18 10 19 9 20
REMARK H PARENT
ROOT
ATOM      1  O   UNL     1     -13.636  90.089 -62.529  1.00  0.00    -0.290 OA
ATOM      2  C   UNL     1     -13.602  88.950 -62.018  1.00  0.00     0.184 A 
ATOM      3  C   UNL     1     -14.572  88.673 -61.032  1.00  0.00    -0.014 A 
ATOM      4  O   UNL     1     -15.481  89.635 -60.688  1.00  0.00    -0.867 OA
ATOM      5  C   UNL     1     -14.561  87.436 -60.456  1.00  0.00     0.130 A 
ATOM      6  O   UNL     1     -13.630  86.543 -60.851  1.00  0.00    -0.457 OA
ATOM      7  C   UNL     1     -12.747  86.787 -61.745  1.00  0.00     0.137 A 
ATOM      8  C   UNL     1     -11.830  85.837 -62.103  1.00  0.00     0.039 A 
ATOM      9  C   UNL     1     -10.865  86.066 -63.061  1.00  0.00    -0.106 A 
ATOM     10  O   UNL     1      -9.943  85.076 -63.403  1.00  0.00    -0.872 OA
ATOM     11  C   UNL     1     -10.825  87.313 -63.688  1.00  0.00    -0.016 A 
ATOM     12  C   UNL     1     -11.729  88.287 -63.353  1.00  0.00    -0.094 A 
ATOM     13  O   UNL     1     -11.682  89.515 -63.977  1.00  0.00    -0.872 OA
ATOM     14  C   UNL     1     -12.670  88.009 -62.393  1.00  0.00     0.056 A 
ENDROOT
BRANCH   5  15
ATOM     15  C   UNL     1     -15.507  87.033 -59.431  1.00  0.00     0.017 A 
ATOM     16  C   UNL     1     -16.838  87.296 -59.377  1.00  0.00     0.012 A 
ATOM     17  C   UNL     1     -15.015  86.278 -58.353  1.00  0.00     0.012 A 
ATOM     18  C   UNL     1     -17.661  86.862 -58.348  1.00  0.00     0.001 A 
ATOM     19  C   UNL     1     -15.817  85.839 -57.325  1.00  0.00     0.001 A 
ATOM     20  C   UNL     1     -17.162  86.128 -57.308  1.00  0.00     0.000 A 
ENDBRANCH   5  15
TORSDOF 1
ENDMDL
MODEL 4
REMARK VINA RESULT:     -10.6      2.006      6.783
REMARK SMILES O=c1c([O-])c(-c2ccccc2)oc2cc([O-])cc([O-])c12
REMARK SMILES IDX 1 1 2 2 3 3 4 4 5 5 12 6 13 7 14 8 15 9 16 10 17 11 18 12
REMARK SMILES IDX 19 13 20 14 6 15 7 16 11 17 8 18 10 19 9 20
REMARK H PARENT
ROOT
ATOM      1  O   UNL     1     -13.974  85.151 -58.453  1.00  0.00    -0.290 OA
ATOM      2  C   UNL     1     -14.434  86.164 -59.021  1.00  0.00     0.184 A 
ATOM      3  C   UNL     1     -13.653  86.714 -60.058  1.00  0.00    -0.014 A 
ATOM      4  O   UNL     1     -12.461  86.131 -60.388  1.00  0.00    -0.867 OA
ATOM      5  C   UNL     1     -14.129  87.820 -60.699  1.00  0.00     0.130 A 
ATOM      6  O   UNL     1     -15.315  88.335 -60.312  1.00  0.00    -0.457 OA
ATOM      7  C   UNL     1     -16.030  87.842 -59.371  1.00  0.00     0.137 A 
ATOM      8  C   UNL     1     -17.226  88.411 -59.027  1.00  0.00     0.039 A 
ATOM      9  C   UNL     1     -18.021  87.907 -58.020  1.00  0.00    -0.106 A 
ATOM     10  O   UNL     1     -19.235  88.510 -57.693  1.00  0.00    -0.872 OA
ATOM     11  C   UNL     1     -17.588  86.774 -57.327  1.00  0.00    -0.016 A 
ATOM     12  C   UNL     1     -16.394  86.180 -57.647  1.00  0.00    -0.094 A 
ATOM     13  O   UNL     1     -15.975  85.063 -56.957  1.00  0.00    -0.872 OA
ATOM     14  C   UNL     1     -15.640  86.720 -58.658  1.00  0.00     0.056 A 
ENDROOT
BRANCH   5  15
ATOM     15  C   UNL     1     -13.417  88.476 -61.780  1.00  0.00     0.017 A 
ATOM     16  C   UNL     1     -12.286  88.058 -62.406  1.00  0.00     0.012 A 
ATOM     17  C   UNL     1     -13.937  89.690 -62.259  1.00  0.00     0.012 A 
ATOM     18  C   UNL     1     -11.680  88.761 -63.437  1.00  0.00     0.001 A 
ATOM     19  C   UNL     1     -13.348  90.401 -63.280  1.00  0.00     0.001 A 
ATOM     20  C   UNL     1     -12.202  89.942 -63.888  1.00  0.00     0.000 A 
ENDBRANCH   5  15
TORSDOF 1
ENDMDL
MODEL 5
REMARK VINA RESULT:     -10.5      1.853      6.533
REMARK SMILES O=c1c([O-])c(-c2ccccc2)oc2cc([O-])cc([O-])c12
REMARK SMILES IDX 1 1 2 2 3 3 4 4 5 5 12 6 13 7 14 8 15 9 16 10 17 11 18 12
REMARK SMILES IDX 19 13 20 14 6 15 7 16 11 17 8 18 10 19 9 20
REMARK H PARENT
ROOT
ATOM      1  O   UNL     1     -12.764  85.987 -59.846  1.00  0.00    -0.290 OA
ATOM      2  C   UNL     1     -13.591  86.871 -60.150  1.00  0.00     0.184 A 
ATOM      3  C   UNL     1     -13.213  87.762 -61.177  1.00  0.00    -0.014 A 
ATOM      4  O   UNL     1     -11.991  87.622 -61.777  1.00  0.00    -0.867 OA
ATOM      5  C   UNL     1     -14.095  88.739 -61.533  1.00  0.00     0.130 A 
ATOM      6  O   UNL     1     -15.279  88.810 -60.891  1.00  0.00    -0.457 OA
ATOM      7  C   UNL     1     -15.631  88.007 -59.958  1.00  0.00     0.137 A 
ATOM      8  C   UNL     1     -16.849  88.131 -59.347  1.00  0.00     0.039 A 
ATOM      9  C   UNL     1     -17.259  87.284 -58.340  1.00  0.00    -0.106 A 
ATOM     10  O   UNL     1     -18.507  87.437 -57.736  1.00  0.00    -0.872 OA
ATOM     11  C   UNL     1     -16.400  86.261 -57.932  1.00  0.00    -0.016 A 
ATOM     12  C   UNL     1     -15.173  86.109 -58.523  1.00  0.00    -0.094 A 
ATOM     13  O   UNL     1     -14.331  85.098 -58.113  1.00  0.00    -0.872 OA
ATOM     14  C   UNL     1     -14.811  86.979 -59.522  1.00  0.00     0.056 A 
ENDROOT
BRANCH   5  15
ATOM     15  C   UNL     1     -13.819  89.714 -62.572  1.00  0.00     0.017 A 
ATOM     16  C   UNL     1     -12.802  89.704 -63.474  1.00  0.00     0.012 A 
ATOM     17  C   UNL     1     -14.692  90.809 -62.686  1.00  0.00     0.012 A 
ATOM     18  C   UNL     1     -12.626  90.688 -64.435  1.00  0.00     0.001 A 
ATOM     19  C   UNL     1     -14.531  91.793 -63.634  1.00  0.00     0.001 A 
ATOM     20  C   UNL     1     -13.487  91.747 -64.528  1.00  0.00     0.000 A 
ENDBRANCH   5  15
TORSDOF 1
ENDMDL
MODEL 6
REMARK VINA RESULT:     -10.5      0.134      1.048
REMARK SMILES O=c1c([O-])c(-c2ccccc2)oc2cc([O-])cc([O-])c12
REMARK SMILES IDX 1 1 2 2 3 3 4 4 5 5 12 6 13 7 14 8 15 9 16 10 17 11 18 12
REMARK SMILES IDX 19 13 20 14 6 15 7 16 11 17 8 18 10 19 9 20
REMARK H PARENT
ROOT
ATOM      1  O   UNL     1     -14.893  90.931 -62.444  1.00  0.00    -0.290 OA
ATOM      2  C   UNL     1     -14.467  89.831 -62.033  1.00  0.00     0.184 A 
ATOM      3  C   UNL     1     -15.210  89.212 -61.006  1.00  0.00    -0.014 A 
ATOM      4  O   UNL     1     -16.331  89.825 -60.519  1.00  0.00    -0.867 OA
ATOM      5  C   UNL     1     -14.771  88.009 -60.537  1.00  0.00     0.130 A 
ATOM      6  O   UNL     1     -13.655  87.471 -61.071  1.00  0.00    -0.457 OA
ATOM      7  C   UNL     1     -12.975  88.027 -62.003  1.00  0.00     0.137 A 
ATOM      8  C   UNL     1     -11.851  87.429 -62.504  1.00  0.00     0.039 A 
ATOM      9  C   UNL     1     -11.095  87.998 -63.506  1.00  0.00    -0.106 A 
ATOM     10  O   UNL     1      -9.954  87.363 -63.995  1.00  0.00    -0.872 OA
ATOM     11  C   UNL     1     -11.495  89.230 -64.029  1.00  0.00    -0.016 A 
ATOM     12  C   UNL     1     -12.616  89.856 -63.550  1.00  0.00    -0.094 A 
ATOM     13  O   UNL     1     -13.002  91.072 -64.072  1.00  0.00    -0.872 OA
ATOM     14  C   UNL     1     -13.334  89.247 -62.551  1.00  0.00     0.056 A 
ENDROOT
BRANCH   5  15
ATOM     15  C   UNL     1     -15.448  87.276 -59.483  1.00  0.00     0.017 A 
ATOM     16  C   UNL     1     -14.890  86.508 -58.511  1.00  0.00     0.012 A 
ATOM     17  C   UNL     1     -16.850  87.351 -59.436  1.00  0.00     0.012 A 
ATOM     18  C   UNL     1     -15.629  85.845 -57.543  1.00  0.00     0.001 A 
ATOM     19  C   UNL     1     -17.599  86.700 -58.483  1.00  0.00     0.001 A 
ATOM     20  C   UNL     1     -16.994  85.932 -57.516  1.00  0.00     0.000 A 
ENDBRANCH   5  15
TORSDOF 1
ENDMDL
MODEL 7
REMARK VINA RESULT:     -10.5      1.181      2.940
REMARK SMILES O=c1c([O-])c(-c2ccccc2)oc2cc([O-])cc([O-])c12
REMARK SMILES IDX 1 1 2 2 3 3 4 4 5 5 12 6 13 7 14 8 15 9 16 10 17 11 18 12
REMARK SMILES IDX 19 13 20 14 6 15 7 16 11 17 8 18 10 19 9 20
REMARK H PARENT
ROOT
ATOM      1  O   UNL     1     -11.252  86.200 -61.723  1.00  0.00    -0.290 OA
ATOM      2  C   UNL     1     -12.256  86.922 -61.548  1.00  0.00     0.184 A 
ATOM      3  C   UNL     1     -13.177  86.494 -60.569  1.00  0.00    -0.014 A 
ATOM      4  O   UNL     1     -12.938  85.340 -59.875  1.00  0.00    -0.867 OA
ATOM      5  C   UNL     1     -14.283  87.262 -60.354  1.00  0.00     0.130 A 
ATOM      6  O   UNL     1     -14.445  88.386 -61.082  1.00  0.00    -0.457 OA
ATOM      7  C   UNL     1     -13.615  88.782 -61.973  1.00  0.00     0.137 A 
ATOM      8  C   UNL     1     -13.836  89.933 -62.678  1.00  0.00     0.039 A 
ATOM      9  C   UNL     1     -12.963  90.388 -63.642  1.00  0.00    -0.106 A 
ATOM     10  O   UNL     1     -13.218  91.566 -64.345  1.00  0.00    -0.872 OA
ATOM     11  C   UNL     1     -11.811  89.645 -63.908  1.00  0.00    -0.016 A 
ATOM     12  C   UNL     1     -11.559  88.486 -63.220  1.00  0.00    -0.094 A 
ATOM     13  O   UNL     1     -10.419  87.760 -63.489  1.00  0.00    -0.872 OA
ATOM     14  C   UNL     1     -12.459  88.077 -62.269  1.00  0.00     0.056 A 
ENDROOT
BRANCH   5  15
ATOM     15  C   UNL     1     -15.301  86.926 -59.376  1.00  0.00     0.017 A 
ATOM     16  C   UNL     1     -16.636  87.174 -59.444  1.00  0.00     0.012 A 
ATOM     17  C   UNL     1     -14.888  86.263 -58.208  1.00  0.00     0.012 A 
ATOM     18  C   UNL     1     -17.531  86.808 -58.450  1.00  0.00     0.001 A 
ATOM     19  C   UNL     1     -15.764  85.894 -57.212  1.00  0.00     0.001 A 
ATOM     20  C   UNL     1     -17.108  86.164 -57.320  1.00  0.00     0.000 A 
ENDBRANCH   5  15
TORSDOF 1
ENDMDL
MODEL 8
REMARK VINA RESULT:     -10.5      1.788      6.056
REMARK SMILES O=c1c([O-])c(-c2ccccc2)oc2cc([O-])cc([O-])c12
REMARK SMILES IDX 1 1 2 2 3 3 4 4 5 5 12 6 13 7 14 8 15 9 16 10 17 11 18 12
REMARK SMILES IDX 19 13 20 14 6 15 7 16 11 17 8 18 10 19 9 20
REMARK H PARENT
ROOT
ATOM      1  O   UNL     1     -17.837  90.087 -60.088  1.00  0.00    -0.290 OA
ATOM      2  C   UNL     1     -16.847  89.326 -60.107  1.00  0.00     0.184 A 
ATOM      3  C   UNL     1     -15.853  89.610 -61.068  1.00  0.00    -0.014 A 
ATOM      4  O   UNL     1     -16.013  90.675 -61.911  1.00  0.00    -0.867 OA
ATOM      5  C   UNL     1     -14.759  88.797 -61.114  1.00  0.00     0.130 A 
ATOM      6  O   UNL     1     -14.678  87.767 -60.247  1.00  0.00    -0.457 OA
ATOM      7  C   UNL     1     -15.574  87.502 -59.372  1.00  0.00     0.137 A 
ATOM      8  C   UNL     1     -15.432  86.442 -58.520  1.00  0.00     0.039 A 
ATOM      9  C   UNL     1     -16.378  86.128 -57.567  1.00  0.00    -0.106 A 
ATOM     10  O   UNL     1     -16.203  85.040 -56.712  1.00  0.00    -0.872 OA
ATOM     11  C   UNL     1     -17.521  86.924 -57.470  1.00  0.00    -0.016 A 
ATOM     12  C   UNL     1     -17.695  87.994 -58.309  1.00  0.00    -0.094 A 
ATOM     13  O   UNL     1     -18.827  88.773 -58.206  1.00  0.00    -0.872 OA
ATOM     14  C   UNL     1     -16.724  88.264 -59.240  1.00  0.00     0.056 A 
ENDROOT
BRANCH   5  15
ATOM     15  C   UNL     1     -13.672  88.987 -62.057  1.00  0.00     0.017 A 
ATOM     16  C   UNL     1     -13.457  90.049 -62.877  1.00  0.00     0.012 A 
ATOM     17  C   UNL     1     -12.710  87.967 -62.155  1.00  0.00     0.012 A 
ATOM     18  C   UNL     1     -12.380  90.135 -63.747  1.00  0.00     0.001 A 
ATOM     19  C   UNL     1     -11.636  88.037 -63.013  1.00  0.00     0.001 A 
ATOM     20  C   UNL     1     -11.455  89.131 -63.827  1.00  0.00     0.000 A 
ENDBRANCH   5  15
TORSDOF 1
ENDMDL
MODEL 9
REMARK VINA RESULT:     -10.4      1.842      6.576
REMARK SMILES O=c1c([O-])c(-c2ccccc2)oc2cc([O-])cc([O-])c12
REMARK SMILES IDX 1 1 2 2 3 3 4 4 5 5 12 6 13 7 14 8 15 9 16 10 17 11 18 12
REMARK SMILES IDX 19 13 20 14 6 15 7 16 11 17 8 18 10 19 9 20
REMARK H PARENT
ROOT
ATOM      1  O   UNL     1     -13.394  85.887 -59.549  1.00  0.00    -0.290 OA
ATOM      2  C   UNL     1     -14.128  86.842 -59.877  1.00  0.00     0.184 A 
ATOM      3  C   UNL     1     -13.651  87.679 -60.907  1.00  0.00    -0.014 A 
ATOM      4  O   UNL     1     -12.440  87.416 -61.485  1.00  0.00    -0.867 OA
ATOM      5  C   UNL     1     -14.431  88.732 -61.287  1.00  0.00     0.130 A 
ATOM      6  O   UNL     1     -15.612  88.923 -60.665  1.00  0.00    -0.457 OA
ATOM      7  C   UNL     1     -16.053  88.168 -59.730  1.00  0.00     0.137 A 
ATOM      8  C   UNL     1     -17.262  88.415 -59.139  1.00  0.00     0.039 A 
ATOM      9  C   UNL     1     -17.766  87.624 -58.130  1.00  0.00    -0.106 A 
ATOM     10  O   UNL     1     -19.003  87.903 -57.547  1.00  0.00    -0.872 OA
ATOM     11  C   UNL     1     -17.015  86.530 -57.696  1.00  0.00    -0.016 A 
ATOM     12  C   UNL     1     -15.799  86.254 -58.267  1.00  0.00    -0.094 A 
ATOM     13  O   UNL     1     -15.063  85.173 -57.832  1.00  0.00    -0.872 OA
ATOM     14  C   UNL     1     -15.341  87.073 -59.269  1.00  0.00     0.056 A 
ENDROOT
BRANCH   5  15
ATOM     15  C   UNL     1     -14.048  89.662 -62.333  1.00  0.00     0.017 A 
ATOM     16  C   UNL     1     -14.706  90.781 -62.734  1.00  0.00     0.012 A 
ATOM     17  C   UNL     1     -12.857  89.401 -63.033  1.00  0.00     0.012 A 
ATOM     18  C   UNL     1     -14.253  91.611 -63.749  1.00  0.00     0.001 A 
ATOM     19  C   UNL     1     -12.394  90.213 -64.043  1.00  0.00     0.001 A 
ATOM     20  C   UNL     1     -13.091  91.338 -64.418  1.00  0.00     0.000 A 
ENDBRANCH   5  15
TORSDOF 1
ENDMDL
