MODEL 1
REMARK VINA RESULT:      -5.6      0.000      0.000
REMARK SMILES O=C1c2c([O-])ccc(O)c2C(=O)c2c(NCC[NH2+]CCO)ccc(NCCNCCO)c21
REMARK SMILES IDX 1 1 2 2 3 3 4 4 5 5 6 6 7 7 8 8 10 9 11 10 12 11 13 12 14 13
REMARK SMILES IDX 22 14 23 15 24 16 32 17 25 18 26 20 27 21 28 22 29 24 30 25
REMARK SMILES IDX 31 26 9 28 15 30 16 32 17 33 18 34 19 37 20 38 21 39
REMARK H PARENT 25 19 28 23 31 27 9 29 15 31 18 35 18 36 21 40
ROOT
ATOM      1  O   UNL     1      26.377   7.604   1.105  1.00  0.00    -0.288 OA
ATOM      2  C   UNL     1      25.722   7.786   2.160  1.00  0.00     0.196 C 
ATOM      3  C   UNL     1      25.890   9.074   2.872  1.00  0.00     0.030 A 
ATOM      4  C   UNL     1      26.759  10.000   2.327  1.00  0.00    -0.097 A 
ATOM      5  O   UNL     1      27.435   9.697   1.149  1.00  0.00    -0.872 OA
ATOM      6  C   UNL     1      26.931  11.206   2.970  1.00  0.00    -0.004 A 
ATOM      7  C   UNL     1      26.254  11.478   4.126  1.00  0.00     0.046 A 
ATOM      8  C   UNL     1      25.383  10.570   4.686  1.00  0.00     0.127 A 
ATOM      9  C   UNL     1      25.218   9.352   4.026  1.00  0.00     0.075 A 
ATOM     10  C   UNL     1      24.301   8.352   4.584  1.00  0.00     0.200 C 
ATOM     11  O   UNL     1      23.725   8.692   5.646  1.00  0.00    -0.288 OA
ATOM     12  C   UNL     1      24.119   7.078   3.903  1.00  0.00     0.059 A 
ATOM     13  C   UNL     1      23.255   6.182   4.470  1.00  0.00     0.046 A 
ATOM     14  C   UNL     1      23.107   4.960   3.783  1.00  0.00     0.028 A 
ATOM     15  C   UNL     1      23.781   4.693   2.633  1.00  0.00     0.028 A 
ATOM     16  C   UNL     1      24.670   5.612   2.051  1.00  0.00     0.046 A 
ATOM     17  C   UNL     1      24.826   6.806   2.705  1.00  0.00     0.059 A 
ENDROOT
BRANCH  16  18
ATOM     18  N   UNL     1      25.296   5.241   0.824  1.00  0.00    -0.383 N 
ATOM     19  H   UNL     1      26.282   5.030   0.770  1.00  0.00     0.160 HD
BRANCH  18  20
ATOM     20  C   UNL     1      24.553   5.149  -0.420  1.00  0.00     0.128 C 
BRANCH  20  21
ATOM     21  C   UNL     1      23.093   4.918  -0.258  1.00  0.00     0.102 C 
BRANCH  21  22
ATOM     22  N   UNL     1      22.336   6.175  -0.306  1.00  0.00    -0.313 NA
ATOM     23  H   UNL     1      22.993   6.925   0.023  1.00  0.00     0.122 HD
BRANCH  22  24
ATOM     24  C   UNL     1      21.295   6.075   0.706  1.00  0.00     0.109 C 
BRANCH  24  25
ATOM     25  C   UNL     1      20.891   4.638   0.934  1.00  0.00     0.171 C 
BRANCH  25  26
ATOM     26  O   UNL     1      19.904   4.532   1.912  1.00  0.00    -0.395 OA
ATOM     27  H   UNL     1      19.825   3.567   2.152  1.00  0.00     0.210 HD
ENDBRANCH  25  26
ENDBRANCH  24  25
ENDBRANCH  22  24
ENDBRANCH  21  22
ENDBRANCH  20  21
ENDBRANCH  18  20
ENDBRANCH  16  18
BRANCH   8  28
ATOM     28  O   UNL     1      24.691  10.852   5.871  1.00  0.00    -0.507 OA
ATOM     29  H   UNL     1      24.356  10.107   6.485  1.00  0.00     0.293 HD
ENDBRANCH   8  28
BRANCH  13  30
ATOM     30  N   UNL     1      22.515   6.373   5.655  1.00  0.00    -0.379 N 
ATOM     31  H   UNL     1      22.743   7.020   6.395  1.00  0.00     0.160 HD
BRANCH  30  32
ATOM     32  C   UNL     1      21.288   5.588   5.901  1.00  0.00     0.174 C 
BRANCH  32  33
ATOM     33  C   UNL     1      20.099   6.446   6.131  1.00  0.00     0.281 C 
BRANCH  33  34
ATOM     34  N   UNL     1      19.812   6.721   7.505  1.00  0.00    -0.343 N 
ATOM     35  H   UNL     1      19.884   5.882   8.124  1.00  0.00     0.346 HD
ATOM     36  H   UNL     1      20.537   7.395   7.853  1.00  0.00     0.346 HD
BRANCH  34  37
ATOM     37  C   UNL     1      18.530   7.347   7.721  1.00  0.00     0.289 C 
BRANCH  37  38
ATOM     38  C   UNL     1      17.986   7.076   9.105  1.00  0.00     0.217 C 
BRANCH  38  39
ATOM     39  O   UNL     1      18.579   7.955   9.995  1.00  0.00    -0.391 OA
ATOM     40  H   UNL     1      19.089   8.622   9.449  1.00  0.00     0.210 HD
ENDBRANCH  38  39
ENDBRANCH  37  38
ENDBRANCH  34  37
ENDBRANCH  33  34
ENDBRANCH  32  33
ENDBRANCH  30  32
ENDBRANCH  13  30
TORSDOF 15
ENDMDL
MODEL 2
REMARK VINA RESULT:      -5.3      0.988      1.043
REMARK SMILES O=C1c2c([O-])ccc(O)c2C(=O)c2c(NCC[NH2+]CCO)ccc(NCCNCCO)c21
REMARK SMILES IDX 1 1 2 2 3 3 4 4 5 5 6 6 7 7 8 8 10 9 11 10 12 11 13 12 14 13
REMARK SMILES IDX 22 14 23 15 24 16 32 17 25 18 26 20 27 21 28 22 29 24 30 25
REMARK SMILES IDX 31 26 9 28 15 30 16 32 17 33 18 34 19 37 20 38 21 39
REMARK H PARENT 25 19 28 23 31 27 9 29 15 31 18 35 18 36 21 40
ROOT
ATOM      1  O   UNL     1      26.088   7.096   1.664  1.00  0.00    -0.288 OA
ATOM      2  C   UNL     1      25.352   7.551   2.573  1.00  0.00     0.196 C 
ATOM      3  C   UNL     1      25.604   8.931   3.049  1.00  0.00     0.030 A 
ATOM      4  C   UNL     1      26.635   9.636   2.458  1.00  0.00    -0.097 A 
ATOM      5  O   UNL     1      27.389   9.036   1.454  1.00  0.00    -0.872 OA
ATOM      6  C   UNL     1      26.887  10.922   2.883  1.00  0.00    -0.004 A 
ATOM      7  C   UNL     1      26.130  11.487   3.871  1.00  0.00     0.046 A 
ATOM      8  C   UNL     1      25.098  10.802   4.473  1.00  0.00     0.127 A 
ATOM      9  C   UNL     1      24.852   9.501   4.035  1.00  0.00     0.075 A 
ATOM     10  C   UNL     1      23.763   8.731   4.646  1.00  0.00     0.200 C 
ATOM     11  O   UNL     1      23.125   9.333   5.543  1.00  0.00    -0.288 OA
ATOM     12  C   UNL     1      23.496   7.372   4.197  1.00  0.00     0.059 A 
ATOM     13  C   UNL     1      22.471   6.701   4.803  1.00  0.00     0.046 A 
ATOM     14  C   UNL     1      22.245   5.388   4.342  1.00  0.00     0.028 A 
ATOM     15  C   UNL     1      22.999   4.830   3.359  1.00  0.00     0.028 A 
ATOM     16  C   UNL     1      24.053   5.518   2.735  1.00  0.00     0.046 A 
ATOM     17  C   UNL     1      24.287   6.797   3.171  1.00  0.00     0.059 A 
ENDROOT
BRANCH  16  18
ATOM     18  N   UNL     1      24.754   4.848   1.690  1.00  0.00    -0.383 N 
ATOM     19  H   UNL     1      25.562   4.269   1.874  1.00  0.00     0.160 HD
BRANCH  18  20
ATOM     20  C   UNL     1      24.352   4.962   0.300  1.00  0.00     0.128 C 
BRANCH  20  21
ATOM     21  C   UNL     1      23.138   5.787   0.068  1.00  0.00     0.102 C 
BRANCH  21  22
ATOM     22  N   UNL     1      22.023   4.981  -0.444  1.00  0.00    -0.313 NA
ATOM     23  H   UNL     1      21.333   5.660  -0.849  1.00  0.00     0.122 HD
BRANCH  22  24
ATOM     24  C   UNL     1      21.374   4.383   0.713  1.00  0.00     0.109 C 
BRANCH  24  25
ATOM     25  C   UNL     1      20.563   5.403   1.474  1.00  0.00     0.171 C 
BRANCH  25  26
ATOM     26  O   UNL     1      19.543   4.804   2.210  1.00  0.00    -0.395 OA
ATOM     27  H   UNL     1      19.004   4.252   1.577  1.00  0.00     0.210 HD
ENDBRANCH  25  26
ENDBRANCH  24  25
ENDBRANCH  22  24
ENDBRANCH  21  22
ENDBRANCH  20  21
ENDBRANCH  18  20
ENDBRANCH  16  18
BRANCH   8  28
ATOM     28  O   UNL     1      24.324  11.384   5.486  1.00  0.00    -0.507 OA
ATOM     29  H   UNL     1      24.485  11.170   6.471  1.00  0.00     0.293 HD
ENDBRANCH   8  28
BRANCH  13  30
ATOM     30  N   UNL     1      21.639   7.199   5.827  1.00  0.00    -0.379 N 
ATOM     31  H   UNL     1      21.549   8.168   6.095  1.00  0.00     0.160 HD
BRANCH  30  32
ATOM     32  C   UNL     1      20.799   6.277   6.619  1.00  0.00     0.174 C 
BRANCH  32  33
ATOM     33  C   UNL     1      19.399   6.753   6.751  1.00  0.00     0.281 C 
BRANCH  33  34
ATOM     34  N   UNL     1      19.058   7.265   8.042  1.00  0.00    -0.343 N 
ATOM     35  H   UNL     1      19.289   6.614   8.826  1.00  0.00     0.346 HD
ATOM     36  H   UNL     1      19.636   8.125   8.207  1.00  0.00     0.346 HD
BRANCH  34  37
ATOM     37  C   UNL     1      17.677   7.666   8.165  1.00  0.00     0.289 C 
BRANCH  37  38
ATOM     38  C   UNL     1      17.034   7.126   9.422  1.00  0.00     0.217 C 
BRANCH  38  39
ATOM     39  O   UNL     1      16.136   6.133   9.070  1.00  0.00    -0.391 OA
ATOM     40  H   UNL     1      16.183   5.432   9.783  1.00  0.00     0.210 HD
ENDBRANCH  38  39
ENDBRANCH  37  38
ENDBRANCH  34  37
ENDBRANCH  33  34
ENDBRANCH  32  33
ENDBRANCH  30  32
ENDBRANCH  13  30
TORSDOF 15
ENDMDL
MODEL 3
REMARK VINA RESULT:      -4.9      2.467      6.917
REMARK SMILES O=C1c2c([O-])ccc(O)c2C(=O)c2c(NCC[NH2+]CCO)ccc(NCCNCCO)c21
REMARK SMILES IDX 1 1 2 2 3 3 4 4 5 5 6 6 7 7 8 8 10 9 11 10 12 11 13 12 14 13
REMARK SMILES IDX 22 14 23 15 24 16 32 17 25 18 26 20 27 21 28 22 29 24 30 25
REMARK SMILES IDX 31 26 9 28 15 30 16 32 17 33 18 34 19 37 20 38 21 39
REMARK H PARENT 25 19 28 23 31 27 9 29 15 31 18 35 18 36 21 40
ROOT
ATOM      1  O   UNL     1      20.485   5.481   3.350  1.00  0.00    -0.288 OA
ATOM      2  C   UNL     1      21.708   5.748   3.256  1.00  0.00     0.196 C 
ATOM      3  C   UNL     1      22.387   5.466   1.970  1.00  0.00     0.030 A 
ATOM      4  C   UNL     1      21.629   4.926   0.949  1.00  0.00    -0.097 A 
ATOM      5  O   UNL     1      20.277   4.671   1.158  1.00  0.00    -0.872 OA
ATOM      6  C   UNL     1      22.237   4.656  -0.257  1.00  0.00    -0.004 A 
ATOM      7  C   UNL     1      23.567   4.918  -0.436  1.00  0.00     0.046 A 
ATOM      8  C   UNL     1      24.341   5.455   0.568  1.00  0.00     0.127 A 
ATOM      9  C   UNL     1      23.713   5.724   1.784  1.00  0.00     0.075 A 
ATOM     10  C   UNL     1      24.496   6.298   2.885  1.00  0.00     0.200 C 
ATOM     11  O   UNL     1      25.706   6.503   2.626  1.00  0.00    -0.288 OA
ATOM     12  C   UNL     1      23.852   6.583   4.159  1.00  0.00     0.059 A 
ATOM     13  C   UNL     1      24.630   7.114   5.150  1.00  0.00     0.046 A 
ATOM     14  C   UNL     1      23.971   7.375   6.369  1.00  0.00     0.028 A 
ATOM     15  C   UNL     1      22.648   7.115   6.543  1.00  0.00     0.028 A 
ATOM     16  C   UNL     1      21.848   6.569   5.526  1.00  0.00     0.046 A 
ATOM     17  C   UNL     1      22.472   6.309   4.334  1.00  0.00     0.059 A 
ENDROOT
BRANCH  16  18
ATOM     18  N   UNL     1      20.464   6.370   5.807  1.00  0.00    -0.383 N 
ATOM     19  H   UNL     1      19.777   6.277   5.072  1.00  0.00     0.160 HD
BRANCH  18  20
ATOM     20  C   UNL     1      19.960   6.295   7.167  1.00  0.00     0.128 C 
BRANCH  20  21
ATOM     21  C   UNL     1      18.879   7.264   7.485  1.00  0.00     0.102 C 
BRANCH  21  22
ATOM     22  N   UNL     1      18.748   7.476   8.932  1.00  0.00    -0.313 NA
ATOM     23  H   UNL     1      18.970   6.555   9.384  1.00  0.00     0.122 HD
BRANCH  22  24
ATOM     24  C   UNL     1      17.338   7.728   9.192  1.00  0.00     0.109 C 
BRANCH  24  25
ATOM     25  C   UNL     1      16.719   6.603   9.986  1.00  0.00     0.171 C 
BRANCH  25  26
ATOM     26  O   UNL     1      17.168   6.597  11.304  1.00  0.00    -0.395 OA
ATOM     27  H   UNL     1      17.740   5.788  11.421  1.00  0.00     0.210 HD
ENDBRANCH  25  26
ENDBRANCH  24  25
ENDBRANCH  22  24
ENDBRANCH  21  22
ENDBRANCH  20  21
ENDBRANCH  18  20
ENDBRANCH  16  18
BRANCH   8  28
ATOM     28  O   UNL     1      25.704   5.722   0.381  1.00  0.00    -0.507 OA
ATOM     29  H   UNL     1      26.021   6.497  -0.203  1.00  0.00     0.293 HD
ENDBRANCH   8  28
BRANCH  13  30
ATOM     30  N   UNL     1      26.004   7.417   5.058  1.00  0.00    -0.379 N 
ATOM     31  H   UNL     1      26.750   6.747   4.946  1.00  0.00     0.160 HD
BRANCH  30  32
ATOM     32  C   UNL     1      26.464   8.819   5.129  1.00  0.00     0.174 C 
BRANCH  32  33
ATOM     33  C   UNL     1      26.631   9.295   6.525  1.00  0.00     0.281 C 
BRANCH  33  34
ATOM     34  N   UNL     1      25.633  10.218   6.970  1.00  0.00    -0.343 N 
ATOM     35  H   UNL     1      25.360  10.921   6.247  1.00  0.00     0.346 HD
ATOM     36  H   UNL     1      24.761   9.669   7.176  1.00  0.00     0.346 HD
BRANCH  34  37
ATOM     37  C   UNL     1      25.980  10.913   8.185  1.00  0.00     0.289 C 
BRANCH  37  38
ATOM     38  C   UNL     1      26.299   9.962   9.317  1.00  0.00     0.217 C 
BRANCH  38  39
ATOM     39  O   UNL     1      25.131   9.684  10.006  1.00  0.00    -0.391 OA
ATOM     40  H   UNL     1      24.459   9.381   9.329  1.00  0.00     0.210 HD
ENDBRANCH  38  39
ENDBRANCH  37  38
ENDBRANCH  34  37
ENDBRANCH  33  34
ENDBRANCH  32  33
ENDBRANCH  30  32
ENDBRANCH  13  30
TORSDOF 15
ENDMDL
MODEL 4
REMARK VINA RESULT:      -4.7      2.169      5.238
REMARK SMILES O=C1c2c([O-])ccc(O)c2C(=O)c2c(NCC[NH2+]CCO)ccc(NCCNCCO)c21
REMARK SMILES IDX 1 1 2 2 3 3 4 4 5 5 6 6 7 7 8 8 10 9 11 10 12 11 13 12 14 13
REMARK SMILES IDX 22 14 23 15 24 16 32 17 25 18 26 20 27 21 28 22 29 24 30 25
REMARK SMILES IDX 31 26 9 28 15 30 16 32 17 33 18 34 19 37 20 38 21 39
REMARK H PARENT 25 19 28 23 31 27 9 29 15 31 18 35 18 36 21 40
ROOT
ATOM      1  O   UNL     1      25.818   6.823   2.611  1.00  0.00    -0.288 OA
ATOM      2  C   UNL     1      24.628   6.497   2.842  1.00  0.00     0.196 C 
ATOM      3  C   UNL     1      23.871   5.814   1.767  1.00  0.00     0.030 A 
ATOM      4  C   UNL     1      24.526   5.574   0.574  1.00  0.00    -0.097 A 
ATOM      5  O   UNL     1      25.850   5.975   0.424  1.00  0.00    -0.872 OA
ATOM      6  C   UNL     1      23.843   4.938  -0.441  1.00  0.00    -0.004 A 
ATOM      7  C   UNL     1      22.543   4.554  -0.267  1.00  0.00     0.046 A 
ATOM      8  C   UNL     1      21.872   4.784   0.914  1.00  0.00     0.127 A 
ATOM      9  C   UNL     1      22.574   5.427   1.933  1.00  0.00     0.075 A 
ATOM     10  C   UNL     1      21.901   5.694   3.210  1.00  0.00     0.200 C 
ATOM     11  O   UNL     1      20.710   5.305   3.275  1.00  0.00    -0.288 OA
ATOM     12  C   UNL     1      22.623   6.365   4.282  1.00  0.00     0.059 A 
ATOM     13  C   UNL     1      21.947   6.590   5.448  1.00  0.00     0.046 A 
ATOM     14  C   UNL     1      22.678   7.244   6.461  1.00  0.00     0.028 A 
ATOM     15  C   UNL     1      23.972   7.623   6.285  1.00  0.00     0.028 A 
ATOM     16  C   UNL     1      24.667   7.393   5.087  1.00  0.00     0.046 A 
ATOM     17  C   UNL     1      23.972   6.758   4.091  1.00  0.00     0.059 A 
ENDROOT
BRANCH  16  18
ATOM     18  N   UNL     1      26.032   7.802   5.025  1.00  0.00    -0.383 N 
ATOM     19  H   UNL     1      26.724   7.277   4.509  1.00  0.00     0.160 HD
BRANCH  18  20
ATOM     20  C   UNL     1      26.509   8.993   5.705  1.00  0.00     0.128 C 
BRANCH  20  21
ATOM     21  C   UNL     1      27.380   9.873   4.883  1.00  0.00     0.102 C 
BRANCH  21  22
ATOM     22  N   UNL     1      27.358   9.488   3.466  1.00  0.00    -0.313 NA
ATOM     23  H   UNL     1      28.346   9.240   3.216  1.00  0.00     0.122 HD
BRANCH  22  24
ATOM     24  C   UNL     1      27.037  10.690   2.711  1.00  0.00     0.109 C 
BRANCH  24  25
ATOM     25  C   UNL     1      25.727  10.541   1.976  1.00  0.00     0.171 C 
BRANCH  25  26
ATOM     26  O   UNL     1      24.641  10.826   2.801  1.00  0.00    -0.395 OA
ATOM     27  H   UNL     1      25.003  11.192   3.655  1.00  0.00     0.210 HD
ENDBRANCH  25  26
ENDBRANCH  24  25
ENDBRANCH  22  24
ENDBRANCH  21  22
ENDBRANCH  20  21
ENDBRANCH  18  20
ENDBRANCH  16  18
BRANCH   8  28
ATOM     28  O   UNL     1      20.539   4.388   1.089  1.00  0.00    -0.507 OA
ATOM     29  H   UNL     1      20.208   4.005   1.976  1.00  0.00     0.293 HD
ENDBRANCH   8  28
BRANCH  13  30
ATOM     30  N   UNL     1      20.610   6.231   5.719  1.00  0.00    -0.379 N 
ATOM     31  H   UNL     1      19.823   6.379   5.105  1.00  0.00     0.160 HD
BRANCH  30  32
ATOM     32  C   UNL     1      20.259   5.579   6.998  1.00  0.00     0.174 C 
BRANCH  32  33
ATOM     33  C   UNL     1      19.462   6.461   7.887  1.00  0.00     0.281 C 
BRANCH  33  34
ATOM     34  N   UNL     1      19.577   6.171   9.283  1.00  0.00    -0.343 N 
ATOM     35  H   UNL     1      19.447   5.160   9.513  1.00  0.00     0.346 HD
ATOM     36  H   UNL     1      20.557   6.406   9.577  1.00  0.00     0.346 HD
BRANCH  34  37
ATOM     37  C   UNL     1      18.697   6.953  10.117  1.00  0.00     0.289 C 
BRANCH  37  38
ATOM     38  C   UNL     1      17.376   7.244   9.441  1.00  0.00     0.217 C 
BRANCH  38  39
ATOM     39  O   UNL     1      16.575   7.954  10.319  1.00  0.00    -0.391 OA
ATOM     40  H   UNL     1      15.635   7.872   9.985  1.00  0.00     0.210 HD
ENDBRANCH  38  39
ENDBRANCH  37  38
ENDBRANCH  34  37
ENDBRANCH  33  34
ENDBRANCH  32  33
ENDBRANCH  30  32
ENDBRANCH  13  30
TORSDOF 15
ENDMDL
MODEL 5
REMARK VINA RESULT:      -4.7      2.375      6.372
REMARK SMILES O=C1c2c([O-])ccc(O)c2C(=O)c2c(NCC[NH2+]CCO)ccc(NCCNCCO)c21
REMARK SMILES IDX 1 1 2 2 3 3 4 4 5 5 6 6 7 7 8 8 10 9 11 10 12 11 13 12 14 13
REMARK SMILES IDX 22 14 23 15 24 16 32 17 25 18 26 20 27 21 28 22 29 24 30 25
REMARK SMILES IDX 31 26 9 28 15 30 16 32 17 33 18 34 19 37 20 38 21 39
REMARK H PARENT 25 19 28 23 31 27 9 29 15 31 18 35 18 36 21 40
ROOT
ATOM      1  O   UNL     1      22.399   5.800   2.924  1.00  0.00    -0.288 OA
ATOM      2  C   UNL     1      23.321   6.640   2.780  1.00  0.00     0.196 C 
ATOM      3  C   UNL     1      24.269   6.449   1.657  1.00  0.00     0.030 A 
ATOM      4  C   UNL     1      24.077   5.356   0.834  1.00  0.00    -0.097 A 
ATOM      5  O   UNL     1      23.019   4.487   1.082  1.00  0.00    -0.872 OA
ATOM      6  C   UNL     1      24.944   5.158  -0.218  1.00  0.00    -0.004 A 
ATOM      7  C   UNL     1      25.975   6.029  -0.440  1.00  0.00     0.046 A 
ATOM      8  C   UNL     1      26.184   7.124   0.368  1.00  0.00     0.127 A 
ATOM      9  C   UNL     1      25.299   7.314   1.429  1.00  0.00     0.075 A 
ATOM     10  C   UNL     1      25.481   8.467   2.318  1.00  0.00     0.200 C 
ATOM     11  O   UNL     1      26.453   9.209   2.035  1.00  0.00    -0.288 OA
ATOM     12  C   UNL     1      24.564   8.676   3.430  1.00  0.00     0.059 A 
ATOM     13  C   UNL     1      24.782   9.765   4.227  1.00  0.00     0.046 A 
ATOM     14  C   UNL     1      23.875   9.931   5.293  1.00  0.00     0.028 A 
ATOM     15  C   UNL     1      22.850   9.065   5.510  1.00  0.00     0.028 A 
ATOM     16  C   UNL     1      22.625   7.945   4.692  1.00  0.00     0.046 A 
ATOM     17  C   UNL     1      23.498   7.767   3.650  1.00  0.00     0.059 A 
ENDROOT
BRANCH  16  18
ATOM     18  N   UNL     1      21.499   7.123   4.991  1.00  0.00    -0.383 N 
ATOM     19  H   UNL     1      20.714   7.042   4.360  1.00  0.00     0.160 HD
BRANCH  18  20
ATOM     20  C   UNL     1      21.412   6.358   6.222  1.00  0.00     0.128 C 
BRANCH  20  21
ATOM     21  C   UNL     1      20.046   6.262   6.800  1.00  0.00     0.102 C 
BRANCH  21  22
ATOM     22  N   UNL     1      20.076   6.281   8.268  1.00  0.00    -0.313 NA
ATOM     23  H   UNL     1      20.438   5.342   8.565  1.00  0.00     0.122 HD
BRANCH  22  24
ATOM     24  C   UNL     1      18.691   6.341   8.713  1.00  0.00     0.109 C 
BRANCH  24  25
ATOM     25  C   UNL     1      17.971   7.518   8.101  1.00  0.00     0.171 C 
BRANCH  25  26
ATOM     26  O   UNL     1      17.543   8.420   9.072  1.00  0.00    -0.395 OA
ATOM     27  H   UNL     1      18.301   8.558   9.705  1.00  0.00     0.210 HD
ENDBRANCH  25  26
ENDBRANCH  24  25
ENDBRANCH  22  24
ENDBRANCH  21  22
ENDBRANCH  20  21
ENDBRANCH  18  20
ENDBRANCH  16  18
BRANCH   8  28
ATOM     28  O   UNL     1      27.241   8.014   0.138  1.00  0.00    -0.507 OA
ATOM     29  H   UNL     1      27.713   8.061  -0.767  1.00  0.00     0.293 HD
ENDBRANCH   8  28
BRANCH  13  30
ATOM     30  N   UNL     1      25.814  10.714   4.077  1.00  0.00    -0.379 N 
ATOM     31  H   UNL     1      26.058  11.190   3.221  1.00  0.00     0.160 HD
BRANCH  30  32
ATOM     32  C   UNL     1      26.654  11.090   5.233  1.00  0.00     0.174 C 
BRANCH  32  33
ATOM     33  C   UNL     1      27.434   9.946   5.768  1.00  0.00     0.281 C 
BRANCH  33  34
ATOM     34  N   UNL     1      26.931   9.393   6.987  1.00  0.00    -0.343 N 
ATOM     35  H   UNL     1      27.476   9.678   7.833  1.00  0.00     0.346 HD
ATOM     36  H   UNL     1      25.962   9.771   7.133  1.00  0.00     0.346 HD
BRANCH  34  37
ATOM     37  C   UNL     1      26.815   7.956   6.973  1.00  0.00     0.289 C 
BRANCH  37  38
ATOM     38  C   UNL     1      26.647   7.381   8.362  1.00  0.00     0.217 C 
BRANCH  38  39
ATOM     39  O   UNL     1      26.638   8.421   9.275  1.00  0.00    -0.391 OA
ATOM     40  H   UNL     1      26.626   8.008  10.187  1.00  0.00     0.210 HD
ENDBRANCH  38  39
ENDBRANCH  37  38
ENDBRANCH  34  37
ENDBRANCH  33  34
ENDBRANCH  32  33
ENDBRANCH  30  32
ENDBRANCH  13  30
TORSDOF 15
ENDMDL
MODEL 6
REMARK VINA RESULT:      -4.6      2.109      6.842
REMARK SMILES O=C1c2c([O-])ccc(O)c2C(=O)c2c(NCC[NH2+]CCO)ccc(NCCNCCO)c21
REMARK SMILES IDX 1 1 2 2 3 3 4 4 5 5 6 6 7 7 8 8 10 9 11 10 12 11 13 12 14 13
REMARK SMILES IDX 22 14 23 15 24 16 32 17 25 18 26 20 27 21 28 22 29 24 30 25
REMARK SMILES IDX 31 26 9 28 15 30 16 32 17 33 18 34 19 37 20 38 21 39
REMARK H PARENT 25 19 28 23 31 27 9 29 15 31 18 35 18 36 21 40
ROOT
ATOM      1  O   UNL     1      20.571   5.530   3.624  1.00  0.00    -0.288 OA
ATOM      2  C   UNL     1      21.783   5.761   3.393  1.00  0.00     0.196 C 
ATOM      3  C   UNL     1      22.316   5.413   2.055  1.00  0.00     0.030 A 
ATOM      4  C   UNL     1      21.443   4.855   1.141  1.00  0.00    -0.097 A 
ATOM      5  O   UNL     1      20.116   4.643   1.501  1.00  0.00    -0.872 OA
ATOM      6  C   UNL     1      21.916   4.524  -0.110  1.00  0.00    -0.004 A 
ATOM      7  C   UNL     1      23.225   4.744  -0.437  1.00  0.00     0.046 A 
ATOM      8  C   UNL     1      24.112   5.299   0.459  1.00  0.00     0.127 A 
ATOM      9  C   UNL     1      23.621   5.630   1.722  1.00  0.00     0.075 A 
ATOM     10  C   UNL     1      24.528   6.223   2.711  1.00  0.00     0.200 C 
ATOM     11  O   UNL     1      25.709   6.387   2.319  1.00  0.00    -0.288 OA
ATOM     12  C   UNL     1      24.028   6.573   4.033  1.00  0.00     0.059 A 
ATOM     13  C   UNL     1      24.918   7.120   4.915  1.00  0.00     0.046 A 
ATOM     14  C   UNL     1      24.397   7.444   6.185  1.00  0.00     0.028 A 
ATOM     15  C   UNL     1      23.094   7.225   6.506  1.00  0.00     0.028 A 
ATOM     16  C   UNL     1      22.180   6.662   5.601  1.00  0.00     0.046 A 
ATOM     17  C   UNL     1      22.669   6.342   4.361  1.00  0.00     0.059 A 
ENDROOT
BRANCH  16  18
ATOM     18  N   UNL     1      20.829   6.511   6.033  1.00  0.00    -0.383 N 
ATOM     19  H   UNL     1      20.056   6.914   5.523  1.00  0.00     0.160 HD
BRANCH  18  20
ATOM     20  C   UNL     1      20.486   5.773   7.235  1.00  0.00     0.128 C 
BRANCH  20  21
ATOM     21  C   UNL     1      19.537   6.468   8.144  1.00  0.00     0.102 C 
BRANCH  21  22
ATOM     22  N   UNL     1      18.821   7.551   7.456  1.00  0.00    -0.313 NA
ATOM     23  H   UNL     1      19.494   8.353   7.394  1.00  0.00     0.122 HD
BRANCH  22  24
ATOM     24  C   UNL     1      17.756   7.981   8.350  1.00  0.00     0.109 C 
BRANCH  24  25
ATOM     25  C   UNL     1      16.800   6.851   8.646  1.00  0.00     0.171 C 
BRANCH  25  26
ATOM     26  O   UNL     1      16.641   6.660  10.017  1.00  0.00    -0.395 OA
ATOM     27  H   UNL     1      16.254   5.750  10.148  1.00  0.00     0.210 HD
ENDBRANCH  25  26
ENDBRANCH  24  25
ENDBRANCH  22  24
ENDBRANCH  21  22
ENDBRANCH  20  21
ENDBRANCH  18  20
ENDBRANCH  16  18
BRANCH   8  28
ATOM     28  O   UNL     1      25.452   5.523   0.120  1.00  0.00    -0.507 OA
ATOM     29  H   UNL     1      25.873   5.096  -0.707  1.00  0.00     0.293 HD
ENDBRANCH   8  28
BRANCH  13  30
ATOM     30  N   UNL     1      26.281   7.384   4.669  1.00  0.00    -0.379 N 
ATOM     31  H   UNL     1      27.040   6.730   4.792  1.00  0.00     0.160 HD
BRANCH  30  32
ATOM     32  C   UNL     1      26.707   8.714   4.188  1.00  0.00     0.174 C 
BRANCH  32  33
ATOM     33  C   UNL     1      26.474   9.784   5.190  1.00  0.00     0.281 C 
BRANCH  33  34
ATOM     34  N   UNL     1      26.192  11.073   4.639  1.00  0.00    -0.343 N 
ATOM     35  H   UNL     1      26.805  11.833   5.013  1.00  0.00     0.346 HD
ATOM     36  H   UNL     1      26.391  11.030   3.609  1.00  0.00     0.346 HD
BRANCH  34  37
ATOM     37  C   UNL     1      24.815  11.479   4.776  1.00  0.00     0.289 C 
BRANCH  37  38
ATOM     38  C   UNL     1      23.880  10.615   3.960  1.00  0.00     0.217 C 
BRANCH  38  39
ATOM     39  O   UNL     1      22.958  10.030   4.812  1.00  0.00    -0.391 OA
ATOM     40  H   UNL     1      23.424   9.269   5.266  1.00  0.00     0.210 HD
ENDBRANCH  38  39
ENDBRANCH  37  38
ENDBRANCH  34  37
ENDBRANCH  33  34
ENDBRANCH  32  33
ENDBRANCH  30  32
ENDBRANCH  13  30
TORSDOF 15
ENDMDL
MODEL 7
REMARK VINA RESULT:      -4.6      2.519      6.237
REMARK SMILES O=C1c2c([O-])ccc(O)c2C(=O)c2c(NCC[NH2+]CCO)ccc(NCCNCCO)c21
REMARK SMILES IDX 1 1 2 2 3 3 4 4 5 5 6 6 7 7 8 8 10 9 11 10 12 11 13 12 14 13
REMARK SMILES IDX 22 14 23 15 24 16 32 17 25 18 26 20 27 21 28 22 29 24 30 25
REMARK SMILES IDX 31 26 9 28 15 30 16 32 17 33 18 34 19 37 20 38 21 39
REMARK H PARENT 25 19 28 23 31 27 9 29 15 31 18 35 18 36 21 40
ROOT
ATOM      1  O   UNL     1      23.499   5.513   3.243  1.00  0.00    -0.288 OA
ATOM      2  C   UNL     1      24.154   6.558   3.012  1.00  0.00     0.196 C 
ATOM      3  C   UNL     1      25.013   6.590   1.805  1.00  0.00     0.030 A 
ATOM      4  C   UNL     1      25.038   5.464   1.005  1.00  0.00    -0.097 A 
ATOM      5  O   UNL     1      24.270   4.357   1.353  1.00  0.00    -0.872 OA
ATOM      6  C   UNL     1      25.828   5.470  -0.124  1.00  0.00    -0.004 A 
ATOM      7  C   UNL     1      26.573   6.571  -0.443  1.00  0.00     0.046 A 
ATOM      8  C   UNL     1      26.563   7.704   0.341  1.00  0.00     0.127 A 
ATOM      9  C   UNL     1      25.758   7.685   1.481  1.00  0.00     0.075 A 
ATOM     10  C   UNL     1      25.714   8.869   2.347  1.00  0.00     0.200 C 
ATOM     11  O   UNL     1      26.430   9.829   1.973  1.00  0.00    -0.288 OA
ATOM     12  C   UNL     1      24.878   8.862   3.539  1.00  0.00     0.059 A 
ATOM     13  C   UNL     1      24.878   9.990   4.311  1.00  0.00     0.046 A 
ATOM     14  C   UNL     1      24.058   9.944   5.457  1.00  0.00     0.028 A 
ATOM     15  C   UNL     1      23.318   8.848   5.771  1.00  0.00     0.028 A 
ATOM     16  C   UNL     1      23.319   7.688   4.979  1.00  0.00     0.046 A 
ATOM     17  C   UNL     1      24.110   7.715   3.860  1.00  0.00     0.059 A 
ENDROOT
BRANCH  16  18
ATOM     18  N   UNL     1      22.476   6.611   5.383  1.00  0.00    -0.383 N 
ATOM     19  H   UNL     1      22.847   5.775   5.814  1.00  0.00     0.160 HD
BRANCH  18  20
ATOM     20  C   UNL     1      21.037   6.649   5.196  1.00  0.00     0.128 C 
BRANCH  20  21
ATOM     21  C   UNL     1      20.247   6.083   6.321  1.00  0.00     0.102 C 
BRANCH  21  22
ATOM     22  N   UNL     1      20.000   7.083   7.367  1.00  0.00    -0.313 NA
ATOM     23  H   UNL     1      20.655   6.851   8.154  1.00  0.00     0.122 HD
BRANCH  22  24
ATOM     24  C   UNL     1      18.657   6.838   7.871  1.00  0.00     0.109 C 
BRANCH  24  25
ATOM     25  C   UNL     1      18.623   6.873   9.380  1.00  0.00     0.171 C 
BRANCH  25  26
ATOM     26  O   UNL     1      19.530   5.972   9.935  1.00  0.00    -0.395 OA
ATOM     27  H   UNL     1      19.106   5.589  10.752  1.00  0.00     0.210 HD
ENDBRANCH  25  26
ENDBRANCH  24  25
ENDBRANCH  22  24
ENDBRANCH  21  22
ENDBRANCH  20  21
ENDBRANCH  18  20
ENDBRANCH  16  18
BRANCH   8  28
ATOM     28  O   UNL     1      27.327   8.831   0.011  1.00  0.00    -0.507 OA
ATOM     29  H   UNL     1      26.988   9.531  -0.650  1.00  0.00     0.293 HD
ENDBRANCH   8  28
BRANCH  13  30
ATOM     30  N   UNL     1      25.610  11.170   4.063  1.00  0.00    -0.379 N 
ATOM     31  H   UNL     1      25.387  11.867   3.369  1.00  0.00     0.160 HD
BRANCH  30  32
ATOM     32  C   UNL     1      26.822  11.474   4.852  1.00  0.00     0.174 C 
BRANCH  32  33
ATOM     33  C   UNL     1      27.003  10.548   5.998  1.00  0.00     0.281 C 
BRANCH  33  34
ATOM     34  N   UNL     1      26.764  11.128   7.284  1.00  0.00    -0.343 N 
ATOM     35  H   UNL     1      26.994  12.147   7.333  1.00  0.00     0.346 HD
ATOM     36  H   UNL     1      25.734  11.060   7.477  1.00  0.00     0.346 HD
BRANCH  34  37
ATOM     37  C   UNL     1      27.433  10.448   8.365  1.00  0.00     0.289 C 
BRANCH  37  38
ATOM     38  C   UNL     1      26.465   9.720   9.270  1.00  0.00     0.217 C 
BRANCH  38  39
ATOM     39  O   UNL     1      25.283  10.438   9.325  1.00  0.00    -0.391 OA
ATOM     40  H   UNL     1      25.481  11.286   9.818  1.00  0.00     0.210 HD
ENDBRANCH  38  39
ENDBRANCH  37  38
ENDBRANCH  34  37
ENDBRANCH  33  34
ENDBRANCH  32  33
ENDBRANCH  30  32
ENDBRANCH  13  30
TORSDOF 15
ENDMDL
MODEL 8
REMARK VINA RESULT:      -4.6      2.415      5.658
REMARK SMILES O=C1c2c([O-])ccc(O)c2C(=O)c2c(NCC[NH2+]CCO)ccc(NCCNCCO)c21
REMARK SMILES IDX 1 1 2 2 3 3 4 4 5 5 6 6 7 7 8 8 10 9 11 10 12 11 13 12 14 13
REMARK SMILES IDX 22 14 23 15 24 16 32 17 25 18 26 20 27 21 28 22 29 24 30 25
REMARK SMILES IDX 31 26 9 28 15 30 16 32 17 33 18 34 19 37 20 38 21 39
REMARK H PARENT 25 19 28 23 31 27 9 29 15 31 18 35 18 36 21 40
ROOT
ATOM      1  O   UNL     1      25.690   7.834   2.381  1.00  0.00    -0.288 OA
ATOM      2  C   UNL     1      24.619   7.234   2.640  1.00  0.00     0.196 C 
ATOM      3  C   UNL     1      24.110   6.257   1.649  1.00  0.00     0.030 A 
ATOM      4  C   UNL     1      24.850   6.065   0.498  1.00  0.00    -0.097 A 
ATOM      5  O   UNL     1      26.028   6.783   0.312  1.00  0.00    -0.872 OA
ATOM      6  C   UNL     1      24.398   5.161  -0.438  1.00  0.00    -0.004 A 
ATOM      7  C   UNL     1      23.238   4.468  -0.229  1.00  0.00     0.046 A 
ATOM      8  C   UNL     1      22.485   4.644   0.911  1.00  0.00     0.127 A 
ATOM      9  C   UNL     1      22.954   5.562   1.851  1.00  0.00     0.075 A 
ATOM     10  C   UNL     1      22.186   5.784   3.081  1.00  0.00     0.200 C 
ATOM     11  O   UNL     1      21.137   5.104   3.184  1.00  0.00    -0.288 OA
ATOM     12  C   UNL     1      22.664   6.740   4.070  1.00  0.00     0.059 A 
ATOM     13  C   UNL     1      21.908   6.908   5.196  1.00  0.00     0.046 A 
ATOM     14  C   UNL     1      22.402   7.843   6.129  1.00  0.00     0.028 A 
ATOM     15  C   UNL     1      23.557   8.529   5.919  1.00  0.00     0.028 A 
ATOM     16  C   UNL     1      24.335   8.357   4.762  1.00  0.00     0.046 A 
ATOM     17  C   UNL     1      23.869   7.452   3.844  1.00  0.00     0.059 A 
ENDROOT
BRANCH  16  18
ATOM     18  N   UNL     1      25.546   9.102   4.662  1.00  0.00    -0.383 N 
ATOM     19  H   UNL     1      26.164   9.014   3.868  1.00  0.00     0.160 HD
BRANCH  18  20
ATOM     20  C   UNL     1      25.966  10.027   5.699  1.00  0.00     0.128 C 
BRANCH  20  21
ATOM     21  C   UNL     1      26.773   9.418   6.789  1.00  0.00     0.102 C 
BRANCH  21  22
ATOM     22  N   UNL     1      26.928   7.969   6.604  1.00  0.00    -0.313 NA
ATOM     23  H   UNL     1      26.121   7.662   6.009  1.00  0.00     0.122 HD
BRANCH  22  24
ATOM     24  C   UNL     1      26.727   7.358   7.909  1.00  0.00     0.109 C 
BRANCH  24  25
ATOM     25  C   UNL     1      26.662   8.402   8.998  1.00  0.00     0.171 C 
BRANCH  25  26
ATOM     26  O   UNL     1      25.465   8.330   9.707  1.00  0.00    -0.395 OA
ATOM     27  H   UNL     1      25.204   7.369   9.755  1.00  0.00     0.210 HD
ENDBRANCH  25  26
ENDBRANCH  24  25
ENDBRANCH  22  24
ENDBRANCH  21  22
ENDBRANCH  20  21
ENDBRANCH  18  20
ENDBRANCH  16  18
BRANCH   8  28
ATOM     28  O   UNL     1      21.297   3.933   1.122  1.00  0.00    -0.507 OA
ATOM     29  H   UNL     1      20.703   3.641   0.343  1.00  0.00     0.293 HD
ENDBRANCH   8  28
BRANCH  13  30
ATOM     30  N   UNL     1      20.702   6.241   5.498  1.00  0.00    -0.379 N 
ATOM     31  H   UNL     1      19.974   6.012   4.839  1.00  0.00     0.160 HD
BRANCH  30  32
ATOM     32  C   UNL     1      20.414   5.815   6.883  1.00  0.00     0.174 C 
BRANCH  32  33
ATOM     33  C   UNL     1      19.308   6.590   7.500  1.00  0.00     0.281 C 
BRANCH  33  34
ATOM     34  N   UNL     1      19.151   6.398   8.908  1.00  0.00    -0.343 N 
ATOM     35  H   UNL     1      19.197   5.396   9.202  1.00  0.00     0.346 HD
ATOM     36  H   UNL     1      19.958   6.871   9.386  1.00  0.00     0.346 HD
BRANCH  34  37
ATOM     37  C   UNL     1      17.950   6.986   9.448  1.00  0.00     0.289 C 
BRANCH  37  38
ATOM     38  C   UNL     1      16.913   7.253   8.380  1.00  0.00     0.217 C 
BRANCH  38  39
ATOM     39  O   UNL     1      15.746   6.590   8.718  1.00  0.00    -0.391 OA
ATOM     40  H   UNL     1      15.538   5.964   7.965  1.00  0.00     0.210 HD
ENDBRANCH  38  39
ENDBRANCH  37  38
ENDBRANCH  34  37
ENDBRANCH  33  34
ENDBRANCH  32  33
ENDBRANCH  30  32
ENDBRANCH  13  30
TORSDOF 15
ENDMDL
MODEL 9
REMARK VINA RESULT:      -4.5      2.466      5.795
REMARK SMILES O=C1c2c([O-])ccc(O)c2C(=O)c2c(NCC[NH2+]CCO)ccc(NCCNCCO)c21
REMARK SMILES IDX 1 1 2 2 3 3 4 4 5 5 6 6 7 7 8 8 10 9 11 10 12 11 13 12 14 13
REMARK SMILES IDX 22 14 23 15 24 16 32 17 25 18 26 20 27 21 28 22 29 24 30 25
REMARK SMILES IDX 31 26 9 28 15 30 16 32 17 33 18 34 19 37 20 38 21 39
REMARK H PARENT 25 19 28 23 31 27 9 29 15 31 18 35 18 36 21 40
ROOT
ATOM      1  O   UNL     1      25.684   6.537   2.385  1.00  0.00    -0.288 OA
ATOM      2  C   UNL     1      24.493   6.301   2.703  1.00  0.00     0.196 C 
ATOM      3  C   UNL     1      23.629   5.619   1.711  1.00  0.00     0.030 A 
ATOM      4  C   UNL     1      24.190   5.282   0.494  1.00  0.00    -0.097 A 
ATOM      5  O   UNL     1      25.524   5.589   0.245  1.00  0.00    -0.872 OA
ATOM      6  C   UNL     1      23.407   4.647  -0.444  1.00  0.00    -0.004 A 
ATOM      7  C   UNL     1      22.099   4.356  -0.173  1.00  0.00     0.046 A 
ATOM      8  C   UNL     1      21.519   4.683   1.033  1.00  0.00     0.127 A 
ATOM      9  C   UNL     1      22.323   5.326   1.975  1.00  0.00     0.075 A 
ATOM     10  C   UNL     1      21.750   5.694   3.275  1.00  0.00     0.200 C 
ATOM     11  O   UNL     1      20.544   5.387   3.431  1.00  0.00    -0.288 OA
ATOM     12  C   UNL     1      22.579   6.366   4.266  1.00  0.00     0.059 A 
ATOM     13  C   UNL     1      21.993   6.687   5.458  1.00  0.00     0.046 A 
ATOM     14  C   UNL     1      22.826   7.338   6.391  1.00  0.00     0.028 A 
ATOM     15  C   UNL     1      24.127   7.624   6.119  1.00  0.00     0.028 A 
ATOM     16  C   UNL     1      24.730   7.295   4.894  1.00  0.00     0.046 A 
ATOM     17  C   UNL     1      23.934   6.661   3.975  1.00  0.00     0.059 A 
ENDROOT
BRANCH  16  18
ATOM     18  N   UNL     1      26.111   7.610   4.730  1.00  0.00    -0.383 N 
ATOM     19  H   UNL     1      26.501   7.852   3.830  1.00  0.00     0.160 HD
BRANCH  18  20
ATOM     20  C   UNL     1      27.039   7.597   5.846  1.00  0.00     0.128 C 
BRANCH  20  21
ATOM     21  C   UNL     1      27.064   8.847   6.650  1.00  0.00     0.102 C 
BRANCH  21  22
ATOM     22  N   UNL     1      27.074  10.042   5.795  1.00  0.00    -0.313 NA
ATOM     23  H   UNL     1      27.976  10.012   5.261  1.00  0.00     0.122 HD
BRANCH  22  24
ATOM     24  C   UNL     1      27.165  11.191   6.684  1.00  0.00     0.109 C 
BRANCH  24  25
ATOM     25  C   UNL     1      26.245  11.038   7.872  1.00  0.00     0.171 C 
BRANCH  25  26
ATOM     26  O   UNL     1      24.923  11.320   7.536  1.00  0.00    -0.395 OA
ATOM     27  H   UNL     1      24.569  10.533   7.036  1.00  0.00     0.210 HD
ENDBRANCH  25  26
ENDBRANCH  24  25
ENDBRANCH  22  24
ENDBRANCH  21  22
ENDBRANCH  20  21
ENDBRANCH  18  20
ENDBRANCH  16  18
BRANCH   8  28
ATOM     28  O   UNL     1      20.179   4.384   1.308  1.00  0.00    -0.507 OA
ATOM     29  H   UNL     1      19.466   4.404   0.576  1.00  0.00     0.293 HD
ENDBRANCH   8  28
BRANCH  13  30
ATOM     30  N   UNL     1      20.657   6.429   5.827  1.00  0.00    -0.379 N 
ATOM     31  H   UNL     1      19.843   6.606   5.257  1.00  0.00     0.160 HD
BRANCH  30  32
ATOM     32  C   UNL     1      20.348   5.852   7.151  1.00  0.00     0.174 C 
BRANCH  32  33
ATOM     33  C   UNL     1      19.875   6.871   8.122  1.00  0.00     0.281 C 
BRANCH  33  34
ATOM     34  N   UNL     1      18.953   6.386   9.102  1.00  0.00    -0.343 N 
ATOM     35  H   UNL     1      18.518   5.470   8.851  1.00  0.00     0.346 HD
ATOM     36  H   UNL     1      19.491   6.213   9.987  1.00  0.00     0.346 HD
BRANCH  34  37
ATOM     37  C   UNL     1      17.906   7.322   9.432  1.00  0.00     0.289 C 
BRANCH  37  38
ATOM     38  C   UNL     1      16.698   7.168   8.536  1.00  0.00     0.217 C 
BRANCH  38  39
ATOM     39  O   UNL     1      15.613   6.800   9.313  1.00  0.00    -0.391 OA
ATOM     40  H   UNL     1      15.894   6.000   9.846  1.00  0.00     0.210 HD
ENDBRANCH  38  39
ENDBRANCH  37  38
ENDBRANCH  34  37
ENDBRANCH  33  34
ENDBRANCH  32  33
ENDBRANCH  30  32
ENDBRANCH  13  30
TORSDOF 15
ENDMDL
