MODEL 1
REMARK VINA RESULT:      -4.8      0.000      0.000
REMARK SMILES CCCCC/C=C\C/C=C\C/C=C\C/C=C\CCCC(=O)NCC(=O)[O-]
REMARK SMILES IDX 12 1 13 2 11 3 10 4 9 5 8 6 7 7 6 8 5 9 4 10 3 11 2 12 1 13
REMARK SMILES IDX 14 14 15 15 16 16 17 17 18 18 19 19 20 20 21 21 22 22 23 24
REMARK SMILES IDX 24 25 25 26 26 27
REMARK H PARENT 22 23
ROOT
ATOM      1  C   UNL     1      -6.431  10.090 -18.132  1.00  0.00    -0.027 C 
ATOM      2  C   UNL     1      -6.179   9.393 -19.194  1.00  0.00    -0.027 C 
ENDROOT
BRANCH   1   3
ATOM      3  C   UNL     1      -7.539   9.771 -17.218  1.00  0.00     0.054 C 
BRANCH   3   4
ATOM      4  C   UNL     1      -7.743  10.918 -16.291  1.00  0.00    -0.027 C 
ATOM      5  C   UNL     1      -7.585  10.908 -15.004  1.00  0.00    -0.027 C 
BRANCH   5   6
ATOM      6  C   UNL     1      -7.153   9.644 -14.335  1.00  0.00     0.054 C 
BRANCH   6   7
ATOM      7  C   UNL     1      -5.674   9.586 -14.298  1.00  0.00    -0.027 C 
ATOM      8  C   UNL     1      -5.031   8.474 -14.573  1.00  0.00    -0.031 C 
BRANCH   8   9
ATOM      9  C   UNL     1      -5.634   7.189 -14.934  1.00  0.00     0.027 C 
BRANCH   9  10
ATOM     10  C   UNL     1      -5.474   6.871 -16.410  1.00  0.00     0.004 C 
BRANCH  10  11
ATOM     11  C   UNL     1      -4.094   7.189 -16.913  1.00  0.00     0.000 C 
BRANCH  11  12
ATOM     12  C   UNL     1      -3.850   6.685 -18.313  1.00  0.00    -0.003 C 
ATOM     13  C   UNL     1      -2.926   7.562 -19.094  1.00  0.00     0.004 C 
ENDBRANCH  11  12
ENDBRANCH  10  11
ENDBRANCH   9  10
ENDBRANCH   8   9
ENDBRANCH   6   7
ENDBRANCH   5   6
ENDBRANCH   3   4
ENDBRANCH   1   3
BRANCH   2  14
ATOM     14  C   UNL     1      -6.909   8.198 -19.676  1.00  0.00     0.054 C 
BRANCH  14  15
ATOM     15  C   UNL     1      -7.265   8.377 -21.070  1.00  0.00    -0.027 C 
ATOM     16  C   UNL     1      -6.711   7.770 -22.055  1.00  0.00    -0.031 C 
BRANCH  16  17
ATOM     17  C   UNL     1      -5.661   6.824 -21.976  1.00  0.00     0.027 C 
BRANCH  17  18
ATOM     18  C   UNL     1      -4.320   7.296 -22.422  1.00  0.00     0.014 C 
BRANCH  18  19
ATOM     19  C   UNL     1      -3.460   6.267 -23.004  1.00  0.00     0.100 C 
BRANCH  19  20
ATOM     20  C   UNL     1      -2.008   6.441 -23.023  1.00  0.00     0.220 C 
ATOM     21  O   UNL     1      -1.244   6.594 -22.046  1.00  0.00    -0.275 OA
ATOM     22  N   UNL     1      -1.325   6.443 -24.306  1.00  0.00    -0.351 N 
ATOM     23  H   UNL     1      -1.934   6.317 -25.137  1.00  0.00     0.163 HD
BRANCH  22  24
ATOM     24  C   UNL     1       0.088   6.607 -24.406  1.00  0.00     0.168 C 
BRANCH  24  25
ATOM     25  C   UNL     1       0.749   5.296 -24.566  1.00  0.00     0.061 C 
ATOM     26  O   UNL     1       1.228   4.672 -23.592  1.00  0.00    -0.548 OA
ATOM     27  O   UNL     1       0.841   4.743 -25.829  1.00  0.00    -0.548 OA
ENDBRANCH  24  25
ENDBRANCH  22  24
ENDBRANCH  19  20
ENDBRANCH  18  19
ENDBRANCH  17  18
ENDBRANCH  16  17
ENDBRANCH  14  15
ENDBRANCH   2  14
TORSDOF 16
ENDMDL
MODEL 2
REMARK VINA RESULT:      -4.7      2.244      5.484
REMARK SMILES CCCCC/C=C\C/C=C\C/C=C\C/C=C\CCCC(=O)NCC(=O)[O-]
REMARK SMILES IDX 12 1 13 2 11 3 10 4 9 5 8 6 7 7 6 8 5 9 4 10 3 11 2 12 1 13
REMARK SMILES IDX 14 14 15 15 16 16 17 17 18 18 19 19 20 20 21 21 22 22 23 24
REMARK SMILES IDX 24 25 25 26 26 27
REMARK H PARENT 22 23
ROOT
ATOM      1  C   UNL     1      -2.201   6.582 -22.624  1.00  0.00    -0.027 C 
ATOM      2  C   UNL     1      -2.249   6.096 -23.824  1.00  0.00    -0.027 C 
ENDROOT
BRANCH   1   3
ATOM      3  C   UNL     1      -3.355   6.562 -21.713  1.00  0.00     0.054 C 
BRANCH   3   4
ATOM      4  C   UNL     1      -3.632   7.953 -21.258  1.00  0.00    -0.027 C 
ATOM      5  C   UNL     1      -3.551   8.398 -20.043  1.00  0.00    -0.027 C 
BRANCH   5   6
ATOM      6  C   UNL     1      -3.142   7.462 -18.952  1.00  0.00     0.054 C 
BRANCH   6   7
ATOM      7  C   UNL     1      -4.328   6.721 -18.468  1.00  0.00    -0.027 C 
ATOM      8  C   UNL     1      -4.630   6.683 -17.190  1.00  0.00    -0.031 C 
BRANCH   8   9
ATOM      9  C   UNL     1      -3.887   7.324 -16.103  1.00  0.00     0.027 C 
BRANCH   9  10
ATOM     10  C   UNL     1      -4.631   8.511 -15.517  1.00  0.00     0.004 C 
BRANCH  10  11
ATOM     11  C   UNL     1      -5.775   8.087 -14.640  1.00  0.00     0.000 C 
BRANCH  11  12
ATOM     12  C   UNL     1      -6.214   9.170 -13.686  1.00  0.00    -0.003 C 
ATOM     13  C   UNL     1      -5.067   9.924 -13.095  1.00  0.00     0.004 C 
ENDBRANCH  11  12
ENDBRANCH  10  11
ENDBRANCH   9  10
ENDBRANCH   8   9
ENDBRANCH   6   7
ENDBRANCH   5   6
ENDBRANCH   3   4
ENDBRANCH   1   3
BRANCH   2  14
ATOM     14  C   UNL     1      -3.410   5.456 -24.485  1.00  0.00     0.054 C 
BRANCH  14  15
ATOM     15  C   UNL     1      -3.075   4.090 -24.837  1.00  0.00    -0.027 C 
ATOM     16  C   UNL     1      -2.756   3.691 -26.013  1.00  0.00    -0.031 C 
BRANCH  16  17
ATOM     17  C   UNL     1      -2.672   4.491 -27.179  1.00  0.00     0.027 C 
BRANCH  17  18
ATOM     18  C   UNL     1      -1.364   4.470 -27.894  1.00  0.00     0.014 C 
BRANCH  18  19
ATOM     19  C   UNL     1      -0.329   5.329 -27.321  1.00  0.00     0.100 C 
BRANCH  19  20
ATOM     20  C   UNL     1       0.770   4.749 -26.549  1.00  0.00     0.220 C 
ATOM     21  O   UNL     1       1.552   3.839 -26.899  1.00  0.00    -0.275 OA
ATOM     22  N   UNL     1       1.022   5.256 -25.211  1.00  0.00    -0.351 N 
ATOM     23  H   UNL     1       0.388   6.013 -24.892  1.00  0.00     0.163 HD
BRANCH  22  24
ATOM     24  C   UNL     1       2.074   4.741 -24.397  1.00  0.00     0.168 C 
BRANCH  24  25
ATOM     25  C   UNL     1       2.365   5.666 -23.284  1.00  0.00     0.061 C 
ATOM     26  O   UNL     1       3.507   6.148 -23.103  1.00  0.00    -0.548 OA
ATOM     27  O   UNL     1       1.346   6.010 -22.416  1.00  0.00    -0.548 OA
ENDBRANCH  24  25
ENDBRANCH  22  24
ENDBRANCH  19  20
ENDBRANCH  18  19
ENDBRANCH  17  18
ENDBRANCH  16  17
ENDBRANCH  14  15
ENDBRANCH   2  14
TORSDOF 16
ENDMDL
MODEL 3
REMARK VINA RESULT:      -4.7      2.015      3.913
REMARK SMILES CCCCC/C=C\C/C=C\C/C=C\C/C=C\CCCC(=O)NCC(=O)[O-]
REMARK SMILES IDX 12 1 13 2 11 3 10 4 9 5 8 6 7 7 6 8 5 9 4 10 3 11 2 12 1 13
REMARK SMILES IDX 14 14 15 15 16 16 17 17 18 18 19 19 20 20 21 21 22 22 23 24
REMARK SMILES IDX 24 25 25 26 26 27
REMARK H PARENT 22 23
ROOT
ATOM      1  C   UNL     1      -3.956   6.737 -18.134  1.00  0.00    -0.027 C 
ATOM      2  C   UNL     1      -4.093   6.768 -19.422  1.00  0.00    -0.027 C 
ENDROOT
BRANCH   1   3
ATOM      3  C   UNL     1      -3.621   7.931 -17.342  1.00  0.00     0.054 C 
BRANCH   3   4
ATOM      4  C   UNL     1      -4.854   8.746 -17.159  1.00  0.00    -0.027 C 
ATOM      5  C   UNL     1      -5.600   8.790 -16.100  1.00  0.00    -0.027 C 
BRANCH   5   6
ATOM      6  C   UNL     1      -5.229   7.958 -14.915  1.00  0.00     0.054 C 
BRANCH   6   7
ATOM      7  C   UNL     1      -6.165   6.816 -14.802  1.00  0.00    -0.027 C 
ATOM      8  C   UNL     1      -7.172   6.845 -13.960  1.00  0.00    -0.031 C 
BRANCH   8   9
ATOM      9  C   UNL     1      -7.512   7.942 -13.050  1.00  0.00     0.027 C 
BRANCH   9  10
ATOM     10  C   UNL     1      -8.607   8.835 -13.606  1.00  0.00     0.004 C 
BRANCH  10  11
ATOM     11  C   UNL     1      -8.461  10.260 -13.155  1.00  0.00     0.000 C 
BRANCH  11  12
ATOM     12  C   UNL     1      -7.433  11.025 -13.951  1.00  0.00    -0.003 C 
ATOM     13  C   UNL     1      -6.467  11.771 -13.089  1.00  0.00     0.004 C 
ENDBRANCH  11  12
ENDBRANCH  10  11
ENDBRANCH   9  10
ENDBRANCH   8   9
ENDBRANCH   6   7
ENDBRANCH   5   6
ENDBRANCH   3   4
ENDBRANCH   1   3
BRANCH   2  14
ATOM     14  C   UNL     1      -3.951   7.945 -20.309  1.00  0.00     0.054 C 
BRANCH  14  15
ATOM     15  C   UNL     1      -2.725   7.831 -21.075  1.00  0.00    -0.027 C 
ATOM     16  C   UNL     1      -2.599   7.174 -22.169  1.00  0.00    -0.031 C 
BRANCH  16  17
ATOM     17  C   UNL     1      -3.614   6.443 -22.832  1.00  0.00     0.027 C 
BRANCH  17  18
ATOM     18  C   UNL     1      -3.360   6.123 -24.265  1.00  0.00     0.014 C 
BRANCH  18  19
ATOM     19  C   UNL     1      -2.805   4.794 -24.516  1.00  0.00     0.100 C 
BRANCH  19  20
ATOM     20  C   UNL     1      -1.365   4.617 -24.705  1.00  0.00     0.220 C 
ATOM     21  O   UNL     1      -0.763   4.336 -25.764  1.00  0.00    -0.275 OA
ATOM     22  N   UNL     1      -0.489   4.779 -23.558  1.00  0.00    -0.351 N 
ATOM     23  H   UNL     1      -0.961   5.013 -22.663  1.00  0.00     0.163 HD
BRANCH  22  24
ATOM     24  C   UNL     1       0.925   4.623 -23.663  1.00  0.00     0.168 C 
BRANCH  24  25
ATOM     25  C   UNL     1       1.617   5.778 -23.057  1.00  0.00     0.061 C 
ATOM     26  O   UNL     1       2.028   5.760 -21.874  1.00  0.00    -0.548 OA
ATOM     27  O   UNL     1       1.816   6.914 -23.820  1.00  0.00    -0.548 OA
ENDBRANCH  24  25
ENDBRANCH  22  24
ENDBRANCH  19  20
ENDBRANCH  18  19
ENDBRANCH  17  18
ENDBRANCH  16  17
ENDBRANCH  14  15
ENDBRANCH   2  14
TORSDOF 16
ENDMDL
MODEL 4
REMARK VINA RESULT:      -4.6      2.688      6.375
REMARK SMILES CCCCC/C=C\C/C=C\C/C=C\C/C=C\CCCC(=O)NCC(=O)[O-]
REMARK SMILES IDX 12 1 13 2 11 3 10 4 9 5 8 6 7 7 6 8 5 9 4 10 3 11 2 12 1 13
REMARK SMILES IDX 14 14 15 15 16 16 17 17 18 18 19 19 20 20 21 21 22 22 23 24
REMARK SMILES IDX 24 25 25 26 26 27
REMARK H PARENT 22 23
ROOT
ATOM      1  C   UNL     1      -1.761   6.408 -22.887  1.00  0.00    -0.027 C 
ATOM      2  C   UNL     1      -0.693   5.705 -23.087  1.00  0.00    -0.027 C 
ENDROOT
BRANCH   1   3
ATOM      3  C   UNL     1      -2.376   6.559 -21.559  1.00  0.00     0.054 C 
BRANCH   3   4
ATOM      4  C   UNL     1      -3.839   6.781 -21.730  1.00  0.00    -0.027 C 
ATOM      5  C   UNL     1      -4.547   7.714 -21.175  1.00  0.00    -0.027 C 
BRANCH   5   6
ATOM      6  C   UNL     1      -3.876   8.692 -20.265  1.00  0.00     0.054 C 
BRANCH   6   7
ATOM      7  C   UNL     1      -4.834   9.138 -19.228  1.00  0.00    -0.027 C 
ATOM      8  C   UNL     1      -4.704   8.762 -17.977  1.00  0.00    -0.031 C 
BRANCH   8   9
ATOM      9  C   UNL     1      -3.658   7.892 -17.437  1.00  0.00     0.027 C 
BRANCH   9  10
ATOM     10  C   UNL     1      -4.046   7.281 -16.102  1.00  0.00     0.004 C 
BRANCH  10  11
ATOM     11  C   UNL     1      -5.532   7.091 -15.976  1.00  0.00     0.000 C 
BRANCH  11  12
ATOM     12  C   UNL     1      -6.066   7.526 -14.634  1.00  0.00    -0.003 C 
ATOM     13  C   UNL     1      -7.136   6.622 -14.113  1.00  0.00     0.004 C 
ENDBRANCH  11  12
ENDBRANCH  10  11
ENDBRANCH   9  10
ENDBRANCH   8   9
ENDBRANCH   6   7
ENDBRANCH   5   6
ENDBRANCH   3   4
ENDBRANCH   1   3
BRANCH   2  14
ATOM     14  C   UNL     1       0.087   4.953 -22.076  1.00  0.00     0.054 C 
BRANCH  14  15
ATOM     15  C   UNL     1       1.488   5.315 -22.177  1.00  0.00    -0.027 C 
ATOM     16  C   UNL     1       2.235   5.085 -23.193  1.00  0.00    -0.031 C 
BRANCH  16  17
ATOM     17  C   UNL     1       1.847   4.444 -24.394  1.00  0.00     0.027 C 
BRANCH  17  18
ATOM     18  C   UNL     1       2.704   4.710 -25.585  1.00  0.00     0.014 C 
BRANCH  18  19
ATOM     19  C   UNL     1       2.175   5.698 -26.523  1.00  0.00     0.100 C 
BRANCH  19  20
ATOM     20  C   UNL     1       1.538   6.919 -26.030  1.00  0.00     0.220 C 
ATOM     21  O   UNL     1       0.342   7.258 -26.150  1.00  0.00    -0.275 OA
ATOM     22  N   UNL     1       2.351   7.883 -25.307  1.00  0.00    -0.351 N 
ATOM     23  H   UNL     1       3.350   7.628 -25.191  1.00  0.00     0.163 HD
BRANCH  22  24
ATOM     24  C   UNL     1       1.803   9.095 -24.796  1.00  0.00     0.168 C 
BRANCH  24  25
ATOM     25  C   UNL     1       2.856  10.121 -24.659  1.00  0.00     0.061 C 
ATOM     26  O   UNL     1       3.973  10.002 -25.214  1.00  0.00    -0.548 OA
ATOM     27  O   UNL     1       2.602  11.244 -23.896  1.00  0.00    -0.548 OA
ENDBRANCH  24  25
ENDBRANCH  22  24
ENDBRANCH  19  20
ENDBRANCH  18  19
ENDBRANCH  17  18
ENDBRANCH  16  17
ENDBRANCH  14  15
ENDBRANCH   2  14
TORSDOF 16
ENDMDL
MODEL 5
REMARK VINA RESULT:      -4.6      5.931     10.912
REMARK SMILES CCCCC/C=C\C/C=C\C/C=C\C/C=C\CCCC(=O)NCC(=O)[O-]
REMARK SMILES IDX 12 1 13 2 11 3 10 4 9 5 8 6 7 7 6 8 5 9 4 10 3 11 2 12 1 13
REMARK SMILES IDX 14 14 15 15 16 16 17 17 18 18 19 19 20 20 21 21 22 22 23 24
REMARK SMILES IDX 24 25 25 26 26 27
REMARK H PARENT 22 23
ROOT
ATOM      1  C   UNL     1      -3.408   8.204 -20.108  1.00  0.00    -0.027 C 
ATOM      2  C   UNL     1      -4.062   8.384 -19.004  1.00  0.00    -0.027 C 
ENDROOT
BRANCH   1   3
ATOM      3  C   UNL     1      -3.324   6.896 -20.777  1.00  0.00     0.054 C 
BRANCH   3   4
ATOM      4  C   UNL     1      -2.118   6.179 -20.278  1.00  0.00    -0.027 C 
ATOM      5  C   UNL     1      -1.097   5.803 -20.984  1.00  0.00    -0.027 C 
BRANCH   5   6
ATOM      6  C   UNL     1      -1.080   6.096 -22.450  1.00  0.00     0.054 C 
BRANCH   6   7
ATOM      7  C   UNL     1      -0.809   4.848 -23.199  1.00  0.00    -0.027 C 
ATOM      8  C   UNL     1      -0.151   4.868 -24.335  1.00  0.00    -0.031 C 
BRANCH   8   9
ATOM      9  C   UNL     1       0.385   6.054 -25.007  1.00  0.00     0.027 C 
BRANCH   9  10
ATOM     10  C   UNL     1       1.904   6.059 -25.044  1.00  0.00     0.004 C 
BRANCH  10  11
ATOM     11  C   UNL     1       2.497   6.798 -23.877  1.00  0.00     0.000 C 
BRANCH  11  12
ATOM     12  C   UNL     1       3.268   5.898 -22.945  1.00  0.00    -0.003 C 
ATOM     13  C   UNL     1       2.567   5.669 -21.645  1.00  0.00     0.004 C 
ENDBRANCH  11  12
ENDBRANCH  10  11
ENDBRANCH   9  10
ENDBRANCH   8   9
ENDBRANCH   6   7
ENDBRANCH   5   6
ENDBRANCH   3   4
ENDBRANCH   1   3
BRANCH   2  14
ATOM     14  C   UNL     1      -4.818   7.368 -18.236  1.00  0.00     0.054 C 
BRANCH  14  15
ATOM     15  C   UNL     1      -4.115   7.071 -17.003  1.00  0.00    -0.027 C 
ATOM     16  C   UNL     1      -4.669   6.941 -15.853  1.00  0.00    -0.031 C 
BRANCH  16  17
ATOM     17  C   UNL     1      -6.050   7.060 -15.567  1.00  0.00     0.027 C 
BRANCH  17  18
ATOM     18  C   UNL     1      -6.396   7.543 -14.200  1.00  0.00     0.014 C 
BRANCH  18  19
ATOM     19  C   UNL     1      -6.328   8.991 -14.016  1.00  0.00     0.100 C 
BRANCH  19  20
ATOM     20  C   UNL     1      -6.476   9.575 -12.683  1.00  0.00     0.220 C 
ATOM     21  O   UNL     1      -5.589  10.096 -11.974  1.00  0.00    -0.275 OA
ATOM     22  N   UNL     1      -7.793   9.573 -12.067  1.00  0.00    -0.351 N 
ATOM     23  H   UNL     1      -8.551   9.147 -12.632  1.00  0.00     0.163 HD
BRANCH  22  24
ATOM     24  C   UNL     1      -8.017  10.124 -10.770  1.00  0.00     0.168 C 
BRANCH  24  25
ATOM     25  C   UNL     1      -8.267   9.049  -9.790  1.00  0.00     0.061 C 
ATOM     26  O   UNL     1      -7.910   9.145  -8.593  1.00  0.00    -0.548 OA
ATOM     27  O   UNL     1      -8.916   7.901 -10.206  1.00  0.00    -0.548 OA
ENDBRANCH  24  25
ENDBRANCH  22  24
ENDBRANCH  19  20
ENDBRANCH  18  19
ENDBRANCH  17  18
ENDBRANCH  16  17
ENDBRANCH  14  15
ENDBRANCH   2  14
TORSDOF 16
ENDMDL
MODEL 6
REMARK VINA RESULT:      -4.6      1.702      3.413
REMARK SMILES CCCCC/C=C\C/C=C\C/C=C\C/C=C\CCCC(=O)NCC(=O)[O-]
REMARK SMILES IDX 12 1 13 2 11 3 10 4 9 5 8 6 7 7 6 8 5 9 4 10 3 11 2 12 1 13
REMARK SMILES IDX 14 14 15 15 16 16 17 17 18 18 19 19 20 20 21 21 22 22 23 24
REMARK SMILES IDX 24 25 25 26 26 27
REMARK H PARENT 22 23
ROOT
ATOM      1  C   UNL     1      -5.788  10.088 -18.947  1.00  0.00    -0.027 C 
ATOM      2  C   UNL     1      -6.247  10.444 -20.105  1.00  0.00    -0.027 C 
ENDROOT
BRANCH   1   3
ATOM      3  C   UNL     1      -4.838   8.977 -18.779  1.00  0.00     0.054 C 
BRANCH   3   4
ATOM      4  C   UNL     1      -5.601   7.702 -18.689  1.00  0.00    -0.027 C 
ATOM      5  C   UNL     1      -5.446   6.770 -17.802  1.00  0.00    -0.027 C 
BRANCH   5   6
ATOM      6  C   UNL     1      -4.411   6.945 -16.737  1.00  0.00     0.054 C 
BRANCH   6   7
ATOM      7  C   UNL     1      -5.035   6.756 -15.408  1.00  0.00    -0.027 C 
ATOM      8  C   UNL     1      -5.489   7.778 -14.720  1.00  0.00    -0.031 C 
BRANCH   8   9
ATOM      9  C   UNL     1      -5.453   9.184 -15.128  1.00  0.00     0.027 C 
BRANCH   9  10
ATOM     10  C   UNL     1      -6.820   9.843 -15.054  1.00  0.00     0.004 C 
BRANCH  10  11
ATOM     11  C   UNL     1      -7.835   9.142 -15.912  1.00  0.00     0.000 C 
BRANCH  11  12
ATOM     12  C   UNL     1      -8.702  10.098 -16.692  1.00  0.00    -0.003 C 
ATOM     13  C   UNL     1      -8.273  11.522 -16.548  1.00  0.00     0.004 C 
ENDBRANCH  11  12
ENDBRANCH  10  11
ENDBRANCH   9  10
ENDBRANCH   8   9
ENDBRANCH   6   7
ENDBRANCH   5   6
ENDBRANCH   3   4
ENDBRANCH   1   3
BRANCH   2  14
ATOM     14  C   UNL     1      -5.926   9.843 -21.420  1.00  0.00     0.054 C 
BRANCH  14  15
ATOM     15  C   UNL     1      -4.673  10.386 -21.908  1.00  0.00    -0.027 C 
ATOM     16  C   UNL     1      -3.646   9.690 -22.231  1.00  0.00    -0.031 C 
BRANCH  16  17
ATOM     17  C   UNL     1      -3.535   8.279 -22.175  1.00  0.00     0.027 C 
BRANCH  17  18
ATOM     18  C   UNL     1      -2.150   7.729 -22.216  1.00  0.00     0.014 C 
BRANCH  18  19
ATOM     19  C   UNL     1      -2.052   6.319 -22.588  1.00  0.00     0.100 C 
BRANCH  19  20
ATOM     20  C   UNL     1      -0.778   5.610 -22.468  1.00  0.00     0.220 C 
ATOM     21  O   UNL     1      -0.372   4.927 -21.503  1.00  0.00    -0.275 OA
ATOM     22  N   UNL     1       0.161   5.676 -23.575  1.00  0.00    -0.351 N 
ATOM     23  H   UNL     1      -0.148   6.237 -24.391  1.00  0.00     0.163 HD
BRANCH  22  24
ATOM     24  C   UNL     1       1.422   5.012 -23.532  1.00  0.00     0.168 C 
BRANCH  24  25
ATOM     25  C   UNL     1       2.524   5.994 -23.566  1.00  0.00     0.061 C 
ATOM     26  O   UNL     1       3.720   5.655 -23.413  1.00  0.00    -0.548 OA
ATOM     27  O   UNL     1       2.225   7.328 -23.773  1.00  0.00    -0.548 OA
ENDBRANCH  24  25
ENDBRANCH  22  24
ENDBRANCH  19  20
ENDBRANCH  18  19
ENDBRANCH  17  18
ENDBRANCH  16  17
ENDBRANCH  14  15
ENDBRANCH   2  14
TORSDOF 16
ENDMDL
MODEL 7
REMARK VINA RESULT:      -4.5      1.856      3.487
REMARK SMILES CCCCC/C=C\C/C=C\C/C=C\C/C=C\CCCC(=O)NCC(=O)[O-]
REMARK SMILES IDX 12 1 13 2 11 3 10 4 9 5 8 6 7 7 6 8 5 9 4 10 3 11 2 12 1 13
REMARK SMILES IDX 14 14 15 15 16 16 17 17 18 18 19 19 20 20 21 21 22 22 23 24
REMARK SMILES IDX 24 25 25 26 26 27
REMARK H PARENT 22 23
ROOT
ATOM      1  C   UNL     1      -4.346   8.535 -17.070  1.00  0.00    -0.027 C 
ATOM      2  C   UNL     1      -4.678   8.469 -18.320  1.00  0.00    -0.027 C 
ENDROOT
BRANCH   1   3
ATOM      3  C   UNL     1      -4.374   7.365 -16.179  1.00  0.00     0.054 C 
BRANCH   3   4
ATOM      4  C   UNL     1      -4.998   7.761 -14.886  1.00  0.00    -0.027 C 
ATOM      5  C   UNL     1      -6.214   7.518 -14.508  1.00  0.00    -0.027 C 
BRANCH   5   6
ATOM      6  C   UNL     1      -7.122   6.763 -15.425  1.00  0.00     0.054 C 
BRANCH   6   7
ATOM      7  C   UNL     1      -8.501   7.283 -15.289  1.00  0.00    -0.027 C 
ATOM      8  C   UNL     1      -8.974   8.179 -16.125  1.00  0.00    -0.031 C 
BRANCH   8   9
ATOM      9  C   UNL     1      -8.259   8.775 -17.255  1.00  0.00     0.027 C 
BRANCH   9  10
ATOM     10  C   UNL     1      -8.206  10.290 -17.171  1.00  0.00     0.004 C 
BRANCH  10  11
ATOM     11  C   UNL     1      -7.142  10.872 -18.059  1.00  0.00     0.000 C 
BRANCH  11  12
ATOM     12  C   UNL     1      -7.496  10.797 -19.523  1.00  0.00    -0.003 C 
ATOM     13  C   UNL     1      -6.308  10.953 -20.417  1.00  0.00     0.004 C 
ENDBRANCH  11  12
ENDBRANCH  10  11
ENDBRANCH   9  10
ENDBRANCH   8   9
ENDBRANCH   6   7
ENDBRANCH   5   6
ENDBRANCH   3   4
ENDBRANCH   1   3
BRANCH   2  14
ATOM     14  C   UNL     1      -5.126   7.271 -19.066  1.00  0.00     0.054 C 
BRANCH  14  15
ATOM     15  C   UNL     1      -4.645   7.342 -20.433  1.00  0.00    -0.027 C 
ATOM     16  C   UNL     1      -3.521   6.881 -20.842  1.00  0.00    -0.031 C 
BRANCH  16  17
ATOM     17  C   UNL     1      -2.545   6.224 -20.055  1.00  0.00     0.027 C 
BRANCH  17  18
ATOM     18  C   UNL     1      -1.203   6.055 -20.682  1.00  0.00     0.014 C 
BRANCH  18  19
ATOM     19  C   UNL     1      -1.216   5.526 -22.045  1.00  0.00     0.100 C 
BRANCH  19  20
ATOM     20  C   UNL     1      -0.150   5.875 -22.983  1.00  0.00     0.220 C 
ATOM     21  O   UNL     1      -0.109   6.848 -23.766  1.00  0.00    -0.275 OA
ATOM     22  N   UNL     1       1.023   5.020 -23.051  1.00  0.00    -0.351 N 
ATOM     23  H   UNL     1       1.019   4.202 -22.412  1.00  0.00     0.163 HD
BRANCH  22  24
ATOM     24  C   UNL     1       2.104   5.294 -23.940  1.00  0.00     0.168 C 
BRANCH  24  25
ATOM     25  C   UNL     1       2.247   4.207 -24.929  1.00  0.00     0.061 C 
ATOM     26  O   UNL     1       3.320   4.004 -25.541  1.00  0.00    -0.548 OA
ATOM     27  O   UNL     1       1.163   3.390 -25.187  1.00  0.00    -0.548 OA
ENDBRANCH  24  25
ENDBRANCH  22  24
ENDBRANCH  19  20
ENDBRANCH  18  19
ENDBRANCH  17  18
ENDBRANCH  16  17
ENDBRANCH  14  15
ENDBRANCH   2  14
TORSDOF 16
ENDMDL
MODEL 8
REMARK VINA RESULT:      -4.5      2.657      5.615
REMARK SMILES CCCCC/C=C\C/C=C\C/C=C\C/C=C\CCCC(=O)NCC(=O)[O-]
REMARK SMILES IDX 12 1 13 2 11 3 10 4 9 5 8 6 7 7 6 8 5 9 4 10 3 11 2 12 1 13
REMARK SMILES IDX 14 14 15 15 16 16 17 17 18 18 19 19 20 20 21 21 22 22 23 24
REMARK SMILES IDX 24 25 25 26 26 27
REMARK H PARENT 22 23
ROOT
ATOM      1  C   UNL     1      -2.411   6.681 -20.293  1.00  0.00    -0.027 C 
ATOM      2  C   UNL     1      -1.299   6.080 -20.573  1.00  0.00    -0.027 C 
ENDROOT
BRANCH   1   3
ATOM      3  C   UNL     1      -3.494   6.844 -21.276  1.00  0.00     0.054 C 
BRANCH   3   4
ATOM      4  C   UNL     1      -3.804   8.294 -21.414  1.00  0.00    -0.027 C 
ATOM      5  C   UNL     1      -4.635   8.978 -20.691  1.00  0.00    -0.027 C 
BRANCH   5   6
ATOM      6  C   UNL     1      -5.381   8.290 -19.594  1.00  0.00     0.054 C 
BRANCH   6   7
ATOM      7  C   UNL     1      -5.372   9.141 -18.383  1.00  0.00    -0.027 C 
ATOM      8  C   UNL     1      -4.705   8.785 -17.309  1.00  0.00    -0.031 C 
BRANCH   8   9
ATOM      9  C   UNL     1      -3.914   7.564 -17.143  1.00  0.00     0.027 C 
BRANCH   9  10
ATOM     10  C   UNL     1      -4.519   6.618 -16.121  1.00  0.00     0.004 C 
BRANCH  10  11
ATOM     11  C   UNL     1      -5.193   7.352 -14.997  1.00  0.00     0.000 C 
BRANCH  11  12
ATOM     12  C   UNL     1      -6.527   6.755 -14.624  1.00  0.00    -0.003 C 
ATOM     13  C   UNL     1      -7.626   7.160 -15.553  1.00  0.00     0.004 C 
ENDBRANCH  11  12
ENDBRANCH  10  11
ENDBRANCH   9  10
ENDBRANCH   8   9
ENDBRANCH   6   7
ENDBRANCH   5   6
ENDBRANCH   3   4
ENDBRANCH   1   3
BRANCH   2  14
ATOM     14  C   UNL     1      -0.913   5.465 -21.864  1.00  0.00     0.054 C 
BRANCH  14  15
ATOM     15  C   UNL     1       0.507   5.172 -21.856  1.00  0.00    -0.027 C 
ATOM     16  C   UNL     1       1.259   5.147 -22.894  1.00  0.00    -0.031 C 
BRANCH  16  17
ATOM     17  C   UNL     1       0.858   5.396 -24.229  1.00  0.00     0.027 C 
BRANCH  17  18
ATOM     18  C   UNL     1       1.104   6.774 -24.741  1.00  0.00     0.014 C 
BRANCH  18  19
ATOM     19  C   UNL     1       0.838   6.965 -26.165  1.00  0.00     0.100 C 
BRANCH  19  20
ATOM     20  C   UNL     1      -0.351   6.374 -26.780  1.00  0.00     0.220 C 
ATOM     21  O   UNL     1      -1.546   6.680 -26.583  1.00  0.00    -0.275 OA
ATOM     22  N   UNL     1      -0.173   5.299 -27.742  1.00  0.00    -0.351 N 
ATOM     23  H   UNL     1       0.809   5.021 -27.927  1.00  0.00     0.163 HD
BRANCH  22  24
ATOM     24  C   UNL     1      -1.282   4.673 -28.384  1.00  0.00     0.168 C 
BRANCH  24  25
ATOM     25  C   UNL     1      -1.014   4.500 -29.825  1.00  0.00     0.061 C 
ATOM     26  O   UNL     1      -0.961   5.474 -30.612  1.00  0.00    -0.548 OA
ATOM     27  O   UNL     1      -0.815   3.226 -30.322  1.00  0.00    -0.548 OA
ENDBRANCH  24  25
ENDBRANCH  22  24
ENDBRANCH  19  20
ENDBRANCH  18  19
ENDBRANCH  17  18
ENDBRANCH  16  17
ENDBRANCH  14  15
ENDBRANCH   2  14
TORSDOF 16
ENDMDL
MODEL 9
REMARK VINA RESULT:      -4.5      2.292      5.159
REMARK SMILES CCCCC/C=C\C/C=C\C/C=C\C/C=C\CCCC(=O)NCC(=O)[O-]
REMARK SMILES IDX 12 1 13 2 11 3 10 4 9 5 8 6 7 7 6 8 5 9 4 10 3 11 2 12 1 13
REMARK SMILES IDX 14 14 15 15 16 16 17 17 18 18 19 19 20 20 21 21 22 22 23 24
REMARK SMILES IDX 24 25 25 26 26 27
REMARK H PARENT 22 23
ROOT
ATOM      1  C   UNL     1      -3.813   7.972 -21.724  1.00  0.00    -0.027 C 
ATOM      2  C   UNL     1      -2.702   7.637 -22.298  1.00  0.00    -0.027 C 
ENDROOT
BRANCH   1   3
ATOM      3  C   UNL     1      -4.798   6.981 -21.262  1.00  0.00     0.054 C 
BRANCH   3   4
ATOM      4  C   UNL     1      -6.065   7.174 -22.022  1.00  0.00    -0.027 C 
ATOM      5  C   UNL     1      -7.157   7.711 -21.577  1.00  0.00    -0.027 C 
BRANCH   5   6
ATOM      6  C   UNL     1      -7.202   8.206 -20.167  1.00  0.00     0.054 C 
BRANCH   6   7
ATOM      7  C   UNL     1      -6.686   9.593 -20.115  1.00  0.00    -0.027 C 
ATOM      8  C   UNL     1      -5.986  10.019 -19.089  1.00  0.00    -0.031 C 
BRANCH   8   9
ATOM      9  C   UNL     1      -5.627   9.242 -17.901  1.00  0.00     0.027 C 
BRANCH   9  10
ATOM     10  C   UNL     1      -4.262   8.588 -18.030  1.00  0.00     0.004 C 
BRANCH  10  11
ATOM     11  C   UNL     1      -3.762   8.054 -16.718  1.00  0.00     0.000 C 
BRANCH  11  12
ATOM     12  C   UNL     1      -4.431   6.763 -16.317  1.00  0.00    -0.003 C 
ATOM     13  C   UNL     1      -5.340   6.919 -15.142  1.00  0.00     0.004 C 
ENDBRANCH  11  12
ENDBRANCH  10  11
ENDBRANCH   9  10
ENDBRANCH   8   9
ENDBRANCH   6   7
ENDBRANCH   5   6
ENDBRANCH   3   4
ENDBRANCH   1   3
BRANCH   2  14
ATOM     14  C   UNL     1      -2.220   6.267 -22.587  1.00  0.00     0.054 C 
BRANCH  14  15
ATOM     15  C   UNL     1      -2.380   5.985 -24.001  1.00  0.00    -0.027 C 
ATOM     16  C   UNL     1      -1.668   5.155 -24.671  1.00  0.00    -0.031 C 
BRANCH  16  17
ATOM     17  C   UNL     1      -0.606   4.364 -24.171  1.00  0.00     0.027 C 
BRANCH  17  18
ATOM     18  C   UNL     1       0.769   4.809 -24.537  1.00  0.00     0.014 C 
BRANCH  18  19
ATOM     19  C   UNL     1       1.594   5.264 -23.419  1.00  0.00     0.100 C 
BRANCH  19  20
ATOM     20  C   UNL     1       2.540   6.364 -23.599  1.00  0.00     0.220 C 
ATOM     21  O   UNL     1       3.712   6.442 -23.171  1.00  0.00    -0.275 OA
ATOM     22  N   UNL     1       2.116   7.529 -24.358  1.00  0.00    -0.351 N 
ATOM     23  H   UNL     1       1.146   7.494 -24.726  1.00  0.00     0.163 HD
BRANCH  22  24
ATOM     24  C   UNL     1       2.981   8.641 -24.576  1.00  0.00     0.168 C 
BRANCH  24  25
ATOM     25  C   UNL     1       3.111   8.918 -26.020  1.00  0.00     0.061 C 
ATOM     26  O   UNL     1       3.016   8.012 -26.881  1.00  0.00    -0.548 OA
ATOM     27  O   UNL     1       3.343  10.215 -26.435  1.00  0.00    -0.548 OA
ENDBRANCH  24  25
ENDBRANCH  22  24
ENDBRANCH  19  20
ENDBRANCH  18  19
ENDBRANCH  17  18
ENDBRANCH  16  17
ENDBRANCH  14  15
ENDBRANCH   2  14
TORSDOF 16
ENDMDL
