MODEL 1
REMARK VINA RESULT:      -4.6      0.000      0.000
REMARK SMILES Clc1ccccc1C(c1ccccc1)(c1ccccc1)n1ccnc1
REMARK SMILES IDX 1 1 2 2 3 3 4 4 5 5 6 6 7 7 8 8 9 9 10 10 14 11 11 12 13 13
REMARK SMILES IDX 12 14 15 15 16 16 20 17 17 18 19 19 18 20 21 21 22 22 25 23
REMARK SMILES IDX 23 24 24 25
REMARK H PARENT
ROOT
ATOM      1  Cl  UNL     1       4.085  23.722   3.155  1.00  0.00    -0.084 Cl
ATOM      2  C   UNL     1       2.930  23.029   4.271  1.00  0.00     0.047 A 
ATOM      3  C   UNL     1       2.152  23.819   5.087  1.00  0.00     0.021 A 
ATOM      4  C   UNL     1       1.218  23.278   5.943  1.00  0.00     0.002 A 
ATOM      5  C   UNL     1       1.079  21.912   5.965  1.00  0.00     0.001 A 
ATOM      6  C   UNL     1       1.871  21.109   5.134  1.00  0.00     0.008 A 
ATOM      7  C   UNL     1       2.792  21.650   4.292  1.00  0.00     0.006 A 
ENDROOT
BRANCH   7   8
ATOM      8  C   UNL     1       3.640  20.776   3.437  1.00  0.00     0.123 C 
BRANCH   8   9
ATOM      9  C   UNL     1       3.220  20.977   2.021  1.00  0.00    -0.013 A 
ATOM     10  C   UNL     1       2.102  21.625   1.609  1.00  0.00     0.007 A 
ATOM     11  C   UNL     1       4.102  20.442   1.063  1.00  0.00     0.007 A 
ATOM     12  C   UNL     1       1.849  21.748   0.255  1.00  0.00     0.000 A 
ATOM     13  C   UNL     1       3.844  20.570  -0.277  1.00  0.00     0.000 A 
ATOM     14  C   UNL     1       2.714  21.224  -0.706  1.00  0.00     0.000 A 
ENDBRANCH   8   9
BRANCH   8  15
ATOM     15  C   UNL     1       3.361  19.337   3.691  1.00  0.00    -0.013 A 
ATOM     16  C   UNL     1       2.420  18.619   3.002  1.00  0.00     0.007 A 
ATOM     17  C   UNL     1       4.098  18.686   4.647  1.00  0.00     0.007 A 
ATOM     18  C   UNL     1       2.196  17.269   3.245  1.00  0.00     0.000 A 
ATOM     19  C   UNL     1       3.890  17.322   4.911  1.00  0.00     0.000 A 
ATOM     20  C   UNL     1       2.943  16.632   4.207  1.00  0.00     0.000 A 
ENDBRANCH   8  15
BRANCH   8  21
ATOM     21  N   UNL     1       5.027  21.047   3.676  1.00  0.00    -0.319 N 
ATOM     22  C   UNL     1       5.604  21.242   4.894  1.00  0.00     0.109 A 
ATOM     23  C   UNL     1       5.999  21.136   2.769  1.00  0.00     0.200 A 
ATOM     24  C   UNL     1       6.953  21.455   4.723  1.00  0.00     0.131 A 
ATOM     25  N   UNL     1       7.169  21.385   3.414  1.00  0.00    -0.245 NA
ENDBRANCH   8  21
ENDBRANCH   7   8
TORSDOF 4
ENDMDL
MODEL 2
REMARK VINA RESULT:      -4.6      0.738      1.191
REMARK SMILES Clc1ccccc1C(c1ccccc1)(c1ccccc1)n1ccnc1
REMARK SMILES IDX 1 1 2 2 3 3 4 4 5 5 6 6 7 7 8 8 9 9 10 10 14 11 11 12 13 13
REMARK SMILES IDX 12 14 15 15 16 16 20 17 17 18 19 19 18 20 21 21 22 22 25 23
REMARK SMILES IDX 23 24 24 25
REMARK H PARENT
ROOT
ATOM      1  Cl  UNL     1       3.273  23.526   2.278  1.00  0.00    -0.084 Cl
ATOM      2  C   UNL     1       2.465  22.910   3.702  1.00  0.00     0.047 A 
ATOM      3  C   UNL     1       1.747  23.736   4.537  1.00  0.00     0.021 A 
ATOM      4  C   UNL     1       1.083  23.249   5.642  1.00  0.00     0.002 A 
ATOM      5  C   UNL     1       1.154  21.902   5.895  1.00  0.00     0.001 A 
ATOM      6  C   UNL     1       1.885  21.062   5.044  1.00  0.00     0.008 A 
ATOM      7  C   UNL     1       2.540  21.550   3.956  1.00  0.00     0.006 A 
ENDROOT
BRANCH   7   8
ATOM      8  C   UNL     1       3.332  20.643   3.081  1.00  0.00     0.123 C 
BRANCH   8   9
ATOM      9  C   UNL     1       2.729  20.683   1.719  1.00  0.00    -0.013 A 
ATOM     10  C   UNL     1       3.395  20.499   0.551  1.00  0.00     0.007 A 
ATOM     11  C   UNL     1       1.342  20.922   1.694  1.00  0.00     0.007 A 
ATOM     12  C   UNL     1       2.698  20.549  -0.643  1.00  0.00     0.000 A 
ATOM     13  C   UNL     1       0.659  20.969   0.506  1.00  0.00     0.000 A 
ATOM     14  C   UNL     1       1.323  20.784  -0.682  1.00  0.00     0.000 A 
ENDBRANCH   8   9
BRANCH   8  15
ATOM     15  C   UNL     1       3.179  19.223   3.497  1.00  0.00    -0.013 A 
ATOM     16  C   UNL     1       2.286  18.360   2.919  1.00  0.00     0.007 A 
ATOM     17  C   UNL     1       3.990  18.742   4.494  1.00  0.00     0.007 A 
ATOM     18  C   UNL     1       2.181  17.031   3.312  1.00  0.00     0.000 A 
ATOM     19  C   UNL     1       3.903  17.403   4.908  1.00  0.00     0.000 A 
ATOM     20  C   UNL     1       3.000  16.566   4.313  1.00  0.00     0.000 A 
ENDBRANCH   8  15
BRANCH   8  21
ATOM     21  N   UNL     1       4.717  21.009   3.115  1.00  0.00    -0.319 N 
ATOM     22  C   UNL     1       5.383  21.511   4.192  1.00  0.00     0.109 A 
ATOM     23  C   UNL     1       5.602  20.908   2.125  1.00  0.00     0.200 A 
ATOM     24  C   UNL     1       6.700  21.721   3.846  1.00  0.00     0.131 A 
ATOM     25  N   UNL     1       6.807  21.344   2.578  1.00  0.00    -0.245 NA
ENDBRANCH   8  21
ENDBRANCH   7   8
TORSDOF 4
ENDMDL
MODEL 3
REMARK VINA RESULT:      -4.5      6.506      9.060
REMARK SMILES Clc1ccccc1C(c1ccccc1)(c1ccccc1)n1ccnc1
REMARK SMILES IDX 1 1 2 2 3 3 4 4 5 5 6 6 7 7 8 8 9 9 10 10 14 11 11 12 13 13
REMARK SMILES IDX 12 14 15 15 16 16 20 17 17 18 19 19 18 20 21 21 22 22 25 23
REMARK SMILES IDX 23 24 24 25
REMARK H PARENT
ROOT
ATOM      1  Cl  UNL     1      -3.467  15.002  -2.154  1.00  0.00    -0.084 Cl
ATOM      2  C   UNL     1      -2.713  16.577  -2.249  1.00  0.00     0.047 A 
ATOM      3  C   UNL     1      -3.113  17.514  -3.174  1.00  0.00     0.021 A 
ATOM      4  C   UNL     1      -2.544  18.767  -3.231  1.00  0.00     0.002 A 
ATOM      5  C   UNL     1      -1.552  19.066  -2.329  1.00  0.00     0.001 A 
ATOM      6  C   UNL     1      -1.145  18.112  -1.387  1.00  0.00     0.008 A 
ATOM      7  C   UNL     1      -1.712  16.875  -1.338  1.00  0.00     0.006 A 
ENDROOT
BRANCH   7   8
ATOM      8  C   UNL     1      -1.246  15.869  -0.346  1.00  0.00     0.123 C 
BRANCH   8   9
ATOM      9  C   UNL     1      -2.385  15.568   0.567  1.00  0.00    -0.013 A 
ATOM     10  C   UNL     1      -2.818  14.330   0.913  1.00  0.00     0.007 A 
ATOM     11  C   UNL     1      -3.026  16.700   1.104  1.00  0.00     0.007 A 
ATOM     12  C   UNL     1      -3.883  14.203   1.788  1.00  0.00     0.000 A 
ATOM     13  C   UNL     1      -4.080  16.565   1.970  1.00  0.00     0.000 A 
ATOM     14  C   UNL     1      -4.527  15.316   2.327  1.00  0.00     0.000 A 
ENDBRANCH   8   9
BRANCH   8  15
ATOM     15  C   UNL     1      -0.208  16.440   0.555  1.00  0.00    -0.013 A 
ATOM     16  C   UNL     1       0.041  15.962   1.815  1.00  0.00     0.007 A 
ATOM     17  C   UNL     1       0.557  17.481   0.095  1.00  0.00     0.007 A 
ATOM     18  C   UNL     1       1.034  16.500   2.625  1.00  0.00     0.000 A 
ATOM     19  C   UNL     1       1.566  18.041   0.896  1.00  0.00     0.000 A 
ATOM     20  C   UNL     1       1.791  17.544   2.150  1.00  0.00     0.000 A 
ENDBRANCH   8  15
BRANCH   8  21
ATOM     21  N   UNL     1      -0.720  14.719  -1.019  1.00  0.00    -0.319 N 
ATOM     22  C   UNL     1      -0.044  14.725  -2.201  1.00  0.00     0.109 A 
ATOM     23  C   UNL     1      -0.773  13.451  -0.610  1.00  0.00     0.200 A 
ATOM     24  C   UNL     1       0.318  13.435  -2.517  1.00  0.00     0.131 A 
ATOM     25  N   UNL     1      -0.139  12.676  -1.528  1.00  0.00    -0.245 NA
ENDBRANCH   8  21
ENDBRANCH   7   8
TORSDOF 4
ENDMDL
MODEL 4
REMARK VINA RESULT:      -4.5      0.411      1.197
REMARK SMILES Clc1ccccc1C(c1ccccc1)(c1ccccc1)n1ccnc1
REMARK SMILES IDX 1 1 2 2 3 3 4 4 5 5 6 6 7 7 8 8 9 9 10 10 14 11 11 12 13 13
REMARK SMILES IDX 12 14 15 15 16 16 20 17 17 18 19 19 18 20 21 21 22 22 25 23
REMARK SMILES IDX 23 24 24 25
REMARK H PARENT
ROOT
ATOM      1  Cl  UNL     1       4.079  23.751   3.270  1.00  0.00    -0.084 Cl
ATOM      2  C   UNL     1       2.917  23.017   4.353  1.00  0.00     0.047 A 
ATOM      3  C   UNL     1       2.100  23.779   5.156  1.00  0.00     0.021 A 
ATOM      4  C   UNL     1       1.161  23.206   5.986  1.00  0.00     0.002 A 
ATOM      5  C   UNL     1       1.058  21.837   5.994  1.00  0.00     0.001 A 
ATOM      6  C   UNL     1       1.890  21.062   5.176  1.00  0.00     0.008 A 
ATOM      7  C   UNL     1       2.816  21.635   4.360  1.00  0.00     0.006 A 
ENDROOT
BRANCH   7   8
ATOM      8  C   UNL     1       3.707  20.791   3.518  1.00  0.00     0.123 C 
BRANCH   8   9
ATOM      9  C   UNL     1       3.346  21.028   2.092  1.00  0.00    -0.013 A 
ATOM     10  C   UNL     1       2.203  21.609   1.649  1.00  0.00     0.007 A 
ATOM     11  C   UNL     1       4.314  20.607   1.160  1.00  0.00     0.007 A 
ATOM     12  C   UNL     1       2.010  21.778   0.289  1.00  0.00     0.000 A 
ATOM     13  C   UNL     1       4.115  20.779  -0.185  1.00  0.00     0.000 A 
ATOM     14  C   UNL     1       2.961  21.366  -0.645  1.00  0.00     0.000 A 
ENDBRANCH   8   9
BRANCH   8  15
ATOM     15  C   UNL     1       3.430  19.344   3.721  1.00  0.00    -0.013 A 
ATOM     16  C   UNL     1       4.073  18.578   4.658  1.00  0.00     0.007 A 
ATOM     17  C   UNL     1       2.464  18.748   2.951  1.00  0.00     0.007 A 
ATOM     18  C   UNL     1       3.777  17.232   4.841  1.00  0.00     0.000 A 
ATOM     19  C   UNL     1       2.148  17.389   3.118  1.00  0.00     0.000 A 
ATOM     20  C   UNL     1       2.808  16.650   4.060  1.00  0.00     0.000 A 
ENDBRANCH   8  15
BRANCH   8  21
ATOM     21  N   UNL     1       5.080  21.066   3.823  1.00  0.00    -0.319 N 
ATOM     22  C   UNL     1       6.093  21.168   2.919  1.00  0.00     0.109 A 
ATOM     23  C   UNL     1       5.609  21.292   5.025  1.00  0.00     0.200 A 
ATOM     24  C   UNL     1       7.262  21.460   3.587  1.00  0.00     0.131 A 
ATOM     25  N   UNL     1       6.939  21.531   4.873  1.00  0.00    -0.245 NA
ENDBRANCH   8  21
ENDBRANCH   7   8
TORSDOF 4
ENDMDL
MODEL 5
REMARK VINA RESULT:      -4.4      1.762      4.588
REMARK SMILES Clc1ccccc1C(c1ccccc1)(c1ccccc1)n1ccnc1
REMARK SMILES IDX 1 1 2 2 3 3 4 4 5 5 6 6 7 7 8 8 9 9 10 10 14 11 11 12 13 13
REMARK SMILES IDX 12 14 15 15 16 16 20 17 17 18 19 19 18 20 21 21 22 22 25 23
REMARK SMILES IDX 23 24 24 25
REMARK H PARENT
ROOT
ATOM      1  Cl  UNL     1       5.074  20.288   4.541  1.00  0.00    -0.084 Cl
ATOM      2  C   UNL     1       3.995  18.962   4.169  1.00  0.00     0.047 A 
ATOM      3  C   UNL     1       4.092  17.751   4.816  1.00  0.00     0.021 A 
ATOM      4  C   UNL     1       3.223  16.715   4.549  1.00  0.00     0.002 A 
ATOM      5  C   UNL     1       2.244  16.921   3.608  1.00  0.00     0.001 A 
ATOM      6  C   UNL     1       2.147  18.154   2.951  1.00  0.00     0.008 A 
ATOM      7  C   UNL     1       3.009  19.172   3.219  1.00  0.00     0.006 A 
ENDROOT
BRANCH   7   8
ATOM      8  C   UNL     1       2.902  20.465   2.489  1.00  0.00     0.123 C 
BRANCH   8   9
ATOM      9  C   UNL     1       2.586  21.527   3.486  1.00  0.00    -0.013 A 
ATOM     10  C   UNL     1       3.015  22.812   3.439  1.00  0.00     0.007 A 
ATOM     11  C   UNL     1       1.754  21.114   4.544  1.00  0.00     0.007 A 
ATOM     12  C   UNL     1       2.627  23.695   4.431  1.00  0.00     0.000 A 
ATOM     13  C   UNL     1       1.374  21.995   5.523  1.00  0.00     0.000 A 
ATOM     14  C   UNL     1       1.803  23.300   5.485  1.00  0.00     0.000 A 
ENDBRANCH   8   9
BRANCH   8  15
ATOM     15  C   UNL     1       1.728  20.473   1.575  1.00  0.00    -0.013 A 
ATOM     16  C   UNL     1       1.457  19.465   0.688  1.00  0.00     0.007 A 
ATOM     17  C   UNL     1       0.857  21.531   1.638  1.00  0.00     0.007 A 
ATOM     18  C   UNL     1       0.339  19.489  -0.138  1.00  0.00     0.000 A 
ATOM     19  C   UNL     1      -0.279  21.577   0.813  1.00  0.00     0.000 A 
ATOM     20  C   UNL     1      -0.523  20.556  -0.064  1.00  0.00     0.000 A 
ENDBRANCH   8  15
BRANCH   8  21
ATOM     21  N   UNL     1       4.098  20.709   1.739  1.00  0.00    -0.319 N 
ATOM     22  C   UNL     1       4.811  19.777   1.048  1.00  0.00     0.109 A 
ATOM     23  C   UNL     1       4.714  21.877   1.562  1.00  0.00     0.200 A 
ATOM     24  C   UNL     1       5.883  20.391   0.440  1.00  0.00     0.131 A 
ATOM     25  N   UNL     1       5.801  21.675   0.770  1.00  0.00    -0.245 NA
ENDBRANCH   8  21
ENDBRANCH   7   8
TORSDOF 4
ENDMDL
MODEL 6
REMARK VINA RESULT:      -4.4      1.398      4.513
REMARK SMILES Clc1ccccc1C(c1ccccc1)(c1ccccc1)n1ccnc1
REMARK SMILES IDX 1 1 2 2 3 3 4 4 5 5 6 6 7 7 8 8 9 9 10 10 14 11 11 12 13 13
REMARK SMILES IDX 12 14 15 15 16 16 20 17 17 18 19 19 18 20 21 21 22 22 25 23
REMARK SMILES IDX 23 24 24 25
REMARK H PARENT
ROOT
ATOM      1  Cl  UNL     1       4.329  19.293   0.707  1.00  0.00    -0.084 Cl
ATOM      2  C   UNL     1       2.812  20.163   0.676  1.00  0.00     0.047 A 
ATOM      3  C   UNL     1       2.022  20.195  -0.450  1.00  0.00     0.021 A 
ATOM      4  C   UNL     1       0.811  20.852  -0.468  1.00  0.00     0.002 A 
ATOM      5  C   UNL     1       0.404  21.485   0.680  1.00  0.00     0.001 A 
ATOM      6  C   UNL     1       1.210  21.453   1.826  1.00  0.00     0.008 A 
ATOM      7  C   UNL     1       2.405  20.803   1.836  1.00  0.00     0.006 A 
ENDROOT
BRANCH   7   8
ATOM      8  C   UNL     1       3.255  20.804   3.057  1.00  0.00     0.123 C 
BRANCH   8   9
ATOM      9  C   UNL     1       3.296  19.410   3.585  1.00  0.00    -0.013 A 
ATOM     10  C   UNL     1       4.149  18.945   4.532  1.00  0.00     0.007 A 
ATOM     11  C   UNL     1       2.336  18.541   3.033  1.00  0.00     0.007 A 
ATOM     12  C   UNL     1       4.060  17.625   4.937  1.00  0.00     0.000 A 
ATOM     13  C   UNL     1       2.254  17.235   3.441  1.00  0.00     0.000 A 
ATOM     14  C   UNL     1       3.114  16.754   4.399  1.00  0.00     0.000 A 
ENDBRANCH   8   9
BRANCH   8  15
ATOM     15  C   UNL     1       2.623  21.583   4.155  1.00  0.00    -0.013 A 
ATOM     16  C   UNL     1       2.788  22.934   4.312  1.00  0.00     0.007 A 
ATOM     17  C   UNL     1       1.812  20.923   5.044  1.00  0.00     0.007 A 
ATOM     18  C   UNL     1       2.166  23.640   5.334  1.00  0.00     0.000 A 
ATOM     19  C   UNL     1       1.173  21.616   6.086  1.00  0.00     0.000 A 
ATOM     20  C   UNL     1       1.358  22.964   6.217  1.00  0.00     0.000 A 
ENDBRANCH   8  15
BRANCH   8  21
ATOM     21  N   UNL     1       4.546  21.350   2.760  1.00  0.00    -0.319 N 
ATOM     22  C   UNL     1       5.726  20.961   3.318  1.00  0.00     0.109 A 
ATOM     23  C   UNL     1       4.832  22.310   1.880  1.00  0.00     0.200 A 
ATOM     24  C   UNL     1       6.748  21.701   2.767  1.00  0.00     0.131 A 
ATOM     25  N   UNL     1       6.175  22.518   1.891  1.00  0.00    -0.245 NA
ENDBRANCH   8  21
ENDBRANCH   7   8
TORSDOF 4
ENDMDL
MODEL 7
REMARK VINA RESULT:      -4.4      2.001      4.202
REMARK SMILES Clc1ccccc1C(c1ccccc1)(c1ccccc1)n1ccnc1
REMARK SMILES IDX 1 1 2 2 3 3 4 4 5 5 6 6 7 7 8 8 9 9 10 10 14 11 11 12 13 13
REMARK SMILES IDX 12 14 15 15 16 16 20 17 17 18 19 19 18 20 21 21 22 22 25 23
REMARK SMILES IDX 23 24 24 25
REMARK H PARENT
ROOT
ATOM      1  Cl  UNL     1       4.646  19.188   0.781  1.00  0.00    -0.084 Cl
ATOM      2  C   UNL     1       4.943  20.761   1.488  1.00  0.00     0.047 A 
ATOM      3  C   UNL     1       6.037  21.516   1.133  1.00  0.00     0.021 A 
ATOM      4  C   UNL     1       6.257  22.768   1.664  1.00  0.00     0.002 A 
ATOM      5  C   UNL     1       5.346  23.254   2.568  1.00  0.00     0.001 A 
ATOM      6  C   UNL     1       4.232  22.485   2.929  1.00  0.00     0.008 A 
ATOM      7  C   UNL     1       4.022  21.248   2.402  1.00  0.00     0.006 A 
ENDROOT
BRANCH   7   8
ATOM      8  C   UNL     1       2.845  20.438   2.819  1.00  0.00     0.123 C 
BRANCH   8   9
ATOM      9  C   UNL     1       2.036  20.149   1.601  1.00  0.00    -0.013 A 
ATOM     10  C   UNL     1       1.470  18.956   1.290  1.00  0.00     0.007 A 
ATOM     11  C   UNL     1       1.859  21.246   0.736  1.00  0.00     0.007 A 
ATOM     12  C   UNL     1       0.729  18.839   0.127  1.00  0.00     0.000 A 
ATOM     13  C   UNL     1       1.122  21.121  -0.413  1.00  0.00     0.000 A 
ATOM     14  C   UNL     1       0.545  19.917  -0.739  1.00  0.00     0.000 A 
ENDBRANCH   8   9
BRANCH   8  15
ATOM     15  C   UNL     1       1.924  21.228   3.680  1.00  0.00    -0.013 A 
ATOM     16  C   UNL     1       1.011  22.121   3.186  1.00  0.00     0.007 A 
ATOM     17  C   UNL     1       1.972  21.037   5.038  1.00  0.00     0.007 A 
ATOM     18  C   UNL     1       0.147  22.829   4.013  1.00  0.00     0.000 A 
ATOM     19  C   UNL     1       1.109  21.740   5.894  1.00  0.00     0.000 A 
ATOM     20  C   UNL     1       0.208  22.626   5.371  1.00  0.00     0.000 A 
ENDBRANCH   8  15
BRANCH   8  21
ATOM     21  N   UNL     1       3.276  19.267   3.522  1.00  0.00    -0.319 N 
ATOM     22  C   UNL     1       2.691  18.038   3.460  1.00  0.00     0.109 A 
ATOM     23  C   UNL     1       4.325  19.155   4.336  1.00  0.00     0.200 A 
ATOM     24  C   UNL     1       3.399  17.164   4.255  1.00  0.00     0.131 A 
ATOM     25  N   UNL     1       4.393  17.872   4.779  1.00  0.00    -0.245 NA
ENDBRANCH   8  21
ENDBRANCH   7   8
TORSDOF 4
ENDMDL
MODEL 8
REMARK VINA RESULT:      -4.4      2.106      4.442
REMARK SMILES Clc1ccccc1C(c1ccccc1)(c1ccccc1)n1ccnc1
REMARK SMILES IDX 1 1 2 2 3 3 4 4 5 5 6 6 7 7 8 8 9 9 10 10 14 11 11 12 13 13
REMARK SMILES IDX 12 14 15 15 16 16 20 17 17 18 19 19 18 20 21 21 22 22 25 23
REMARK SMILES IDX 23 24 24 25
REMARK H PARENT
ROOT
ATOM      1  Cl  UNL     1       4.752  19.237   0.886  1.00  0.00    -0.084 Cl
ATOM      2  C   UNL     1       5.072  20.678   1.824  1.00  0.00     0.047 A 
ATOM      3  C   UNL     1       6.294  21.309   1.783  1.00  0.00     0.021 A 
ATOM      4  C   UNL     1       6.539  22.462   2.496  1.00  0.00     0.002 A 
ATOM      5  C   UNL     1       5.521  22.976   3.260  1.00  0.00     0.001 A 
ATOM      6  C   UNL     1       4.277  22.333   3.302  1.00  0.00     0.008 A 
ATOM      7  C   UNL     1       4.043  21.194   2.596  1.00  0.00     0.006 A 
ENDROOT
BRANCH   7   8
ATOM      8  C   UNL     1       2.721  20.514   2.675  1.00  0.00     0.123 C 
BRANCH   8   9
ATOM      9  C   UNL     1       1.879  21.267   3.647  1.00  0.00    -0.013 A 
ATOM     10  C   UNL     1       1.937  21.159   4.998  1.00  0.00     0.007 A 
ATOM     11  C   UNL     1       0.969  22.169   3.064  1.00  0.00     0.007 A 
ATOM     12  C   UNL     1       1.100  21.937   5.779  1.00  0.00     0.000 A 
ATOM     13  C   UNL     1       0.144  22.937   3.845  1.00  0.00     0.000 A 
ATOM     14  C   UNL     1       0.194  22.835   5.215  1.00  0.00     0.000 A 
ENDBRANCH   8   9
BRANCH   8  15
ATOM     15  C   UNL     1       2.845  19.162   3.283  1.00  0.00    -0.013 A 
ATOM     16  C   UNL     1       2.060  18.099   2.921  1.00  0.00     0.007 A 
ATOM     17  C   UNL     1       3.809  18.959   4.237  1.00  0.00     0.007 A 
ATOM     18  C   UNL     1       2.214  16.840   3.489  1.00  0.00     0.000 A 
ATOM     19  C   UNL     1       3.982  17.695   4.826  1.00  0.00     0.000 A 
ATOM     20  C   UNL     1       3.183  16.653   4.445  1.00  0.00     0.000 A 
ENDBRANCH   8  15
BRANCH   8  21
ATOM     21  N   UNL     1       2.143  20.404   1.369  1.00  0.00    -0.319 N 
ATOM     22  C   UNL     1       1.369  19.377   0.922  1.00  0.00     0.109 A 
ATOM     23  C   UNL     1       2.235  21.282   0.370  1.00  0.00     0.200 A 
ATOM     24  C   UNL     1       0.984  19.636  -0.375  1.00  0.00     0.131 A 
ATOM     25  N   UNL     1       1.527  20.807  -0.688  1.00  0.00    -0.245 NA
ENDBRANCH   8  21
ENDBRANCH   7   8
TORSDOF 4
ENDMDL
MODEL 9
REMARK VINA RESULT:      -4.4      2.097      4.563
REMARK SMILES Clc1ccccc1C(c1ccccc1)(c1ccccc1)n1ccnc1
REMARK SMILES IDX 1 1 2 2 3 3 4 4 5 5 6 6 7 7 8 8 9 9 10 10 14 11 11 12 13 13
REMARK SMILES IDX 12 14 15 15 16 16 20 17 17 18 19 19 18 20 21 21 22 22 25 23
REMARK SMILES IDX 23 24 24 25
REMARK H PARENT
ROOT
ATOM      1  Cl  UNL     1       4.721  19.299   0.910  1.00  0.00    -0.084 Cl
ATOM      2  C   UNL     1       4.999  20.782   1.796  1.00  0.00     0.047 A 
ATOM      3  C   UNL     1       6.189  21.465   1.703  1.00  0.00     0.021 A 
ATOM      4  C   UNL     1       6.400  22.651   2.373  1.00  0.00     0.002 A 
ATOM      5  C   UNL     1       5.379  23.141   3.150  1.00  0.00     0.001 A 
ATOM      6  C   UNL     1       4.167  22.444   3.244  1.00  0.00     0.008 A 
ATOM      7  C   UNL     1       3.967  21.274   2.580  1.00  0.00     0.006 A 
ENDROOT
BRANCH   7   8
ATOM      8  C   UNL     1       2.681  20.538   2.716  1.00  0.00     0.123 C 
BRANCH   8   9
ATOM      9  C   UNL     1       1.846  21.262   3.716  1.00  0.00    -0.013 A 
ATOM     10  C   UNL     1       1.901  21.101   5.062  1.00  0.00     0.007 A 
ATOM     11  C   UNL     1       0.944  22.194   3.168  1.00  0.00     0.007 A 
ATOM     12  C   UNL     1       1.072  21.857   5.871  1.00  0.00     0.000 A 
ATOM     13  C   UNL     1       0.127  22.939   3.977  1.00  0.00     0.000 A 
ATOM     14  C   UNL     1       0.175  22.784   5.341  1.00  0.00     0.000 A 
ENDBRANCH   8   9
BRANCH   8  15
ATOM     15  C   UNL     1       2.888  19.198   3.327  1.00  0.00    -0.013 A 
ATOM     16  C   UNL     1       3.848  18.938   4.268  1.00  0.00     0.007 A 
ATOM     17  C   UNL     1       2.060  18.171   2.948  1.00  0.00     0.007 A 
ATOM     18  C   UNL     1       4.003  17.681   4.839  1.00  0.00     0.000 A 
ATOM     19  C   UNL     1       2.198  16.891   3.511  1.00  0.00     0.000 A 
ATOM     20  C   UNL     1       3.167  16.663   4.448  1.00  0.00     0.000 A 
ENDBRANCH   8  15
BRANCH   8  21
ATOM     21  N   UNL     1       2.058  20.393   1.434  1.00  0.00    -0.319 N 
ATOM     22  C   UNL     1       2.061  21.319   0.435  1.00  0.00     0.109 A 
ATOM     23  C   UNL     1       1.389  19.335   0.978  1.00  0.00     0.200 A 
ATOM     24  C   UNL     1       1.378  20.813  -0.648  1.00  0.00     0.131 A 
ATOM     25  N   UNL     1       0.978  19.598  -0.291  1.00  0.00    -0.245 NA
ENDBRANCH   8  21
ENDBRANCH   7   8
TORSDOF 4
ENDMDL
