MODEL 1
REMARK VINA RESULT:      -8.5      0.000      0.000
REMARK SMILES O=c1cc(-c2ccccc2)oc2cc(O)cc(O)c12
REMARK SMILES IDX 1 1 2 2 3 3 4 4 11 5 12 6 13 7 14 8 16 9 17 10 19 11 5 12
REMARK SMILES IDX 6 13 10 14 7 15 9 16 8 17 18 18 15 20
REMARK H PARENT 18 19 15 21
ROOT
ATOM      1  O   UNL     1      85.557  50.191  61.170  1.00  0.00    -0.289 OA
ATOM      2  C   UNL     1      84.649  50.587  60.397  1.00  0.00     0.197 A 
ATOM      3  C   UNL     1      84.693  50.377  59.011  1.00  0.00     0.100 A 
ATOM      4  C   UNL     1      83.688  50.818  58.184  1.00  0.00     0.138 A 
ATOM      5  O   UNL     1      82.688  51.445  58.756  1.00  0.00    -0.456 OA
ATOM      6  C   UNL     1      82.590  51.671  60.043  1.00  0.00     0.146 A 
ATOM      7  C   UNL     1      81.503  52.342  60.589  1.00  0.00     0.094 A 
ATOM      8  C   UNL     1      81.369  52.596  61.932  1.00  0.00     0.123 A 
ATOM      9  C   UNL     1      82.354  52.171  62.795  1.00  0.00     0.093 A 
ATOM     10  C   UNL     1      83.449  51.501  62.293  1.00  0.00     0.134 A 
ATOM     11  C   UNL     1      83.567  51.253  60.921  1.00  0.00     0.107 A 
ENDROOT
BRANCH   4  12
ATOM     12  C   UNL     1      83.725  50.603  56.734  1.00  0.00     0.017 A 
ATOM     13  C   UNL     1      84.662  49.833  56.097  1.00  0.00     0.012 A 
ATOM     14  C   UNL     1      82.764  51.205  55.941  1.00  0.00     0.012 A 
ATOM     15  C   UNL     1      84.657  49.657  54.711  1.00  0.00     0.001 A 
ATOM     16  C   UNL     1      82.734  51.048  54.564  1.00  0.00     0.001 A 
ATOM     17  C   UNL     1      83.692  50.264  53.936  1.00  0.00     0.000 A 
ENDBRANCH   4  12
BRANCH  10  18
ATOM     18  O   UNL     1      84.431  51.077  63.156  1.00  0.00    -0.507 OA
ATOM     19  H   UNL     1      85.167  51.700  63.435  1.00  0.00     0.293 HD
ENDBRANCH  10  18
BRANCH   8  20
ATOM     20  O   UNL     1      80.257  53.275  62.436  1.00  0.00    -0.508 OA
ATOM     21  H   UNL     1      80.333  54.075  63.048  1.00  0.00     0.293 HD
ENDBRANCH   8  20
TORSDOF 3
ENDMDL
MODEL 2
REMARK VINA RESULT:      -8.5      0.101      1.087
REMARK SMILES O=c1cc(-c2ccccc2)oc2cc(O)cc(O)c12
REMARK SMILES IDX 1 1 2 2 3 3 4 4 11 5 12 6 13 7 14 8 16 9 17 10 19 11 5 12
REMARK SMILES IDX 6 13 10 14 7 15 9 16 8 17 18 18 15 20
REMARK H PARENT 18 19 15 21
ROOT
ATOM      1  O   UNL     1      85.532  50.209  61.212  1.00  0.00    -0.289 OA
ATOM      2  C   UNL     1      84.619  50.608  60.446  1.00  0.00     0.197 A 
ATOM      3  C   UNL     1      84.653  50.403  59.059  1.00  0.00     0.100 A 
ATOM      4  C   UNL     1      83.643  50.849  58.241  1.00  0.00     0.138 A 
ATOM      5  O   UNL     1      82.648  51.476  58.822  1.00  0.00    -0.456 OA
ATOM      6  C   UNL     1      82.560  51.698  60.110  1.00  0.00     0.146 A 
ATOM      7  C   UNL     1      81.478  52.369  60.666  1.00  0.00     0.094 A 
ATOM      8  C   UNL     1      81.354  52.618  62.011  1.00  0.00     0.123 A 
ATOM      9  C   UNL     1      82.344  52.188  62.866  1.00  0.00     0.093 A 
ATOM     10  C   UNL     1      83.434  51.519  62.354  1.00  0.00     0.134 A 
ATOM     11  C   UNL     1      83.542  51.275  60.980  1.00  0.00     0.107 A 
ENDROOT
BRANCH   4  12
ATOM     12  C   UNL     1      83.669  50.639  56.790  1.00  0.00     0.017 A 
ATOM     13  C   UNL     1      82.773  51.198  55.918  1.00  0.00     0.012 A 
ATOM     14  C   UNL     1      84.652  49.832  56.246  1.00  0.00     0.012 A 
ATOM     15  C   UNL     1      82.838  50.969  54.542  1.00  0.00     0.001 A 
ATOM     16  C   UNL     1      84.742  49.587  54.884  1.00  0.00     0.001 A 
ATOM     17  C   UNL     1      83.824  50.162  54.016  1.00  0.00     0.000 A 
ENDBRANCH   4  12
BRANCH  10  18
ATOM     18  O   UNL     1      84.421  51.090  63.209  1.00  0.00    -0.507 OA
ATOM     19  H   UNL     1      84.640  50.113  63.284  1.00  0.00     0.293 HD
ENDBRANCH  10  18
BRANCH   8  20
ATOM     20  O   UNL     1      80.247  53.298  62.525  1.00  0.00    -0.508 OA
ATOM     21  H   UNL     1      79.421  53.496  61.978  1.00  0.00     0.293 HD
ENDBRANCH   8  20
TORSDOF 3
ENDMDL
MODEL 3
REMARK VINA RESULT:      -8.2      1.157      2.704
REMARK SMILES O=c1cc(-c2ccccc2)oc2cc(O)cc(O)c12
REMARK SMILES IDX 1 1 2 2 3 3 4 4 11 5 12 6 13 7 14 8 16 9 17 10 19 11 5 12
REMARK SMILES IDX 6 13 10 14 7 15 9 16 8 17 18 18 15 20
REMARK H PARENT 18 19 15 21
ROOT
ATOM      1  O   UNL     1      80.660  52.006  60.486  1.00  0.00    -0.289 OA
ATOM      2  C   UNL     1      81.757  51.532  60.097  1.00  0.00     0.197 A 
ATOM      3  C   UNL     1      82.035  51.281  58.745  1.00  0.00     0.100 A 
ATOM      4  C   UNL     1      83.243  50.763  58.343  1.00  0.00     0.138 A 
ATOM      5  O   UNL     1      84.120  50.515  59.286  1.00  0.00    -0.456 OA
ATOM      6  C   UNL     1      83.920  50.728  60.563  1.00  0.00     0.146 A 
ATOM      7  C   UNL     1      84.892  50.444  61.515  1.00  0.00     0.094 A 
ATOM      8  C   UNL     1      84.715  50.656  62.861  1.00  0.00     0.123 A 
ATOM      9  C   UNL     1      83.519  51.174  63.306  1.00  0.00     0.093 A 
ATOM     10  C   UNL     1      82.530  51.468  62.393  1.00  0.00     0.134 A 
ATOM     11  C   UNL     1      82.729  51.246  61.026  1.00  0.00     0.107 A 
ENDROOT
BRANCH   4  12
ATOM     12  C   UNL     1      83.542  50.496  56.933  1.00  0.00     0.017 A 
ATOM     13  C   UNL     1      84.591  49.727  56.504  1.00  0.00     0.012 A 
ATOM     14  C   UNL     1      82.728  51.044  55.958  1.00  0.00     0.012 A 
ATOM     15  C   UNL     1      84.837  49.500  55.148  1.00  0.00     0.001 A 
ATOM     16  C   UNL     1      82.946  50.837  54.605  1.00  0.00     0.001 A 
ATOM     17  C   UNL     1      84.015  50.054  54.189  1.00  0.00     0.000 A 
ENDBRANCH   4  12
BRANCH  10  18
ATOM     18  O   UNL     1      81.337  51.986  62.839  1.00  0.00    -0.507 OA
ATOM     19  H   UNL     1      80.469  51.535  62.611  1.00  0.00     0.293 HD
ENDBRANCH  10  18
BRANCH   8  20
ATOM     20  O   UNL     1      85.721  50.354  63.782  1.00  0.00    -0.508 OA
ATOM     21  H   UNL     1      86.564  49.857  63.532  1.00  0.00     0.293 HD
ENDBRANCH   8  20
TORSDOF 3
ENDMDL
MODEL 4
REMARK VINA RESULT:      -8.2      1.170      2.911
REMARK SMILES O=c1cc(-c2ccccc2)oc2cc(O)cc(O)c12
REMARK SMILES IDX 1 1 2 2 3 3 4 4 11 5 12 6 13 7 14 8 16 9 17 10 19 11 5 12
REMARK SMILES IDX 6 13 10 14 7 15 9 16 8 17 18 18 15 20
REMARK H PARENT 18 19 15 21
ROOT
ATOM      1  O   UNL     1      80.640  52.029  60.499  1.00  0.00    -0.289 OA
ATOM      2  C   UNL     1      81.734  51.559  60.096  1.00  0.00     0.197 A 
ATOM      3  C   UNL     1      81.996  51.311  58.741  1.00  0.00     0.100 A 
ATOM      4  C   UNL     1      83.200  50.797  58.323  1.00  0.00     0.138 A 
ATOM      5  O   UNL     1      84.089  50.549  59.255  1.00  0.00    -0.456 OA
ATOM      6  C   UNL     1      83.904  50.760  60.535  1.00  0.00     0.146 A 
ATOM      7  C   UNL     1      84.888  50.476  61.474  1.00  0.00     0.094 A 
ATOM      8  C   UNL     1      84.726  50.685  62.823  1.00  0.00     0.123 A 
ATOM      9  C   UNL     1      83.535  51.199  63.283  1.00  0.00     0.093 A 
ATOM     10  C   UNL     1      82.534  51.493  62.383  1.00  0.00     0.134 A 
ATOM     11  C   UNL     1      82.718  51.273  61.013  1.00  0.00     0.107 A 
ENDROOT
BRANCH   4  12
ATOM     12  C   UNL     1      83.483  50.534  56.909  1.00  0.00     0.017 A 
ATOM     13  C   UNL     1      82.733  51.023  55.873  1.00  0.00     0.012 A 
ATOM     14  C   UNL     1      84.571  49.746  56.576  1.00  0.00     0.012 A 
ATOM     15  C   UNL     1      83.041  50.746  54.539  1.00  0.00     0.001 A 
ATOM     16  C   UNL     1      84.902  49.454  55.263  1.00  0.00     0.001 A 
ATOM     17  C   UNL     1      84.129  49.959  54.226  1.00  0.00     0.000 A 
ENDBRANCH   4  12
BRANCH  10  18
ATOM     18  O   UNL     1      81.345  52.006  62.844  1.00  0.00    -0.507 OA
ATOM     19  H   UNL     1      80.534  51.420  62.923  1.00  0.00     0.293 HD
ENDBRANCH  10  18
BRANCH   8  20
ATOM     20  O   UNL     1      85.744  50.385  63.731  1.00  0.00    -0.508 OA
ATOM     21  H   UNL     1      86.493  49.740  63.523  1.00  0.00     0.293 HD
ENDBRANCH   8  20
TORSDOF 3
ENDMDL
MODEL 5
REMARK VINA RESULT:      -8.1      1.618      1.978
REMARK SMILES O=c1cc(-c2ccccc2)oc2cc(O)cc(O)c12
REMARK SMILES IDX 1 1 2 2 3 3 4 4 11 5 12 6 13 7 14 8 16 9 17 10 19 11 5 12
REMARK SMILES IDX 6 13 10 14 7 15 9 16 8 17 18 18 15 20
REMARK H PARENT 18 19 15 21
ROOT
ATOM      1  O   UNL     1      82.929  49.760  61.400  1.00  0.00    -0.289 OA
ATOM      2  C   UNL     1      83.054  50.598  60.472  1.00  0.00     0.197 A 
ATOM      3  C   UNL     1      83.236  50.220  59.133  1.00  0.00     0.100 A 
ATOM      4  C   UNL     1      83.371  51.154  58.134  1.00  0.00     0.138 A 
ATOM      5  O   UNL     1      83.322  52.414  58.495  1.00  0.00    -0.456 OA
ATOM      6  C   UNL     1      83.154  52.829  59.727  1.00  0.00     0.146 A 
ATOM      7  C   UNL     1      83.110  54.181  60.046  1.00  0.00     0.094 A 
ATOM      8  C   UNL     1      82.935  54.649  61.325  1.00  0.00     0.123 A 
ATOM      9  C   UNL     1      82.796  53.746  62.356  1.00  0.00     0.093 A 
ATOM     10  C   UNL     1      82.834  52.397  62.081  1.00  0.00     0.134 A 
ATOM     11  C   UNL     1      83.013  51.939  60.770  1.00  0.00     0.107 A 
ENDROOT
BRANCH   4  12
ATOM     12  C   UNL     1      83.562  50.769  56.733  1.00  0.00     0.017 A 
ATOM     13  C   UNL     1      82.767  51.200  55.704  1.00  0.00     0.012 A 
ATOM     14  C   UNL     1      84.605  49.920  56.405  1.00  0.00     0.012 A 
ATOM     15  C   UNL     1      82.988  50.807  54.382  1.00  0.00     0.001 A 
ATOM     16  C   UNL     1      84.849  49.512  55.103  1.00  0.00     0.001 A 
ATOM     17  C   UNL     1      84.032  49.960  54.073  1.00  0.00     0.000 A 
ENDBRANCH   4  12
BRANCH  10  18
ATOM     18  O   UNL     1      82.695  51.497  63.111  1.00  0.00    -0.507 OA
ATOM     19  H   UNL     1      81.813  51.047  63.277  1.00  0.00     0.293 HD
ENDBRANCH  10  18
BRANCH   8  20
ATOM     20  O   UNL     1      82.898  56.019  61.599  1.00  0.00    -0.508 OA
ATOM     21  H   UNL     1      82.386  56.678  61.031  1.00  0.00     0.293 HD
ENDBRANCH   8  20
TORSDOF 3
ENDMDL
MODEL 6
REMARK VINA RESULT:      -8.1      1.604      1.654
REMARK SMILES O=c1cc(-c2ccccc2)oc2cc(O)cc(O)c12
REMARK SMILES IDX 1 1 2 2 3 3 4 4 11 5 12 6 13 7 14 8 16 9 17 10 19 11 5 12
REMARK SMILES IDX 6 13 10 14 7 15 9 16 8 17 18 18 15 20
REMARK H PARENT 18 19 15 21
ROOT
ATOM      1  O   UNL     1      82.870  49.728  61.403  1.00  0.00    -0.289 OA
ATOM      2  C   UNL     1      83.021  50.562  60.475  1.00  0.00     0.197 A 
ATOM      3  C   UNL     1      83.235  50.178  59.143  1.00  0.00     0.100 A 
ATOM      4  C   UNL     1      83.397  51.108  58.144  1.00  0.00     0.138 A 
ATOM      5  O   UNL     1      83.343  52.369  58.500  1.00  0.00    -0.456 OA
ATOM      6  C   UNL     1      83.146  52.789  59.725  1.00  0.00     0.146 A 
ATOM      7  C   UNL     1      83.099  54.142  60.038  1.00  0.00     0.094 A 
ATOM      8  C   UNL     1      82.894  54.616  61.311  1.00  0.00     0.123 A 
ATOM      9  C   UNL     1      82.727  53.718  62.341  1.00  0.00     0.093 A 
ATOM     10  C   UNL     1      82.768  52.367  62.072  1.00  0.00     0.134 A 
ATOM     11  C   UNL     1      82.977  51.904  60.768  1.00  0.00     0.107 A 
ENDROOT
BRANCH   4  12
ATOM     12  C   UNL     1      83.621  50.717  56.749  1.00  0.00     0.017 A 
ATOM     13  C   UNL     1      84.631  49.888  56.338  1.00  0.00     0.012 A 
ATOM     14  C   UNL     1      82.772  51.203  55.771  1.00  0.00     0.012 A 
ATOM     15  C   UNL     1      84.805  49.543  54.996  1.00  0.00     0.001 A 
ATOM     16  C   UNL     1      82.920  50.878  54.431  1.00  0.00     0.001 A 
ATOM     17  C   UNL     1      83.950  50.036  54.034  1.00  0.00     0.000 A 
ENDBRANCH   4  12
BRANCH  10  18
ATOM     18  O   UNL     1      82.600  51.472  63.102  1.00  0.00    -0.507 OA
ATOM     19  H   UNL     1      81.723  51.413  63.587  1.00  0.00     0.293 HD
ENDBRANCH  10  18
BRANCH   8  20
ATOM     20  O   UNL     1      82.855  55.987  61.578  1.00  0.00    -0.508 OA
ATOM     21  H   UNL     1      82.085  56.431  62.058  1.00  0.00     0.293 HD
ENDBRANCH   8  20
TORSDOF 3
ENDMDL
MODEL 7
REMARK VINA RESULT:      -7.9      1.717      2.660
REMARK SMILES O=c1cc(-c2ccccc2)oc2cc(O)cc(O)c12
REMARK SMILES IDX 1 1 2 2 3 3 4 4 11 5 12 6 13 7 14 8 16 9 17 10 19 11 5 12
REMARK SMILES IDX 6 13 10 14 7 15 9 16 8 17 18 18 15 20
REMARK H PARENT 18 19 15 21
ROOT
ATOM      1  O   UNL     1      83.270  55.182  59.288  1.00  0.00    -0.289 OA
ATOM      2  C   UNL     1      83.212  53.927  59.250  1.00  0.00     0.197 A 
ATOM      3  C   UNL     1      83.447  53.196  58.076  1.00  0.00     0.100 A 
ATOM      4  C   UNL     1      83.379  51.824  58.057  1.00  0.00     0.138 A 
ATOM      5  O   UNL     1      83.081  51.234  59.190  1.00  0.00    -0.456 OA
ATOM      6  C   UNL     1      82.850  51.861  60.318  1.00  0.00     0.146 A 
ATOM      7  C   UNL     1      82.539  51.178  61.487  1.00  0.00     0.094 A 
ATOM      8  C   UNL     1      82.293  51.804  62.684  1.00  0.00     0.123 A 
ATOM      9  C   UNL     1      82.351  53.178  62.746  1.00  0.00     0.093 A 
ATOM     10  C   UNL     1      82.657  53.892  61.609  1.00  0.00     0.134 A 
ATOM     11  C   UNL     1      82.905  53.236  60.397  1.00  0.00     0.107 A 
ENDROOT
BRANCH   4  12
ATOM     12  C   UNL     1      83.623  51.051  56.836  1.00  0.00     0.017 A 
ATOM     13  C   UNL     1      82.860  51.147  55.703  1.00  0.00     0.012 A 
ATOM     14  C   UNL     1      84.685  50.165  56.803  1.00  0.00     0.012 A 
ATOM     15  C   UNL     1      83.132  50.389  54.561  1.00  0.00     0.001 A 
ATOM     16  C   UNL     1      84.980  49.400  55.685  1.00  0.00     0.001 A 
ATOM     17  C   UNL     1      84.194  49.511  54.545  1.00  0.00     0.000 A 
ENDBRANCH   4  12
BRANCH  10  18
ATOM     18  O   UNL     1      82.715  55.264  61.672  1.00  0.00    -0.507 OA
ATOM     19  H   UNL     1      81.883  55.803  61.830  1.00  0.00     0.293 HD
ENDBRANCH  10  18
BRANCH   8  20
ATOM     20  O   UNL     1      81.983  51.074  63.835  1.00  0.00    -0.508 OA
ATOM     21  H   UNL     1      81.511  50.182  63.809  1.00  0.00     0.293 HD
ENDBRANCH   8  20
TORSDOF 3
ENDMDL
MODEL 8
REMARK VINA RESULT:      -7.9      1.664      2.428
REMARK SMILES O=c1cc(-c2ccccc2)oc2cc(O)cc(O)c12
REMARK SMILES IDX 1 1 2 2 3 3 4 4 11 5 12 6 13 7 14 8 16 9 17 10 19 11 5 12
REMARK SMILES IDX 6 13 10 14 7 15 9 16 8 17 18 18 15 20
REMARK H PARENT 18 19 15 21
ROOT
ATOM      1  O   UNL     1      83.210  55.103  59.328  1.00  0.00    -0.289 OA
ATOM      2  C   UNL     1      83.201  53.847  59.291  1.00  0.00     0.197 A 
ATOM      3  C   UNL     1      83.458  53.125  58.117  1.00  0.00     0.100 A 
ATOM      4  C   UNL     1      83.443  51.750  58.099  1.00  0.00     0.138 A 
ATOM      5  O   UNL     1      83.174  51.151  59.234  1.00  0.00    -0.456 OA
ATOM      6  C   UNL     1      82.925  51.770  60.362  1.00  0.00     0.146 A 
ATOM      7  C   UNL     1      82.647  51.076  61.534  1.00  0.00     0.094 A 
ATOM      8  C   UNL     1      82.382  51.693  62.732  1.00  0.00     0.123 A 
ATOM      9  C   UNL     1      82.388  53.068  62.792  1.00  0.00     0.093 A 
ATOM     10  C   UNL     1      82.660  53.793  61.653  1.00  0.00     0.134 A 
ATOM     11  C   UNL     1      82.927  53.145  60.441  1.00  0.00     0.107 A 
ENDROOT
BRANCH   4  12
ATOM     12  C   UNL     1      83.711  50.986  56.878  1.00  0.00     0.017 A 
ATOM     13  C   UNL     1      84.753  50.109  56.735  1.00  0.00     0.012 A 
ATOM     14  C   UNL     1      82.872  51.144  55.789  1.00  0.00     0.012 A 
ATOM     15  C   UNL     1      84.969  49.402  55.550  1.00  0.00     0.001 A 
ATOM     16  C   UNL     1      83.060  50.456  54.600  1.00  0.00     0.001 A 
ATOM     17  C   UNL     1      84.123  49.571  54.475  1.00  0.00     0.000 A 
ENDBRANCH   4  12
BRANCH  10  18
ATOM     18  O   UNL     1      82.666  55.166  61.715  1.00  0.00    -0.507 OA
ATOM     19  H   UNL     1      81.803  55.680  61.709  1.00  0.00     0.293 HD
ENDBRANCH  10  18
BRANCH   8  20
ATOM     20  O   UNL     1      82.107  50.953  63.885  1.00  0.00    -0.508 OA
ATOM     21  H   UNL     1      82.604  51.085  64.754  1.00  0.00     0.293 HD
ENDBRANCH   8  20
TORSDOF 3
ENDMDL
MODEL 9
REMARK VINA RESULT:      -7.8      1.381      2.729
REMARK SMILES O=c1cc(-c2ccccc2)oc2cc(O)cc(O)c12
REMARK SMILES IDX 1 1 2 2 3 3 4 4 11 5 12 6 13 7 14 8 16 9 17 10 19 11 5 12
REMARK SMILES IDX 6 13 10 14 7 15 9 16 8 17 18 18 15 20
REMARK H PARENT 18 19 15 21
ROOT
ATOM      1  O   UNL     1      82.330  53.696  60.376  1.00  0.00    -0.289 OA
ATOM      2  C   UNL     1      82.986  52.686  60.016  1.00  0.00     0.197 A 
ATOM      3  C   UNL     1      83.056  52.270  58.678  1.00  0.00     0.100 A 
ATOM      4  C   UNL     1      83.780  51.162  58.306  1.00  0.00     0.138 A 
ATOM      5  O   UNL     1      84.398  50.515  59.265  1.00  0.00    -0.456 OA
ATOM      6  C   UNL     1      84.370  50.854  60.530  1.00  0.00     0.146 A 
ATOM      7  C   UNL     1      85.049  50.125  61.499  1.00  0.00     0.094 A 
ATOM      8  C   UNL     1      85.041  50.452  62.833  1.00  0.00     0.123 A 
ATOM      9  C   UNL     1      84.328  51.555  63.248  1.00  0.00     0.093 A 
ATOM     10  C   UNL     1      83.641  52.304  62.317  1.00  0.00     0.134 A 
ATOM     11  C   UNL     1      83.662  51.954  60.962  1.00  0.00     0.107 A 
ENDROOT
BRANCH   4  12
ATOM     12  C   UNL     1      83.859  50.720  56.911  1.00  0.00     0.017 A 
ATOM     13  C   UNL     1      84.819  49.869  56.431  1.00  0.00     0.012 A 
ATOM     14  C   UNL     1      82.917  51.176  56.006  1.00  0.00     0.012 A 
ATOM     15  C   UNL     1      84.855  49.473  55.091  1.00  0.00     0.001 A 
ATOM     16  C   UNL     1      82.927  50.802  54.672  1.00  0.00     0.001 A 
ATOM     17  C   UNL     1      83.908  49.938  54.203  1.00  0.00     0.000 A 
ENDBRANCH   4  12
BRANCH  10  18
ATOM     18  O   UNL     1      82.931  53.405  62.733  1.00  0.00    -0.507 OA
ATOM     19  H   UNL     1      82.769  53.567  63.710  1.00  0.00     0.293 HD
ENDBRANCH  10  18
BRANCH   8  20
ATOM     20  O   UNL     1      85.738  49.689  63.773  1.00  0.00    -0.508 OA
ATOM     21  H   UNL     1      86.306  48.893  63.521  1.00  0.00     0.293 HD
ENDBRANCH   8  20
TORSDOF 3
ENDMDL
