MODEL 1
REMARK VINA RESULT:      -5.5      0.000      0.000
REMARK SMILES Clc1ccccc1C(c1ccccc1)(c1ccccc1)n1ccnc1
REMARK SMILES IDX 1 1 2 2 3 3 4 4 5 5 6 6 7 7 8 8 9 9 10 10 14 11 11 12 13 13
REMARK SMILES IDX 12 14 15 15 16 16 20 17 17 18 19 19 18 20 21 21 22 22 25 23
REMARK SMILES IDX 23 24 24 25
REMARK H PARENT
ROOT
ATOM      1  Cl  UNL     1      88.317  52.371  65.790  1.00  0.00    -0.084 Cl
ATOM      2  C   UNL     1      89.489  51.474  66.729  1.00  0.00     0.047 A 
ATOM      3  C   UNL     1      89.459  51.468  68.105  1.00  0.00     0.021 A 
ATOM      4  C   UNL     1      90.361  50.736  68.847  1.00  0.00     0.002 A 
ATOM      5  C   UNL     1      91.304  50.002  68.173  1.00  0.00     0.001 A 
ATOM      6  C   UNL     1      91.334  50.008  66.772  1.00  0.00     0.008 A 
ATOM      7  C   UNL     1      90.441  50.734  66.046  1.00  0.00     0.006 A 
ENDROOT
BRANCH   7   8
ATOM      8  C   UNL     1      90.508  50.745  64.559  1.00  0.00     0.123 C 
BRANCH   8   9
ATOM      9  C   UNL     1      89.270  50.094  64.042  1.00  0.00    -0.013 A 
ATOM     10  C   UNL     1      88.609  50.436  62.909  1.00  0.00     0.007 A 
ATOM     11  C   UNL     1      88.794  49.026  64.827  1.00  0.00     0.007 A 
ATOM     12  C   UNL     1      87.477  49.728  62.544  1.00  0.00     0.000 A 
ATOM     13  C   UNL     1      87.672  48.330  64.457  1.00  0.00     0.000 A 
ATOM     14  C   UNL     1      86.994  48.668  63.311  1.00  0.00     0.000 A 
ENDBRANCH   8   9
BRANCH   8  15
ATOM     15  C   UNL     1      91.605  49.872  64.061  1.00  0.00    -0.013 A 
ATOM     16  C   UNL     1      91.414  48.575  63.664  1.00  0.00     0.007 A 
ATOM     17  C   UNL     1      92.869  50.397  63.970  1.00  0.00     0.007 A 
ATOM     18  C   UNL     1      92.454  47.790  63.181  1.00  0.00     0.000 A 
ATOM     19  C   UNL     1      93.936  49.623  63.485  1.00  0.00     0.000 A 
ATOM     20  C   UNL     1      93.715  48.331  63.097  1.00  0.00     0.000 A 
ENDBRANCH   8  15
BRANCH   8  21
ATOM     21  N   UNL     1      90.703  52.083  64.084  1.00  0.00    -0.319 N 
ATOM     22  C   UNL     1      90.181  52.607  62.941  1.00  0.00     0.109 A 
ATOM     23  C   UNL     1      91.400  53.054  64.673  1.00  0.00     0.200 A 
ATOM     24  C   UNL     1      90.571  53.924  62.832  1.00  0.00     0.131 A 
ATOM     25  N   UNL     1      91.315  54.171  63.904  1.00  0.00    -0.245 NA
ENDBRANCH   8  21
ENDBRANCH   7   8
TORSDOF 4
ENDMDL
MODEL 2
REMARK VINA RESULT:      -5.3      7.483     10.047
REMARK SMILES Clc1ccccc1C(c1ccccc1)(c1ccccc1)n1ccnc1
REMARK SMILES IDX 1 1 2 2 3 3 4 4 5 5 6 6 7 7 8 8 9 9 10 10 14 11 11 12 13 13
REMARK SMILES IDX 12 14 15 15 16 16 20 17 17 18 19 19 18 20 21 21 22 22 25 23
REMARK SMILES IDX 23 24 24 25
REMARK H PARENT
ROOT
ATOM      1  Cl  UNL     1      85.020  59.276  63.615  1.00  0.00    -0.084 Cl
ATOM      2  C   UNL     1      83.457  58.496  63.694  1.00  0.00     0.047 A 
ATOM      3  C   UNL     1      82.419  59.034  64.419  1.00  0.00     0.021 A 
ATOM      4  C   UNL     1      81.176  58.440  64.458  1.00  0.00     0.002 A 
ATOM      5  C   UNL     1      80.994  57.281  63.744  1.00  0.00     0.001 A 
ATOM      6  C   UNL     1      82.051  56.734  63.006  1.00  0.00     0.008 A 
ATOM      7  C   UNL     1      83.276  57.326  62.974  1.00  0.00     0.006 A 
ENDROOT
BRANCH   7   8
ATOM      8  C   UNL     1      84.392  56.713  62.203  1.00  0.00     0.123 C 
BRANCH   8   9
ATOM      9  C   UNL     1      84.784  57.670  61.129  1.00  0.00    -0.013 A 
ATOM     10  C   UNL     1      86.014  57.770  60.566  1.00  0.00     0.007 A 
ATOM     11  C   UNL     1      83.748  58.513  60.683  1.00  0.00     0.007 A 
ATOM     12  C   UNL     1      86.228  58.699  59.564  1.00  0.00     0.000 A 
ATOM     13  C   UNL     1      83.969  59.430  59.689  1.00  0.00     0.000 A 
ATOM     14  C   UNL     1      85.211  59.540  59.112  1.00  0.00     0.000 A 
ENDBRANCH   8   9
BRANCH   8  15
ATOM     15  C   UNL     1      83.936  55.508  61.459  1.00  0.00    -0.013 A 
ATOM     16  C   UNL     1      83.845  54.264  62.024  1.00  0.00     0.007 A 
ATOM     17  C   UNL     1      83.564  55.652  60.146  1.00  0.00     0.007 A 
ATOM     18  C   UNL     1      83.393  53.160  61.310  1.00  0.00     0.000 A 
ATOM     19  C   UNL     1      83.104  54.550  59.405  1.00  0.00     0.000 A 
ATOM     20  C   UNL     1      83.025  53.320  59.996  1.00  0.00     0.000 A 
ENDBRANCH   8  15
BRANCH   8  21
ATOM     21  N   UNL     1      85.464  56.358  63.085  1.00  0.00    -0.319 N 
ATOM     22  C   UNL     1      85.330  55.900  64.360  1.00  0.00     0.109 A 
ATOM     23  C   UNL     1      86.769  56.387  62.819  1.00  0.00     0.200 A 
ATOM     24  C   UNL     1      86.580  55.647  64.880  1.00  0.00     0.131 A 
ATOM     25  N   UNL     1      87.442  55.953  63.917  1.00  0.00    -0.245 NA
ENDBRANCH   8  21
ENDBRANCH   7   8
TORSDOF 4
ENDMDL
MODEL 3
REMARK VINA RESULT:      -5.3      0.992      4.015
REMARK SMILES Clc1ccccc1C(c1ccccc1)(c1ccccc1)n1ccnc1
REMARK SMILES IDX 1 1 2 2 3 3 4 4 5 5 6 6 7 7 8 8 9 9 10 10 14 11 11 12 13 13
REMARK SMILES IDX 12 14 15 15 16 16 20 17 17 18 19 19 18 20 21 21 22 22 25 23
REMARK SMILES IDX 23 24 24 25
REMARK H PARENT
ROOT
ATOM      1  Cl  UNL     1      88.418  52.057  65.760  1.00  0.00    -0.084 Cl
ATOM      2  C   UNL     1      88.277  50.662  64.714  1.00  0.00     0.047 A 
ATOM      3  C   UNL     1      87.051  50.146  64.361  1.00  0.00     0.021 A 
ATOM      4  C   UNL     1      86.935  49.068  63.511  1.00  0.00     0.002 A 
ATOM      5  C   UNL     1      88.088  48.510  63.018  1.00  0.00     0.001 A 
ATOM      6  C   UNL     1      89.336  49.035  63.378  1.00  0.00     0.008 A 
ATOM      7  C   UNL     1      89.443  50.100  64.218  1.00  0.00     0.006 A 
ENDROOT
BRANCH   7   8
ATOM      8  C   UNL     1      90.780  50.625  64.607  1.00  0.00     0.123 C 
BRANCH   8   9
ATOM      9  C   UNL     1      91.810  49.701  64.055  1.00  0.00    -0.013 A 
ATOM     10  C   UNL     1      92.712  50.005  63.088  1.00  0.00     0.007 A 
ATOM     11  C   UNL     1      91.819  48.416  64.630  1.00  0.00     0.007 A 
ATOM     12  C   UNL     1      93.624  49.045  62.685  1.00  0.00     0.000 A 
ATOM     13  C   UNL     1      92.727  47.472  64.225  1.00  0.00     0.000 A 
ATOM     14  C   UNL     1      93.644  47.769  63.246  1.00  0.00     0.000 A 
ENDBRANCH   8   9
BRANCH   8  15
ATOM     15  C   UNL     1      90.983  50.549  66.078  1.00  0.00    -0.013 A 
ATOM     16  C   UNL     1      90.231  49.754  66.903  1.00  0.00     0.007 A 
ATOM     17  C   UNL     1      91.990  51.293  66.639  1.00  0.00     0.007 A 
ATOM     18  C   UNL     1      90.459  49.685  68.272  1.00  0.00     0.000 A 
ATOM     19  C   UNL     1      92.239  51.240  68.021  1.00  0.00     0.000 A 
ATOM     20  C   UNL     1      91.471  50.437  68.818  1.00  0.00     0.000 A 
ENDBRANCH   8  15
BRANCH   8  21
ATOM     21  N   UNL     1      90.923  51.983  64.170  1.00  0.00    -0.319 N 
ATOM     22  C   UNL     1      90.367  52.524  63.051  1.00  0.00     0.109 A 
ATOM     23  C   UNL     1      91.595  52.959  64.779  1.00  0.00     0.200 A 
ATOM     24  C   UNL     1      90.712  53.855  62.977  1.00  0.00     0.131 A 
ATOM     25  N   UNL     1      91.462  54.095  64.046  1.00  0.00    -0.245 NA
ENDBRANCH   8  21
ENDBRANCH   7   8
TORSDOF 4
ENDMDL
MODEL 4
REMARK VINA RESULT:      -5.2      4.504      7.527
REMARK SMILES Clc1ccccc1C(c1ccccc1)(c1ccccc1)n1ccnc1
REMARK SMILES IDX 1 1 2 2 3 3 4 4 5 5 6 6 7 7 8 8 9 9 10 10 14 11 11 12 13 13
REMARK SMILES IDX 12 14 15 15 16 16 20 17 17 18 19 19 18 20 21 21 22 22 25 23
REMARK SMILES IDX 23 24 24 25
REMARK H PARENT
ROOT
ATOM      1  Cl  UNL     1      85.602  50.064  66.089  1.00  0.00    -0.084 Cl
ATOM      2  C   UNL     1      85.119  51.558  65.316  1.00  0.00     0.047 A 
ATOM      3  C   UNL     1      85.230  52.770  65.958  1.00  0.00     0.021 A 
ATOM      4  C   UNL     1      84.881  53.952  65.341  1.00  0.00     0.002 A 
ATOM      5  C   UNL     1      84.412  53.891  64.052  1.00  0.00     0.001 A 
ATOM      6  C   UNL     1      84.299  52.657  63.400  1.00  0.00     0.008 A 
ATOM      7  C   UNL     1      84.644  51.494  64.016  1.00  0.00     0.006 A 
ENDROOT
BRANCH   7   8
ATOM      8  C   UNL     1      84.491  50.191  63.312  1.00  0.00     0.123 C 
BRANCH   8   9
ATOM      9  C   UNL     1      85.844  49.577  63.191  1.00  0.00    -0.013 A 
ATOM     10  C   UNL     1      86.118  48.249  63.220  1.00  0.00     0.007 A 
ATOM     11  C   UNL     1      86.896  50.497  63.017  1.00  0.00     0.007 A 
ATOM     12  C   UNL     1      87.426  47.822  63.079  1.00  0.00     0.000 A 
ATOM     13  C   UNL     1      88.189  50.065  62.877  1.00  0.00     0.000 A 
ATOM     14  C   UNL     1      88.478  48.722  62.905  1.00  0.00     0.000 A 
ENDBRANCH   8   9
BRANCH   8  15
ATOM     15  C   UNL     1      84.060  50.387  61.902  1.00  0.00    -0.013 A 
ATOM     16  C   UNL     1      84.929  50.395  60.843  1.00  0.00     0.007 A 
ATOM     17  C   UNL     1      82.722  50.543  61.642  1.00  0.00     0.007 A 
ATOM     18  C   UNL     1      84.495  50.556  59.532  1.00  0.00     0.000 A 
ATOM     19  C   UNL     1      82.260  50.708  60.326  1.00  0.00     0.000 A 
ATOM     20  C   UNL     1      83.152  50.713  59.289  1.00  0.00     0.000 A 
ENDBRANCH   8  15
BRANCH   8  21
ATOM     21  N   UNL     1      83.539  49.369  63.998  1.00  0.00    -0.319 N 
ATOM     22  C   UNL     1      82.578  49.807  64.857  1.00  0.00     0.109 A 
ATOM     23  C   UNL     1      83.403  48.046  63.907  1.00  0.00     0.200 A 
ATOM     24  C   UNL     1      81.845  48.729  65.299  1.00  0.00     0.131 A 
ATOM     25  N   UNL     1      82.370  47.664  64.703  1.00  0.00    -0.245 NA
ENDBRANCH   8  21
ENDBRANCH   7   8
TORSDOF 4
ENDMDL
MODEL 5
REMARK VINA RESULT:      -5.1      4.710      7.567
REMARK SMILES Clc1ccccc1C(c1ccccc1)(c1ccccc1)n1ccnc1
REMARK SMILES IDX 1 1 2 2 3 3 4 4 5 5 6 6 7 7 8 8 9 9 10 10 14 11 11 12 13 13
REMARK SMILES IDX 12 14 15 15 16 16 20 17 17 18 19 19 18 20 21 21 22 22 25 23
REMARK SMILES IDX 23 24 24 25
REMARK H PARENT
ROOT
ATOM      1  Cl  UNL     1      85.499  50.311  65.946  1.00  0.00    -0.084 Cl
ATOM      2  C   UNL     1      84.979  51.765  65.122  1.00  0.00     0.047 A 
ATOM      3  C   UNL     1      85.083  53.004  65.712  1.00  0.00     0.021 A 
ATOM      4  C   UNL     1      84.704  54.154  65.054  1.00  0.00     0.002 A 
ATOM      5  C   UNL     1      84.214  54.034  63.777  1.00  0.00     0.001 A 
ATOM      6  C   UNL     1      84.108  52.772  63.178  1.00  0.00     0.008 A 
ATOM      7  C   UNL     1      84.483  51.640  63.835  1.00  0.00     0.006 A 
ENDROOT
BRANCH   7   8
ATOM      8  C   UNL     1      84.338  50.308  63.187  1.00  0.00     0.123 C 
BRANCH   8   9
ATOM      9  C   UNL     1      85.695  49.700  63.087  1.00  0.00    -0.013 A 
ATOM     10  C   UNL     1      86.851  50.372  62.858  1.00  0.00     0.007 A 
ATOM     11  C   UNL     1      85.731  48.304  63.267  1.00  0.00     0.007 A 
ATOM     12  C   UNL     1      88.044  49.674  62.806  1.00  0.00     0.000 A 
ATOM     13  C   UNL     1      86.918  47.620  63.215  1.00  0.00     0.000 A 
ATOM     14  C   UNL     1      88.095  48.291  62.983  1.00  0.00     0.000 A 
ENDBRANCH   8   9
BRANCH   8  15
ATOM     15  C   UNL     1      83.901  50.440  61.772  1.00  0.00    -0.013 A 
ATOM     16  C   UNL     1      82.595  50.630  61.401  1.00  0.00     0.007 A 
ATOM     17  C   UNL     1      84.853  50.394  60.785  1.00  0.00     0.007 A 
ATOM     18  C   UNL     1      82.218  50.774  60.072  1.00  0.00     0.000 A 
ATOM     19  C   UNL     1      84.495  50.536  59.434  1.00  0.00     0.000 A 
ATOM     20  C   UNL     1      83.184  50.724  59.095  1.00  0.00     0.000 A 
ENDBRANCH   8  15
BRANCH   8  21
ATOM     21  N   UNL     1      83.395  49.508  63.911  1.00  0.00    -0.319 N 
ATOM     22  C   UNL     1      83.260  48.156  63.820  1.00  0.00     0.109 A 
ATOM     23  C   UNL     1      82.504  49.926  64.808  1.00  0.00     0.200 A 
ATOM     24  C   UNL     1      82.266  47.745  64.680  1.00  0.00     0.131 A 
ATOM     25  N   UNL     1      81.820  48.847  65.272  1.00  0.00    -0.245 NA
ENDBRANCH   8  21
ENDBRANCH   7   8
TORSDOF 4
ENDMDL
MODEL 6
REMARK VINA RESULT:      -5.1      8.183     10.272
REMARK SMILES Clc1ccccc1C(c1ccccc1)(c1ccccc1)n1ccnc1
REMARK SMILES IDX 1 1 2 2 3 3 4 4 5 5 6 6 7 7 8 8 9 9 10 10 14 11 11 12 13 13
REMARK SMILES IDX 12 14 15 15 16 16 20 17 17 18 19 19 18 20 21 21 22 22 25 23
REMARK SMILES IDX 23 24 24 25
REMARK H PARENT
ROOT
ATOM      1  Cl  UNL     1      83.846  59.603  63.358  1.00  0.00    -0.084 Cl
ATOM      2  C   UNL     1      85.036  58.327  63.239  1.00  0.00     0.047 A 
ATOM      3  C   UNL     1      86.270  58.434  63.839  1.00  0.00     0.021 A 
ATOM      4  C   UNL     1      87.198  57.417  63.775  1.00  0.00     0.002 A 
ATOM      5  C   UNL     1      86.859  56.278  63.089  1.00  0.00     0.001 A 
ATOM      6  C   UNL     1      85.603  56.170  62.478  1.00  0.00     0.008 A 
ATOM      7  C   UNL     1      84.692  57.178  62.545  1.00  0.00     0.006 A 
ENDROOT
BRANCH   7   8
ATOM      8  C   UNL     1      83.373  57.051  61.867  1.00  0.00     0.123 C 
BRANCH   8   9
ATOM      9  C   UNL     1      82.312  57.166  62.908  1.00  0.00    -0.013 A 
ATOM     10  C   UNL     1      81.098  57.748  62.743  1.00  0.00     0.007 A 
ATOM     11  C   UNL     1      82.641  56.592  64.151  1.00  0.00     0.007 A 
ATOM     12  C   UNL     1      80.205  57.766  63.799  1.00  0.00     0.000 A 
ATOM     13  C   UNL     1      81.749  56.614  65.192  1.00  0.00     0.000 A 
ATOM     14  C   UNL     1      80.517  57.201  65.036  1.00  0.00     0.000 A 
ENDBRANCH   8   9
BRANCH   8  15
ATOM     15  C   UNL     1      83.181  55.685  61.311  1.00  0.00    -0.013 A 
ATOM     16  C   UNL     1      83.346  55.381  59.985  1.00  0.00     0.007 A 
ATOM     17  C   UNL     1      82.846  54.670  62.170  1.00  0.00     0.007 A 
ATOM     18  C   UNL     1      83.182  54.090  59.497  1.00  0.00     0.000 A 
ATOM     19  C   UNL     1      82.675  53.357  61.700  1.00  0.00     0.000 A 
ATOM     20  C   UNL     1      82.845  53.084  60.371  1.00  0.00     0.000 A 
ENDBRANCH   8  15
BRANCH   8  21
ATOM     21  N   UNL     1      83.263  58.019  60.816  1.00  0.00    -0.319 N 
ATOM     22  C   UNL     1      82.107  58.582  60.368  1.00  0.00     0.109 A 
ATOM     23  C   UNL     1      84.255  58.556  60.108  1.00  0.00     0.200 A 
ATOM     24  C   UNL     1      82.404  59.479  59.366  1.00  0.00     0.131 A 
ATOM     25  N   UNL     1      83.724  59.444  59.227  1.00  0.00    -0.245 NA
ENDBRANCH   8  21
ENDBRANCH   7   8
TORSDOF 4
ENDMDL
MODEL 7
REMARK VINA RESULT:      -5.1      9.602     13.002
REMARK SMILES Clc1ccccc1C(c1ccccc1)(c1ccccc1)n1ccnc1
REMARK SMILES IDX 1 1 2 2 3 3 4 4 5 5 6 6 7 7 8 8 9 9 10 10 14 11 11 12 13 13
REMARK SMILES IDX 12 14 15 15 16 16 20 17 17 18 19 19 18 20 21 21 22 22 25 23
REMARK SMILES IDX 23 24 24 25
REMARK H PARENT
ROOT
ATOM      1  Cl  UNL     1      81.447  45.344  68.183  1.00  0.00    -0.084 Cl
ATOM      2  C   UNL     1      79.789  45.881  68.032  1.00  0.00     0.047 A 
ATOM      3  C   UNL     1      79.185  46.638  69.009  1.00  0.00     0.021 A 
ATOM      4  C   UNL     1      77.889  47.090  68.880  1.00  0.00     0.002 A 
ATOM      5  C   UNL     1      77.204  46.762  67.736  1.00  0.00     0.001 A 
ATOM      6  C   UNL     1      77.820  45.991  66.741  1.00  0.00     0.008 A 
ATOM      7  C   UNL     1      79.100  45.548  66.877  1.00  0.00     0.006 A 
ENDROOT
BRANCH   7   8
ATOM      8  C   UNL     1      79.724  44.709  65.819  1.00  0.00     0.123 C 
BRANCH   8   9
ATOM      9  C   UNL     1      80.879  45.467  65.258  1.00  0.00    -0.013 A 
ATOM     10  C   UNL     1      81.986  44.923  64.693  1.00  0.00     0.007 A 
ATOM     11  C   UNL     1      80.756  46.867  65.331  1.00  0.00     0.007 A 
ATOM     12  C   UNL     1      82.974  45.756  64.199  1.00  0.00     0.000 A 
ATOM     13  C   UNL     1      81.740  47.685  64.838  1.00  0.00     0.000 A 
ATOM     14  C   UNL     1      82.865  47.145  64.264  1.00  0.00     0.000 A 
ENDBRANCH   8   9
BRANCH   8  15
ATOM     15  C   UNL     1      78.812  44.537  64.657  1.00  0.00    -0.013 A 
ATOM     16  C   UNL     1      77.776  43.641  64.639  1.00  0.00     0.007 A 
ATOM     17  C   UNL     1      78.999  45.332  63.555  1.00  0.00     0.007 A 
ATOM     18  C   UNL     1      76.924  43.518  63.547  1.00  0.00     0.000 A 
ATOM     19  C   UNL     1      78.151  45.225  62.439  1.00  0.00     0.000 A 
ATOM     20  C   UNL     1      77.126  44.321  62.450  1.00  0.00     0.000 A 
ENDBRANCH   8  15
BRANCH   8  21
ATOM     21  N   UNL     1      80.075  43.425  66.350  1.00  0.00    -0.319 N 
ATOM     22  C   UNL     1      79.373  42.730  67.287  1.00  0.00     0.109 A 
ATOM     23  C   UNL     1      81.124  42.674  66.017  1.00  0.00     0.200 A 
ATOM     24  C   UNL     1      80.010  41.533  67.528  1.00  0.00     0.131 A 
ATOM     25  N   UNL     1      81.077  41.523  66.739  1.00  0.00    -0.245 NA
ENDBRANCH   8  21
ENDBRANCH   7   8
TORSDOF 4
ENDMDL
MODEL 8
REMARK VINA RESULT:      -5.1      7.422     10.166
REMARK SMILES Clc1ccccc1C(c1ccccc1)(c1ccccc1)n1ccnc1
REMARK SMILES IDX 1 1 2 2 3 3 4 4 5 5 6 6 7 7 8 8 9 9 10 10 14 11 11 12 13 13
REMARK SMILES IDX 12 14 15 15 16 16 20 17 17 18 19 19 18 20 21 21 22 22 25 23
REMARK SMILES IDX 23 24 24 25
REMARK H PARENT
ROOT
ATOM      1  Cl  UNL     1      84.594  58.440  64.226  1.00  0.00    -0.084 Cl
ATOM      2  C   UNL     1      85.216  58.145  62.618  1.00  0.00     0.047 A 
ATOM      3  C   UNL     1      86.103  59.010  62.019  1.00  0.00     0.021 A 
ATOM      4  C   UNL     1      86.621  58.764  60.765  1.00  0.00     0.002 A 
ATOM      5  C   UNL     1      86.226  57.620  60.118  1.00  0.00     0.001 A 
ATOM      6  C   UNL     1      85.322  56.740  60.729  1.00  0.00     0.008 A 
ATOM      7  C   UNL     1      84.815  56.990  61.966  1.00  0.00     0.006 A 
ENDROOT
BRANCH   7   8
ATOM      8  C   UNL     1      83.837  56.054  62.585  1.00  0.00     0.123 C 
BRANCH   8   9
ATOM      9  C   UNL     1      83.523  54.996  61.584  1.00  0.00    -0.013 A 
ATOM     10  C   UNL     1      83.088  55.206  60.316  1.00  0.00     0.007 A 
ATOM     11  C   UNL     1      83.725  53.678  62.036  1.00  0.00     0.007 A 
ATOM     12  C   UNL     1      82.852  54.122  59.490  1.00  0.00     0.000 A 
ATOM     13  C   UNL     1      83.489  52.609  61.210  1.00  0.00     0.000 A 
ATOM     14  C   UNL     1      83.048  52.811  59.924  1.00  0.00     0.000 A 
ENDBRANCH   8   9
BRANCH   8  15
ATOM     15  C   UNL     1      82.528  56.720  62.823  1.00  0.00    -0.013 A 
ATOM     16  C   UNL     1      82.177  57.917  62.256  1.00  0.00     0.007 A 
ATOM     17  C   UNL     1      81.613  56.094  63.631  1.00  0.00     0.007 A 
ATOM     18  C   UNL     1      80.938  58.504  62.478  1.00  0.00     0.000 A 
ATOM     19  C   UNL     1      80.354  56.669  63.871  1.00  0.00     0.000 A 
ATOM     20  C   UNL     1      80.033  57.865  63.292  1.00  0.00     0.000 A 
ENDBRANCH   8  15
BRANCH   8  21
ATOM     21  N   UNL     1      84.353  55.549  63.822  1.00  0.00    -0.319 N 
ATOM     22  C   UNL     1      83.653  55.412  64.983  1.00  0.00     0.109 A 
ATOM     23  C   UNL     1      85.586  55.104  64.060  1.00  0.00     0.200 A 
ATOM     24  C   UNL     1      84.479  54.876  65.945  1.00  0.00     0.131 A 
ATOM     25  N   UNL     1      85.655  54.696  65.355  1.00  0.00    -0.245 NA
ENDBRANCH   8  21
ENDBRANCH   7   8
TORSDOF 4
ENDMDL
MODEL 9
REMARK VINA RESULT:      -5.0      1.414      4.157
REMARK SMILES Clc1ccccc1C(c1ccccc1)(c1ccccc1)n1ccnc1
REMARK SMILES IDX 1 1 2 2 3 3 4 4 5 5 6 6 7 7 8 8 9 9 10 10 14 11 11 12 13 13
REMARK SMILES IDX 12 14 15 15 16 16 20 17 17 18 19 19 18 20 21 21 22 22 25 23
REMARK SMILES IDX 23 24 24 25
REMARK H PARENT
ROOT
ATOM      1  Cl  UNL     1      89.072  51.717  66.521  1.00  0.00    -0.084 Cl
ATOM      2  C   UNL     1      88.804  50.705  65.120  1.00  0.00     0.047 A 
ATOM      3  C   UNL     1      87.544  50.502  64.607  1.00  0.00     0.021 A 
ATOM      4  C   UNL     1      87.333  49.732  63.484  1.00  0.00     0.002 A 
ATOM      5  C   UNL     1      88.426  49.163  62.878  1.00  0.00     0.001 A 
ATOM      6  C   UNL     1      89.709  49.370  63.401  1.00  0.00     0.008 A 
ATOM      7  C   UNL     1      89.909  50.131  64.511  1.00  0.00     0.006 A 
ENDROOT
BRANCH   7   8
ATOM      8  C   UNL     1      91.279  50.316  65.063  1.00  0.00     0.123 C 
BRANCH   8   9
ATOM      9  C   UNL     1      92.208  49.455  64.278  1.00  0.00    -0.013 A 
ATOM     10  C   UNL     1      93.027  49.875  63.281  1.00  0.00     0.007 A 
ATOM     11  C   UNL     1      92.210  48.098  64.649  1.00  0.00     0.007 A 
ATOM     12  C   UNL     1      93.850  48.960  62.648  1.00  0.00     0.000 A 
ATOM     13  C   UNL     1      93.030  47.198  64.018  1.00  0.00     0.000 A 
ATOM     14  C   UNL     1      93.863  47.613  63.007  1.00  0.00     0.000 A 
ENDBRANCH   8   9
BRANCH   8  15
ATOM     15  C   UNL     1      91.381  49.781  66.447  1.00  0.00    -0.013 A 
ATOM     16  C   UNL     1      90.469  48.913  66.988  1.00  0.00     0.007 A 
ATOM     17  C   UNL     1      92.454  50.154  67.216  1.00  0.00     0.007 A 
ATOM     18  C   UNL     1      90.602  48.410  68.277  1.00  0.00     0.000 A 
ATOM     19  C   UNL     1      92.609  49.659  68.522  1.00  0.00     0.000 A 
ATOM     20  C   UNL     1      91.682  48.794  69.035  1.00  0.00     0.000 A 
ENDBRANCH   8  15
BRANCH   8  21
ATOM     21  N   UNL     1      91.629  51.706  65.057  1.00  0.00    -0.319 N 
ATOM     22  C   UNL     1      92.521  52.308  65.892  1.00  0.00     0.109 A 
ATOM     23  C   UNL     1      91.173  52.649  64.234  1.00  0.00     0.200 A 
ATOM     24  C   UNL     1      92.607  53.644  65.570  1.00  0.00     0.131 A 
ATOM     25  N   UNL     1      91.772  53.826  64.553  1.00  0.00    -0.245 NA
ENDBRANCH   8  21
ENDBRANCH   7   8
TORSDOF 4
ENDMDL
