MODEL 1
REMARK VINA RESULT:      -5.2      0.000      0.000
REMARK SMILES CCCCC/C=C\C/C=C\C/C=C\C/C=C\CCCC(=O)NCC(=O)[O-]
REMARK SMILES IDX 12 1 13 2 11 3 10 4 9 5 8 6 7 7 6 8 5 9 4 10 3 11 2 12 1 13
REMARK SMILES IDX 14 14 15 15 16 16 17 17 18 18 19 19 20 20 21 21 22 22 23 24
REMARK SMILES IDX 24 25 25 26 26 27
REMARK H PARENT 22 23
ROOT
ATOM      1  C   UNL     1      -4.595   9.088 -18.865  1.00  0.00    -0.027 C 
ATOM      2  C   UNL     1      -4.972   9.795 -19.883  1.00  0.00    -0.027 C 
ENDROOT
BRANCH   1   3
ATOM      3  C   UNL     1      -3.625   7.987 -18.978  1.00  0.00     0.054 C 
BRANCH   3   4
ATOM      4  C   UNL     1      -4.221   6.760 -18.381  1.00  0.00    -0.027 C 
ATOM      5  C   UNL     1      -4.420   6.534 -17.120  1.00  0.00    -0.027 C 
BRANCH   5   6
ATOM      6  C   UNL     1      -4.033   7.580 -16.124  1.00  0.00     0.054 C 
BRANCH   6   7
ATOM      7  C   UNL     1      -4.878   7.446 -14.916  1.00  0.00    -0.027 C 
ATOM      8  C   UNL     1      -5.984   8.141 -14.781  1.00  0.00    -0.031 C 
BRANCH   8   9
ATOM      9  C   UNL     1      -6.527   9.104 -15.741  1.00  0.00     0.027 C 
BRANCH   9  10
ATOM     10  C   UNL     1      -7.914   8.717 -16.225  1.00  0.00     0.004 C 
BRANCH  10  11
ATOM     11  C   UNL     1      -8.043   8.823 -17.719  1.00  0.00     0.000 C 
BRANCH  11  12
ATOM     12  C   UNL     1      -7.849   7.502 -18.419  1.00  0.00    -0.003 C 
ATOM     13  C   UNL     1      -8.471   6.358 -17.686  1.00  0.00     0.004 C 
ENDBRANCH  11  12
ENDBRANCH  10  11
ENDBRANCH   9  10
ENDBRANCH   8   9
ENDBRANCH   6   7
ENDBRANCH   5   6
ENDBRANCH   3   4
ENDBRANCH   1   3
BRANCH   2  14
ATOM     14  C   UNL     1      -4.527   9.649 -21.288  1.00  0.00     0.054 C 
BRANCH  14  15
ATOM     15  C   UNL     1      -5.636   9.192 -22.103  1.00  0.00    -0.027 C 
ATOM     16  C   UNL     1      -5.858   7.971 -22.426  1.00  0.00    -0.031 C 
BRANCH  16  17
ATOM     17  C   UNL     1      -5.077   6.849 -22.059  1.00  0.00     0.027 C 
BRANCH  17  18
ATOM     18  C   UNL     1      -3.854   6.607 -22.876  1.00  0.00     0.014 C 
BRANCH  18  19
ATOM     19  C   UNL     1      -2.630   6.379 -22.111  1.00  0.00     0.100 C 
BRANCH  19  20
ATOM     20  C   UNL     1      -1.344   6.248 -22.796  1.00  0.00     0.220 C 
ATOM     21  O   UNL     1      -0.859   7.007 -23.663  1.00  0.00    -0.275 OA
ATOM     22  N   UNL     1      -0.491   5.119 -22.464  1.00  0.00    -0.351 N 
ATOM     23  H   UNL     1      -0.867   4.470 -21.747  1.00  0.00     0.163 HD
BRANCH  22  24
ATOM     24  C   UNL     1       0.776   4.924 -23.089  1.00  0.00     0.168 C 
BRANCH  24  25
ATOM     25  C   UNL     1       1.852   5.507 -22.264  1.00  0.00     0.061 C 
ATOM     26  O   UNL     1       2.900   5.970 -22.771  1.00  0.00    -0.548 OA
ATOM     27  O   UNL     1       1.699   5.543 -20.891  1.00  0.00    -0.548 OA
ENDBRANCH  24  25
ENDBRANCH  22  24
ENDBRANCH  19  20
ENDBRANCH  18  19
ENDBRANCH  17  18
ENDBRANCH  16  17
ENDBRANCH  14  15
ENDBRANCH   2  14
TORSDOF 16
ENDMDL
MODEL 2
REMARK VINA RESULT:      -5.1      1.585      3.484
REMARK SMILES CCCCC/C=C\C/C=C\C/C=C\C/C=C\CCCC(=O)NCC(=O)[O-]
REMARK SMILES IDX 12 1 13 2 11 3 10 4 9 5 8 6 7 7 6 8 5 9 4 10 3 11 2 12 1 13
REMARK SMILES IDX 14 14 15 15 16 16 17 17 18 18 19 19 20 20 21 21 22 22 23 24
REMARK SMILES IDX 24 25 25 26 26 27
REMARK H PARENT 22 23
ROOT
ATOM      1  C   UNL     1      -6.141   9.893 -18.801  1.00  0.00    -0.027 C 
ATOM      2  C   UNL     1      -5.037   9.268 -19.064  1.00  0.00    -0.027 C 
ENDROOT
BRANCH   1   3
ATOM      3  C   UNL     1      -6.698   9.985 -17.443  1.00  0.00     0.054 C 
BRANCH   3   4
ATOM      4  C   UNL     1      -8.094   9.468 -17.460  1.00  0.00    -0.027 C 
ATOM      5  C   UNL     1      -8.486   8.290 -17.088  1.00  0.00    -0.027 C 
BRANCH   5   6
ATOM      6  C   UNL     1      -7.474   7.315 -16.578  1.00  0.00     0.054 C 
BRANCH   6   7
ATOM      7  C   UNL     1      -7.626   7.167 -15.113  1.00  0.00    -0.027 C 
ATOM      8  C   UNL     1      -6.610   7.357 -14.303  1.00  0.00    -0.031 C 
BRANCH   8   9
ATOM      9  C   UNL     1      -5.246   7.720 -14.692  1.00  0.00     0.027 C 
BRANCH   9  10
ATOM     10  C   UNL     1      -4.994   9.214 -14.584  1.00  0.00     0.004 C 
BRANCH  10  11
ATOM     11  C   UNL     1      -4.881   9.670 -13.157  1.00  0.00     0.000 C 
BRANCH  11  12
ATOM     12  C   UNL     1      -5.982  10.621 -12.757  1.00  0.00    -0.003 C 
ATOM     13  C   UNL     1      -6.491  10.372 -11.375  1.00  0.00     0.004 C 
ENDBRANCH  11  12
ENDBRANCH  10  11
ENDBRANCH   9  10
ENDBRANCH   8   9
ENDBRANCH   6   7
ENDBRANCH   5   6
ENDBRANCH   3   4
ENDBRANCH   1   3
BRANCH   2  14
ATOM     14  C   UNL     1      -4.159   8.560 -18.104  1.00  0.00     0.054 C 
BRANCH  14  15
ATOM     15  C   UNL     1      -4.360   7.129 -18.228  1.00  0.00    -0.027 C 
ATOM     16  C   UNL     1      -3.814   6.383 -19.116  1.00  0.00    -0.031 C 
BRANCH  16  17
ATOM     17  C   UNL     1      -2.923   6.802 -20.133  1.00  0.00     0.027 C 
BRANCH  17  18
ATOM     18  C   UNL     1      -3.440   6.722 -21.529  1.00  0.00     0.014 C 
BRANCH  18  19
ATOM     19  C   UNL     1      -2.786   7.613 -22.486  1.00  0.00     0.100 C 
BRANCH  19  20
ATOM     20  C   UNL     1      -1.592   7.173 -23.209  1.00  0.00     0.220 C 
ATOM     21  O   UNL     1      -0.857   7.855 -23.955  1.00  0.00    -0.275 OA
ATOM     22  N   UNL     1      -1.170   5.789 -23.075  1.00  0.00    -0.351 N 
ATOM     23  H   UNL     1      -1.762   5.198 -22.462  1.00  0.00     0.163 HD
BRANCH  22  24
ATOM     24  C   UNL     1      -0.018   5.286 -23.748  1.00  0.00     0.168 C 
BRANCH  24  25
ATOM     25  C   UNL     1       1.161   5.340 -22.861  1.00  0.00     0.061 C 
ATOM     26  O   UNL     1       1.053   5.491 -21.622  1.00  0.00    -0.548 OA
ATOM     27  O   UNL     1       2.422   5.220 -23.415  1.00  0.00    -0.548 OA
ENDBRANCH  24  25
ENDBRANCH  22  24
ENDBRANCH  19  20
ENDBRANCH  18  19
ENDBRANCH  17  18
ENDBRANCH  16  17
ENDBRANCH  14  15
ENDBRANCH   2  14
TORSDOF 16
ENDMDL
MODEL 3
REMARK VINA RESULT:      -4.8      2.183      4.326
REMARK SMILES CCCCC/C=C\C/C=C\C/C=C\C/C=C\CCCC(=O)NCC(=O)[O-]
REMARK SMILES IDX 12 1 13 2 11 3 10 4 9 5 8 6 7 7 6 8 5 9 4 10 3 11 2 12 1 13
REMARK SMILES IDX 14 14 15 15 16 16 17 17 18 18 19 19 20 20 21 21 22 22 23 24
REMARK SMILES IDX 24 25 25 26 26 27
REMARK H PARENT 22 23
ROOT
ATOM      1  C   UNL     1      -6.626   6.788 -23.579  1.00  0.00    -0.027 C 
ATOM      2  C   UNL     1      -6.223   6.141 -24.625  1.00  0.00    -0.027 C 
ENDROOT
BRANCH   1   3
ATOM      3  C   UNL     1      -5.884   6.786 -22.309  1.00  0.00     0.054 C 
BRANCH   3   4
ATOM      4  C   UNL     1      -4.891   7.896 -22.331  1.00  0.00    -0.027 C 
ATOM      5  C   UNL     1      -3.770   7.941 -21.682  1.00  0.00    -0.027 C 
BRANCH   5   6
ATOM      6  C   UNL     1      -3.386   6.788 -20.812  1.00  0.00     0.054 C 
BRANCH   6   7
ATOM      7  C   UNL     1      -2.832   7.296 -19.537  1.00  0.00    -0.027 C 
ATOM      8  C   UNL     1      -3.496   7.170 -18.411  1.00  0.00    -0.031 C 
BRANCH   8   9
ATOM      9  C   UNL     1      -4.812   6.550 -18.244  1.00  0.00     0.027 C 
BRANCH   9  10
ATOM     10  C   UNL     1      -5.883   7.559 -17.867  1.00  0.00     0.004 C 
BRANCH  10  11
ATOM     11  C   UNL     1      -5.340   8.957 -17.781  1.00  0.00     0.000 C 
BRANCH  11  12
ATOM     12  C   UNL     1      -6.249   9.979 -18.417  1.00  0.00    -0.003 C 
ATOM     13  C   UNL     1      -5.767  10.431 -19.757  1.00  0.00     0.004 C 
ENDBRANCH  11  12
ENDBRANCH  10  11
ENDBRANCH   9  10
ENDBRANCH   8   9
ENDBRANCH   6   7
ENDBRANCH   5   6
ENDBRANCH   3   4
ENDBRANCH   1   3
BRANCH   2  14
ATOM     14  C   UNL     1      -4.999   5.315 -24.751  1.00  0.00     0.054 C 
BRANCH  14  15
ATOM     15  C   UNL     1      -3.954   6.093 -25.388  1.00  0.00    -0.027 C 
ATOM     16  C   UNL     1      -2.696   5.937 -25.190  1.00  0.00    -0.031 C 
BRANCH  16  17
ATOM     17  C   UNL     1      -2.093   4.992 -24.325  1.00  0.00     0.027 C 
BRANCH  17  18
ATOM     18  C   UNL     1      -1.175   5.546 -23.289  1.00  0.00     0.014 C 
BRANCH  18  19
ATOM     19  C   UNL     1       0.101   4.846 -23.151  1.00  0.00     0.100 C 
BRANCH  19  20
ATOM     20  C   UNL     1       1.362   5.573 -23.294  1.00  0.00     0.220 C 
ATOM     21  O   UNL     1       2.082   6.040 -22.386  1.00  0.00    -0.275 OA
ATOM     22  N   UNL     1       1.883   5.805 -24.631  1.00  0.00    -0.351 N 
ATOM     23  H   UNL     1       1.307   5.428 -25.408  1.00  0.00     0.163 HD
BRANCH  22  24
ATOM     24  C   UNL     1       3.105   6.505 -24.851  1.00  0.00     0.168 C 
BRANCH  24  25
ATOM     25  C   UNL     1       2.838   7.852 -25.392  1.00  0.00     0.061 C 
ATOM     26  O   UNL     1       1.677   8.242 -25.657  1.00  0.00    -0.548 OA
ATOM     27  O   UNL     1       3.900   8.709 -25.611  1.00  0.00    -0.548 OA
ENDBRANCH  24  25
ENDBRANCH  22  24
ENDBRANCH  19  20
ENDBRANCH  18  19
ENDBRANCH  17  18
ENDBRANCH  16  17
ENDBRANCH  14  15
ENDBRANCH   2  14
TORSDOF 16
ENDMDL
MODEL 4
REMARK VINA RESULT:      -4.7      2.352      4.377
REMARK SMILES CCCCC/C=C\C/C=C\C/C=C\C/C=C\CCCC(=O)NCC(=O)[O-]
REMARK SMILES IDX 12 1 13 2 11 3 10 4 9 5 8 6 7 7 6 8 5 9 4 10 3 11 2 12 1 13
REMARK SMILES IDX 14 14 15 15 16 16 17 17 18 18 19 19 20 20 21 21 22 22 23 24
REMARK SMILES IDX 24 25 25 26 26 27
REMARK H PARENT 22 23
ROOT
ATOM      1  C   UNL     1      -2.979   8.368 -20.295  1.00  0.00    -0.027 C 
ATOM      2  C   UNL     1      -2.064   7.632 -20.840  1.00  0.00    -0.027 C 
ENDROOT
BRANCH   1   3
ATOM      3  C   UNL     1      -4.372   7.920 -20.145  1.00  0.00     0.054 C 
BRANCH   3   4
ATOM      4  C   UNL     1      -5.073   8.841 -19.207  1.00  0.00    -0.027 C 
ATOM      5  C   UNL     1      -5.687   8.508 -18.114  1.00  0.00    -0.027 C 
BRANCH   5   6
ATOM      6  C   UNL     1      -5.721   7.070 -17.709  1.00  0.00     0.054 C 
BRANCH   6   7
ATOM      7  C   UNL     1      -4.648   6.810 -16.723  1.00  0.00    -0.027 C 
ATOM      8  C   UNL     1      -4.908   6.751 -15.437  1.00  0.00    -0.031 C 
BRANCH   8   9
ATOM      9  C   UNL     1      -6.218   6.923 -14.807  1.00  0.00     0.027 C 
BRANCH   9  10
ATOM     10  C   UNL     1      -6.378   8.294 -14.173  1.00  0.00     0.004 C 
BRANCH  10  11
ATOM     11  C   UNL     1      -5.107   9.093 -14.221  1.00  0.00     0.000 C 
BRANCH  11  12
ATOM     12  C   UNL     1      -5.111  10.257 -13.262  1.00  0.00    -0.003 C 
ATOM     13  C   UNL     1      -5.989  10.029 -12.075  1.00  0.00     0.004 C 
ENDBRANCH  11  12
ENDBRANCH  10  11
ENDBRANCH   9  10
ENDBRANCH   8   9
ENDBRANCH   6   7
ENDBRANCH   5   6
ENDBRANCH   3   4
ENDBRANCH   1   3
BRANCH   2  14
ATOM     14  C   UNL     1      -2.222   6.265 -21.389  1.00  0.00     0.054 C 
BRANCH  14  15
ATOM     15  C   UNL     1      -1.041   5.480 -21.085  1.00  0.00    -0.027 C 
ATOM     16  C   UNL     1      -0.075   5.260 -21.899  1.00  0.00    -0.031 C 
BRANCH  16  17
ATOM     17  C   UNL     1       0.027   5.730 -23.230  1.00  0.00     0.027 C 
BRANCH  17  18
ATOM     18  C   UNL     1       0.499   4.740 -24.240  1.00  0.00     0.014 C 
BRANCH  18  19
ATOM     19  C   UNL     1       1.933   4.455 -24.207  1.00  0.00     0.100 C 
BRANCH  19  20
ATOM     20  C   UNL     1       2.904   5.538 -24.357  1.00  0.00     0.220 C 
ATOM     21  O   UNL     1       4.000   5.669 -23.770  1.00  0.00    -0.275 OA
ATOM     22  N   UNL     1       2.607   6.615 -25.287  1.00  0.00    -0.351 N 
ATOM     23  H   UNL     1       1.703   6.535 -25.790  1.00  0.00     0.163 HD
BRANCH  22  24
ATOM     24  C   UNL     1       3.504   7.705 -25.488  1.00  0.00     0.168 C 
BRANCH  24  25
ATOM     25  C   UNL     1       2.999   8.919 -24.817  1.00  0.00     0.061 C 
ATOM     26  O   UNL     1       3.710   9.939 -24.668  1.00  0.00    -0.548 OA
ATOM     27  O   UNL     1       1.702   8.929 -24.339  1.00  0.00    -0.548 OA
ENDBRANCH  24  25
ENDBRANCH  22  24
ENDBRANCH  19  20
ENDBRANCH  18  19
ENDBRANCH  17  18
ENDBRANCH  16  17
ENDBRANCH  14  15
ENDBRANCH   2  14
TORSDOF 16
ENDMDL
MODEL 5
REMARK VINA RESULT:      -4.6      5.515      8.448
REMARK SMILES CCCCC/C=C\C/C=C\C/C=C\C/C=C\CCCC(=O)NCC(=O)[O-]
REMARK SMILES IDX 12 1 13 2 11 3 10 4 9 5 8 6 7 7 6 8 5 9 4 10 3 11 2 12 1 13
REMARK SMILES IDX 14 14 15 15 16 16 17 17 18 18 19 19 20 20 21 21 22 22 23 24
REMARK SMILES IDX 24 25 25 26 26 27
REMARK H PARENT 22 23
ROOT
ATOM      1  C   UNL     1      -2.767   6.775 -21.000  1.00  0.00    -0.027 C 
ATOM      2  C   UNL     1      -2.714   6.371 -19.771  1.00  0.00    -0.027 C 
ENDROOT
BRANCH   1   3
ATOM      3  C   UNL     1      -3.870   7.598 -21.519  1.00  0.00     0.054 C 
BRANCH   3   4
ATOM      4  C   UNL     1      -4.849   6.711 -22.207  1.00  0.00    -0.027 C 
ATOM      5  C   UNL     1      -6.137   6.855 -22.232  1.00  0.00    -0.027 C 
BRANCH   5   6
ATOM      6  C   UNL     1      -6.752   8.013 -21.515  1.00  0.00     0.054 C 
BRANCH   6   7
ATOM      7  C   UNL     1      -7.256   7.566 -20.197  1.00  0.00    -0.027 C 
ATOM      8  C   UNL     1      -6.937   8.205 -19.096  1.00  0.00    -0.031 C 
BRANCH   8   9
ATOM      9  C   UNL     1      -6.081   9.389 -18.997  1.00  0.00     0.027 C 
BRANCH   9  10
ATOM     10  C   UNL     1      -6.866  10.642 -18.649  1.00  0.00     0.004 C 
BRANCH  10  11
ATOM     11  C   UNL     1      -7.267  11.418 -19.872  1.00  0.00     0.000 C 
BRANCH  11  12
ATOM     12  C   UNL     1      -6.150  11.545 -20.877  1.00  0.00    -0.003 C 
ATOM     13  C   UNL     1      -6.624  12.014 -22.215  1.00  0.00     0.004 C 
ENDBRANCH  11  12
ENDBRANCH  10  11
ENDBRANCH   9  10
ENDBRANCH   8   9
ENDBRANCH   6   7
ENDBRANCH   5   6
ENDBRANCH   3   4
ENDBRANCH   1   3
BRANCH   2  14
ATOM     14  C   UNL     1      -3.697   6.643 -18.696  1.00  0.00     0.054 C 
BRANCH  14  15
ATOM     15  C   UNL     1      -3.178   7.668 -17.812  1.00  0.00    -0.027 C 
ATOM     16  C   UNL     1      -3.549   7.849 -16.598  1.00  0.00    -0.031 C 
BRANCH  16  17
ATOM     17  C   UNL     1      -4.523   7.099 -15.895  1.00  0.00     0.027 C 
BRANCH  17  18
ATOM     18  C   UNL     1      -5.818   7.790 -15.634  1.00  0.00     0.014 C 
BRANCH  18  19
ATOM     19  C   UNL     1      -6.938   6.908 -15.310  1.00  0.00     0.100 C 
BRANCH  19  20
ATOM     20  C   UNL     1      -7.858   7.250 -14.225  1.00  0.00     0.220 C 
ATOM     21  O   UNL     1      -9.080   6.999 -14.152  1.00  0.00    -0.275 OA
ATOM     22  N   UNL     1      -7.337   7.966 -13.073  1.00  0.00    -0.351 N 
ATOM     23  H   UNL     1      -6.324   8.189 -13.104  1.00  0.00     0.163 HD
BRANCH  22  24
ATOM     24  C   UNL     1      -8.171   8.334 -11.976  1.00  0.00     0.168 C 
BRANCH  24  25
ATOM     25  C   UNL     1      -7.749   9.636 -11.422  1.00  0.00     0.061 C 
ATOM     26  O   UNL     1      -8.552  10.398 -10.835  1.00  0.00    -0.548 OA
ATOM     27  O   UNL     1      -6.430  10.026 -11.558  1.00  0.00    -0.548 OA
ENDBRANCH  24  25
ENDBRANCH  22  24
ENDBRANCH  19  20
ENDBRANCH  18  19
ENDBRANCH  17  18
ENDBRANCH  16  17
ENDBRANCH  14  15
ENDBRANCH   2  14
TORSDOF 16
ENDMDL
MODEL 6
REMARK VINA RESULT:      -4.6      3.166      7.070
REMARK SMILES CCCCC/C=C\C/C=C\C/C=C\C/C=C\CCCC(=O)NCC(=O)[O-]
REMARK SMILES IDX 12 1 13 2 11 3 10 4 9 5 8 6 7 7 6 8 5 9 4 10 3 11 2 12 1 13
REMARK SMILES IDX 14 14 15 15 16 16 17 17 18 18 19 19 20 20 21 21 22 22 23 24
REMARK SMILES IDX 24 25 25 26 26 27
REMARK H PARENT 22 23
ROOT
ATOM      1  C   UNL     1       1.881   5.269 -20.874  1.00  0.00    -0.027 C 
ATOM      2  C   UNL     1       2.943   5.511 -21.575  1.00  0.00    -0.027 C 
ENDROOT
BRANCH   1   3
ATOM      3  C   UNL     1       0.564   5.834 -21.207  1.00  0.00     0.054 C 
BRANCH   3   4
ATOM      4  C   UNL     1      -0.146   4.893 -22.116  1.00  0.00    -0.027 C 
ATOM      5  C   UNL     1      -0.935   5.213 -23.094  1.00  0.00    -0.027 C 
BRANCH   5   6
ATOM      6  C   UNL     1      -1.188   6.658 -23.381  1.00  0.00     0.054 C 
BRANCH   6   7
ATOM      7  C   UNL     1      -2.638   6.872 -23.591  1.00  0.00    -0.027 C 
ATOM      8  C   UNL     1      -3.282   7.824 -22.955  1.00  0.00    -0.031 C 
BRANCH   8   9
ATOM      9  C   UNL     1      -2.708   8.767 -21.993  1.00  0.00     0.027 C 
BRANCH   9  10
ATOM     10  C   UNL     1      -3.222   8.536 -20.582  1.00  0.00     0.004 C 
BRANCH  10  11
ATOM     11  C   UNL     1      -2.471   7.442 -19.877  1.00  0.00     0.000 C 
BRANCH  11  12
ATOM     12  C   UNL     1      -3.378   6.499 -19.127  1.00  0.00    -0.003 C 
ATOM     13  C   UNL     1      -4.617   7.164 -18.620  1.00  0.00     0.004 C 
ENDBRANCH  11  12
ENDBRANCH  10  11
ENDBRANCH   9  10
ENDBRANCH   8   9
ENDBRANCH   6   7
ENDBRANCH   5   6
ENDBRANCH   3   4
ENDBRANCH   1   3
BRANCH   2  14
ATOM     14  C   UNL     1       3.043   6.356 -22.787  1.00  0.00     0.054 C 
BRANCH  14  15
ATOM     15  C   UNL     1       3.801   5.654 -23.805  1.00  0.00    -0.027 C 
ATOM     16  C   UNL     1       3.297   5.086 -24.838  1.00  0.00    -0.031 C 
BRANCH  16  17
ATOM     17  C   UNL     1       1.924   5.031 -25.181  1.00  0.00     0.027 C 
BRANCH  17  18
ATOM     18  C   UNL     1       1.411   6.158 -26.011  1.00  0.00     0.014 C 
BRANCH  18  19
ATOM     19  C   UNL     1       2.438   6.958 -26.676  1.00  0.00     0.100 C 
BRANCH  19  20
ATOM     20  C   UNL     1       2.683   8.339 -26.261  1.00  0.00     0.220 C 
ATOM     21  O   UNL     1       3.355   9.208 -26.856  1.00  0.00    -0.275 OA
ATOM     22  N   UNL     1       2.095   8.805 -25.016  1.00  0.00    -0.351 N 
ATOM     23  H   UNL     1       1.530   8.105 -24.498  1.00  0.00     0.163 HD
BRANCH  22  24
ATOM     24  C   UNL     1       2.288  10.137 -24.545  1.00  0.00     0.168 C 
BRANCH  24  25
ATOM     25  C   UNL     1       1.002  10.862 -24.509  1.00  0.00     0.061 C 
ATOM     26  O   UNL     1       0.868  12.000 -25.013  1.00  0.00    -0.548 OA
ATOM     27  O   UNL     1      -0.085  10.266 -23.898  1.00  0.00    -0.548 OA
ENDBRANCH  24  25
ENDBRANCH  22  24
ENDBRANCH  19  20
ENDBRANCH  18  19
ENDBRANCH  17  18
ENDBRANCH  16  17
ENDBRANCH  14  15
ENDBRANCH   2  14
TORSDOF 16
ENDMDL
MODEL 7
REMARK VINA RESULT:      -4.6      1.570      2.616
REMARK SMILES CCCCC/C=C\C/C=C\C/C=C\C/C=C\CCCC(=O)NCC(=O)[O-]
REMARK SMILES IDX 12 1 13 2 11 3 10 4 9 5 8 6 7 7 6 8 5 9 4 10 3 11 2 12 1 13
REMARK SMILES IDX 14 14 15 15 16 16 17 17 18 18 19 19 20 20 21 21 22 22 23 24
REMARK SMILES IDX 24 25 25 26 26 27
REMARK H PARENT 22 23
ROOT
ATOM      1  C   UNL     1      -4.570   9.232 -19.826  1.00  0.00    -0.027 C 
ATOM      2  C   UNL     1      -4.800   9.677 -21.021  1.00  0.00    -0.027 C 
ENDROOT
BRANCH   1   3
ATOM      3  C   UNL     1      -3.887   7.953 -19.574  1.00  0.00     0.054 C 
BRANCH   3   4
ATOM      4  C   UNL     1      -3.347   7.964 -18.186  1.00  0.00    -0.027 C 
ATOM      5  C   UNL     1      -3.837   7.338 -17.162  1.00  0.00    -0.027 C 
BRANCH   5   6
ATOM      6  C   UNL     1      -5.067   6.507 -17.339  1.00  0.00     0.054 C 
BRANCH   6   7
ATOM      7  C   UNL     1      -6.266   7.357 -17.163  1.00  0.00    -0.027 C 
ATOM      8  C   UNL     1      -6.857   7.463 -15.995  1.00  0.00    -0.031 C 
BRANCH   8   9
ATOM      9  C   UNL     1      -6.453   6.797 -14.754  1.00  0.00     0.027 C 
BRANCH   9  10
ATOM     10  C   UNL     1      -7.401   7.094 -13.605  1.00  0.00     0.004 C 
BRANCH  10  11
ATOM     11  C   UNL     1      -7.636   8.568 -13.429  1.00  0.00     0.000 C 
BRANCH  11  12
ATOM     12  C   UNL     1      -6.516   9.256 -12.689  1.00  0.00    -0.003 C 
ATOM     13  C   UNL     1      -5.813  10.279 -13.520  1.00  0.00     0.004 C 
ENDBRANCH  11  12
ENDBRANCH  10  11
ENDBRANCH   9  10
ENDBRANCH   8   9
ENDBRANCH   6   7
ENDBRANCH   5   6
ENDBRANCH   3   4
ENDBRANCH   1   3
BRANCH   2  14
ATOM     14  C   UNL     1      -4.441   9.028 -22.303  1.00  0.00     0.054 C 
BRANCH  14  15
ATOM     15  C   UNL     1      -5.407   7.990 -22.608  1.00  0.00    -0.027 C 
ATOM     16  C   UNL     1      -5.116   6.775 -22.893  1.00  0.00    -0.031 C 
BRANCH  16  17
ATOM     17  C   UNL     1      -3.817   6.217 -22.966  1.00  0.00     0.027 C 
BRANCH  17  18
ATOM     18  C   UNL     1      -3.297   5.945 -24.336  1.00  0.00     0.014 C 
BRANCH  18  19
ATOM     19  C   UNL     1      -2.570   4.686 -24.487  1.00  0.00     0.100 C 
BRANCH  19  20
ATOM     20  C   UNL     1      -1.108   4.677 -24.529  1.00  0.00     0.220 C 
ATOM     21  O   UNL     1      -0.373   4.505 -25.525  1.00  0.00    -0.275 OA
ATOM     22  N   UNL     1      -0.376   4.890 -23.292  1.00  0.00    -0.351 N 
ATOM     23  H   UNL     1      -0.959   5.036 -22.446  1.00  0.00     0.163 HD
BRANCH  22  24
ATOM     24  C   UNL     1       1.050   4.896 -23.252  1.00  0.00     0.168 C 
BRANCH  24  25
ATOM     25  C   UNL     1       1.527   5.378 -21.941  1.00  0.00     0.061 C 
ATOM     26  O   UNL     1       0.755   5.522 -20.966  1.00  0.00    -0.548 OA
ATOM     27  O   UNL     1       2.867   5.680 -21.787  1.00  0.00    -0.548 OA
ENDBRANCH  24  25
ENDBRANCH  22  24
ENDBRANCH  19  20
ENDBRANCH  18  19
ENDBRANCH  17  18
ENDBRANCH  16  17
ENDBRANCH  14  15
ENDBRANCH   2  14
TORSDOF 16
ENDMDL
MODEL 8
REMARK VINA RESULT:      -4.5      6.300      9.963
REMARK SMILES CCCCC/C=C\C/C=C\C/C=C\C/C=C\CCCC(=O)NCC(=O)[O-]
REMARK SMILES IDX 12 1 13 2 11 3 10 4 9 5 8 6 7 7 6 8 5 9 4 10 3 11 2 12 1 13
REMARK SMILES IDX 14 14 15 15 16 16 17 17 18 18 19 19 20 20 21 21 22 22 23 24
REMARK SMILES IDX 24 25 25 26 26 27
REMARK H PARENT 22 23
ROOT
ATOM      1  C   UNL     1       2.104   5.935 -22.920  1.00  0.00    -0.027 C 
ATOM      2  C   UNL     1       1.203   5.102 -22.507  1.00  0.00    -0.027 C 
ENDROOT
BRANCH   1   3
ATOM      3  C   UNL     1       1.925   6.770 -24.117  1.00  0.00     0.054 C 
BRANCH   3   4
ATOM      4  C   UNL     1       3.264   7.189 -24.616  1.00  0.00    -0.027 C 
ATOM      5  C   UNL     1       3.503   8.006 -25.594  1.00  0.00    -0.027 C 
BRANCH   5   6
ATOM      6  C   UNL     1       2.352   8.617 -26.327  1.00  0.00     0.054 C 
BRANCH   6   7
ATOM      7  C   UNL     1       2.392   8.197 -27.746  1.00  0.00    -0.027 C 
ATOM      8  C   UNL     1       1.479   7.394 -28.242  1.00  0.00    -0.031 C 
BRANCH   8   9
ATOM      9  C   UNL     1       0.344   6.817 -27.517  1.00  0.00     0.027 C 
BRANCH   9  10
ATOM     10  C   UNL     1       0.193   5.328 -27.772  1.00  0.00     0.004 C 
BRANCH  10  11
ATOM     11  C   UNL     1       0.539   4.506 -26.563  1.00  0.00     0.000 C 
BRANCH  11  12
ATOM     12  C   UNL     1       2.008   4.169 -26.485  1.00  0.00    -0.003 C 
ATOM     13  C   UNL     1       2.305   3.097 -25.487  1.00  0.00     0.004 C 
ENDBRANCH  11  12
ENDBRANCH  10  11
ENDBRANCH   9  10
ENDBRANCH   8   9
ENDBRANCH   6   7
ENDBRANCH   5   6
ENDBRANCH   3   4
ENDBRANCH   1   3
BRANCH   2  14
ATOM     14  C   UNL     1      -0.119   4.837 -23.120  1.00  0.00     0.054 C 
BRANCH  14  15
ATOM     15  C   UNL     1      -1.106   5.733 -22.549  1.00  0.00    -0.027 C 
ATOM     16  C   UNL     1      -2.132   6.188 -23.169  1.00  0.00    -0.031 C 
BRANCH  16  17
ATOM     17  C   UNL     1      -2.496   5.912 -24.509  1.00  0.00     0.027 C 
BRANCH  17  18
ATOM     18  C   UNL     1      -3.370   4.722 -24.718  1.00  0.00     0.014 C 
BRANCH  18  19
ATOM     19  C   UNL     1      -2.845   3.721 -25.645  1.00  0.00     0.100 C 
BRANCH  19  20
ATOM     20  C   UNL     1      -3.215   3.758 -27.060  1.00  0.00     0.220 C 
ATOM     21  O   UNL     1      -3.271   4.757 -27.809  1.00  0.00    -0.275 OA
ATOM     22  N   UNL     1      -3.568   2.512 -27.718  1.00  0.00    -0.351 N 
ATOM     23  H   UNL     1      -3.531   1.664 -27.122  1.00  0.00     0.163 HD
BRANCH  22  24
ATOM     24  C   UNL     1      -3.939   2.467 -29.095  1.00  0.00     0.168 C 
BRANCH  24  25
ATOM     25  C   UNL     1      -2.805   2.007 -29.920  1.00  0.00     0.061 C 
ATOM     26  O   UNL     1      -2.429   0.812 -29.923  1.00  0.00    -0.548 OA
ATOM     27  O   UNL     1      -2.138   2.922 -30.711  1.00  0.00    -0.548 OA
ENDBRANCH  24  25
ENDBRANCH  22  24
ENDBRANCH  19  20
ENDBRANCH  18  19
ENDBRANCH  17  18
ENDBRANCH  16  17
ENDBRANCH  14  15
ENDBRANCH   2  14
TORSDOF 16
ENDMDL
MODEL 9
REMARK VINA RESULT:      -4.5      2.512      4.377
REMARK SMILES CCCCC/C=C\C/C=C\C/C=C\C/C=C\CCCC(=O)NCC(=O)[O-]
REMARK SMILES IDX 12 1 13 2 11 3 10 4 9 5 8 6 7 7 6 8 5 9 4 10 3 11 2 12 1 13
REMARK SMILES IDX 14 14 15 15 16 16 17 17 18 18 19 19 20 20 21 21 22 22 23 24
REMARK SMILES IDX 24 25 25 26 26 27
REMARK H PARENT 22 23
ROOT
ATOM      1  C   UNL     1      -4.492   6.997 -22.434  1.00  0.00    -0.027 C 
ATOM      2  C   UNL     1      -4.790   6.263 -23.458  1.00  0.00    -0.027 C 
ENDROOT
BRANCH   1   3
ATOM      3  C   UNL     1      -3.166   7.608 -22.254  1.00  0.00     0.054 C 
BRANCH   3   4
ATOM      4  C   UNL     1      -2.279   6.633 -21.559  1.00  0.00    -0.027 C 
ATOM      5  C   UNL     1      -2.185   6.452 -20.279  1.00  0.00    -0.027 C 
BRANCH   5   6
ATOM      6  C   UNL     1      -3.031   7.278 -19.364  1.00  0.00     0.054 C 
BRANCH   6   7
ATOM      7  C   UNL     1      -3.875   6.387 -18.537  1.00  0.00    -0.027 C 
ATOM      8  C   UNL     1      -4.342   6.782 -17.374  1.00  0.00    -0.031 C 
BRANCH   8   9
ATOM      9  C   UNL     1      -4.115   8.084 -16.745  1.00  0.00     0.027 C 
BRANCH   9  10
ATOM     10  C   UNL     1      -5.357   8.958 -16.763  1.00  0.00     0.004 C 
BRANCH  10  11
ATOM     11  C   UNL     1      -6.040   9.001 -15.425  1.00  0.00     0.000 C 
BRANCH  11  12
ATOM     12  C   UNL     1      -5.073   8.916 -14.270  1.00  0.00    -0.003 C 
ATOM     13  C   UNL     1      -5.120  10.117 -13.383  1.00  0.00     0.004 C 
ENDBRANCH  11  12
ENDBRANCH  10  11
ENDBRANCH   9  10
ENDBRANCH   8   9
ENDBRANCH   6   7
ENDBRANCH   5   6
ENDBRANCH   3   4
ENDBRANCH   1   3
BRANCH   2  14
ATOM     14  C   UNL     1      -3.908   5.910 -24.594  1.00  0.00     0.054 C 
BRANCH  14  15
ATOM     15  C   UNL     1      -4.043   4.497 -24.892  1.00  0.00    -0.027 C 
ATOM     16  C   UNL     1      -3.192   3.798 -25.549  1.00  0.00    -0.031 C 
BRANCH  16  17
ATOM     17  C   UNL     1      -1.975   4.262 -26.105  1.00  0.00     0.027 C 
BRANCH  17  18
ATOM     18  C   UNL     1      -0.861   4.492 -25.142  1.00  0.00     0.014 C 
BRANCH  18  19
ATOM     19  C   UNL     1       0.251   5.288 -25.657  1.00  0.00     0.100 C 
BRANCH  19  20
ATOM     20  C   UNL     1       0.940   6.243 -24.790  1.00  0.00     0.220 C 
ATOM     21  O   UNL     1       0.448   6.939 -23.875  1.00  0.00    -0.275 OA
ATOM     22  N   UNL     1       2.368   6.443 -24.972  1.00  0.00    -0.351 N 
ATOM     23  H   UNL     1       2.807   5.879 -25.725  1.00  0.00     0.163 HD
BRANCH  22  24
ATOM     24  C   UNL     1       3.109   7.356 -24.166  1.00  0.00     0.168 C 
BRANCH  24  25
ATOM     25  C   UNL     1       3.450   8.567 -24.938  1.00  0.00     0.061 C 
ATOM     26  O   UNL     1       3.437   9.708 -24.422  1.00  0.00    -0.548 OA
ATOM     27  O   UNL     1       3.793   8.437 -26.271  1.00  0.00    -0.548 OA
ENDBRANCH  24  25
ENDBRANCH  22  24
ENDBRANCH  19  20
ENDBRANCH  18  19
ENDBRANCH  17  18
ENDBRANCH  16  17
ENDBRANCH  14  15
ENDBRANCH   2  14
TORSDOF 16
ENDMDL
