MODEL 1
REMARK VINA RESULT:      -5.3      0.000      0.000
REMARK SMILES Cc1cc(=O)oc2cc([O-])c(O)cc12
REMARK SMILES IDX 1 1 2 2 3 3 4 4 5 5 6 6 7 7 8 8 9 9 10 10 11 11 13 12 14 13
REMARK SMILES IDX 12 14
REMARK H PARENT 12 15
ROOT
ATOM      1  C   UNL     1      19.709 -13.127   8.357  1.00  0.00     0.045 C 
ATOM      2  C   UNL     1      21.026 -13.788   8.245  1.00  0.00    -0.033 A 
ATOM      3  C   UNL     1      22.199 -13.122   8.528  1.00  0.00     0.098 A 
ATOM      4  C   UNL     1      23.419 -13.753   8.417  1.00  0.00     0.336 A 
ATOM      5  O   UNL     1      24.503 -13.130   8.682  1.00  0.00    -0.246 OA
ATOM      6  O   UNL     1      23.438 -15.008   8.034  1.00  0.00    -0.423 OA
ATOM      7  C   UNL     1      22.365 -15.704   7.748  1.00  0.00     0.138 A 
ATOM      8  C   UNL     1      22.509 -17.022   7.355  1.00  0.00     0.043 A 
ATOM      9  C   UNL     1      21.372 -17.749   7.056  1.00  0.00    -0.062 A 
ATOM     10  O   UNL     1      21.515 -19.076   6.659  1.00  0.00    -0.870 OA
ATOM     11  C   UNL     1      20.123 -17.150   7.154  1.00  0.00     0.108 A 
ATOM     12  C   UNL     1      20.008 -15.822   7.553  1.00  0.00     0.057 A 
ATOM     13  C   UNL     1      21.140 -15.105   7.849  1.00  0.00     0.024 A 
ENDROOT
BRANCH  11  14
ATOM     14  O   UNL     1      18.991 -17.892   6.851  1.00  0.00    -0.509 OA
ATOM     15  H   UNL     1      18.767 -18.711   7.416  1.00  0.00     0.293 HD
ENDBRANCH  11  14
TORSDOF 1
ENDMDL
MODEL 2
REMARK VINA RESULT:      -5.2     16.199     17.693
REMARK SMILES Cc1cc(=O)oc2cc([O-])c(O)cc12
REMARK SMILES IDX 1 1 2 2 3 3 4 4 5 5 6 6 7 7 8 8 9 9 10 10 11 11 13 12 14 13
REMARK SMILES IDX 12 14
REMARK H PARENT 12 15
ROOT
ATOM      1  C   UNL     1      29.673 -25.135  14.644  1.00  0.00     0.045 C 
ATOM      2  C   UNL     1      29.762 -26.141  15.722  1.00  0.00    -0.033 A 
ATOM      3  C   UNL     1      28.864 -26.165  16.769  1.00  0.00     0.098 A 
ATOM      4  C   UNL     1      28.962 -27.110  17.766  1.00  0.00     0.336 A 
ATOM      5  O   UNL     1      28.126 -27.127  18.734  1.00  0.00    -0.246 OA
ATOM      6  O   UNL     1      29.933 -27.991  17.698  1.00  0.00    -0.423 OA
ATOM      7  C   UNL     1      30.821 -28.029  16.735  1.00  0.00     0.138 A 
ATOM      8  C   UNL     1      31.800 -29.006  16.768  1.00  0.00     0.043 A 
ATOM      9  C   UNL     1      32.733 -29.039  15.749  1.00  0.00    -0.062 A 
ATOM     10  O   UNL     1      33.719 -30.021  15.781  1.00  0.00    -0.870 OA
ATOM     11  C   UNL     1      32.670 -28.104  14.724  1.00  0.00     0.108 A 
ATOM     12  C   UNL     1      31.673 -27.133  14.716  1.00  0.00     0.057 A 
ATOM     13  C   UNL     1      30.750 -27.104  15.730  1.00  0.00     0.024 A 
ENDROOT
BRANCH  11  14
ATOM     14  O   UNL     1      33.613 -28.151  13.708  1.00  0.00    -0.509 OA
ATOM     15  H   UNL     1      34.364 -28.839  13.757  1.00  0.00     0.293 HD
ENDBRANCH  11  14
TORSDOF 1
ENDMDL
MODEL 3
REMARK VINA RESULT:      -4.9      1.524      4.602
REMARK SMILES Cc1cc(=O)oc2cc([O-])c(O)cc12
REMARK SMILES IDX 1 1 2 2 3 3 4 4 5 5 6 6 7 7 8 8 9 9 10 10 11 11 13 12 14 13
REMARK SMILES IDX 12 14
REMARK H PARENT 12 15
ROOT
ATOM      1  C   UNL     1      18.382 -17.958   7.987  1.00  0.00     0.045 C 
ATOM      2  C   UNL     1      19.774 -18.129   7.520  1.00  0.00    -0.033 A 
ATOM      3  C   UNL     1      20.202 -19.298   6.928  1.00  0.00     0.098 A 
ATOM      4  C   UNL     1      21.503 -19.440   6.498  1.00  0.00     0.336 A 
ATOM      5  O   UNL     1      21.894 -20.527   5.949  1.00  0.00    -0.246 OA
ATOM      6  O   UNL     1      22.329 -18.435   6.667  1.00  0.00    -0.423 OA
ATOM      7  C   UNL     1      21.993 -17.296   7.222  1.00  0.00     0.138 A 
ATOM      8  C   UNL     1      22.951 -16.306   7.346  1.00  0.00     0.043 A 
ATOM      9  C   UNL     1      22.588 -15.107   7.933  1.00  0.00    -0.062 A 
ATOM     10  O   UNL     1      23.551 -14.110   8.059  1.00  0.00    -0.870 OA
ATOM     11  C   UNL     1      21.286 -14.923   8.379  1.00  0.00     0.108 A 
ATOM     12  C   UNL     1      20.343 -15.936   8.240  1.00  0.00     0.057 A 
ATOM     13  C   UNL     1      20.708 -17.124   7.658  1.00  0.00     0.024 A 
ENDROOT
BRANCH  11  14
ATOM     14  O   UNL     1      20.937 -13.715   8.965  1.00  0.00    -0.509 OA
ATOM     15  H   UNL     1      19.957 -13.431   8.975  1.00  0.00     0.293 HD
ENDBRANCH  11  14
TORSDOF 1
ENDMDL
MODEL 4
REMARK VINA RESULT:      -4.8     15.159     16.677
REMARK SMILES Cc1cc(=O)oc2cc([O-])c(O)cc12
REMARK SMILES IDX 1 1 2 2 3 3 4 4 5 5 6 6 7 7 8 8 9 9 10 10 11 11 13 12 14 13
REMARK SMILES IDX 12 14
REMARK H PARENT 12 15
ROOT
ATOM      1  C   UNL     1      30.497 -29.195  17.852  1.00  0.00     0.045 C 
ATOM      2  C   UNL     1      30.879 -28.342  16.707  1.00  0.00    -0.033 A 
ATOM      3  C   UNL     1      32.104 -28.466  16.086  1.00  0.00     0.098 A 
ATOM      4  C   UNL     1      32.444 -27.662  15.021  1.00  0.00     0.336 A 
ATOM      5  O   UNL     1      33.582 -27.783  14.449  1.00  0.00    -0.246 OA
ATOM      6  O   UNL     1      31.573 -26.771  14.609  1.00  0.00    -0.423 OA
ATOM      7  C   UNL     1      30.393 -26.596  15.150  1.00  0.00     0.138 A 
ATOM      8  C   UNL     1      29.557 -25.624  14.629  1.00  0.00     0.043 A 
ATOM      9  C   UNL     1      28.314 -25.446  15.206  1.00  0.00    -0.062 A 
ATOM     10  O   UNL     1      27.471 -24.468  14.683  1.00  0.00    -0.870 OA
ATOM     11  C   UNL     1      27.931 -26.236  16.282  1.00  0.00     0.108 A 
ATOM     12  C   UNL     1      28.792 -27.207  16.784  1.00  0.00     0.057 A 
ATOM     13  C   UNL     1      30.025 -27.380  16.209  1.00  0.00     0.024 A 
ENDROOT
BRANCH  11  14
ATOM     14  O   UNL     1      26.680 -26.046  16.849  1.00  0.00    -0.509 OA
ATOM     15  H   UNL     1      25.984 -25.494  16.346  1.00  0.00     0.293 HD
ENDBRANCH  11  14
TORSDOF 1
ENDMDL
MODEL 5
REMARK VINA RESULT:      -4.8     14.353     15.787
REMARK SMILES Cc1cc(=O)oc2cc([O-])c(O)cc12
REMARK SMILES IDX 1 1 2 2 3 3 4 4 5 5 6 6 7 7 8 8 9 9 10 10 11 11 13 12 14 13
REMARK SMILES IDX 12 14
REMARK H PARENT 12 15
ROOT
ATOM      1  C   UNL     1      26.771 -26.917  17.652  1.00  0.00     0.045 C 
ATOM      2  C   UNL     1      27.450 -26.195  16.556  1.00  0.00    -0.033 A 
ATOM      3  C   UNL     1      26.820 -25.192  15.849  1.00  0.00     0.098 A 
ATOM      4  C   UNL     1      27.468 -24.529  14.830  1.00  0.00     0.336 A 
ATOM      5  O   UNL     1      26.879 -23.599  14.178  1.00  0.00    -0.246 OA
ATOM      6  O   UNL     1      28.701 -24.875  14.545  1.00  0.00    -0.423 OA
ATOM      7  C   UNL     1      29.361 -25.817  15.172  1.00  0.00     0.138 A 
ATOM      8  C   UNL     1      30.659 -26.095  14.784  1.00  0.00     0.043 A 
ATOM      9  C   UNL     1      31.348 -27.091  15.451  1.00  0.00    -0.062 A 
ATOM     10  O   UNL     1      32.655 -27.372  15.062  1.00  0.00    -0.870 OA
ATOM     11  C   UNL     1      30.732 -27.783  16.485  1.00  0.00     0.108 A 
ATOM     12  C   UNL     1      29.425 -27.482  16.855  1.00  0.00     0.057 A 
ATOM     13  C   UNL     1      28.745 -26.493  16.189  1.00  0.00     0.024 A 
ENDROOT
BRANCH  11  14
ATOM     14  O   UNL     1      31.437 -28.779  17.145  1.00  0.00    -0.509 OA
ATOM     15  H   UNL     1      32.001 -29.433  16.602  1.00  0.00     0.293 HD
ENDBRANCH  11  14
TORSDOF 1
ENDMDL
MODEL 6
REMARK VINA RESULT:      -4.8     13.947     15.443
REMARK SMILES Cc1cc(=O)oc2cc([O-])c(O)cc12
REMARK SMILES IDX 1 1 2 2 3 3 4 4 5 5 6 6 7 7 8 8 9 9 10 10 11 11 13 12 14 13
REMARK SMILES IDX 12 14
REMARK H PARENT 12 15
ROOT
ATOM      1  C   UNL     1      26.253 -27.896  15.975  1.00  0.00     0.045 C 
ATOM      2  C   UNL     1      27.036 -26.733  15.509  1.00  0.00    -0.033 A 
ATOM      3  C   UNL     1      26.439 -25.523  15.222  1.00  0.00     0.098 A 
ATOM      4  C   UNL     1      27.184 -24.449  14.787  1.00  0.00     0.336 A 
ATOM      5  O   UNL     1      26.625 -23.331  14.523  1.00  0.00    -0.246 OA
ATOM      6  O   UNL     1      28.481 -24.604  14.651  1.00  0.00    -0.423 OA
ATOM      7  C   UNL     1      29.115 -25.722  14.904  1.00  0.00     0.138 A 
ATOM      8  C   UNL     1      30.486 -25.767  14.725  1.00  0.00     0.043 A 
ATOM      9  C   UNL     1      31.148 -26.950  14.994  1.00  0.00    -0.062 A 
ATOM     10  O   UNL     1      32.528 -26.997  14.813  1.00  0.00    -0.870 OA
ATOM     11  C   UNL     1      30.434 -28.057  15.434  1.00  0.00     0.108 A 
ATOM     12  C   UNL     1      29.056 -27.983  15.607  1.00  0.00     0.057 A 
ATOM     13  C   UNL     1      28.403 -26.806  15.338  1.00  0.00     0.024 A 
ENDROOT
BRANCH  11  14
ATOM     14  O   UNL     1      31.113 -29.237  15.700  1.00  0.00    -0.509 OA
ATOM     15  H   UNL     1      32.028 -29.194  16.149  1.00  0.00     0.293 HD
ENDBRANCH  11  14
TORSDOF 1
ENDMDL
MODEL 7
REMARK VINA RESULT:      -4.8     14.299     15.869
REMARK SMILES Cc1cc(=O)oc2cc([O-])c(O)cc12
REMARK SMILES IDX 1 1 2 2 3 3 4 4 5 5 6 6 7 7 8 8 9 9 10 10 11 11 13 12 14 13
REMARK SMILES IDX 12 14
REMARK H PARENT 12 15
ROOT
ATOM      1  C   UNL     1      28.833 -29.949  15.524  1.00  0.00     0.045 C 
ATOM      2  C   UNL     1      29.623 -28.719  15.311  1.00  0.00    -0.033 A 
ATOM      3  C   UNL     1      31.002 -28.729  15.335  1.00  0.00     0.098 A 
ATOM      4  C   UNL     1      31.723 -27.573  15.135  1.00  0.00     0.336 A 
ATOM      5  O   UNL     1      33.002 -27.589  15.158  1.00  0.00    -0.246 OA
ATOM      6  O   UNL     1      31.067 -26.457  14.919  1.00  0.00    -0.423 OA
ATOM      7  C   UNL     1      29.759 -26.372  14.883  1.00  0.00     0.138 A 
ATOM      8  C   UNL     1      29.177 -25.140  14.646  1.00  0.00     0.043 A 
ATOM      9  C   UNL     1      27.797 -25.059  14.609  1.00  0.00    -0.062 A 
ATOM     10  O   UNL     1      27.209 -23.819  14.372  1.00  0.00    -0.870 OA
ATOM     11  C   UNL     1      27.033 -26.201  14.806  1.00  0.00     0.108 A 
ATOM     12  C   UNL     1      27.646 -27.427  15.041  1.00  0.00     0.057 A 
ATOM     13  C   UNL     1      29.015 -27.503  15.078  1.00  0.00     0.024 A 
ENDROOT
BRANCH  11  14
ATOM     14  O   UNL     1      25.649 -26.104  14.766  1.00  0.00    -0.509 OA
ATOM     15  H   UNL     1      25.221 -25.239  14.436  1.00  0.00     0.293 HD
ENDBRANCH  11  14
TORSDOF 1
ENDMDL
MODEL 8
REMARK VINA RESULT:      -4.8     15.947     17.321
REMARK SMILES Cc1cc(=O)oc2cc([O-])c(O)cc12
REMARK SMILES IDX 1 1 2 2 3 3 4 4 5 5 6 6 7 7 8 8 9 9 10 10 11 11 13 12 14 13
REMARK SMILES IDX 12 14
REMARK H PARENT 12 15
ROOT
ATOM      1  C   UNL     1      29.782 -25.063  14.535  1.00  0.00     0.045 C 
ATOM      2  C   UNL     1      30.501 -26.219  15.111  1.00  0.00    -0.033 A 
ATOM      3  C   UNL     1      31.702 -26.656  14.595  1.00  0.00     0.098 A 
ATOM      4  C   UNL     1      32.359 -27.736  15.144  1.00  0.00     0.336 A 
ATOM      5  O   UNL     1      33.473 -28.137  14.661  1.00  0.00    -0.246 OA
ATOM      6  O   UNL     1      31.812 -28.342  16.172  1.00  0.00    -0.423 OA
ATOM      7  C   UNL     1      30.674 -27.982  16.713  1.00  0.00     0.138 A 
ATOM      8  C   UNL     1      30.196 -28.697  17.797  1.00  0.00     0.043 A 
ATOM      9  C   UNL     1      28.994 -28.311  18.362  1.00  0.00    -0.062 A 
ATOM     10  O   UNL     1      28.511 -29.030  19.453  1.00  0.00    -0.870 OA
ATOM     11  C   UNL     1      28.301 -27.228  17.839  1.00  0.00     0.108 A 
ATOM     12  C   UNL     1      28.807 -26.527  16.750  1.00  0.00     0.057 A 
ATOM     13  C   UNL     1      29.999 -26.914  16.191  1.00  0.00     0.024 A 
ENDROOT
BRANCH  11  14
ATOM     14  O   UNL     1      27.097 -26.853  18.418  1.00  0.00    -0.509 OA
ATOM     15  H   UNL     1      26.804 -27.297  19.288  1.00  0.00     0.293 HD
ENDBRANCH  11  14
TORSDOF 1
ENDMDL
MODEL 9
REMARK VINA RESULT:      -4.7     15.451     17.037
REMARK SMILES Cc1cc(=O)oc2cc([O-])c(O)cc12
REMARK SMILES IDX 1 1 2 2 3 3 4 4 5 5 6 6 7 7 8 8 9 9 10 10 11 11 13 12 14 13
REMARK SMILES IDX 12 14
REMARK H PARENT 12 15
ROOT
ATOM      1  C   UNL     1      30.545 -24.730  13.821  1.00  0.00     0.045 C 
ATOM      2  C   UNL     1      29.856 -25.678  14.722  1.00  0.00    -0.033 A 
ATOM      3  C   UNL     1      28.524 -25.531  15.048  1.00  0.00     0.098 A 
ATOM      4  C   UNL     1      27.897 -26.424  15.889  1.00  0.00     0.336 A 
ATOM      5  O   UNL     1      26.662 -26.283  16.187  1.00  0.00    -0.246 OA
ATOM      6  O   UNL     1      28.599 -27.421  16.376  1.00  0.00    -0.423 OA
ATOM      7  C   UNL     1      29.866 -27.622  16.110  1.00  0.00     0.138 A 
ATOM      8  C   UNL     1      30.503 -28.710  16.682  1.00  0.00     0.043 A 
ATOM      9  C   UNL     1      31.840 -28.915  16.396  1.00  0.00    -0.062 A 
ATOM     10  O   UNL     1      32.483 -30.008  16.971  1.00  0.00    -0.870 OA
ATOM     11  C   UNL     1      32.509 -28.039  15.553  1.00  0.00     0.108 A 
ATOM     12  C   UNL     1      31.843 -26.954  14.992  1.00  0.00     0.057 A 
ATOM     13  C   UNL     1      30.516 -26.754  15.278  1.00  0.00     0.024 A 
ENDROOT
BRANCH  11  14
ATOM     14  O   UNL     1      33.851 -28.259  15.276  1.00  0.00    -0.509 OA
ATOM     15  H   UNL     1      34.421 -28.770  15.950  1.00  0.00     0.293 HD
ENDBRANCH  11  14
TORSDOF 1
ENDMDL
