MODEL 1
REMARK VINA RESULT:     -10.0      0.000      0.000
REMARK SMILES O=C(CCC[NH+]1CCC(O)(c2ccc(Cl)cc2)CC1)c1ccc(F)cc1
REMARK SMILES IDX 4 1 3 2 2 3 1 4 20 5 21 6 26 7 22 8 25 9 23 10 24 11 5 12
REMARK SMILES IDX 6 13 7 14 19 15 8 16 18 17 9 18 10 20 11 22 12 23 17 24
REMARK SMILES IDX 13 25 16 26 14 27 15 28
REMARK H PARENT 6 19 10 21
ROOT
ATOM      1  C   UNL     1     -16.560  48.081 -34.672  1.00  0.00     0.070 C 
ENDROOT
BRANCH   1   2
ATOM      2  C   UNL     1     -15.592  49.078 -34.073  1.00  0.00     0.087 C 
BRANCH   2   3
ATOM      3  C   UNL     1     -15.947  50.479 -34.309  1.00  0.00     0.163 C 
ATOM      4  O   UNL     1     -17.137  50.879 -34.227  1.00  0.00    -0.294 OA
BRANCH   3   5
ATOM      5  C   UNL     1     -14.939  51.503 -34.655  1.00  0.00     0.018 A 
ATOM      6  C   UNL     1     -13.730  51.137 -35.219  1.00  0.00     0.015 A 
ATOM      7  C   UNL     1     -15.177  52.834 -34.427  1.00  0.00     0.015 A 
ATOM      8  C   UNL     1     -12.797  52.094 -35.538  1.00  0.00     0.040 A 
ATOM      9  C   UNL     1     -14.252  53.794 -34.742  1.00  0.00     0.040 A 
ATOM     10  C   UNL     1     -13.060  53.419 -35.299  1.00  0.00     0.123 A 
ATOM     11  F   UNL     1     -12.159  54.408 -35.599  1.00  0.00    -0.207 F 
ENDBRANCH   3   5
ENDBRANCH   2   3
ENDBRANCH   1   2
BRANCH   1  12
ATOM     12  C   UNL     1     -15.782  47.091 -35.470  1.00  0.00     0.262 C 
BRANCH  12  13
ATOM     13  N   UNL     1     -14.705  47.706 -36.236  1.00  0.00    -0.335 N 
ATOM     14  C   UNL     1     -13.457  47.027 -36.066  1.00  0.00     0.265 C 
ATOM     15  C   UNL     1     -15.062  47.773 -37.616  1.00  0.00     0.265 C 
ATOM     16  C   UNL     1     -13.543  45.591 -36.506  1.00  0.00     0.102 C 
ATOM     17  C   UNL     1     -14.405  46.822 -38.524  1.00  0.00     0.102 C 
ATOM     18  C   UNL     1     -13.913  45.542 -37.958  1.00  0.00     0.100 C 
ATOM     19  H   UNL     1     -14.585  48.669 -35.802  1.00  0.00     0.348 HD
BRANCH  18  20
ATOM     20  O   UNL     1     -12.722  45.215 -38.652  1.00  0.00    -0.385 OA
ATOM     21  H   UNL     1     -12.567  44.248 -38.507  1.00  0.00     0.211 HD
ENDBRANCH  18  20
BRANCH  18  22
ATOM     22  C   UNL     1     -14.834  44.386 -38.250  1.00  0.00    -0.016 A 
ATOM     23  C   UNL     1     -14.695  43.606 -39.379  1.00  0.00     0.008 A 
ATOM     24  C   UNL     1     -15.869  44.035 -37.412  1.00  0.00     0.008 A 
ATOM     25  C   UNL     1     -15.514  42.543 -39.683  1.00  0.00     0.021 A 
ATOM     26  C   UNL     1     -16.705  42.972 -37.696  1.00  0.00     0.021 A 
ATOM     27  C   UNL     1     -16.526  42.228 -38.830  1.00  0.00     0.041 A 
ATOM     28  Cl  UNL     1     -17.577  40.880 -39.195  1.00  0.00    -0.084 Cl
ENDBRANCH  18  22
ENDBRANCH  12  13
ENDBRANCH   1  12
TORSDOF 7
ENDMDL
MODEL 2
REMARK VINA RESULT:      -9.9      4.629      9.123
REMARK SMILES O=C(CCC[NH+]1CCC(O)(c2ccc(Cl)cc2)CC1)c1ccc(F)cc1
REMARK SMILES IDX 4 1 3 2 2 3 1 4 20 5 21 6 26 7 22 8 25 9 23 10 24 11 5 12
REMARK SMILES IDX 6 13 7 14 19 15 8 16 18 17 9 18 10 20 11 22 12 23 17 24
REMARK SMILES IDX 13 25 16 26 14 27 15 28
REMARK H PARENT 6 19 10 21
ROOT
ATOM      1  C   UNL     1     -14.707  44.590 -39.437  1.00  0.00     0.070 C 
ENDROOT
BRANCH   1   2
ATOM      2  C   UNL     1     -14.842  43.097 -39.237  1.00  0.00     0.087 C 
BRANCH   2   3
ATOM      3  C   UNL     1     -15.948  42.488 -39.978  1.00  0.00     0.163 C 
ATOM      4  O   UNL     1     -16.029  42.577 -41.230  1.00  0.00    -0.294 OA
BRANCH   3   5
ATOM      5  C   UNL     1     -17.030  41.734 -39.308  1.00  0.00     0.018 A 
ATOM      6  C   UNL     1     -17.960  42.390 -38.522  1.00  0.00     0.015 A 
ATOM      7  C   UNL     1     -17.136  40.374 -39.450  1.00  0.00     0.015 A 
ATOM      8  C   UNL     1     -18.963  41.683 -37.902  1.00  0.00     0.040 A 
ATOM      9  C   UNL     1     -18.132  39.663 -38.837  1.00  0.00     0.040 A 
ATOM     10  C   UNL     1     -19.046  40.323 -38.061  1.00  0.00     0.123 A 
ATOM     11  F   UNL     1     -20.028  39.577 -37.461  1.00  0.00    -0.207 F 
ENDBRANCH   3   5
ENDBRANCH   2   3
ENDBRANCH   1   2
BRANCH   1  12
ATOM     12  C   UNL     1     -14.597  45.237 -38.099  1.00  0.00     0.262 C 
BRANCH  12  13
ATOM     13  N   UNL     1     -15.308  44.504 -37.059  1.00  0.00    -0.335 N 
ATOM     14  C   UNL     1     -14.542  44.381 -35.856  1.00  0.00     0.265 C 
ATOM     15  C   UNL     1     -16.568  45.121 -36.797  1.00  0.00     0.265 C 
ATOM     16  C   UNL     1     -14.193  45.727 -35.283  1.00  0.00     0.102 C 
ATOM     17  C   UNL     1     -16.690  45.891 -35.551  1.00  0.00     0.102 C 
ATOM     18  C   UNL     1     -15.456  46.470 -34.964  1.00  0.00     0.100 C 
ATOM     19  H   UNL     1     -15.413  43.520 -37.449  1.00  0.00     0.348 HD
BRANCH  18  20
ATOM     20  O   UNL     1     -15.600  46.406 -33.556  1.00  0.00    -0.385 OA
ATOM     21  H   UNL     1     -15.229  45.534 -33.274  1.00  0.00     0.211 HD
ENDBRANCH  18  20
BRANCH  18  22
ATOM     22  C   UNL     1     -15.313  47.942 -35.250  1.00  0.00    -0.016 A 
ATOM     23  C   UNL     1     -14.156  48.476 -35.779  1.00  0.00     0.008 A 
ATOM     24  C   UNL     1     -16.323  48.846 -35.003  1.00  0.00     0.008 A 
ATOM     25  C   UNL     1     -13.985  49.813 -36.054  1.00  0.00     0.021 A 
ATOM     26  C   UNL     1     -16.174  50.193 -35.271  1.00  0.00     0.021 A 
ATOM     27  C   UNL     1     -15.006  50.675 -35.796  1.00  0.00     0.041 A 
ATOM     28  Cl  UNL     1     -14.809  52.376 -36.140  1.00  0.00    -0.084 Cl
ENDBRANCH  18  22
ENDBRANCH  12  13
ENDBRANCH   1  12
TORSDOF 7
ENDMDL
MODEL 3
REMARK VINA RESULT:      -9.9      0.208      1.317
REMARK SMILES O=C(CCC[NH+]1CCC(O)(c2ccc(Cl)cc2)CC1)c1ccc(F)cc1
REMARK SMILES IDX 4 1 3 2 2 3 1 4 20 5 21 6 26 7 22 8 25 9 23 10 24 11 5 12
REMARK SMILES IDX 6 13 7 14 19 15 8 16 18 17 9 18 10 20 11 22 12 23 17 24
REMARK SMILES IDX 13 25 16 26 14 27 15 28
REMARK H PARENT 6 19 10 21
ROOT
ATOM      1  C   UNL     1     -16.493  47.907 -34.525  1.00  0.00     0.070 C 
ENDROOT
BRANCH   1   2
ATOM      2  C   UNL     1     -15.444  48.944 -34.194  1.00  0.00     0.087 C 
BRANCH   2   3
ATOM      3  C   UNL     1     -15.891  50.329 -34.363  1.00  0.00     0.163 C 
ATOM      4  O   UNL     1     -17.105  50.644 -34.266  1.00  0.00    -0.294 OA
BRANCH   3   5
ATOM      5  C   UNL     1     -14.953  51.434 -34.654  1.00  0.00     0.018 A 
ATOM      6  C   UNL     1     -15.285  52.738 -34.336  1.00  0.00     0.015 A 
ATOM      7  C   UNL     1     -13.738  51.193 -35.242  1.00  0.00     0.015 A 
ATOM      8  C   UNL     1     -14.408  53.761 -34.610  1.00  0.00     0.040 A 
ATOM      9  C   UNL     1     -12.859  52.206 -35.517  1.00  0.00     0.040 A 
ATOM     10  C   UNL     1     -13.199  53.492 -35.199  1.00  0.00     0.123 A 
ATOM     11  F   UNL     1     -12.295  54.480 -35.492  1.00  0.00    -0.207 F 
ENDBRANCH   3   5
ENDBRANCH   2   3
ENDBRANCH   1   2
BRANCH   1  12
ATOM     12  C   UNL     1     -16.009  47.099 -35.680  1.00  0.00     0.262 C 
BRANCH  12  13
ATOM     13  N   UNL     1     -14.906  47.735 -36.390  1.00  0.00    -0.335 N 
ATOM     14  C   UNL     1     -13.645  47.122 -36.104  1.00  0.00     0.265 C 
ATOM     15  C   UNL     1     -15.162  47.737 -37.793  1.00  0.00     0.265 C 
ATOM     16  C   UNL     1     -13.636  45.669 -36.493  1.00  0.00     0.102 C 
ATOM     17  C   UNL     1     -14.399  46.786 -38.614  1.00  0.00     0.102 C 
ATOM     18  C   UNL     1     -13.895  45.551 -37.965  1.00  0.00     0.100 C 
ATOM     19  H   UNL     1     -14.860  48.718 -35.986  1.00  0.00     0.348 HD
BRANCH  18  20
ATOM     20  O   UNL     1     -12.642  45.256 -38.557  1.00  0.00    -0.385 OA
ATOM     21  H   UNL     1     -12.016  45.962 -38.261  1.00  0.00     0.211 HD
ENDBRANCH  18  20
BRANCH  18  22
ATOM     22  C   UNL     1     -14.740  44.344 -38.278  1.00  0.00    -0.016 A 
ATOM     23  C   UNL     1     -15.623  43.812 -37.361  1.00  0.00     0.008 A 
ATOM     24  C   UNL     1     -14.685  43.696 -39.492  1.00  0.00     0.008 A 
ATOM     25  C   UNL     1     -16.413  42.712 -37.607  1.00  0.00     0.021 A 
ATOM     26  C   UNL     1     -15.467  42.590 -39.761  1.00  0.00     0.021 A 
ATOM     27  C   UNL     1     -16.330  42.099 -38.819  1.00  0.00     0.041 A 
ATOM     28  Cl  UNL     1     -17.324  40.702 -39.152  1.00  0.00    -0.084 Cl
ENDBRANCH  18  22
ENDBRANCH  12  13
ENDBRANCH   1  12
TORSDOF 7
ENDMDL
MODEL 4
REMARK VINA RESULT:      -9.8      0.451      1.038
REMARK SMILES O=C(CCC[NH+]1CCC(O)(c2ccc(Cl)cc2)CC1)c1ccc(F)cc1
REMARK SMILES IDX 4 1 3 2 2 3 1 4 20 5 21 6 26 7 22 8 25 9 23 10 24 11 5 12
REMARK SMILES IDX 6 13 7 14 19 15 8 16 18 17 9 18 10 20 11 22 12 23 17 24
REMARK SMILES IDX 13 25 16 26 14 27 15 28
REMARK H PARENT 6 19 10 21
ROOT
ATOM      1  C   UNL     1     -16.594  48.250 -34.773  1.00  0.00     0.070 C 
ENDROOT
BRANCH   1   2
ATOM      2  C   UNL     1     -16.343  49.643 -35.308  1.00  0.00     0.087 C 
BRANCH   2   3
ATOM      3  C   UNL     1     -15.777  50.572 -34.328  1.00  0.00     0.163 C 
ATOM      4  O   UNL     1     -16.104  50.527 -33.114  1.00  0.00    -0.294 OA
BRANCH   3   5
ATOM      5  C   UNL     1     -14.793  51.611 -34.699  1.00  0.00     0.018 A 
ATOM      6  C   UNL     1     -15.054  52.946 -34.449  1.00  0.00     0.015 A 
ATOM      7  C   UNL     1     -13.604  51.278 -35.296  1.00  0.00     0.015 A 
ATOM      8  C   UNL     1     -14.135  53.908 -34.797  1.00  0.00     0.040 A 
ATOM      9  C   UNL     1     -12.684  52.230 -35.645  1.00  0.00     0.040 A 
ATOM     10  C   UNL     1     -12.954  53.547 -35.392  1.00  0.00     0.123 A 
ATOM     11  F   UNL     1     -12.009  54.471 -35.758  1.00  0.00    -0.207 F 
ENDBRANCH   3   5
ENDBRANCH   2   3
ENDBRANCH   1   2
BRANCH   1  12
ATOM     12  C   UNL     1     -15.969  47.269 -35.705  1.00  0.00     0.262 C 
BRANCH  12  13
ATOM     13  N   UNL     1     -14.823  47.818 -36.417  1.00  0.00    -0.335 N 
ATOM     14  C   UNL     1     -13.606  47.133 -36.107  1.00  0.00     0.265 C 
ATOM     15  C   UNL     1     -15.067  47.806 -37.823  1.00  0.00     0.265 C 
ATOM     16  C   UNL     1     -13.686  45.674 -36.465  1.00  0.00     0.102 C 
ATOM     17  C   UNL     1     -14.360  46.791 -38.617  1.00  0.00     0.102 C 
ATOM     18  C   UNL     1     -13.940  45.540 -37.937  1.00  0.00     0.100 C 
ATOM     19  H   UNL     1     -14.718  48.805 -36.034  1.00  0.00     0.348 HD
BRANCH  18  20
ATOM     20  O   UNL     1     -12.704  45.154 -38.511  1.00  0.00    -0.385 OA
ATOM     21  H   UNL     1     -12.920  44.587 -39.292  1.00  0.00     0.211 HD
ENDBRANCH  18  20
BRANCH  18  22
ATOM     22  C   UNL     1     -14.857  44.383 -38.232  1.00  0.00    -0.016 A 
ATOM     23  C   UNL     1     -14.694  43.585 -39.345  1.00  0.00     0.008 A 
ATOM     24  C   UNL     1     -15.913  44.048 -37.413  1.00  0.00     0.008 A 
ATOM     25  C   UNL     1     -15.510  42.520 -39.650  1.00  0.00     0.021 A 
ATOM     26  C   UNL     1     -16.745  42.984 -37.699  1.00  0.00     0.021 A 
ATOM     27  C   UNL     1     -16.543  42.221 -38.817  1.00  0.00     0.041 A 
ATOM     28  Cl  UNL     1     -17.589  40.871 -39.185  1.00  0.00    -0.084 Cl
ENDBRANCH  18  22
ENDBRANCH  12  13
ENDBRANCH   1  12
TORSDOF 7
ENDMDL
MODEL 5
REMARK VINA RESULT:      -9.8      0.831      1.594
REMARK SMILES O=C(CCC[NH+]1CCC(O)(c2ccc(Cl)cc2)CC1)c1ccc(F)cc1
REMARK SMILES IDX 4 1 3 2 2 3 1 4 20 5 21 6 26 7 22 8 25 9 23 10 24 11 5 12
REMARK SMILES IDX 6 13 7 14 19 15 8 16 18 17 9 18 10 20 11 22 12 23 17 24
REMARK SMILES IDX 13 25 16 26 14 27 15 28
REMARK H PARENT 6 19 10 21
ROOT
ATOM      1  C   UNL     1     -16.277  47.893 -34.442  1.00  0.00     0.070 C 
ENDROOT
BRANCH   1   2
ATOM      2  C   UNL     1     -15.307  48.989 -34.061  1.00  0.00     0.087 C 
BRANCH   2   3
ATOM      3  C   UNL     1     -15.789  50.344 -34.338  1.00  0.00     0.163 C 
ATOM      4  O   UNL     1     -17.016  50.621 -34.323  1.00  0.00    -0.294 OA
BRANCH   3   5
ATOM      5  C   UNL     1     -14.873  51.462 -34.648  1.00  0.00     0.018 A 
ATOM      6  C   UNL     1     -15.232  52.766 -34.354  1.00  0.00     0.015 A 
ATOM      7  C   UNL     1     -13.653  51.236 -35.231  1.00  0.00     0.015 A 
ATOM      8  C   UNL     1     -14.376  53.801 -34.645  1.00  0.00     0.040 A 
ATOM      9  C   UNL     1     -12.795  52.262 -35.524  1.00  0.00     0.040 A 
ATOM     10  C   UNL     1     -13.161  53.547 -35.228  1.00  0.00     0.123 A 
ATOM     11  F   UNL     1     -12.277  54.548 -35.538  1.00  0.00    -0.207 F 
ENDBRANCH   3   5
ENDBRANCH   2   3
ENDBRANCH   1   2
BRANCH   1  12
ATOM     12  C   UNL     1     -15.505  46.765 -35.034  1.00  0.00     0.262 C 
BRANCH  12  13
ATOM     13  N   UNL     1     -14.597  47.196 -36.089  1.00  0.00    -0.335 N 
ATOM     14  C   UNL     1     -13.468  46.328 -36.228  1.00  0.00     0.265 C 
ATOM     15  C   UNL     1     -15.301  47.314 -37.325  1.00  0.00     0.265 C 
ATOM     16  C   UNL     1     -13.888  44.922 -36.559  1.00  0.00     0.102 C 
ATOM     17  C   UNL     1     -15.069  46.266 -38.330  1.00  0.00     0.102 C 
ATOM     18  C   UNL     1     -14.642  44.926 -37.856  1.00  0.00     0.100 C 
ATOM     19  H   UNL     1     -14.217  48.130 -35.750  1.00  0.00     0.348 HD
BRANCH  18  20
ATOM     20  O   UNL     1     -13.749  44.410 -38.826  1.00  0.00    -0.385 OA
ATOM     21  H   UNL     1     -14.081  43.510 -39.067  1.00  0.00     0.211 HD
ENDBRANCH  18  20
BRANCH  18  22
ATOM     22  C   UNL     1     -15.772  43.931 -37.835  1.00  0.00    -0.016 A 
ATOM     23  C   UNL     1     -16.962  44.188 -37.186  1.00  0.00     0.008 A 
ATOM     24  C   UNL     1     -15.691  42.705 -38.459  1.00  0.00     0.008 A 
ATOM     25  C   UNL     1     -18.018  43.307 -37.143  1.00  0.00     0.021 A 
ATOM     26  C   UNL     1     -16.738  41.804 -38.428  1.00  0.00     0.021 A 
ATOM     27  C   UNL     1     -17.900  42.106 -37.771  1.00  0.00     0.041 A 
ATOM     28  Cl  UNL     1     -19.229  40.973 -37.730  1.00  0.00    -0.084 Cl
ENDBRANCH  18  22
ENDBRANCH  12  13
ENDBRANCH   1  12
TORSDOF 7
ENDMDL
MODEL 6
REMARK VINA RESULT:      -9.8      1.068      1.565
REMARK SMILES O=C(CCC[NH+]1CCC(O)(c2ccc(Cl)cc2)CC1)c1ccc(F)cc1
REMARK SMILES IDX 4 1 3 2 2 3 1 4 20 5 21 6 26 7 22 8 25 9 23 10 24 11 5 12
REMARK SMILES IDX 6 13 7 14 19 15 8 16 18 17 9 18 10 20 11 22 12 23 17 24
REMARK SMILES IDX 13 25 16 26 14 27 15 28
REMARK H PARENT 6 19 10 21
ROOT
ATOM      1  C   UNL     1     -15.715  48.139 -34.931  1.00  0.00     0.070 C 
ENDROOT
BRANCH   1   2
ATOM      2  C   UNL     1     -16.099  49.375 -35.713  1.00  0.00     0.087 C 
BRANCH   2   3
ATOM      3  C   UNL     1     -16.149  50.602 -34.916  1.00  0.00     0.163 C 
ATOM      4  O   UNL     1     -17.087  50.823 -34.107  1.00  0.00    -0.294 OA
BRANCH   3   5
ATOM      5  C   UNL     1     -15.109  51.649 -35.007  1.00  0.00     0.018 A 
ATOM      6  C   UNL     1     -15.429  52.977 -34.792  1.00  0.00     0.015 A 
ATOM      7  C   UNL     1     -13.809  51.329 -35.306  1.00  0.00     0.015 A 
ATOM      8  C   UNL     1     -14.457  53.946 -34.879  1.00  0.00     0.040 A 
ATOM      9  C   UNL     1     -12.836  52.288 -35.394  1.00  0.00     0.040 A 
ATOM     10  C   UNL     1     -13.165  53.599 -35.179  1.00  0.00     0.123 A 
ATOM     11  F   UNL     1     -12.164  54.530 -35.279  1.00  0.00    -0.207 F 
ENDBRANCH   3   5
ENDBRANCH   2   3
ENDBRANCH   1   2
BRANCH   1  12
ATOM     12  C   UNL     1     -15.682  46.980 -35.868  1.00  0.00     0.262 C 
BRANCH  12  13
ATOM     13  N   UNL     1     -14.558  47.036 -36.795  1.00  0.00    -0.335 N 
ATOM     14  C   UNL     1     -13.607  45.992 -36.565  1.00  0.00     0.265 C 
ATOM     15  C   UNL     1     -15.030  47.005 -38.141  1.00  0.00     0.265 C 
ATOM     16  C   UNL     1     -14.231  44.632 -36.715  1.00  0.00     0.102 C 
ATOM     17  C   UNL     1     -14.851  45.749 -38.883  1.00  0.00     0.102 C 
ATOM     18  C   UNL     1     -14.764  44.486 -38.109  1.00  0.00     0.100 C 
ATOM     19  H   UNL     1     -14.065  47.949 -36.561  1.00  0.00     0.348 HD
BRANCH  18  20
ATOM     20  O   UNL     1     -13.848  43.647 -38.790  1.00  0.00    -0.385 OA
ATOM     21  H   UNL     1     -14.084  43.691 -39.750  1.00  0.00     0.211 HD
ENDBRANCH  18  20
BRANCH  18  22
ATOM     22  C   UNL     1     -16.053  43.706 -38.123  1.00  0.00    -0.016 A 
ATOM     23  C   UNL     1     -16.297  42.713 -39.050  1.00  0.00     0.008 A 
ATOM     24  C   UNL     1     -17.065  43.932 -37.217  1.00  0.00     0.008 A 
ATOM     25  C   UNL     1     -17.460  41.978 -39.097  1.00  0.00     0.021 A 
ATOM     26  C   UNL     1     -18.241  43.208 -37.246  1.00  0.00     0.021 A 
ATOM     27  C   UNL     1     -18.437  42.232 -38.185  1.00  0.00     0.041 A 
ATOM     28  Cl  UNL     1     -19.920  41.309 -38.227  1.00  0.00    -0.084 Cl
ENDBRANCH  18  22
ENDBRANCH  12  13
ENDBRANCH   1  12
TORSDOF 7
ENDMDL
MODEL 7
REMARK VINA RESULT:      -9.6      1.074      1.298
REMARK SMILES O=C(CCC[NH+]1CCC(O)(c2ccc(Cl)cc2)CC1)c1ccc(F)cc1
REMARK SMILES IDX 4 1 3 2 2 3 1 4 20 5 21 6 26 7 22 8 25 9 23 10 24 11 5 12
REMARK SMILES IDX 6 13 7 14 19 15 8 16 18 17 9 18 10 20 11 22 12 23 17 24
REMARK SMILES IDX 13 25 16 26 14 27 15 28
REMARK H PARENT 6 19 10 21
ROOT
ATOM      1  C   UNL     1     -16.029  48.393 -35.935  1.00  0.00     0.070 C 
ENDROOT
BRANCH   1   2
ATOM      2  C   UNL     1     -15.617  49.007 -34.616  1.00  0.00     0.087 C 
BRANCH   2   3
ATOM      3  C   UNL     1     -15.954  50.426 -34.481  1.00  0.00     0.163 C 
ATOM      4  O   UNL     1     -17.106  50.799 -34.142  1.00  0.00    -0.294 OA
BRANCH   3   5
ATOM      5  C   UNL     1     -14.969  51.500 -34.731  1.00  0.00     0.018 A 
ATOM      6  C   UNL     1     -13.747  51.212 -35.311  1.00  0.00     0.015 A 
ATOM      7  C   UNL     1     -15.243  52.802 -34.395  1.00  0.00     0.015 A 
ATOM      8  C   UNL     1     -12.836  52.216 -35.540  1.00  0.00     0.040 A 
ATOM      9  C   UNL     1     -14.341  53.807 -34.621  1.00  0.00     0.040 A 
ATOM     10  C   UNL     1     -13.136  53.509 -35.195  1.00  0.00     0.123 A 
ATOM     11  F   UNL     1     -12.258  54.541 -35.403  1.00  0.00    -0.207 F 
ENDBRANCH   3   5
ENDBRANCH   2   3
ENDBRANCH   1   2
BRANCH   1  12
ATOM     12  C   UNL     1     -15.399  47.047 -36.045  1.00  0.00     0.262 C 
BRANCH  12  13
ATOM     13  N   UNL     1     -14.318  47.009 -37.022  1.00  0.00    -0.335 N 
ATOM     14  C   UNL     1     -13.413  45.923 -36.795  1.00  0.00     0.265 C 
ATOM     15  C   UNL     1     -14.853  46.955 -38.344  1.00  0.00     0.265 C 
ATOM     16  C   UNL     1     -14.115  44.595 -36.866  1.00  0.00     0.102 C 
ATOM     17  C   UNL     1     -14.775  45.666 -39.045  1.00  0.00     0.102 C 
ATOM     18  C   UNL     1     -14.719  44.428 -38.228  1.00  0.00     0.100 C 
ATOM     19  H   UNL     1     -13.767  47.901 -36.845  1.00  0.00     0.348 HD
BRANCH  18  20
ATOM     20  O   UNL     1     -13.880  43.517 -38.916  1.00  0.00    -0.385 OA
ATOM     21  H   UNL     1     -13.047  44.007 -39.131  1.00  0.00     0.211 HD
ENDBRANCH  18  20
BRANCH  18  22
ATOM     22  C   UNL     1     -16.046  43.719 -38.156  1.00  0.00    -0.016 A 
ATOM     23  C   UNL     1     -16.391  42.720 -39.042  1.00  0.00     0.008 A 
ATOM     24  C   UNL     1     -16.996  44.022 -37.205  1.00  0.00     0.008 A 
ATOM     25  C   UNL     1     -17.592  42.049 -39.010  1.00  0.00     0.021 A 
ATOM     26  C   UNL     1     -18.208  43.363 -37.155  1.00  0.00     0.021 A 
ATOM     27  C   UNL     1     -18.505  42.377 -38.057  1.00  0.00     0.041 A 
ATOM     28  Cl  UNL     1     -20.035  41.536 -37.998  1.00  0.00    -0.084 Cl
ENDBRANCH  18  22
ENDBRANCH  12  13
ENDBRANCH   1  12
TORSDOF 7
ENDMDL
MODEL 8
REMARK VINA RESULT:      -9.5      4.238      8.735
REMARK SMILES O=C(CCC[NH+]1CCC(O)(c2ccc(Cl)cc2)CC1)c1ccc(F)cc1
REMARK SMILES IDX 4 1 3 2 2 3 1 4 20 5 21 6 26 7 22 8 25 9 23 10 24 11 5 12
REMARK SMILES IDX 6 13 7 14 19 15 8 16 18 17 9 18 10 20 11 22 12 23 17 24
REMARK SMILES IDX 13 25 16 26 14 27 15 28
REMARK H PARENT 6 19 10 21
ROOT
ATOM      1  C   UNL     1     -13.217  47.349 -37.310  1.00  0.00     0.070 C 
ENDROOT
BRANCH   1   2
ATOM      2  C   UNL     1     -13.071  45.978 -37.933  1.00  0.00     0.087 C 
BRANCH   2   3
ATOM      3  C   UNL     1     -14.201  45.572 -38.771  1.00  0.00     0.163 C 
ATOM      4  O   UNL     1     -14.632  46.309 -39.695  1.00  0.00    -0.294 OA
BRANCH   3   5
ATOM      5  C   UNL     1     -14.900  44.283 -38.587  1.00  0.00     0.018 A 
ATOM      6  C   UNL     1     -15.726  44.081 -37.496  1.00  0.00     0.015 A 
ATOM      7  C   UNL     1     -14.748  43.262 -39.490  1.00  0.00     0.015 A 
ATOM      8  C   UNL     1     -16.373  42.880 -37.331  1.00  0.00     0.040 A 
ATOM      9  C   UNL     1     -15.390  42.062 -39.332  1.00  0.00     0.040 A 
ATOM     10  C   UNL     1     -16.204  41.875 -38.249  1.00  0.00     0.123 A 
ATOM     11  F   UNL     1     -16.827  40.660 -38.124  1.00  0.00    -0.207 F 
ENDBRANCH   3   5
ENDBRANCH   2   3
ENDBRANCH   1   2
BRANCH   1  12
ATOM     12  C   UNL     1     -13.688  47.180 -35.906  1.00  0.00     0.262 C 
BRANCH  12  13
ATOM     13  N   UNL     1     -15.140  47.116 -35.802  1.00  0.00    -0.335 N 
ATOM     14  C   UNL     1     -15.602  47.329 -34.465  1.00  0.00     0.265 C 
ATOM     15  C   UNL     1     -15.738  48.049 -36.700  1.00  0.00     0.265 C 
ATOM     16  C   UNL     1     -15.185  48.677 -33.943  1.00  0.00     0.102 C 
ATOM     17  C   UNL     1     -16.314  49.268 -36.113  1.00  0.00     0.102 C 
ATOM     18  C   UNL     1     -15.767  49.746 -34.819  1.00  0.00     0.100 C 
ATOM     19  H   UNL     1     -15.381  46.109 -36.046  1.00  0.00     0.348 HD
BRANCH  18  20
ATOM     20  O   UNL     1     -16.850  50.298 -34.092  1.00  0.00    -0.385 OA
ATOM     21  H   UNL     1     -16.644  51.257 -33.962  1.00  0.00     0.211 HD
ENDBRANCH  18  20
BRANCH  18  22
ATOM     22  C   UNL     1     -14.812  50.899 -34.983  1.00  0.00    -0.016 A 
ATOM     23  C   UNL     1     -15.176  52.198 -34.693  1.00  0.00     0.008 A 
ATOM     24  C   UNL     1     -13.520  50.733 -35.431  1.00  0.00     0.008 A 
ATOM     25  C   UNL     1     -14.335  53.279 -34.830  1.00  0.00     0.021 A 
ATOM     26  C   UNL     1     -12.658  51.802 -35.577  1.00  0.00     0.021 A 
ATOM     27  C   UNL     1     -13.066  53.073 -35.276  1.00  0.00     0.041 A 
ATOM     28  Cl  UNL     1     -11.982  54.432 -35.454  1.00  0.00    -0.084 Cl
ENDBRANCH  18  22
ENDBRANCH  12  13
ENDBRANCH   1  12
TORSDOF 7
ENDMDL
MODEL 9
REMARK VINA RESULT:      -9.4      0.876      1.327
REMARK SMILES O=C(CCC[NH+]1CCC(O)(c2ccc(Cl)cc2)CC1)c1ccc(F)cc1
REMARK SMILES IDX 4 1 3 2 2 3 1 4 20 5 21 6 26 7 22 8 25 9 23 10 24 11 5 12
REMARK SMILES IDX 6 13 7 14 19 15 8 16 18 17 9 18 10 20 11 22 12 23 17 24
REMARK SMILES IDX 13 25 16 26 14 27 15 28
REMARK H PARENT 6 19 10 21
ROOT
ATOM      1  C   UNL     1     -16.854  47.596 -34.601  1.00  0.00     0.070 C 
ENDROOT
BRANCH   1   2
ATOM      2  C   UNL     1     -16.629  49.047 -34.963  1.00  0.00     0.087 C 
BRANCH   2   3
ATOM      3  C   UNL     1     -15.491  49.669 -34.283  1.00  0.00     0.163 C 
ATOM      4  O   UNL     1     -14.808  49.039 -33.435  1.00  0.00    -0.294 OA
BRANCH   3   5
ATOM      5  C   UNL     1     -15.076  51.063 -34.547  1.00  0.00     0.018 A 
ATOM      6  C   UNL     1     -14.008  51.331 -35.385  1.00  0.00     0.015 A 
ATOM      7  C   UNL     1     -15.736  52.118 -33.971  1.00  0.00     0.015 A 
ATOM      8  C   UNL     1     -13.627  52.629 -35.626  1.00  0.00     0.040 A 
ATOM      9  C   UNL     1     -15.362  53.414 -34.207  1.00  0.00     0.040 A 
ATOM     10  C   UNL     1     -14.304  53.666 -35.038  1.00  0.00     0.123 A 
ATOM     11  F   UNL     1     -13.958  54.976 -35.248  1.00  0.00    -0.207 F 
ENDBRANCH   3   5
ENDBRANCH   2   3
ENDBRANCH   1   2
BRANCH   1  12
ATOM     12  C   UNL     1     -16.186  46.746 -35.626  1.00  0.00     0.262 C 
BRANCH  12  13
ATOM     13  N   UNL     1     -15.109  47.441 -36.320  1.00  0.00    -0.335 N 
ATOM     14  C   UNL     1     -13.830  46.846 -36.079  1.00  0.00     0.265 C 
ATOM     15  C   UNL     1     -15.385  47.501 -37.719  1.00  0.00     0.265 C 
ATOM     16  C   UNL     1     -13.792  45.413 -36.535  1.00  0.00     0.102 C 
ATOM     17  C   UNL     1     -14.611  46.607 -38.593  1.00  0.00     0.102 C 
ATOM     18  C   UNL     1     -14.068  45.356 -38.008  1.00  0.00     0.100 C 
ATOM     19  H   UNL     1     -15.081  48.405 -35.872  1.00  0.00     0.348 HD
BRANCH  18  20
ATOM     20  O   UNL     1     -12.818  45.119 -38.629  1.00  0.00    -0.385 OA
ATOM     21  H   UNL     1     -12.288  44.571 -37.997  1.00  0.00     0.211 HD
ENDBRANCH  18  20
BRANCH  18  22
ATOM     22  C   UNL     1     -14.889  44.144 -38.365  1.00  0.00    -0.016 A 
ATOM     23  C   UNL     1     -15.825  43.614 -37.501  1.00  0.00     0.008 A 
ATOM     24  C   UNL     1     -14.759  43.491 -39.570  1.00  0.00     0.008 A 
ATOM     25  C   UNL     1     -16.594  42.510 -37.788  1.00  0.00     0.021 A 
ATOM     26  C   UNL     1     -15.519  42.381 -39.880  1.00  0.00     0.021 A 
ATOM     27  C   UNL     1     -16.436  41.892 -38.989  1.00  0.00     0.041 A 
ATOM     28  Cl  UNL     1     -17.404  40.489 -39.375  1.00  0.00    -0.084 Cl
ENDBRANCH  18  22
ENDBRANCH  12  13
ENDBRANCH   1  12
TORSDOF 7
ENDMDL
