MODEL 1
REMARK VINA RESULT:      -6.8      0.000      0.000
REMARK SMILES CC/C(=C(\c1ccccc1)c1ccc(OCC[NH+](C)C)cc1)c1ccccc1
REMARK SMILES IDX 15 1 14 2 11 3 12 4 22 5 13 6 21 7 4 8 3 9 2 10 1 11 23 12
REMARK SMILES IDX 24 13 28 14 25 15 27 16 26 17 5 18 6 19 10 20 7 21 9 22 8 23
REMARK SMILES IDX 16 24 17 25 18 26 19 27 20 28
REMARK H PARENT 18 29
ROOT
ATOM      1  O   UNL     1     -15.097  45.548 -38.285  1.00  0.00    -0.488 OA
ENDROOT
BRANCH   1   2
ATOM      2  C   UNL     1     -14.312  46.546 -37.738  1.00  0.00     0.119 A 
ATOM      3  C   UNL     1     -12.729  48.578 -36.503  1.00  0.00    -0.017 A 
ATOM      4  C   UNL     1     -12.666  48.331 -37.861  1.00  0.00     0.012 A 
ATOM      5  C   UNL     1     -13.610  47.779 -35.781  1.00  0.00     0.012 A 
ATOM      6  C   UNL     1     -13.440  47.341 -38.445  1.00  0.00     0.047 A 
ATOM      7  C   UNL     1     -14.374  46.802 -36.361  1.00  0.00     0.047 A 
BRANCH   3   8
ATOM      8  C   UNL     1     -11.948  49.624 -35.868  1.00  0.00    -0.007 C 
ATOM      9  C   UNL     1     -12.478  50.739 -35.435  1.00  0.00    -0.033 C 
BRANCH   9  10
ATOM     10  C   UNL     1     -11.719  51.862 -34.820  1.00  0.00     0.033 C 
ATOM     11  C   UNL     1     -12.494  53.133 -35.009  1.00  0.00     0.009 C 
ENDBRANCH   9  10
BRANCH   9  12
ATOM     12  C   UNL     1     -13.937  50.947 -35.466  1.00  0.00    -0.022 A 
ATOM     13  C   UNL     1     -14.553  51.628 -36.484  1.00  0.00     0.008 A 
ATOM     14  C   UNL     1     -14.680  50.449 -34.439  1.00  0.00     0.008 A 
ATOM     15  C   UNL     1     -15.914  51.803 -36.460  1.00  0.00     0.001 A 
ATOM     16  C   UNL     1     -16.068  50.605 -34.374  1.00  0.00     0.001 A 
ATOM     17  C   UNL     1     -16.658  51.292 -35.410  1.00  0.00     0.000 A 
ENDBRANCH   9  12
BRANCH   8  18
ATOM     18  C   UNL     1     -10.518  49.425 -35.749  1.00  0.00    -0.018 A 
ATOM     19  C   UNL     1      -9.629  49.866 -36.709  1.00  0.00     0.009 A 
ATOM     20  C   UNL     1     -10.012  48.724 -34.657  1.00  0.00     0.009 A 
ATOM     21  C   UNL     1      -8.292  49.602 -36.558  1.00  0.00     0.001 A 
ATOM     22  C   UNL     1      -8.674  48.452 -34.490  1.00  0.00     0.001 A 
ATOM     23  C   UNL     1      -7.799  48.907 -35.471  1.00  0.00     0.000 A 
ENDBRANCH   8  18
ENDBRANCH   3   8
ENDBRANCH   1   2
BRANCH   1  24
ATOM     24  C   UNL     1     -14.740  44.564 -39.190  1.00  0.00     0.290 C 
BRANCH  24  25
ATOM     25  C   UNL     1     -15.210  43.171 -38.862  1.00  0.00     0.303 C 
BRANCH  25  26
ATOM     26  N   UNL     1     -16.629  43.018 -38.980  1.00  0.00    -0.337 N 
ATOM     27  C   UNL     1     -17.299  42.858 -37.708  1.00  0.00     0.332 C 
ATOM     28  C   UNL     1     -17.007  41.890 -39.806  1.00  0.00     0.332 C 
ATOM     29  H   UNL     1     -17.072  43.868 -39.442  1.00  0.00     0.347 HD
ENDBRANCH  25  26
ENDBRANCH  24  25
ENDBRANCH   1  24
TORSDOF 8
ENDMDL
MODEL 2
REMARK VINA RESULT:      -6.8      0.507      1.048
REMARK SMILES CC/C(=C(\c1ccccc1)c1ccc(OCC[NH+](C)C)cc1)c1ccccc1
REMARK SMILES IDX 15 1 14 2 11 3 12 4 22 5 13 6 21 7 4 8 3 9 2 10 1 11 23 12
REMARK SMILES IDX 24 13 28 14 25 15 27 16 26 17 5 18 6 19 10 20 7 21 9 22 8 23
REMARK SMILES IDX 16 24 17 25 18 26 19 27 20 28
REMARK H PARENT 18 29
ROOT
ATOM      1  O   UNL     1     -15.167  45.580 -38.198  1.00  0.00    -0.488 OA
ENDROOT
BRANCH   1   2
ATOM      2  C   UNL     1     -14.428  46.578 -37.589  1.00  0.00     0.119 A 
ATOM      3  C   UNL     1     -12.858  48.667 -36.437  1.00  0.00    -0.017 A 
ATOM      4  C   UNL     1     -13.748  47.926 -35.685  1.00  0.00     0.012 A 
ATOM      5  C   UNL     1     -12.774  48.331 -37.784  1.00  0.00     0.012 A 
ATOM      6  C   UNL     1     -14.503  46.916 -36.259  1.00  0.00     0.047 A 
ATOM      7  C   UNL     1     -13.522  47.332 -38.349  1.00  0.00     0.047 A 
BRANCH   3   8
ATOM      8  C   UNL     1     -12.037  49.715 -35.858  1.00  0.00    -0.007 C 
ATOM      9  C   UNL     1     -12.526  50.866 -35.474  1.00  0.00    -0.033 C 
BRANCH   9  10
ATOM     10  C   UNL     1     -11.724  51.991 -34.920  1.00  0.00     0.033 C 
ATOM     11  C   UNL     1     -12.565  53.235 -34.924  1.00  0.00     0.009 C 
ENDBRANCH   9  10
BRANCH   9  12
ATOM     12  C   UNL     1     -13.978  51.121 -35.503  1.00  0.00    -0.022 A 
ATOM     13  C   UNL     1     -14.581  51.778 -36.544  1.00  0.00     0.008 A 
ATOM     14  C   UNL     1     -14.727  50.693 -34.449  1.00  0.00     0.008 A 
ATOM     15  C   UNL     1     -15.935  51.998 -36.517  1.00  0.00     0.001 A 
ATOM     16  C   UNL     1     -16.108  50.896 -34.380  1.00  0.00     0.001 A 
ATOM     17  C   UNL     1     -16.685  51.558 -35.440  1.00  0.00     0.000 A 
ENDBRANCH   9  12
BRANCH   8  18
ATOM     18  C   UNL     1     -10.613  49.475 -35.742  1.00  0.00    -0.018 A 
ATOM     19  C   UNL     1      -9.716  49.868 -36.715  1.00  0.00     0.009 A 
ATOM     20  C   UNL     1     -10.123  48.781 -34.639  1.00  0.00     0.009 A 
ATOM     21  C   UNL     1      -8.387  49.567 -36.566  1.00  0.00     0.001 A 
ATOM     22  C   UNL     1      -8.793  48.472 -34.473  1.00  0.00     0.001 A 
ATOM     23  C   UNL     1      -7.909  48.880 -35.468  1.00  0.00     0.000 A 
ENDBRANCH   8  18
ENDBRANCH   3   8
ENDBRANCH   1   2
BRANCH   1  24
ATOM     24  C   UNL     1     -15.157  44.219 -37.946  1.00  0.00     0.290 C 
BRANCH  24  25
ATOM     25  C   UNL     1     -14.977  43.332 -39.150  1.00  0.00     0.303 C 
BRANCH  25  26
ATOM     26  N   UNL     1     -16.209  42.780 -39.626  1.00  0.00    -0.337 N 
ATOM     27  C   UNL     1     -16.691  41.675 -38.825  1.00  0.00     0.332 C 
ATOM     28  C   UNL     1     -16.124  42.310 -40.993  1.00  0.00     0.332 C 
ATOM     29  H   UNL     1     -16.985  43.506 -39.623  1.00  0.00     0.347 HD
ENDBRANCH  25  26
ENDBRANCH  24  25
ENDBRANCH   1  24
TORSDOF 8
ENDMDL
MODEL 3
REMARK VINA RESULT:      -6.8      0.514      1.361
REMARK SMILES CC/C(=C(\c1ccccc1)c1ccc(OCC[NH+](C)C)cc1)c1ccccc1
REMARK SMILES IDX 15 1 14 2 11 3 12 4 22 5 13 6 21 7 4 8 3 9 2 10 1 11 23 12
REMARK SMILES IDX 24 13 28 14 25 15 27 16 26 17 5 18 6 19 10 20 7 21 9 22 8 23
REMARK SMILES IDX 16 24 17 25 18 26 19 27 20 28
REMARK H PARENT 18 29
ROOT
ATOM      1  O   UNL     1     -15.394  45.657 -38.096  1.00  0.00    -0.488 OA
ENDROOT
BRANCH   1   2
ATOM      2  C   UNL     1     -14.622  46.640 -37.504  1.00  0.00     0.119 A 
ATOM      3  C   UNL     1     -12.968  48.680 -36.381  1.00  0.00    -0.017 A 
ATOM      4  C   UNL     1     -14.040  48.151 -35.691  1.00  0.00     0.012 A 
ATOM      5  C   UNL     1     -12.746  48.157 -37.651  1.00  0.00     0.012 A 
ATOM      6  C   UNL     1     -14.834  47.161 -36.249  1.00  0.00     0.047 A 
ATOM      7  C   UNL     1     -13.531  47.180 -38.202  1.00  0.00     0.047 A 
BRANCH   3   8
ATOM      8  C   UNL     1     -12.104  49.699 -35.812  1.00  0.00    -0.007 C 
ATOM      9  C   UNL     1     -12.549  50.869 -35.430  1.00  0.00    -0.033 C 
BRANCH   9  10
ATOM     10  C   UNL     1     -11.702  51.966 -34.886  1.00  0.00     0.033 C 
ATOM     11  C   UNL     1     -12.420  53.271 -35.072  1.00  0.00     0.009 C 
ENDBRANCH   9  10
BRANCH   9  12
ATOM     12  C   UNL     1     -13.990  51.177 -35.451  1.00  0.00    -0.022 A 
ATOM     13  C   UNL     1     -14.595  51.754 -36.538  1.00  0.00     0.008 A 
ATOM     14  C   UNL     1     -14.727  50.882 -34.344  1.00  0.00     0.008 A 
ATOM     15  C   UNL     1     -15.939  52.029 -36.502  1.00  0.00     0.001 A 
ATOM     16  C   UNL     1     -16.097  51.146 -34.264  1.00  0.00     0.001 A 
ATOM     17  C   UNL     1     -16.677  51.725 -35.370  1.00  0.00     0.000 A 
ENDBRANCH   9  12
BRANCH   8  18
ATOM     18  C   UNL     1     -10.690  49.407 -35.704  1.00  0.00    -0.018 A 
ATOM     19  C   UNL     1     -10.155  48.741 -34.619  1.00  0.00     0.009 A 
ATOM     20  C   UNL     1      -9.821  49.847 -36.698  1.00  0.00     0.009 A 
ATOM     21  C   UNL     1      -8.800  48.539 -34.556  1.00  0.00     0.001 A 
ATOM     22  C   UNL     1      -8.460  49.652 -36.652  1.00  0.00     0.001 A 
ATOM     23  C   UNL     1      -7.946  48.978 -35.548  1.00  0.00     0.000 A 
ENDBRANCH   8  18
ENDBRANCH   3   8
ENDBRANCH   1   2
BRANCH   1  24
ATOM     24  C   UNL     1     -15.105  44.314 -38.265  1.00  0.00     0.290 C 
BRANCH  24  25
ATOM     25  C   UNL     1     -16.010  43.354 -37.539  1.00  0.00     0.303 C 
BRANCH  25  26
ATOM     26  N   UNL     1     -17.142  42.956 -38.319  1.00  0.00    -0.337 N 
ATOM     27  C   UNL     1     -18.131  42.217 -37.564  1.00  0.00     0.332 C 
ATOM     28  C   UNL     1     -16.782  42.141 -39.461  1.00  0.00     0.332 C 
ATOM     29  H   UNL     1     -17.650  43.800 -38.722  1.00  0.00     0.347 HD
ENDBRANCH  25  26
ENDBRANCH  24  25
ENDBRANCH   1  24
TORSDOF 8
ENDMDL
MODEL 4
REMARK VINA RESULT:      -6.6      0.647      1.446
REMARK SMILES CC/C(=C(\c1ccccc1)c1ccc(OCC[NH+](C)C)cc1)c1ccccc1
REMARK SMILES IDX 15 1 14 2 11 3 12 4 22 5 13 6 21 7 4 8 3 9 2 10 1 11 23 12
REMARK SMILES IDX 24 13 28 14 25 15 27 16 26 17 5 18 6 19 10 20 7 21 9 22 8 23
REMARK SMILES IDX 16 24 17 25 18 26 19 27 20 28
REMARK H PARENT 18 29
ROOT
ATOM      1  O   UNL     1     -15.145  45.606 -38.299  1.00  0.00    -0.488 OA
ENDROOT
BRANCH   1   2
ATOM      2  C   UNL     1     -14.414  46.592 -37.662  1.00  0.00     0.119 A 
ATOM      3  C   UNL     1     -12.857  48.656 -36.449  1.00  0.00    -0.017 A 
ATOM      4  C   UNL     1     -13.791  47.934 -35.733  1.00  0.00     0.012 A 
ATOM      5  C   UNL     1     -12.723  48.315 -37.791  1.00  0.00     0.012 A 
ATOM      6  C   UNL     1     -14.539  46.935 -36.336  1.00  0.00     0.047 A 
ATOM      7  C   UNL     1     -13.464  47.328 -38.385  1.00  0.00     0.047 A 
BRANCH   3   8
ATOM      8  C   UNL     1     -12.042  49.692 -35.839  1.00  0.00    -0.007 C 
ATOM      9  C   UNL     1     -12.540  50.824 -35.414  1.00  0.00    -0.033 C 
BRANCH   9  10
ATOM     10  C   UNL     1     -11.745  51.937 -34.825  1.00  0.00     0.033 C 
ATOM     11  C   UNL     1     -12.512  53.217 -34.981  1.00  0.00     0.009 C 
ENDBRANCH   9  10
BRANCH   9  12
ATOM     12  C   UNL     1     -13.993  51.067 -35.428  1.00  0.00    -0.022 A 
ATOM     13  C   UNL     1     -14.817  50.601 -34.436  1.00  0.00     0.008 A 
ATOM     14  C   UNL     1     -14.519  51.769 -36.469  1.00  0.00     0.008 A 
ATOM     15  C   UNL     1     -16.166  50.846 -34.501  1.00  0.00     0.001 A 
ATOM     16  C   UNL     1     -15.886  52.041 -36.576  1.00  0.00     0.001 A 
ATOM     17  C   UNL     1     -16.688  51.561 -35.566  1.00  0.00     0.000 A 
ENDBRANCH   9  12
BRANCH   8  18
ATOM     18  C   UNL     1     -10.615  49.459 -35.737  1.00  0.00    -0.018 A 
ATOM     19  C   UNL     1      -9.730  49.865 -36.715  1.00  0.00     0.009 A 
ATOM     20  C   UNL     1     -10.112  48.761 -34.643  1.00  0.00     0.009 A 
ATOM     21  C   UNL     1      -8.398  49.572 -36.580  1.00  0.00     0.001 A 
ATOM     22  C   UNL     1      -8.778  48.459 -34.490  1.00  0.00     0.001 A 
ATOM     23  C   UNL     1      -7.906  48.880 -35.490  1.00  0.00     0.000 A 
ENDBRANCH   8  18
ENDBRANCH   3   8
ENDBRANCH   1   2
BRANCH   1  24
ATOM     24  C   UNL     1     -15.179  44.247 -38.037  1.00  0.00     0.290 C 
BRANCH  24  25
ATOM     25  C   UNL     1     -16.454  43.730 -37.425  1.00  0.00     0.303 C 
BRANCH  25  26
ATOM     26  N   UNL     1     -16.901  42.507 -38.018  1.00  0.00    -0.337 N 
ATOM     27  C   UNL     1     -18.126  42.000 -37.437  1.00  0.00     0.332 C 
ATOM     28  C   UNL     1     -15.918  41.447 -37.930  1.00  0.00     0.332 C 
ATOM     29  H   UNL     1     -17.096  42.627 -39.056  1.00  0.00     0.347 HD
ENDBRANCH  25  26
ENDBRANCH  24  25
ENDBRANCH   1  24
TORSDOF 8
ENDMDL
MODEL 5
REMARK VINA RESULT:      -6.6      0.519      1.040
REMARK SMILES CC/C(=C(\c1ccccc1)c1ccc(OCC[NH+](C)C)cc1)c1ccccc1
REMARK SMILES IDX 15 1 14 2 11 3 12 4 22 5 13 6 21 7 4 8 3 9 2 10 1 11 23 12
REMARK SMILES IDX 24 13 28 14 25 15 27 16 26 17 5 18 6 19 10 20 7 21 9 22 8 23
REMARK SMILES IDX 16 24 17 25 18 26 19 27 20 28
REMARK H PARENT 18 29
ROOT
ATOM      1  O   UNL     1     -15.039  45.426 -38.223  1.00  0.00    -0.488 OA
ENDROOT
BRANCH   1   2
ATOM      2  C   UNL     1     -14.271  46.443 -37.685  1.00  0.00     0.119 A 
ATOM      3  C   UNL     1     -12.709  48.502 -36.468  1.00  0.00    -0.017 A 
ATOM      4  C   UNL     1     -12.794  48.368 -37.840  1.00  0.00     0.012 A 
ATOM      5  C   UNL     1     -13.430  47.575 -35.721  1.00  0.00     0.012 A 
ATOM      6  C   UNL     1     -13.557  47.364 -38.416  1.00  0.00     0.047 A 
ATOM      7  C   UNL     1     -14.183  46.584 -36.293  1.00  0.00     0.047 A 
BRANCH   3   8
ATOM      8  C   UNL     1     -11.938  49.558 -35.837  1.00  0.00    -0.007 C 
ATOM      9  C   UNL     1     -12.484  50.657 -35.383  1.00  0.00    -0.033 C 
BRANCH   9  10
ATOM     10  C   UNL     1     -11.737  51.790 -34.772  1.00  0.00     0.033 C 
ATOM     11  C   UNL     1     -12.419  53.076 -35.139  1.00  0.00     0.009 C 
ENDBRANCH   9  10
BRANCH   9  12
ATOM     12  C   UNL     1     -13.948  50.833 -35.384  1.00  0.00    -0.022 A 
ATOM     13  C   UNL     1     -14.748  50.267 -34.425  1.00  0.00     0.008 A 
ATOM     14  C   UNL     1     -14.506  51.576 -36.379  1.00  0.00     0.008 A 
ATOM     15  C   UNL     1     -16.107  50.454 -34.477  1.00  0.00     0.001 A 
ATOM     16  C   UNL     1     -15.885  51.791 -36.470  1.00  0.00     0.001 A 
ATOM     17  C   UNL     1     -16.662  51.211 -35.494  1.00  0.00     0.000 A 
ENDBRANCH   9  12
BRANCH   8  18
ATOM     18  C   UNL     1     -10.502  49.389 -35.748  1.00  0.00    -0.018 A 
ATOM     19  C   UNL     1      -9.644  49.836 -36.733  1.00  0.00     0.009 A 
ATOM     20  C   UNL     1      -9.958  48.712 -34.660  1.00  0.00     0.009 A 
ATOM     21  C   UNL     1      -8.299  49.601 -36.609  1.00  0.00     0.001 A 
ATOM     22  C   UNL     1      -8.612  48.468 -34.520  1.00  0.00     0.001 A 
ATOM     23  C   UNL     1      -7.768  48.929 -35.526  1.00  0.00     0.000 A 
ENDBRANCH   8  18
ENDBRANCH   3   8
ENDBRANCH   1   2
BRANCH   1  24
ATOM     24  C   UNL     1     -15.784  44.464 -37.565  1.00  0.00     0.290 C 
BRANCH  24  25
ATOM     25  C   UNL     1     -15.966  43.162 -38.300  1.00  0.00     0.303 C 
BRANCH  25  26
ATOM     26  N   UNL     1     -17.334  42.888 -38.621  1.00  0.00    -0.337 N 
ATOM     27  C   UNL     1     -18.235  43.067 -37.502  1.00  0.00     0.332 C 
ATOM     28  C   UNL     1     -17.538  41.544 -39.121  1.00  0.00     0.332 C 
ATOM     29  H   UNL     1     -17.688  43.533 -39.389  1.00  0.00     0.347 HD
ENDBRANCH  25  26
ENDBRANCH  24  25
ENDBRANCH   1  24
TORSDOF 8
ENDMDL
MODEL 6
REMARK VINA RESULT:      -6.5      0.764      1.256
REMARK SMILES CC/C(=C(\c1ccccc1)c1ccc(OCC[NH+](C)C)cc1)c1ccccc1
REMARK SMILES IDX 15 1 14 2 11 3 12 4 22 5 13 6 21 7 4 8 3 9 2 10 1 11 23 12
REMARK SMILES IDX 24 13 28 14 25 15 27 16 26 17 5 18 6 19 10 20 7 21 9 22 8 23
REMARK SMILES IDX 16 24 17 25 18 26 19 27 20 28
REMARK H PARENT 18 29
ROOT
ATOM      1  O   UNL     1     -15.583  45.696 -37.942  1.00  0.00    -0.488 OA
ENDROOT
BRANCH   1   2
ATOM      2  C   UNL     1     -14.719  46.663 -37.463  1.00  0.00     0.119 A 
ATOM      3  C   UNL     1     -12.987  48.654 -36.369  1.00  0.00    -0.017 A 
ATOM      4  C   UNL     1     -12.815  48.163 -37.649  1.00  0.00     0.012 A 
ATOM      5  C   UNL     1     -14.053  48.120 -35.652  1.00  0.00     0.012 A 
ATOM      6  C   UNL     1     -13.664  47.197 -38.165  1.00  0.00     0.047 A 
ATOM      7  C   UNL     1     -14.890  47.165 -36.164  1.00  0.00     0.047 A 
BRANCH   3   8
ATOM      8  C   UNL     1     -12.128  49.683 -35.810  1.00  0.00    -0.007 C 
ATOM      9  C   UNL     1     -12.581  50.849 -35.428  1.00  0.00    -0.033 C 
BRANCH   9  10
ATOM     10  C   UNL     1     -11.740  51.956 -34.894  1.00  0.00     0.033 C 
ATOM     11  C   UNL     1     -12.427  53.262 -35.164  1.00  0.00     0.009 C 
ENDBRANCH   9  10
BRANCH   9  12
ATOM     12  C   UNL     1     -14.025  51.143 -35.436  1.00  0.00    -0.022 A 
ATOM     13  C   UNL     1     -14.636  51.760 -36.498  1.00  0.00     0.008 A 
ATOM     14  C   UNL     1     -14.759  50.795 -34.343  1.00  0.00     0.008 A 
ATOM     15  C   UNL     1     -15.982  52.020 -36.451  1.00  0.00     0.001 A 
ATOM     16  C   UNL     1     -16.132  51.041 -34.253  1.00  0.00     0.001 A 
ATOM     17  C   UNL     1     -16.717  51.660 -35.333  1.00  0.00     0.000 A 
ENDBRANCH   9  12
BRANCH   8  18
ATOM     18  C   UNL     1     -10.710  49.404 -35.714  1.00  0.00    -0.018 A 
ATOM     19  C   UNL     1     -10.162  48.728 -34.643  1.00  0.00     0.009 A 
ATOM     20  C   UNL     1      -9.852  49.871 -36.706  1.00  0.00     0.009 A 
ATOM     21  C   UNL     1      -8.805  48.539 -34.590  1.00  0.00     0.001 A 
ATOM     22  C   UNL     1      -8.489  49.689 -36.670  1.00  0.00     0.001 A 
ATOM     23  C   UNL     1      -7.961  49.004 -35.579  1.00  0.00     0.000 A 
ENDBRANCH   8  18
ENDBRANCH   3   8
ENDBRANCH   1   2
BRANCH   1  24
ATOM     24  C   UNL     1     -15.565  44.331 -37.718  1.00  0.00     0.290 C 
BRANCH  24  25
ATOM     25  C   UNL     1     -16.782  43.763 -37.035  1.00  0.00     0.303 C 
BRANCH  25  26
ATOM     26  N   UNL     1     -17.082  42.426 -37.449  1.00  0.00    -0.337 N 
ATOM     27  C   UNL     1     -15.955  41.742 -38.046  1.00  0.00     0.332 C 
ATOM     28  C   UNL     1     -18.172  42.363 -38.402  1.00  0.00     0.332 C 
ATOM     29  H   UNL     1     -17.389  41.826 -36.627  1.00  0.00     0.347 HD
ENDBRANCH  25  26
ENDBRANCH  24  25
ENDBRANCH   1  24
TORSDOF 8
ENDMDL
MODEL 7
REMARK VINA RESULT:      -6.5      1.677      2.147
REMARK SMILES CC/C(=C(\c1ccccc1)c1ccc(OCC[NH+](C)C)cc1)c1ccccc1
REMARK SMILES IDX 15 1 14 2 11 3 12 4 22 5 13 6 21 7 4 8 3 9 2 10 1 11 23 12
REMARK SMILES IDX 24 13 28 14 25 15 27 16 26 17 5 18 6 19 10 20 7 21 9 22 8 23
REMARK SMILES IDX 16 24 17 25 18 26 19 27 20 28
REMARK H PARENT 18 29
ROOT
ATOM      1  O   UNL     1     -16.979  46.784 -35.472  1.00  0.00    -0.488 OA
ENDROOT
BRANCH   1   2
ATOM      2  C   UNL     1     -15.910  47.661 -35.489  1.00  0.00     0.119 A 
ATOM      3  C   UNL     1     -13.720  49.492 -35.409  1.00  0.00    -0.017 A 
ATOM      4  C   UNL     1     -14.028  48.776 -36.549  1.00  0.00     0.012 A 
ATOM      5  C   UNL     1     -14.541  49.267 -34.309  1.00  0.00     0.012 A 
ATOM      6  C   UNL     1     -15.094  47.891 -36.572  1.00  0.00     0.047 A 
ATOM      7  C   UNL     1     -15.594  48.392 -34.334  1.00  0.00     0.047 A 
BRANCH   3   8
ATOM      8  C   UNL     1     -12.624  50.444 -35.363  1.00  0.00    -0.007 C 
ATOM      9  C   UNL     1     -12.812  51.738 -35.336  1.00  0.00    -0.033 C 
BRANCH   9  10
ATOM     10  C   UNL     1     -11.728  52.758 -35.337  1.00  0.00     0.033 C 
ATOM     11  C   UNL     1     -12.323  54.100 -35.645  1.00  0.00     0.009 C 
ENDBRANCH   9  10
BRANCH   9  12
ATOM     12  C   UNL     1     -14.169  52.305 -35.232  1.00  0.00    -0.022 A 
ATOM     13  C   UNL     1     -15.056  52.265 -36.277  1.00  0.00     0.008 A 
ATOM     14  C   UNL     1     -14.533  52.892 -34.058  1.00  0.00     0.008 A 
ATOM     15  C   UNL     1     -16.304  52.817 -36.132  1.00  0.00     0.001 A 
ATOM     16  C   UNL     1     -15.793  53.467 -33.867  1.00  0.00     0.001 A 
ATOM     17  C   UNL     1     -16.662  53.411 -34.933  1.00  0.00     0.000 A 
ENDBRANCH   9  12
BRANCH   8  18
ATOM     18  C   UNL     1     -11.272  49.923 -35.387  1.00  0.00    -0.018 A 
ATOM     19  C   UNL     1     -10.457  50.037 -36.495  1.00  0.00     0.009 A 
ATOM     20  C   UNL     1     -10.782  49.240 -34.278  1.00  0.00     0.009 A 
ATOM     21  C   UNL     1      -9.204  49.480 -36.468  1.00  0.00     0.001 A 
ATOM     22  C   UNL     1      -9.528  48.676 -34.233  1.00  0.00     0.001 A 
ATOM     23  C   UNL     1      -8.725  48.805 -35.362  1.00  0.00     0.000 A 
ENDBRANCH   8  18
ENDBRANCH   3   8
ENDBRANCH   1   2
BRANCH   1  24
ATOM     24  C   UNL     1     -17.040  45.484 -35.942  1.00  0.00     0.290 C 
BRANCH  24  25
ATOM     25  C   UNL     1     -15.748  44.918 -36.469  1.00  0.00     0.303 C 
BRANCH  25  26
ATOM     26  N   UNL     1     -15.846  44.472 -37.826  1.00  0.00    -0.337 N 
ATOM     27  C   UNL     1     -16.014  43.040 -37.951  1.00  0.00     0.332 C 
ATOM     28  C   UNL     1     -14.692  44.836 -38.623  1.00  0.00     0.332 C 
ATOM     29  H   UNL     1     -16.680  44.911 -38.318  1.00  0.00     0.347 HD
ENDBRANCH  25  26
ENDBRANCH  24  25
ENDBRANCH   1  24
TORSDOF 8
ENDMDL
MODEL 8
REMARK VINA RESULT:      -6.3      1.563      2.084
REMARK SMILES CC/C(=C(\c1ccccc1)c1ccc(OCC[NH+](C)C)cc1)c1ccccc1
REMARK SMILES IDX 15 1 14 2 11 3 12 4 22 5 13 6 21 7 4 8 3 9 2 10 1 11 23 12
REMARK SMILES IDX 24 13 28 14 25 15 27 16 26 17 5 18 6 19 10 20 7 21 9 22 8 23
REMARK SMILES IDX 16 24 17 25 18 26 19 27 20 28
REMARK H PARENT 18 29
ROOT
ATOM      1  O   UNL     1     -16.854  46.656 -35.942  1.00  0.00    -0.488 OA
ENDROOT
BRANCH   1   2
ATOM      2  C   UNL     1     -15.783  47.528 -35.862  1.00  0.00     0.119 A 
ATOM      3  C   UNL     1     -13.602  49.351 -35.585  1.00  0.00    -0.017 A 
ATOM      4  C   UNL     1     -13.795  48.618 -36.739  1.00  0.00     0.012 A 
ATOM      5  C   UNL     1     -14.534  49.147 -34.572  1.00  0.00     0.012 A 
ATOM      6  C   UNL     1     -14.859  47.737 -36.858  1.00  0.00     0.047 A 
ATOM      7  C   UNL     1     -15.584  48.276 -34.692  1.00  0.00     0.047 A 
BRANCH   3   8
ATOM      8  C   UNL     1     -12.512  50.299 -35.441  1.00  0.00    -0.007 C 
ATOM      9  C   UNL     1     -12.703  51.591 -35.366  1.00  0.00    -0.033 C 
BRANCH   9  10
ATOM     10  C   UNL     1     -11.622  52.609 -35.266  1.00  0.00     0.033 C 
ATOM     11  C   UNL     1     -12.149  53.927 -35.751  1.00  0.00     0.009 C 
ENDBRANCH   9  10
BRANCH   9  12
ATOM     12  C   UNL     1     -14.064  52.154 -35.306  1.00  0.00    -0.022 A 
ATOM     13  C   UNL     1     -14.928  52.083 -36.368  1.00  0.00     0.008 A 
ATOM     14  C   UNL     1     -14.456  52.769 -34.156  1.00  0.00     0.008 A 
ATOM     15  C   UNL     1     -16.181  52.632 -36.264  1.00  0.00     0.001 A 
ATOM     16  C   UNL     1     -15.722  53.342 -34.007  1.00  0.00     0.001 A 
ATOM     17  C   UNL     1     -16.568  53.255 -35.089  1.00  0.00     0.000 A 
ENDBRANCH   9  12
BRANCH   8  18
ATOM     18  C   UNL     1     -11.160  49.779 -35.419  1.00  0.00    -0.018 A 
ATOM     19  C   UNL     1     -10.638  49.127 -34.320  1.00  0.00     0.009 A 
ATOM     20  C   UNL     1     -10.331  49.978 -36.520  1.00  0.00     0.009 A 
ATOM     21  C   UNL     1      -9.335  48.702 -34.347  1.00  0.00     0.001 A 
ATOM     22  C   UNL     1      -9.023  49.557 -36.565  1.00  0.00     0.001 A 
ATOM     23  C   UNL     1      -8.520  48.902 -35.444  1.00  0.00     0.000 A 
ENDBRANCH   8  18
ENDBRANCH   3   8
ENDBRANCH   1   2
BRANCH   1  24
ATOM     24  C   UNL     1     -16.855  45.276 -35.840  1.00  0.00     0.290 C 
BRANCH  24  25
ATOM     25  C   UNL     1     -16.538  44.526 -37.108  1.00  0.00     0.303 C 
BRANCH  25  26
ATOM     26  N   UNL     1     -16.960  43.159 -37.068  1.00  0.00    -0.337 N 
ATOM     27  C   UNL     1     -15.972  42.236 -37.581  1.00  0.00     0.332 C 
ATOM     28  C   UNL     1     -18.184  42.926 -37.807  1.00  0.00     0.332 C 
ATOM     29  H   UNL     1     -17.167  42.846 -36.072  1.00  0.00     0.347 HD
ENDBRANCH  25  26
ENDBRANCH  24  25
ENDBRANCH   1  24
TORSDOF 8
ENDMDL
MODEL 9
REMARK VINA RESULT:      -6.3      0.802      1.292
REMARK SMILES CC/C(=C(\c1ccccc1)c1ccc(OCC[NH+](C)C)cc1)c1ccccc1
REMARK SMILES IDX 15 1 14 2 11 3 12 4 22 5 13 6 21 7 4 8 3 9 2 10 1 11 23 12
REMARK SMILES IDX 24 13 28 14 25 15 27 16 26 17 5 18 6 19 10 20 7 21 9 22 8 23
REMARK SMILES IDX 16 24 17 25 18 26 19 27 20 28
REMARK H PARENT 18 29
ROOT
ATOM      1  O   UNL     1     -14.536  45.187 -38.569  1.00  0.00    -0.488 OA
ENDROOT
BRANCH   1   2
ATOM      2  C   UNL     1     -13.888  46.186 -37.866  1.00  0.00     0.119 A 
ATOM      3  C   UNL     1     -12.545  48.312 -36.512  1.00  0.00    -0.017 A 
ATOM      4  C   UNL     1     -13.004  47.197 -35.839  1.00  0.00     0.012 A 
ATOM      5  C   UNL     1     -12.776  48.333 -37.883  1.00  0.00     0.012 A 
ATOM      6  C   UNL     1     -13.654  46.173 -36.511  1.00  0.00     0.047 A 
ATOM      7  C   UNL     1     -13.419  47.320 -38.545  1.00  0.00     0.047 A 
BRANCH   3   8
ATOM      8  C   UNL     1     -11.840  49.389 -35.839  1.00  0.00    -0.007 C 
ATOM      9  C   UNL     1     -12.450  50.439 -35.354  1.00  0.00    -0.033 C 
BRANCH   9  10
ATOM     10  C   UNL     1     -11.773  51.591 -34.698  1.00  0.00     0.033 C 
ATOM     11  C   UNL     1     -12.305  52.866 -35.286  1.00  0.00     0.009 C 
ENDBRANCH   9  10
BRANCH   9  12
ATOM     12  C   UNL     1     -13.921  50.533 -35.362  1.00  0.00    -0.022 A 
ATOM     13  C   UNL     1     -14.597  51.271 -36.298  1.00  0.00     0.008 A 
ATOM     14  C   UNL     1     -14.614  49.868 -34.396  1.00  0.00     0.008 A 
ATOM     15  C   UNL     1     -15.967  51.334 -36.256  1.00  0.00     0.001 A 
ATOM     16  C   UNL     1     -16.009  49.906 -34.314  1.00  0.00     0.001 A 
ATOM     17  C   UNL     1     -16.660  50.654 -35.268  1.00  0.00     0.000 A 
ENDBRANCH   9  12
BRANCH   8  18
ATOM     18  C   UNL     1     -10.397  49.297 -35.742  1.00  0.00    -0.018 A 
ATOM     19  C   UNL     1      -9.559  49.800 -36.718  1.00  0.00     0.009 A 
ATOM     20  C   UNL     1      -9.823  48.641 -34.658  1.00  0.00     0.009 A 
ATOM     21  C   UNL     1      -8.204  49.638 -36.588  1.00  0.00     0.001 A 
ATOM     22  C   UNL     1      -8.466  48.470 -34.511  1.00  0.00     0.001 A 
ATOM     23  C   UNL     1      -7.643  48.986 -35.507  1.00  0.00     0.000 A 
ENDBRANCH   8  18
ENDBRANCH   3   8
ENDBRANCH   1   2
BRANCH   1  24
ATOM     24  C   UNL     1     -15.120  44.029 -38.088  1.00  0.00     0.290 C 
BRANCH  24  25
ATOM     25  C   UNL     1     -16.422  44.209 -37.352  1.00  0.00     0.303 C 
BRANCH  25  26
ATOM     26  N   UNL     1     -17.075  42.969 -37.060  1.00  0.00    -0.337 N 
ATOM     27  C   UNL     1     -16.495  41.837 -37.750  1.00  0.00     0.332 C 
ATOM     28  C   UNL     1     -18.487  42.987 -37.382  1.00  0.00     0.332 C 
ATOM     29  H   UNL     1     -17.024  42.740 -36.023  1.00  0.00     0.347 HD
ENDBRANCH  25  26
ENDBRANCH  24  25
ENDBRANCH   1  24
TORSDOF 8
ENDMDL
