MODEL 1
REMARK VINA RESULT:      -5.4      0.000      0.000
REMARK SMILES Clc1ccccc1C(c1ccccc1)(c1ccccc1)n1ccnc1
REMARK SMILES IDX 1 1 2 2 3 3 4 4 5 5 6 6 7 7 8 8 9 9 10 10 14 11 11 12 13 13
REMARK SMILES IDX 12 14 15 15 16 16 20 17 17 18 19 19 18 20 21 21 22 22 25 23
REMARK SMILES IDX 23 24 24 25
REMARK H PARENT
ROOT
ATOM      1  Cl  UNL     1     114.002 134.606 128.685  1.00  0.00    -0.084 Cl
ATOM      2  C   UNL     1     113.261 136.033 127.994  1.00  0.00     0.047 A 
ATOM      3  C   UNL     1     111.947 136.037 127.586  1.00  0.00     0.021 A 
ATOM      4  C   UNL     1     111.350 137.167 127.072  1.00  0.00     0.002 A 
ATOM      5  C   UNL     1     112.108 138.308 126.974  1.00  0.00     0.001 A 
ATOM      6  C   UNL     1     113.446 138.303 127.389  1.00  0.00     0.008 A 
ATOM      7  C   UNL     1     114.029 137.182 127.895  1.00  0.00     0.006 A 
ENDROOT
BRANCH   7   8
ATOM      8  C   UNL     1     115.459 137.194 128.306  1.00  0.00     0.123 C 
BRANCH   8   9
ATOM      9  C   UNL     1     115.512 136.963 129.778  1.00  0.00    -0.013 A 
ATOM     10  C   UNL     1     114.461 137.040 130.632  1.00  0.00     0.007 A 
ATOM     11  C   UNL     1     116.785 136.624 130.276  1.00  0.00     0.007 A 
ATOM     12  C   UNL     1     114.659 136.783 131.977  1.00  0.00     0.000 A 
ATOM     13  C   UNL     1     116.971 136.370 131.610  1.00  0.00     0.000 A 
ATOM     14  C   UNL     1     115.913 136.445 132.484  1.00  0.00     0.000 A 
ENDBRANCH   8   9
BRANCH   8  15
ATOM     15  C   UNL     1     116.059 138.544 128.135  1.00  0.00    -0.013 A 
ATOM     16  C   UNL     1     117.201 138.774 127.413  1.00  0.00     0.007 A 
ATOM     17  C   UNL     1     115.427 139.619 128.706  1.00  0.00     0.007 A 
ATOM     18  C   UNL     1     117.727 140.050 127.250  1.00  0.00     0.000 A 
ATOM     19  C   UNL     1     115.940 140.918 128.555  1.00  0.00     0.000 A 
ATOM     20  C   UNL     1     117.082 141.116 127.830  1.00  0.00     0.000 A 
ENDBRANCH   8  15
BRANCH   8  21
ATOM     21  N   UNL     1     116.200 136.236 127.541  1.00  0.00    -0.319 N 
ATOM     22  C   UNL     1     116.105 136.042 126.196  1.00  0.00     0.109 A 
ATOM     23  C   UNL     1     117.122 135.384 127.989  1.00  0.00     0.200 A 
ATOM     24  C   UNL     1     116.986 135.052 125.821  1.00  0.00     0.131 A 
ATOM     25  N   UNL     1     117.595 134.667 126.936  1.00  0.00    -0.245 NA
ENDBRANCH   8  21
ENDBRANCH   7   8
TORSDOF 4
ENDMDL
MODEL 2
REMARK VINA RESULT:      -5.4      3.707      7.092
REMARK SMILES Clc1ccccc1C(c1ccccc1)(c1ccccc1)n1ccnc1
REMARK SMILES IDX 1 1 2 2 3 3 4 4 5 5 6 6 7 7 8 8 9 9 10 10 14 11 11 12 13 13
REMARK SMILES IDX 12 14 15 15 16 16 20 17 17 18 19 19 18 20 21 21 22 22 25 23
REMARK SMILES IDX 23 24 24 25
REMARK H PARENT
ROOT
ATOM      1  Cl  UNL     1     121.041 138.604 128.673  1.00  0.00    -0.084 Cl
ATOM      2  C   UNL     1     120.980 140.275 129.187  1.00  0.00     0.047 A 
ATOM      3  C   UNL     1     121.834 140.765 130.148  1.00  0.00     0.021 A 
ATOM      4  C   UNL     1     121.812 142.088 130.533  1.00  0.00     0.002 A 
ATOM      5  C   UNL     1     120.903 142.920 129.926  1.00  0.00     0.001 A 
ATOM      6  C   UNL     1     120.034 142.420 128.947  1.00  0.00     0.008 A 
ATOM      7  C   UNL     1     120.062 141.112 128.574  1.00  0.00     0.006 A 
ENDROOT
BRANCH   7   8
ATOM      8  C   UNL     1     119.112 140.599 127.550  1.00  0.00     0.123 C 
BRANCH   8   9
ATOM      9  C   UNL     1     119.910 140.127 126.383  1.00  0.00    -0.013 A 
ATOM     10  C   UNL     1     119.580 139.103 125.557  1.00  0.00     0.007 A 
ATOM     11  C   UNL     1     121.095 140.850 126.148  1.00  0.00     0.007 A 
ATOM     12  C   UNL     1     120.414 138.787 124.500  1.00  0.00     0.000 A 
ATOM     13  C   UNL     1     121.915 140.531 125.097  1.00  0.00     0.000 A 
ATOM     14  C   UNL     1     121.590 139.495 124.255  1.00  0.00     0.000 A 
ENDBRANCH   8   9
BRANCH   8  15
ATOM     15  C   UNL     1     118.275 141.694 126.991  1.00  0.00    -0.013 A 
ATOM     16  C   UNL     1     118.699 142.532 125.993  1.00  0.00     0.007 A 
ATOM     17  C   UNL     1     117.005 141.863 127.481  1.00  0.00     0.007 A 
ATOM     18  C   UNL     1     117.887 143.533 125.474  1.00  0.00     0.000 A 
ATOM     19  C   UNL     1     116.166 142.868 126.972  1.00  0.00     0.000 A 
ATOM     20  C   UNL     1     116.617 143.689 125.976  1.00  0.00     0.000 A 
ENDBRANCH   8  15
BRANCH   8  21
ATOM     21  N   UNL     1     118.268 139.591 128.121  1.00  0.00    -0.319 N 
ATOM     22  C   UNL     1     117.717 138.539 127.455  1.00  0.00     0.109 A 
ATOM     23  C   UNL     1     117.888 139.485 129.394  1.00  0.00     0.200 A 
ATOM     24  C   UNL     1     116.987 137.779 128.341  1.00  0.00     0.131 A 
ATOM     25  N   UNL     1     117.108 138.379 129.520  1.00  0.00    -0.245 NA
ENDBRANCH   8  21
ENDBRANCH   7   8
TORSDOF 4
ENDMDL
MODEL 3
REMARK VINA RESULT:      -5.2      4.365      7.326
REMARK SMILES Clc1ccccc1C(c1ccccc1)(c1ccccc1)n1ccnc1
REMARK SMILES IDX 1 1 2 2 3 3 4 4 5 5 6 6 7 7 8 8 9 9 10 10 14 11 11 12 13 13
REMARK SMILES IDX 12 14 15 15 16 16 20 17 17 18 19 19 18 20 21 21 22 22 25 23
REMARK SMILES IDX 23 24 24 25
REMARK H PARENT
ROOT
ATOM      1  Cl  UNL     1     119.519 142.152 129.688  1.00  0.00    -0.084 Cl
ATOM      2  C   UNL     1     120.866 141.825 128.620  1.00  0.00     0.047 A 
ATOM      3  C   UNL     1     122.092 142.423 128.802  1.00  0.00     0.021 A 
ATOM      4  C   UNL     1     123.165 142.143 127.983  1.00  0.00     0.002 A 
ATOM      5  C   UNL     1     122.979 141.239 126.966  1.00  0.00     0.001 A 
ATOM      6  C   UNL     1     121.731 140.630 126.782  1.00  0.00     0.008 A 
ATOM      7  C   UNL     1     120.676 140.913 127.594  1.00  0.00     0.006 A 
ENDROOT
BRANCH   7   8
ATOM      8  C   UNL     1     119.353 140.273 127.364  1.00  0.00     0.123 C 
BRANCH   8   9
ATOM      9  C   UNL     1     119.418 139.546 126.065  1.00  0.00    -0.013 A 
ATOM     10  C   UNL     1     120.044 139.980 124.942  1.00  0.00     0.007 A 
ATOM     11  C   UNL     1     118.771 138.295 126.056  1.00  0.00     0.007 A 
ATOM     12  C   UNL     1     120.035 139.186 123.809  1.00  0.00     0.000 A 
ATOM     13  C   UNL     1     118.768 137.515 124.929  1.00  0.00     0.000 A 
ATOM     14  C   UNL     1     119.398 137.945 123.786  1.00  0.00     0.000 A 
ENDBRANCH   8   9
BRANCH   8  15
ATOM     15  C   UNL     1     118.290 141.292 127.149  1.00  0.00    -0.013 A 
ATOM     16  C   UNL     1     116.996 141.131 127.570  1.00  0.00     0.007 A 
ATOM     17  C   UNL     1     118.625 142.464 126.520  1.00  0.00     0.007 A 
ATOM     18  C   UNL     1     116.030 142.110 127.377  1.00  0.00     0.000 A 
ATOM     19  C   UNL     1     117.664 143.469 126.313  1.00  0.00     0.000 A 
ATOM     20  C   UNL     1     116.381 143.279 126.744  1.00  0.00     0.000 A 
ENDBRANCH   8  15
BRANCH   8  21
ATOM     21  N   UNL     1     119.006 139.442 128.479  1.00  0.00    -0.319 N 
ATOM     22  C   UNL     1     119.869 138.680 129.205  1.00  0.00     0.109 A 
ATOM     23  C   UNL     1     117.798 139.280 129.018  1.00  0.00     0.200 A 
ATOM     24  C   UNL     1     119.171 138.040 130.205  1.00  0.00     0.131 A 
ATOM     25  N   UNL     1     117.907 138.425 130.069  1.00  0.00    -0.245 NA
ENDBRANCH   8  21
ENDBRANCH   7   8
TORSDOF 4
ENDMDL
MODEL 4
REMARK VINA RESULT:      -5.2      4.014      7.285
REMARK SMILES Clc1ccccc1C(c1ccccc1)(c1ccccc1)n1ccnc1
REMARK SMILES IDX 1 1 2 2 3 3 4 4 5 5 6 6 7 7 8 8 9 9 10 10 14 11 11 12 13 13
REMARK SMILES IDX 12 14 15 15 16 16 20 17 17 18 19 19 18 20 21 21 22 22 25 23
REMARK SMILES IDX 23 24 24 25
REMARK H PARENT
ROOT
ATOM      1  Cl  UNL     1     121.630 138.724 128.587  1.00  0.00    -0.084 Cl
ATOM      2  C   UNL     1     121.393 140.366 129.142  1.00  0.00     0.047 A 
ATOM      3  C   UNL     1     122.249 140.953 130.046  1.00  0.00     0.021 A 
ATOM      4  C   UNL     1     122.084 142.256 130.461  1.00  0.00     0.002 A 
ATOM      5  C   UNL     1     121.029 142.968 129.945  1.00  0.00     0.001 A 
ATOM      6  C   UNL     1     120.157 142.370 129.025  1.00  0.00     0.008 A 
ATOM      7  C   UNL     1     120.326 141.081 128.621  1.00  0.00     0.006 A 
ENDROOT
BRANCH   7   8
ATOM      8  C   UNL     1     119.373 140.459 127.662  1.00  0.00     0.123 C 
BRANCH   8   9
ATOM      9  C   UNL     1     120.131 140.109 126.428  1.00  0.00    -0.013 A 
ATOM     10  C   UNL     1     119.769 139.177 125.512  1.00  0.00     0.007 A 
ATOM     11  C   UNL     1     121.313 140.849 126.232  1.00  0.00     0.007 A 
ATOM     12  C   UNL     1     120.567 138.970 124.401  1.00  0.00     0.000 A 
ATOM     13  C   UNL     1     122.098 140.638 125.128  1.00  0.00     0.000 A 
ATOM     14  C   UNL     1     121.740 139.695 124.194  1.00  0.00     0.000 A 
ENDBRANCH   8   9
BRANCH   8  15
ATOM     15  C   UNL     1     118.360 141.442 127.193  1.00  0.00    -0.013 A 
ATOM     16  C   UNL     1     117.049 141.421 127.589  1.00  0.00     0.007 A 
ATOM     17  C   UNL     1     118.762 142.438 126.339  1.00  0.00     0.007 A 
ATOM     18  C   UNL     1     116.129 142.367 127.152  1.00  0.00     0.000 A 
ATOM     19  C   UNL     1     117.850 143.405 125.883  1.00  0.00     0.000 A 
ATOM     20  C   UNL     1     116.547 143.357 126.295  1.00  0.00     0.000 A 
ENDBRANCH   8  15
BRANCH   8  21
ATOM     21  N   UNL     1     118.714 139.344 128.276  1.00  0.00    -0.319 N 
ATOM     22  C   UNL     1     118.341 139.258 129.582  1.00  0.00     0.109 A 
ATOM     23  C   UNL     1     118.330 138.212 127.687  1.00  0.00     0.200 A 
ATOM     24  C   UNL     1     117.718 138.047 129.792  1.00  0.00     0.131 A 
ATOM     25  N   UNL     1     117.724 137.427 128.618  1.00  0.00    -0.245 NA
ENDBRANCH   8  21
ENDBRANCH   7   8
TORSDOF 4
ENDMDL
MODEL 5
REMARK VINA RESULT:      -5.2      3.451      6.771
REMARK SMILES Clc1ccccc1C(c1ccccc1)(c1ccccc1)n1ccnc1
REMARK SMILES IDX 1 1 2 2 3 3 4 4 5 5 6 6 7 7 8 8 9 9 10 10 14 11 11 12 13 13
REMARK SMILES IDX 12 14 15 15 16 16 20 17 17 18 19 19 18 20 21 21 22 22 25 23
REMARK SMILES IDX 23 24 24 25
REMARK H PARENT
ROOT
ATOM      1  Cl  UNL     1     120.748 137.946 128.591  1.00  0.00    -0.084 Cl
ATOM      2  C   UNL     1     120.810 139.570 129.239  1.00  0.00     0.047 A 
ATOM      3  C   UNL     1     121.705 139.920 130.223  1.00  0.00     0.021 A 
ATOM      4  C   UNL     1     121.778 141.206 130.713  1.00  0.00     0.002 A 
ATOM      5  C   UNL     1     120.925 142.145 130.188  1.00  0.00     0.001 A 
ATOM      6  C   UNL     1     120.014 141.788 129.186  1.00  0.00     0.008 A 
ATOM      7  C   UNL     1     119.946 140.515 128.708  1.00  0.00     0.006 A 
ENDROOT
BRANCH   7   8
ATOM      8  C   UNL     1     118.953 140.153 127.661  1.00  0.00     0.123 C 
BRANCH   8   9
ATOM      9  C   UNL     1     119.705 139.750 126.439  1.00  0.00    -0.013 A 
ATOM     10  C   UNL     1     120.939 140.189 126.086  1.00  0.00     0.007 A 
ATOM     11  C   UNL     1     119.041 138.819 125.618  1.00  0.00     0.007 A 
ATOM     12  C   UNL     1     121.522 139.714 124.925  1.00  0.00     0.000 A 
ATOM     13  C   UNL     1     119.627 138.353 124.470  1.00  0.00     0.000 A 
ATOM     14  C   UNL     1     120.876 138.791 124.102  1.00  0.00     0.000 A 
ENDBRANCH   8   9
BRANCH   8  15
ATOM     15  C   UNL     1     118.171 141.341 127.224  1.00  0.00    -0.013 A 
ATOM     16  C   UNL     1     118.690 142.337 126.439  1.00  0.00     0.007 A 
ATOM     17  C   UNL     1     116.856 141.435 127.603  1.00  0.00     0.007 A 
ATOM     18  C   UNL     1     117.930 143.425 126.027  1.00  0.00     0.000 A 
ATOM     19  C   UNL     1     116.068 142.525 127.199  1.00  0.00     0.000 A 
ATOM     20  C   UNL     1     116.614 143.505 126.416  1.00  0.00     0.000 A 
ENDBRANCH   8  15
BRANCH   8  21
ATOM     21  N   UNL     1     118.062 139.145 128.154  1.00  0.00    -0.319 N 
ATOM     22  C   UNL     1     117.493 138.152 127.415  1.00  0.00     0.109 A 
ATOM     23  C   UNL     1     117.648 138.978 129.409  1.00  0.00     0.200 A 
ATOM     24  C   UNL     1     116.716 137.368 128.239  1.00  0.00     0.131 A 
ATOM     25  N   UNL     1     116.828 137.895 129.453  1.00  0.00    -0.245 NA
ENDBRANCH   8  21
ENDBRANCH   7   8
TORSDOF 4
ENDMDL
MODEL 6
REMARK VINA RESULT:      -5.2      4.047      7.269
REMARK SMILES Clc1ccccc1C(c1ccccc1)(c1ccccc1)n1ccnc1
REMARK SMILES IDX 1 1 2 2 3 3 4 4 5 5 6 6 7 7 8 8 9 9 10 10 14 11 11 12 13 13
REMARK SMILES IDX 12 14 15 15 16 16 20 17 17 18 19 19 18 20 21 21 22 22 25 23
REMARK SMILES IDX 23 24 24 25
REMARK H PARENT
ROOT
ATOM      1  Cl  UNL     1     121.582 138.647 128.667  1.00  0.00    -0.084 Cl
ATOM      2  C   UNL     1     121.406 140.316 129.159  1.00  0.00     0.047 A 
ATOM      3  C   UNL     1     122.270 140.897 130.059  1.00  0.00     0.021 A 
ATOM      4  C   UNL     1     122.154 142.221 130.424  1.00  0.00     0.002 A 
ATOM      5  C   UNL     1     121.141 142.958 129.863  1.00  0.00     0.001 A 
ATOM      6  C   UNL     1     120.261 142.365 128.947  1.00  0.00     0.008 A 
ATOM      7  C   UNL     1     120.382 141.057 128.592  1.00  0.00     0.006 A 
ENDROOT
BRANCH   7   8
ATOM      8  C   UNL     1     119.420 140.442 127.637  1.00  0.00     0.123 C 
BRANCH   8   9
ATOM      9  C   UNL     1     120.173 140.080 126.402  1.00  0.00    -0.013 A 
ATOM     10  C   UNL     1     121.429 140.487 126.090  1.00  0.00     0.007 A 
ATOM     11  C   UNL     1     119.482 139.228 125.519  1.00  0.00     0.007 A 
ATOM     12  C   UNL     1     122.009 140.056 124.910  1.00  0.00     0.000 A 
ATOM     13  C   UNL     1     120.065 138.805 124.353  1.00  0.00     0.000 A 
ATOM     14  C   UNL     1     121.337 139.211 124.027  1.00  0.00     0.000 A 
ENDBRANCH   8   9
BRANCH   8  15
ATOM     15  C   UNL     1     118.417 141.435 127.166  1.00  0.00    -0.013 A 
ATOM     16  C   UNL     1     117.115 141.449 127.591  1.00  0.00     0.007 A 
ATOM     17  C   UNL     1     118.819 142.402 126.280  1.00  0.00     0.007 A 
ATOM     18  C   UNL     1     116.205 142.403 127.151  1.00  0.00     0.000 A 
ATOM     19  C   UNL     1     117.917 143.376 125.821  1.00  0.00     0.000 A 
ATOM     20  C   UNL     1     116.623 143.364 126.263  1.00  0.00     0.000 A 
ENDBRANCH   8  15
BRANCH   8  21
ATOM     21  N   UNL     1     118.751 139.336 128.254  1.00  0.00    -0.319 N 
ATOM     22  C   UNL     1     118.429 138.159 127.649  1.00  0.00     0.109 A 
ATOM     23  C   UNL     1     118.344 139.244 129.520  1.00  0.00     0.200 A 
ATOM     24  C   UNL     1     117.813 137.337 128.566  1.00  0.00     0.131 A 
ATOM     25  N   UNL     1     117.773 138.024 129.702  1.00  0.00    -0.245 NA
ENDBRANCH   8  21
ENDBRANCH   7   8
TORSDOF 4
ENDMDL
MODEL 7
REMARK VINA RESULT:      -5.2      4.172      7.069
REMARK SMILES Clc1ccccc1C(c1ccccc1)(c1ccccc1)n1ccnc1
REMARK SMILES IDX 1 1 2 2 3 3 4 4 5 5 6 6 7 7 8 8 9 9 10 10 14 11 11 12 13 13
REMARK SMILES IDX 12 14 15 15 16 16 20 17 17 18 19 19 18 20 21 21 22 22 25 23
REMARK SMILES IDX 23 24 24 25
REMARK H PARENT
ROOT
ATOM      1  Cl  UNL     1     118.484 142.484 129.876  1.00  0.00    -0.084 Cl
ATOM      2  C   UNL     1     120.091 142.330 129.201  1.00  0.00     0.047 A 
ATOM      3  C   UNL     1     121.171 142.977 129.756  1.00  0.00     0.021 A 
ATOM      4  C   UNL     1     122.444 142.832 129.247  1.00  0.00     0.002 A 
ATOM      5  C   UNL     1     122.612 142.014 128.156  1.00  0.00     0.001 A 
ATOM      6  C   UNL     1     121.511 141.356 127.592  1.00  0.00     0.008 A 
ATOM      7  C   UNL     1     120.257 141.505 128.100  1.00  0.00     0.006 A 
ENDROOT
BRANCH   7   8
ATOM      8  C   UNL     1     119.100 140.816 127.468  1.00  0.00     0.123 C 
BRANCH   8   9
ATOM      9  C   UNL     1     118.617 139.772 128.417  1.00  0.00    -0.013 A 
ATOM     10  C   UNL     1     117.327 139.391 128.589  1.00  0.00     0.007 A 
ATOM     11  C   UNL     1     119.629 139.145 129.169  1.00  0.00     0.007 A 
ATOM     12  C   UNL     1     117.029 138.393 129.499  1.00  0.00     0.000 A 
ATOM     13  C   UNL     1     119.325 138.157 130.068  1.00  0.00     0.000 A 
ATOM     14  C   UNL     1     118.021 137.763 130.250  1.00  0.00     0.000 A 
ENDBRANCH   8   9
BRANCH   8  15
ATOM     15  C   UNL     1     119.520 140.041 126.270  1.00  0.00    -0.013 A 
ATOM     16  C   UNL     1     120.478 140.474 125.391  1.00  0.00     0.007 A 
ATOM     17  C   UNL     1     118.939 138.820 126.043  1.00  0.00     0.007 A 
ATOM     18  C   UNL     1     120.868 139.718 124.292  1.00  0.00     0.000 A 
ATOM     19  C   UNL     1     119.316 138.038 124.938  1.00  0.00     0.000 A 
ATOM     20  C   UNL     1     120.275 138.497 124.078  1.00  0.00     0.000 A 
ENDBRANCH   8  15
BRANCH   8  21
ATOM     21  N   UNL     1     118.099 141.771 127.098  1.00  0.00    -0.319 N 
ATOM     22  C   UNL     1     118.315 142.931 126.418  1.00  0.00     0.109 A 
ATOM     23  C   UNL     1     116.788 141.695 127.325  1.00  0.00     0.200 A 
ATOM     24  C   UNL     1     117.111 143.573 126.230  1.00  0.00     0.131 A 
ATOM     25  N   UNL     1     116.194 142.796 126.794  1.00  0.00    -0.245 NA
ENDBRANCH   8  21
ENDBRANCH   7   8
TORSDOF 4
ENDMDL
MODEL 8
REMARK VINA RESULT:      -5.1      1.968      4.960
REMARK SMILES Clc1ccccc1C(c1ccccc1)(c1ccccc1)n1ccnc1
REMARK SMILES IDX 1 1 2 2 3 3 4 4 5 5 6 6 7 7 8 8 9 9 10 10 14 11 11 12 13 13
REMARK SMILES IDX 12 14 15 15 16 16 20 17 17 18 19 19 18 20 21 21 22 22 25 23
REMARK SMILES IDX 23 24 24 25
REMARK H PARENT
ROOT
ATOM      1  Cl  UNL     1     117.638 137.679 130.175  1.00  0.00    -0.084 Cl
ATOM      2  C   UNL     1     116.125 136.816 130.344  1.00  0.00     0.047 A 
ATOM      3  C   UNL     1     115.754 136.238 131.536  1.00  0.00     0.021 A 
ATOM      4  C   UNL     1     114.549 135.585 131.682  1.00  0.00     0.002 A 
ATOM      5  C   UNL     1     113.714 135.524 130.594  1.00  0.00     0.001 A 
ATOM      6  C   UNL     1     114.093 136.113 129.380  1.00  0.00     0.008 A 
ATOM      7  C   UNL     1     115.285 136.755 129.244  1.00  0.00     0.006 A 
ENDROOT
BRANCH   7   8
ATOM      8  C   UNL     1     115.677 137.351 127.938  1.00  0.00     0.123 C 
BRANCH   8   9
ATOM      9  C   UNL     1     114.557 137.127 126.980  1.00  0.00    -0.013 A 
ATOM     10  C   UNL     1     114.584 136.296 125.908  1.00  0.00     0.007 A 
ATOM     11  C   UNL     1     113.384 137.854 127.263  1.00  0.00     0.007 A 
ATOM     12  C   UNL     1     113.458 136.177 125.113  1.00  0.00     0.000 A 
ATOM     13  C   UNL     1     112.273 137.729 126.470  1.00  0.00     0.000 A 
ATOM     14  C   UNL     1     112.289 136.890 125.382  1.00  0.00     0.000 A 
ENDBRANCH   8   9
BRANCH   8  15
ATOM     15  C   UNL     1     116.819 136.617 127.330  1.00  0.00    -0.013 A 
ATOM     16  C   UNL     1     117.202 135.362 127.722  1.00  0.00     0.007 A 
ATOM     17  C   UNL     1     117.511 137.215 126.307  1.00  0.00     0.007 A 
ATOM     18  C   UNL     1     118.259 134.690 127.120  1.00  0.00     0.000 A 
ATOM     19  C   UNL     1     118.583 136.556 125.683  1.00  0.00     0.000 A 
ATOM     20  C   UNL     1     118.943 135.303 126.097  1.00  0.00     0.000 A 
ENDBRANCH   8  15
BRANCH   8  21
ATOM     21  N   UNL     1     116.027 138.730 128.110  1.00  0.00    -0.319 N 
ATOM     22  C   UNL     1     117.118 139.349 127.580  1.00  0.00     0.109 A 
ATOM     23  C   UNL     1     115.351 139.655 128.791  1.00  0.00     0.200 A 
ATOM     24  C   UNL     1     117.105 140.676 127.948  1.00  0.00     0.131 A 
ATOM     25  N   UNL     1     116.014 140.837 128.688  1.00  0.00    -0.245 NA
ENDBRANCH   8  21
ENDBRANCH   7   8
TORSDOF 4
ENDMDL
MODEL 9
REMARK VINA RESULT:      -5.1      4.056      6.854
REMARK SMILES Clc1ccccc1C(c1ccccc1)(c1ccccc1)n1ccnc1
REMARK SMILES IDX 1 1 2 2 3 3 4 4 5 5 6 6 7 7 8 8 9 9 10 10 14 11 11 12 13 13
REMARK SMILES IDX 12 14 15 15 16 16 20 17 17 18 19 19 18 20 21 21 22 22 25 23
REMARK SMILES IDX 23 24 24 25
REMARK H PARENT
ROOT
ATOM      1  Cl  UNL     1     118.570 142.313 129.832  1.00  0.00    -0.084 Cl
ATOM      2  C   UNL     1     120.097 142.076 129.012  1.00  0.00     0.047 A 
ATOM      3  C   UNL     1     121.236 142.741 129.403  1.00  0.00     0.021 A 
ATOM      4  C   UNL     1     122.448 142.532 128.781  1.00  0.00     0.002 A 
ATOM      5  C   UNL     1     122.494 141.631 127.746  1.00  0.00     0.001 A 
ATOM      6  C   UNL     1     121.333 140.954 127.349  1.00  0.00     0.008 A 
ATOM      7  C   UNL     1     120.140 141.167 127.967  1.00  0.00     0.006 A 
ENDROOT
BRANCH   7   8
ATOM      8  C   UNL     1     118.916 140.455 127.511  1.00  0.00     0.123 C 
BRANCH   8   9
ATOM      9  C   UNL     1     118.546 139.465 128.562  1.00  0.00    -0.013 A 
ATOM     10  C   UNL     1     117.285 139.076 128.877  1.00  0.00     0.007 A 
ATOM     11  C   UNL     1     119.636 138.900 129.250  1.00  0.00     0.007 A 
ATOM     12  C   UNL     1     117.094 138.131 129.869  1.00  0.00     0.000 A 
ATOM     13  C   UNL     1     119.438 137.963 130.231  1.00  0.00     0.000 A 
ATOM     14  C   UNL     1     118.165 137.563 130.559  1.00  0.00     0.000 A 
ENDBRANCH   8   9
BRANCH   8  15
ATOM     15  C   UNL     1     119.192 139.618 126.313  1.00  0.00    -0.013 A 
ATOM     16  C   UNL     1     118.681 138.359 126.139  1.00  0.00     0.007 A 
ATOM     17  C   UNL     1     119.979 140.139 125.317  1.00  0.00     0.007 A 
ATOM     18  C   UNL     1     118.937 137.608 124.998  1.00  0.00     0.000 A 
ATOM     19  C   UNL     1     120.252 139.399 124.155  1.00  0.00     0.000 A 
ATOM     20  C   UNL     1     119.728 138.144 124.011  1.00  0.00     0.000 A 
ENDBRANCH   8  15
BRANCH   8  21
ATOM     21  N   UNL     1     117.879 141.398 127.211  1.00  0.00    -0.319 N 
ATOM     22  C   UNL     1     118.043 142.583 126.559  1.00  0.00     0.109 A 
ATOM     23  C   UNL     1     116.581 141.285 127.489  1.00  0.00     0.200 A 
ATOM     24  C   UNL     1     116.818 143.202 126.441  1.00  0.00     0.131 A 
ATOM     25  N   UNL     1     115.942 142.388 127.017  1.00  0.00    -0.245 NA
ENDBRANCH   8  21
ENDBRANCH   7   8
TORSDOF 4
ENDMDL
