MODEL 1
REMARK VINA RESULT:      -2.1      0.000      0.000
REMARK SMILES C[NH+](Cc1ccc(C(C)(C)C)cc1)Cc1cccc2ccccc12
REMARK SMILES IDX 3 1 2 2 1 3 14 5 15 6 16 7 24 8 17 9 23 10 19 11 18 12 22 13
REMARK SMILES IDX 20 14 21 15 4 16 5 17 13 18 6 19 12 20 7 21 8 22 9 23 10 24
REMARK SMILES IDX 11 25
REMARK H PARENT 2 4
ROOT
ATOM      1  C   UNL     1     -13.789 -23.510 -15.130  1.00  0.00     0.299 C 
ENDROOT
BRANCH   1   2
ATOM      2  N   UNL     1     -12.884 -24.640 -15.177  1.00  0.00    -0.330 N 
ATOM      3  C   UNL     1     -11.867 -24.496 -14.131  1.00  0.00     0.333 C 
ATOM      4  H   UNL     1     -13.451 -25.455 -14.878  1.00  0.00     0.348 HD
BRANCH   2   5
ATOM      5  C   UNL     1     -12.308 -24.875 -16.452  1.00  0.00     0.299 C 
BRANCH   5   6
ATOM      6  C   UNL     1     -13.004 -25.852 -17.319  1.00  0.00     0.014 A 
ATOM      7  C   UNL     1     -13.600 -26.987 -16.772  1.00  0.00     0.010 A 
ATOM      8  C   UNL     1     -13.074 -25.721 -18.681  1.00  0.00    -0.010 A 
ATOM      9  C   UNL     1     -14.219 -27.920 -17.548  1.00  0.00     0.001 A 
ATOM     10  C   UNL     1     -12.528 -24.630 -19.317  1.00  0.00     0.009 A 
ATOM     11  C   UNL     1     -13.703 -26.661 -19.508  1.00  0.00    -0.018 A 
ATOM     12  C   UNL     1     -14.272 -27.760 -18.907  1.00  0.00     0.009 A 
ATOM     13  C   UNL     1     -12.597 -24.472 -20.710  1.00  0.00     0.001 A 
ATOM     14  C   UNL     1     -13.790 -26.541 -20.870  1.00  0.00     0.009 A 
ATOM     15  C   UNL     1     -13.226 -25.426 -21.477  1.00  0.00     0.001 A 
ENDBRANCH   5   6
ENDBRANCH   2   5
ENDBRANCH   1   2
BRANCH   1  16
ATOM     16  C   UNL     1     -13.770 -22.717 -16.404  1.00  0.00     0.006 A 
ATOM     17  C   UNL     1     -12.660 -21.990 -16.778  1.00  0.00     0.010 A 
ATOM     18  C   UNL     1     -14.860 -22.685 -17.250  1.00  0.00     0.010 A 
ATOM     19  C   UNL     1     -12.635 -21.262 -17.950  1.00  0.00     0.005 A 
ATOM     20  C   UNL     1     -14.843 -21.954 -18.431  1.00  0.00     0.005 A 
ATOM     21  C   UNL     1     -13.733 -21.231 -18.800  1.00  0.00    -0.043 A 
BRANCH  21  22
ATOM     22  C   UNL     1     -13.665 -20.432 -20.056  1.00  0.00    -0.013 C 
ATOM     23  C   UNL     1     -12.549 -20.978 -20.909  1.00  0.00     0.016 C 
ATOM     24  C   UNL     1     -14.956 -20.566 -20.835  1.00  0.00     0.016 C 
ATOM     25  C   UNL     1     -13.444 -18.971 -19.787  1.00  0.00     0.016 C 
ENDBRANCH  21  22
ENDBRANCH   1  16
TORSDOF 5
ENDMDL
MODEL 2
REMARK VINA RESULT:      -2.0      1.903      5.808
REMARK SMILES C[NH+](Cc1ccc(C(C)(C)C)cc1)Cc1cccc2ccccc12
REMARK SMILES IDX 3 1 2 2 1 3 14 5 15 6 16 7 24 8 17 9 23 10 19 11 18 12 22 13
REMARK SMILES IDX 20 14 21 15 4 16 5 17 13 18 6 19 12 20 7 21 8 22 9 23 10 24
REMARK SMILES IDX 11 25
REMARK H PARENT 2 4
ROOT
ATOM      1  C   UNL     1     -14.899 -21.183 -20.066  1.00  0.00     0.299 C 
ENDROOT
BRANCH   1   2
ATOM      2  N   UNL     1     -15.963 -20.937 -19.115  1.00  0.00    -0.330 N 
ATOM      3  C   UNL     1     -16.688 -19.720 -19.496  1.00  0.00     0.333 C 
ATOM      4  H   UNL     1     -16.645 -21.703 -19.264  1.00  0.00     0.348 HD
BRANCH   2   5
ATOM      5  C   UNL     1     -15.539 -20.904 -17.761  1.00  0.00     0.299 C 
BRANCH   5   6
ATOM      6  C   UNL     1     -14.090 -21.080 -17.519  1.00  0.00     0.014 A 
ATOM      7  C   UNL     1     -13.191 -20.060 -17.826  1.00  0.00     0.010 A 
ATOM      8  C   UNL     1     -13.553 -22.239 -17.023  1.00  0.00    -0.010 A 
ATOM      9  C   UNL     1     -11.849 -20.205 -17.645  1.00  0.00     0.001 A 
ATOM     10  C   UNL     1     -14.357 -23.301 -16.678  1.00  0.00     0.009 A 
ATOM     11  C   UNL     1     -12.179 -22.421 -16.825  1.00  0.00    -0.018 A 
ATOM     12  C   UNL     1     -11.343 -21.376 -17.148  1.00  0.00     0.009 A 
ATOM     13  C   UNL     1     -13.828 -24.494 -16.160  1.00  0.00     0.001 A 
ATOM     14  C   UNL     1     -11.626 -23.570 -16.322  1.00  0.00     0.009 A 
ATOM     15  C   UNL     1     -12.469 -24.621 -15.986  1.00  0.00     0.001 A 
ENDBRANCH   5   6
ENDBRANCH   2   5
ENDBRANCH   1   2
BRANCH   1  16
ATOM     16  C   UNL     1     -14.469 -22.620 -20.076  1.00  0.00     0.006 A 
ATOM     17  C   UNL     1     -15.393 -23.644 -20.083  1.00  0.00     0.010 A 
ATOM     18  C   UNL     1     -13.135 -22.974 -20.079  1.00  0.00     0.010 A 
ATOM     19  C   UNL     1     -15.003 -24.967 -20.095  1.00  0.00     0.005 A 
ATOM     20  C   UNL     1     -12.735 -24.304 -20.092  1.00  0.00     0.005 A 
ATOM     21  C   UNL     1     -13.661 -25.321 -20.099  1.00  0.00    -0.043 A 
BRANCH  21  22
ATOM     22  C   UNL     1     -13.282 -26.763 -20.113  1.00  0.00    -0.013 C 
ATOM     23  C   UNL     1     -13.625 -27.359 -18.771  1.00  0.00     0.016 C 
ATOM     24  C   UNL     1     -14.074 -27.504 -21.169  1.00  0.00     0.016 C 
ATOM     25  C   UNL     1     -11.824 -26.963 -20.411  1.00  0.00     0.016 C 
ENDBRANCH  21  22
ENDBRANCH   1  16
TORSDOF 5
ENDMDL
MODEL 3
REMARK VINA RESULT:      -1.9      2.489      6.926
REMARK SMILES C[NH+](Cc1ccc(C(C)(C)C)cc1)Cc1cccc2ccccc12
REMARK SMILES IDX 3 1 2 2 1 3 14 5 15 6 16 7 24 8 17 9 23 10 19 11 18 12 22 13
REMARK SMILES IDX 20 14 21 15 4 16 5 17 13 18 6 19 12 20 7 21 8 22 9 23 10 24
REMARK SMILES IDX 11 25
REMARK H PARENT 2 4
ROOT
ATOM      1  C   UNL     1     -11.886 -21.253 -20.413  1.00  0.00     0.299 C 
ENDROOT
BRANCH   1   2
ATOM      2  N   UNL     1     -11.524 -20.654 -19.145  1.00  0.00    -0.330 N 
ATOM      3  C   UNL     1     -12.025 -21.490 -18.049  1.00  0.00     0.333 C 
ATOM      4  H   UNL     1     -10.493 -20.741 -19.087  1.00  0.00     0.348 HD
BRANCH   2   5
ATOM      5  C   UNL     1     -11.918 -19.298 -19.006  1.00  0.00     0.299 C 
BRANCH   5   6
ATOM      6  C   UNL     1     -13.373 -19.034 -18.983  1.00  0.00     0.014 A 
ATOM      7  C   UNL     1     -14.213 -19.761 -18.140  1.00  0.00     0.010 A 
ATOM      8  C   UNL     1     -13.975 -18.105 -19.791  1.00  0.00    -0.010 A 
ATOM      9  C   UNL     1     -15.560 -19.563 -18.120  1.00  0.00     0.001 A 
ATOM     10  C   UNL     1     -13.233 -17.328 -20.649  1.00  0.00     0.009 A 
ATOM     11  C   UNL     1     -15.357 -17.876 -19.795  1.00  0.00    -0.018 A 
ATOM     12  C   UNL     1     -16.131 -18.627 -18.940  1.00  0.00     0.009 A 
ATOM     13  C   UNL     1     -13.828 -16.364 -21.479  1.00  0.00     0.001 A 
ATOM     14  C   UNL     1     -15.973 -16.946 -20.590  1.00  0.00     0.009 A 
ATOM     15  C   UNL     1     -15.192 -16.179 -21.445  1.00  0.00     0.001 A 
ENDBRANCH   5   6
ENDBRANCH   2   5
ENDBRANCH   1   2
BRANCH   1  16
ATOM     16  C   UNL     1     -12.376 -22.662 -20.255  1.00  0.00     0.006 A 
ATOM     17  C   UNL     1     -13.679 -22.930 -19.893  1.00  0.00     0.010 A 
ATOM     18  C   UNL     1     -11.545 -23.743 -20.467  1.00  0.00     0.010 A 
ATOM     19  C   UNL     1     -14.137 -24.224 -19.750  1.00  0.00     0.005 A 
ATOM     20  C   UNL     1     -11.998 -25.048 -20.326  1.00  0.00     0.005 A 
ATOM     21  C   UNL     1     -13.299 -25.310 -19.965  1.00  0.00    -0.043 A 
BRANCH  21  22
ATOM     22  C   UNL     1     -13.834 -26.692 -19.800  1.00  0.00    -0.013 C 
ATOM     23  C   UNL     1     -14.819 -26.689 -18.659  1.00  0.00     0.016 C 
ATOM     24  C   UNL     1     -14.568 -27.124 -21.050  1.00  0.00     0.016 C 
ATOM     25  C   UNL     1     -12.745 -27.693 -19.540  1.00  0.00     0.016 C 
ENDBRANCH  21  22
ENDBRANCH   1  16
TORSDOF 5
ENDMDL
MODEL 4
REMARK VINA RESULT:      -1.7      3.152      7.414
REMARK SMILES C[NH+](Cc1ccc(C(C)(C)C)cc1)Cc1cccc2ccccc12
REMARK SMILES IDX 3 1 2 2 1 3 14 5 15 6 16 7 24 8 17 9 23 10 19 11 18 12 22 13
REMARK SMILES IDX 20 14 21 15 4 16 5 17 13 18 6 19 12 20 7 21 8 22 9 23 10 24
REMARK SMILES IDX 11 25
REMARK H PARENT 2 4
ROOT
ATOM      1  C   UNL     1     -11.360 -24.807 -14.976  1.00  0.00     0.299 C 
ENDROOT
BRANCH   1   2
ATOM      2  N   UNL     1     -12.468 -24.369 -14.152  1.00  0.00    -0.330 N 
ATOM      3  C   UNL     1     -13.435 -23.643 -14.980  1.00  0.00     0.333 C 
ATOM      4  H   UNL     1     -12.962 -25.238 -13.877  1.00  0.00     0.348 HD
BRANCH   2   5
ATOM      5  C   UNL     1     -12.085 -23.628 -13.004  1.00  0.00     0.299 C 
BRANCH   5   6
ATOM      6  C   UNL     1     -11.964 -24.387 -11.740  1.00  0.00     0.014 A 
ATOM      7  C   UNL     1     -11.820 -25.774 -11.757  1.00  0.00     0.010 A 
ATOM      8  C   UNL     1     -12.018 -23.794 -10.507  1.00  0.00    -0.010 A 
ATOM      9  C   UNL     1     -11.739 -26.504 -10.609  1.00  0.00     0.001 A 
ATOM     10  C   UNL     1     -12.146 -22.430 -10.382  1.00  0.00     0.009 A 
ATOM     11  C   UNL     1     -11.937 -24.513  -9.307  1.00  0.00    -0.018 A 
ATOM     12  C   UNL     1     -11.797 -25.880  -9.391  1.00  0.00     0.009 A 
ATOM     13  C   UNL     1     -12.195 -21.800  -9.129  1.00  0.00     0.001 A 
ATOM     14  C   UNL     1     -11.981 -23.934  -8.066  1.00  0.00     0.009 A 
ATOM     15  C   UNL     1     -12.112 -22.555  -7.980  1.00  0.00     0.001 A 
ENDBRANCH   5   6
ENDBRANCH   2   5
ENDBRANCH   1   2
BRANCH   1  16
ATOM     16  C   UNL     1     -11.810 -25.280 -16.326  1.00  0.00     0.006 A 
ATOM     17  C   UNL     1     -11.374 -24.666 -17.482  1.00  0.00     0.010 A 
ATOM     18  C   UNL     1     -12.673 -26.348 -16.467  1.00  0.00     0.010 A 
ATOM     19  C   UNL     1     -11.782 -25.099 -18.727  1.00  0.00     0.005 A 
ATOM     20  C   UNL     1     -13.087 -26.790 -17.716  1.00  0.00     0.005 A 
ATOM     21  C   UNL     1     -12.650 -26.174 -18.865  1.00  0.00    -0.043 A 
BRANCH  21  22
ATOM     22  C   UNL     1     -13.065 -26.611 -20.229  1.00  0.00    -0.013 C 
ATOM     23  C   UNL     1     -13.840 -25.489 -20.873  1.00  0.00     0.016 C 
ATOM     24  C   UNL     1     -11.848 -26.890 -21.085  1.00  0.00     0.016 C 
ATOM     25  C   UNL     1     -13.896 -27.861 -20.195  1.00  0.00     0.016 C 
ENDBRANCH  21  22
ENDBRANCH   1  16
TORSDOF 5
ENDMDL
MODEL 5
REMARK VINA RESULT:      -1.6      1.225      1.817
REMARK SMILES C[NH+](Cc1ccc(C(C)(C)C)cc1)Cc1cccc2ccccc12
REMARK SMILES IDX 3 1 2 2 1 3 14 5 15 6 16 7 24 8 17 9 23 10 19 11 18 12 22 13
REMARK SMILES IDX 20 14 21 15 4 16 5 17 13 18 6 19 12 20 7 21 8 22 9 23 10 24
REMARK SMILES IDX 11 25
REMARK H PARENT 2 4
ROOT
ATOM      1  C   UNL     1     -11.321 -23.630 -17.056  1.00  0.00     0.299 C 
ENDROOT
BRANCH   1   2
ATOM      2  N   UNL     1     -12.141 -24.341 -16.097  1.00  0.00    -0.330 N 
ATOM      3  C   UNL     1     -11.813 -23.888 -14.742  1.00  0.00     0.333 C 
ATOM      4  H   UNL     1     -13.106 -24.000 -16.259  1.00  0.00     0.348 HD
BRANCH   2   5
ATOM      5  C   UNL     1     -12.086 -25.754 -16.215  1.00  0.00     0.299 C 
BRANCH   5   6
ATOM      6  C   UNL     1     -13.020 -26.372 -17.182  1.00  0.00     0.014 A 
ATOM      7  C   UNL     1     -14.215 -26.945 -16.746  1.00  0.00     0.010 A 
ATOM      8  C   UNL     1     -12.761 -26.447 -18.525  1.00  0.00    -0.010 A 
ATOM      9  C   UNL     1     -15.080 -27.549 -17.608  1.00  0.00     0.001 A 
ATOM     10  C   UNL     1     -11.616 -25.902 -19.057  1.00  0.00     0.009 A 
ATOM     11  C   UNL     1     -13.629 -27.060 -19.438  1.00  0.00    -0.018 A 
ATOM     12  C   UNL     1     -14.792 -27.607 -18.945  1.00  0.00     0.009 A 
ATOM     13  C   UNL     1     -11.335 -25.959 -20.431  1.00  0.00     0.001 A 
ATOM     14  C   UNL     1     -13.389 -27.136 -20.785  1.00  0.00     0.009 A 
ATOM     15  C   UNL     1     -12.222 -26.575 -21.285  1.00  0.00     0.001 A 
ENDBRANCH   5   6
ENDBRANCH   2   5
ENDBRANCH   1   2
BRANCH   1  16
ATOM     16  C   UNL     1     -12.061 -22.500 -17.707  1.00  0.00     0.006 A 
ATOM     17  C   UNL     1     -11.840 -22.166 -19.027  1.00  0.00     0.010 A 
ATOM     18  C   UNL     1     -12.991 -21.752 -17.015  1.00  0.00     0.010 A 
ATOM     19  C   UNL     1     -12.520 -21.129 -19.632  1.00  0.00     0.005 A 
ATOM     20  C   UNL     1     -13.679 -20.707 -17.617  1.00  0.00     0.005 A 
ATOM     21  C   UNL     1     -13.455 -20.378 -18.934  1.00  0.00    -0.043 A 
BRANCH  21  22
ATOM     22  C   UNL     1     -14.168 -19.267 -19.625  1.00  0.00    -0.013 C 
ATOM     23  C   UNL     1     -15.342 -18.851 -18.775  1.00  0.00     0.016 C 
ATOM     24  C   UNL     1     -13.255 -18.070 -19.778  1.00  0.00     0.016 C 
ATOM     25  C   UNL     1     -14.637 -19.661 -20.996  1.00  0.00     0.016 C 
ENDBRANCH  21  22
ENDBRANCH   1  16
TORSDOF 5
ENDMDL
MODEL 6
REMARK VINA RESULT:      -1.6      1.660      4.290
REMARK SMILES C[NH+](Cc1ccc(C(C)(C)C)cc1)Cc1cccc2ccccc12
REMARK SMILES IDX 3 1 2 2 1 3 14 5 15 6 16 7 24 8 17 9 23 10 19 11 18 12 22 13
REMARK SMILES IDX 20 14 21 15 4 16 5 17 13 18 6 19 12 20 7 21 8 22 9 23 10 24
REMARK SMILES IDX 11 25
REMARK H PARENT 2 4
ROOT
ATOM      1  C   UNL     1     -12.875 -25.639 -20.403  1.00  0.00     0.299 C 
ENDROOT
BRANCH   1   2
ATOM      2  N   UNL     1     -13.902 -26.386 -19.707  1.00  0.00    -0.330 N 
ATOM      3  C   UNL     1     -14.445 -27.416 -20.598  1.00  0.00     0.333 C 
ATOM      4  H   UNL     1     -13.401 -26.917 -18.971  1.00  0.00     0.348 HD
BRANCH   2   5
ATOM      5  C   UNL     1     -14.922 -25.583 -19.135  1.00  0.00     0.299 C 
BRANCH   5   6
ATOM      6  C   UNL     1     -14.558 -24.821 -17.920  1.00  0.00     0.014 A 
ATOM      7  C   UNL     1     -15.180 -23.607 -17.631  1.00  0.00     0.010 A 
ATOM      8  C   UNL     1     -13.590 -25.235 -17.044  1.00  0.00    -0.010 A 
ATOM      9  C   UNL     1     -14.843 -22.868 -16.537  1.00  0.00     0.001 A 
ATOM     10  C   UNL     1     -12.926 -26.425 -17.232  1.00  0.00     0.009 A 
ATOM     11  C   UNL     1     -13.220 -24.500 -15.910  1.00  0.00    -0.018 A 
ATOM     12  C   UNL     1     -13.870 -23.309 -15.681  1.00  0.00     0.009 A 
ATOM     13  C   UNL     1     -11.937 -26.872 -16.342  1.00  0.00     0.001 A 
ATOM     14  C   UNL     1     -12.260 -24.904 -15.019  1.00  0.00     0.009 A 
ATOM     15  C   UNL     1     -11.610 -26.111 -15.243  1.00  0.00     0.001 A 
ENDBRANCH   5   6
ENDBRANCH   2   5
ENDBRANCH   1   2
BRANCH   1  16
ATOM     16  C   UNL     1     -13.147 -24.164 -20.399  1.00  0.00     0.006 A 
ATOM     17  C   UNL     1     -14.304 -23.648 -20.943  1.00  0.00     0.010 A 
ATOM     18  C   UNL     1     -12.253 -23.266 -19.851  1.00  0.00     0.010 A 
ATOM     19  C   UNL     1     -14.562 -22.292 -20.939  1.00  0.00     0.005 A 
ATOM     20  C   UNL     1     -12.505 -21.901 -19.843  1.00  0.00     0.005 A 
ATOM     21  C   UNL     1     -13.661 -21.391 -20.387  1.00  0.00    -0.043 A 
BRANCH  21  22
ATOM     22  C   UNL     1     -13.978 -19.935 -20.403  1.00  0.00    -0.013 C 
ATOM     23  C   UNL     1     -14.531 -19.552 -19.054  1.00  0.00     0.016 C 
ATOM     24  C   UNL     1     -12.720 -19.126 -20.638  1.00  0.00     0.016 C 
ATOM     25  C   UNL     1     -14.958 -19.580 -21.484  1.00  0.00     0.016 C 
ENDBRANCH  21  22
ENDBRANCH   1  16
TORSDOF 5
ENDMDL
MODEL 7
REMARK VINA RESULT:      -1.6      2.231      7.343
REMARK SMILES C[NH+](Cc1ccc(C(C)(C)C)cc1)Cc1cccc2ccccc12
REMARK SMILES IDX 3 1 2 2 1 3 14 5 15 6 16 7 24 8 17 9 23 10 19 11 18 12 22 13
REMARK SMILES IDX 20 14 21 15 4 16 5 17 13 18 6 19 12 20 7 21 8 22 9 23 10 24
REMARK SMILES IDX 11 25
REMARK H PARENT 2 4
ROOT
ATOM      1  C   UNL     1     -14.703 -21.808 -19.072  1.00  0.00     0.299 C 
ENDROOT
BRANCH   1   2
ATOM      2  N   UNL     1     -15.170 -21.558 -20.420  1.00  0.00    -0.330 N 
ATOM      3  C   UNL     1     -14.020 -21.361 -21.307  1.00  0.00     0.333 C 
ATOM      4  H   UNL     1     -15.591 -22.452 -20.733  1.00  0.00     0.348 HD
BRANCH   2   5
ATOM      5  C   UNL     1     -16.112 -20.501 -20.524  1.00  0.00     0.299 C 
BRANCH   5   6
ATOM      6  C   UNL     1     -15.563 -19.128 -20.533  1.00  0.00     0.014 A 
ATOM      7  C   UNL     1     -16.048 -18.177 -21.431  1.00  0.00     0.010 A 
ATOM      8  C   UNL     1     -14.550 -18.725 -19.704  1.00  0.00    -0.010 A 
ATOM      9  C   UNL     1     -15.540 -16.913 -21.484  1.00  0.00     0.001 A 
ATOM     10  C   UNL     1     -14.011 -19.584 -18.775  1.00  0.00     0.009 A 
ATOM     11  C   UNL     1     -14.005 -17.434 -19.733  1.00  0.00    -0.018 A 
ATOM     12  C   UNL     1     -14.526 -16.542 -20.642  1.00  0.00     0.009 A 
ATOM     13  C   UNL     1     -12.978 -19.190 -17.910  1.00  0.00     0.001 A 
ATOM     14  C   UNL     1     -12.997 -17.013 -18.906  1.00  0.00     0.009 A 
ATOM     15  C   UNL     1     -12.478 -17.909 -17.981  1.00  0.00     0.001 A 
ENDBRANCH   5   6
ENDBRANCH   2   5
ENDBRANCH   1   2
BRANCH   1  16
ATOM     16  C   UNL     1     -14.178 -23.203 -18.904  1.00  0.00     0.006 A 
ATOM     17  C   UNL     1     -13.098 -23.468 -18.088  1.00  0.00     0.010 A 
ATOM     18  C   UNL     1     -14.753 -24.275 -19.556  1.00  0.00     0.010 A 
ATOM     19  C   UNL     1     -12.612 -24.749 -17.927  1.00  0.00     0.005 A 
ATOM     20  C   UNL     1     -14.271 -25.567 -19.398  1.00  0.00     0.005 A 
ATOM     21  C   UNL     1     -13.193 -25.826 -18.583  1.00  0.00    -0.043 A 
BRANCH  21  22
ATOM     22  C   UNL     1     -12.638 -27.194 -18.381  1.00  0.00    -0.013 C 
ATOM     23  C   UNL     1     -13.787 -28.151 -18.185  1.00  0.00     0.016 C 
ATOM     24  C   UNL     1     -11.867 -27.635 -19.607  1.00  0.00     0.016 C 
ATOM     25  C   UNL     1     -11.704 -27.259 -17.207  1.00  0.00     0.016 C 
ENDBRANCH  21  22
ENDBRANCH   1  16
TORSDOF 5
ENDMDL
MODEL 8
REMARK VINA RESULT:      -1.6      1.640      2.750
REMARK SMILES C[NH+](Cc1ccc(C(C)(C)C)cc1)Cc1cccc2ccccc12
REMARK SMILES IDX 3 1 2 2 1 3 14 5 15 6 16 7 24 8 17 9 23 10 19 11 18 12 22 13
REMARK SMILES IDX 20 14 21 15 4 16 5 17 13 18 6 19 12 20 7 21 8 22 9 23 10 24
REMARK SMILES IDX 11 25
REMARK H PARENT 2 4
ROOT
ATOM      1  C   UNL     1     -13.160 -22.359 -17.122  1.00  0.00     0.299 C 
ENDROOT
BRANCH   1   2
ATOM      2  N   UNL     1     -14.358 -23.030 -16.663  1.00  0.00    -0.330 N 
ATOM      3  C   UNL     1     -14.991 -22.235 -15.607  1.00  0.00     0.333 C 
ATOM      4  H   UNL     1     -15.020 -22.980 -17.459  1.00  0.00     0.348 HD
BRANCH   2   5
ATOM      5  C   UNL     1     -14.157 -24.379 -16.268  1.00  0.00     0.299 C 
BRANCH   5   6
ATOM      6  C   UNL     1     -13.333 -25.213 -17.170  1.00  0.00     0.014 A 
ATOM      7  C   UNL     1     -12.116 -25.738 -16.736  1.00  0.00     0.010 A 
ATOM      8  C   UNL     1     -13.691 -25.489 -18.464  1.00  0.00    -0.010 A 
ATOM      9  C   UNL     1     -11.321 -26.483 -17.554  1.00  0.00     0.001 A 
ATOM     10  C   UNL     1     -14.878 -25.028 -18.984  1.00  0.00     0.009 A 
ATOM     11  C   UNL     1     -12.897 -26.251 -19.331  1.00  0.00    -0.018 A 
ATOM     12  C   UNL     1     -11.707 -26.740 -18.843  1.00  0.00     0.009 A 
ATOM     13  C   UNL     1     -15.268 -25.306 -20.303  1.00  0.00     0.001 A 
ATOM     14  C   UNL     1     -13.244 -26.543 -20.624  1.00  0.00     0.009 A 
ATOM     15  C   UNL     1     -14.450 -26.060 -21.114  1.00  0.00     0.001 A 
ENDBRANCH   5   6
ENDBRANCH   2   5
ENDBRANCH   1   2
BRANCH   1  16
ATOM     16  C   UNL     1     -13.470 -21.128 -17.921  1.00  0.00     0.006 A 
ATOM     17  C   UNL     1     -14.554 -21.083 -18.773  1.00  0.00     0.010 A 
ATOM     18  C   UNL     1     -12.688 -19.994 -17.835  1.00  0.00     0.010 A 
ATOM     19  C   UNL     1     -14.847 -19.952 -19.508  1.00  0.00     0.005 A 
ATOM     20  C   UNL     1     -12.977 -18.853 -18.571  1.00  0.00     0.005 A 
ATOM     21  C   UNL     1     -14.059 -18.813 -19.419  1.00  0.00    -0.043 A 
BRANCH  21  22
ATOM     22  C   UNL     1     -14.410 -17.612 -20.230  1.00  0.00    -0.013 C 
ATOM     23  C   UNL     1     -14.116 -16.381 -19.412  1.00  0.00     0.016 C 
ATOM     24  C   UNL     1     -13.561 -17.556 -21.481  1.00  0.00     0.016 C 
ATOM     25  C   UNL     1     -15.850 -17.619 -20.656  1.00  0.00     0.016 C 
ENDBRANCH  21  22
ENDBRANCH   1  16
TORSDOF 5
ENDMDL
MODEL 9
REMARK VINA RESULT:      -1.4      2.478      7.348
REMARK SMILES C[NH+](Cc1ccc(C(C)(C)C)cc1)Cc1cccc2ccccc12
REMARK SMILES IDX 3 1 2 2 1 3 14 5 15 6 16 7 24 8 17 9 23 10 19 11 18 12 22 13
REMARK SMILES IDX 20 14 21 15 4 16 5 17 13 18 6 19 12 20 7 21 8 22 9 23 10 24
REMARK SMILES IDX 11 25
REMARK H PARENT 2 4
ROOT
ATOM      1  C   UNL     1     -13.243 -21.958 -21.484  1.00  0.00     0.299 C 
ENDROOT
BRANCH   1   2
ATOM      2  N   UNL     1     -14.077 -20.981 -20.816  1.00  0.00    -0.330 N 
ATOM      3  C   UNL     1     -15.485 -21.368 -20.947  1.00  0.00     0.333 C 
ATOM      4  H   UNL     1     -13.871 -21.091 -19.806  1.00  0.00     0.348 HD
BRANCH   2   5
ATOM      5  C   UNL     1     -13.851 -19.641 -21.227  1.00  0.00     0.299 C 
BRANCH   5   6
ATOM      6  C   UNL     1     -13.489 -18.678 -20.164  1.00  0.00     0.014 A 
ATOM      7  C   UNL     1     -13.749 -17.318 -20.322  1.00  0.00     0.010 A 
ATOM      8  C   UNL     1     -12.862 -19.050 -19.004  1.00  0.00    -0.010 A 
ATOM      9  C   UNL     1     -13.398 -16.403 -19.375  1.00  0.00     0.001 A 
ATOM     10  C   UNL     1     -12.572 -20.370 -18.747  1.00  0.00     0.009 A 
ATOM     11  C   UNL     1     -12.488 -18.136 -18.010  1.00  0.00    -0.018 A 
ATOM     12  C   UNL     1     -12.771 -16.807 -18.226  1.00  0.00     0.009 A 
ATOM     13  C   UNL     1     -11.939 -20.773 -17.561  1.00  0.00     0.001 A 
ATOM     14  C   UNL     1     -11.868 -18.492 -16.841  1.00  0.00     0.009 A 
ATOM     15  C   UNL     1     -11.591 -19.834 -16.617  1.00  0.00     0.001 A 
ENDBRANCH   5   6
ENDBRANCH   2   5
ENDBRANCH   1   2
BRANCH   1  16
ATOM     16  C   UNL     1     -13.230 -23.276 -20.768  1.00  0.00     0.006 A 
ATOM     17  C   UNL     1     -14.388 -23.827 -20.261  1.00  0.00     0.010 A 
ATOM     18  C   UNL     1     -12.062 -23.990 -20.591  1.00  0.00     0.010 A 
ATOM     19  C   UNL     1     -14.383 -25.041 -19.605  1.00  0.00     0.005 A 
ATOM     20  C   UNL     1     -12.048 -25.212 -19.932  1.00  0.00     0.005 A 
ATOM     21  C   UNL     1     -13.206 -25.757 -19.428  1.00  0.00    -0.043 A 
BRANCH  21  22
ATOM     22  C   UNL     1     -13.244 -27.065 -18.713  1.00  0.00    -0.013 C 
ATOM     23  C   UNL     1     -11.857 -27.374 -18.211  1.00  0.00     0.016 C 
ATOM     24  C   UNL     1     -14.167 -26.983 -17.517  1.00  0.00     0.016 C 
ATOM     25  C   UNL     1     -13.735 -28.177 -19.594  1.00  0.00     0.016 C 
ENDBRANCH  21  22
ENDBRANCH   1  16
TORSDOF 5
ENDMDL
