MODEL 1
REMARK VINA RESULT:      -4.7      0.000      0.000
REMARK SMILES CNCC[C@H](Oc1cccc2ccccc12)c1cccs1
REMARK SMILES IDX 4 1 3 2 2 3 1 4 5 6 6 7 7 8 8 9 16 10 9 11 15 12 11 13 10 14
REMARK SMILES IDX 14 15 12 16 13 17 17 18 18 19 21 20 19 21 20 22
REMARK H PARENT 2 5
ROOT
ATOM      1  C   UNL     1     -13.055 -21.444 -18.284  1.00  0.00     0.066 C 
ENDROOT
BRANCH   1   2
ATOM      2  C   UNL     1     -12.423 -21.724 -19.575  1.00  0.00     0.085 C 
BRANCH   2   3
ATOM      3  N   UNL     1     -11.736 -22.908 -19.837  1.00  0.00    -0.320 NA
ATOM      4  C   UNL     1     -11.590 -23.399 -21.146  1.00  0.00     0.101 C 
ATOM      5  H   UNL     1     -11.033 -23.248 -19.180  1.00  0.00     0.122 HD
ENDBRANCH   2   3
ENDBRANCH   1   2
BRANCH   1   6
ATOM      6  C   UNL     1     -14.518 -21.544 -18.089  1.00  0.00     0.215 C 
BRANCH   6   7
ATOM      7  O   UNL     1     -15.154 -22.717 -18.480  1.00  0.00    -0.484 OA
BRANCH   7   8
ATOM      8  C   UNL     1     -14.800 -23.957 -18.007  1.00  0.00     0.128 A 
ATOM      9  C   UNL     1     -14.562 -24.245 -16.700  1.00  0.00     0.047 A 
ATOM     10  C   UNL     1     -14.685 -24.987 -18.961  1.00  0.00     0.024 A 
ATOM     11  C   UNL     1     -14.210 -25.545 -16.336  1.00  0.00     0.004 A 
ATOM     12  C   UNL     1     -14.932 -24.708 -20.295  1.00  0.00     0.012 A 
ATOM     13  C   UNL     1     -14.338 -26.281 -18.620  1.00  0.00    -0.015 A 
ATOM     14  C   UNL     1     -14.098 -26.547 -17.268  1.00  0.00     0.009 A 
ATOM     15  C   UNL     1     -14.824 -25.718 -21.225  1.00  0.00     0.001 A 
ATOM     16  C   UNL     1     -14.232 -27.286 -19.557  1.00  0.00     0.009 A 
ATOM     17  C   UNL     1     -14.476 -27.006 -20.876  1.00  0.00     0.001 A 
ENDBRANCH   7   8
ENDBRANCH   6   7
BRANCH   6  18
ATOM     18  C   UNL     1     -15.104 -20.389 -18.886  1.00  0.00     0.045 A 
ATOM     19  C   UNL     1     -15.081 -19.061 -18.655  1.00  0.00     0.019 A 
ATOM     20  S   UNL     1     -16.016 -20.514 -20.408  1.00  0.00    -0.145 S 
ATOM     21  C   UNL     1     -15.664 -18.217 -19.497  1.00  0.00     0.012 A 
ATOM     22  C   UNL     1     -16.284 -18.756 -20.598  1.00  0.00     0.065 A 
ENDBRANCH   6  18
ENDBRANCH   1   6
TORSDOF 6
ENDMDL
MODEL 2
REMARK VINA RESULT:      -3.6      2.311      6.230
REMARK SMILES CNCC[C@H](Oc1cccc2ccccc12)c1cccs1
REMARK SMILES IDX 4 1 3 2 2 3 1 4 5 6 6 7 7 8 8 9 16 10 9 11 15 12 11 13 10 14
REMARK SMILES IDX 14 15 12 16 13 17 17 18 18 19 21 20 19 21 20 22
REMARK H PARENT 2 5
ROOT
ATOM      1  C   UNL     1     -14.218 -22.374 -17.506  1.00  0.00     0.066 C 
ENDROOT
BRANCH   1   2
ATOM      2  C   UNL     1     -14.020 -23.066 -16.231  1.00  0.00     0.085 C 
BRANCH   2   3
ATOM      3  N   UNL     1     -12.804 -23.637 -15.864  1.00  0.00    -0.320 NA
ATOM      4  C   UNL     1     -12.624 -25.032 -15.836  1.00  0.00     0.101 C 
ATOM      5  H   UNL     1     -11.939 -23.104 -15.959  1.00  0.00     0.122 HD
ENDBRANCH   2   3
ENDBRANCH   1   2
BRANCH   1   6
ATOM      6  C   UNL     1     -13.381 -22.662 -18.693  1.00  0.00     0.215 C 
BRANCH   6   7
ATOM      7  O   UNL     1     -13.246 -21.669 -19.656  1.00  0.00    -0.484 OA
BRANCH   7   8
ATOM      8  C   UNL     1     -14.276 -20.843 -20.034  1.00  0.00     0.128 A 
ATOM      9  C   UNL     1     -15.594 -21.169 -19.961  1.00  0.00     0.047 A 
ATOM     10  C   UNL     1     -13.918 -19.572 -20.525  1.00  0.00     0.024 A 
ATOM     11  C   UNL     1     -16.554 -20.246 -20.374  1.00  0.00     0.004 A 
ATOM     12  C   UNL     1     -12.579 -19.224 -20.598  1.00  0.00     0.012 A 
ATOM     13  C   UNL     1     -14.855 -18.643 -20.938  1.00  0.00    -0.015 A 
ATOM     14  C   UNL     1     -16.203 -19.009 -20.852  1.00  0.00     0.009 A 
ATOM     15  C   UNL     1     -12.232 -17.979 -21.073  1.00  0.00     0.001 A 
ATOM     16  C   UNL     1     -14.499 -17.399 -21.413  1.00  0.00     0.009 A 
ATOM     17  C   UNL     1     -13.174 -17.059 -21.484  1.00  0.00     0.001 A 
ENDBRANCH   7   8
ENDBRANCH   6   7
BRANCH   6  18
ATOM     18  C   UNL     1     -14.019 -23.880 -19.341  1.00  0.00     0.045 A 
ATOM     19  C   UNL     1     -15.110 -24.591 -18.992  1.00  0.00     0.019 A 
ATOM     20  S   UNL     1     -13.449 -24.715 -20.804  1.00  0.00    -0.145 S 
ATOM     21  C   UNL     1     -15.496 -25.636 -19.714  1.00  0.00     0.012 A 
ATOM     22  C   UNL     1     -14.740 -25.953 -20.816  1.00  0.00     0.065 A 
ENDBRANCH   6  18
ENDBRANCH   1   6
TORSDOF 6
ENDMDL
MODEL 3
REMARK VINA RESULT:      -3.5      2.566      6.255
REMARK SMILES CNCC[C@H](Oc1cccc2ccccc12)c1cccs1
REMARK SMILES IDX 4 1 3 2 2 3 1 4 5 6 6 7 7 8 8 9 16 10 9 11 15 12 11 13 10 14
REMARK SMILES IDX 14 15 12 16 13 17 17 18 18 19 21 20 19 21 20 22
REMARK H PARENT 2 5
ROOT
ATOM      1  C   UNL     1     -13.430 -23.461 -15.504  1.00  0.00     0.066 C 
ENDROOT
BRANCH   1   2
ATOM      2  C   UNL     1     -13.185 -24.844 -15.091  1.00  0.00     0.085 C 
BRANCH   2   3
ATOM      3  N   UNL     1     -12.306 -25.180 -14.064  1.00  0.00    -0.320 NA
ATOM      4  C   UNL     1     -11.322 -24.282 -13.614  1.00  0.00     0.101 C 
ATOM      5  H   UNL     1     -12.564 -25.895 -13.383  1.00  0.00     0.122 HD
ENDBRANCH   2   3
ENDBRANCH   1   2
BRANCH   1   6
ATOM      6  C   UNL     1     -13.283 -23.024 -16.910  1.00  0.00     0.215 C 
BRANCH   6   7
ATOM      7  O   UNL     1     -14.114 -22.011 -17.372  1.00  0.00    -0.484 OA
BRANCH   7   8
ATOM      8  C   UNL     1     -13.664 -20.751 -17.683  1.00  0.00     0.128 A 
ATOM      9  C   UNL     1     -12.562 -20.170 -17.138  1.00  0.00     0.047 A 
ATOM     10  C   UNL     1     -14.409 -20.030 -18.636  1.00  0.00     0.024 A 
ATOM     11  C   UNL     1     -12.199 -18.882 -17.532  1.00  0.00     0.004 A 
ATOM     12  C   UNL     1     -15.530 -20.614 -19.204  1.00  0.00     0.012 A 
ATOM     13  C   UNL     1     -14.065 -18.754 -19.040  1.00  0.00    -0.015 A 
ATOM     14  C   UNL     1     -12.927 -18.182 -18.461  1.00  0.00     0.009 A 
ATOM     15  C   UNL     1     -16.254 -19.910 -20.140  1.00  0.00     0.001 A 
ATOM     16  C   UNL     1     -14.796 -18.056 -19.977  1.00  0.00     0.009 A 
ATOM     17  C   UNL     1     -15.904 -18.636 -20.535  1.00  0.00     0.001 A 
ENDBRANCH   7   8
ENDBRANCH   6   7
BRANCH   6  18
ATOM     18  C   UNL     1     -13.536 -24.272 -17.741  1.00  0.00     0.045 A 
ATOM     19  C   UNL     1     -14.669 -24.739 -18.302  1.00  0.00     0.019 A 
ATOM     20  S   UNL     1     -12.328 -25.493 -18.204  1.00  0.00    -0.145 S 
ATOM     21  C   UNL     1     -14.664 -25.869 -19.000  1.00  0.00     0.012 A 
ATOM     22  C   UNL     1     -13.464 -26.527 -19.119  1.00  0.00     0.065 A 
ENDBRANCH   6  18
ENDBRANCH   1   6
TORSDOF 6
ENDMDL
MODEL 4
REMARK VINA RESULT:      -2.9      2.589      6.598
REMARK SMILES CNCC[C@H](Oc1cccc2ccccc12)c1cccs1
REMARK SMILES IDX 4 1 3 2 2 3 1 4 5 6 6 7 7 8 8 9 16 10 9 11 15 12 11 13 10 14
REMARK SMILES IDX 14 15 12 16 13 17 17 18 18 19 21 20 19 21 20 22
REMARK H PARENT 2 5
ROOT
ATOM      1  C   UNL     1     -14.550 -23.817 -18.942  1.00  0.00     0.066 C 
ENDROOT
BRANCH   1   2
ATOM      2  C   UNL     1     -14.967 -25.220 -18.897  1.00  0.00     0.085 C 
BRANCH   2   3
ATOM      3  N   UNL     1     -15.113 -25.924 -17.704  1.00  0.00    -0.320 NA
ATOM      4  C   UNL     1     -14.474 -25.510 -16.521  1.00  0.00     0.101 C 
ATOM      5  H   UNL     1     -15.934 -26.512 -17.554  1.00  0.00     0.122 HD
ENDBRANCH   2   3
ENDBRANCH   1   2
BRANCH   1   6
ATOM      6  C   UNL     1     -13.145 -23.423 -19.189  1.00  0.00     0.215 C 
BRANCH   6   7
ATOM      7  O   UNL     1     -12.902 -22.373 -20.066  1.00  0.00    -0.484 OA
BRANCH   7   8
ATOM      8  C   UNL     1     -13.811 -21.372 -20.310  1.00  0.00     0.128 A 
ATOM      9  C   UNL     1     -14.930 -21.514 -21.067  1.00  0.00     0.047 A 
ATOM     10  C   UNL     1     -13.544 -20.120 -19.722  1.00  0.00     0.024 A 
ATOM     11  C   UNL     1     -15.783 -20.424 -21.244  1.00  0.00     0.004 A 
ATOM     12  C   UNL     1     -12.409 -19.964 -18.942  1.00  0.00     0.012 A 
ATOM     13  C   UNL     1     -14.376 -19.029 -19.885  1.00  0.00    -0.015 A 
ATOM     14  C   UNL     1     -15.520 -19.206 -20.671  1.00  0.00     0.009 A 
ATOM     15  C   UNL     1     -12.154 -18.740 -18.363  1.00  0.00     0.001 A 
ATOM     16  C   UNL     1     -14.112 -17.807 -19.303  1.00  0.00     0.009 A 
ATOM     17  C   UNL     1     -12.989 -17.657 -18.533  1.00  0.00     0.001 A 
ENDBRANCH   7   8
ENDBRANCH   6   7
BRANCH   6  18
ATOM     18  C   UNL     1     -12.473 -24.673 -19.736  1.00  0.00     0.045 A 
ATOM     19  C   UNL     1     -11.915 -25.721 -19.098  1.00  0.00     0.019 A 
ATOM     20  S   UNL     1     -12.248 -25.083 -21.452  1.00  0.00    -0.145 S 
ATOM     21  C   UNL     1     -11.378 -26.724 -19.783  1.00  0.00     0.012 A 
ATOM     22  C   UNL     1     -11.418 -26.640 -21.154  1.00  0.00     0.065 A 
ENDBRANCH   6  18
ENDBRANCH   1   6
TORSDOF 6
ENDMDL
MODEL 5
REMARK VINA RESULT:      -2.8      2.252      6.198
REMARK SMILES CNCC[C@H](Oc1cccc2ccccc12)c1cccs1
REMARK SMILES IDX 4 1 3 2 2 3 1 4 5 6 6 7 7 8 8 9 16 10 9 11 15 12 11 13 10 14
REMARK SMILES IDX 14 15 12 16 13 17 17 18 18 19 21 20 19 21 20 22
REMARK H PARENT 2 5
ROOT
ATOM      1  C   UNL     1     -12.031 -23.737 -18.736  1.00  0.00     0.066 C 
ENDROOT
BRANCH   1   2
ATOM      2  C   UNL     1     -13.074 -24.387 -17.939  1.00  0.00     0.085 C 
BRANCH   2   3
ATOM      3  N   UNL     1     -14.375 -23.896 -17.858  1.00  0.00    -0.320 NA
ATOM      4  C   UNL     1     -14.653 -22.635 -17.302  1.00  0.00     0.101 C 
ATOM      5  H   UNL     1     -15.093 -24.241 -18.497  1.00  0.00     0.122 HD
ENDBRANCH   2   3
ENDBRANCH   1   2
BRANCH   1   6
ATOM      6  C   UNL     1     -12.078 -23.708 -20.215  1.00  0.00     0.215 C 
BRANCH   6   7
ATOM      7  O   UNL     1     -12.779 -22.676 -20.828  1.00  0.00    -0.484 OA
BRANCH   7   8
ATOM      8  C   UNL     1     -12.646 -21.358 -20.466  1.00  0.00     0.128 A 
ATOM      9  C   UNL     1     -11.482 -20.780 -20.068  1.00  0.00     0.047 A 
ATOM     10  C   UNL     1     -13.812 -20.568 -20.521  1.00  0.00     0.024 A 
ATOM     11  C   UNL     1     -11.468 -19.429 -19.725  1.00  0.00     0.004 A 
ATOM     12  C   UNL     1     -15.003 -21.144 -20.931  1.00  0.00     0.012 A 
ATOM     13  C   UNL     1     -13.818 -19.227 -20.185  1.00  0.00    -0.015 A 
ATOM     14  C   UNL     1     -12.604 -18.662 -19.779  1.00  0.00     0.009 A 
ATOM     15  C   UNL     1     -16.140 -20.367 -20.989  1.00  0.00     0.001 A 
ATOM     16  C   UNL     1     -14.960 -18.458 -20.245  1.00  0.00     0.009 A 
ATOM     17  C   UNL     1     -16.137 -19.031 -20.651  1.00  0.00     0.001 A 
ENDBRANCH   7   8
ENDBRANCH   6   7
BRANCH   6  18
ATOM     18  C   UNL     1     -12.713 -25.030 -20.617  1.00  0.00     0.045 A 
ATOM     19  C   UNL     1     -12.263 -26.294 -20.494  1.00  0.00     0.019 A 
ATOM     20  S   UNL     1     -14.298 -25.243 -21.395  1.00  0.00    -0.145 S 
ATOM     21  C   UNL     1     -12.994 -27.318 -20.919  1.00  0.00     0.012 A 
ATOM     22  C   UNL     1     -14.213 -27.028 -21.483  1.00  0.00     0.065 A 
ENDBRANCH   6  18
ENDBRANCH   1   6
TORSDOF 6
ENDMDL
MODEL 6
REMARK VINA RESULT:      -2.4      2.287      3.896
REMARK SMILES CNCC[C@H](Oc1cccc2ccccc12)c1cccs1
REMARK SMILES IDX 4 1 3 2 2 3 1 4 5 6 6 7 7 8 8 9 16 10 9 11 15 12 11 13 10 14
REMARK SMILES IDX 14 15 12 16 13 17 17 18 18 19 21 20 19 21 20 22
REMARK H PARENT 2 5
ROOT
ATOM      1  C   UNL     1     -14.274 -22.502 -19.177  1.00  0.00     0.066 C 
ENDROOT
BRANCH   1   2
ATOM      2  C   UNL     1     -15.351 -21.842 -19.917  1.00  0.00     0.085 C 
BRANCH   2   3
ATOM      3  N   UNL     1     -15.157 -20.670 -20.645  1.00  0.00    -0.320 NA
ATOM      4  C   UNL     1     -15.926 -19.518 -20.404  1.00  0.00     0.101 C 
ATOM      5  H   UNL     1     -14.257 -20.489 -21.092  1.00  0.00     0.122 HD
ENDBRANCH   2   3
ENDBRANCH   1   2
BRANCH   1   6
ATOM      6  C   UNL     1     -12.848 -22.281 -19.504  1.00  0.00     0.215 C 
BRANCH   6   7
ATOM      7  O   UNL     1     -11.988 -23.373 -19.463  1.00  0.00    -0.484 OA
BRANCH   7   8
ATOM      8  C   UNL     1     -12.341 -24.624 -19.907  1.00  0.00     0.128 A 
ATOM      9  C   UNL     1     -12.050 -25.115 -21.140  1.00  0.00     0.047 A 
ATOM     10  C   UNL     1     -13.051 -25.438 -19.002  1.00  0.00     0.024 A 
ATOM     11  C   UNL     1     -12.460 -26.405 -21.480  1.00  0.00     0.004 A 
ATOM     12  C   UNL     1     -13.347 -24.951 -17.739  1.00  0.00     0.012 A 
ATOM     13  C   UNL     1     -13.464 -26.718 -19.320  1.00  0.00    -0.015 A 
ATOM     14  C   UNL     1     -13.151 -27.195 -20.597  1.00  0.00     0.009 A 
ATOM     15  C   UNL     1     -14.036 -25.752 -16.855  1.00  0.00     0.001 A 
ATOM     16  C   UNL     1     -14.154 -27.512 -18.429  1.00  0.00     0.009 A 
ATOM     17  C   UNL     1     -14.446 -27.027 -17.181  1.00  0.00     0.001 A 
ENDBRANCH   7   8
ENDBRANCH   6   7
BRANCH   6  18
ATOM     18  C   UNL     1     -12.365 -21.250 -18.496  1.00  0.00     0.045 A 
ATOM     19  C   UNL     1     -12.527 -19.912 -18.463  1.00  0.00     0.019 A 
ATOM     20  S   UNL     1     -11.416 -21.574 -17.028  1.00  0.00    -0.145 S 
ATOM     21  C   UNL     1     -12.014 -19.192 -17.471  1.00  0.00     0.012 A 
ATOM     22  C   UNL     1     -11.322 -19.869 -16.497  1.00  0.00     0.065 A 
ENDBRANCH   6  18
ENDBRANCH   1   6
TORSDOF 6
ENDMDL
MODEL 7
REMARK VINA RESULT:      -2.3      2.539      6.635
REMARK SMILES CNCC[C@H](Oc1cccc2ccccc12)c1cccs1
REMARK SMILES IDX 4 1 3 2 2 3 1 4 5 6 6 7 7 8 8 9 16 10 9 11 15 12 11 13 10 14
REMARK SMILES IDX 14 15 12 16 13 17 17 18 18 19 21 20 19 21 20 22
REMARK H PARENT 2 5
ROOT
ATOM      1  C   UNL     1     -12.827 -21.618 -18.987  1.00  0.00     0.066 C 
ENDROOT
BRANCH   1   2
ATOM      2  C   UNL     1     -12.426 -22.390 -17.809  1.00  0.00     0.085 C 
BRANCH   2   3
ATOM      3  N   UNL     1     -13.345 -22.915 -16.904  1.00  0.00    -0.320 NA
ATOM      4  C   UNL     1     -12.936 -23.471 -15.678  1.00  0.00     0.101 C 
ATOM      5  H   UNL     1     -14.316 -22.600 -16.920  1.00  0.00     0.122 HD
ENDBRANCH   2   3
ENDBRANCH   1   2
BRANCH   1   6
ATOM      6  C   UNL     1     -12.330 -21.942 -20.343  1.00  0.00     0.215 C 
BRANCH   6   7
ATOM      7  O   UNL     1     -13.041 -21.457 -21.435  1.00  0.00    -0.484 OA
BRANCH   7   8
ATOM      8  C   UNL     1     -14.166 -20.679 -21.314  1.00  0.00     0.128 A 
ATOM      9  C   UNL     1     -15.429 -21.164 -21.176  1.00  0.00     0.047 A 
ATOM     10  C   UNL     1     -13.974 -19.283 -21.336  1.00  0.00     0.024 A 
ATOM     11  C   UNL     1     -16.497 -20.274 -21.061  1.00  0.00     0.004 A 
ATOM     12  C   UNL     1     -12.691 -18.777 -21.469  1.00  0.00     0.012 A 
ATOM     13  C   UNL     1     -15.019 -18.387 -21.222  1.00  0.00    -0.015 A 
ATOM     14  C   UNL     1     -16.307 -18.916 -21.082  1.00  0.00     0.009 A 
ATOM     15  C   UNL     1     -12.506 -17.412 -21.484  1.00  0.00     0.001 A 
ATOM     16  C   UNL     1     -14.824 -17.022 -21.238  1.00  0.00     0.009 A 
ATOM     17  C   UNL     1     -13.555 -16.525 -21.371  1.00  0.00     0.001 A 
ENDBRANCH   7   8
ENDBRANCH   6   7
BRANCH   6  18
ATOM     18  C   UNL     1     -12.321 -23.461 -20.410  1.00  0.00     0.045 A 
ATOM     19  C   UNL     1     -11.321 -24.342 -20.208  1.00  0.00     0.019 A 
ATOM     20  S   UNL     1     -13.706 -24.508 -20.792  1.00  0.00    -0.145 S 
ATOM     21  C   UNL     1     -11.537 -25.648 -20.318  1.00  0.00     0.012 A 
ATOM     22  C   UNL     1     -12.810 -26.049 -20.643  1.00  0.00     0.065 A 
ENDBRANCH   6  18
ENDBRANCH   1   6
TORSDOF 6
ENDMDL
MODEL 8
REMARK VINA RESULT:      -2.3      2.110      6.107
REMARK SMILES CNCC[C@H](Oc1cccc2ccccc12)c1cccs1
REMARK SMILES IDX 4 1 3 2 2 3 1 4 5 6 6 7 7 8 8 9 16 10 9 11 15 12 11 13 10 14
REMARK SMILES IDX 14 15 12 16 13 17 17 18 18 19 21 20 19 21 20 22
REMARK H PARENT 2 5
ROOT
ATOM      1  C   UNL     1     -14.277 -23.429 -20.745  1.00  0.00     0.066 C 
ENDROOT
BRANCH   1   2
ATOM      2  C   UNL     1     -13.403 -24.522 -21.178  1.00  0.00     0.085 C 
BRANCH   2   3
ATOM      3  N   UNL     1     -13.883 -25.794 -21.483  1.00  0.00    -0.320 NA
ATOM      4  C   UNL     1     -15.260 -26.080 -21.484  1.00  0.00     0.101 C 
ATOM      5  H   UNL     1     -13.321 -26.431 -22.049  1.00  0.00     0.122 HD
ENDBRANCH   2   3
ENDBRANCH   1   2
BRANCH   1   6
ATOM      6  C   UNL     1     -13.962 -22.593 -19.566  1.00  0.00     0.215 C 
BRANCH   6   7
ATOM      7  O   UNL     1     -12.866 -21.740 -19.639  1.00  0.00    -0.484 OA
BRANCH   7   8
ATOM      8  C   UNL     1     -12.935 -20.401 -19.344  1.00  0.00     0.128 A 
ATOM      9  C   UNL     1     -11.966 -19.703 -18.695  1.00  0.00     0.047 A 
ATOM     10  C   UNL     1     -14.099 -19.722 -19.755  1.00  0.00     0.024 A 
ATOM     11  C   UNL     1     -12.146 -18.342 -18.451  1.00  0.00     0.004 A 
ATOM     12  C   UNL     1     -15.092 -20.421 -20.424  1.00  0.00     0.012 A 
ATOM     13  C   UNL     1     -14.296 -18.374 -19.523  1.00  0.00    -0.015 A 
ATOM     14  C   UNL     1     -13.281 -17.684 -18.852  1.00  0.00     0.009 A 
ATOM     15  C   UNL     1     -16.226 -19.754 -20.830  1.00  0.00     0.001 A 
ATOM     16  C   UNL     1     -15.435 -17.715 -19.932  1.00  0.00     0.009 A 
ATOM     17  C   UNL     1     -16.414 -18.409 -20.592  1.00  0.00     0.001 A 
ENDBRANCH   7   8
ENDBRANCH   6   7
BRANCH   6  18
ATOM     18  C   UNL     1     -13.730 -23.579 -18.431  1.00  0.00     0.045 A 
ATOM     19  C   UNL     1     -12.934 -24.664 -18.360  1.00  0.00     0.019 A 
ATOM     20  S   UNL     1     -14.497 -23.540 -16.828  1.00  0.00    -0.145 S 
ATOM     21  C   UNL     1     -12.883 -25.395 -17.253  1.00  0.00     0.012 A 
ATOM     22  C   UNL     1     -13.670 -24.997 -16.200  1.00  0.00     0.065 A 
ENDBRANCH   6  18
ENDBRANCH   1   6
TORSDOF 6
ENDMDL
MODEL 9
REMARK VINA RESULT:      -2.2      2.680      6.087
REMARK SMILES CNCC[C@H](Oc1cccc2ccccc12)c1cccs1
REMARK SMILES IDX 4 1 3 2 2 3 1 4 5 6 6 7 7 8 8 9 16 10 9 11 15 12 11 13 10 14
REMARK SMILES IDX 14 15 12 16 13 17 17 18 18 19 21 20 19 21 20 22
REMARK H PARENT 2 5
ROOT
ATOM      1  C   UNL     1     -15.516 -21.294 -20.996  1.00  0.00     0.066 C 
ENDROOT
BRANCH   1   2
ATOM      2  C   UNL     1     -16.497 -20.220 -20.831  1.00  0.00     0.085 C 
BRANCH   2   3
ATOM      3  N   UNL     1     -16.215 -18.889 -21.131  1.00  0.00    -0.320 NA
ATOM      4  C   UNL     1     -16.647 -17.840 -20.300  1.00  0.00     0.101 C 
ATOM      5  H   UNL     1     -15.416 -18.656 -21.721  1.00  0.00     0.122 HD
ENDBRANCH   2   3
ENDBRANCH   1   2
BRANCH   1   6
ATOM      6  C   UNL     1     -14.720 -21.812 -19.861  1.00  0.00     0.215 C 
BRANCH   6   7
ATOM      7  O   UNL     1     -13.413 -21.363 -19.717  1.00  0.00    -0.484 OA
BRANCH   7   8
ATOM      8  C   UNL     1     -12.729 -21.409 -18.526  1.00  0.00     0.128 A 
ATOM      9  C   UNL     1     -12.385 -22.553 -17.878  1.00  0.00     0.047 A 
ATOM     10  C   UNL     1     -12.368 -20.172 -17.957  1.00  0.00     0.024 A 
ATOM     11  C   UNL     1     -11.687 -22.476 -16.672  1.00  0.00     0.004 A 
ATOM     12  C   UNL     1     -12.707 -18.998 -18.612  1.00  0.00     0.012 A 
ATOM     13  C   UNL     1     -11.677 -20.075 -16.764  1.00  0.00    -0.015 A 
ATOM     14  C   UNL     1     -11.337 -21.270 -16.120  1.00  0.00     0.009 A 
ATOM     15  C   UNL     1     -12.348 -17.791 -18.056  1.00  0.00     0.001 A 
ATOM     16  C   UNL     1     -11.322 -18.862 -16.215  1.00  0.00     0.009 A 
ATOM     17  C   UNL     1     -11.660 -17.704 -16.865  1.00  0.00     0.001 A 
ENDBRANCH   7   8
ENDBRANCH   6   7
BRANCH   6  18
ATOM     18  C   UNL     1     -14.694 -23.321 -20.050  1.00  0.00     0.045 A 
ATOM     19  C   UNL     1     -15.522 -24.278 -19.588  1.00  0.00     0.019 A 
ATOM     20  S   UNL     1     -13.495 -24.245 -20.983  1.00  0.00    -0.145 S 
ATOM     21  C   UNL     1     -15.311 -25.556 -19.881  1.00  0.00     0.012 A 
ATOM     22  C   UNL     1     -14.222 -25.848 -20.667  1.00  0.00     0.065 A 
ENDBRANCH   6  18
ENDBRANCH   1   6
TORSDOF 6
ENDMDL
