MODEL 1
REMARK VINA RESULT:      -8.9      0.000      0.000
REMARK SMILES Cc1c(C(=O)[O-])c([O-])cc2c1C(=O)c1c([O-])c([C@H]3O[C@H](CO)[C@@H](O)[C@H](O)[C@H]3O)c([O-])c([O-])c1C2=O
REMARK SMILES IDX 18 1 19 2 20 3 23 4 25 5 27 6 17 7 2 8 3 9 11 10 7 11 10 12
REMARK SMILES IDX 12 13 9 14 34 15 13 16 14 17 33 18 35 19 15 20 31 21 29 22
REMARK SMILES IDX 1 23 8 24 16 25 32 26 30 27 4 28 5 29 6 30 28 31 21 33 22 34
REMARK SMILES IDX 26 36 24 38
REMARK H PARENT 28 32 22 35 26 37 24 39
ROOT
ATOM      1  C   UNL     1      21.958  15.029 -13.159  1.00  0.00     0.179 C 
ATOM      2  O   UNL     1      20.934  14.153 -13.275  1.00  0.00    -0.362 OA
ATOM      3  C   UNL     1      21.092  13.026 -13.980  1.00  0.00     0.176 C 
ATOM      4  C   UNL     1      22.446  12.435 -14.066  1.00  0.00     0.177 C 
ATOM      5  C   UNL     1      23.577  13.394 -14.014  1.00  0.00     0.177 C 
ATOM      6  C   UNL     1      23.115  14.813 -14.087  1.00  0.00     0.179 C 
ENDROOT
BRANCH   1   7
ATOM      7  C   UNL     1      21.525  16.462 -13.201  1.00  0.00    -0.032 A 
ATOM      8  C   UNL     1      18.185  20.629 -16.431  1.00  0.00    -0.031 A 
ATOM      9  C   UNL     1      17.775  21.945 -16.488  1.00  0.00    -0.007 A 
ATOM     10  C   UNL     1      18.997  20.146 -15.422  1.00  0.00     0.037 A 
ATOM     11  C   UNL     1      18.174  22.839 -15.515  1.00  0.00    -0.099 A 
ATOM     12  C   UNL     1      19.397  21.045 -14.446  1.00  0.00     0.033 A 
ATOM     13  C   UNL     1      19.437  18.756 -15.351  1.00  0.00     0.194 C 
ATOM     14  C   UNL     1      18.997  22.366 -14.488  1.00  0.00     0.005 A 
ATOM     15  C   UNL     1      20.255  20.551 -13.374  1.00  0.00     0.193 C 
ATOM     16  O   UNL     1      19.082  17.944 -16.223  1.00  0.00    -0.289 OA
ATOM     17  C   UNL     1      20.298  18.257 -14.275  1.00  0.00     0.026 A 
ATOM     18  C   UNL     1      20.694  19.155 -13.306  1.00  0.00     0.025 A 
ATOM     19  O   UNL     1      20.631  21.340 -12.480  1.00  0.00    -0.289 OA
ATOM     20  C   UNL     1      20.714  16.945 -14.209  1.00  0.00    -0.091 A 
ATOM     21  C   UNL     1      21.507  18.693 -12.288  1.00  0.00    -0.105 A 
ATOM     22  C   UNL     1      21.911  17.375 -12.240  1.00  0.00    -0.111 A 
ATOM     23  C   UNL     1      17.739  19.692 -17.490  1.00  0.00     0.046 C 
ATOM     24  O   UNL     1      17.782  24.182 -15.535  1.00  0.00    -0.872 OA
ATOM     25  O   UNL     1      20.290  16.086 -15.203  1.00  0.00    -0.872 OA
ATOM     26  O   UNL     1      21.897  19.615 -11.317  1.00  0.00    -0.872 OA
ATOM     27  O   UNL     1      22.728  16.914 -11.215  1.00  0.00    -0.873 OA
BRANCH   9  28
ATOM     28  C   UNL     1      16.918  22.450 -17.555  1.00  0.00     0.071 C 
ATOM     29  O   UNL     1      15.674  22.449 -17.518  1.00  0.00    -0.545 OA
ATOM     30  O   UNL     1      17.560  22.964 -18.680  1.00  0.00    -0.545 OA
ENDBRANCH   9  28
ENDBRANCH   1   7
BRANCH   6  31
ATOM     31  O   UNL     1      22.869  15.185 -15.390  1.00  0.00    -0.387 OA
ATOM     32  H   UNL     1      23.450  14.676 -16.007  1.00  0.00     0.211 HD
ENDBRANCH   6  31
BRANCH   3  33
ATOM     33  C   UNL     1      20.177  11.956 -13.362  1.00  0.00     0.191 C 
BRANCH  33  34
ATOM     34  O   UNL     1      20.449  11.763 -12.025  1.00  0.00    -0.394 OA
ATOM     35  H   UNL     1      21.005  12.505 -11.643  1.00  0.00     0.210 HD
ENDBRANCH  33  34
ENDBRANCH   3  33
BRANCH   5  36
ATOM     36  O   UNL     1      24.397  13.198 -12.898  1.00  0.00    -0.387 OA
ATOM     37  H   UNL     1      24.894  12.348 -12.947  1.00  0.00     0.211 HD
ENDBRANCH   5  36
BRANCH   4  38
ATOM     38  O   UNL     1      22.499  11.653 -15.245  1.00  0.00    -0.388 OA
ATOM     39  H   UNL     1      23.459  11.359 -15.347  1.00  0.00     0.211 HD
ENDBRANCH   4  38
TORSDOF 7
ENDMDL
MODEL 2
REMARK VINA RESULT:      -8.8      1.403      2.430
REMARK SMILES Cc1c(C(=O)[O-])c([O-])cc2c1C(=O)c1c([O-])c([C@H]3O[C@H](CO)[C@@H](O)[C@H](O)[C@H]3O)c([O-])c([O-])c1C2=O
REMARK SMILES IDX 18 1 19 2 20 3 23 4 25 5 27 6 17 7 2 8 3 9 11 10 7 11 10 12
REMARK SMILES IDX 12 13 9 14 34 15 13 16 14 17 33 18 35 19 15 20 31 21 29 22
REMARK SMILES IDX 1 23 8 24 16 25 32 26 30 27 4 28 5 29 6 30 28 31 21 33 22 34
REMARK SMILES IDX 26 36 24 38
REMARK H PARENT 28 32 22 35 26 37 24 39
ROOT
ATOM      1  C   UNL     1      20.669  15.928 -14.056  1.00  0.00     0.179 C 
ATOM      2  O   UNL     1      21.970  15.561 -14.004  1.00  0.00    -0.362 OA
ATOM      3  C   UNL     1      22.324  14.432 -13.379  1.00  0.00     0.176 C 
ATOM      4  C   UNL     1      21.348  13.320 -13.329  1.00  0.00     0.177 C 
ATOM      5  C   UNL     1      19.917  13.713 -13.311  1.00  0.00     0.177 C 
ATOM      6  C   UNL     1      19.741  15.187 -13.141  1.00  0.00     0.179 C 
ENDROOT
BRANCH   1   7
ATOM      7  C   UNL     1      20.460  17.404 -13.916  1.00  0.00    -0.032 A 
ATOM      8  C   UNL     1      17.187  22.261 -16.072  1.00  0.00    -0.031 A 
ATOM      9  C   UNL     1      16.979  23.620 -15.958  1.00  0.00    -0.007 A 
ATOM     10  C   UNL     1      18.110  21.583 -15.299  1.00  0.00     0.037 A 
ATOM     11  C   UNL     1      17.703  24.360 -15.046  1.00  0.00    -0.099 A 
ATOM     12  C   UNL     1      18.837  22.327 -14.383  1.00  0.00     0.033 A 
ATOM     13  C   UNL     1      18.340  20.146 -15.410  1.00  0.00     0.194 C 
ATOM     14  C   UNL     1      18.641  23.688 -14.256  1.00  0.00     0.005 A 
ATOM     15  C   UNL     1      19.816  21.626 -13.558  1.00  0.00     0.193 C 
ATOM     16  O   UNL     1      17.690  19.472 -16.229  1.00  0.00    -0.289 OA
ATOM     17  C   UNL     1      19.321  19.439 -14.583  1.00  0.00     0.026 A 
ATOM     18  C   UNL     1      20.043  20.183 -13.673  1.00  0.00     0.025 A 
ATOM     19  O   UNL     1      20.486  22.271 -12.724  1.00  0.00    -0.289 OA
ATOM     20  C   UNL     1      19.538  18.082 -14.689  1.00  0.00    -0.091 A 
ATOM     21  C   UNL     1      20.972  19.524 -12.889  1.00  0.00    -0.105 A 
ATOM     22  C   UNL     1      21.172  18.165 -13.011  1.00  0.00    -0.111 A 
ATOM     23  C   UNL     1      16.392  21.494 -17.061  1.00  0.00     0.046 C 
ATOM     24  O   UNL     1      17.524  25.740 -14.898  1.00  0.00    -0.872 OA
ATOM     25  O   UNL     1      18.789  17.383 -15.615  1.00  0.00    -0.872 OA
ATOM     26  O   UNL     1      21.692  20.292 -11.975  1.00  0.00    -0.872 OA
ATOM     27  O   UNL     1      22.106  17.507 -12.221  1.00  0.00    -0.873 OA
BRANCH   9  28
ATOM     28  C   UNL     1      16.003  24.332 -16.777  1.00  0.00     0.071 C 
ATOM     29  O   UNL     1      14.819  24.529 -16.449  1.00  0.00    -0.545 OA
ATOM     30  O   UNL     1      16.452  24.813 -18.006  1.00  0.00    -0.545 OA
ENDBRANCH   9  28
ENDBRANCH   1   7
BRANCH   6  31
ATOM     31  O   UNL     1      19.850  15.547 -11.816  1.00  0.00    -0.387 OA
ATOM     32  H   UNL     1      20.300  14.832 -11.303  1.00  0.00     0.211 HD
ENDBRANCH   6  31
BRANCH   3  33
ATOM     33  C   UNL     1      23.584  13.888 -14.072  1.00  0.00     0.191 C 
BRANCH  33  34
ATOM     34  O   UNL     1      24.369  13.160 -13.206  1.00  0.00    -0.394 OA
ATOM     35  H   UNL     1      25.198  13.657 -12.940  1.00  0.00     0.210 HD
ENDBRANCH  33  34
ENDBRANCH   3  33
BRANCH   5  36
ATOM     36  O   UNL     1      19.221  13.259 -14.435  1.00  0.00    -0.387 OA
ATOM     37  H   UNL     1      18.258  13.146 -14.255  1.00  0.00     0.211 HD
ENDBRANCH   5  36
BRANCH   4  38
ATOM     38  O   UNL     1      21.668  12.518 -12.208  1.00  0.00    -0.388 OA
ATOM     39  H   UNL     1      21.843  11.590 -12.564  1.00  0.00     0.211 HD
ENDBRANCH   4  38
TORSDOF 7
ENDMDL
MODEL 3
REMARK VINA RESULT:      -8.7      1.807      3.509
REMARK SMILES Cc1c(C(=O)[O-])c([O-])cc2c1C(=O)c1c([O-])c([C@H]3O[C@H](CO)[C@@H](O)[C@H](O)[C@H]3O)c([O-])c([O-])c1C2=O
REMARK SMILES IDX 18 1 19 2 20 3 23 4 25 5 27 6 17 7 2 8 3 9 11 10 7 11 10 12
REMARK SMILES IDX 12 13 9 14 34 15 13 16 14 17 33 18 35 19 15 20 31 21 29 22
REMARK SMILES IDX 1 23 8 24 16 25 32 26 30 27 4 28 5 29 6 30 28 31 21 33 22 34
REMARK SMILES IDX 26 36 24 38
REMARK H PARENT 28 32 22 35 26 37 24 39
ROOT
ATOM      1  C   UNL     1      20.754  14.921 -14.391  1.00  0.00     0.179 C 
ATOM      2  O   UNL     1      20.162  13.761 -14.028  1.00  0.00    -0.362 OA
ATOM      3  C   UNL     1      20.742  12.591 -14.323  1.00  0.00     0.176 C 
ATOM      4  C   UNL     1      22.217  12.545 -14.429  1.00  0.00     0.177 C 
ATOM      5  C   UNL     1      22.873  13.791 -14.898  1.00  0.00     0.177 C 
ATOM      6  C   UNL     1      21.882  14.804 -15.371  1.00  0.00     0.179 C 
ENDROOT
BRANCH   1   7
ATOM      7  C   UNL     1      19.784  15.969 -14.846  1.00  0.00    -0.032 A 
ATOM      8  C   UNL     1      18.344  22.028 -14.433  1.00  0.00    -0.031 A 
ATOM      9  C   UNL     1      17.462  23.007 -14.840  1.00  0.00    -0.007 A 
ATOM     10  C   UNL     1      18.230  20.710 -14.834  1.00  0.00     0.037 A 
ATOM     11  C   UNL     1      16.415  22.692 -15.682  1.00  0.00    -0.099 A 
ATOM     12  C   UNL     1      17.178  20.395 -15.680  1.00  0.00     0.033 A 
ATOM     13  C   UNL     1      19.156  19.665 -14.411  1.00  0.00     0.194 C 
ATOM     14  C   UNL     1      16.286  21.363 -16.097  1.00  0.00     0.005 A 
ATOM     15  C   UNL     1      17.042  19.008 -16.114  1.00  0.00     0.193 C 
ATOM     16  O   UNL     1      20.103  19.940 -13.652  1.00  0.00    -0.289 OA
ATOM     17  C   UNL     1      19.024  18.271 -14.845  1.00  0.00     0.026 A 
ATOM     18  C   UNL     1      17.975  17.962 -15.686  1.00  0.00     0.025 A 
ATOM     19  O   UNL     1      16.103  18.695 -16.876  1.00  0.00    -0.289 OA
ATOM     20  C   UNL     1      19.898  17.284 -14.444  1.00  0.00    -0.091 A 
ATOM     21  C   UNL     1      17.842  16.650 -16.101  1.00  0.00    -0.105 A 
ATOM     22  C   UNL     1      18.730  15.678 -15.687  1.00  0.00    -0.111 A 
ATOM     23  C   UNL     1      19.459  22.397 -13.528  1.00  0.00     0.046 C 
ATOM     24  O   UNL     1      15.498  23.654 -16.119  1.00  0.00    -0.872 OA
ATOM     25  O   UNL     1      20.931  17.647 -13.602  1.00  0.00    -0.872 OA
ATOM     26  O   UNL     1      16.777  16.356 -16.950  1.00  0.00    -0.872 OA
ATOM     27  O   UNL     1      18.593  14.361 -16.106  1.00  0.00    -0.873 OA
BRANCH   9  28
ATOM     28  C   UNL     1      17.587  24.396 -14.412  1.00  0.00     0.071 C 
ATOM     29  O   UNL     1      18.206  25.273 -15.042  1.00  0.00    -0.545 OA
ATOM     30  O   UNL     1      16.961  24.739 -13.215  1.00  0.00    -0.545 OA
ENDBRANCH   9  28
ENDBRANCH   1   7
BRANCH   6  31
ATOM     31  O   UNL     1      21.481  14.536 -16.662  1.00  0.00    -0.387 OA
ATOM     32  H   UNL     1      21.245  13.581 -16.756  1.00  0.00     0.211 HD
ENDBRANCH   6  31
BRANCH   3  33
ATOM     33  C   UNL     1      20.343  11.583 -13.232  1.00  0.00     0.191 C 
BRANCH  33  34
ATOM     34  O   UNL     1      20.617  12.062 -11.970  1.00  0.00    -0.394 OA
ATOM     35  H   UNL     1      21.538  11.811 -11.664  1.00  0.00     0.210 HD
ENDBRANCH  33  34
ENDBRANCH   3  33
BRANCH   5  36
ATOM     36  O   UNL     1      23.725  14.344 -13.938  1.00  0.00    -0.387 OA
ATOM     37  H   UNL     1      24.581  13.858 -13.876  1.00  0.00     0.211 HD
ENDBRANCH   5  36
BRANCH   4  38
ATOM     38  O   UNL     1      22.553  11.451 -15.262  1.00  0.00    -0.388 OA
ATOM     39  H   UNL     1      22.473  11.783 -16.212  1.00  0.00     0.211 HD
ENDBRANCH   4  38
TORSDOF 7
ENDMDL
MODEL 4
REMARK VINA RESULT:      -8.7      2.133      3.815
REMARK SMILES Cc1c(C(=O)[O-])c([O-])cc2c1C(=O)c1c([O-])c([C@H]3O[C@H](CO)[C@@H](O)[C@H](O)[C@H]3O)c([O-])c([O-])c1C2=O
REMARK SMILES IDX 18 1 19 2 20 3 23 4 25 5 27 6 17 7 2 8 3 9 11 10 7 11 10 12
REMARK SMILES IDX 12 13 9 14 34 15 13 16 14 17 33 18 35 19 15 20 31 21 29 22
REMARK SMILES IDX 1 23 8 24 16 25 32 26 30 27 4 28 5 29 6 30 28 31 21 33 22 34
REMARK SMILES IDX 26 36 24 38
REMARK H PARENT 28 32 22 35 26 37 24 39
ROOT
ATOM      1  C   UNL     1      20.849  17.296 -13.150  1.00  0.00     0.179 C 
ATOM      2  O   UNL     1      21.761  16.439 -13.662  1.00  0.00    -0.362 OA
ATOM      3  C   UNL     1      22.740  15.957 -12.887  1.00  0.00     0.176 C 
ATOM      4  C   UNL     1      22.482  15.817 -11.436  1.00  0.00     0.177 C 
ATOM      5  C   UNL     1      21.539  16.799 -10.847  1.00  0.00     0.177 C 
ATOM      6  C   UNL     1      21.181  17.883 -11.810  1.00  0.00     0.179 C 
ENDROOT
BRANCH   1   7
ATOM      7  C   UNL     1      20.448  18.381 -14.101  1.00  0.00    -0.032 A 
ATOM      8  C   UNL     1      15.586  21.618 -16.301  1.00  0.00    -0.031 A 
ATOM      9  C   UNL     1      15.197  22.615 -17.171  1.00  0.00    -0.007 A 
ATOM     10  C   UNL     1      16.904  21.226 -16.162  1.00  0.00     0.037 A 
ATOM     11  C   UNL     1      16.134  23.266 -17.946  1.00  0.00    -0.099 A 
ATOM     12  C   UNL     1      17.846  21.880 -16.941  1.00  0.00     0.033 A 
ATOM     13  C   UNL     1      17.330  20.173 -15.245  1.00  0.00     0.194 C 
ATOM     14  C   UNL     1      17.472  22.880 -17.817  1.00  0.00     0.005 A 
ATOM     15  C   UNL     1      19.242  21.478 -16.806  1.00  0.00     0.193 C 
ATOM     16  O   UNL     1      16.491  19.582 -14.542  1.00  0.00    -0.289 OA
ATOM     17  C   UNL     1      18.731  19.768 -15.106  1.00  0.00     0.026 A 
ATOM     18  C   UNL     1      19.664  20.420 -15.884  1.00  0.00     0.025 A 
ATOM     19  O   UNL     1      20.112  22.051 -17.497  1.00  0.00    -0.289 OA
ATOM     20  C   UNL     1      19.132  18.772 -14.240  1.00  0.00    -0.091 A 
ATOM     21  C   UNL     1      20.988  20.044 -15.760  1.00  0.00    -0.105 A 
ATOM     22  C   UNL     1      21.368  19.046 -14.887  1.00  0.00    -0.111 A 
ATOM     23  C   UNL     1      14.555  20.938 -15.481  1.00  0.00     0.046 C 
ATOM     24  O   UNL     1      15.782  24.281 -18.842  1.00  0.00    -0.872 OA
ATOM     25  O   UNL     1      18.158  18.150 -13.485  1.00  0.00    -0.872 OA
ATOM     26  O   UNL     1      21.917  20.716 -16.554  1.00  0.00    -0.872 OA
ATOM     27  O   UNL     1      22.700  18.671 -14.765  1.00  0.00    -0.873 OA
BRANCH   9  28
ATOM     28  C   UNL     1      13.804  23.025 -17.315  1.00  0.00     0.071 C 
ATOM     29  O   UNL     1      13.265  23.930 -16.652  1.00  0.00    -0.545 OA
ATOM     30  O   UNL     1      13.047  22.342 -18.265  1.00  0.00    -0.545 OA
ENDBRANCH   9  28
ENDBRANCH   1   7
BRANCH   6  31
ATOM     31  O   UNL     1      22.158  18.853 -11.846  1.00  0.00    -0.387 OA
ATOM     32  H   UNL     1      22.477  18.983 -12.773  1.00  0.00     0.211 HD
ENDBRANCH   6  31
BRANCH   3  33
ATOM     33  C   UNL     1      23.107  14.559 -13.412  1.00  0.00     0.191 C 
BRANCH  33  34
ATOM     34  O   UNL     1      24.172  14.020 -12.724  1.00  0.00    -0.394 OA
ATOM     35  H   UNL     1      25.012  14.551 -12.855  1.00  0.00     0.210 HD
ENDBRANCH  33  34
ENDBRANCH   3  33
BRANCH   5  36
ATOM     36  O   UNL     1      20.387  16.196 -10.331  1.00  0.00    -0.387 OA
ATOM     37  H   UNL     1      20.530  15.838  -9.424  1.00  0.00     0.211 HD
ENDBRANCH   5  36
BRANCH   4  38
ATOM     38  O   UNL     1      23.732  15.852 -10.773  1.00  0.00    -0.388 OA
ATOM     39  H   UNL     1      24.319  16.475 -11.309  1.00  0.00     0.211 HD
ENDBRANCH   4  38
TORSDOF 7
ENDMDL
MODEL 5
REMARK VINA RESULT:      -8.6      1.339      3.356
REMARK SMILES Cc1c(C(=O)[O-])c([O-])cc2c1C(=O)c1c([O-])c([C@H]3O[C@H](CO)[C@@H](O)[C@H](O)[C@H]3O)c([O-])c([O-])c1C2=O
REMARK SMILES IDX 18 1 19 2 20 3 23 4 25 5 27 6 17 7 2 8 3 9 11 10 7 11 10 12
REMARK SMILES IDX 12 13 9 14 34 15 13 16 14 17 33 18 35 19 15 20 31 21 29 22
REMARK SMILES IDX 1 23 8 24 16 25 32 26 30 27 4 28 5 29 6 30 28 31 21 33 22 34
REMARK SMILES IDX 26 36 24 38
REMARK H PARENT 28 32 22 35 26 37 24 39
ROOT
ATOM      1  C   UNL     1      21.145  15.663 -13.621  1.00  0.00     0.179 C 
ATOM      2  O   UNL     1      20.722  14.395 -13.829  1.00  0.00    -0.362 OA
ATOM      3  C   UNL     1      21.607  13.393 -13.886  1.00  0.00     0.176 C 
ATOM      4  C   UNL     1      22.867  13.524 -13.121  1.00  0.00     0.177 C 
ATOM      5  C   UNL     1      23.381  14.906 -12.949  1.00  0.00     0.177 C 
ATOM      6  C   UNL     1      22.618  15.895 -13.768  1.00  0.00     0.179 C 
ENDROOT
BRANCH   1   7
ATOM      7  C   UNL     1      20.382  16.684 -14.409  1.00  0.00    -0.032 A 
ATOM      8  C   UNL     1      18.589  22.661 -14.518  1.00  0.00    -0.031 A 
ATOM      9  C   UNL     1      17.891  23.616 -15.229  1.00  0.00    -0.007 A 
ATOM     10  C   UNL     1      18.710  21.354 -14.950  1.00  0.00     0.037 A 
ATOM     11  C   UNL     1      17.279  23.285 -16.421  1.00  0.00    -0.099 A 
ATOM     12  C   UNL     1      18.095  21.023 -16.148  1.00  0.00     0.033 A 
ATOM     13  C   UNL     1      19.445  20.334 -14.208  1.00  0.00     0.194 C 
ATOM     14  C   UNL     1      17.393  21.966 -16.871  1.00  0.00     0.005 A 
ATOM     15  C   UNL     1      18.213  19.646 -16.618  1.00  0.00     0.193 C 
ATOM     16  O   UNL     1      20.000  20.624 -13.133  1.00  0.00    -0.289 OA
ATOM     17  C   UNL     1      19.567  18.952 -14.679  1.00  0.00     0.026 A 
ATOM     18  C   UNL     1      18.953  18.626 -15.870  1.00  0.00     0.025 A 
ATOM     19  O   UNL     1      17.669  19.320 -17.695  1.00  0.00    -0.289 OA
ATOM     20  C   UNL     1      20.261  17.989 -13.977  1.00  0.00    -0.091 A 
ATOM     21  C   UNL     1      19.062  17.324 -16.321  1.00  0.00    -0.105 A 
ATOM     22  C   UNL     1      19.762  16.377 -15.603  1.00  0.00    -0.111 A 
ATOM     23  C   UNL     1      19.235  23.047 -13.241  1.00  0.00     0.046 C 
ATOM     24  O   UNL     1      16.562  24.222 -17.172  1.00  0.00    -0.872 OA
ATOM     25  O   UNL     1      20.856  18.366 -12.790  1.00  0.00    -0.872 OA
ATOM     26  O   UNL     1      18.435  17.014 -17.527  1.00  0.00    -0.872 OA
ATOM     27  O   UNL     1      19.869  15.069 -16.059  1.00  0.00    -0.873 OA
BRANCH   9  28
ATOM     28  C   UNL     1      17.766  24.994 -14.768  1.00  0.00     0.071 C 
ATOM     29  O   UNL     1      18.558  25.909 -15.061  1.00  0.00    -0.545 OA
ATOM     30  O   UNL     1      16.677  25.281 -13.946  1.00  0.00    -0.545 OA
ENDBRANCH   9  28
ENDBRANCH   1   7
BRANCH   6  31
ATOM     31  O   UNL     1      23.060  15.899 -15.073  1.00  0.00    -0.387 OA
ATOM     32  H   UNL     1      22.469  15.343 -15.637  1.00  0.00     0.211 HD
ENDBRANCH   6  31
BRANCH   3  33
ATOM     33  C   UNL     1      20.907  12.122 -13.377  1.00  0.00     0.191 C 
BRANCH  33  34
ATOM     34  O   UNL     1      20.573  12.222 -12.044  1.00  0.00    -0.394 OA
ATOM     35  H   UNL     1      19.958  12.994 -11.868  1.00  0.00     0.210 HD
ENDBRANCH  33  34
ENDBRANCH   3  33
BRANCH   5  36
ATOM     36  O   UNL     1      23.422  15.302 -11.609  1.00  0.00    -0.387 OA
ATOM     37  H   UNL     1      22.919  16.135 -11.451  1.00  0.00     0.211 HD
ENDBRANCH   5  36
BRANCH   4  38
ATOM     38  O   UNL     1      23.833  12.697 -13.740  1.00  0.00    -0.388 OA
ATOM     39  H   UNL     1      24.729  13.130 -13.568  1.00  0.00     0.211 HD
ENDBRANCH   4  38
TORSDOF 7
ENDMDL
MODEL 6
REMARK VINA RESULT:      -8.5      2.005      9.011
REMARK SMILES Cc1c(C(=O)[O-])c([O-])cc2c1C(=O)c1c([O-])c([C@H]3O[C@H](CO)[C@@H](O)[C@H](O)[C@H]3O)c([O-])c([O-])c1C2=O
REMARK SMILES IDX 18 1 19 2 20 3 23 4 25 5 27 6 17 7 2 8 3 9 11 10 7 11 10 12
REMARK SMILES IDX 12 13 9 14 34 15 13 16 14 17 33 18 35 19 15 20 31 21 29 22
REMARK SMILES IDX 1 23 8 24 16 25 32 26 30 27 4 28 5 29 6 30 28 31 21 33 22 34
REMARK SMILES IDX 26 36 24 38
REMARK H PARENT 28 32 22 35 26 37 24 39
ROOT
ATOM      1  C   UNL     1      17.786  22.142 -15.238  1.00  0.00     0.179 C 
ATOM      2  O   UNL     1      18.121  23.321 -14.666  1.00  0.00    -0.362 OA
ATOM      3  C   UNL     1      17.692  24.471 -15.198  1.00  0.00     0.176 C 
ATOM      4  C   UNL     1      16.411  24.468 -15.939  1.00  0.00     0.177 C 
ATOM      5  C   UNL     1      16.067  23.202 -16.634  1.00  0.00     0.177 C 
ATOM      6  C   UNL     1      17.197  22.225 -16.614  1.00  0.00     0.179 C 
ENDROOT
BRANCH   1   7
ATOM      7  C   UNL     1      18.889  21.129 -15.211  1.00  0.00    -0.032 A 
ATOM      8  C   UNL     1      20.244  15.180 -13.900  1.00  0.00    -0.031 A 
ATOM      9  C   UNL     1      21.247  14.233 -13.869  1.00  0.00    -0.007 A 
ATOM     10  C   UNL     1      20.466  16.483 -14.304  1.00  0.00     0.037 A 
ATOM     11  C   UNL     1      22.530  14.567 -14.249  1.00  0.00    -0.099 A 
ATOM     12  C   UNL     1      21.755  16.818 -14.686  1.00  0.00     0.033 A 
ATOM     13  C   UNL     1      19.414  17.495 -14.342  1.00  0.00     0.194 C 
ATOM     14  C   UNL     1      22.770  15.882 -14.659  1.00  0.00     0.005 A 
ATOM     15  C   UNL     1      22.006  18.190 -15.114  1.00  0.00     0.193 C 
ATOM     16  O   UNL     1      18.254  17.201 -14.001  1.00  0.00    -0.289 OA
ATOM     17  C   UNL     1      19.662  18.873 -14.773  1.00  0.00     0.026 A 
ATOM     18  C   UNL     1      20.946  19.202 -15.151  1.00  0.00     0.025 A 
ATOM     19  O   UNL     1      23.159  18.520 -15.464  1.00  0.00    -0.289 OA
ATOM     20  C   UNL     1      18.668  19.828 -14.808  1.00  0.00    -0.091 A 
ATOM     21  C   UNL     1      21.190  20.500 -15.559  1.00  0.00    -0.105 A 
ATOM     22  C   UNL     1      20.180  21.440 -15.587  1.00  0.00    -0.111 A 
ATOM     23  C   UNL     1      18.875  14.790 -13.486  1.00  0.00     0.046 C 
ATOM     24  O   UNL     1      23.577  13.638 -14.231  1.00  0.00    -0.872 OA
ATOM     25  O   UNL     1      17.400  19.447 -14.419  1.00  0.00    -0.872 OA
ATOM     26  O   UNL     1      22.494  20.814 -15.938  1.00  0.00    -0.872 OA
ATOM     27  O   UNL     1      20.429  22.744 -15.997  1.00  0.00    -0.873 OA
BRANCH   9  28
ATOM     28  C   UNL     1      21.008  12.858 -13.441  1.00  0.00     0.071 C 
ATOM     29  O   UNL     1      21.008  12.480 -12.255  1.00  0.00    -0.545 OA
ATOM     30  O   UNL     1      20.767  11.925 -14.448  1.00  0.00    -0.545 OA
ENDBRANCH   9  28
ENDBRANCH   1   7
BRANCH   6  31
ATOM     31  O   UNL     1      18.113  22.511 -17.603  1.00  0.00    -0.387 OA
ATOM     32  H   UNL     1      18.291  23.483 -17.633  1.00  0.00     0.211 HD
ENDBRANCH   6  31
BRANCH   3  33
ATOM     33  C   UNL     1      17.541  25.488 -14.053  1.00  0.00     0.191 C 
BRANCH  33  34
ATOM     34  O   UNL     1      16.377  26.215 -14.168  1.00  0.00    -0.394 OA
ATOM     35  H   UNL     1      16.528  27.194 -14.014  1.00  0.00     0.210 HD
ENDBRANCH  33  34
ENDBRANCH   3  33
BRANCH   5  36
ATOM     36  O   UNL     1      14.899  22.617 -16.136  1.00  0.00    -0.387 OA
ATOM     37  H   UNL     1      14.829  21.663 -16.378  1.00  0.00     0.211 HD
ENDBRANCH   5  36
BRANCH   4  38
ATOM     38  O   UNL     1      16.438  25.553 -16.847  1.00  0.00    -0.388 OA
ATOM     39  H   UNL     1      16.723  25.171 -17.737  1.00  0.00     0.211 HD
ENDBRANCH   4  38
TORSDOF 7
ENDMDL
MODEL 7
REMARK VINA RESULT:      -8.5      2.240      9.444
REMARK SMILES Cc1c(C(=O)[O-])c([O-])cc2c1C(=O)c1c([O-])c([C@H]3O[C@H](CO)[C@@H](O)[C@H](O)[C@H]3O)c([O-])c([O-])c1C2=O
REMARK SMILES IDX 18 1 19 2 20 3 23 4 25 5 27 6 17 7 2 8 3 9 11 10 7 11 10 12
REMARK SMILES IDX 12 13 9 14 34 15 13 16 14 17 33 18 35 19 15 20 31 21 29 22
REMARK SMILES IDX 1 23 8 24 16 25 32 26 30 27 4 28 5 29 6 30 28 31 21 33 22 34
REMARK SMILES IDX 26 36 24 38
REMARK H PARENT 28 32 22 35 26 37 24 39
ROOT
ATOM      1  C   UNL     1      17.814  23.394 -15.450  1.00  0.00     0.179 C 
ATOM      2  O   UNL     1      16.851  23.715 -16.343  1.00  0.00    -0.362 OA
ATOM      3  C   UNL     1      16.157  24.850 -16.203  1.00  0.00     0.176 C 
ATOM      4  C   UNL     1      16.813  25.998 -15.538  1.00  0.00     0.177 C 
ATOM      5  C   UNL     1      17.820  25.658 -14.502  1.00  0.00     0.177 C 
ATOM      6  C   UNL     1      17.830  24.199 -14.185  1.00  0.00     0.179 C 
ENDROOT
BRANCH   1   7
ATOM      7  C   UNL     1      17.869  21.932 -15.130  1.00  0.00    -0.032 A 
ATOM      8  C   UNL     1      21.703  17.048 -14.494  1.00  0.00    -0.031 A 
ATOM      9  C   UNL     1      21.774  15.701 -14.202  1.00  0.00    -0.007 A 
ATOM     10  C   UNL     1      20.508  17.743 -14.508  1.00  0.00     0.037 A 
ATOM     11  C   UNL     1      20.628  14.993 -13.908  1.00  0.00    -0.099 A 
ATOM     12  C   UNL     1      19.357  17.030 -14.212  1.00  0.00     0.033 A 
ATOM     13  C   UNL     1      20.419  19.167 -14.815  1.00  0.00     0.194 C 
ATOM     14  C   UNL     1      19.411  15.683 -13.918  1.00  0.00     0.005 A 
ATOM     15  C   UNL     1      18.087  17.750 -14.222  1.00  0.00     0.193 C 
ATOM     16  O   UNL     1      21.448  19.813 -15.082  1.00  0.00    -0.289 OA
ATOM     17  C   UNL     1      19.146  19.893 -14.826  1.00  0.00     0.026 A 
ATOM     18  C   UNL     1      18.003  19.180 -14.531  1.00  0.00     0.025 A 
ATOM     19  O   UNL     1      17.033  17.132 -13.959  1.00  0.00    -0.289 OA
ATOM     20  C   UNL     1      19.062  21.238 -15.117  1.00  0.00    -0.091 A 
ATOM     21  C   UNL     1      16.797  19.855 -14.539  1.00  0.00    -0.105 A 
ATOM     22  C   UNL     1      16.736  21.202 -14.832  1.00  0.00    -0.111 A 
ATOM     23  C   UNL     1      22.952  17.782 -14.807  1.00  0.00     0.046 C 
ATOM     24  O   UNL     1      20.655  13.627 -13.607  1.00  0.00    -0.872 OA
ATOM     25  O   UNL     1      20.236  21.905 -15.405  1.00  0.00    -0.872 OA
ATOM     26  O   UNL     1      15.652  19.118 -14.239  1.00  0.00    -0.872 OA
ATOM     27  O   UNL     1      15.522  21.878 -14.839  1.00  0.00    -0.873 OA
BRANCH   9  28
ATOM     28  C   UNL     1      23.038  14.972 -14.190  1.00  0.00     0.071 C 
ATOM     29  O   UNL     1      23.576  14.480 -15.199  1.00  0.00    -0.545 OA
ATOM     30  O   UNL     1      23.664  14.830 -12.953  1.00  0.00    -0.545 OA
ENDBRANCH   9  28
ENDBRANCH   1   7
BRANCH   6  31
ATOM     31  O   UNL     1      16.822  23.879 -13.302  1.00  0.00    -0.387 OA
ATOM     32  H   UNL     1      17.122  24.025 -12.372  1.00  0.00     0.211 HD
ENDBRANCH   6  31
BRANCH   3  33
ATOM     33  C   UNL     1      15.747  25.324 -17.608  1.00  0.00     0.191 C 
BRANCH  33  34
ATOM     34  O   UNL     1      16.451  26.443 -17.994  1.00  0.00    -0.394 OA
ATOM     35  H   UNL     1      17.358  26.484 -17.567  1.00  0.00     0.210 HD
ENDBRANCH  33  34
ENDBRANCH   3  33
BRANCH   5  36
ATOM     36  O   UNL     1      19.103  26.101 -14.834  1.00  0.00    -0.387 OA
ATOM     37  H   UNL     1      19.587  26.459 -14.053  1.00  0.00     0.211 HD
ENDBRANCH   5  36
BRANCH   4  38
ATOM     38  O   UNL     1      15.795  26.824 -15.005  1.00  0.00    -0.388 OA
ATOM     39  H   UNL     1      16.248  27.444 -14.349  1.00  0.00     0.211 HD
ENDBRANCH   4  38
TORSDOF 7
ENDMDL
MODEL 8
REMARK VINA RESULT:      -8.4      1.396      2.312
REMARK SMILES Cc1c(C(=O)[O-])c([O-])cc2c1C(=O)c1c([O-])c([C@H]3O[C@H](CO)[C@@H](O)[C@H](O)[C@H]3O)c([O-])c([O-])c1C2=O
REMARK SMILES IDX 18 1 19 2 20 3 23 4 25 5 27 6 17 7 2 8 3 9 11 10 7 11 10 12
REMARK SMILES IDX 12 13 9 14 34 15 13 16 14 17 33 18 35 19 15 20 31 21 29 22
REMARK SMILES IDX 1 23 8 24 16 25 32 26 30 27 4 28 5 29 6 30 28 31 21 33 22 34
REMARK SMILES IDX 26 36 24 38
REMARK H PARENT 28 32 22 35 26 37 24 39
ROOT
ATOM      1  C   UNL     1      21.715  16.385 -14.655  1.00  0.00     0.179 C 
ATOM      2  O   UNL     1      22.454  15.859 -13.651  1.00  0.00    -0.362 OA
ATOM      3  C   UNL     1      22.361  14.556 -13.361  1.00  0.00     0.176 C 
ATOM      4  C   UNL     1      22.009  13.617 -14.450  1.00  0.00     0.177 C 
ATOM      5  C   UNL     1      21.137  14.162 -15.519  1.00  0.00     0.177 C 
ATOM      6  C   UNL     1      20.611  15.518 -15.180  1.00  0.00     0.179 C 
ENDROOT
BRANCH   1   7
ATOM      7  C   UNL     1      21.194  17.757 -14.357  1.00  0.00    -0.032 A 
ATOM      8  C   UNL     1      17.427  22.282 -16.428  1.00  0.00    -0.031 A 
ATOM      9  C   UNL     1      16.936  23.546 -16.171  1.00  0.00    -0.007 A 
ATOM     10  C   UNL     1      18.324  21.649 -15.588  1.00  0.00     0.037 A 
ATOM     11  C   UNL     1      17.334  24.229 -15.041  1.00  0.00    -0.099 A 
ATOM     12  C   UNL     1      18.723  22.336 -14.453  1.00  0.00     0.033 A 
ATOM     13  C   UNL     1      18.851  20.313 -15.848  1.00  0.00     0.194 C 
ATOM     14  C   UNL     1      18.241  23.601 -14.181  1.00  0.00     0.005 A 
ATOM     15  C   UNL     1      19.670  21.681 -13.556  1.00  0.00     0.193 C 
ATOM     16  O   UNL     1      18.497  19.690 -16.864  1.00  0.00    -0.289 OA
ATOM     17  C   UNL     1      19.801  19.652 -14.949  1.00  0.00     0.026 A 
ATOM     18  C   UNL     1      20.196  20.340 -13.821  1.00  0.00     0.025 A 
ATOM     19  O   UNL     1      20.048  22.278 -12.525  1.00  0.00    -0.289 OA
ATOM     20  C   UNL     1      20.299  18.391 -15.196  1.00  0.00    -0.091 A 
ATOM     21  C   UNL     1      21.092  19.725 -12.967  1.00  0.00    -0.105 A 
ATOM     22  C   UNL     1      21.578  18.461 -13.233  1.00  0.00    -0.111 A 
ATOM     23  C   UNL     1      16.980  21.573 -17.650  1.00  0.00     0.046 C 
ATOM     24  O   UNL     1      16.861  25.512 -14.743  1.00  0.00    -0.872 OA
ATOM     25  O   UNL     1      19.872  17.745 -16.338  1.00  0.00    -0.872 OA
ATOM     26  O   UNL     1      21.480  20.435 -11.832  1.00  0.00    -0.872 OA
ATOM     27  O   UNL     1      22.478  17.846 -12.372  1.00  0.00    -0.873 OA
BRANCH   9  28
ATOM     28  C   UNL     1      15.990  24.211 -17.061  1.00  0.00     0.071 C 
ATOM     29  O   UNL     1      16.314  24.886 -18.055  1.00  0.00    -0.545 OA
ATOM     30  O   UNL     1      14.638  24.064 -16.756  1.00  0.00    -0.545 OA
ENDBRANCH   9  28
ENDBRANCH   1   7
BRANCH   6  31
ATOM     31  O   UNL     1      19.519  15.428 -14.344  1.00  0.00    -0.387 OA
ATOM     32  H   UNL     1      19.103  14.535 -14.419  1.00  0.00     0.211 HD
ENDBRANCH   6  31
BRANCH   3  33
ATOM     33  C   UNL     1      23.721  14.103 -12.804  1.00  0.00     0.191 C 
BRANCH  33  34
ATOM     34  O   UNL     1      24.206  13.003 -13.477  1.00  0.00    -0.394 OA
ATOM     35  H   UNL     1      23.849  12.144 -13.102  1.00  0.00     0.210 HD
ENDBRANCH  33  34
ENDBRANCH   3  33
BRANCH   5  36
ATOM     36  O   UNL     1      21.763  14.173 -16.769  1.00  0.00    -0.387 OA
ATOM     37  H   UNL     1      22.044  13.272 -17.053  1.00  0.00     0.211 HD
ENDBRANCH   5  36
BRANCH   4  38
ATOM     38  O   UNL     1      21.429  12.471 -13.856  1.00  0.00    -0.388 OA
ATOM     39  H   UNL     1      22.062  12.178 -13.126  1.00  0.00     0.211 HD
ENDBRANCH   4  38
TORSDOF 7
ENDMDL
MODEL 9
REMARK VINA RESULT:      -8.4      1.827      8.901
REMARK SMILES Cc1c(C(=O)[O-])c([O-])cc2c1C(=O)c1c([O-])c([C@H]3O[C@H](CO)[C@@H](O)[C@H](O)[C@H]3O)c([O-])c([O-])c1C2=O
REMARK SMILES IDX 18 1 19 2 20 3 23 4 25 5 27 6 17 7 2 8 3 9 11 10 7 11 10 12
REMARK SMILES IDX 12 13 9 14 34 15 13 16 14 17 33 18 35 19 15 20 31 21 29 22
REMARK SMILES IDX 1 23 8 24 16 25 32 26 30 27 4 28 5 29 6 30 28 31 21 33 22 34
REMARK SMILES IDX 26 36 24 38
REMARK H PARENT 28 32 22 35 26 37 24 39
ROOT
ATOM      1  C   UNL     1      17.304  22.744 -14.945  1.00  0.00     0.179 C 
ATOM      2  O   UNL     1      17.539  24.016 -14.548  1.00  0.00    -0.362 OA
ATOM      3  C   UNL     1      17.179  25.040 -15.330  1.00  0.00     0.176 C 
ATOM      4  C   UNL     1      16.021  24.861 -16.233  1.00  0.00     0.177 C 
ATOM      5  C   UNL     1      15.796  23.483 -16.735  1.00  0.00     0.177 C 
ATOM      6  C   UNL     1      16.921  22.566 -16.383  1.00  0.00     0.179 C 
ENDROOT
BRANCH   1   7
ATOM      7  C   UNL     1      18.402  21.793 -14.583  1.00  0.00    -0.032 A 
ATOM      8  C   UNL     1      20.476  15.956 -15.350  1.00  0.00    -0.031 A 
ATOM      9  C   UNL     1      21.479  15.065 -15.028  1.00  0.00    -0.007 A 
ATOM     10  C   UNL     1      20.464  17.259 -14.890  1.00  0.00     0.037 A 
ATOM     11  C   UNL     1      22.525  15.458 -14.219  1.00  0.00    -0.099 A 
ATOM     12  C   UNL     1      21.516  17.654 -14.077  1.00  0.00     0.033 A 
ATOM     13  C   UNL     1      19.410  18.212 -15.222  1.00  0.00     0.194 C 
ATOM     14  C   UNL     1      22.526  16.774 -13.745  1.00  0.00     0.005 A 
ATOM     15  C   UNL     1      21.518  19.027 -13.582  1.00  0.00     0.193 C 
ATOM     16  O   UNL     1      18.464  17.866 -15.952  1.00  0.00    -0.289 OA
ATOM     17  C   UNL     1      19.410  19.592 -14.728  1.00  0.00     0.026 A 
ATOM     18  C   UNL     1      20.457  19.980 -13.919  1.00  0.00     0.025 A 
ATOM     19  O   UNL     1      22.454  19.409 -12.847  1.00  0.00    -0.289 OA
ATOM     20  C   UNL     1      18.414  20.491 -15.042  1.00  0.00    -0.091 A 
ATOM     21  C   UNL     1      20.466  21.279 -13.448  1.00  0.00    -0.105 A 
ATOM     22  C   UNL     1      19.458  22.163 -13.775  1.00  0.00    -0.111 A 
ATOM     23  C   UNL     1      19.366  15.504 -16.222  1.00  0.00     0.046 C 
ATOM     24  O   UNL     1      23.561  14.586 -13.868  1.00  0.00    -0.872 OA
ATOM     25  O   UNL     1      17.388  20.053 -15.855  1.00  0.00    -0.872 OA
ATOM     26  O   UNL     1      21.533  21.653 -12.632  1.00  0.00    -0.872 OA
ATOM     27  O   UNL     1      19.470  23.468 -13.300  1.00  0.00    -0.873 OA
BRANCH   9  28
ATOM     28  C   UNL     1      21.486  13.689 -15.517  1.00  0.00     0.071 C 
ATOM     29  O   UNL     1      20.949  12.732 -14.930  1.00  0.00    -0.545 OA
ATOM     30  O   UNL     1      22.144  13.459 -16.723  1.00  0.00    -0.545 OA
ENDBRANCH   9  28
ENDBRANCH   1   7
BRANCH   6  31
ATOM     31  O   UNL     1      17.968  22.710 -17.266  1.00  0.00    -0.387 OA
ATOM     32  H   UNL     1      17.972  21.967 -17.917  1.00  0.00     0.211 HD
ENDBRANCH   6  31
BRANCH   3  33
ATOM     33  C   UNL     1      16.852  26.233 -14.416  1.00  0.00     0.191 C 
BRANCH  33  34
ATOM     34  O   UNL     1      15.701  26.878 -14.813  1.00  0.00    -0.394 OA
ATOM     35  H   UNL     1      14.879  26.344 -14.604  1.00  0.00     0.210 HD
ENDBRANCH  33  34
ENDBRANCH   3  33
BRANCH   5  36
ATOM     36  O   UNL     1      14.574  22.950 -16.313  1.00  0.00    -0.387 OA
ATOM     37  H   UNL     1      14.604  21.968 -16.232  1.00  0.00     0.211 HD
ENDBRANCH   5  36
BRANCH   4  38
ATOM     38  O   UNL     1      16.168  25.773 -17.305  1.00  0.00    -0.388 OA
ATOM     39  H   UNL     1      15.269  26.218 -17.425  1.00  0.00     0.211 HD
ENDBRANCH   4  38
TORSDOF 7
ENDMDL
