MODEL 1
REMARK VINA RESULT:      -7.8      0.000      0.000
REMARK SMILES COc1ccc(-c2cc(=O)c3ccccc3o2)cc1
REMARK SMILES IDX 3 1 4 2 5 3 6 4 18 5 19 6 2 7 1 8 7 9 8 10 17 11 9 12 16 13
REMARK SMILES IDX 10 14 11 15 15 16 12 17 14 18 13 19
REMARK H PARENT
ROOT
ATOM      1  C   UNL     1      22.595  12.436 -13.621  1.00  0.00     0.118 A 
ATOM      2  C   UNL     1      21.363  12.994 -13.871  1.00  0.00     0.047 A 
ATOM      3  C   UNL     1      21.116  14.355 -13.653  1.00  0.00     0.016 A 
ATOM      4  C   UNL     1      22.085  15.198 -13.179  1.00  0.00     0.018 A 
ATOM      5  C   UNL     1      23.323  14.615 -12.933  1.00  0.00     0.016 A 
ATOM      6  C   UNL     1      23.578  13.277 -13.145  1.00  0.00     0.047 A 
ENDROOT
BRANCH   1   7
ATOM      7  O   UNL     1      22.840  11.073 -13.840  1.00  0.00    -0.497 OA
ATOM      8  C   UNL     1      21.936  10.073 -13.448  1.00  0.00     0.278 C 
ENDBRANCH   1   7
BRANCH   4   9
ATOM      9  C   UNL     1      21.896  16.624 -12.930  1.00  0.00     0.138 A 
ATOM     10  C   UNL     1      21.281  17.097 -11.800  1.00  0.00     0.100 A 
ATOM     11  O   UNL     1      22.311  17.537 -13.783  1.00  0.00    -0.456 OA
ATOM     12  C   UNL     1      21.095  18.458 -11.550  1.00  0.00     0.193 A 
ATOM     13  C   UNL     1      22.167  18.829 -13.609  1.00  0.00     0.138 A 
ATOM     14  O   UNL     1      20.529  18.869 -10.509  1.00  0.00    -0.289 OA
ATOM     15  C   UNL     1      21.555  19.355 -12.487  1.00  0.00     0.065 A 
ATOM     16  C   UNL     1      22.640  19.733 -14.573  1.00  0.00     0.048 A 
ATOM     17  C   UNL     1      21.417  20.721 -12.331  1.00  0.00     0.016 A 
ATOM     18  C   UNL     1      22.508  21.077 -14.422  1.00  0.00     0.004 A 
ATOM     19  C   UNL     1      21.895  21.565 -13.300  1.00  0.00     0.001 A 
ENDBRANCH   4   9
TORSDOF 2
ENDMDL
MODEL 2
REMARK VINA RESULT:      -7.6      5.475      9.895
REMARK SMILES COc1ccc(-c2cc(=O)c3ccccc3o2)cc1
REMARK SMILES IDX 3 1 4 2 5 3 6 4 18 5 19 6 2 7 1 8 7 9 8 10 17 11 9 12 16 13
REMARK SMILES IDX 10 14 11 15 15 16 12 17 14 18 13 19
REMARK H PARENT
ROOT
ATOM      1  C   UNL     1      21.308  11.404 -14.896  1.00  0.00     0.118 A 
ATOM      2  C   UNL     1      20.735  10.184 -15.172  1.00  0.00     0.047 A 
ATOM      3  C   UNL     1      20.110   9.424 -14.176  1.00  0.00     0.016 A 
ATOM      4  C   UNL     1      20.037   9.855 -12.878  1.00  0.00     0.018 A 
ATOM      5  C   UNL     1      20.621  11.090 -12.619  1.00  0.00     0.016 A 
ATOM      6  C   UNL     1      21.239  11.847 -13.593  1.00  0.00     0.047 A 
ENDROOT
BRANCH   1   7
ATOM      7  O   UNL     1      21.933  12.162 -15.895  1.00  0.00    -0.497 OA
ATOM      8  C   UNL     1      22.575  13.380 -15.625  1.00  0.00     0.278 C 
ENDBRANCH   1   7
BRANCH   4   9
ATOM      9  C   UNL     1      19.401   9.115 -11.792  1.00  0.00     0.138 A 
ATOM     10  C   UNL     1      18.056   9.193 -11.539  1.00  0.00     0.100 A 
ATOM     11  O   UNL     1      20.091   8.328 -10.993  1.00  0.00    -0.456 OA
ATOM     12  C   UNL     1      17.437   8.490 -10.504  1.00  0.00     0.193 A 
ATOM     13  C   UNL     1      19.573   7.642 -10.004  1.00  0.00     0.138 A 
ATOM     14  O   UNL     1      16.204   8.575 -10.290  1.00  0.00    -0.289 OA
ATOM     15  C   UNL     1      18.223   7.687  -9.709  1.00  0.00     0.065 A 
ATOM     16  C   UNL     1      20.384   6.827  -9.200  1.00  0.00     0.048 A 
ATOM     17  C   UNL     1      17.703   6.953  -8.660  1.00  0.00     0.016 A 
ATOM     18  C   UNL     1      19.878   6.103  -8.168  1.00  0.00     0.004 A 
ATOM     19  C   UNL     1      18.536   6.170  -7.903  1.00  0.00     0.001 A 
ENDBRANCH   4   9
TORSDOF 2
ENDMDL
MODEL 3
REMARK VINA RESULT:      -7.5      5.780      9.930
REMARK SMILES COc1ccc(-c2cc(=O)c3ccccc3o2)cc1
REMARK SMILES IDX 3 1 4 2 5 3 6 4 18 5 19 6 2 7 1 8 7 9 8 10 17 11 9 12 16 13
REMARK SMILES IDX 10 14 11 15 15 16 12 17 14 18 13 19
REMARK H PARENT
ROOT
ATOM      1  C   UNL     1      21.108  11.353 -15.031  1.00  0.00     0.118 A 
ATOM      2  C   UNL     1      21.197  11.827 -13.743  1.00  0.00     0.047 A 
ATOM      3  C   UNL     1      20.634  11.133 -12.665  1.00  0.00     0.016 A 
ATOM      4  C   UNL     1      19.966   9.950 -12.837  1.00  0.00     0.018 A 
ATOM      5  C   UNL     1      19.887   9.488 -14.146  1.00  0.00     0.016 A 
ATOM      6  C   UNL     1      20.439  10.162 -15.215  1.00  0.00     0.047 A 
ENDROOT
BRANCH   1   7
ATOM      7  O   UNL     1      21.674  12.049 -16.108  1.00  0.00    -0.497 OA
ATOM      8  C   UNL     1      22.688  13.004 -15.938  1.00  0.00     0.278 C 
ENDBRANCH   1   7
BRANCH   4   9
ATOM      9  C   UNL     1      19.356   9.176 -11.760  1.00  0.00     0.138 A 
ATOM     10  C   UNL     1      18.014   9.231 -11.486  1.00  0.00     0.100 A 
ATOM     11  O   UNL     1      20.068   8.379 -10.991  1.00  0.00    -0.456 OA
ATOM     12  C   UNL     1      17.419   8.495 -10.458  1.00  0.00     0.193 A 
ATOM     13  C   UNL     1      19.572   7.663 -10.011  1.00  0.00     0.138 A 
ATOM     14  O   UNL     1      16.189   8.559 -10.225  1.00  0.00    -0.289 OA
ATOM     15  C   UNL     1      18.227   7.682  -9.696  1.00  0.00     0.065 A 
ATOM     16  C   UNL     1      20.406   6.838  -9.240  1.00  0.00     0.048 A 
ATOM     17  C   UNL     1      17.732   6.917  -8.657  1.00  0.00     0.016 A 
ATOM     18  C   UNL     1      19.924   6.083  -8.219  1.00  0.00     0.004 A 
ATOM     19  C   UNL     1      18.586   6.126  -7.932  1.00  0.00     0.001 A 
ENDBRANCH   4   9
TORSDOF 2
ENDMDL
MODEL 4
REMARK VINA RESULT:      -7.4      1.427      7.068
REMARK SMILES COc1ccc(-c2cc(=O)c3ccccc3o2)cc1
REMARK SMILES IDX 3 1 4 2 5 3 6 4 18 5 19 6 2 7 1 8 7 9 8 10 17 11 9 12 16 13
REMARK SMILES IDX 10 14 11 15 15 16 12 17 14 18 13 19
REMARK H PARENT
ROOT
ATOM      1  C   UNL     1      21.607  19.881 -12.308  1.00  0.00     0.118 A 
ATOM      2  C   UNL     1      21.975  19.441 -13.558  1.00  0.00     0.047 A 
ATOM      3  C   UNL     1      22.146  18.079 -13.836  1.00  0.00     0.016 A 
ATOM      4  C   UNL     1      21.957  17.118 -12.880  1.00  0.00     0.018 A 
ATOM      5  C   UNL     1      21.585  17.583 -11.623  1.00  0.00     0.016 A 
ATOM      6  C   UNL     1      21.413  18.921 -11.338  1.00  0.00     0.047 A 
ENDROOT
BRANCH   1   7
ATOM      7  O   UNL     1      21.436  21.245 -12.032  1.00  0.00    -0.497 OA
ATOM      8  C   UNL     1      20.631  22.078 -12.825  1.00  0.00     0.278 C 
ENDBRANCH   1   7
BRANCH   4   9
ATOM      9  C   UNL     1      22.118  15.683 -13.101  1.00  0.00     0.138 A 
ATOM     10  C   UNL     1      23.277  15.019 -12.795  1.00  0.00     0.100 A 
ATOM     11  O   UNL     1      21.151  14.948 -13.607  1.00  0.00    -0.456 OA
ATOM     12  C   UNL     1      23.442  13.648 -13.002  1.00  0.00     0.193 A 
ATOM     13  C   UNL     1      21.241  13.659 -13.826  1.00  0.00     0.138 A 
ATOM     14  O   UNL     1      24.512  13.059 -12.715  1.00  0.00    -0.289 OA
ATOM     15  C   UNL     1      22.387  12.944 -13.535  1.00  0.00     0.065 A 
ATOM     16  C   UNL     1      20.158  12.952 -14.371  1.00  0.00     0.048 A 
ATOM     17  C   UNL     1      22.454  11.585 -13.777  1.00  0.00     0.016 A 
ATOM     18  C   UNL     1      20.219  11.616 -14.609  1.00  0.00     0.004 A 
ATOM     19  C   UNL     1      21.369  10.938 -14.311  1.00  0.00     0.001 A 
ENDBRANCH   4   9
TORSDOF 2
ENDMDL
MODEL 5
REMARK VINA RESULT:      -7.4      1.549      7.108
REMARK SMILES COc1ccc(-c2cc(=O)c3ccccc3o2)cc1
REMARK SMILES IDX 3 1 4 2 5 3 6 4 18 5 19 6 2 7 1 8 7 9 8 10 17 11 9 12 16 13
REMARK SMILES IDX 10 14 11 15 15 16 12 17 14 18 13 19
REMARK H PARENT
ROOT
ATOM      1  C   UNL     1      21.882  19.728 -13.345  1.00  0.00     0.118 A 
ATOM      2  C   UNL     1      21.771  19.002 -12.181  1.00  0.00     0.047 A 
ATOM      3  C   UNL     1      21.888  17.607 -12.172  1.00  0.00     0.016 A 
ATOM      4  C   UNL     1      22.116  16.894 -13.318  1.00  0.00     0.018 A 
ATOM      5  C   UNL     1      22.226  17.645 -14.484  1.00  0.00     0.016 A 
ATOM      6  C   UNL     1      22.114  19.019 -14.504  1.00  0.00     0.047 A 
ENDROOT
BRANCH   1   7
ATOM      7  O   UNL     1      21.766  21.124 -13.351  1.00  0.00    -0.497 OA
ATOM      8  C   UNL     1      21.129  21.832 -12.319  1.00  0.00     0.278 C 
ENDBRANCH   1   7
BRANCH   4   9
ATOM      9  C   UNL     1      22.248  15.441 -13.381  1.00  0.00     0.138 A 
ATOM     10  C   UNL     1      23.364  14.785 -12.928  1.00  0.00     0.100 A 
ATOM     11  O   UNL     1      21.296  14.680 -13.877  1.00  0.00    -0.456 OA
ATOM     12  C   UNL     1      23.500  13.396 -12.982  1.00  0.00     0.193 A 
ATOM     13  C   UNL     1      21.361  13.374 -13.957  1.00  0.00     0.138 A 
ATOM     14  O   UNL     1      24.530  12.816 -12.562  1.00  0.00    -0.289 OA
ATOM     15  C   UNL     1      22.463  12.666 -13.515  1.00  0.00     0.065 A 
ATOM     16  C   UNL     1      20.297  12.639 -14.503  1.00  0.00     0.048 A 
ATOM     17  C   UNL     1      22.505  11.288 -13.611  1.00  0.00     0.016 A 
ATOM     18  C   UNL     1      20.333  11.285 -14.599  1.00  0.00     0.004 A 
ATOM     19  C   UNL     1      21.440  10.614 -14.152  1.00  0.00     0.001 A 
ENDBRANCH   4   9
TORSDOF 2
ENDMDL
MODEL 6
REMARK VINA RESULT:      -7.3      2.307      2.995
REMARK SMILES COc1ccc(-c2cc(=O)c3ccccc3o2)cc1
REMARK SMILES IDX 3 1 4 2 5 3 6 4 18 5 19 6 2 7 1 8 7 9 8 10 17 11 9 12 16 13
REMARK SMILES IDX 10 14 11 15 15 16 12 17 14 18 13 19
REMARK H PARENT
ROOT
ATOM      1  C   UNL     1      23.247  14.820 -13.336  1.00  0.00     0.118 A 
ATOM      2  C   UNL     1      22.877  15.454 -12.173  1.00  0.00     0.047 A 
ATOM      3  C   UNL     1      22.259  16.710 -12.187  1.00  0.00     0.016 A 
ATOM      4  C   UNL     1      21.991  17.371 -13.356  1.00  0.00     0.018 A 
ATOM      5  C   UNL     1      22.373  16.713 -14.520  1.00  0.00     0.016 A 
ATOM      6  C   UNL     1      22.982  15.476 -14.518  1.00  0.00     0.047 A 
ENDROOT
BRANCH   1   7
ATOM      7  O   UNL     1      23.866  13.563 -13.319  1.00  0.00    -0.497 OA
ATOM      8  C   UNL     1      23.176  12.388 -12.981  1.00  0.00     0.278 C 
ENDBRANCH   1   7
BRANCH   4   9
ATOM      9  C   UNL     1      21.350  18.680 -13.443  1.00  0.00     0.138 A 
ATOM     10  C   UNL     1      21.643  19.700 -12.575  1.00  0.00     0.100 A 
ATOM     11  O   UNL     1      20.452  18.951 -14.366  1.00  0.00    -0.456 OA
ATOM     12  C   UNL     1      21.036  20.956 -12.648  1.00  0.00     0.193 A 
ATOM     13  C   UNL     1      19.846  20.107 -14.490  1.00  0.00     0.138 A 
ATOM     14  O   UNL     1      21.319  21.875 -11.844  1.00  0.00    -0.289 OA
ATOM     15  C   UNL     1      20.106  21.166 -13.641  1.00  0.00     0.065 A 
ATOM     16  C   UNL     1      18.899  20.309 -15.506  1.00  0.00     0.048 A 
ATOM     17  C   UNL     1      19.453  22.374 -13.794  1.00  0.00     0.016 A 
ATOM     18  C   UNL     1      18.255  21.495 -15.661  1.00  0.00     0.004 A 
ATOM     19  C   UNL     1      18.535  22.523 -14.802  1.00  0.00     0.001 A 
ENDBRANCH   4   9
TORSDOF 2
ENDMDL
MODEL 7
REMARK VINA RESULT:      -7.3      5.953     10.252
REMARK SMILES COc1ccc(-c2cc(=O)c3ccccc3o2)cc1
REMARK SMILES IDX 3 1 4 2 5 3 6 4 18 5 19 6 2 7 1 8 7 9 8 10 17 11 9 12 16 13
REMARK SMILES IDX 10 14 11 15 15 16 12 17 14 18 13 19
REMARK H PARENT
ROOT
ATOM      1  C   UNL     1      21.111  10.865 -14.628  1.00  0.00     0.118 A 
ATOM      2  C   UNL     1      21.204  11.378 -13.355  1.00  0.00     0.047 A 
ATOM      3  C   UNL     1      20.708  10.683 -12.245  1.00  0.00     0.016 A 
ATOM      4  C   UNL     1      20.105   9.460 -12.369  1.00  0.00     0.018 A 
ATOM      5  C   UNL     1      20.021   8.958 -13.664  1.00  0.00     0.016 A 
ATOM      6  C   UNL     1      20.507   9.633 -14.763  1.00  0.00     0.047 A 
ENDROOT
BRANCH   1   7
ATOM      7  O   UNL     1      21.609  11.562 -15.736  1.00  0.00    -0.497 OA
ATOM      8  C   UNL     1      22.513  12.629 -15.611  1.00  0.00     0.278 C 
ENDBRANCH   1   7
BRANCH   4   9
ATOM      9  C   UNL     1      19.567   8.682 -11.257  1.00  0.00     0.138 A 
ATOM     10  C   UNL     1      20.365   7.934 -10.430  1.00  0.00     0.100 A 
ATOM     11  O   UNL     1      18.279   8.659 -10.988  1.00  0.00    -0.456 OA
ATOM     12  C   UNL     1      19.862   7.187  -9.363  1.00  0.00     0.193 A 
ATOM     13  C   UNL     1      17.743   7.979 -10.004  1.00  0.00     0.138 A 
ATOM     14  O   UNL     1      20.610   6.510  -8.618  1.00  0.00    -0.289 OA
ATOM     15  C   UNL     1      18.504   7.211  -9.142  1.00  0.00     0.065 A 
ATOM     16  C   UNL     1      16.356   8.010  -9.789  1.00  0.00     0.048 A 
ATOM     17  C   UNL     1      17.911   6.504  -8.113  1.00  0.00     0.016 A 
ATOM     18  C   UNL     1      15.770   7.318  -8.778  1.00  0.00     0.004 A 
ATOM     19  C   UNL     1      16.552   6.566  -7.943  1.00  0.00     0.001 A 
ENDBRANCH   4   9
TORSDOF 2
ENDMDL
MODEL 8
REMARK VINA RESULT:      -7.1      1.128      2.234
REMARK SMILES COc1ccc(-c2cc(=O)c3ccccc3o2)cc1
REMARK SMILES IDX 3 1 4 2 5 3 6 4 18 5 19 6 2 7 1 8 7 9 8 10 17 11 9 12 16 13
REMARK SMILES IDX 10 14 11 15 15 16 12 17 14 18 13 19
REMARK H PARENT
ROOT
ATOM      1  C   UNL     1      22.390  12.601 -13.407  1.00  0.00     0.118 A 
ATOM      2  C   UNL     1      21.275  13.273 -12.962  1.00  0.00     0.047 A 
ATOM      3  C   UNL     1      21.163  14.664 -13.072  1.00  0.00     0.016 A 
ATOM      4  C   UNL     1      22.156  15.426 -13.626  1.00  0.00     0.018 A 
ATOM      5  C   UNL     1      23.274  14.729 -14.070  1.00  0.00     0.016 A 
ATOM      6  C   UNL     1      23.394  13.360 -13.967  1.00  0.00     0.047 A 
ENDROOT
BRANCH   1   7
ATOM      7  O   UNL     1      22.499  11.208 -13.295  1.00  0.00    -0.497 OA
ATOM      8  C   UNL     1      21.494  10.336 -13.744  1.00  0.00     0.278 C 
ENDBRANCH   1   7
BRANCH   4   9
ATOM      9  C   UNL     1      22.105  16.879 -13.772  1.00  0.00     0.138 A 
ATOM     10  C   UNL     1      22.388  17.507 -14.957  1.00  0.00     0.100 A 
ATOM     11  O   UNL     1      21.782  17.665 -12.767  1.00  0.00    -0.456 OA
ATOM     12  C   UNL     1      22.343  18.895 -15.108  1.00  0.00     0.193 A 
ATOM     13  C   UNL     1      21.721  18.972 -12.842  1.00  0.00     0.138 A 
ATOM     14  O   UNL     1      22.605  19.450 -16.202  1.00  0.00    -0.289 OA
ATOM     15  C   UNL     1      21.996  19.653 -14.013  1.00  0.00     0.065 A 
ATOM     16  C   UNL     1      21.367  19.734 -11.718  1.00  0.00     0.048 A 
ATOM     17  C   UNL     1      21.924  21.032 -14.064  1.00  0.00     0.016 A 
ATOM     18  C   UNL     1      21.294  21.089 -11.764  1.00  0.00     0.004 A 
ATOM     19  C   UNL     1      21.574  21.733 -12.939  1.00  0.00     0.001 A 
ENDBRANCH   4   9
TORSDOF 2
ENDMDL
MODEL 9
REMARK VINA RESULT:      -7.1      1.411      2.529
REMARK SMILES COc1ccc(-c2cc(=O)c3ccccc3o2)cc1
REMARK SMILES IDX 3 1 4 2 5 3 6 4 18 5 19 6 2 7 1 8 7 9 8 10 17 11 9 12 16 13
REMARK SMILES IDX 10 14 11 15 15 16 12 17 14 18 13 19
REMARK H PARENT
ROOT
ATOM      1  C   UNL     1      21.885  11.145 -13.401  1.00  0.00     0.118 A 
ATOM      2  C   UNL     1      20.894  11.877 -12.789  1.00  0.00     0.047 A 
ATOM      3  C   UNL     1      20.897  13.277 -12.808  1.00  0.00     0.016 A 
ATOM      4  C   UNL     1      21.884  13.988 -13.435  1.00  0.00     0.018 A 
ATOM      5  C   UNL     1      22.876  13.231 -14.048  1.00  0.00     0.016 A 
ATOM      6  C   UNL     1      22.883  11.852 -14.036  1.00  0.00     0.047 A 
ENDROOT
BRANCH   1   7
ATOM      7  O   UNL     1      21.879   9.744 -13.381  1.00  0.00    -0.497 OA
ATOM      8  C   UNL     1      21.005   8.983 -14.173  1.00  0.00     0.278 C 
ENDBRANCH   1   7
BRANCH   4   9
ATOM      9  C   UNL     1      21.949  15.446 -13.493  1.00  0.00     0.138 A 
ATOM     10  C   UNL     1      22.335  16.119 -14.623  1.00  0.00     0.100 A 
ATOM     11  O   UNL     1      21.637  16.195 -12.457  1.00  0.00    -0.456 OA
ATOM     12  C   UNL     1      22.400  17.512 -14.691  1.00  0.00     0.193 A 
ATOM     13  C   UNL     1      21.677  17.505 -12.454  1.00  0.00     0.138 A 
ATOM     14  O   UNL     1      22.756  18.108 -15.736  1.00  0.00    -0.289 OA
ATOM     15  C   UNL     1      22.059  18.230 -13.568  1.00  0.00     0.065 A 
ATOM     16  C   UNL     1      21.328  18.226 -11.302  1.00  0.00     0.048 A 
ATOM     17  C   UNL     1      22.093  19.611 -13.536  1.00  0.00     0.016 A 
ATOM     18  C   UNL     1      21.358  19.583 -11.267  1.00  0.00     0.004 A 
ATOM     19  C   UNL     1      21.742  20.271 -12.387  1.00  0.00     0.001 A 
ENDBRANCH   4   9
TORSDOF 2
ENDMDL
