MODEL 1
REMARK VINA RESULT:      -5.5      0.000      0.000
REMARK SMILES O=C1NCN(c2ccccc2)C12CC[NH+](CCCC(c1ccc(F)cc1)c1ccc(F)cc1)CC2
REMARK SMILES IDX 17 1 16 2 15 3 1 4 2 5 3 6 12 7 4 8 5 9 13 10 35 11 14 12
REMARK SMILES IDX 34 13 6 16 7 17 11 18 8 19 10 20 9 21 18 22 19 23 20 24
REMARK SMILES IDX 21 25 26 26 22 27 25 28 23 29 24 30 27 31 28 32 33 33 29 34
REMARK SMILES IDX 32 35 30 36 31 37
REMARK H PARENT 3 14 15 15
ROOT
ATOM      1  C   UNL     1       1.784  25.444  17.747  1.00  0.00     0.062 C 
ENDROOT
BRANCH   1   2
ATOM      2  C   UNL     1       1.379  26.676  16.992  1.00  0.00     0.262 C 
BRANCH   2   3
ATOM      3  N   UNL     1       2.319  26.931  15.906  1.00  0.00    -0.335 N 
ATOM      4  O   UNL     1       2.876  26.798  12.728  1.00  0.00    -0.272 OA
ATOM      5  C   UNL     1       4.083  26.997  12.978  1.00  0.00     0.247 C 
ATOM      6  N   UNL     1       5.093  27.073  12.003  1.00  0.00    -0.336 N 
ATOM      7  C   UNL     1       4.671  27.192  14.357  1.00  0.00     0.131 C 
ATOM      8  C   UNL     1       6.190  27.753  12.617  1.00  0.00     0.238 C 
ATOM      9  N   UNL     1       6.083  27.390  14.038  1.00  0.00    -0.339 N 
ATOM     10  C   UNL     1       4.437  25.932  15.166  1.00  0.00     0.100 C 
ATOM     11  C   UNL     1       4.014  28.378  14.966  1.00  0.00     0.100 C 
ATOM     12  C   UNL     1       2.967  25.722  15.443  1.00  0.00     0.265 C 
ATOM     13  C   UNL     1       3.263  27.979  16.194  1.00  0.00     0.265 C 
ATOM     14  H   UNL     1       5.027  26.695  11.020  1.00  0.00     0.165 HD
ATOM     15  H   UNL     1       1.715  27.268  15.124  1.00  0.00     0.348 HD
BRANCH   9  16
ATOM     16  C   UNL     1       7.238  27.268  14.852  1.00  0.00     0.039 A 
ATOM     17  C   UNL     1       8.157  26.268  14.635  1.00  0.00     0.026 A 
ATOM     18  C   UNL     1       7.456  28.164  15.853  1.00  0.00     0.026 A 
ATOM     19  C   UNL     1       9.309  26.151  15.418  1.00  0.00     0.002 A 
ATOM     20  C   UNL     1       8.577  28.067  16.631  1.00  0.00     0.002 A 
ATOM     21  C   UNL     1       9.500  27.075  16.423  1.00  0.00     0.000 A 
ENDBRANCH   9  16
ENDBRANCH   2   3
ENDBRANCH   1   2
BRANCH   1  22
ATOM     22  C   UNL     1       2.077  25.602  19.176  1.00  0.00     0.019 C 
BRANCH  22  23
ATOM     23  C   UNL     1       3.282  25.070  19.798  1.00  0.00     0.049 C 
BRANCH  23  24
ATOM     24  C   UNL     1       3.065  23.954  20.787  1.00  0.00    -0.040 A 
ATOM     25  C   UNL     1       4.167  23.541  21.502  1.00  0.00     0.007 A 
ATOM     26  C   UNL     1       1.850  23.348  20.962  1.00  0.00     0.007 A 
ATOM     27  C   UNL     1       4.057  22.514  22.405  1.00  0.00     0.039 A 
ATOM     28  C   UNL     1       1.744  22.324  21.864  1.00  0.00     0.039 A 
ATOM     29  C   UNL     1       2.849  21.887  22.605  1.00  0.00     0.123 A 
ATOM     30  F   UNL     1       2.752  20.871  23.500  1.00  0.00    -0.207 F 
ENDBRANCH  23  24
BRANCH  23  31
ATOM     31  C   UNL     1       4.483  24.835  19.014  1.00  0.00    -0.040 A 
ATOM     32  C   UNL     1       5.539  25.689  18.861  1.00  0.00     0.007 A 
ATOM     33  C   UNL     1       4.532  23.606  18.344  1.00  0.00     0.007 A 
ATOM     34  C   UNL     1       6.610  25.301  18.047  1.00  0.00     0.039 A 
ATOM     35  C   UNL     1       5.565  23.218  17.554  1.00  0.00     0.039 A 
ATOM     36  C   UNL     1       6.621  24.087  17.406  1.00  0.00     0.123 A 
ATOM     37  F   UNL     1       7.649  23.686  16.612  1.00  0.00    -0.207 F 
ENDBRANCH  23  31
ENDBRANCH  22  23
ENDBRANCH   1  22
TORSDOF 7
ENDMDL
MODEL 2
REMARK VINA RESULT:      -5.3      2.823      5.011
REMARK SMILES O=C1NCN(c2ccccc2)C12CC[NH+](CCCC(c1ccc(F)cc1)c1ccc(F)cc1)CC2
REMARK SMILES IDX 17 1 16 2 15 3 1 4 2 5 3 6 12 7 4 8 5 9 13 10 35 11 14 12
REMARK SMILES IDX 34 13 6 16 7 17 11 18 8 19 10 20 9 21 18 22 19 23 20 24
REMARK SMILES IDX 21 25 26 26 22 27 25 28 23 29 24 30 27 31 28 32 33 33 29 34
REMARK SMILES IDX 32 35 30 36 31 37
REMARK H PARENT 3 14 15 15
ROOT
ATOM      1  C   UNL     1       2.321  24.341  19.118  1.00  0.00     0.062 C 
ENDROOT
BRANCH   1   2
ATOM      2  C   UNL     1       3.125  24.020  17.893  1.00  0.00     0.262 C 
BRANCH   2   3
ATOM      3  N   UNL     1       4.286  24.899  17.808  1.00  0.00    -0.335 N 
ATOM      4  O   UNL     1       5.415  27.915  18.051  1.00  0.00    -0.272 OA
ATOM      5  C   UNL     1       6.461  27.518  17.497  1.00  0.00     0.247 C 
ATOM      6  N   UNL     1       7.564  28.339  17.204  1.00  0.00    -0.336 N 
ATOM      7  C   UNL     1       6.730  26.101  17.045  1.00  0.00     0.131 C 
ATOM      8  C   UNL     1       8.678  27.463  17.024  1.00  0.00     0.238 C 
ATOM      9  N   UNL     1       8.078  26.228  16.495  1.00  0.00    -0.339 N 
ATOM     10  C   UNL     1       5.712  25.727  15.987  1.00  0.00     0.100 C 
ATOM     11  C   UNL     1       6.644  25.221  18.241  1.00  0.00     0.100 C 
ATOM     12  C   UNL     1       4.319  25.647  16.568  1.00  0.00     0.265 C 
ATOM     13  C   UNL     1       5.534  24.235  18.077  1.00  0.00     0.265 C 
ATOM     14  H   UNL     1       7.545  29.393  17.138  1.00  0.00     0.165 HD
ATOM     15  H   UNL     1       4.135  25.592  18.574  1.00  0.00     0.348 HD
BRANCH   9  16
ATOM     16  C   UNL     1       8.788  25.396  15.593  1.00  0.00     0.039 A 
ATOM     17  C   UNL     1       9.045  24.080  15.894  1.00  0.00     0.026 A 
ATOM     18  C   UNL     1       9.205  25.898  14.398  1.00  0.00     0.026 A 
ATOM     19  C   UNL     1       9.726  23.245  15.003  1.00  0.00     0.002 A 
ATOM     20  C   UNL     1       9.873  25.098  13.513  1.00  0.00     0.002 A 
ATOM     21  C   UNL     1      10.135  23.784  13.802  1.00  0.00     0.000 A 
ENDBRANCH   9  16
ENDBRANCH   2   3
ENDBRANCH   1   2
BRANCH   1  22
ATOM     22  C   UNL     1       2.916  24.002  20.416  1.00  0.00     0.019 C 
BRANCH  22  23
ATOM     23  C   UNL     1       2.365  22.980  21.295  1.00  0.00     0.049 C 
BRANCH  23  24
ATOM     24  C   UNL     1       3.342  22.344  22.248  1.00  0.00    -0.040 A 
ATOM     25  C   UNL     1       4.488  23.056  22.523  1.00  0.00     0.007 A 
ATOM     26  C   UNL     1       3.134  21.110  22.805  1.00  0.00     0.007 A 
ATOM     27  C   UNL     1       5.439  22.534  23.364  1.00  0.00     0.039 A 
ATOM     28  C   UNL     1       4.084  20.593  23.643  1.00  0.00     0.039 A 
ATOM     29  C   UNL     1       5.258  21.297  23.939  1.00  0.00     0.123 A 
ATOM     30  F   UNL     1       6.205  20.791  24.769  1.00  0.00    -0.207 F 
ENDBRANCH  23  24
BRANCH  23  31
ATOM     31  C   UNL     1       1.072  23.166  21.933  1.00  0.00    -0.040 A 
ATOM     32  C   UNL     1      -0.057  22.423  21.727  1.00  0.00     0.007 A 
ATOM     33  C   UNL     1       0.997  24.234  22.837  1.00  0.00     0.007 A 
ATOM     34  C   UNL     1      -1.226  22.761  22.420  1.00  0.00     0.039 A 
ATOM     35  C   UNL     1      -0.129  24.570  23.515  1.00  0.00     0.039 A 
ATOM     36  C   UNL     1      -1.258  23.815  23.297  1.00  0.00     0.123 A 
ATOM     37  F   UNL     1      -2.380  24.163  23.984  1.00  0.00    -0.207 F 
ENDBRANCH  23  31
ENDBRANCH  22  23
ENDBRANCH   1  22
TORSDOF 7
ENDMDL
MODEL 3
REMARK VINA RESULT:      -5.3      0.721      1.078
REMARK SMILES O=C1NCN(c2ccccc2)C12CC[NH+](CCCC(c1ccc(F)cc1)c1ccc(F)cc1)CC2
REMARK SMILES IDX 17 1 16 2 15 3 1 4 2 5 3 6 12 7 4 8 5 9 13 10 35 11 14 12
REMARK SMILES IDX 34 13 6 16 7 17 11 18 8 19 10 20 9 21 18 22 19 23 20 24
REMARK SMILES IDX 21 25 26 26 22 27 25 28 23 29 24 30 27 31 28 32 33 33 29 34
REMARK SMILES IDX 32 35 30 36 31 37
REMARK H PARENT 3 14 15 15
ROOT
ATOM      1  C   UNL     1       1.514  25.130  18.381  1.00  0.00     0.062 C 
ENDROOT
BRANCH   1   2
ATOM      2  C   UNL     1       1.074  26.425  17.764  1.00  0.00     0.262 C 
BRANCH   2   3
ATOM      3  N   UNL     1       1.854  26.700  16.562  1.00  0.00    -0.335 N 
ATOM      4  O   UNL     1       2.036  26.462  13.347  1.00  0.00    -0.272 OA
ATOM      5  C   UNL     1       3.245  26.763  13.440  1.00  0.00     0.247 C 
ATOM      6  N   UNL     1       4.122  26.869  12.347  1.00  0.00    -0.336 N 
ATOM      7  C   UNL     1       3.976  27.064  14.728  1.00  0.00     0.131 C 
ATOM      8  C   UNL     1       5.226  27.656  12.796  1.00  0.00     0.238 C 
ATOM      9  N   UNL     1       5.320  27.352  14.232  1.00  0.00    -0.339 N 
ATOM     10  C   UNL     1       3.941  25.829  15.606  1.00  0.00     0.100 C 
ATOM     11  C   UNL     1       3.304  28.225  15.370  1.00  0.00     0.100 C 
ATOM     12  C   UNL     1       2.536  25.522  16.069  1.00  0.00     0.265 C 
ATOM     13  C   UNL     1       2.739  27.827  16.694  1.00  0.00     0.265 C 
ATOM     14  H   UNL     1       3.969  26.442  11.393  1.00  0.00     0.165 HD
ATOM     15  H   UNL     1       1.137  26.954  15.848  1.00  0.00     0.348 HD
BRANCH   9  16
ATOM     16  C   UNL     1       6.569  27.354  14.902  1.00  0.00     0.039 A 
ATOM     17  C   UNL     1       7.614  26.580  14.457  1.00  0.00     0.026 A 
ATOM     18  C   UNL     1       6.750  28.150  15.991  1.00  0.00     0.026 A 
ATOM     19  C   UNL     1       8.857  26.590  15.098  1.00  0.00     0.002 A 
ATOM     20  C   UNL     1       7.957  28.174  16.633  1.00  0.00     0.002 A 
ATOM     21  C   UNL     1       9.006  27.406  16.198  1.00  0.00     0.000 A 
ENDBRANCH   9  16
ENDBRANCH   2   3
ENDBRANCH   1   2
BRANCH   1  22
ATOM     22  C   UNL     1       1.947  25.170  19.782  1.00  0.00     0.019 C 
BRANCH  22  23
ATOM     23  C   UNL     1       3.236  24.657  20.225  1.00  0.00     0.049 C 
BRANCH  23  24
ATOM     24  C   UNL     1       3.181  23.541  21.236  1.00  0.00    -0.040 A 
ATOM     25  C   UNL     1       4.334  23.296  21.948  1.00  0.00     0.007 A 
ATOM     26  C   UNL     1       2.060  22.780  21.435  1.00  0.00     0.007 A 
ATOM     27  C   UNL     1       4.372  22.281  22.870  1.00  0.00     0.039 A 
ATOM     28  C   UNL     1       2.102  21.769  22.356  1.00  0.00     0.039 A 
ATOM     29  C   UNL     1       3.261  21.499  23.093  1.00  0.00     0.123 A 
ATOM     30  F   UNL     1       3.310  20.498  24.008  1.00  0.00    -0.207 F 
ENDBRANCH  23  24
BRANCH  23  31
ATOM     31  C   UNL     1       4.316  24.437  19.276  1.00  0.00    -0.040 A 
ATOM     32  C   UNL     1       4.493  23.341  18.480  1.00  0.00     0.007 A 
ATOM     33  C   UNL     1       5.268  25.462  19.202  1.00  0.00     0.007 A 
ATOM     34  C   UNL     1       5.609  23.292  17.635  1.00  0.00     0.039 A 
ATOM     35  C   UNL     1       6.352  25.427  18.387  1.00  0.00     0.039 A 
ATOM     36  C   UNL     1       6.520  24.317  17.591  1.00  0.00     0.123 A 
ATOM     37  F   UNL     1       7.611  24.295  16.779  1.00  0.00    -0.207 F 
ENDBRANCH  23  31
ENDBRANCH  22  23
ENDBRANCH   1  22
TORSDOF 7
ENDMDL
MODEL 4
REMARK VINA RESULT:      -5.3      2.773      4.907
REMARK SMILES O=C1NCN(c2ccccc2)C12CC[NH+](CCCC(c1ccc(F)cc1)c1ccc(F)cc1)CC2
REMARK SMILES IDX 17 1 16 2 15 3 1 4 2 5 3 6 12 7 4 8 5 9 13 10 35 11 14 12
REMARK SMILES IDX 34 13 6 16 7 17 11 18 8 19 10 20 9 21 18 22 19 23 20 24
REMARK SMILES IDX 21 25 26 26 22 27 25 28 23 29 24 30 27 31 28 32 33 33 29 34
REMARK SMILES IDX 32 35 30 36 31 37
REMARK H PARENT 3 14 15 15
ROOT
ATOM      1  C   UNL     1       3.877  23.524  19.312  1.00  0.00     0.062 C 
ENDROOT
BRANCH   1   2
ATOM      2  C   UNL     1       3.456  24.353  18.135  1.00  0.00     0.262 C 
BRANCH   2   3
ATOM      3  N   UNL     1       4.525  25.271  17.758  1.00  0.00    -0.335 N 
ATOM      4  O   UNL     1       5.385  28.330  17.185  1.00  0.00    -0.272 OA
ATOM      5  C   UNL     1       6.433  27.890  16.670  1.00  0.00     0.247 C 
ATOM      6  N   UNL     1       7.440  28.695  16.110  1.00  0.00    -0.336 N 
ATOM      7  C   UNL     1       6.808  26.430  16.556  1.00  0.00     0.131 C 
ATOM      8  C   UNL     1       8.619  27.889  16.068  1.00  0.00     0.238 C 
ATOM      9  N   UNL     1       8.108  26.520  15.896  1.00  0.00    -0.339 N 
ATOM     10  C   UNL     1       5.775  25.730  15.695  1.00  0.00     0.100 C 
ATOM     11  C   UNL     1       6.863  25.868  17.931  1.00  0.00     0.100 C 
ATOM     12  C   UNL     1       4.427  25.690  16.376  1.00  0.00     0.265 C 
ATOM     13  C   UNL     1       5.841  24.790  18.090  1.00  0.00     0.265 C 
ATOM     14  H   UNL     1       7.322  29.696  15.793  1.00  0.00     0.165 HD
ATOM     15  H   UNL     1       4.350  26.117  18.343  1.00  0.00     0.348 HD
BRANCH   9  16
ATOM     16  C   UNL     1       8.845  25.548  15.173  1.00  0.00     0.039 A 
ATOM     17  C   UNL     1       9.069  24.296  15.694  1.00  0.00     0.026 A 
ATOM     18  C   UNL     1       9.323  25.847  13.934  1.00  0.00     0.026 A 
ATOM     19  C   UNL     1       9.776  23.322  14.981  1.00  0.00     0.002 A 
ATOM     20  C   UNL     1      10.017  24.910  13.221  1.00  0.00     0.002 A 
ATOM     21  C   UNL     1      10.246  23.658  13.729  1.00  0.00     0.000 A 
ENDBRANCH   9  16
ENDBRANCH   2   3
ENDBRANCH   1   2
BRANCH   1  22
ATOM     22  C   UNL     1       3.342  23.904  20.624  1.00  0.00     0.019 C 
BRANCH  22  23
ATOM     23  C   UNL     1       2.850  22.930  21.589  1.00  0.00     0.049 C 
BRANCH  23  24
ATOM     24  C   UNL     1       3.883  22.363  22.527  1.00  0.00    -0.040 A 
ATOM     25  C   UNL     1       3.700  21.060  22.932  1.00  0.00     0.007 A 
ATOM     26  C   UNL     1       4.944  23.096  22.987  1.00  0.00     0.007 A 
ATOM     27  C   UNL     1       4.584  20.479  23.805  1.00  0.00     0.039 A 
ATOM     28  C   UNL     1       5.825  22.513  23.857  1.00  0.00     0.039 A 
ATOM     29  C   UNL     1       5.662  21.189  24.284  1.00  0.00     0.123 A 
ATOM     30  F   UNL     1       6.530  20.604  25.147  1.00  0.00    -0.207 F 
ENDBRANCH  23  24
BRANCH  23  31
ATOM     31  C   UNL     1       1.589  23.140  22.281  1.00  0.00    -0.040 A 
ATOM     32  C   UNL     1       1.369  23.962  23.351  1.00  0.00     0.007 A 
ATOM     33  C   UNL     1       0.506  22.398  21.791  1.00  0.00     0.007 A 
ATOM     34  C   UNL     1       0.085  24.023  23.905  1.00  0.00     0.039 A 
ATOM     35  C   UNL     1      -0.744  22.451  22.319  1.00  0.00     0.039 A 
ATOM     36  C   UNL     1      -0.951  23.281  23.396  1.00  0.00     0.123 A 
ATOM     37  F   UNL     1      -2.208  23.323  23.914  1.00  0.00    -0.207 F 
ENDBRANCH  23  31
ENDBRANCH  22  23
ENDBRANCH   1  22
TORSDOF 7
ENDMDL
MODEL 5
REMARK VINA RESULT:      -5.2      3.781      6.999
REMARK SMILES O=C1NCN(c2ccccc2)C12CC[NH+](CCCC(c1ccc(F)cc1)c1ccc(F)cc1)CC2
REMARK SMILES IDX 17 1 16 2 15 3 1 4 2 5 3 6 12 7 4 8 5 9 13 10 35 11 14 12
REMARK SMILES IDX 34 13 6 16 7 17 11 18 8 19 10 20 9 21 18 22 19 23 20 24
REMARK SMILES IDX 21 25 26 26 22 27 25 28 23 29 24 30 27 31 28 32 33 33 29 34
REMARK SMILES IDX 32 35 30 36 31 37
REMARK H PARENT 3 14 15 15
ROOT
ATOM      1  C   UNL     1      -0.795  26.667  15.481  1.00  0.00     0.062 C 
ENDROOT
BRANCH   1   2
ATOM      2  C   UNL     1      -1.343  25.897  16.647  1.00  0.00     0.262 C 
BRANCH   2   3
ATOM      3  N   UNL     1      -0.393  25.918  17.754  1.00  0.00    -0.335 N 
ATOM      4  O   UNL     1       0.409  27.208  20.604  1.00  0.00    -0.272 OA
ATOM      5  C   UNL     1       1.534  26.684  20.472  1.00  0.00     0.247 C 
ATOM      6  N   UNL     1       2.580  26.806  21.404  1.00  0.00    -0.336 N 
ATOM      7  C   UNL     1       1.974  25.835  19.301  1.00  0.00     0.131 C 
ATOM      8  C   UNL     1       3.480  25.729  21.136  1.00  0.00     0.238 C 
ATOM      9  N   UNL     1       3.342  25.501  19.690  1.00  0.00    -0.339 N 
ATOM     10  C   UNL     1       1.924  26.679  18.044  1.00  0.00     0.100 C 
ATOM     11  C   UNL     1       1.061  24.663  19.224  1.00  0.00     0.100 C 
ATOM     12  C   UNL     1       0.504  27.053  17.687  1.00  0.00     0.265 C 
ATOM     13  C   UNL     1       0.312  24.676  17.932  1.00  0.00     0.265 C 
ATOM     14  H   UNL     1       2.658  27.554  22.145  1.00  0.00     0.165 HD
ATOM     15  H   UNL     1      -0.991  26.056  18.598  1.00  0.00     0.348 HD
BRANCH   9  16
ATOM     16  C   UNL     1       4.437  25.047  18.911  1.00  0.00     0.039 A 
ATOM     17  C   UNL     1       5.523  25.856  18.675  1.00  0.00     0.026 A 
ATOM     18  C   UNL     1       4.427  23.784  18.405  1.00  0.00     0.026 A 
ATOM     19  C   UNL     1       6.617  25.412  17.926  1.00  0.00     0.002 A 
ATOM     20  C   UNL     1       5.487  23.330  17.669  1.00  0.00     0.002 A 
ATOM     21  C   UNL     1       6.575  24.127  17.428  1.00  0.00     0.000 A 
ENDBRANCH   9  16
ENDBRANCH   2   3
ENDBRANCH   1   2
BRANCH   1  22
ATOM     22  C   UNL     1      -0.512  25.911  14.256  1.00  0.00     0.019 C 
BRANCH  22  23
ATOM     23  C   UNL     1       0.629  25.016  14.126  1.00  0.00     0.049 C 
BRANCH  23  24
ATOM     24  C   UNL     1       0.546  24.013  13.005  1.00  0.00    -0.040 A 
ATOM     25  C   UNL     1       1.570  23.096  12.921  1.00  0.00     0.007 A 
ATOM     26  C   UNL     1      -0.472  24.011  12.090  1.00  0.00     0.007 A 
ATOM     27  C   UNL     1       1.580  22.164  11.914  1.00  0.00     0.039 A 
ATOM     28  C   UNL     1      -0.460  23.079  11.087  1.00  0.00     0.039 A 
ATOM     29  C   UNL     1       0.569  22.136  10.980  1.00  0.00     0.123 A 
ATOM     30  F   UNL     1       0.589  21.210   9.988  1.00  0.00    -0.207 F 
ENDBRANCH  23  24
BRANCH  23  31
ATOM     31  C   UNL     1       1.987  25.516  14.267  1.00  0.00    -0.040 A 
ATOM     32  C   UNL     1       2.924  25.094  15.168  1.00  0.00     0.007 A 
ATOM     33  C   UNL     1       2.341  26.548  13.388  1.00  0.00     0.007 A 
ATOM     34  C   UNL     1       4.183  25.708  15.172  1.00  0.00     0.039 A 
ATOM     35  C   UNL     1       3.557  27.150  13.382  1.00  0.00     0.039 A 
ATOM     36  C   UNL     1       4.491  26.717  14.295  1.00  0.00     0.123 A 
ATOM     37  F   UNL     1       5.706  27.328  14.277  1.00  0.00    -0.207 F 
ENDBRANCH  23  31
ENDBRANCH  22  23
ENDBRANCH   1  22
TORSDOF 7
ENDMDL
MODEL 6
REMARK VINA RESULT:      -5.2      0.882      3.769
REMARK SMILES O=C1NCN(c2ccccc2)C12CC[NH+](CCCC(c1ccc(F)cc1)c1ccc(F)cc1)CC2
REMARK SMILES IDX 17 1 16 2 15 3 1 4 2 5 3 6 12 7 4 8 5 9 13 10 35 11 14 12
REMARK SMILES IDX 34 13 6 16 7 17 11 18 8 19 10 20 9 21 18 22 19 23 20 24
REMARK SMILES IDX 21 25 26 26 22 27 25 28 23 29 24 30 27 31 28 32 33 33 29 34
REMARK SMILES IDX 32 35 30 36 31 37
REMARK H PARENT 3 14 15 15
ROOT
ATOM      1  C   UNL     1       1.907  27.698  18.030  1.00  0.00     0.062 C 
ENDROOT
BRANCH   1   2
ATOM      2  C   UNL     1       1.430  27.011  16.785  1.00  0.00     0.262 C 
BRANCH   2   3
ATOM      3  N   UNL     1       2.395  27.197  15.707  1.00  0.00    -0.335 N 
ATOM      4  O   UNL     1       2.971  27.022  12.534  1.00  0.00    -0.272 OA
ATOM      5  C   UNL     1       4.187  27.134  12.796  1.00  0.00     0.247 C 
ATOM      6  N   UNL     1       5.209  27.135  11.831  1.00  0.00    -0.336 N 
ATOM      7  C   UNL     1       4.775  27.285  14.181  1.00  0.00     0.131 C 
ATOM      8  C   UNL     1       6.347  27.733  12.455  1.00  0.00     0.238 C 
ATOM      9  N   UNL     1       6.201  27.379  13.875  1.00  0.00    -0.339 N 
ATOM     10  C   UNL     1       4.442  26.046  14.987  1.00  0.00     0.100 C 
ATOM     11  C   UNL     1       4.201  28.516  14.784  1.00  0.00     0.100 C 
ATOM     12  C   UNL     1       2.958  25.943  15.251  1.00  0.00     0.265 C 
ATOM     13  C   UNL     1       3.411  28.173  16.004  1.00  0.00     0.265 C 
ATOM     14  H   UNL     1       5.125  26.762  10.847  1.00  0.00     0.165 HD
ATOM     15  H   UNL     1       1.826  27.576  14.920  1.00  0.00     0.348 HD
BRANCH   9  16
ATOM     16  C   UNL     1       7.336  27.173  14.700  1.00  0.00     0.039 A 
ATOM     17  C   UNL     1       8.225  26.158  14.442  1.00  0.00     0.026 A 
ATOM     18  C   UNL     1       7.565  28.005  15.753  1.00  0.00     0.026 A 
ATOM     19  C   UNL     1       9.359  25.958  15.236  1.00  0.00     0.002 A 
ATOM     20  C   UNL     1       8.667  27.828  16.542  1.00  0.00     0.002 A 
ATOM     21  C   UNL     1       9.561  26.818  16.295  1.00  0.00     0.000 A 
ENDBRANCH   9  16
ENDBRANCH   2   3
ENDBRANCH   1   2
BRANCH   1  22
ATOM     22  C   UNL     1       2.428  26.845  19.105  1.00  0.00     0.019 C 
BRANCH  22  23
ATOM     23  C   UNL     1       2.601  25.407  18.959  1.00  0.00     0.049 C 
BRANCH  23  24
ATOM     24  C   UNL     1       3.959  24.959  18.485  1.00  0.00    -0.040 A 
ATOM     25  C   UNL     1       4.992  25.857  18.636  1.00  0.00     0.007 A 
ATOM     26  C   UNL     1       4.173  23.736  17.907  1.00  0.00     0.007 A 
ATOM     27  C   UNL     1       6.254  25.533  18.207  1.00  0.00     0.039 A 
ATOM     28  C   UNL     1       5.434  23.417  17.481  1.00  0.00     0.039 A 
ATOM     29  C   UNL     1       6.501  24.311  17.624  1.00  0.00     0.123 A 
ATOM     30  F   UNL     1       7.754  24.002  17.203  1.00  0.00    -0.207 F 
ENDBRANCH  23  24
BRANCH  23  31
ATOM     31  C   UNL     1       2.077  24.488  19.956  1.00  0.00    -0.040 A 
ATOM     32  C   UNL     1       2.766  23.932  20.997  1.00  0.00     0.007 A 
ATOM     33  C   UNL     1       0.728  24.142  19.803  1.00  0.00     0.007 A 
ATOM     34  C   UNL     1       2.099  23.047  21.854  1.00  0.00     0.039 A 
ATOM     35  C   UNL     1       0.071  23.287  20.627  1.00  0.00     0.039 A 
ATOM     36  C   UNL     1       0.776  22.732  21.670  1.00  0.00     0.123 A 
ATOM     37  F   UNL     1       0.105  21.877  22.488  1.00  0.00    -0.207 F 
ENDBRANCH  23  31
ENDBRANCH  22  23
ENDBRANCH   1  22
TORSDOF 7
ENDMDL
MODEL 7
REMARK VINA RESULT:      -5.2      0.936      1.717
REMARK SMILES O=C1NCN(c2ccccc2)C12CC[NH+](CCCC(c1ccc(F)cc1)c1ccc(F)cc1)CC2
REMARK SMILES IDX 17 1 16 2 15 3 1 4 2 5 3 6 12 7 4 8 5 9 13 10 35 11 14 12
REMARK SMILES IDX 34 13 6 16 7 17 11 18 8 19 10 20 9 21 18 22 19 23 20 24
REMARK SMILES IDX 21 25 26 26 22 27 25 28 23 29 24 30 27 31 28 32 33 33 29 34
REMARK SMILES IDX 32 35 30 36 31 37
REMARK H PARENT 3 14 15 15
ROOT
ATOM      1  C   UNL     1       1.447  24.841  18.524  1.00  0.00     0.062 C 
ENDROOT
BRANCH   1   2
ATOM      2  C   UNL     1       0.851  26.063  17.890  1.00  0.00     0.262 C 
BRANCH   2   3
ATOM      3  N   UNL     1       1.570  26.396  16.665  1.00  0.00    -0.335 N 
ATOM      4  O   UNL     1       1.702  26.124  13.450  1.00  0.00    -0.272 OA
ATOM      5  C   UNL     1       2.875  26.548  13.509  1.00  0.00     0.247 C 
ATOM      6  N   UNL     1       3.711  26.724  12.392  1.00  0.00    -0.336 N 
ATOM      7  C   UNL     1       3.601  26.943  14.773  1.00  0.00     0.131 C 
ATOM      8  C   UNL     1       4.739  27.628  12.802  1.00  0.00     0.238 C 
ATOM      9  N   UNL     1       4.896  27.359  14.240  1.00  0.00    -0.339 N 
ATOM     10  C   UNL     1       3.714  25.726  15.669  1.00  0.00     0.100 C 
ATOM     11  C   UNL     1       2.829  28.041  15.415  1.00  0.00     0.100 C 
ATOM     12  C   UNL     1       2.358  25.286  16.172  1.00  0.00     0.265 C 
ATOM     13  C   UNL     1       2.338  27.610  16.758  1.00  0.00     0.265 C 
ATOM     14  H   UNL     1       3.581  26.268  11.449  1.00  0.00     0.165 HD
ATOM     15  H   UNL     1       0.815  26.563  15.965  1.00  0.00     0.348 HD
BRANCH   9  16
ATOM     16  C   UNL     1       6.154  27.500  14.879  1.00  0.00     0.039 A 
ATOM     17  C   UNL     1       6.325  28.376  15.924  1.00  0.00     0.026 A 
ATOM     18  C   UNL     1       7.208  26.742  14.468  1.00  0.00     0.026 A 
ATOM     19  C   UNL     1       7.556  28.508  16.575  1.00  0.00     0.002 A 
ATOM     20  C   UNL     1       8.420  26.856  15.091  1.00  0.00     0.002 A 
ATOM     21  C   UNL     1       8.602  27.726  16.134  1.00  0.00     0.000 A 
ENDBRANCH   9  16
ENDBRANCH   2   3
ENDBRANCH   1   2
BRANCH   1  22
ATOM     22  C   UNL     1       1.930  24.972  19.903  1.00  0.00     0.019 C 
BRANCH  22  23
ATOM     23  C   UNL     1       3.270  24.573  20.312  1.00  0.00     0.049 C 
BRANCH  23  24
ATOM     24  C   UNL     1       3.337  23.488  21.355  1.00  0.00    -0.040 A 
ATOM     25  C   UNL     1       2.210  22.711  21.510  1.00  0.00     0.007 A 
ATOM     26  C   UNL     1       4.442  23.283  22.137  1.00  0.00     0.007 A 
ATOM     27  C   UNL     1       2.184  21.718  22.456  1.00  0.00     0.039 A 
ATOM     28  C   UNL     1       4.411  22.290  23.079  1.00  0.00     0.039 A 
ATOM     29  C   UNL     1       3.279  21.487  23.256  1.00  0.00     0.123 A 
ATOM     30  F   UNL     1       3.241  20.501  24.189  1.00  0.00    -0.207 F 
ENDBRANCH  23  24
BRANCH  23  31
ATOM     31  C   UNL     1       4.329  24.408  19.330  1.00  0.00    -0.040 A 
ATOM     32  C   UNL     1       4.539  23.321  18.528  1.00  0.00     0.007 A 
ATOM     33  C   UNL     1       5.224  25.481  19.228  1.00  0.00     0.007 A 
ATOM     34  C   UNL     1       5.629  23.329  17.649  1.00  0.00     0.039 A 
ATOM     35  C   UNL     1       6.284  25.500  18.379  1.00  0.00     0.039 A 
ATOM     36  C   UNL     1       6.484  24.400  17.578  1.00  0.00     0.123 A 
ATOM     37  F   UNL     1       7.549  24.433  16.733  1.00  0.00    -0.207 F 
ENDBRANCH  23  31
ENDBRANCH  22  23
ENDBRANCH   1  22
TORSDOF 7
ENDMDL
MODEL 8
REMARK VINA RESULT:      -5.2      5.461      9.237
REMARK SMILES O=C1NCN(c2ccccc2)C12CC[NH+](CCCC(c1ccc(F)cc1)c1ccc(F)cc1)CC2
REMARK SMILES IDX 17 1 16 2 15 3 1 4 2 5 3 6 12 7 4 8 5 9 13 10 35 11 14 12
REMARK SMILES IDX 34 13 6 16 7 17 11 18 8 19 10 20 9 21 18 22 19 23 20 24
REMARK SMILES IDX 21 25 26 26 22 27 25 28 23 29 24 30 27 31 28 32 33 33 29 34
REMARK SMILES IDX 32 35 30 36 31 37
REMARK H PARENT 3 14 15 15
ROOT
ATOM      1  C   UNL     1       1.064  24.207  22.831  1.00  0.00     0.062 C 
ENDROOT
BRANCH   1   2
ATOM      2  C   UNL     1       0.942  22.778  22.392  1.00  0.00     0.262 C 
BRANCH   2   3
ATOM      3  N   UNL     1       1.728  21.914  23.266  1.00  0.00    -0.335 N 
ATOM      4  O   UNL     1       1.703  19.789  25.698  1.00  0.00    -0.272 OA
ATOM      5  C   UNL     1       2.938  19.945  25.785  1.00  0.00     0.247 C 
ATOM      6  N   UNL     1       3.755  19.292  26.724  1.00  0.00    -0.336 N 
ATOM      7  C   UNL     1       3.771  20.851  24.908  1.00  0.00     0.131 C 
ATOM      8  C   UNL     1       5.088  19.364  26.213  1.00  0.00     0.238 C 
ATOM      9  N   UNL     1       5.108  20.621  25.450  1.00  0.00    -0.339 N 
ATOM     10  C   UNL     1       3.309  22.280  25.110  1.00  0.00     0.100 C 
ATOM     11  C   UNL     1       3.601  20.402  23.501  1.00  0.00     0.100 C 
ATOM     12  C   UNL     1       1.906  22.484  24.585  1.00  0.00     0.265 C 
ATOM     13  C   UNL     1       2.972  21.484  22.686  1.00  0.00     0.265 C 
ATOM     14  H   UNL     1       3.424  18.845  27.622  1.00  0.00     0.165 HD
ATOM     15  H   UNL     1       1.133  21.065  23.383  1.00  0.00     0.348 HD
BRANCH   9  16
ATOM     16  C   UNL     1       6.291  21.398  25.348  1.00  0.00     0.039 A 
ATOM     17  C   UNL     1       7.021  21.430  24.184  1.00  0.00     0.026 A 
ATOM     18  C   UNL     1       6.702  22.142  26.411  1.00  0.00     0.026 A 
ATOM     19  C   UNL     1       8.176  22.208  24.065  1.00  0.00     0.002 A 
ATOM     20  C   UNL     1       7.830  22.910  26.316  1.00  0.00     0.002 A 
ATOM     21  C   UNL     1       8.566  22.950  25.160  1.00  0.00     0.000 A 
ENDBRANCH   9  16
ENDBRANCH   2   3
ENDBRANCH   1   2
BRANCH   1  22
ATOM     22  C   UNL     1       1.837  25.108  21.968  1.00  0.00     0.019 C 
BRANCH  22  23
ATOM     23  C   UNL     1       3.200  24.818  21.543  1.00  0.00     0.049 C 
BRANCH  23  24
ATOM     24  C   UNL     1       3.396  24.642  20.060  1.00  0.00    -0.040 A 
ATOM     25  C   UNL     1       4.297  23.678  19.667  1.00  0.00     0.007 A 
ATOM     26  C   UNL     1       2.742  25.409  19.133  1.00  0.00     0.007 A 
ATOM     27  C   UNL     1       4.550  23.473  18.334  1.00  0.00     0.039 A 
ATOM     28  C   UNL     1       2.996  25.201  17.804  1.00  0.00     0.039 A 
ATOM     29  C   UNL     1       3.907  24.227  17.378  1.00  0.00     0.123 A 
ATOM     30  F   UNL     1       4.165  24.016  16.062  1.00  0.00    -0.207 F 
ENDBRANCH  23  24
BRANCH  23  31
ATOM     31  C   UNL     1       4.328  25.521  22.130  1.00  0.00    -0.040 A 
ATOM     32  C   UNL     1       4.721  26.803  21.865  1.00  0.00     0.007 A 
ATOM     33  C   UNL     1       5.085  24.780  23.048  1.00  0.00     0.007 A 
ATOM     34  C   UNL     1       5.852  27.312  22.515  1.00  0.00     0.039 A 
ATOM     35  C   UNL     1       6.182  25.264  23.685  1.00  0.00     0.039 A 
ATOM     36  C   UNL     1       6.567  26.555  23.407  1.00  0.00     0.123 A 
ATOM     37  F   UNL     1       7.668  27.026  24.053  1.00  0.00    -0.207 F 
ENDBRANCH  23  31
ENDBRANCH  22  23
ENDBRANCH   1  22
TORSDOF 7
ENDMDL
MODEL 9
REMARK VINA RESULT:      -5.2      3.061      5.138
REMARK SMILES O=C1NCN(c2ccccc2)C12CC[NH+](CCCC(c1ccc(F)cc1)c1ccc(F)cc1)CC2
REMARK SMILES IDX 17 1 16 2 15 3 1 4 2 5 3 6 12 7 4 8 5 9 13 10 35 11 14 12
REMARK SMILES IDX 34 13 6 16 7 17 11 18 8 19 10 20 9 21 18 22 19 23 20 24
REMARK SMILES IDX 21 25 26 26 22 27 25 28 23 29 24 30 27 31 28 32 33 33 29 34
REMARK SMILES IDX 32 35 30 36 31 37
REMARK H PARENT 3 14 15 15
ROOT
ATOM      1  C   UNL     1       4.775  23.697  18.583  1.00  0.00     0.062 C 
ENDROOT
BRANCH   1   2
ATOM      2  C   UNL     1       4.892  24.141  17.155  1.00  0.00     0.262 C 
BRANCH   2   3
ATOM      3  N   UNL     1       6.156  24.838  16.946  1.00  0.00    -0.335 N 
ATOM      4  O   UNL     1       7.999  27.379  17.707  1.00  0.00    -0.272 OA
ATOM      5  C   UNL     1       8.716  27.092  16.726  1.00  0.00     0.247 C 
ATOM      6  N   UNL     1       9.854  27.821  16.337  1.00  0.00    -0.336 N 
ATOM      7  C   UNL     1       8.497  25.926  15.790  1.00  0.00     0.131 C 
ATOM      8  C   UNL     1      10.626  26.946  15.512  1.00  0.00     0.238 C 
ATOM      9  N   UNL     1       9.621  26.084  14.870  1.00  0.00    -0.339 N 
ATOM     10  C   UNL     1       7.160  26.105  15.098  1.00  0.00     0.100 C 
ATOM     11  C   UNL     1       8.545  24.680  16.599  1.00  0.00     0.100 C 
ATOM     12  C   UNL     1       6.014  25.985  16.075  1.00  0.00     0.265 C 
ATOM     13  C   UNL     1       7.231  23.973  16.537  1.00  0.00     0.265 C 
ATOM     14  H   UNL     1      10.071  28.816  16.615  1.00  0.00     0.165 HD
ATOM     15  H   UNL     1       6.401  25.206  17.892  1.00  0.00     0.348 HD
BRANCH   9  16
ATOM     16  C   UNL     1       9.823  25.570  13.564  1.00  0.00     0.039 A 
ATOM     17  C   UNL     1       9.832  26.401  12.469  1.00  0.00     0.026 A 
ATOM     18  C   UNL     1      10.034  24.237  13.389  1.00  0.00     0.026 A 
ATOM     19  C   UNL     1      10.050  25.908  11.178  1.00  0.00     0.002 A 
ATOM     20  C   UNL     1      10.249  23.734  12.135  1.00  0.00     0.002 A 
ATOM     21  C   UNL     1      10.260  24.553  11.036  1.00  0.00     0.000 A 
ENDBRANCH   9  16
ENDBRANCH   2   3
ENDBRANCH   1   2
BRANCH   1  22
ATOM     22  C   UNL     1       3.536  24.039  19.290  1.00  0.00     0.019 C 
BRANCH  22  23
ATOM     23  C   UNL     1       3.030  23.266  20.416  1.00  0.00     0.049 C 
BRANCH  23  24
ATOM     24  C   UNL     1       3.921  23.226  21.631  1.00  0.00    -0.040 A 
ATOM     25  C   UNL     1       4.264  21.979  22.104  1.00  0.00     0.007 A 
ATOM     26  C   UNL     1       4.357  24.359  22.264  1.00  0.00     0.007 A 
ATOM     27  C   UNL     1       5.052  21.859  23.221  1.00  0.00     0.039 A 
ATOM     28  C   UNL     1       5.143  24.235  23.377  1.00  0.00     0.039 A 
ATOM     29  C   UNL     1       5.507  22.979  23.878  1.00  0.00     0.123 A 
ATOM     30  F   UNL     1       6.286  22.848  24.982  1.00  0.00    -0.207 F 
ENDBRANCH  23  24
BRANCH  23  31
ATOM     31  C   UNL     1       1.633  23.347  20.807  1.00  0.00    -0.040 A 
ATOM     32  C   UNL     1       1.053  22.761  21.898  1.00  0.00     0.007 A 
ATOM     33  C   UNL     1       0.813  24.094  19.951  1.00  0.00     0.007 A 
ATOM     34  C   UNL     1      -0.321  22.932  22.107  1.00  0.00     0.039 A 
ATOM     35  C   UNL     1      -0.519  24.268  20.145  1.00  0.00     0.039 A 
ATOM     36  C   UNL     1      -1.090  23.672  21.245  1.00  0.00     0.123 A 
ATOM     37  F   UNL     1      -2.426  23.855  21.427  1.00  0.00    -0.207 F 
ENDBRANCH  23  31
ENDBRANCH  22  23
ENDBRANCH   1  22
TORSDOF 7
ENDMDL
