MODEL 1
REMARK VINA RESULT:      -6.2      0.000      0.000
REMARK SMILES C[NH+](Cc1ccc(C(C)(C)C)cc1)Cc1cccc2ccccc12
REMARK SMILES IDX 3 1 2 2 1 3 14 5 15 6 16 7 24 8 17 9 23 10 19 11 18 12 22 13
REMARK SMILES IDX 20 14 21 15 4 16 5 17 13 18 6 19 12 20 7 21 8 22 9 23 10 24
REMARK SMILES IDX 11 25
REMARK H PARENT 2 4
ROOT
ATOM      1  C   UNL     1     -15.819 -19.957 -20.268  1.00  0.00     0.299 C 
ENDROOT
BRANCH   1   2
ATOM      2  N   UNL     1     -14.423 -20.340 -20.217  1.00  0.00    -0.330 N 
ATOM      3  C   UNL     1     -13.594 -19.231 -20.697  1.00  0.00     0.333 C 
ATOM      4  H   UNL     1     -14.198 -20.415 -19.208  1.00  0.00     0.348 HD
BRANCH   2   5
ATOM      5  C   UNL     1     -14.127 -21.557 -20.885  1.00  0.00     0.299 C 
BRANCH   5   6
ATOM      6  C   UNL     1     -14.593 -22.799 -20.230  1.00  0.00     0.014 A 
ATOM      7  C   UNL     1     -14.989 -22.789 -18.893  1.00  0.00     0.010 A 
ATOM      8  C   UNL     1     -14.631 -24.009 -20.870  1.00  0.00    -0.010 A 
ATOM      9  C   UNL     1     -15.392 -23.923 -18.254  1.00  0.00     0.001 A 
ATOM     10  C   UNL     1     -14.272 -24.122 -22.193  1.00  0.00     0.009 A 
ATOM     11  C   UNL     1     -15.041 -25.193 -20.243  1.00  0.00    -0.018 A 
ATOM     12  C   UNL     1     -15.419 -25.118 -18.922  1.00  0.00     0.009 A 
ATOM     13  C   UNL     1     -14.312 -25.351 -22.871  1.00  0.00     0.001 A 
ATOM     14  C   UNL     1     -15.093 -26.410 -20.871  1.00  0.00     0.009 A 
ATOM     15  C   UNL     1     -14.722 -26.485 -22.207  1.00  0.00     0.001 A 
ENDBRANCH   5   6
ENDBRANCH   2   5
ENDBRANCH   1   2
BRANCH   1  16
ATOM     16  C   UNL     1     -16.075 -18.884 -21.285  1.00  0.00     0.006 A 
ATOM     17  C   UNL     1     -15.995 -17.548 -20.951  1.00  0.00     0.010 A 
ATOM     18  C   UNL     1     -16.398 -19.189 -22.591  1.00  0.00     0.010 A 
ATOM     19  C   UNL     1     -16.226 -16.557 -21.882  1.00  0.00     0.005 A 
ATOM     20  C   UNL     1     -16.631 -18.197 -23.534  1.00  0.00     0.005 A 
ATOM     21  C   UNL     1     -16.550 -16.867 -23.196  1.00  0.00    -0.043 A 
BRANCH  21  22
ATOM     22  C   UNL     1     -16.792 -15.765 -24.171  1.00  0.00    -0.013 C 
ATOM     23  C   UNL     1     -16.730 -16.339 -25.564  1.00  0.00     0.016 C 
ATOM     24  C   UNL     1     -18.171 -15.177 -23.969  1.00  0.00     0.016 C 
ATOM     25  C   UNL     1     -15.795 -14.652 -24.026  1.00  0.00     0.016 C 
ENDBRANCH  21  22
ENDBRANCH   1  16
TORSDOF 5
ENDMDL
MODEL 2
REMARK VINA RESULT:      -6.1      1.097      1.763
REMARK SMILES C[NH+](Cc1ccc(C(C)(C)C)cc1)Cc1cccc2ccccc12
REMARK SMILES IDX 3 1 2 2 1 3 14 5 15 6 16 7 24 8 17 9 23 10 19 11 18 12 22 13
REMARK SMILES IDX 20 14 21 15 4 16 5 17 13 18 6 19 12 20 7 21 8 22 9 23 10 24
REMARK SMILES IDX 11 25
REMARK H PARENT 2 4
ROOT
ATOM      1  C   UNL     1     -14.037 -18.782 -20.765  1.00  0.00     0.299 C 
ENDROOT
BRANCH   1   2
ATOM      2  N   UNL     1     -14.482 -20.160 -20.803  1.00  0.00    -0.330 N 
ATOM      3  C   UNL     1     -15.825 -20.256 -20.223  1.00  0.00     0.333 C 
ATOM      4  H   UNL     1     -14.617 -20.375 -21.808  1.00  0.00     0.348 HD
BRANCH   2   5
ATOM      5  C   UNL     1     -13.579 -21.082 -20.214  1.00  0.00     0.299 C 
BRANCH   5   6
ATOM      6  C   UNL     1     -14.162 -22.076 -19.287  1.00  0.00     0.014 A 
ATOM      7  C   UNL     1     -14.348 -21.766 -17.940  1.00  0.00     0.010 A 
ATOM      8  C   UNL     1     -14.517 -23.340 -19.678  1.00  0.00    -0.010 A 
ATOM      9  C   UNL     1     -14.853 -22.671 -17.056  1.00  0.00     0.001 A 
ATOM     10  C   UNL     1     -14.384 -23.741 -20.987  1.00  0.00     0.009 A 
ATOM     11  C   UNL     1     -15.039 -24.295 -18.795  1.00  0.00    -0.018 A 
ATOM     12  C   UNL     1     -15.198 -23.928 -17.478  1.00  0.00     0.009 A 
ATOM     13  C   UNL     1     -14.750 -25.028 -21.410  1.00  0.00     0.001 A 
ATOM     14  C   UNL     1     -15.406 -25.560 -19.171  1.00  0.00     0.009 A 
ATOM     15  C   UNL     1     -15.257 -25.929 -20.502  1.00  0.00     0.001 A 
ENDBRANCH   5   6
ENDBRANCH   2   5
ENDBRANCH   1   2
BRANCH   1  16
ATOM     16  C   UNL     1     -14.693 -17.945 -21.822  1.00  0.00     0.006 A 
ATOM     17  C   UNL     1     -15.684 -17.039 -21.506  1.00  0.00     0.010 A 
ATOM     18  C   UNL     1     -14.331 -18.044 -23.150  1.00  0.00     0.010 A 
ATOM     19  C   UNL     1     -16.289 -16.264 -22.474  1.00  0.00     0.005 A 
ATOM     20  C   UNL     1     -14.934 -17.267 -24.130  1.00  0.00     0.005 A 
ATOM     21  C   UNL     1     -15.922 -16.366 -23.809  1.00  0.00    -0.043 A 
BRANCH  21  22
ATOM     22  C   UNL     1     -16.601 -15.509 -24.823  1.00  0.00    -0.013 C 
ATOM     23  C   UNL     1     -15.834 -14.217 -24.944  1.00  0.00     0.016 C 
ATOM     24  C   UNL     1     -16.589 -16.187 -26.176  1.00  0.00     0.016 C 
ATOM     25  C   UNL     1     -18.032 -15.231 -24.464  1.00  0.00     0.016 C 
ENDBRANCH  21  22
ENDBRANCH   1  16
TORSDOF 5
ENDMDL
MODEL 3
REMARK VINA RESULT:      -5.9      1.954      3.850
REMARK SMILES C[NH+](Cc1ccc(C(C)(C)C)cc1)Cc1cccc2ccccc12
REMARK SMILES IDX 3 1 2 2 1 3 14 5 15 6 16 7 24 8 17 9 23 10 19 11 18 12 22 13
REMARK SMILES IDX 20 14 21 15 4 16 5 17 13 18 6 19 12 20 7 21 8 22 9 23 10 24
REMARK SMILES IDX 11 25
REMARK H PARENT 2 4
ROOT
ATOM      1  C   UNL     1     -13.485 -21.699 -17.819  1.00  0.00     0.299 C 
ENDROOT
BRANCH   1   2
ATOM      2  N   UNL     1     -14.377 -22.834 -17.695  1.00  0.00    -0.330 N 
ATOM      3  C   UNL     1     -15.084 -22.761 -16.413  1.00  0.00     0.333 C 
ATOM      4  H   UNL     1     -15.114 -22.681 -18.407  1.00  0.00     0.348 HD
BRANCH   2   5
ATOM      5  C   UNL     1     -13.751 -24.093 -17.889  1.00  0.00     0.299 C 
BRANCH   5   6
ATOM      6  C   UNL     1     -14.014 -24.768 -19.178  1.00  0.00     0.014 A 
ATOM      7  C   UNL     1     -14.404 -24.032 -20.297  1.00  0.00     0.010 A 
ATOM      8  C   UNL     1     -13.924 -26.125 -19.341  1.00  0.00    -0.010 A 
ATOM      9  C   UNL     1     -14.684 -24.629 -21.489  1.00  0.00     0.001 A 
ATOM     10  C   UNL     1     -13.535 -26.938 -18.302  1.00  0.00     0.009 A 
ATOM     11  C   UNL     1     -14.204 -26.771 -20.552  1.00  0.00    -0.018 A 
ATOM     12  C   UNL     1     -14.585 -25.989 -21.619  1.00  0.00     0.009 A 
ATOM     13  C   UNL     1     -13.428 -28.330 -18.449  1.00  0.00     0.001 A 
ATOM     14  C   UNL     1     -14.110 -28.125 -20.734  1.00  0.00     0.009 A 
ATOM     15  C   UNL     1     -13.715 -28.914 -19.661  1.00  0.00     0.001 A 
ENDBRANCH   5   6
ENDBRANCH   2   5
ENDBRANCH   1   2
BRANCH   1  16
ATOM     16  C   UNL     1     -13.979 -20.697 -18.820  1.00  0.00     0.006 A 
ATOM     17  C   UNL     1     -13.494 -20.677 -20.111  1.00  0.00     0.010 A 
ATOM     18  C   UNL     1     -14.936 -19.760 -18.491  1.00  0.00     0.010 A 
ATOM     19  C   UNL     1     -13.947 -19.760 -21.037  1.00  0.00     0.005 A 
ATOM     20  C   UNL     1     -15.398 -18.834 -19.417  1.00  0.00     0.005 A 
ATOM     21  C   UNL     1     -14.911 -18.818 -20.704  1.00  0.00    -0.043 A 
BRANCH  21  22
ATOM     22  C   UNL     1     -15.373 -17.845 -21.734  1.00  0.00    -0.013 C 
ATOM     23  C   UNL     1     -16.013 -16.674 -21.032  1.00  0.00     0.016 C 
ATOM     24  C   UNL     1     -14.197 -17.325 -22.532  1.00  0.00     0.016 C 
ATOM     25  C   UNL     1     -16.343 -18.462 -22.701  1.00  0.00     0.016 C 
ENDBRANCH  21  22
ENDBRANCH   1  16
TORSDOF 5
ENDMDL
MODEL 4
REMARK VINA RESULT:      -5.5      1.757      3.251
REMARK SMILES C[NH+](Cc1ccc(C(C)(C)C)cc1)Cc1cccc2ccccc12
REMARK SMILES IDX 3 1 2 2 1 3 14 5 15 6 16 7 24 8 17 9 23 10 19 11 18 12 22 13
REMARK SMILES IDX 20 14 21 15 4 16 5 17 13 18 6 19 12 20 7 21 8 22 9 23 10 24
REMARK SMILES IDX 11 25
REMARK H PARENT 2 4
ROOT
ATOM      1  C   UNL     1     -15.610 -22.564 -23.772  1.00  0.00     0.299 C 
ENDROOT
BRANCH   1   2
ATOM      2  N   UNL     1     -14.296 -23.044 -24.149  1.00  0.00    -0.330 N 
ATOM      3  C   UNL     1     -14.435 -24.221 -25.011  1.00  0.00     0.333 C 
ATOM      4  H   UNL     1     -13.907 -22.311 -24.770  1.00  0.00     0.348 HD
BRANCH   2   5
ATOM      5  C   UNL     1     -13.426 -23.283 -23.054  1.00  0.00     0.299 C 
BRANCH   5   6
ATOM      6  C   UNL     1     -13.909 -22.857 -21.722  1.00  0.00     0.014 A 
ATOM      7  C   UNL     1     -13.790 -21.529 -21.316  1.00  0.00     0.010 A 
ATOM      8  C   UNL     1     -14.459 -23.726 -20.817  1.00  0.00    -0.010 A 
ATOM      9  C   UNL     1     -14.197 -21.113 -20.084  1.00  0.00     0.001 A 
ATOM     10  C   UNL     1     -14.631 -25.055 -21.125  1.00  0.00     0.009 A 
ATOM     11  C   UNL     1     -14.888 -23.332 -19.542  1.00  0.00    -0.018 A 
ATOM     12  C   UNL     1     -14.743 -22.007 -19.201  1.00  0.00     0.009 A 
ATOM     13  C   UNL     1     -15.201 -25.960 -20.216  1.00  0.00     0.001 A 
ATOM     14  C   UNL     1     -15.447 -24.186 -18.629  1.00  0.00     0.009 A 
ATOM     15  C   UNL     1     -15.605 -25.521 -18.975  1.00  0.00     0.001 A 
ENDBRANCH   5   6
ENDBRANCH   2   5
ENDBRANCH   1   2
BRANCH   1  16
ATOM     16  C   UNL     1     -15.761 -21.089 -23.999  1.00  0.00     0.006 A 
ATOM     17  C   UNL     1     -15.094 -20.450 -25.023  1.00  0.00     0.010 A 
ATOM     18  C   UNL     1     -16.573 -20.314 -23.196  1.00  0.00     0.010 A 
ATOM     19  C   UNL     1     -15.232 -19.095 -25.239  1.00  0.00     0.005 A 
ATOM     20  C   UNL     1     -16.718 -18.949 -23.408  1.00  0.00     0.005 A 
ATOM     21  C   UNL     1     -16.050 -18.318 -24.431  1.00  0.00    -0.043 A 
BRANCH  21  22
ATOM     22  C   UNL     1     -16.172 -16.856 -24.699  1.00  0.00    -0.013 C 
ATOM     23  C   UNL     1     -17.321 -16.316 -23.886  1.00  0.00     0.016 C 
ATOM     24  C   UNL     1     -14.914 -16.136 -24.265  1.00  0.00     0.016 C 
ATOM     25  C   UNL     1     -16.386 -16.564 -26.156  1.00  0.00     0.016 C 
ENDBRANCH  21  22
ENDBRANCH   1  16
TORSDOF 5
ENDMDL
MODEL 5
REMARK VINA RESULT:      -5.4      1.337      2.371
REMARK SMILES C[NH+](Cc1ccc(C(C)(C)C)cc1)Cc1cccc2ccccc12
REMARK SMILES IDX 3 1 2 2 1 3 14 5 15 6 16 7 24 8 17 9 23 10 19 11 18 12 22 13
REMARK SMILES IDX 20 14 21 15 4 16 5 17 13 18 6 19 12 20 7 21 8 22 9 23 10 24
REMARK SMILES IDX 11 25
REMARK H PARENT 2 4
ROOT
ATOM      1  C   UNL     1     -14.330 -19.651 -21.262  1.00  0.00     0.299 C 
ENDROOT
BRANCH   1   2
ATOM      2  N   UNL     1     -15.224 -20.768 -21.033  1.00  0.00    -0.330 N 
ATOM      3  C   UNL     1     -16.067 -20.488 -19.867  1.00  0.00     0.333 C 
ATOM      4  H   UNL     1     -15.880 -20.761 -21.835  1.00  0.00     0.348 HD
BRANCH   2   5
ATOM      5  C   UNL     1     -14.573 -22.025 -20.932  1.00  0.00     0.299 C 
BRANCH   5   6
ATOM      6  C   UNL     1     -14.267 -22.501 -19.565  1.00  0.00     0.014 A 
ATOM      7  C   UNL     1     -13.747 -21.628 -18.610  1.00  0.00     0.010 A 
ATOM      8  C   UNL     1     -14.441 -23.802 -19.173  1.00  0.00    -0.010 A 
ATOM      9  C   UNL     1     -13.426 -22.044 -17.354  1.00  0.00     0.001 A 
ATOM     10  C   UNL     1     -14.959 -24.738 -20.037  1.00  0.00     0.009 A 
ATOM     11  C   UNL     1     -14.121 -24.263 -17.889  1.00  0.00    -0.018 A 
ATOM     12  C   UNL     1     -13.611 -23.352 -16.993  1.00  0.00     0.009 A 
ATOM     13  C   UNL     1     -15.154 -26.075 -19.653  1.00  0.00     0.001 A 
ATOM     14  C   UNL     1     -14.297 -25.558 -17.479  1.00  0.00     0.009 A 
ATOM     15  C   UNL     1     -14.822 -26.476 -18.379  1.00  0.00     0.001 A 
ENDBRANCH   5   6
ENDBRANCH   2   5
ENDBRANCH   1   2
BRANCH   1  16
ATOM     16  C   UNL     1     -14.976 -18.565 -22.072  1.00  0.00     0.006 A 
ATOM     17  C   UNL     1     -16.215 -18.745 -22.650  1.00  0.00     0.010 A 
ATOM     18  C   UNL     1     -14.359 -17.347 -22.267  1.00  0.00     0.010 A 
ATOM     19  C   UNL     1     -16.816 -17.749 -23.392  1.00  0.00     0.005 A 
ATOM     20  C   UNL     1     -14.957 -16.339 -23.013  1.00  0.00     0.005 A 
ATOM     21  C   UNL     1     -16.193 -16.523 -23.588  1.00  0.00    -0.043 A 
BRANCH  21  22
ATOM     22  C   UNL     1     -16.877 -15.474 -24.396  1.00  0.00    -0.013 C 
ATOM     23  C   UNL     1     -18.159 -15.095 -23.700  1.00  0.00     0.016 C 
ATOM     24  C   UNL     1     -16.012 -14.235 -24.489  1.00  0.00     0.016 C 
ATOM     25  C   UNL     1     -17.165 -15.935 -25.796  1.00  0.00     0.016 C 
ENDBRANCH  21  22
ENDBRANCH   1  16
TORSDOF 5
ENDMDL
MODEL 6
REMARK VINA RESULT:      -5.0      7.720     12.110
REMARK SMILES C[NH+](Cc1ccc(C(C)(C)C)cc1)Cc1cccc2ccccc12
REMARK SMILES IDX 3 1 2 2 1 3 14 5 15 6 16 7 24 8 17 9 23 10 19 11 18 12 22 13
REMARK SMILES IDX 20 14 21 15 4 16 5 17 13 18 6 19 12 20 7 21 8 22 9 23 10 24
REMARK SMILES IDX 11 25
REMARK H PARENT 2 4
ROOT
ATOM      1  C   UNL     1     -13.718 -32.846 -23.905  1.00  0.00     0.299 C 
ENDROOT
BRANCH   1   2
ATOM      2  N   UNL     1     -14.887 -33.687 -23.747  1.00  0.00    -0.330 N 
ATOM      3  C   UNL     1     -14.478 -35.095 -23.739  1.00  0.00     0.333 C 
ATOM      4  H   UNL     1     -15.223 -33.508 -22.784  1.00  0.00     0.348 HD
BRANCH   2   5
ATOM      5  C   UNL     1     -15.918 -33.436 -24.690  1.00  0.00     0.299 C 
BRANCH   5   6
ATOM      6  C   UNL     1     -17.307 -33.575 -24.200  1.00  0.00     0.014 A 
ATOM      7  C   UNL     1     -17.566 -33.721 -22.837  1.00  0.00     0.010 A 
ATOM      8  C   UNL     1     -18.392 -33.602 -25.035  1.00  0.00    -0.010 A 
ATOM      9  C   UNL     1     -18.832 -33.883 -22.359  1.00  0.00     0.001 A 
ATOM     10  C   UNL     1     -18.243 -33.454 -26.394  1.00  0.00     0.009 A 
ATOM     11  C   UNL     1     -19.706 -33.767 -24.577  1.00  0.00    -0.018 A 
ATOM     12  C   UNL     1     -19.896 -33.906 -23.221  1.00  0.00     0.009 A 
ATOM     13  C   UNL     1     -19.343 -33.470 -27.267  1.00  0.00     0.001 A 
ATOM     14  C   UNL     1     -20.802 -33.787 -25.397  1.00  0.00     0.009 A 
ATOM     15  C   UNL     1     -20.613 -33.636 -26.765  1.00  0.00     0.001 A 
ENDBRANCH   5   6
ENDBRANCH   2   5
ENDBRANCH   1   2
BRANCH   1  16
ATOM     16  C   UNL     1     -13.987 -31.423 -23.513  1.00  0.00     0.006 A 
ATOM     17  C   UNL     1     -14.304 -30.469 -24.457  1.00  0.00     0.010 A 
ATOM     18  C   UNL     1     -13.930 -31.013 -22.197  1.00  0.00     0.010 A 
ATOM     19  C   UNL     1     -14.556 -29.159 -24.102  1.00  0.00     0.005 A 
ATOM     20  C   UNL     1     -14.182 -29.698 -21.832  1.00  0.00     0.005 A 
ATOM     21  C   UNL     1     -14.498 -28.750 -22.777  1.00  0.00    -0.043 A 
BRANCH  21  22
ATOM     22  C   UNL     1     -14.777 -27.325 -22.437  1.00  0.00    -0.013 C 
ATOM     23  C   UNL     1     -16.222 -27.033 -22.755  1.00  0.00     0.016 C 
ATOM     24  C   UNL     1     -14.568 -27.088 -20.957  1.00  0.00     0.016 C 
ATOM     25  C   UNL     1     -13.881 -26.379 -23.182  1.00  0.00     0.016 C 
ENDBRANCH  21  22
ENDBRANCH   1  16
TORSDOF 5
ENDMDL
MODEL 7
REMARK VINA RESULT:      -4.8      2.240      3.761
REMARK SMILES C[NH+](Cc1ccc(C(C)(C)C)cc1)Cc1cccc2ccccc12
REMARK SMILES IDX 3 1 2 2 1 3 14 5 15 6 16 7 24 8 17 9 23 10 19 11 18 12 22 13
REMARK SMILES IDX 20 14 21 15 4 16 5 17 13 18 6 19 12 20 7 21 8 22 9 23 10 24
REMARK SMILES IDX 11 25
REMARK H PARENT 2 4
ROOT
ATOM      1  C   UNL     1     -14.663 -22.439 -24.473  1.00  0.00     0.299 C 
ENDROOT
BRANCH   1   2
ATOM      2  N   UNL     1     -14.714 -23.438 -23.425  1.00  0.00    -0.330 N 
ATOM      3  C   UNL     1     -13.426 -23.480 -22.727  1.00  0.00     0.333 C 
ATOM      4  H   UNL     1     -15.378 -23.063 -22.723  1.00  0.00     0.348 HD
BRANCH   2   5
ATOM      5  C   UNL     1     -15.126 -24.724 -23.864  1.00  0.00     0.299 C 
BRANCH   5   6
ATOM      6  C   UNL     1     -14.918 -25.841 -22.917  1.00  0.00     0.014 A 
ATOM      7  C   UNL     1     -14.932 -25.615 -21.541  1.00  0.00     0.010 A 
ATOM      8  C   UNL     1     -14.674 -27.126 -23.323  1.00  0.00    -0.010 A 
ATOM      9  C   UNL     1     -14.712 -26.618 -20.645  1.00  0.00     0.001 A 
ATOM     10  C   UNL     1     -14.652 -27.455 -24.658  1.00  0.00     0.009 A 
ATOM     11  C   UNL     1     -14.444 -28.180 -22.429  1.00  0.00    -0.018 A 
ATOM     12  C   UNL     1     -14.470 -27.893 -21.083  1.00  0.00     0.009 A 
ATOM     13  C   UNL     1     -14.413 -28.767 -25.096  1.00  0.00     0.001 A 
ATOM     14  C   UNL     1     -14.207 -29.472 -22.818  1.00  0.00     0.009 A 
ATOM     15  C   UNL     1     -14.192 -29.766 -24.175  1.00  0.00     0.001 A 
ENDBRANCH   5   6
ENDBRANCH   2   5
ENDBRANCH   1   2
BRANCH   1  16
ATOM     16  C   UNL     1     -14.864 -21.051 -23.942  1.00  0.00     0.006 A 
ATOM     17  C   UNL     1     -16.122 -20.579 -23.630  1.00  0.00     0.010 A 
ATOM     18  C   UNL     1     -13.801 -20.193 -23.744  1.00  0.00     0.010 A 
ATOM     19  C   UNL     1     -16.312 -19.304 -23.138  1.00  0.00     0.005 A 
ATOM     20  C   UNL     1     -13.985 -18.909 -23.249  1.00  0.00     0.005 A 
ATOM     21  C   UNL     1     -15.241 -18.443 -22.939  1.00  0.00    -0.043 A 
BRANCH  21  22
ATOM     22  C   UNL     1     -15.490 -17.073 -22.405  1.00  0.00    -0.013 C 
ATOM     23  C   UNL     1     -14.227 -16.265 -22.558  1.00  0.00     0.016 C 
ATOM     24  C   UNL     1     -16.581 -16.389 -23.201  1.00  0.00     0.016 C 
ATOM     25  C   UNL     1     -15.920 -17.095 -20.967  1.00  0.00     0.016 C 
ENDBRANCH  21  22
ENDBRANCH   1  16
TORSDOF 5
ENDMDL
MODEL 8
REMARK VINA RESULT:      -4.8      1.846      8.078
REMARK SMILES C[NH+](Cc1ccc(C(C)(C)C)cc1)Cc1cccc2ccccc12
REMARK SMILES IDX 3 1 2 2 1 3 14 5 15 6 16 7 24 8 17 9 23 10 19 11 18 12 22 13
REMARK SMILES IDX 20 14 21 15 4 16 5 17 13 18 6 19 12 20 7 21 8 22 9 23 10 24
REMARK SMILES IDX 11 25
REMARK H PARENT 2 4
ROOT
ATOM      1  C   UNL     1     -13.704 -21.111 -24.407  1.00  0.00     0.299 C 
ENDROOT
BRANCH   1   2
ATOM      2  N   UNL     1     -14.862 -20.441 -24.961  1.00  0.00    -0.330 N 
ATOM      3  C   UNL     1     -14.429 -19.257 -25.710  1.00  0.00     0.333 C 
ATOM      4  H   UNL     1     -15.230 -21.086 -25.683  1.00  0.00     0.348 HD
BRANCH   2   5
ATOM      5  C   UNL     1     -15.868 -20.132 -24.009  1.00  0.00     0.299 C 
BRANCH   5   6
ATOM      6  C   UNL     1     -15.551 -19.061 -23.039  1.00  0.00     0.014 A 
ATOM      7  C   UNL     1     -14.682 -19.303 -21.975  1.00  0.00     0.010 A 
ATOM      8  C   UNL     1     -16.103 -17.809 -23.105  1.00  0.00    -0.010 A 
ATOM      9  C   UNL     1     -14.396 -18.347 -21.048  1.00  0.00     0.001 A 
ATOM     10  C   UNL     1     -16.963 -17.466 -24.122  1.00  0.00     0.009 A 
ATOM     11  C   UNL     1     -15.830 -16.803 -22.168  1.00  0.00    -0.018 A 
ATOM     12  C   UNL     1     -14.965 -17.104 -21.142  1.00  0.00     0.009 A 
ATOM     13  C   UNL     1     -17.532 -16.186 -24.213  1.00  0.00     0.001 A 
ATOM     14  C   UNL     1     -16.366 -15.543 -22.224  1.00  0.00     0.009 A 
ATOM     15  C   UNL     1     -17.231 -15.234 -23.266  1.00  0.00     0.001 A 
ENDBRANCH   5   6
ENDBRANCH   2   5
ENDBRANCH   1   2
BRANCH   1  16
ATOM     16  C   UNL     1     -14.053 -22.438 -23.801  1.00  0.00     0.006 A 
ATOM     17  C   UNL     1     -13.768 -22.720 -22.481  1.00  0.00     0.010 A 
ATOM     18  C   UNL     1     -14.674 -23.427 -24.536  1.00  0.00     0.010 A 
ATOM     19  C   UNL     1     -14.090 -23.937 -21.917  1.00  0.00     0.005 A 
ATOM     20  C   UNL     1     -15.002 -24.654 -23.976  1.00  0.00     0.005 A 
ATOM     21  C   UNL     1     -14.715 -24.930 -22.659  1.00  0.00    -0.043 A 
BRANCH  21  22
ATOM     22  C   UNL     1     -15.046 -26.231 -22.011  1.00  0.00    -0.013 C 
ATOM     23  C   UNL     1     -16.169 -26.876 -22.783  1.00  0.00     0.016 C 
ATOM     24  C   UNL     1     -13.853 -27.161 -22.058  1.00  0.00     0.016 C 
ATOM     25  C   UNL     1     -15.437 -26.063 -20.571  1.00  0.00     0.016 C 
ENDBRANCH  21  22
ENDBRANCH   1  16
TORSDOF 5
ENDMDL
MODEL 9
REMARK VINA RESULT:      -4.5      1.571      2.942
REMARK SMILES C[NH+](Cc1ccc(C(C)(C)C)cc1)Cc1cccc2ccccc12
REMARK SMILES IDX 3 1 2 2 1 3 14 5 15 6 16 7 24 8 17 9 23 10 19 11 18 12 22 13
REMARK SMILES IDX 20 14 21 15 4 16 5 17 13 18 6 19 12 20 7 21 8 22 9 23 10 24
REMARK SMILES IDX 11 25
REMARK H PARENT 2 4
ROOT
ATOM      1  C   UNL     1     -15.358 -20.690 -23.194  1.00  0.00     0.299 C 
ENDROOT
BRANCH   1   2
ATOM      2  N   UNL     1     -13.921 -20.859 -23.267  1.00  0.00    -0.330 N 
ATOM      3  C   UNL     1     -13.503 -20.879 -24.672  1.00  0.00     0.333 C 
ATOM      4  H   UNL     1     -13.524 -19.980 -22.890  1.00  0.00     0.348 HD
BRANCH   2   5
ATOM      5  C   UNL     1     -13.428 -21.978 -22.546  1.00  0.00     0.299 C 
BRANCH   5   6
ATOM      6  C   UNL     1     -14.013 -23.293 -22.889  1.00  0.00     0.014 A 
ATOM      7  C   UNL     1     -14.245 -23.640 -24.219  1.00  0.00     0.010 A 
ATOM      8  C   UNL     1     -14.382 -24.213 -21.944  1.00  0.00    -0.010 A 
ATOM      9  C   UNL     1     -14.811 -24.830 -24.564  1.00  0.00     0.001 A 
ATOM     10  C   UNL     1     -14.184 -23.971 -20.605  1.00  0.00     0.009 A 
ATOM     11  C   UNL     1     -14.967 -25.445 -22.264  1.00  0.00    -0.018 A 
ATOM     12  C   UNL     1     -15.171 -25.729 -23.595  1.00  0.00     0.009 A 
ATOM     13  C   UNL     1     -14.547 -24.903 -19.620  1.00  0.00     0.001 A 
ATOM     14  C   UNL     1     -15.334 -26.379 -21.332  1.00  0.00     0.009 A 
ATOM     15  C   UNL     1     -15.119 -26.100 -19.989  1.00  0.00     0.001 A 
ENDBRANCH   5   6
ENDBRANCH   2   5
ENDBRANCH   1   2
BRANCH   1  16
ATOM     16  C   UNL     1     -15.781 -19.288 -23.521  1.00  0.00     0.006 A 
ATOM     17  C   UNL     1     -15.805 -18.834 -24.823  1.00  0.00     0.010 A 
ATOM     18  C   UNL     1     -16.164 -18.401 -22.536  1.00  0.00     0.010 A 
ATOM     19  C   UNL     1     -16.197 -17.547 -25.130  1.00  0.00     0.005 A 
ATOM     20  C   UNL     1     -16.560 -17.105 -22.837  1.00  0.00     0.005 A 
ATOM     21  C   UNL     1     -16.582 -16.656 -24.137  1.00  0.00    -0.043 A 
BRANCH  21  22
ATOM     22  C   UNL     1     -16.999 -15.275 -24.513  1.00  0.00    -0.013 C 
ATOM     23  C   UNL     1     -18.037 -15.369 -25.601  1.00  0.00     0.016 C 
ATOM     24  C   UNL     1     -17.628 -14.575 -23.327  1.00  0.00     0.016 C 
ATOM     25  C   UNL     1     -15.839 -14.439 -24.974  1.00  0.00     0.016 C 
ENDBRANCH  21  22
ENDBRANCH   1  16
TORSDOF 5
ENDMDL
