MODEL 1
REMARK VINA RESULT:      -3.5      0.000      0.000
REMARK SMILES O=C1NCN(c2ccccc2)C12CC[NH+](CCCC(c1ccc(F)cc1)c1ccc(F)cc1)CC2
REMARK SMILES IDX 17 1 16 2 15 3 1 4 2 5 3 6 12 7 4 8 5 9 13 10 35 11 14 12
REMARK SMILES IDX 34 13 6 16 7 17 11 18 8 19 10 20 9 21 18 22 19 23 20 24
REMARK SMILES IDX 21 25 26 26 22 27 25 28 23 29 24 30 27 31 28 32 33 33 29 34
REMARK SMILES IDX 32 35 30 36 31 37
REMARK H PARENT 3 14 15 15
ROOT
ATOM      1  C   UNL     1     -15.429 -34.917 -28.999  1.00  0.00     0.062 C 
ENDROOT
BRANCH   1   2
ATOM      2  C   UNL     1     -16.825 -34.810 -29.538  1.00  0.00     0.262 C 
BRANCH   2   3
ATOM      3  N   UNL     1     -17.775 -34.649 -28.443  1.00  0.00    -0.335 N 
ATOM      4  O   UNL     1     -20.473 -33.217 -27.394  1.00  0.00    -0.272 OA
ATOM      5  C   UNL     1     -20.171 -33.596 -26.244  1.00  0.00     0.247 C 
ATOM      6  N   UNL     1     -20.935 -33.326 -25.094  1.00  0.00    -0.336 N 
ATOM      7  C   UNL     1     -18.947 -34.404 -25.880  1.00  0.00     0.131 C 
ATOM      8  C   UNL     1     -20.533 -34.285 -24.114  1.00  0.00     0.238 C 
ATOM      9  N   UNL     1     -19.124 -34.556 -24.438  1.00  0.00    -0.339 N 
ATOM     10  C   UNL     1     -17.712 -33.596 -26.225  1.00  0.00     0.100 C 
ATOM     11  C   UNL     1     -19.008 -35.683 -26.636  1.00  0.00     0.100 C 
ATOM     12  C   UNL     1     -17.575 -33.412 -27.718  1.00  0.00     0.265 C 
ATOM     13  C   UNL     1     -17.843 -35.789 -27.566  1.00  0.00     0.265 C 
ATOM     14  H   UNL     1     -21.656 -32.561 -25.002  1.00  0.00     0.165 HD
ATOM     15  H   UNL     1     -18.700 -34.573 -28.920  1.00  0.00     0.348 HD
BRANCH   9  16
ATOM     16  C   UNL     1     -18.188 -34.881 -23.423  1.00  0.00     0.039 A 
ATOM     17  C   UNL     1     -18.050 -34.093 -22.305  1.00  0.00     0.026 A 
ATOM     18  C   UNL     1     -17.426 -36.003 -23.543  1.00  0.00     0.026 A 
ATOM     19  C   UNL     1     -17.146 -34.416 -21.289  1.00  0.00     0.002 A 
ATOM     20  C   UNL     1     -16.535 -36.336 -22.561  1.00  0.00     0.002 A 
ATOM     21  C   UNL     1     -16.389 -35.558 -21.442  1.00  0.00     0.000 A 
ENDBRANCH   9  16
ENDBRANCH   2   3
ENDBRANCH   1   2
BRANCH   1  22
ATOM     22  C   UNL     1     -14.496 -33.838 -29.343  1.00  0.00     0.019 C 
BRANCH  22  23
ATOM     23  C   UNL     1     -13.966 -32.908 -28.356  1.00  0.00     0.049 C 
BRANCH  23  24
ATOM     24  C   UNL     1     -14.285 -31.455 -28.594  1.00  0.00    -0.040 A 
ATOM     25  C   UNL     1     -14.774 -31.126 -29.839  1.00  0.00     0.007 A 
ATOM     26  C   UNL     1     -14.082 -30.489 -27.644  1.00  0.00     0.007 A 
ATOM     27  C   UNL     1     -15.065 -29.820 -30.142  1.00  0.00     0.039 A 
ATOM     28  C   UNL     1     -14.375 -29.188 -27.950  1.00  0.00     0.039 A 
ATOM     29  C   UNL     1     -14.874 -28.827 -29.208  1.00  0.00     0.123 A 
ATOM     30  F   UNL     1     -15.166 -27.539 -29.519  1.00  0.00    -0.207 F 
ENDBRANCH  23  24
BRANCH  23  31
ATOM     31  C   UNL     1     -14.017 -33.218 -26.937  1.00  0.00    -0.040 A 
ATOM     32  C   UNL     1     -14.044 -34.463 -26.373  1.00  0.00     0.007 A 
ATOM     33  C   UNL     1     -14.059 -32.110 -26.081  1.00  0.00     0.007 A 
ATOM     34  C   UNL     1     -14.113 -34.573 -24.979  1.00  0.00     0.039 A 
ATOM     35  C   UNL     1     -14.125 -32.204 -24.729  1.00  0.00     0.039 A 
ATOM     36  C   UNL     1     -14.153 -33.462 -24.174  1.00  0.00     0.123 A 
ATOM     37  F   UNL     1     -14.219 -33.541 -22.818  1.00  0.00    -0.207 F 
ENDBRANCH  23  31
ENDBRANCH  22  23
ENDBRANCH   1  22
TORSDOF 7
ENDMDL
MODEL 2
REMARK VINA RESULT:      -3.4      3.491      6.208
REMARK SMILES O=C1NCN(c2ccccc2)C12CC[NH+](CCCC(c1ccc(F)cc1)c1ccc(F)cc1)CC2
REMARK SMILES IDX 17 1 16 2 15 3 1 4 2 5 3 6 12 7 4 8 5 9 13 10 35 11 14 12
REMARK SMILES IDX 34 13 6 16 7 17 11 18 8 19 10 20 9 21 18 22 19 23 20 24
REMARK SMILES IDX 21 25 26 26 22 27 25 28 23 29 24 30 27 31 28 32 33 33 29 34
REMARK SMILES IDX 32 35 30 36 31 37
REMARK H PARENT 3 14 15 15
ROOT
ATOM      1  C   UNL     1     -14.232 -33.395 -23.353  1.00  0.00     0.062 C 
ENDROOT
BRANCH   1   2
ATOM      2  C   UNL     1     -13.639 -33.972 -24.604  1.00  0.00     0.262 C 
BRANCH   2   3
ATOM      3  N   UNL     1     -14.630 -33.980 -25.674  1.00  0.00    -0.335 N 
ATOM      4  O   UNL     1     -15.478 -32.856 -28.580  1.00  0.00    -0.272 OA
ATOM      5  C   UNL     1     -16.623 -33.307 -28.369  1.00  0.00     0.247 C 
ATOM      6  N   UNL     1     -17.698 -33.196 -29.269  1.00  0.00    -0.336 N 
ATOM      7  C   UNL     1     -17.058 -34.045 -27.123  1.00  0.00     0.131 C 
ATOM      8  C   UNL     1     -18.641 -34.200 -28.889  1.00  0.00     0.238 C 
ATOM      9  N   UNL     1     -18.456 -34.332 -27.436  1.00  0.00    -0.339 N 
ATOM     10  C   UNL     1     -16.915 -33.117 -25.934  1.00  0.00     0.100 C 
ATOM     11  C   UNL     1     -16.205 -35.256 -26.993  1.00  0.00     0.100 C 
ATOM     12  C   UNL     1     -15.465 -32.796 -25.658  1.00  0.00     0.265 C 
ATOM     13  C   UNL     1     -15.405 -35.191 -25.734  1.00  0.00     0.265 C 
ATOM     14  H   UNL     1     -17.767 -32.500 -30.059  1.00  0.00     0.165 HD
ATOM     15  H   UNL     1     -14.061 -33.935 -26.547  1.00  0.00     0.348 HD
BRANCH   9  16
ATOM     16  C   UNL     1     -19.541 -34.668 -26.587  1.00  0.00     0.039 A 
ATOM     17  C   UNL     1     -20.322 -33.693 -26.013  1.00  0.00     0.026 A 
ATOM     18  C   UNL     1     -19.832 -35.976 -26.349  1.00  0.00     0.026 A 
ATOM     19  C   UNL     1     -21.406 -34.013 -25.190  1.00  0.00     0.002 A 
ATOM     20  C   UNL     1     -20.888 -36.311 -25.547  1.00  0.00     0.002 A 
ATOM     21  C   UNL     1     -21.673 -35.348 -24.970  1.00  0.00     0.000 A 
ENDBRANCH   9  16
ENDBRANCH   2   3
ENDBRANCH   1   2
BRANCH   1  22
ATOM     22  C   UNL     1     -13.450 -32.370 -22.653  1.00  0.00     0.019 C 
BRANCH  22  23
ATOM     23  C   UNL     1     -13.461 -32.220 -21.205  1.00  0.00     0.049 C 
BRANCH  23  24
ATOM     24  C   UNL     1     -13.578 -30.806 -20.697  1.00  0.00    -0.040 A 
ATOM     25  C   UNL     1     -13.426 -30.624 -19.340  1.00  0.00     0.007 A 
ATOM     26  C   UNL     1     -13.848 -29.746 -21.520  1.00  0.00     0.007 A 
ATOM     27  C   UNL     1     -13.542 -29.369 -18.797  1.00  0.00     0.039 A 
ATOM     28  C   UNL     1     -13.963 -28.496 -20.974  1.00  0.00     0.039 A 
ATOM     29  C   UNL     1     -13.812 -28.283 -19.599  1.00  0.00     0.123 A 
ATOM     30  F   UNL     1     -13.925 -27.047 -19.050  1.00  0.00    -0.207 F 
ENDBRANCH  23  24
BRANCH  23  31
ATOM     31  C   UNL     1     -14.224 -33.131 -20.368  1.00  0.00    -0.040 A 
ATOM     32  C   UNL     1     -15.056 -34.129 -20.792  1.00  0.00     0.007 A 
ATOM     33  C   UNL     1     -14.088 -32.933 -18.987  1.00  0.00     0.007 A 
ATOM     34  C   UNL     1     -15.729 -34.900 -19.837  1.00  0.00     0.039 A 
ATOM     35  C   UNL     1     -14.735 -33.675 -18.052  1.00  0.00     0.039 A 
ATOM     36  C   UNL     1     -15.570 -34.676 -18.493  1.00  0.00     0.123 A 
ATOM     37  F   UNL     1     -16.211 -35.411 -17.545  1.00  0.00    -0.207 F 
ENDBRANCH  23  31
ENDBRANCH  22  23
ENDBRANCH   1  22
TORSDOF 7
ENDMDL
MODEL 3
REMARK VINA RESULT:      -3.1      2.851      6.339
REMARK SMILES O=C1NCN(c2ccccc2)C12CC[NH+](CCCC(c1ccc(F)cc1)c1ccc(F)cc1)CC2
REMARK SMILES IDX 17 1 16 2 15 3 1 4 2 5 3 6 12 7 4 8 5 9 13 10 35 11 14 12
REMARK SMILES IDX 34 13 6 16 7 17 11 18 8 19 10 20 9 21 18 22 19 23 20 24
REMARK SMILES IDX 21 25 26 26 22 27 25 28 23 29 24 30 27 31 28 32 33 33 29 34
REMARK SMILES IDX 32 35 30 36 31 37
REMARK H PARENT 3 14 15 15
ROOT
ATOM      1  C   UNL     1     -17.382 -35.022 -22.252  1.00  0.00     0.062 C 
ENDROOT
BRANCH   1   2
ATOM      2  C   UNL     1     -17.899 -36.014 -23.253  1.00  0.00     0.262 C 
BRANCH   2   3
ATOM      3  N   UNL     1     -17.553 -35.590 -24.605  1.00  0.00    -0.335 N 
ATOM      4  O   UNL     1     -15.350 -34.219 -26.528  1.00  0.00    -0.272 OA
ATOM      5  C   UNL     1     -16.239 -34.123 -27.399  1.00  0.00     0.247 C 
ATOM      6  N   UNL     1     -16.044 -33.556 -28.671  1.00  0.00    -0.336 N 
ATOM      7  C   UNL     1     -17.668 -34.591 -27.249  1.00  0.00     0.131 C 
ATOM      8  C   UNL     1     -17.106 -34.044 -29.493  1.00  0.00     0.238 C 
ATOM      9  N   UNL     1     -18.222 -34.238 -28.554  1.00  0.00    -0.339 N 
ATOM     10  C   UNL     1     -18.317 -33.815 -26.121  1.00  0.00     0.100 C 
ATOM     11  C   UNL     1     -17.639 -36.053 -26.978  1.00  0.00     0.100 C 
ATOM     12  C   UNL     1     -17.697 -34.161 -24.787  1.00  0.00     0.265 C 
ATOM     13  C   UNL     1     -18.224 -36.341 -25.634  1.00  0.00     0.265 C 
ATOM     14  H   UNL     1     -15.259 -32.902 -28.938  1.00  0.00     0.165 HD
ATOM     15  H   UNL     1     -16.535 -35.803 -24.684  1.00  0.00     0.348 HD
BRANCH   9  16
ATOM     16  C   UNL     1     -19.567 -34.063 -28.968  1.00  0.00     0.039 A 
ATOM     17  C   UNL     1     -20.166 -32.826 -28.928  1.00  0.00     0.026 A 
ATOM     18  C   UNL     1     -20.274 -35.128 -29.433  1.00  0.00     0.026 A 
ATOM     19  C   UNL     1     -21.485 -32.638 -29.353  1.00  0.00     0.002 A 
ATOM     20  C   UNL     1     -21.565 -34.966 -29.854  1.00  0.00     0.002 A 
ATOM     21  C   UNL     1     -22.173 -33.738 -29.818  1.00  0.00     0.000 A 
ENDBRANCH   9  16
ENDBRANCH   2   3
ENDBRANCH   1   2
BRANCH   1  22
ATOM     22  C   UNL     1     -16.366 -35.496 -21.306  1.00  0.00     0.019 C 
BRANCH  22  23
ATOM     23  C   UNL     1     -15.055 -34.874 -21.178  1.00  0.00     0.049 C 
BRANCH  23  24
ATOM     24  C   UNL     1     -14.601 -34.063 -22.363  1.00  0.00    -0.040 A 
ATOM     25  C   UNL     1     -15.055 -32.764 -22.433  1.00  0.00     0.007 A 
ATOM     26  C   UNL     1     -13.798 -34.577 -23.346  1.00  0.00     0.007 A 
ATOM     27  C   UNL     1     -14.706 -31.968 -23.494  1.00  0.00     0.039 A 
ATOM     28  C   UNL     1     -13.451 -33.779 -24.403  1.00  0.00     0.039 A 
ATOM     29  C   UNL     1     -13.899 -32.456 -24.497  1.00  0.00     0.123 A 
ATOM     30  F   UNL     1     -13.560 -31.659 -25.542  1.00  0.00    -0.207 F 
ENDBRANCH  23  24
BRANCH  23  31
ATOM     31  C   UNL     1     -14.651 -34.237 -19.935  1.00  0.00    -0.040 A 
ATOM     32  C   UNL     1     -14.690 -34.787 -18.685  1.00  0.00     0.007 A 
ATOM     33  C   UNL     1     -14.194 -32.919 -20.058  1.00  0.00     0.007 A 
ATOM     34  C   UNL     1     -14.277 -34.014 -17.593  1.00  0.00     0.039 A 
ATOM     35  C   UNL     1     -13.790 -32.160 -19.007  1.00  0.00     0.039 A 
ATOM     36  C   UNL     1     -13.835 -32.725 -17.754  1.00  0.00     0.123 A 
ATOM     37  F   UNL     1     -13.427 -31.953 -16.711  1.00  0.00    -0.207 F 
ENDBRANCH  23  31
ENDBRANCH  22  23
ENDBRANCH   1  22
TORSDOF 7
ENDMDL
MODEL 4
REMARK VINA RESULT:      -3.0      4.044      6.808
REMARK SMILES O=C1NCN(c2ccccc2)C12CC[NH+](CCCC(c1ccc(F)cc1)c1ccc(F)cc1)CC2
REMARK SMILES IDX 17 1 16 2 15 3 1 4 2 5 3 6 12 7 4 8 5 9 13 10 35 11 14 12
REMARK SMILES IDX 34 13 6 16 7 17 11 18 8 19 10 20 9 21 18 22 19 23 20 24
REMARK SMILES IDX 21 25 26 26 22 27 25 28 23 29 24 30 27 31 28 32 33 33 29 34
REMARK SMILES IDX 32 35 30 36 31 37
REMARK H PARENT 3 14 15 15
ROOT
ATOM      1  C   UNL     1     -13.727 -30.568 -22.797  1.00  0.00     0.062 C 
ENDROOT
BRANCH   1   2
ATOM      2  C   UNL     1     -13.749 -32.012 -22.391  1.00  0.00     0.262 C 
BRANCH   2   3
ATOM      3  N   UNL     1     -15.009 -32.628 -22.791  1.00  0.00    -0.335 N 
ATOM      4  O   UNL     1     -17.721 -34.101 -21.839  1.00  0.00    -0.272 OA
ATOM      5  C   UNL     1     -17.907 -34.427 -23.030  1.00  0.00     0.247 C 
ATOM      6  N   UNL     1     -19.002 -35.183 -23.484  1.00  0.00    -0.336 N 
ATOM      7  C   UNL     1     -17.001 -34.072 -24.187  1.00  0.00     0.131 C 
ATOM      8  C   UNL     1     -19.099 -34.942 -24.889  1.00  0.00     0.238 C 
ATOM      9  N   UNL     1     -17.710 -34.693 -25.304  1.00  0.00    -0.339 N 
ATOM     10  C   UNL     1     -15.642 -34.699 -23.950  1.00  0.00     0.100 C 
ATOM     11  C   UNL     1     -16.927 -32.589 -24.266  1.00  0.00     0.100 C 
ATOM     12  C   UNL     1     -14.948 -34.075 -22.762  1.00  0.00     0.265 C 
ATOM     13  C   UNL     1     -15.523 -32.130 -24.040  1.00  0.00     0.265 C 
ATOM     14  H   UNL     1     -19.614 -35.798 -22.883  1.00  0.00     0.165 HD
ATOM     15  H   UNL     1     -15.680 -32.340 -22.046  1.00  0.00     0.348 HD
BRANCH   9  16
ATOM     16  C   UNL     1     -17.254 -35.059 -26.596  1.00  0.00     0.039 A 
ATOM     17  C   UNL     1     -17.769 -34.466 -27.724  1.00  0.00     0.026 A 
ATOM     18  C   UNL     1     -16.275 -35.996 -26.726  1.00  0.00     0.026 A 
ATOM     19  C   UNL     1     -17.313 -34.805 -29.002  1.00  0.00     0.002 A 
ATOM     20  C   UNL     1     -15.815 -36.341 -27.966  1.00  0.00     0.002 A 
ATOM     21  C   UNL     1     -16.321 -35.757 -29.098  1.00  0.00     0.000 A 
ENDBRANCH   9  16
ENDBRANCH   2   3
ENDBRANCH   1   2
BRANCH   1  22
ATOM     22  C   UNL     1     -15.019 -29.934 -23.083  1.00  0.00     0.019 C 
BRANCH  22  23
ATOM     23  C   UNL     1     -15.192 -28.490 -23.149  1.00  0.00     0.049 C 
BRANCH  23  24
ATOM     24  C   UNL     1     -14.864 -27.736 -21.887  1.00  0.00    -0.040 A 
ATOM     25  C   UNL     1     -14.035 -28.369 -20.988  1.00  0.00     0.007 A 
ATOM     26  C   UNL     1     -15.374 -26.494 -21.615  1.00  0.00     0.007 A 
ATOM     27  C   UNL     1     -13.708 -27.758 -19.804  1.00  0.00     0.039 A 
ATOM     28  C   UNL     1     -15.045 -25.888 -20.433  1.00  0.00     0.039 A 
ATOM     29  C   UNL     1     -14.204 -26.510 -19.502  1.00  0.00     0.123 A 
ATOM     30  F   UNL     1     -13.874 -25.915 -18.328  1.00  0.00    -0.207 F 
ENDBRANCH  23  24
BRANCH  23  31
ATOM     31  C   UNL     1     -14.764 -27.742 -24.320  1.00  0.00    -0.040 A 
ATOM     32  C   UNL     1     -13.892 -28.162 -25.284  1.00  0.00     0.007 A 
ATOM     33  C   UNL     1     -15.304 -26.454 -24.439  1.00  0.00     0.007 A 
ATOM     34  C   UNL     1     -13.578 -27.293 -26.337  1.00  0.00     0.039 A 
ATOM     35  C   UNL     1     -15.008 -25.604 -25.455  1.00  0.00     0.039 A 
ATOM     36  C   UNL     1     -14.128 -26.039 -26.419  1.00  0.00     0.123 A 
ATOM     37  F   UNL     1     -13.841 -25.177 -27.432  1.00  0.00    -0.207 F 
ENDBRANCH  23  31
ENDBRANCH  22  23
ENDBRANCH   1  22
TORSDOF 7
ENDMDL
MODEL 5
REMARK VINA RESULT:      -2.6      3.895      7.716
REMARK SMILES O=C1NCN(c2ccccc2)C12CC[NH+](CCCC(c1ccc(F)cc1)c1ccc(F)cc1)CC2
REMARK SMILES IDX 17 1 16 2 15 3 1 4 2 5 3 6 12 7 4 8 5 9 13 10 35 11 14 12
REMARK SMILES IDX 34 13 6 16 7 17 11 18 8 19 10 20 9 21 18 22 19 23 20 24
REMARK SMILES IDX 21 25 26 26 22 27 25 28 23 29 24 30 27 31 28 32 33 33 29 34
REMARK SMILES IDX 32 35 30 36 31 37
REMARK H PARENT 3 14 15 15
ROOT
ATOM      1  C   UNL     1     -21.564 -35.629 -24.679  1.00  0.00     0.062 C 
ENDROOT
BRANCH   1   2
ATOM      2  C   UNL     1     -20.956 -34.302 -24.336  1.00  0.00     0.262 C 
BRANCH   2   3
ATOM      3  N   UNL     1     -19.561 -34.473 -23.948  1.00  0.00    -0.335 N 
ATOM      4  O   UNL     1     -17.484 -35.251 -21.601  1.00  0.00    -0.272 OA
ATOM      5  C   UNL     1     -16.574 -34.776 -22.312  1.00  0.00     0.247 C 
ATOM      6  N   UNL     1     -15.219 -34.729 -21.939  1.00  0.00    -0.336 N 
ATOM      7  C   UNL     1     -16.760 -34.173 -23.685  1.00  0.00     0.131 C 
ATOM      8  C   UNL     1     -14.478 -34.565 -23.150  1.00  0.00     0.238 C 
ATOM      9  N   UNL     1     -15.387 -33.808 -24.024  1.00  0.00    -0.339 N 
ATOM     10  C   UNL     1     -17.663 -32.962 -23.565  1.00  0.00     0.100 C 
ATOM     11  C   UNL     1     -17.344 -35.221 -24.564  1.00  0.00     0.100 C 
ATOM     12  C   UNL     1     -19.066 -33.358 -23.168  1.00  0.00     0.265 C 
ATOM     13  C   UNL     1     -18.691 -34.796 -25.049  1.00  0.00     0.265 C 
ATOM     14  H   UNL     1     -14.851 -34.803 -20.953  1.00  0.00     0.165 HD
ATOM     15  H   UNL     1     -19.574 -35.302 -23.314  1.00  0.00     0.348 HD
BRANCH   9  16
ATOM     16  C   UNL     1     -14.886 -32.892 -24.984  1.00  0.00     0.039 A 
ATOM     17  C   UNL     1     -14.860 -33.209 -26.321  1.00  0.00     0.026 A 
ATOM     18  C   UNL     1     -14.444 -31.669 -24.583  1.00  0.00     0.026 A 
ATOM     19  C   UNL     1     -14.388 -32.306 -27.279  1.00  0.00     0.002 A 
ATOM     20  C   UNL     1     -13.977 -30.771 -25.503  1.00  0.00     0.002 A 
ATOM     21  C   UNL     1     -13.946 -31.077 -26.839  1.00  0.00     0.000 A 
ENDBRANCH   9  16
ENDBRANCH   2   3
ENDBRANCH   1   2
BRANCH   1  22
ATOM     22  C   UNL     1     -21.007 -36.341 -25.834  1.00  0.00     0.019 C 
BRANCH  22  23
ATOM     23  C   UNL     1     -21.384 -36.036 -27.208  1.00  0.00     0.049 C 
BRANCH  23  24
ATOM     24  C   UNL     1     -22.864 -35.939 -27.470  1.00  0.00    -0.040 A 
ATOM     25  C   UNL     1     -23.699 -36.341 -26.452  1.00  0.00     0.007 A 
ATOM     26  C   UNL     1     -23.375 -35.502 -28.663  1.00  0.00     0.007 A 
ATOM     27  C   UNL     1     -25.060 -36.306 -26.622  1.00  0.00     0.039 A 
ATOM     28  C   UNL     1     -24.733 -35.468 -28.829  1.00  0.00     0.039 A 
ATOM     29  C   UNL     1     -25.604 -35.870 -27.809  1.00  0.00     0.123 A 
ATOM     30  F   UNL     1     -26.952 -35.841 -27.966  1.00  0.00    -0.207 F 
ENDBRANCH  23  24
BRANCH  23  31
ATOM     31  C   UNL     1     -20.661 -35.034 -27.973  1.00  0.00    -0.040 A 
ATOM     32  C   UNL     1     -19.457 -35.195 -28.601  1.00  0.00     0.007 A 
ATOM     33  C   UNL     1     -21.274 -33.776 -28.045  1.00  0.00     0.007 A 
ATOM     34  C   UNL     1     -18.897 -34.106 -29.280  1.00  0.00     0.039 A 
ATOM     35  C   UNL     1     -20.741 -32.714 -28.701  1.00  0.00     0.039 A 
ATOM     36  C   UNL     1     -19.529 -32.889 -29.327  1.00  0.00     0.123 A 
ATOM     37  F   UNL     1     -19.007 -31.817 -29.981  1.00  0.00    -0.207 F 
ENDBRANCH  23  31
ENDBRANCH  22  23
ENDBRANCH   1  22
TORSDOF 7
ENDMDL
MODEL 6
REMARK VINA RESULT:      -2.6     11.958     15.837
REMARK SMILES O=C1NCN(c2ccccc2)C12CC[NH+](CCCC(c1ccc(F)cc1)c1ccc(F)cc1)CC2
REMARK SMILES IDX 17 1 16 2 15 3 1 4 2 5 3 6 12 7 4 8 5 9 13 10 35 11 14 12
REMARK SMILES IDX 34 13 6 16 7 17 11 18 8 19 10 20 9 21 18 22 19 23 20 24
REMARK SMILES IDX 21 25 26 26 22 27 25 28 23 29 24 30 27 31 28 32 33 33 29 34
REMARK SMILES IDX 32 35 30 36 31 37
REMARK H PARENT 3 14 15 15
ROOT
ATOM      1  C   UNL     1     -14.900 -22.646 -23.239  1.00  0.00     0.062 C 
ENDROOT
BRANCH   1   2
ATOM      2  C   UNL     1     -16.036 -21.870 -23.837  1.00  0.00     0.262 C 
BRANCH   2   3
ATOM      3  N   UNL     1     -15.665 -20.467 -23.984  1.00  0.00    -0.335 N 
ATOM      4  O   UNL     1     -15.815 -17.488 -22.746  1.00  0.00    -0.272 OA
ATOM      5  C   UNL     1     -15.406 -17.061 -23.845  1.00  0.00     0.247 C 
ATOM      6  N   UNL     1     -15.195 -15.703 -24.140  1.00  0.00    -0.336 N 
ATOM      7  C   UNL     1     -15.066 -17.915 -25.046  1.00  0.00     0.131 C 
ATOM      8  C   UNL     1     -14.318 -15.670 -25.267  1.00  0.00     0.238 C 
ATOM      9  N   UNL     1     -14.643 -16.899 -26.007  1.00  0.00    -0.339 N 
ATOM     10  C   UNL     1     -16.317 -18.643 -25.493  1.00  0.00     0.100 C 
ATOM     11  C   UNL     1     -13.986 -18.854 -24.642  1.00  0.00     0.100 C 
ATOM     12  C   UNL     1     -16.763 -19.655 -24.464  1.00  0.00     0.265 C 
ATOM     13  C   UNL     1     -14.463 -20.266 -24.750  1.00  0.00     0.265 C 
ATOM     14  H   UNL     1     -15.614 -14.888 -23.614  1.00  0.00     0.165 HD
ATOM     15  H   UNL     1     -15.463 -20.156 -23.009  1.00  0.00     0.348 HD
BRANCH   9  16
ATOM     16  C   UNL     1     -14.539 -16.953 -27.420  1.00  0.00     0.039 A 
ATOM     17  C   UNL     1     -14.858 -15.866 -28.197  1.00  0.00     0.026 A 
ATOM     18  C   UNL     1     -14.096 -18.092 -28.021  1.00  0.00     0.026 A 
ATOM     19  C   UNL     1     -14.740 -15.901 -29.590  1.00  0.00     0.002 A 
ATOM     20  C   UNL     1     -13.973 -18.148 -29.382  1.00  0.00     0.002 A 
ATOM     21  C   UNL     1     -14.289 -17.069 -30.167  1.00  0.00     0.000 A 
ENDBRANCH   9  16
ENDBRANCH   2   3
ENDBRANCH   1   2
BRANCH   1  22
ATOM     22  C   UNL     1     -15.192 -23.439 -22.040  1.00  0.00     0.019 C 
BRANCH  22  23
ATOM     23  C   UNL     1     -15.399 -22.841 -20.728  1.00  0.00     0.049 C 
BRANCH  23  24
ATOM     24  C   UNL     1     -14.860 -23.626 -19.561  1.00  0.00    -0.040 A 
ATOM     25  C   UNL     1     -15.131 -23.130 -18.305  1.00  0.00     0.007 A 
ATOM     26  C   UNL     1     -14.114 -24.764 -19.718  1.00  0.00     0.007 A 
ATOM     27  C   UNL     1     -14.654 -23.774 -17.192  1.00  0.00     0.039 A 
ATOM     28  C   UNL     1     -13.641 -25.404 -18.605  1.00  0.00     0.039 A 
ATOM     29  C   UNL     1     -13.903 -24.921 -17.317  1.00  0.00     0.123 A 
ATOM     30  F   UNL     1     -13.436 -25.550 -16.209  1.00  0.00    -0.207 F 
ENDBRANCH  23  24
BRANCH  23  31
ATOM     31  C   UNL     1     -15.203 -21.415 -20.521  1.00  0.00    -0.040 A 
ATOM     32  C   UNL     1     -16.178 -20.461 -20.430  1.00  0.00     0.007 A 
ATOM     33  C   UNL     1     -13.869 -21.001 -20.425  1.00  0.00     0.007 A 
ATOM     34  C   UNL     1     -15.801 -19.125 -20.248  1.00  0.00     0.039 A 
ATOM     35  C   UNL     1     -13.491 -19.709 -20.248  1.00  0.00     0.039 A 
ATOM     36  C   UNL     1     -14.482 -18.758 -20.159  1.00  0.00     0.123 A 
ATOM     37  F   UNL     1     -14.089 -17.468 -19.981  1.00  0.00    -0.207 F 
ENDBRANCH  23  31
ENDBRANCH  22  23
ENDBRANCH   1  22
TORSDOF 7
ENDMDL
MODEL 7
REMARK VINA RESULT:      -2.5      5.332      7.721
REMARK SMILES O=C1NCN(c2ccccc2)C12CC[NH+](CCCC(c1ccc(F)cc1)c1ccc(F)cc1)CC2
REMARK SMILES IDX 17 1 16 2 15 3 1 4 2 5 3 6 12 7 4 8 5 9 13 10 35 11 14 12
REMARK SMILES IDX 34 13 6 16 7 17 11 18 8 19 10 20 9 21 18 22 19 23 20 24
REMARK SMILES IDX 21 25 26 26 22 27 25 28 23 29 24 30 27 31 28 32 33 33 29 34
REMARK SMILES IDX 32 35 30 36 31 37
REMARK H PARENT 3 14 15 15
ROOT
ATOM      1  C   UNL     1     -15.124 -28.987 -22.081  1.00  0.00     0.062 C 
ENDROOT
BRANCH   1   2
ATOM      2  C   UNL     1     -14.366 -30.253 -21.809  1.00  0.00     0.262 C 
BRANCH   2   3
ATOM      3  N   UNL     1     -14.423 -31.133 -22.971  1.00  0.00    -0.335 N 
ATOM      4  O   UNL     1     -13.426 -31.688 -25.992  1.00  0.00    -0.272 OA
ATOM      5  C   UNL     1     -14.326 -32.549 -26.081  1.00  0.00     0.247 C 
ATOM      6  N   UNL     1     -14.576 -33.318 -27.231  1.00  0.00    -0.336 N 
ATOM      7  C   UNL     1     -15.298 -32.917 -24.983  1.00  0.00     0.131 C 
ATOM      8  C   UNL     1     -15.324 -34.455 -26.795  1.00  0.00     0.238 C 
ATOM      9  N   UNL     1     -16.086 -33.959 -25.639  1.00  0.00    -0.339 N 
ATOM     10  C   UNL     1     -16.131 -31.697 -24.643  1.00  0.00     0.100 C 
ATOM     11  C   UNL     1     -14.507 -33.396 -23.819  1.00  0.00     0.100 C 
ATOM     12  C   UNL     1     -15.288 -30.615 -24.010  1.00  0.00     0.265 C 
ATOM     13  C   UNL     1     -14.725 -32.502 -22.644  1.00  0.00     0.265 C 
ATOM     14  H   UNL     1     -14.261 -33.080 -28.210  1.00  0.00     0.165 HD
ATOM     15  H   UNL     1     -13.451 -31.114 -23.350  1.00  0.00     0.348 HD
BRANCH   9  16
ATOM     16  C   UNL     1     -17.369 -34.476 -25.329  1.00  0.00     0.039 A 
ATOM     17  C   UNL     1     -17.609 -35.111 -24.134  1.00  0.00     0.026 A 
ATOM     18  C   UNL     1     -18.389 -34.326 -26.218  1.00  0.00     0.026 A 
ATOM     19  C   UNL     1     -18.876 -35.606 -23.809  1.00  0.00     0.002 A 
ATOM     20  C   UNL     1     -19.636 -34.804 -25.921  1.00  0.00     0.002 A 
ATOM     21  C   UNL     1     -19.886 -35.438 -24.732  1.00  0.00     0.000 A 
ENDBRANCH   9  16
ENDBRANCH   2   3
ENDBRANCH   1   2
BRANCH   1  22
ATOM     22  C   UNL     1     -14.335 -27.766 -22.281  1.00  0.00     0.019 C 
BRANCH  22  23
ATOM     23  C   UNL     1     -14.941 -26.475 -22.577  1.00  0.00     0.049 C 
BRANCH  23  24
ATOM     24  C   UNL     1     -14.929 -25.476 -21.449  1.00  0.00    -0.040 A 
ATOM     25  C   UNL     1     -14.221 -24.314 -21.661  1.00  0.00     0.007 A 
ATOM     26  C   UNL     1     -15.560 -25.703 -20.255  1.00  0.00     0.007 A 
ATOM     27  C   UNL     1     -14.142 -23.365 -20.673  1.00  0.00     0.039 A 
ATOM     28  C   UNL     1     -15.479 -24.754 -19.272  1.00  0.00     0.039 A 
ATOM     29  C   UNL     1     -14.767 -23.564 -19.463  1.00  0.00     0.123 A 
ATOM     30  F   UNL     1     -14.681 -22.618 -18.493  1.00  0.00    -0.207 F 
ENDBRANCH  23  24
BRANCH  23  31
ATOM     31  C   UNL     1     -14.702 -25.814 -23.849  1.00  0.00    -0.040 A 
ATOM     32  C   UNL     1     -15.301 -24.673 -24.303  1.00  0.00     0.007 A 
ATOM     33  C   UNL     1     -13.768 -26.441 -24.684  1.00  0.00     0.007 A 
ATOM     34  C   UNL     1     -14.959 -24.188 -25.572  1.00  0.00     0.039 A 
ATOM     35  C   UNL     1     -13.428 -25.980 -25.915  1.00  0.00     0.039 A 
ATOM     36  C   UNL     1     -14.039 -24.831 -26.361  1.00  0.00     0.123 A 
ATOM     37  F   UNL     1     -13.689 -24.380 -27.595  1.00  0.00    -0.207 F 
ENDBRANCH  23  31
ENDBRANCH  22  23
ENDBRANCH   1  22
TORSDOF 7
ENDMDL
MODEL 8
REMARK VINA RESULT:      -2.4     10.123     13.415
REMARK SMILES O=C1NCN(c2ccccc2)C12CC[NH+](CCCC(c1ccc(F)cc1)c1ccc(F)cc1)CC2
REMARK SMILES IDX 17 1 16 2 15 3 1 4 2 5 3 6 12 7 4 8 5 9 13 10 35 11 14 12
REMARK SMILES IDX 34 13 6 16 7 17 11 18 8 19 10 20 9 21 18 22 19 23 20 24
REMARK SMILES IDX 21 25 26 26 22 27 25 28 23 29 24 30 27 31 28 32 33 33 29 34
REMARK SMILES IDX 32 35 30 36 31 37
REMARK H PARENT 3 14 15 15
ROOT
ATOM      1  C   UNL     1     -15.620 -23.250 -23.550  1.00  0.00     0.062 C 
ENDROOT
BRANCH   1   2
ATOM      2  C   UNL     1     -14.291 -22.557 -23.615  1.00  0.00     0.262 C 
BRANCH   2   3
ATOM      3  N   UNL     1     -14.417 -21.183 -23.143  1.00  0.00    -0.335 N 
ATOM      4  O   UNL     1     -14.575 -19.202 -20.598  1.00  0.00    -0.272 OA
ATOM      5  C   UNL     1     -14.962 -18.307 -21.377  1.00  0.00     0.247 C 
ATOM      6  N   UNL     1     -15.287 -16.997 -20.982  1.00  0.00    -0.336 N 
ATOM      7  C   UNL     1     -15.148 -18.464 -22.869  1.00  0.00     0.131 C 
ATOM      8  C   UNL     1     -15.221 -16.196 -22.163  1.00  0.00     0.238 C 
ATOM      9  N   UNL     1     -15.591 -17.123 -23.243  1.00  0.00    -0.339 N 
ATOM     10  C   UNL     1     -16.216 -19.510 -23.117  1.00  0.00     0.100 C 
ATOM     11  C   UNL     1     -13.837 -18.854 -23.450  1.00  0.00     0.100 C 
ATOM     12  C   UNL     1     -15.755 -20.881 -22.679  1.00  0.00     0.265 C 
ATOM     13  C   UNL     1     -13.933 -20.204 -24.082  1.00  0.00     0.265 C 
ATOM     14  H   UNL     1     -15.527 -16.694 -19.999  1.00  0.00     0.165 HD
ATOM     15  H   UNL     1     -13.792 -21.143 -22.309  1.00  0.00     0.348 HD
BRANCH   9  16
ATOM     16  C   UNL     1     -16.278 -16.667 -24.397  1.00  0.00     0.039 A 
ATOM     17  C   UNL     1     -17.094 -15.562 -24.347  1.00  0.00     0.026 A 
ATOM     18  C   UNL     1     -16.114 -17.318 -25.581  1.00  0.00     0.026 A 
ATOM     19  C   UNL     1     -17.759 -15.091 -25.483  1.00  0.00     0.002 A 
ATOM     20  C   UNL     1     -16.756 -16.875 -26.704  1.00  0.00     0.002 A 
ATOM     21  C   UNL     1     -17.571 -15.774 -26.666  1.00  0.00     0.000 A 
ENDBRANCH   9  16
ENDBRANCH   2   3
ENDBRANCH   1   2
BRANCH   1  22
ATOM     22  C   UNL     1     -15.674 -24.528 -22.833  1.00  0.00     0.019 C 
BRANCH  22  23
ATOM     23  C   UNL     1     -15.620 -25.817 -23.510  1.00  0.00     0.049 C 
BRANCH  23  24
ATOM     24  C   UNL     1     -15.138 -25.783 -24.936  1.00  0.00    -0.040 A 
ATOM     25  C   UNL     1     -16.106 -25.808 -25.916  1.00  0.00     0.007 A 
ATOM     26  C   UNL     1     -13.809 -25.756 -25.266  1.00  0.00     0.007 A 
ATOM     27  C   UNL     1     -15.746 -25.804 -27.240  1.00  0.00     0.039 A 
ATOM     28  C   UNL     1     -13.455 -25.752 -26.588  1.00  0.00     0.039 A 
ATOM     29  C   UNL     1     -14.419 -25.775 -27.603  1.00  0.00     0.123 A 
ATOM     30  F   UNL     1     -14.076 -25.772 -28.916  1.00  0.00    -0.207 F 
ENDBRANCH  23  24
BRANCH  23  31
ATOM     31  C   UNL     1     -15.117 -26.997 -22.826  1.00  0.00    -0.040 A 
ATOM     32  C   UNL     1     -14.735 -28.176 -23.402  1.00  0.00     0.007 A 
ATOM     33  C   UNL     1     -15.041 -26.895 -21.430  1.00  0.00     0.007 A 
ATOM     34  C   UNL     1     -14.291 -29.219 -22.580  1.00  0.00     0.039 A 
ATOM     35  C   UNL     1     -14.612 -27.898 -20.623  1.00  0.00     0.039 A 
ATOM     36  C   UNL     1     -14.231 -29.079 -21.216  1.00  0.00     0.123 A 
ATOM     37  F   UNL     1     -13.803 -30.076 -20.395  1.00  0.00    -0.207 F 
ENDBRANCH  23  31
ENDBRANCH  22  23
ENDBRANCH   1  22
TORSDOF 7
ENDMDL
MODEL 9
REMARK VINA RESULT:      -2.0      2.322      3.656
REMARK SMILES O=C1NCN(c2ccccc2)C12CC[NH+](CCCC(c1ccc(F)cc1)c1ccc(F)cc1)CC2
REMARK SMILES IDX 17 1 16 2 15 3 1 4 2 5 3 6 12 7 4 8 5 9 13 10 35 11 14 12
REMARK SMILES IDX 34 13 6 16 7 17 11 18 8 19 10 20 9 21 18 22 19 23 20 24
REMARK SMILES IDX 21 25 26 26 22 27 25 28 23 29 24 30 27 31 28 32 33 33 29 34
REMARK SMILES IDX 32 35 30 36 31 37
REMARK H PARENT 3 14 15 15
ROOT
ATOM      1  C   UNL     1     -14.558 -30.600 -28.902  1.00  0.00     0.062 C 
ENDROOT
BRANCH   1   2
ATOM      2  C   UNL     1     -15.570 -31.086 -29.896  1.00  0.00     0.262 C 
BRANCH   2   3
ATOM      3  N   UNL     1     -16.186 -32.321 -29.423  1.00  0.00    -0.335 N 
ATOM      4  O   UNL     1     -17.982 -34.901 -30.162  1.00  0.00    -0.272 OA
ATOM      5  C   UNL     1     -18.099 -35.113 -28.937  1.00  0.00     0.247 C 
ATOM      6  N   UNL     1     -18.831 -36.177 -28.382  1.00  0.00    -0.336 N 
ATOM      7  C   UNL     1     -17.482 -34.275 -27.840  1.00  0.00     0.131 C 
ATOM      8  C   UNL     1     -18.348 -36.341 -27.048  1.00  0.00     0.238 C 
ATOM      9  N   UNL     1     -17.936 -34.987 -26.648  1.00  0.00    -0.339 N 
ATOM     10  C   UNL     1     -18.051 -32.873 -27.923  1.00  0.00     0.100 C 
ATOM     11  C   UNL     1     -16.007 -34.293 -28.032  1.00  0.00     0.100 C 
ATOM     12  C   UNL     1     -17.606 -32.172 -29.186  1.00  0.00     0.265 C 
ATOM     13  C   UNL     1     -15.505 -32.912 -28.301  1.00  0.00     0.265 C 
ATOM     14  H   UNL     1     -19.584 -36.728 -28.876  1.00  0.00     0.165 HD
ATOM     15  H   UNL     1     -16.082 -32.979 -30.226  1.00  0.00     0.348 HD
BRANCH   9  16
ATOM     16  C   UNL     1     -18.032 -34.559 -25.299  1.00  0.00     0.039 A 
ATOM     17  C   UNL     1     -19.088 -33.791 -24.872  1.00  0.00     0.026 A 
ATOM     18  C   UNL     1     -17.077 -34.931 -24.404  1.00  0.00     0.026 A 
ATOM     19  C   UNL     1     -19.204 -33.381 -23.540  1.00  0.00     0.002 A 
ATOM     20  C   UNL     1     -17.170 -34.541 -23.097  1.00  0.00     0.002 A 
ATOM     21  C   UNL     1     -18.219 -33.775 -22.659  1.00  0.00     0.000 A 
ENDBRANCH   9  16
ENDBRANCH   2   3
ENDBRANCH   1   2
BRANCH   1  22
ATOM     22  C   UNL     1     -15.070 -30.036 -27.648  1.00  0.00     0.019 C 
BRANCH  22  23
ATOM     23  C   UNL     1     -14.237 -29.276 -26.726  1.00  0.00     0.049 C 
BRANCH  23  24
ATOM     24  C   UNL     1     -14.164 -27.794 -26.984  1.00  0.00    -0.040 A 
ATOM     25  C   UNL     1     -13.558 -27.401 -28.157  1.00  0.00     0.007 A 
ATOM     26  C   UNL     1     -14.646 -26.866 -26.100  1.00  0.00     0.007 A 
ATOM     27  C   UNL     1     -13.430 -26.068 -28.453  1.00  0.00     0.039 A 
ATOM     28  C   UNL     1     -14.517 -25.537 -26.400  1.00  0.00     0.039 A 
ATOM     29  C   UNL     1     -13.906 -25.111 -27.585  1.00  0.00     0.123 A 
ATOM     30  F   UNL     1     -13.774 -23.795 -27.890  1.00  0.00    -0.207 F 
ENDBRANCH  23  24
BRANCH  23  31
ATOM     31  C   UNL     1     -14.269 -29.547 -25.298  1.00  0.00    -0.040 A 
ATOM     32  C   UNL     1     -14.685 -28.696 -24.313  1.00  0.00     0.007 A 
ATOM     33  C   UNL     1     -13.804 -30.813 -24.917  1.00  0.00     0.007 A 
ATOM     34  C   UNL     1     -14.627 -29.123 -22.980  1.00  0.00     0.039 A 
ATOM     35  C   UNL     1     -13.745 -31.238 -23.629  1.00  0.00     0.039 A 
ATOM     36  C   UNL     1     -14.166 -30.371 -22.648  1.00  0.00     0.123 A 
ATOM     37  F   UNL     1     -14.101 -30.811 -21.362  1.00  0.00    -0.207 F 
ENDBRANCH  23  31
ENDBRANCH  22  23
ENDBRANCH   1  22
TORSDOF 7
ENDMDL
