MODEL 1
REMARK VINA RESULT:      -4.7      0.000      0.000
REMARK SMILES CNCC[C@H](Oc1cccc2ccccc12)c1cccs1
REMARK SMILES IDX 4 1 3 2 2 3 1 4 5 6 6 7 7 8 8 9 16 10 9 11 15 12 11 13 10 14
REMARK SMILES IDX 14 15 12 16 13 17 17 18 18 19 21 20 19 21 20 22
REMARK H PARENT 2 5
ROOT
ATOM      1  C   UNL     1     -15.941 -20.815 -23.725  1.00  0.00     0.066 C 
ENDROOT
BRANCH   1   2
ATOM      2  C   UNL     1     -15.106 -22.017 -23.706  1.00  0.00     0.085 C 
BRANCH   2   3
ATOM      3  N   UNL     1     -15.230 -23.036 -24.648  1.00  0.00    -0.320 NA
ATOM      4  C   UNL     1     -15.240 -24.390 -24.271  1.00  0.00     0.101 C 
ATOM      5  H   UNL     1     -15.670 -22.848 -25.550  1.00  0.00     0.122 HD
ENDBRANCH   2   3
ENDBRANCH   1   2
BRANCH   1   6
ATOM      6  C   UNL     1     -15.476 -19.527 -23.164  1.00  0.00     0.215 C 
BRANCH   6   7
ATOM      7  O   UNL     1     -15.980 -19.127 -21.933  1.00  0.00    -0.484 OA
BRANCH   7   8
ATOM      8  C   UNL     1     -15.182 -18.769 -20.874  1.00  0.00     0.128 A 
ATOM      9  C   UNL     1     -14.602 -17.549 -20.723  1.00  0.00     0.047 A 
ATOM     10  C   UNL     1     -14.966 -19.750 -19.886  1.00  0.00     0.024 A 
ATOM     11  C   UNL     1     -13.810 -17.299 -19.602  1.00  0.00     0.004 A 
ATOM     12  C   UNL     1     -15.558 -20.995 -20.025  1.00  0.00     0.012 A 
ATOM     13  C   UNL     1     -14.186 -19.521 -18.768  1.00  0.00    -0.015 A 
ATOM     14  C   UNL     1     -13.601 -18.256 -18.642  1.00  0.00     0.009 A 
ATOM     15  C   UNL     1     -15.349 -21.950 -19.054  1.00  0.00     0.001 A 
ATOM     16  C   UNL     1     -13.982 -20.483 -17.803  1.00  0.00     0.009 A 
ATOM     17  C   UNL     1     -14.568 -21.713 -17.944  1.00  0.00     0.001 A 
ENDBRANCH   7   8
ENDBRANCH   6   7
BRANCH   6  18
ATOM     18  C   UNL     1     -15.854 -18.482 -24.203  1.00  0.00     0.045 A 
ATOM     19  C   UNL     1     -15.747 -18.501 -25.547  1.00  0.00     0.019 A 
ATOM     20  S   UNL     1     -16.573 -16.888 -23.881  1.00  0.00    -0.145 S 
ATOM     21  C   UNL     1     -16.147 -17.463 -26.272  1.00  0.00     0.012 A 
ATOM     22  C   UNL     1     -16.667 -16.387 -25.595  1.00  0.00     0.065 A 
ENDBRANCH   6  18
ENDBRANCH   1   6
TORSDOF 6
ENDMDL
MODEL 2
REMARK VINA RESULT:      -4.2      3.136      6.785
REMARK SMILES CNCC[C@H](Oc1cccc2ccccc12)c1cccs1
REMARK SMILES IDX 4 1 3 2 2 3 1 4 5 6 6 7 7 8 8 9 16 10 9 11 15 12 11 13 10 14
REMARK SMILES IDX 14 15 12 16 13 17 17 18 18 19 21 20 19 21 20 22
REMARK H PARENT 2 5
ROOT
ATOM      1  C   UNL     1     -15.440 -21.325 -21.126  1.00  0.00     0.066 C 
ENDROOT
BRANCH   1   2
ATOM      2  C   UNL     1     -15.780 -19.920 -21.365  1.00  0.00     0.085 C 
BRANCH   2   3
ATOM      3  N   UNL     1     -16.814 -19.529 -22.212  1.00  0.00    -0.320 NA
ATOM      4  C   UNL     1     -16.615 -19.379 -23.596  1.00  0.00     0.101 C 
ATOM      5  H   UNL     1     -17.785 -19.691 -21.943  1.00  0.00     0.122 HD
ENDBRANCH   2   3
ENDBRANCH   1   2
BRANCH   1   6
ATOM      6  C   UNL     1     -14.125 -21.732 -20.583  1.00  0.00     0.215 C 
BRANCH   6   7
ATOM      7  O   UNL     1     -13.433 -22.747 -21.233  1.00  0.00    -0.484 OA
BRANCH   7   8
ATOM      8  C   UNL     1     -13.736 -23.168 -22.505  1.00  0.00     0.128 A 
ATOM      9  C   UNL     1     -13.439 -22.476 -23.638  1.00  0.00     0.047 A 
ATOM     10  C   UNL     1     -14.397 -24.406 -22.621  1.00  0.00     0.024 A 
ATOM     11  C   UNL     1     -13.795 -23.005 -24.878  1.00  0.00     0.004 A 
ATOM     12  C   UNL     1     -14.700 -25.124 -21.474  1.00  0.00     0.012 A 
ATOM     13  C   UNL     1     -14.758 -24.946 -23.841  1.00  0.00    -0.015 A 
ATOM     14  C   UNL     1     -14.440 -24.211 -24.987  1.00  0.00     0.009 A 
ATOM     15  C   UNL     1     -15.341 -26.337 -21.590  1.00  0.00     0.001 A 
ATOM     16  C   UNL     1     -15.401 -26.161 -23.947  1.00  0.00     0.009 A 
ATOM     17  C   UNL     1     -15.698 -26.867 -22.812  1.00  0.00     0.001 A 
ENDBRANCH   7   8
ENDBRANCH   6   7
BRANCH   6  18
ATOM     18  C   UNL     1     -14.407 -22.178 -19.156  1.00  0.00     0.045 A 
ATOM     19  C   UNL     1     -15.305 -23.058 -18.672  1.00  0.00     0.019 A 
ATOM     20  S   UNL     1     -13.570 -21.614 -17.692  1.00  0.00    -0.145 S 
ATOM     21  C   UNL     1     -15.380 -23.302 -17.369  1.00  0.00     0.012 A 
ATOM     22  C   UNL     1     -14.510 -22.622 -16.552  1.00  0.00     0.065 A 
ENDBRANCH   6  18
ENDBRANCH   1   6
TORSDOF 6
ENDMDL
MODEL 3
REMARK VINA RESULT:      -4.0     11.350     13.549
REMARK SMILES CNCC[C@H](Oc1cccc2ccccc12)c1cccs1
REMARK SMILES IDX 4 1 3 2 2 3 1 4 5 6 6 7 7 8 8 9 16 10 9 11 15 12 11 13 10 14
REMARK SMILES IDX 14 15 12 16 13 17 17 18 18 19 21 20 19 21 20 22
REMARK H PARENT 2 5
ROOT
ATOM      1  C   UNL     1     -17.555 -33.140 -23.403  1.00  0.00     0.066 C 
ENDROOT
BRANCH   1   2
ATOM      2  C   UNL     1     -18.817 -33.705 -22.920  1.00  0.00     0.085 C 
BRANCH   2   3
ATOM      3  N   UNL     1     -20.047 -33.408 -23.502  1.00  0.00    -0.320 NA
ATOM      4  C   UNL     1     -20.521 -34.114 -24.622  1.00  0.00     0.101 C 
ATOM      5  H   UNL     1     -20.778 -32.955 -22.951  1.00  0.00     0.122 HD
ENDBRANCH   2   3
ENDBRANCH   1   2
BRANCH   1   6
ATOM      6  C   UNL     1     -16.387 -33.990 -23.723  1.00  0.00     0.215 C 
BRANCH   6   7
ATOM      7  O   UNL     1     -15.125 -33.536 -23.356  1.00  0.00    -0.484 OA
BRANCH   7   8
ATOM      8  C   UNL     1     -14.846 -32.216 -23.100  1.00  0.00     0.128 A 
ATOM      9  C   UNL     1     -14.941 -31.215 -24.016  1.00  0.00     0.047 A 
ATOM     10  C   UNL     1     -14.437 -31.899 -21.790  1.00  0.00     0.024 A 
ATOM     11  C   UNL     1     -14.632 -29.908 -23.640  1.00  0.00     0.004 A 
ATOM     12  C   UNL     1     -14.342 -32.909 -20.845  1.00  0.00     0.012 A 
ATOM     13  C   UNL     1     -14.127 -30.610 -21.398  1.00  0.00    -0.015 A 
ATOM     14  C   UNL     1     -14.234 -29.603 -22.363  1.00  0.00     0.009 A 
ATOM     15  C   UNL     1     -13.948 -32.595 -19.564  1.00  0.00     0.001 A 
ATOM     16  C   UNL     1     -13.732 -30.306 -20.113  1.00  0.00     0.009 A 
ATOM     17  C   UNL     1     -13.639 -31.307 -19.182  1.00  0.00     0.001 A 
ENDBRANCH   7   8
ENDBRANCH   6   7
BRANCH   6  18
ATOM     18  C   UNL     1     -16.419 -34.154 -25.235  1.00  0.00     0.045 A 
ATOM     19  C   UNL     1     -17.184 -33.552 -26.167  1.00  0.00     0.019 A 
ATOM     20  S   UNL     1     -15.397 -35.245 -26.198  1.00  0.00    -0.145 S 
ATOM     21  C   UNL     1     -17.042 -33.850 -27.454  1.00  0.00     0.012 A 
ATOM     22  C   UNL     1     -16.093 -34.788 -27.781  1.00  0.00     0.065 A 
ENDBRANCH   6  18
ENDBRANCH   1   6
TORSDOF 6
ENDMDL
MODEL 4
REMARK VINA RESULT:      -4.0      2.505      3.925
REMARK SMILES CNCC[C@H](Oc1cccc2ccccc12)c1cccs1
REMARK SMILES IDX 4 1 3 2 2 3 1 4 5 6 6 7 7 8 8 9 16 10 9 11 15 12 11 13 10 14
REMARK SMILES IDX 14 15 12 16 13 17 17 18 18 19 21 20 19 21 20 22
REMARK H PARENT 2 5
ROOT
ATOM      1  C   UNL     1     -16.844 -16.333 -24.098  1.00  0.00     0.066 C 
ENDROOT
BRANCH   1   2
ATOM      2  C   UNL     1     -15.953 -15.235 -23.717  1.00  0.00     0.085 C 
BRANCH   2   3
ATOM      3  N   UNL     1     -14.566 -15.367 -23.686  1.00  0.00    -0.320 NA
ATOM      4  C   UNL     1     -13.761 -14.931 -24.754  1.00  0.00     0.101 C 
ATOM      5  H   UNL     1     -14.078 -15.432 -22.792  1.00  0.00     0.122 HD
ENDBRANCH   2   3
ENDBRANCH   1   2
BRANCH   1   6
ATOM      6  C   UNL     1     -16.400 -17.744 -24.088  1.00  0.00     0.215 C 
BRANCH   6   7
ATOM      7  O   UNL     1     -15.328 -18.088 -23.272  1.00  0.00    -0.484 OA
BRANCH   7   8
ATOM      8  C   UNL     1     -15.474 -18.474 -21.962  1.00  0.00     0.128 A 
ATOM      9  C   UNL     1     -15.967 -17.681 -20.975  1.00  0.00     0.047 A 
ATOM     10  C   UNL     1     -15.079 -19.789 -21.644  1.00  0.00     0.024 A 
ATOM     11  C   UNL     1     -16.070 -18.184 -19.677  1.00  0.00     0.004 A 
ATOM     12  C   UNL     1     -14.580 -20.609 -22.643  1.00  0.00     0.012 A 
ATOM     13  C   UNL     1     -15.174 -20.304 -20.365  1.00  0.00    -0.015 A 
ATOM     14  C   UNL     1     -15.685 -19.464 -19.370  1.00  0.00     0.009 A 
ATOM     15  C   UNL     1     -14.201 -21.895 -22.330  1.00  0.00     0.001 A 
ATOM     16  C   UNL     1     -14.791 -21.593 -20.060  1.00  0.00     0.009 A 
ATOM     17  C   UNL     1     -14.298 -22.401 -21.051  1.00  0.00     0.001 A 
ENDBRANCH   7   8
ENDBRANCH   6   7
BRANCH   6  18
ATOM     18  C   UNL     1     -16.028 -18.053 -25.530  1.00  0.00     0.045 A 
ATOM     19  C   UNL     1     -16.103 -17.291 -26.639  1.00  0.00     0.019 A 
ATOM     20  S   UNL     1     -15.364 -19.586 -26.141  1.00  0.00    -0.145 S 
ATOM     21  C   UNL     1     -15.716 -17.768 -27.816  1.00  0.00     0.012 A 
ATOM     22  C   UNL     1     -15.244 -19.058 -27.846  1.00  0.00     0.065 A 
ENDBRANCH   6  18
ENDBRANCH   1   6
TORSDOF 6
ENDMDL
MODEL 5
REMARK VINA RESULT:      -3.9      2.167      6.597
REMARK SMILES CNCC[C@H](Oc1cccc2ccccc12)c1cccs1
REMARK SMILES IDX 4 1 3 2 2 3 1 4 5 6 6 7 7 8 8 9 16 10 9 11 15 12 11 13 10 14
REMARK SMILES IDX 14 15 12 16 13 17 17 18 18 19 21 20 19 21 20 22
REMARK H PARENT 2 5
ROOT
ATOM      1  C   UNL     1     -14.573 -19.646 -24.498  1.00  0.00     0.066 C 
ENDROOT
BRANCH   1   2
ATOM      2  C   UNL     1     -14.907 -20.939 -25.099  1.00  0.00     0.085 C 
BRANCH   2   3
ATOM      3  N   UNL     1     -14.667 -21.231 -26.440  1.00  0.00    -0.320 NA
ATOM      4  C   UNL     1     -14.680 -20.228 -27.425  1.00  0.00     0.101 C 
ATOM      5  H   UNL     1     -14.135 -22.064 -26.695  1.00  0.00     0.122 HD
ENDBRANCH   2   3
ENDBRANCH   1   2
BRANCH   1   6
ATOM      6  C   UNL     1     -15.611 -18.746 -23.946  1.00  0.00     0.215 C 
BRANCH   6   7
ATOM      7  O   UNL     1     -15.424 -17.375 -24.072  1.00  0.00    -0.484 OA
BRANCH   7   8
ATOM      8  C   UNL     1     -16.454 -16.492 -24.285  1.00  0.00     0.128 A 
ATOM      9  C   UNL     1     -17.221 -15.950 -23.301  1.00  0.00     0.047 A 
ATOM     10  C   UNL     1     -16.716 -16.136 -25.622  1.00  0.00     0.024 A 
ATOM     11  C   UNL     1     -18.242 -15.061 -23.637  1.00  0.00     0.004 A 
ATOM     12  C   UNL     1     -15.937 -16.677 -26.633  1.00  0.00     0.012 A 
ATOM     13  C   UNL     1     -17.722 -15.257 -25.975  1.00  0.00    -0.015 A 
ATOM     14  C   UNL     1     -18.494 -14.716 -24.941  1.00  0.00     0.009 A 
ATOM     15  C   UNL     1     -16.191 -16.322 -27.940  1.00  0.00     0.001 A 
ATOM     16  C   UNL     1     -17.970 -14.909 -27.286  1.00  0.00     0.009 A 
ATOM     17  C   UNL     1     -17.199 -15.446 -28.282  1.00  0.00     0.001 A 
ENDBRANCH   7   8
ENDBRANCH   6   7
BRANCH   6  18
ATOM     18  C   UNL     1     -15.686 -19.089 -22.467  1.00  0.00     0.045 A 
ATOM     19  C   UNL     1     -16.419 -20.015 -21.816  1.00  0.00     0.019 A 
ATOM     20  S   UNL     1     -14.774 -18.307 -21.156  1.00  0.00    -0.145 S 
ATOM     21  C   UNL     1     -16.328 -20.147 -20.498  1.00  0.00     0.012 A 
ATOM     22  C   UNL     1     -15.464 -19.305 -19.841  1.00  0.00     0.065 A 
ENDBRANCH   6  18
ENDBRANCH   1   6
TORSDOF 6
ENDMDL
MODEL 6
REMARK VINA RESULT:      -3.8      2.702      5.441
REMARK SMILES CNCC[C@H](Oc1cccc2ccccc12)c1cccs1
REMARK SMILES IDX 4 1 3 2 2 3 1 4 5 6 6 7 7 8 8 9 16 10 9 11 15 12 11 13 10 14
REMARK SMILES IDX 14 15 12 16 13 17 17 18 18 19 21 20 19 21 20 22
REMARK H PARENT 2 5
ROOT
ATOM      1  C   UNL     1     -14.691 -22.726 -20.387  1.00  0.00     0.066 C 
ENDROOT
BRANCH   1   2
ATOM      2  C   UNL     1     -14.113 -23.057 -19.083  1.00  0.00     0.085 C 
BRANCH   2   3
ATOM      3  N   UNL     1     -14.819 -22.921 -17.890  1.00  0.00    -0.320 NA
ATOM      4  C   UNL     1     -14.605 -23.790 -16.804  1.00  0.00     0.101 C 
ATOM      5  H   UNL     1     -15.221 -22.019 -17.632  1.00  0.00     0.122 HD
ENDBRANCH   2   3
ENDBRANCH   1   2
BRANCH   1   6
ATOM      6  C   UNL     1     -13.847 -22.413 -21.562  1.00  0.00     0.215 C 
BRANCH   6   7
ATOM      7  O   UNL     1     -14.045 -21.198 -22.206  1.00  0.00    -0.484 OA
BRANCH   7   8
ATOM      8  C   UNL     1     -14.134 -20.000 -21.541  1.00  0.00     0.128 A 
ATOM      9  C   UNL     1     -13.428 -19.683 -20.424  1.00  0.00     0.047 A 
ATOM     10  C   UNL     1     -15.025 -19.047 -22.073  1.00  0.00     0.024 A 
ATOM     11  C   UNL     1     -13.601 -18.431 -19.833  1.00  0.00     0.004 A 
ATOM     12  C   UNL     1     -15.747 -19.355 -23.215  1.00  0.00     0.012 A 
ATOM     13  C   UNL     1     -15.210 -17.802 -21.502  1.00  0.00    -0.015 A 
ATOM     14  C   UNL     1     -14.469 -17.505 -20.353  1.00  0.00     0.009 A 
ATOM     15  C   UNL     1     -16.612 -18.419 -23.736  1.00  0.00     0.001 A 
ATOM     16  C   UNL     1     -16.080 -16.872 -22.030  1.00  0.00     0.009 A 
ATOM     17  C   UNL     1     -16.792 -17.180 -23.159  1.00  0.00     0.001 A 
ENDBRANCH   7   8
ENDBRANCH   6   7
BRANCH   6  18
ATOM     18  C   UNL     1     -14.117 -23.535 -22.553  1.00  0.00     0.045 A 
ATOM     19  C   UNL     1     -13.968 -24.869 -22.432  1.00  0.00     0.019 A 
ATOM     20  S   UNL     1     -14.731 -23.350 -24.212  1.00  0.00    -0.145 S 
ATOM     21  C   UNL     1     -14.270 -25.679 -23.440  1.00  0.00     0.012 A 
ATOM     22  C   UNL     1     -14.734 -25.097 -24.595  1.00  0.00     0.065 A 
ENDBRANCH   6  18
ENDBRANCH   1   6
TORSDOF 6
ENDMDL
MODEL 7
REMARK VINA RESULT:      -3.7      1.869      2.616
REMARK SMILES CNCC[C@H](Oc1cccc2ccccc12)c1cccs1
REMARK SMILES IDX 4 1 3 2 2 3 1 4 5 6 6 7 7 8 8 9 16 10 9 11 15 12 11 13 10 14
REMARK SMILES IDX 14 15 12 16 13 17 17 18 18 19 21 20 19 21 20 22
REMARK H PARENT 2 5
ROOT
ATOM      1  C   UNL     1     -15.284 -19.793 -25.930  1.00  0.00     0.066 C 
ENDROOT
BRANCH   1   2
ATOM      2  C   UNL     1     -14.375 -20.847 -25.474  1.00  0.00     0.085 C 
BRANCH   2   3
ATOM      3  N   UNL     1     -14.624 -21.618 -24.341  1.00  0.00    -0.320 NA
ATOM      4  C   UNL     1     -14.719 -23.019 -24.410  1.00  0.00     0.101 C 
ATOM      5  H   UNL     1     -14.388 -21.258 -23.415  1.00  0.00     0.122 HD
ENDBRANCH   2   3
ENDBRANCH   1   2
BRANCH   1   6
ATOM      6  C   UNL     1     -15.174 -18.399 -25.448  1.00  0.00     0.215 C 
BRANCH   6   7
ATOM      7  O   UNL     1     -15.799 -18.067 -24.252  1.00  0.00    -0.484 OA
BRANCH   7   8
ATOM      8  C   UNL     1     -15.113 -17.674 -23.128  1.00  0.00     0.128 A 
ATOM      9  C   UNL     1     -14.253 -16.623 -23.078  1.00  0.00     0.047 A 
ATOM     10  C   UNL     1     -15.334 -18.426 -21.958  1.00  0.00     0.024 A 
ATOM     11  C   UNL     1     -13.612 -16.316 -21.878  1.00  0.00     0.004 A 
ATOM     12  C   UNL     1     -16.214 -19.496 -21.995  1.00  0.00     0.012 A 
ATOM     13  C   UNL     1     -14.710 -18.138 -20.759  1.00  0.00    -0.015 A 
ATOM     14  C   UNL     1     -13.829 -17.051 -20.739  1.00  0.00     0.009 A 
ATOM     15  C   UNL     1     -16.433 -20.226 -20.847  1.00  0.00     0.001 A 
ATOM     16  C   UNL     1     -14.934 -18.874 -19.616  1.00  0.00     0.009 A 
ATOM     17  C   UNL     1     -15.804 -19.932 -19.656  1.00  0.00     0.001 A 
ENDBRANCH   7   8
ENDBRANCH   6   7
BRANCH   6  18
ATOM     18  C   UNL     1     -15.772 -17.547 -26.557  1.00  0.00     0.045 A 
ATOM     19  C   UNL     1     -16.431 -16.372 -26.504  1.00  0.00     0.019 A 
ATOM     20  S   UNL     1     -15.746 -17.913 -28.297  1.00  0.00    -0.145 S 
ATOM     21  C   UNL     1     -16.873 -15.793 -27.614  1.00  0.00     0.012 A 
ATOM     22  C   UNL     1     -16.629 -16.441 -28.800  1.00  0.00     0.065 A 
ENDBRANCH   6  18
ENDBRANCH   1   6
TORSDOF 6
ENDMDL
MODEL 8
REMARK VINA RESULT:      -3.6      2.987      5.794
REMARK SMILES CNCC[C@H](Oc1cccc2ccccc12)c1cccs1
REMARK SMILES IDX 4 1 3 2 2 3 1 4 5 6 6 7 7 8 8 9 16 10 9 11 15 12 11 13 10 14
REMARK SMILES IDX 14 15 12 16 13 17 17 18 18 19 21 20 19 21 20 22
REMARK H PARENT 2 5
ROOT
ATOM      1  C   UNL     1     -15.392 -21.326 -19.835  1.00  0.00     0.066 C 
ENDROOT
BRANCH   1   2
ATOM      2  C   UNL     1     -14.596 -22.017 -18.819  1.00  0.00     0.085 C 
BRANCH   2   3
ATOM      3  N   UNL     1     -15.136 -22.469 -17.617  1.00  0.00    -0.320 NA
ATOM      4  C   UNL     1     -14.912 -23.779 -17.156  1.00  0.00     0.101 C 
ATOM      5  H   UNL     1     -15.385 -21.803 -16.885  1.00  0.00     0.122 HD
ENDBRANCH   2   3
ENDBRANCH   1   2
BRANCH   1   6
ATOM      6  C   UNL     1     -14.931 -21.191 -21.235  1.00  0.00     0.215 C 
BRANCH   6   7
ATOM      7  O   UNL     1     -13.942 -22.056 -21.686  1.00  0.00    -0.484 OA
BRANCH   7   8
ATOM      8  C   UNL     1     -14.114 -22.904 -22.753  1.00  0.00     0.128 A 
ATOM      9  C   UNL     1     -13.982 -22.540 -24.057  1.00  0.00     0.047 A 
ATOM     10  C   UNL     1     -14.447 -24.239 -22.452  1.00  0.00     0.024 A 
ATOM     11  C   UNL     1     -14.180 -23.490 -25.058  1.00  0.00     0.004 A 
ATOM     12  C   UNL     1     -14.577 -24.624 -21.127  1.00  0.00     0.012 A 
ATOM     13  C   UNL     1     -14.646 -25.195 -23.430  1.00  0.00    -0.015 A 
ATOM     14  C   UNL     1     -14.505 -24.790 -24.762  1.00  0.00     0.009 A 
ATOM     15  C   UNL     1     -14.897 -25.931 -20.836  1.00  0.00     0.001 A 
ATOM     16  C   UNL     1     -14.967 -26.501 -23.129  1.00  0.00     0.009 A 
ATOM     17  C   UNL     1     -15.096 -26.878 -21.818  1.00  0.00     0.001 A 
ENDBRANCH   7   8
ENDBRANCH   6   7
BRANCH   6  18
ATOM     18  C   UNL     1     -14.413 -19.765 -21.346  1.00  0.00     0.045 A 
ATOM     19  C   UNL     1     -14.313 -18.793 -20.417  1.00  0.00     0.019 A 
ATOM     20  S   UNL     1     -13.774 -18.987 -22.811  1.00  0.00    -0.145 S 
ATOM     21  C   UNL     1     -13.820 -17.601 -20.736  1.00  0.00     0.012 A 
ATOM     22  C   UNL     1     -13.426 -17.413 -22.038  1.00  0.00     0.065 A 
ENDBRANCH   6  18
ENDBRANCH   1   6
TORSDOF 6
ENDMDL
MODEL 9
REMARK VINA RESULT:      -3.6     13.334     15.235
REMARK SMILES CNCC[C@H](Oc1cccc2ccccc12)c1cccs1
REMARK SMILES IDX 4 1 3 2 2 3 1 4 5 6 6 7 7 8 8 9 16 10 9 11 15 12 11 13 10 14
REMARK SMILES IDX 14 15 12 16 13 17 17 18 18 19 21 20 19 21 20 22
REMARK H PARENT 2 5
ROOT
ATOM      1  C   UNL     1     -18.154 -34.486 -26.943  1.00  0.00     0.066 C 
ENDROOT
BRANCH   1   2
ATOM      2  C   UNL     1     -18.332 -33.526 -28.034  1.00  0.00     0.085 C 
BRANCH   2   3
ATOM      3  N   UNL     1     -18.842 -32.245 -27.834  1.00  0.00    -0.320 NA
ATOM      4  C   UNL     1     -20.215 -31.971 -27.963  1.00  0.00     0.101 C 
ATOM      5  H   UNL     1     -18.333 -31.575 -27.256  1.00  0.00     0.122 HD
ENDBRANCH   2   3
ENDBRANCH   1   2
BRANCH   1   6
ATOM      6  C   UNL     1     -18.442 -34.135 -25.534  1.00  0.00     0.215 C 
BRANCH   6   7
ATOM      7  O   UNL     1     -17.566 -34.586 -24.554  1.00  0.00    -0.484 OA
BRANCH   7   8
ATOM      8  C   UNL     1     -16.630 -33.780 -23.953  1.00  0.00     0.128 A 
ATOM      9  C   UNL     1     -16.111 -32.653 -24.509  1.00  0.00     0.047 A 
ATOM     10  C   UNL     1     -16.194 -34.166 -22.670  1.00  0.00     0.024 A 
ATOM     11  C   UNL     1     -15.165 -31.911 -23.802  1.00  0.00     0.004 A 
ATOM     12  C   UNL     1     -16.720 -35.310 -22.090  1.00  0.00     0.012 A 
ATOM     13  C   UNL     1     -15.257 -33.445 -21.955  1.00  0.00    -0.015 A 
ATOM     14  C   UNL     1     -14.742 -32.290 -22.553  1.00  0.00     0.009 A 
ATOM     15  C   UNL     1     -16.295 -35.682 -20.834  1.00  0.00     0.001 A 
ATOM     16  C   UNL     1     -14.838 -33.825 -20.698  1.00  0.00     0.009 A 
ATOM     17  C   UNL     1     -15.360 -34.956 -20.128  1.00  0.00     0.001 A 
ENDBRANCH   7   8
ENDBRANCH   6   7
BRANCH   6  18
ATOM     18  C   UNL     1     -19.819 -34.715 -25.255  1.00  0.00     0.045 A 
ATOM     19  C   UNL     1     -20.692 -34.465 -24.259  1.00  0.00     0.019 A 
ATOM     20  S   UNL     1     -20.666 -35.938 -26.231  1.00  0.00    -0.145 S 
ATOM     21  C   UNL     1     -21.860 -35.095 -24.207  1.00  0.00     0.012 A 
ATOM     22  C   UNL     1     -22.129 -36.001 -25.204  1.00  0.00     0.065 A 
ENDBRANCH   6  18
ENDBRANCH   1   6
TORSDOF 6
ENDMDL
