MODEL 1
REMARK VINA RESULT:      -6.6      0.000      0.000
REMARK SMILES COc1ccc(-c2cc(=O)c3ccccc3o2)cc1
REMARK SMILES IDX 3 1 4 2 5 3 6 4 18 5 19 6 2 7 1 8 7 9 8 10 17 11 9 12 16 13
REMARK SMILES IDX 10 14 11 15 15 16 12 17 14 18 13 19
REMARK H PARENT
ROOT
ATOM      1  C   UNL     1      25.152  38.591  -5.770  1.00  0.00     0.118 A 
ATOM      2  C   UNL     1      24.475  38.544  -4.574  1.00  0.00     0.047 A 
ATOM      3  C   UNL     1      24.498  37.404  -3.761  1.00  0.00     0.016 A 
ATOM      4  C   UNL     1      25.194  36.280  -4.115  1.00  0.00     0.018 A 
ATOM      5  C   UNL     1      25.873  36.347  -5.327  1.00  0.00     0.016 A 
ATOM      6  C   UNL     1      25.857  37.464  -6.134  1.00  0.00     0.047 A 
ENDROOT
BRANCH   1   7
ATOM      7  O   UNL     1      25.127  39.733  -6.582  1.00  0.00    -0.497 OA
ATOM      8  C   UNL     1      24.275  40.819  -6.328  1.00  0.00     0.278 C 
ENDBRANCH   1   7
BRANCH   4   9
ATOM      9  C   UNL     1      25.262  35.059  -3.316  1.00  0.00     0.138 A 
ATOM     10  C   UNL     1      26.059  34.952  -2.206  1.00  0.00     0.100 A 
ATOM     11  O   UNL     1      24.555  33.992  -3.622  1.00  0.00    -0.456 OA
ATOM     12  C   UNL     1      26.131  33.790  -1.434  1.00  0.00     0.193 A 
ATOM     13  C   UNL     1      24.577  32.872  -2.941  1.00  0.00     0.138 A 
ATOM     14  O   UNL     1      26.866  33.713  -0.421  1.00  0.00    -0.289 OA
ATOM     15  C   UNL     1      25.363  32.713  -1.815  1.00  0.00     0.065 A 
ATOM     16  C   UNL     1      23.790  31.780  -3.340  1.00  0.00     0.048 A 
ATOM     17  C   UNL     1      25.367  31.521  -1.116  1.00  0.00     0.016 A 
ATOM     18  C   UNL     1      23.790  30.607  -2.656  1.00  0.00     0.004 A 
ATOM     19  C   UNL     1      24.580  30.482  -1.545  1.00  0.00     0.001 A 
ENDBRANCH   4   9
TORSDOF 2
ENDMDL
MODEL 2
REMARK VINA RESULT:      -6.5      4.328      9.403
REMARK SMILES COc1ccc(-c2cc(=O)c3ccccc3o2)cc1
REMARK SMILES IDX 3 1 4 2 5 3 6 4 18 5 19 6 2 7 1 8 7 9 8 10 17 11 9 12 16 13
REMARK SMILES IDX 10 14 11 15 15 16 12 17 14 18 13 19
REMARK H PARENT
ROOT
ATOM      1  C   UNL     1      22.142  27.884   3.513  1.00  0.00     0.118 A 
ATOM      2  C   UNL     1      21.381  28.880   2.949  1.00  0.00     0.047 A 
ATOM      3  C   UNL     1      21.872  29.681   1.910  1.00  0.00     0.016 A 
ATOM      4  C   UNL     1      23.133  29.515   1.405  1.00  0.00     0.018 A 
ATOM      5  C   UNL     1      23.887  28.502   1.988  1.00  0.00     0.016 A 
ATOM      6  C   UNL     1      23.413  27.708   3.010  1.00  0.00     0.047 A 
ENDROOT
BRANCH   1   7
ATOM      7  O   UNL     1      21.648  27.084   4.552  1.00  0.00    -0.497 OA
ATOM      8  C   UNL     1      20.278  26.987   4.842  1.00  0.00     0.278 C 
ENDBRANCH   1   7
BRANCH   4   9
ATOM      9  C   UNL     1      23.707  30.312   0.325  1.00  0.00     0.138 A 
ATOM     10  C   UNL     1      23.608  29.945  -0.992  1.00  0.00     0.100 A 
ATOM     11  O   UNL     1      24.355  31.434   0.561  1.00  0.00    -0.456 OA
ATOM     12  C   UNL     1      24.152  30.700  -2.033  1.00  0.00     0.193 A 
ATOM     13  C   UNL     1      24.889  32.188  -0.368  1.00  0.00     0.138 A 
ATOM     14  O   UNL     1      24.049  30.346  -3.232  1.00  0.00    -0.289 OA
ATOM     15  C   UNL     1      24.816  31.862  -1.709  1.00  0.00     0.065 A 
ATOM     16  C   UNL     1      25.564  33.370  -0.025  1.00  0.00     0.048 A 
ATOM     17  C   UNL     1      25.389  32.675  -2.668  1.00  0.00     0.016 A 
ATOM     18  C   UNL     1      26.128  34.173  -0.964  1.00  0.00     0.004 A 
ATOM     19  C   UNL     1      26.037  33.821  -2.284  1.00  0.00     0.001 A 
ENDBRANCH   4   9
TORSDOF 2
ENDMDL
MODEL 3
REMARK VINA RESULT:      -6.5      0.230      1.087
REMARK SMILES COc1ccc(-c2cc(=O)c3ccccc3o2)cc1
REMARK SMILES IDX 3 1 4 2 5 3 6 4 18 5 19 6 2 7 1 8 7 9 8 10 17 11 9 12 16 13
REMARK SMILES IDX 10 14 11 15 15 16 12 17 14 18 13 19
REMARK H PARENT
ROOT
ATOM      1  C   UNL     1      24.986  38.414  -5.840  1.00  0.00     0.118 A 
ATOM      2  C   UNL     1      25.902  37.423  -6.107  1.00  0.00     0.047 A 
ATOM      3  C   UNL     1      25.994  36.275  -5.311  1.00  0.00     0.016 A 
ATOM      4  C   UNL     1      25.180  36.080  -4.228  1.00  0.00     0.018 A 
ATOM      5  C   UNL     1      24.261  37.092  -3.975  1.00  0.00     0.016 A 
ATOM      6  C   UNL     1      24.161  38.227  -4.752  1.00  0.00     0.047 A 
ENDROOT
BRANCH   1   7
ATOM      7  O   UNL     1      24.895  39.562  -6.639  1.00  0.00    -0.497 OA
ATOM      8  C   UNL     1      24.289  40.746  -6.190  1.00  0.00     0.278 C 
ENDBRANCH   1   7
BRANCH   4   9
ATOM      9  C   UNL     1      25.223  34.909  -3.357  1.00  0.00     0.138 A 
ATOM     10  C   UNL     1      25.966  34.877  -2.206  1.00  0.00     0.100 A 
ATOM     11  O   UNL     1      24.544  33.815  -3.634  1.00  0.00    -0.456 OA
ATOM     12  C   UNL     1      26.014  33.762  -1.365  1.00  0.00     0.193 A 
ATOM     13  C   UNL     1      24.546  32.737  -2.888  1.00  0.00     0.138 A 
ATOM     14  O   UNL     1      26.700  33.755  -0.315  1.00  0.00    -0.289 OA
ATOM     15  C   UNL     1      25.278  32.655  -1.719  1.00  0.00     0.065 A 
ATOM     16  C   UNL     1      23.792  31.613  -3.260  1.00  0.00     0.048 A 
ATOM     17  C   UNL     1      25.262  31.505  -0.952  1.00  0.00     0.016 A 
ATOM     18  C   UNL     1      23.772  30.482  -2.509  1.00  0.00     0.004 A 
ATOM     19  C   UNL     1      24.509  30.433  -1.357  1.00  0.00     0.001 A 
ENDBRANCH   4   9
TORSDOF 2
ENDMDL
MODEL 4
REMARK VINA RESULT:      -6.5      4.294      9.418
REMARK SMILES COc1ccc(-c2cc(=O)c3ccccc3o2)cc1
REMARK SMILES IDX 3 1 4 2 5 3 6 4 18 5 19 6 2 7 1 8 7 9 8 10 17 11 9 12 16 13
REMARK SMILES IDX 10 14 11 15 15 16 12 17 14 18 13 19
REMARK H PARENT
ROOT
ATOM      1  C   UNL     1      22.201  28.036   3.611  1.00  0.00     0.118 A 
ATOM      2  C   UNL     1      23.371  27.650   3.000  1.00  0.00     0.047 A 
ATOM      3  C   UNL     1      23.925  28.384   1.944  1.00  0.00     0.016 A 
ATOM      4  C   UNL     1      23.331  29.520   1.465  1.00  0.00     0.018 A 
ATOM      5  C   UNL     1      22.149  29.894   2.095  1.00  0.00     0.016 A 
ATOM      6  C   UNL     1      21.596  29.179   3.136  1.00  0.00     0.047 A 
ENDROOT
BRANCH   1   7
ATOM      7  O   UNL     1      21.649  27.299   4.668  1.00  0.00    -0.497 OA
ATOM      8  C   UNL     1      20.276  27.023   4.757  1.00  0.00     0.278 C 
ENDBRANCH   1   7
BRANCH   4   9
ATOM      9  C   UNL     1      23.853  30.332   0.369  1.00  0.00     0.138 A 
ATOM     10  C   UNL     1      23.665  29.997  -0.947  1.00  0.00     0.100 A 
ATOM     11  O   UNL     1      24.536  31.436   0.589  1.00  0.00    -0.456 OA
ATOM     12  C   UNL     1      24.160  30.765  -2.003  1.00  0.00     0.193 A 
ATOM     13  C   UNL     1      25.027  32.201  -0.355  1.00  0.00     0.138 A 
ATOM     14  O   UNL     1      23.975  30.441  -3.200  1.00  0.00    -0.289 OA
ATOM     15  C   UNL     1      24.864  31.907  -1.696  1.00  0.00     0.065 A 
ATOM     16  C   UNL     1      25.744  33.362  -0.030  1.00  0.00     0.048 A 
ATOM     17  C   UNL     1      25.392  32.732  -2.671  1.00  0.00     0.016 A 
ATOM     18  C   UNL     1      26.264  34.176  -0.984  1.00  0.00     0.004 A 
ATOM     19  C   UNL     1      26.086  33.856  -2.303  1.00  0.00     0.001 A 
ENDBRANCH   4   9
TORSDOF 2
ENDMDL
MODEL 5
REMARK VINA RESULT:      -6.3      4.994      9.683
REMARK SMILES COc1ccc(-c2cc(=O)c3ccccc3o2)cc1
REMARK SMILES IDX 3 1 4 2 5 3 6 4 18 5 19 6 2 7 1 8 7 9 8 10 17 11 9 12 16 13
REMARK SMILES IDX 10 14 11 15 15 16 12 17 14 18 13 19
REMARK H PARENT
ROOT
ATOM      1  C   UNL     1      20.455  27.944   3.326  1.00  0.00     0.118 A 
ATOM      2  C   UNL     1      20.023  29.090   2.699  1.00  0.00     0.047 A 
ATOM      3  C   UNL     1      20.856  29.812   1.836  1.00  0.00     0.016 A 
ATOM      4  C   UNL     1      22.140  29.417   1.573  1.00  0.00     0.018 A 
ATOM      5  C   UNL     1      22.557  28.256   2.216  1.00  0.00     0.016 A 
ATOM      6  C   UNL     1      21.745  27.537   3.066  1.00  0.00     0.047 A 
ENDROOT
BRANCH   1   7
ATOM      7  O   UNL     1      19.619  27.222   4.189  1.00  0.00    -0.497 OA
ATOM      8  C   UNL     1      19.825  27.181   5.577  1.00  0.00     0.278 C 
ENDBRANCH   1   7
BRANCH   4   9
ATOM      9  C   UNL     1      23.061  30.122   0.685  1.00  0.00     0.138 A 
ATOM     10  C   UNL     1      23.136  29.854  -0.657  1.00  0.00     0.100 A 
ATOM     11  O   UNL     1      23.872  31.058   1.130  1.00  0.00    -0.456 OA
ATOM     12  C   UNL     1      24.012  30.522  -1.516  1.00  0.00     0.193 A 
ATOM     13  C   UNL     1      24.717  31.721   0.379  1.00  0.00     0.138 A 
ATOM     14  O   UNL     1      24.064  30.261  -2.742  1.00  0.00    -0.289 OA
ATOM     15  C   UNL     1      24.830  31.489  -0.979  1.00  0.00     0.065 A 
ATOM     16  C   UNL     1      25.547  32.705   0.939  1.00  0.00     0.048 A 
ATOM     17  C   UNL     1      25.730  32.203  -1.747  1.00  0.00     0.016 A 
ATOM     18  C   UNL     1      26.432  33.410   0.188  1.00  0.00     0.004 A 
ATOM     19  C   UNL     1      26.520  33.155  -1.154  1.00  0.00     0.001 A 
ENDBRANCH   4   9
TORSDOF 2
ENDMDL
MODEL 6
REMARK VINA RESULT:      -6.3      4.861      8.902
REMARK SMILES COc1ccc(-c2cc(=O)c3ccccc3o2)cc1
REMARK SMILES IDX 3 1 4 2 5 3 6 4 18 5 19 6 2 7 1 8 7 9 8 10 17 11 9 12 16 13
REMARK SMILES IDX 10 14 11 15 15 16 12 17 14 18 13 19
REMARK H PARENT
ROOT
ATOM      1  C   UNL     1      22.841  28.968   3.404  1.00  0.00     0.118 A 
ATOM      2  C   UNL     1      23.232  30.274   3.225  1.00  0.00     0.047 A 
ATOM      3  C   UNL     1      23.239  30.871   1.958  1.00  0.00     0.016 A 
ATOM      4  C   UNL     1      22.858  30.187   0.835  1.00  0.00     0.018 A 
ATOM      5  C   UNL     1      22.466  28.868   1.037  1.00  0.00     0.016 A 
ATOM      6  C   UNL     1      22.454  28.271   2.279  1.00  0.00     0.047 A 
ENDROOT
BRANCH   1   7
ATOM      7  O   UNL     1      22.835  28.372   4.673  1.00  0.00    -0.497 OA
ATOM      8  C   UNL     1      21.767  28.525   5.571  1.00  0.00     0.278 C 
ENDBRANCH   1   7
BRANCH   4   9
ATOM      9  C   UNL     1      22.841  30.748  -0.513  1.00  0.00     0.138 A 
ATOM     10  C   UNL     1      23.703  30.329  -1.493  1.00  0.00     0.100 A 
ATOM     11  O   UNL     1      21.990  31.690  -0.860  1.00  0.00    -0.456 OA
ATOM     12  C   UNL     1      23.695  30.857  -2.786  1.00  0.00     0.193 A 
ATOM     13  C   UNL     1      21.931  32.228  -2.054  1.00  0.00     0.138 A 
ATOM     14  O   UNL     1      24.492  30.458  -3.668  1.00  0.00    -0.289 OA
ATOM     15  C   UNL     1      22.777  31.840  -3.076  1.00  0.00     0.065 A 
ATOM     16  C   UNL     1      20.991  33.231  -2.338  1.00  0.00     0.048 A 
ATOM     17  C   UNL     1      22.693  32.424  -4.326  1.00  0.00     0.016 A 
ATOM     18  C   UNL     1      20.904  33.807  -3.565  1.00  0.00     0.004 A 
ATOM     19  C   UNL     1      21.757  33.400  -4.555  1.00  0.00     0.001 A 
ENDBRANCH   4   9
TORSDOF 2
ENDMDL
MODEL 7
REMARK VINA RESULT:      -6.2      2.455      3.058
REMARK SMILES COc1ccc(-c2cc(=O)c3ccccc3o2)cc1
REMARK SMILES IDX 3 1 4 2 5 3 6 4 18 5 19 6 2 7 1 8 7 9 8 10 17 11 9 12 16 13
REMARK SMILES IDX 10 14 11 15 15 16 12 17 14 18 13 19
REMARK H PARENT
ROOT
ATOM      1  C   UNL     1      23.974  37.060  -5.784  1.00  0.00     0.118 A 
ATOM      2  C   UNL     1      25.272  36.816  -5.398  1.00  0.00     0.047 A 
ATOM      3  C   UNL     1      25.571  36.191  -4.181  1.00  0.00     0.016 A 
ATOM      4  C   UNL     1      24.589  35.791  -3.315  1.00  0.00     0.018 A 
ATOM      5  C   UNL     1      23.284  36.046  -3.723  1.00  0.00     0.016 A 
ATOM      6  C   UNL     1      22.979  36.660  -4.919  1.00  0.00     0.047 A 
ENDROOT
BRANCH   1   7
ATOM      7  O   UNL     1      23.678  37.686  -7.002  1.00  0.00    -0.497 OA
ATOM      8  C   UNL     1      23.587  39.081  -7.130  1.00  0.00     0.278 C 
ENDBRANCH   1   7
BRANCH   4   9
ATOM      9  C   UNL     1      24.830  35.134  -2.033  1.00  0.00     0.138 A 
ATOM     10  C   UNL     1      25.969  34.416  -1.779  1.00  0.00     0.100 A 
ATOM     11  O   UNL     1      23.960  35.199  -1.047  1.00  0.00    -0.456 OA
ATOM     12  C   UNL     1      26.210  33.784  -0.557  1.00  0.00     0.193 A 
ATOM     13  C   UNL     1      24.124  34.630   0.122  1.00  0.00     0.138 A 
ATOM     14  O   UNL     1      27.261  33.132  -0.345  1.00  0.00    -0.289 OA
ATOM     15  C   UNL     1      25.255  33.896   0.427  1.00  0.00     0.065 A 
ATOM     16  C   UNL     1      23.142  34.751   1.117  1.00  0.00     0.048 A 
ATOM     17  C   UNL     1      25.402  33.306   1.668  1.00  0.00     0.016 A 
ATOM     18  C   UNL     1      23.283  34.174   2.339  1.00  0.00     0.004 A 
ATOM     19  C   UNL     1      24.415  33.452   2.609  1.00  0.00     0.001 A 
ENDBRANCH   4   9
TORSDOF 2
ENDMDL
MODEL 8
REMARK VINA RESULT:      -6.2      2.472      2.994
REMARK SMILES COc1ccc(-c2cc(=O)c3ccccc3o2)cc1
REMARK SMILES IDX 3 1 4 2 5 3 6 4 18 5 19 6 2 7 1 8 7 9 8 10 17 11 9 12 16 13
REMARK SMILES IDX 10 14 11 15 15 16 12 17 14 18 13 19
REMARK H PARENT
ROOT
ATOM      1  C   UNL     1      23.914  37.049  -5.808  1.00  0.00     0.118 A 
ATOM      2  C   UNL     1      23.182  35.959  -5.398  1.00  0.00     0.047 A 
ATOM      3  C   UNL     1      23.442  35.316  -4.181  1.00  0.00     0.016 A 
ATOM      4  C   UNL     1      24.435  35.738  -3.340  1.00  0.00     0.018 A 
ATOM      5  C   UNL     1      25.163  36.841  -3.771  1.00  0.00     0.016 A 
ATOM      6  C   UNL     1      24.916  37.482  -4.967  1.00  0.00     0.047 A 
ENDROOT
BRANCH   1   7
ATOM      7  O   UNL     1      23.651  37.691  -7.026  1.00  0.00    -0.497 OA
ATOM      8  C   UNL     1      23.592  39.088  -7.143  1.00  0.00     0.278 C 
ENDBRANCH   1   7
BRANCH   4   9
ATOM      9  C   UNL     1      24.759  35.115  -2.059  1.00  0.00     0.138 A 
ATOM     10  C   UNL     1      25.953  34.481  -1.832  1.00  0.00     0.100 A 
ATOM     11  O   UNL     1      23.916  35.131  -1.048  1.00  0.00    -0.456 OA
ATOM     12  C   UNL     1      26.274  33.883  -0.612  1.00  0.00     0.193 A 
ATOM     13  C   UNL     1      24.155  34.589   0.121  1.00  0.00     0.138 A 
ATOM     14  O   UNL     1      27.373  33.308  -0.425  1.00  0.00    -0.289 OA
ATOM     15  C   UNL     1      25.343  33.939   0.400  1.00  0.00     0.065 A 
ATOM     16  C   UNL     1      23.197  34.653   1.145  1.00  0.00     0.048 A 
ATOM     17  C   UNL     1      25.568  33.377   1.642  1.00  0.00     0.016 A 
ATOM     18  C   UNL     1      23.414  34.102   2.367  1.00  0.00     0.004 A 
ATOM     19  C   UNL     1      24.601  33.465   2.610  1.00  0.00     0.001 A 
ENDBRANCH   4   9
TORSDOF 2
ENDMDL
MODEL 9
REMARK VINA RESULT:      -6.2      4.877      8.784
REMARK SMILES COc1ccc(-c2cc(=O)c3ccccc3o2)cc1
REMARK SMILES IDX 3 1 4 2 5 3 6 4 18 5 19 6 2 7 1 8 7 9 8 10 17 11 9 12 16 13
REMARK SMILES IDX 10 14 11 15 15 16 12 17 14 18 13 19
REMARK H PARENT
ROOT
ATOM      1  C   UNL     1      22.792  29.475   3.539  1.00  0.00     0.118 A 
ATOM      2  C   UNL     1      22.648  28.587   2.499  1.00  0.00     0.047 A 
ATOM      3  C   UNL     1      22.642  29.014   1.165  1.00  0.00     0.016 A 
ATOM      4  C   UNL     1      22.777  30.334   0.829  1.00  0.00     0.018 A 
ATOM      5  C   UNL     1      22.921  31.216   1.895  1.00  0.00     0.016 A 
ATOM      6  C   UNL     1      22.929  30.807   3.211  1.00  0.00     0.047 A 
ENDROOT
BRANCH   1   7
ATOM      7  O   UNL     1      22.798  29.045   4.873  1.00  0.00    -0.497 OA
ATOM      8  C   UNL     1      21.841  29.473   5.807  1.00  0.00     0.278 C 
ENDBRANCH   1   7
BRANCH   4   9
ATOM      9  C   UNL     1      22.779  30.847  -0.538  1.00  0.00     0.138 A 
ATOM     10  C   UNL     1      23.647  30.386  -1.494  1.00  0.00     0.100 A 
ATOM     11  O   UNL     1      21.942  31.785  -0.927  1.00  0.00    -0.456 OA
ATOM     12  C   UNL     1      23.658  30.869  -2.805  1.00  0.00     0.193 A 
ATOM     13  C   UNL     1      21.900  32.282  -2.140  1.00  0.00     0.138 A 
ATOM     14  O   UNL     1      24.460  30.432  -3.664  1.00  0.00    -0.289 OA
ATOM     15  C   UNL     1      22.753  31.850  -3.139  1.00  0.00     0.065 A 
ATOM     16  C   UNL     1      20.973  33.283  -2.468  1.00  0.00     0.048 A 
ATOM     17  C   UNL     1      22.687  32.391  -4.409  1.00  0.00     0.016 A 
ATOM     18  C   UNL     1      20.904  33.817  -3.715  1.00  0.00     0.004 A 
ATOM     19  C   UNL     1      21.764  33.368  -4.681  1.00  0.00     0.001 A 
ENDBRANCH   4   9
TORSDOF 2
ENDMDL
