MODEL 1
REMARK VINA RESULT:      -8.8      0.000      0.000
REMARK SMILES COC(=O)C1=C(C)[NH2+]C(C)=C(C(=O)OCCCN2CCC(c3ccccc3)(c3ccccc3)CC2)C1c1cccc([N+](=O)[O-])c1
REMARK SMILES IDX 14 1 12 2 13 3 11 4 5 5 6 6 36 7 8 8 9 9 7 10 10 13 3 14
REMARK SMILES IDX 4 15 2 16 1 17 37 18 38 19 45 20 39 21 41 22 40 23 42 24
REMARK SMILES IDX 43 25 44 26 15 27 16 28 17 29 18 30 19 31 35 32 20 33 34 34
REMARK SMILES IDX 21 35 22 36 23 37 27 38 24 39 26 40 25 41 28 42 29 43 33 44
REMARK SMILES IDX 30 45 32 46 31 47
REMARK H PARENT 8 11 8 12
ROOT
ATOM      1  O   UNL     1      17.388  10.478  -3.781  1.00  0.00    -0.462 OA
ENDROOT
BRANCH   1   2
ATOM      2  C   UNL     1      17.065   9.670  -4.848  1.00  0.00     0.340 C 
ATOM      3  O   UNL     1      16.273   8.719  -4.550  1.00  0.00    -0.246 OA
BRANCH   2   4
ATOM      4  C   UNL     1      17.511   9.774  -6.187  1.00  0.00     0.106 C 
ATOM      5  C   UNL     1      18.213   8.388  -7.883  1.00  0.00     0.106 C 
ATOM      6  C   UNL     1      17.522   9.132  -8.794  1.00  0.00     0.119 C 
ATOM      7  C   UNL     1      18.754   9.229  -6.815  1.00  0.00     0.106 C 
ATOM      8  N   UNL     1      17.274  10.543  -8.459  1.00  0.00    -0.288 N 
ATOM      9  C   UNL     1      16.785  10.478  -7.091  1.00  0.00     0.119 C 
ATOM     10  C   UNL     1      16.918   8.524  -9.979  1.00  0.00     0.112 C 
ATOM     11  H   UNL     1      16.486  10.840  -9.082  1.00  0.00     0.357 HD
ATOM     12  H   UNL     1      18.119  11.056  -8.564  1.00  0.00     0.357 HD
ATOM     13  C   UNL     1      15.528  11.170  -6.755  1.00  0.00     0.112 C 
BRANCH   5  14
ATOM     14  C   UNL     1      18.324   6.981  -8.104  1.00  0.00     0.340 C 
ATOM     15  O   UNL     1      19.096   6.505  -9.016  1.00  0.00    -0.246 OA
BRANCH  14  16
ATOM     16  O   UNL     1      17.607   6.016  -7.372  1.00  0.00    -0.465 OA
ATOM     17  C   UNL     1      16.215   5.860  -7.551  1.00  0.00     0.282 C 
ENDBRANCH  14  16
ENDBRANCH   5  14
BRANCH   7  18
ATOM     18  C   UNL     1      19.878   8.932  -6.019  1.00  0.00    -0.028 A 
ATOM     19  C   UNL     1      20.832   9.937  -5.839  1.00  0.00     0.005 A 
ATOM     20  C   UNL     1      20.144   7.732  -5.429  1.00  0.00     0.090 A 
ATOM     21  C   UNL     1      21.962   9.703  -5.098  1.00  0.00     0.007 A 
ATOM     22  C   UNL     1      21.299   7.480  -4.668  1.00  0.00     0.269 A 
ATOM     23  C   UNL     1      22.217   8.486  -4.504  1.00  0.00     0.085 A 
BRANCH  22  24
ATOM     24  N   UNL     1      21.543   6.220  -4.069  1.00  0.00     0.062 N 
ATOM     25  O   UNL     1      21.222   5.138  -4.595  1.00  0.00    -0.258 OA
ATOM     26  O   UNL     1      22.163   6.175  -2.850  1.00  0.00    -0.258 OA
ENDBRANCH  22  24
ENDBRANCH   7  18
ENDBRANCH   2   4
ENDBRANCH   1   2
BRANCH   1  27
ATOM     27  C   UNL     1      17.367  10.077  -2.423  1.00  0.00     0.234 C 
BRANCH  27  28
ATOM     28  C   UNL     1      17.461  11.214  -1.476  1.00  0.00     0.057 C 
BRANCH  28  29
ATOM     29  C   UNL     1      17.397  10.871  -0.013  1.00  0.00     0.088 C 
BRANCH  29  30
ATOM     30  N   UNL     1      16.149  10.750   0.590  1.00  0.00    -0.303 NA
ATOM     31  C   UNL     1      15.145  11.708   0.425  1.00  0.00     0.086 C 
ATOM     32  C   UNL     1      15.976   9.958   1.742  1.00  0.00     0.086 C 
ATOM     33  C   UNL     1      13.824  11.028   0.121  1.00  0.00     0.032 C 
ATOM     34  C   UNL     1      14.557  10.056   2.276  1.00  0.00     0.032 C 
ATOM     35  C   UNL     1      13.602   9.938   1.112  1.00  0.00     0.023 C 
BRANCH  35  36
ATOM     36  C   UNL     1      13.714   8.573   0.566  1.00  0.00    -0.037 A 
ATOM     37  C   UNL     1      13.531   7.535   1.484  1.00  0.00     0.004 A 
ATOM     38  C   UNL     1      13.976   8.226  -0.720  1.00  0.00     0.004 A 
ATOM     39  C   UNL     1      13.611   6.212   1.108  1.00  0.00     0.000 A 
ATOM     40  C   UNL     1      14.060   6.910  -1.113  1.00  0.00     0.000 A 
ATOM     41  C   UNL     1      13.879   5.865  -0.205  1.00  0.00     0.000 A 
ENDBRANCH  35  36
BRANCH  35  42
ATOM     42  C   UNL     1      12.175  10.048   1.585  1.00  0.00    -0.037 A 
ATOM     43  C   UNL     1      11.991  10.057   2.956  1.00  0.00     0.004 A 
ATOM     44  C   UNL     1      11.104  10.134   0.745  1.00  0.00     0.004 A 
ATOM     45  C   UNL     1      10.746  10.152   3.542  1.00  0.00     0.000 A 
ATOM     46  C   UNL     1       9.843  10.230   1.299  1.00  0.00     0.000 A 
ATOM     47  C   UNL     1       9.666  10.239   2.671  1.00  0.00     0.000 A 
ENDBRANCH  35  42
ENDBRANCH  29  30
ENDBRANCH  28  29
ENDBRANCH  27  28
ENDBRANCH   1  27
TORSDOF 12
ENDMDL
MODEL 2
REMARK VINA RESULT:      -8.6      1.133      1.705
REMARK SMILES COC(=O)C1=C(C)[NH2+]C(C)=C(C(=O)OCCCN2CCC(c3ccccc3)(c3ccccc3)CC2)C1c1cccc([N+](=O)[O-])c1
REMARK SMILES IDX 14 1 12 2 13 3 11 4 5 5 6 6 36 7 8 8 9 9 7 10 10 13 3 14
REMARK SMILES IDX 4 15 2 16 1 17 37 18 38 19 45 20 39 21 41 22 40 23 42 24
REMARK SMILES IDX 43 25 44 26 15 27 16 28 17 29 18 30 19 31 35 32 20 33 34 34
REMARK SMILES IDX 21 35 22 36 23 37 27 38 24 39 26 40 25 41 28 42 29 43 33 44
REMARK SMILES IDX 30 45 32 46 31 47
REMARK H PARENT 8 11 8 12
ROOT
ATOM      1  O   UNL     1      17.037  11.562  -3.118  1.00  0.00    -0.462 OA
ENDROOT
BRANCH   1   2
ATOM      2  C   UNL     1      18.011  11.731  -4.076  1.00  0.00     0.340 C 
ATOM      3  O   UNL     1      19.070  12.288  -3.638  1.00  0.00    -0.246 OA
BRANCH   2   4
ATOM      4  C   UNL     1      17.959  11.377  -5.445  1.00  0.00     0.106 C 
ATOM      5  C   UNL     1      17.406   9.555  -6.736  1.00  0.00     0.106 C 
ATOM      6  C   UNL     1      16.795  10.368  -7.644  1.00  0.00     0.119 C 
ATOM      7  C   UNL     1      18.575  10.207  -6.144  1.00  0.00     0.106 C 
ATOM      8  N   UNL     1      17.264  11.760  -7.721  1.00  0.00    -0.288 N 
ATOM      9  C   UNL     1      17.305  12.174  -6.327  1.00  0.00     0.119 C 
ATOM     10  C   UNL     1      15.625   9.926  -8.402  1.00  0.00     0.112 C 
ATOM     11  H   UNL     1      16.494  12.284  -8.202  1.00  0.00     0.357 HD
ATOM     12  H   UNL     1      18.146  11.783  -8.178  1.00  0.00     0.357 HD
ATOM     13  C   UNL     1      16.632  13.427  -5.940  1.00  0.00     0.112 C 
BRANCH   5  14
ATOM     14  C   UNL     1      16.864   8.250  -6.523  1.00  0.00     0.340 C 
ATOM     15  O   UNL     1      15.894   8.055  -5.703  1.00  0.00    -0.246 OA
BRANCH  14  16
ATOM     16  O   UNL     1      17.339   7.091  -7.165  1.00  0.00    -0.465 OA
ATOM     17  C   UNL     1      16.449   6.207  -7.814  1.00  0.00     0.282 C 
ENDBRANCH  14  16
ENDBRANCH   5  14
BRANCH   7  18
ATOM     18  C   UNL     1      19.690   9.554  -5.582  1.00  0.00    -0.028 A 
ATOM     19  C   UNL     1      20.951   9.858  -6.101  1.00  0.00     0.005 A 
ATOM     20  C   UNL     1      19.651   8.616  -4.594  1.00  0.00     0.090 A 
ATOM     21  C   UNL     1      22.074   9.235  -5.617  1.00  0.00     0.007 A 
ATOM     22  C   UNL     1      20.794   7.971  -4.090  1.00  0.00     0.269 A 
ATOM     23  C   UNL     1      22.021   8.291  -4.614  1.00  0.00     0.085 A 
BRANCH  22  24
ATOM     24  N   UNL     1      20.716   7.001  -3.061  1.00  0.00     0.062 N 
ATOM     25  O   UNL     1      20.990   5.799  -3.231  1.00  0.00    -0.258 OA
ATOM     26  O   UNL     1      20.322   7.392  -1.809  1.00  0.00    -0.258 OA
ENDBRANCH  22  24
ENDBRANCH   7  18
ENDBRANCH   2   4
ENDBRANCH   1   2
BRANCH   1  27
ATOM     27  C   UNL     1      16.777  10.351  -2.430  1.00  0.00     0.234 C 
BRANCH  27  28
ATOM     28  C   UNL     1      17.756  10.069  -1.353  1.00  0.00     0.057 C 
BRANCH  28  29
ATOM     29  C   UNL     1      17.560  10.813  -0.060  1.00  0.00     0.088 C 
BRANCH  29  30
ATOM     30  N   UNL     1      16.346  10.683   0.606  1.00  0.00    -0.303 NA
ATOM     31  C   UNL     1      15.366  11.680   0.574  1.00  0.00     0.086 C 
ATOM     32  C   UNL     1      16.213   9.810   1.704  1.00  0.00     0.086 C 
ATOM     33  C   UNL     1      14.007  11.064   0.300  1.00  0.00     0.032 C 
ATOM     34  C   UNL     1      14.832   9.908   2.328  1.00  0.00     0.032 C 
ATOM     35  C   UNL     1      13.807   9.908   1.218  1.00  0.00     0.023 C 
BRANCH  35  36
ATOM     36  C   UNL     1      13.841   8.586   0.566  1.00  0.00    -0.037 A 
ATOM     37  C   UNL     1      13.640   7.488   1.407  1.00  0.00     0.004 A 
ATOM     38  C   UNL     1      14.048   8.330  -0.751  1.00  0.00     0.004 A 
ATOM     39  C   UNL     1      13.650   6.196   0.928  1.00  0.00     0.000 A 
ATOM     40  C   UNL     1      14.062   7.045  -1.246  1.00  0.00     0.000 A 
ATOM     41  C   UNL     1      13.861   5.942  -0.415  1.00  0.00     0.000 A 
ENDBRANCH  35  36
BRANCH  35  42
ATOM     42  C   UNL     1      12.414  10.023   1.783  1.00  0.00    -0.037 A 
ATOM     43  C   UNL     1      11.401  10.200   0.858  1.00  0.00     0.004 A 
ATOM     44  C   UNL     1      12.129   9.961   3.114  1.00  0.00     0.004 A 
ATOM     45  C   UNL     1      10.074  10.322   1.218  1.00  0.00     0.000 A 
ATOM     46  C   UNL     1      10.811  10.080   3.509  1.00  0.00     0.000 A 
ATOM     47  C   UNL     1       9.802  10.257   2.580  1.00  0.00     0.000 A 
ENDBRANCH  35  42
ENDBRANCH  29  30
ENDBRANCH  28  29
ENDBRANCH  27  28
ENDBRANCH   1  27
TORSDOF 12
ENDMDL
MODEL 3
REMARK VINA RESULT:      -8.5      1.590      2.276
REMARK SMILES COC(=O)C1=C(C)[NH2+]C(C)=C(C(=O)OCCCN2CCC(c3ccccc3)(c3ccccc3)CC2)C1c1cccc([N+](=O)[O-])c1
REMARK SMILES IDX 14 1 12 2 13 3 11 4 5 5 6 6 36 7 8 8 9 9 7 10 10 13 3 14
REMARK SMILES IDX 4 15 2 16 1 17 37 18 38 19 45 20 39 21 41 22 40 23 42 24
REMARK SMILES IDX 43 25 44 26 15 27 16 28 17 29 18 30 19 31 35 32 20 33 34 34
REMARK SMILES IDX 21 35 22 36 23 37 27 38 24 39 26 40 25 41 28 42 29 43 33 44
REMARK SMILES IDX 30 45 32 46 31 47
REMARK H PARENT 8 11 8 12
ROOT
ATOM      1  O   UNL     1      17.989  11.437  -3.322  1.00  0.00    -0.462 OA
ENDROOT
BRANCH   1   2
ATOM      2  C   UNL     1      17.537  11.017  -4.554  1.00  0.00     0.340 C 
ATOM      3  O   UNL     1      16.836   9.954  -4.507  1.00  0.00    -0.246 OA
BRANCH   2   4
ATOM      4  C   UNL     1      17.768  11.611  -5.817  1.00  0.00     0.106 C 
ATOM      5  C   UNL     1      17.514  11.087  -8.042  1.00  0.00     0.106 C 
ATOM      6  C   UNL     1      17.088  12.355  -8.306  1.00  0.00     0.119 C 
ATOM      7  C   UNL     1      18.529  11.078  -6.989  1.00  0.00     0.106 C 
ATOM      8  N   UNL     1      17.542  13.418  -7.395  1.00  0.00    -0.288 N 
ATOM      9  C   UNL     1      17.295  12.856  -6.077  1.00  0.00     0.119 C 
ATOM     10  C   UNL     1      16.101  12.630  -9.349  1.00  0.00     0.112 C 
ATOM     11  H   UNL     1      16.879  14.215  -7.549  1.00  0.00     0.357 HD
ATOM     12  H   UNL     1      18.499  13.618  -7.579  1.00  0.00     0.357 HD
ATOM     13  C   UNL     1      16.540  13.655  -5.096  1.00  0.00     0.112 C 
BRANCH   5  14
ATOM     14  C   UNL     1      16.958  10.015  -8.805  1.00  0.00     0.340 C 
ATOM     15  O   UNL     1      17.423   9.707  -9.964  1.00  0.00    -0.246 OA
BRANCH  14  16
ATOM     16  O   UNL     1      15.872   9.229  -8.375  1.00  0.00    -0.465 OA
ATOM     17  C   UNL     1      14.979   9.707  -7.391  1.00  0.00     0.282 C 
ENDBRANCH  14  16
ENDBRANCH   5  14
BRANCH   7  18
ATOM     18  C   UNL     1      19.517  10.090  -6.801  1.00  0.00    -0.028 A 
ATOM     19  C   UNL     1      20.840  10.513  -6.649  1.00  0.00     0.005 A 
ATOM     20  C   UNL     1      19.306   8.743  -6.789  1.00  0.00     0.090 A 
ATOM     21  C   UNL     1      21.851   9.600  -6.491  1.00  0.00     0.007 A 
ATOM     22  C   UNL     1      20.334   7.798  -6.628  1.00  0.00     0.269 A 
ATOM     23  C   UNL     1      21.624   8.241  -6.476  1.00  0.00     0.085 A 
BRANCH  22  24
ATOM     24  N   UNL     1      20.079   6.405  -6.620  1.00  0.00     0.062 N 
ATOM     25  O   UNL     1      18.935   5.919  -6.563  1.00  0.00    -0.258 OA
ATOM     26  O   UNL     1      21.136   5.537  -6.679  1.00  0.00    -0.258 OA
ENDBRANCH  22  24
ENDBRANCH   7  18
ENDBRANCH   2   4
ENDBRANCH   1   2
BRANCH   1  27
ATOM     27  C   UNL     1      17.227  11.421  -2.129  1.00  0.00     0.234 C 
BRANCH  27  28
ATOM     28  C   UNL     1      17.572  10.294  -1.230  1.00  0.00     0.057 C 
BRANCH  28  29
ATOM     29  C   UNL     1      17.468  10.561   0.246  1.00  0.00     0.088 C 
BRANCH  29  30
ATOM     30  N   UNL     1      16.214  10.515   0.846  1.00  0.00    -0.303 NA
ATOM     31  C   UNL     1      15.250  11.505   0.636  1.00  0.00     0.086 C 
ATOM     32  C   UNL     1      16.003   9.777   2.027  1.00  0.00     0.086 C 
ATOM     33  C   UNL     1      13.903  10.866   0.351  1.00  0.00     0.032 C 
ATOM     34  C   UNL     1      14.587   9.953   2.548  1.00  0.00     0.032 C 
ATOM     35  C   UNL     1      13.633   9.827   1.383  1.00  0.00     0.023 C 
BRANCH  35  36
ATOM     36  C   UNL     1      13.693   8.438   0.893  1.00  0.00    -0.037 A 
ATOM     37  C   UNL     1      13.935   8.286  -0.475  1.00  0.00     0.004 A 
ATOM     38  C   UNL     1      13.537   7.305   1.625  1.00  0.00     0.004 A 
ATOM     39  C   UNL     1      14.012   7.043  -1.065  1.00  0.00     0.000 A 
ATOM     40  C   UNL     1      13.612   6.055   1.052  1.00  0.00     0.000 A 
ATOM     41  C   UNL     1      13.852   5.893  -0.313  1.00  0.00     0.000 A 
ENDBRANCH  35  36
BRANCH  35  42
ATOM     42  C   UNL     1      12.209  10.012   1.842  1.00  0.00    -0.037 A 
ATOM     43  C   UNL     1      11.265  10.143   0.840  1.00  0.00     0.004 A 
ATOM     44  C   UNL     1      11.835  10.055   3.152  1.00  0.00     0.004 A 
ATOM     45  C   UNL     1       9.921  10.319   1.099  1.00  0.00     0.000 A 
ATOM     46  C   UNL     1      10.497  10.230   3.446  1.00  0.00     0.000 A 
ATOM     47  C   UNL     1       9.557  10.360   2.440  1.00  0.00     0.000 A 
ENDBRANCH  35  42
ENDBRANCH  29  30
ENDBRANCH  28  29
ENDBRANCH  27  28
ENDBRANCH   1  27
TORSDOF 12
ENDMDL
MODEL 4
REMARK VINA RESULT:      -8.4      1.077      1.190
REMARK SMILES COC(=O)C1=C(C)[NH2+]C(C)=C(C(=O)OCCCN2CCC(c3ccccc3)(c3ccccc3)CC2)C1c1cccc([N+](=O)[O-])c1
REMARK SMILES IDX 14 1 12 2 13 3 11 4 5 5 6 6 36 7 8 8 9 9 7 10 10 13 3 14
REMARK SMILES IDX 4 15 2 16 1 17 37 18 38 19 45 20 39 21 41 22 40 23 42 24
REMARK SMILES IDX 43 25 44 26 15 27 16 28 17 29 18 30 19 31 35 32 20 33 34 34
REMARK SMILES IDX 21 35 22 36 23 37 27 38 24 39 26 40 25 41 28 42 29 43 33 44
REMARK SMILES IDX 30 45 32 46 31 47
REMARK H PARENT 8 11 8 12
ROOT
ATOM      1  O   UNL     1      17.493  11.556  -3.405  1.00  0.00    -0.462 OA
ENDROOT
BRANCH   1   2
ATOM      2  C   UNL     1      17.240  10.754  -4.495  1.00  0.00     0.340 C 
ATOM      3  O   UNL     1      16.772   9.609  -4.191  1.00  0.00    -0.246 OA
BRANCH   2   4
ATOM      4  C   UNL     1      17.447  11.049  -5.863  1.00  0.00     0.106 C 
ATOM      5  C   UNL     1      17.582   9.931  -7.869  1.00  0.00     0.106 C 
ATOM      6  C   UNL     1      16.875  10.922  -8.483  1.00  0.00     0.119 C 
ATOM      7  C   UNL     1      18.444  10.470  -6.816  1.00  0.00     0.106 C 
ATOM      8  N   UNL     1      16.938  12.263  -7.882  1.00  0.00    -0.288 N 
ATOM      9  C   UNL     1      16.701  12.006  -6.470  1.00  0.00     0.119 C 
ATOM     10  C   UNL     1      15.971  10.639  -9.598  1.00  0.00     0.112 C 
ATOM     11  H   UNL     1      16.112  12.779  -8.271  1.00  0.00     0.357 HD
ATOM     12  H   UNL     1      17.824  12.667  -8.078  1.00  0.00     0.357 HD
ATOM     13  C   UNL     1      15.663  12.785  -5.773  1.00  0.00     0.112 C 
BRANCH   5  14
ATOM     14  C   UNL     1      17.408   8.590  -8.330  1.00  0.00     0.340 C 
ATOM     15  O   UNL     1      18.133   8.108  -9.276  1.00  0.00    -0.246 OA
BRANCH  14  16
ATOM     16  O   UNL     1      16.444   7.704  -7.814  1.00  0.00    -0.465 OA
ATOM     17  C   UNL     1      15.887   6.689  -8.624  1.00  0.00     0.282 C 
ENDBRANCH  14  16
ENDBRANCH   5  14
BRANCH   7  18
ATOM     18  C   UNL     1      19.626   9.876  -6.330  1.00  0.00    -0.028 A 
ATOM     19  C   UNL     1      20.661  10.724  -5.926  1.00  0.00     0.005 A 
ATOM     20  C   UNL     1      19.872   8.538  -6.250  1.00  0.00     0.090 A 
ATOM     21  C   UNL     1      21.847  10.208  -5.470  1.00  0.00     0.007 A 
ATOM     22  C   UNL     1      21.083   7.998  -5.785  1.00  0.00     0.269 A 
ATOM     23  C   UNL     1      22.082   8.852  -5.390  1.00  0.00     0.085 A 
BRANCH  22  24
ATOM     24  N   UNL     1      21.305   6.601  -5.715  1.00  0.00     0.062 N 
ATOM     25  O   UNL     1      21.407   5.872  -6.719  1.00  0.00    -0.258 OA
ATOM     26  O   UNL     1      21.415   6.008  -4.486  1.00  0.00    -0.258 OA
ENDBRANCH  22  24
ENDBRANCH   7  18
ENDBRANCH   2   4
ENDBRANCH   1   2
BRANCH   1  27
ATOM     27  C   UNL     1      18.363  11.226  -2.338  1.00  0.00     0.234 C 
BRANCH  27  28
ATOM     28  C   UNL     1      17.811  11.571  -1.006  1.00  0.00     0.057 C 
BRANCH  28  29
ATOM     29  C   UNL     1      17.494  10.417  -0.095  1.00  0.00     0.088 C 
BRANCH  29  30
ATOM     30  N   UNL     1      16.247  10.377   0.521  1.00  0.00    -0.303 NA
ATOM     31  C   UNL     1      15.293  11.383   0.340  1.00  0.00     0.086 C 
ATOM     32  C   UNL     1      16.043   9.623   1.693  1.00  0.00     0.086 C 
ATOM     33  C   UNL     1      13.935  10.766   0.063  1.00  0.00     0.032 C 
ATOM     34  C   UNL     1      14.636   9.809   2.236  1.00  0.00     0.032 C 
ATOM     35  C   UNL     1      13.665   9.714   1.082  1.00  0.00     0.023 C 
BRANCH  35  36
ATOM     36  C   UNL     1      13.700   8.332   0.569  1.00  0.00    -0.037 A 
ATOM     37  C   UNL     1      13.492   7.327   1.517  1.00  0.00     0.004 A 
ATOM     38  C   UNL     1      13.914   7.942  -0.713  1.00  0.00     0.004 A 
ATOM     39  C   UNL     1      13.501   5.992   1.173  1.00  0.00     0.000 A 
ATOM     40  C   UNL     1      13.927   6.614  -1.075  1.00  0.00     0.000 A 
ATOM     41  C   UNL     1      13.720   5.602  -0.137  1.00  0.00     0.000 A 
ENDBRANCH  35  36
BRANCH  35  42
ATOM     42  C   UNL     1      12.250   9.910   1.563  1.00  0.00    -0.037 A 
ATOM     43  C   UNL     1      12.082   9.978   2.934  1.00  0.00     0.004 A 
ATOM     44  C   UNL     1      11.176  10.018   0.731  1.00  0.00     0.004 A 
ATOM     45  C   UNL     1      10.849  10.154   3.528  1.00  0.00     0.000 A 
ATOM     46  C   UNL     1       9.927  10.195   1.292  1.00  0.00     0.000 A 
ATOM     47  C   UNL     1       9.765  10.263   2.664  1.00  0.00     0.000 A 
ENDBRANCH  35  42
ENDBRANCH  29  30
ENDBRANCH  28  29
ENDBRANCH  27  28
ENDBRANCH   1  27
TORSDOF 12
ENDMDL
MODEL 5
REMARK VINA RESULT:      -8.2      2.061      3.197
REMARK SMILES COC(=O)C1=C(C)[NH2+]C(C)=C(C(=O)OCCCN2CCC(c3ccccc3)(c3ccccc3)CC2)C1c1cccc([N+](=O)[O-])c1
REMARK SMILES IDX 14 1 12 2 13 3 11 4 5 5 6 6 36 7 8 8 9 9 7 10 10 13 3 14
REMARK SMILES IDX 4 15 2 16 1 17 37 18 38 19 45 20 39 21 41 22 40 23 42 24
REMARK SMILES IDX 43 25 44 26 15 27 16 28 17 29 18 30 19 31 35 32 20 33 34 34
REMARK SMILES IDX 21 35 22 36 23 37 27 38 24 39 26 40 25 41 28 42 29 43 33 44
REMARK SMILES IDX 30 45 32 46 31 47
REMARK H PARENT 8 11 8 12
ROOT
ATOM      1  O   UNL     1      19.450   9.188  -3.025  1.00  0.00    -0.462 OA
ENDROOT
BRANCH   1   2
ATOM      2  C   UNL     1      18.973   9.920  -4.090  1.00  0.00     0.340 C 
ATOM      3  O   UNL     1      17.702   9.934  -4.174  1.00  0.00    -0.246 OA
BRANCH   2   4
ATOM      4  C   UNL     1      19.716  10.620  -5.069  1.00  0.00     0.106 C 
ATOM      5  C   UNL     1      19.512  11.234  -7.277  1.00  0.00     0.106 C 
ATOM      6  C   UNL     1      20.055  12.455  -7.001  1.00  0.00     0.119 C 
ATOM      7  C   UNL     1      20.110  10.189  -6.446  1.00  0.00     0.106 C 
ATOM      8  N   UNL     1      20.951  12.543  -5.837  1.00  0.00    -0.288 N 
ATOM      9  C   UNL     1      20.208  11.854  -4.793  1.00  0.00     0.119 C 
ATOM     10  C   UNL     1      19.649  13.656  -7.729  1.00  0.00     0.112 C 
ATOM     11  H   UNL     1      20.994  13.563  -5.598  1.00  0.00     0.357 HD
ATOM     12  H   UNL     1      21.821  12.120  -6.062  1.00  0.00     0.357 HD
ATOM     13  C   UNL     1      20.019  12.528  -3.496  1.00  0.00     0.112 C 
BRANCH   5  14
ATOM     14  C   UNL     1      18.514  11.154  -8.295  1.00  0.00     0.340 C 
ATOM     15  O   UNL     1      18.831  11.039  -9.536  1.00  0.00    -0.246 OA
BRANCH  14  16
ATOM     16  O   UNL     1      17.130  11.205  -8.040  1.00  0.00    -0.465 OA
ATOM     17  C   UNL     1      16.349  12.287  -8.502  1.00  0.00     0.282 C 
ENDBRANCH  14  16
ENDBRANCH   5  14
BRANCH   7  18
ATOM     18  C   UNL     1      20.181   8.818  -6.766  1.00  0.00    -0.028 A 
ATOM     19  C   UNL     1      21.446   8.229  -6.828  1.00  0.00     0.005 A 
ATOM     20  C   UNL     1      19.121   8.012  -7.059  1.00  0.00     0.090 A 
ATOM     21  C   UNL     1      21.583   6.905  -7.161  1.00  0.00     0.007 A 
ATOM     22  C   UNL     1      19.249   6.655  -7.402  1.00  0.00     0.269 A 
ATOM     23  C   UNL     1      20.503   6.100  -7.451  1.00  0.00     0.085 A 
BRANCH  22  24
ATOM     24  N   UNL     1      18.126   5.846  -7.700  1.00  0.00     0.062 N 
ATOM     25  O   UNL     1      17.892   4.763  -7.133  1.00  0.00    -0.258 OA
ATOM     26  O   UNL     1      17.242   6.266  -8.658  1.00  0.00    -0.258 OA
ENDBRANCH  22  24
ENDBRANCH   7  18
ENDBRANCH   2   4
ENDBRANCH   1   2
BRANCH   1  27
ATOM     27  C   UNL     1      19.232   9.502  -1.662  1.00  0.00     0.234 C 
BRANCH  27  28
ATOM     28  C   UNL     1      17.845   9.944  -1.379  1.00  0.00     0.057 C 
BRANCH  28  29
ATOM     29  C   UNL     1      17.645  10.756  -0.129  1.00  0.00     0.088 C 
BRANCH  29  30
ATOM     30  N   UNL     1      16.438  10.644   0.553  1.00  0.00    -0.303 NA
ATOM     31  C   UNL     1      15.463  11.645   0.513  1.00  0.00     0.086 C 
ATOM     32  C   UNL     1      16.312   9.792   1.667  1.00  0.00     0.086 C 
ATOM     33  C   UNL     1      14.098  11.031   0.264  1.00  0.00     0.032 C 
ATOM     34  C   UNL     1      14.938   9.909   2.305  1.00  0.00     0.032 C 
ATOM     35  C   UNL     1      13.902   9.893   1.206  1.00  0.00     0.023 C 
BRANCH  35  36
ATOM     36  C   UNL     1      13.922   8.560   0.577  1.00  0.00    -0.037 A 
ATOM     37  C   UNL     1      13.623   7.486   1.420  1.00  0.00     0.004 A 
ATOM     38  C   UNL     1      14.201   8.272  -0.720  1.00  0.00     0.004 A 
ATOM     39  C   UNL     1      13.609   6.186   0.962  1.00  0.00     0.000 A 
ATOM     40  C   UNL     1      14.193   6.980  -1.194  1.00  0.00     0.000 A 
ATOM     41  C   UNL     1      13.895   5.900  -0.361  1.00  0.00     0.000 A 
ENDBRANCH  35  36
BRANCH  35  42
ATOM     42  C   UNL     1      12.515  10.026   1.783  1.00  0.00    -0.037 A 
ATOM     43  C   UNL     1      11.505  10.280   0.873  1.00  0.00     0.004 A 
ATOM     44  C   UNL     1      12.234   9.910   3.111  1.00  0.00     0.004 A 
ATOM     45  C   UNL     1      10.184  10.427   1.246  1.00  0.00     0.000 A 
ATOM     46  C   UNL     1      10.922  10.052   3.518  1.00  0.00     0.000 A 
ATOM     47  C   UNL     1       9.915  10.305   2.604  1.00  0.00     0.000 A 
ENDBRANCH  35  42
ENDBRANCH  29  30
ENDBRANCH  28  29
ENDBRANCH  27  28
ENDBRANCH   1  27
TORSDOF 12
ENDMDL
MODEL 6
REMARK VINA RESULT:      -8.2      1.949      3.055
REMARK SMILES COC(=O)C1=C(C)[NH2+]C(C)=C(C(=O)OCCCN2CCC(c3ccccc3)(c3ccccc3)CC2)C1c1cccc([N+](=O)[O-])c1
REMARK SMILES IDX 14 1 12 2 13 3 11 4 5 5 6 6 36 7 8 8 9 9 7 10 10 13 3 14
REMARK SMILES IDX 4 15 2 16 1 17 37 18 38 19 45 20 39 21 41 22 40 23 42 24
REMARK SMILES IDX 43 25 44 26 15 27 16 28 17 29 18 30 19 31 35 32 20 33 34 34
REMARK SMILES IDX 21 35 22 36 23 37 27 38 24 39 26 40 25 41 28 42 29 43 33 44
REMARK SMILES IDX 30 45 32 46 31 47
REMARK H PARENT 8 11 8 12
ROOT
ATOM      1  O   UNL     1      18.935   9.036  -1.291  1.00  0.00    -0.462 OA
ENDROOT
BRANCH   1   2
ATOM      2  C   UNL     1      18.606   9.825  -2.371  1.00  0.00     0.340 C 
ATOM      3  O   UNL     1      17.354  10.014  -2.506  1.00  0.00    -0.246 OA
BRANCH   2   4
ATOM      4  C   UNL     1      19.477  10.416  -3.317  1.00  0.00     0.106 C 
ATOM      5  C   UNL     1      19.615  10.696  -5.596  1.00  0.00     0.106 C 
ATOM      6  C   UNL     1      20.070  11.970  -5.425  1.00  0.00     0.119 C 
ATOM      7  C   UNL     1      20.101   9.814  -4.535  1.00  0.00     0.106 C 
ATOM      8  N   UNL     1      20.763  12.272  -4.162  1.00  0.00    -0.288 N 
ATOM      9  C   UNL     1      19.881  11.701  -3.155  1.00  0.00     0.119 C 
ATOM     10  C   UNL     1      19.752  13.032  -6.380  1.00  0.00     0.112 C 
ATOM     11  H   UNL     1      20.737  13.316  -4.076  1.00  0.00     0.357 HD
ATOM     12  H   UNL     1      21.670  11.867  -4.183  1.00  0.00     0.357 HD
ATOM     13  C   UNL     1      19.465  12.543  -2.020  1.00  0.00     0.112 C 
BRANCH   5  14
ATOM     14  C   UNL     1      18.797  10.417  -6.734  1.00  0.00     0.340 C 
ATOM     15  O   UNL     1      17.514  10.476  -6.667  1.00  0.00    -0.246 OA
BRANCH  14  16
ATOM     16  O   UNL     1      19.307  10.049  -7.993  1.00  0.00    -0.465 OA
ATOM     17  C   UNL     1      18.581   9.187  -8.844  1.00  0.00     0.282 C 
ENDBRANCH  14  16
ENDBRANCH   5  14
BRANCH   7  18
ATOM     18  C   UNL     1      20.262   8.417  -4.631  1.00  0.00    -0.028 A 
ATOM     19  C   UNL     1      21.013   7.779  -3.640  1.00  0.00     0.005 A 
ATOM     20  C   UNL     1      19.778   7.624  -5.629  1.00  0.00     0.090 A 
ATOM     21  C   UNL     1      21.230   6.426  -3.691  1.00  0.00     0.007 A 
ATOM     22  C   UNL     1      19.994   6.237  -5.693  1.00  0.00     0.269 A 
ATOM     23  C   UNL     1      20.732   5.635  -4.705  1.00  0.00     0.085 A 
BRANCH  22  24
ATOM     24  N   UNL     1      19.475   5.444  -6.745  1.00  0.00     0.062 N 
ATOM     25  O   UNL     1      18.750   4.449  -6.560  1.00  0.00    -0.258 OA
ATOM     26  O   UNL     1      19.779   5.777  -8.038  1.00  0.00    -0.258 OA
ENDBRANCH  22  24
ENDBRANCH   7  18
ENDBRANCH   2   4
ENDBRANCH   1   2
BRANCH   1  27
ATOM     27  C   UNL     1      19.377   9.521  -0.036  1.00  0.00     0.234 C 
BRANCH  27  28
ATOM     28  C   UNL     1      18.298   9.582   0.979  1.00  0.00     0.057 C 
BRANCH  28  29
ATOM     29  C   UNL     1      17.405  10.791   0.932  1.00  0.00     0.088 C 
BRANCH  29  30
ATOM     30  N   UNL     1      16.081  10.658   1.340  1.00  0.00    -0.303 NA
ATOM     31  C   UNL     1      15.133  11.664   1.134  1.00  0.00     0.086 C 
ATOM     32  C   UNL     1      15.728   9.764   2.369  1.00  0.00     0.086 C 
ATOM     33  C   UNL     1      13.853  11.065   0.580  1.00  0.00     0.032 C 
ATOM     34  C   UNL     1      14.250   9.861   2.707  1.00  0.00     0.032 C 
ATOM     35  C   UNL     1      13.468   9.893   1.415  1.00  0.00     0.023 C 
BRANCH  35  36
ATOM     36  C   UNL     1      13.626   8.584   0.754  1.00  0.00    -0.037 A 
ATOM     37  C   UNL     1      13.484   7.466   1.579  1.00  0.00     0.004 A 
ATOM     38  C   UNL     1      13.894   8.358  -0.557  1.00  0.00     0.004 A 
ATOM     39  C   UNL     1      13.609   6.183   1.091  1.00  0.00     0.000 A 
ATOM     40  C   UNL     1      14.023   7.084  -1.062  1.00  0.00     0.000 A 
ATOM     41  C   UNL     1      13.883   5.960  -0.247  1.00  0.00     0.000 A 
ENDBRANCH  35  36
BRANCH  35  42
ATOM     42  C   UNL     1      11.990  10.008   1.692  1.00  0.00    -0.037 A 
ATOM     43  C   UNL     1      11.638  10.207   3.014  1.00  0.00     0.004 A 
ATOM     44  C   UNL     1      11.030   9.925   0.727  1.00  0.00     0.004 A 
ATOM     45  C   UNL     1      10.327  10.332   3.427  1.00  0.00     0.000 A 
ATOM     46  C   UNL     1       9.709  10.046   1.107  1.00  0.00     0.000 A 
ATOM     47  C   UNL     1       9.362  10.246   2.431  1.00  0.00     0.000 A 
ENDBRANCH  35  42
ENDBRANCH  29  30
ENDBRANCH  28  29
ENDBRANCH  27  28
ENDBRANCH   1  27
TORSDOF 12
ENDMDL
MODEL 7
REMARK VINA RESULT:      -8.1      2.247      5.062
REMARK SMILES COC(=O)C1=C(C)[NH2+]C(C)=C(C(=O)OCCCN2CCC(c3ccccc3)(c3ccccc3)CC2)C1c1cccc([N+](=O)[O-])c1
REMARK SMILES IDX 14 1 12 2 13 3 11 4 5 5 6 6 36 7 8 8 9 9 7 10 10 13 3 14
REMARK SMILES IDX 4 15 2 16 1 17 37 18 38 19 45 20 39 21 41 22 40 23 42 24
REMARK SMILES IDX 43 25 44 26 15 27 16 28 17 29 18 30 19 31 35 32 20 33 34 34
REMARK SMILES IDX 21 35 22 36 23 37 27 38 24 39 26 40 25 41 28 42 29 43 33 44
REMARK SMILES IDX 30 45 32 46 31 47
REMARK H PARENT 8 11 8 12
ROOT
ATOM      1  O   UNL     1      19.254   8.082  -0.556  1.00  0.00    -0.462 OA
ENDROOT
BRANCH   1   2
ATOM      2  C   UNL     1      20.358   7.756  -1.313  1.00  0.00     0.340 C 
ATOM      3  O   UNL     1      20.492   6.505  -1.512  1.00  0.00    -0.246 OA
BRANCH   2   4
ATOM      4  C   UNL     1      21.326   8.628  -1.864  1.00  0.00     0.106 C 
ATOM      5  C   UNL     1      21.451  10.779  -2.671  1.00  0.00     0.106 C 
ATOM      6  C   UNL     1      22.662  10.949  -2.066  1.00  0.00     0.119 C 
ATOM      7  C   UNL     1      21.284   9.404  -3.142  1.00  0.00     0.106 C 
ATOM      8  N   UNL     1      23.464   9.741  -1.818  1.00  0.00    -0.288 N 
ATOM      9  C   UNL     1      22.506   8.822  -1.222  1.00  0.00     0.119 C 
ATOM     10  C   UNL     1      23.081  12.249  -1.545  1.00  0.00     0.112 C 
ATOM     11  H   UNL     1      24.161  10.018  -1.086  1.00  0.00     0.357 HD
ATOM     12  H   UNL     1      23.851   9.424  -2.677  1.00  0.00     0.357 HD
ATOM     13  C   UNL     1      22.857   8.157   0.044  1.00  0.00     0.112 C 
BRANCH   5  14
ATOM     14  C   UNL     1      20.582  11.908  -2.774  1.00  0.00     0.340 C 
ATOM     15  O   UNL     1      20.600  12.675  -3.805  1.00  0.00    -0.246 OA
BRANCH  14  16
ATOM     16  O   UNL     1      19.662  12.280  -1.775  1.00  0.00    -0.465 OA
ATOM     17  C   UNL     1      19.481  13.637  -1.429  1.00  0.00     0.282 C 
ENDBRANCH  14  16
ENDBRANCH   5  14
BRANCH   7  18
ATOM     18  C   UNL     1      20.446   8.987  -4.196  1.00  0.00    -0.028 A 
ATOM     19  C   UNL     1      21.035   8.313  -5.268  1.00  0.00     0.005 A 
ATOM     20  C   UNL     1      19.105   9.213  -4.285  1.00  0.00     0.090 A 
ATOM     21  C   UNL     1      20.278   7.906  -6.337  1.00  0.00     0.007 A 
ATOM     22  C   UNL     1      18.319   8.801  -5.375  1.00  0.00     0.269 A 
ATOM     23  C   UNL     1      18.922   8.137  -6.414  1.00  0.00     0.085 A 
BRANCH  22  24
ATOM     24  N   UNL     1      16.926   9.053  -5.435  1.00  0.00     0.062 N 
ATOM     25  O   UNL     1      16.368   9.588  -6.410  1.00  0.00    -0.258 OA
ATOM     26  O   UNL     1      16.141   8.693  -4.372  1.00  0.00    -0.258 OA
ENDBRANCH  22  24
ENDBRANCH   7  18
ENDBRANCH   2   4
ENDBRANCH   1   2
BRANCH   1  27
ATOM     27  C   UNL     1      19.051   9.326   0.089  1.00  0.00     0.234 C 
BRANCH  27  28
ATOM     28  C   UNL     1      17.714   9.909  -0.176  1.00  0.00     0.057 C 
BRANCH  28  29
ATOM     29  C   UNL     1      17.184  10.862   0.861  1.00  0.00     0.088 C 
BRANCH  29  30
ATOM     30  N   UNL     1      15.860  10.733   1.270  1.00  0.00    -0.303 NA
ATOM     31  C   UNL     1      14.885  11.681   0.951  1.00  0.00     0.086 C 
ATOM     32  C   UNL     1      15.523   9.944   2.388  1.00  0.00     0.086 C 
ATOM     33  C   UNL     1      13.629  10.988   0.456  1.00  0.00     0.032 C 
ATOM     34  C   UNL     1      14.039  10.032   2.702  1.00  0.00     0.032 C 
ATOM     35  C   UNL     1      13.270   9.901   1.409  1.00  0.00     0.023 C 
BRANCH  35  36
ATOM     36  C   UNL     1      13.474   8.535   0.894  1.00  0.00    -0.037 A 
ATOM     37  C   UNL     1      13.780   8.438  -0.467  1.00  0.00     0.004 A 
ATOM     38  C   UNL     1      13.394   7.376   1.596  1.00  0.00     0.004 A 
ATOM     39  C   UNL     1      13.992   7.220  -1.078  1.00  0.00     0.000 A 
ATOM     40  C   UNL     1      13.602   6.152   1.002  1.00  0.00     0.000 A 
ATOM     41  C   UNL     1      13.908   6.043  -0.356  1.00  0.00     0.000 A 
ENDBRANCH  35  36
BRANCH  35  42
ATOM     42  C   UNL     1      11.787  10.000   1.661  1.00  0.00    -0.037 A 
ATOM     43  C   UNL     1      11.414  10.283   2.962  1.00  0.00     0.004 A 
ATOM     44  C   UNL     1      10.842   9.827   0.694  1.00  0.00     0.004 A 
ATOM     45  C   UNL     1      10.095  10.405   3.351  1.00  0.00     0.000 A 
ATOM     46  C   UNL     1       9.513   9.942   1.050  1.00  0.00     0.000 A 
ATOM     47  C   UNL     1       9.145  10.227   2.353  1.00  0.00     0.000 A 
ENDBRANCH  35  42
ENDBRANCH  29  30
ENDBRANCH  28  29
ENDBRANCH  27  28
ENDBRANCH   1  27
TORSDOF 12
ENDMDL
MODEL 8
REMARK VINA RESULT:      -8.1      2.261      3.280
REMARK SMILES COC(=O)C1=C(C)[NH2+]C(C)=C(C(=O)OCCCN2CCC(c3ccccc3)(c3ccccc3)CC2)C1c1cccc([N+](=O)[O-])c1
REMARK SMILES IDX 14 1 12 2 13 3 11 4 5 5 6 6 36 7 8 8 9 9 7 10 10 13 3 14
REMARK SMILES IDX 4 15 2 16 1 17 37 18 38 19 45 20 39 21 41 22 40 23 42 24
REMARK SMILES IDX 43 25 44 26 15 27 16 28 17 29 18 30 19 31 35 32 20 33 34 34
REMARK SMILES IDX 21 35 22 36 23 37 27 38 24 39 26 40 25 41 28 42 29 43 33 44
REMARK SMILES IDX 30 45 32 46 31 47
REMARK H PARENT 8 11 8 12
ROOT
ATOM      1  O   UNL     1      19.110  11.542  -3.630  1.00  0.00    -0.462 OA
ENDROOT
BRANCH   1   2
ATOM      2  C   UNL     1      20.251  11.562  -4.401  1.00  0.00     0.340 C 
ATOM      3  O   UNL     1      21.285  11.129  -3.798  1.00  0.00    -0.246 OA
BRANCH   2   4
ATOM      4  C   UNL     1      20.393  12.006  -5.737  1.00  0.00     0.106 C 
ATOM      5  C   UNL     1      19.212  11.943  -7.710  1.00  0.00     0.106 C 
ATOM      6  C   UNL     1      19.577  13.229  -7.985  1.00  0.00     0.119 C 
ATOM      7  C   UNL     1      20.278  11.228  -7.010  1.00  0.00     0.106 C 
ATOM      8  N   UNL     1      20.828  13.714  -7.381  1.00  0.00    -0.288 N 
ATOM      9  C   UNL     1      20.709  13.300  -5.992  1.00  0.00     0.119 C 
ATOM     10  C   UNL     1      18.694  14.136  -8.716  1.00  0.00     0.112 C 
ATOM     11  H   UNL     1      20.769  14.759  -7.425  1.00  0.00     0.357 HD
ATOM     12  H   UNL     1      21.599  13.310  -7.861  1.00  0.00     0.357 HD
ATOM     13  C   UNL     1      20.930  14.302  -4.934  1.00  0.00     0.112 C 
BRANCH   5  14
ATOM     14  C   UNL     1      17.925  11.499  -8.144  1.00  0.00     0.340 C 
ATOM     15  O   UNL     1      16.896  11.581  -7.378  1.00  0.00    -0.246 OA
BRANCH  14  16
ATOM     16  O   UNL     1      17.677  10.935  -9.409  1.00  0.00    -0.465 OA
ATOM     17  C   UNL     1      16.521  10.158  -9.641  1.00  0.00     0.282 C 
ENDBRANCH  14  16
ENDBRANCH   5  14
BRANCH   7  18
ATOM     18  C   UNL     1      20.474   9.833  -7.006  1.00  0.00    -0.028 A 
ATOM     19  C   UNL     1      21.788   9.360  -7.065  1.00  0.00     0.005 A 
ATOM     20  C   UNL     1      19.491   8.889  -6.987  1.00  0.00     0.090 A 
ATOM     21  C   UNL     1      22.044   8.013  -7.094  1.00  0.00     0.007 A 
ATOM     22  C   UNL     1      19.740   7.506  -7.016  1.00  0.00     0.269 A 
ATOM     23  C   UNL     1      21.040   7.068  -7.069  1.00  0.00     0.085 A 
BRANCH  22  24
ATOM     24  N   UNL     1      18.693   6.553  -6.994  1.00  0.00     0.062 N 
ATOM     25  O   UNL     1      17.488   6.861  -6.965  1.00  0.00    -0.258 OA
ATOM     26  O   UNL     1      19.009   5.221  -7.006  1.00  0.00    -0.258 OA
ENDBRANCH  22  24
ENDBRANCH   7  18
ENDBRANCH   2   4
ENDBRANCH   1   2
BRANCH   1  27
ATOM     27  C   UNL     1      19.012  12.050  -2.312  1.00  0.00     0.234 C 
BRANCH  27  28
ATOM     28  C   UNL     1      18.661  11.014  -1.311  1.00  0.00     0.057 C 
BRANCH  28  29
ATOM     29  C   UNL     1      17.415  10.217  -1.585  1.00  0.00     0.088 C 
BRANCH  29  30
ATOM     30  N   UNL     1      16.393  10.232  -0.641  1.00  0.00    -0.303 NA
ATOM     31  C   UNL     1      15.420  11.235  -0.611  1.00  0.00     0.086 C 
ATOM     32  C   UNL     1      16.534   9.558   0.588  1.00  0.00     0.086 C 
ATOM     33  C   UNL     1      14.043  10.618  -0.452  1.00  0.00     0.032 C 
ATOM     34  C   UNL     1      15.336   9.796   1.492  1.00  0.00     0.032 C 
ATOM     35  C   UNL     1      14.080   9.637   0.669  1.00  0.00     0.023 C 
BRANCH  35  36
ATOM     36  C   UNL     1      13.978   8.225   0.258  1.00  0.00    -0.037 A 
ATOM     37  C   UNL     1      13.758   7.307   1.289  1.00  0.00     0.004 A 
ATOM     38  C   UNL     1      14.077   7.731  -1.002  1.00  0.00     0.004 A 
ATOM     39  C   UNL     1      13.645   5.955   1.046  1.00  0.00     0.000 A 
ATOM     40  C   UNL     1      13.968   6.384  -1.264  1.00  0.00     0.000 A 
ATOM     41  C   UNL     1      13.748   5.459  -0.242  1.00  0.00     0.000 A 
ENDBRANCH  35  36
BRANCH  35  42
ATOM     42  C   UNL     1      12.856   9.881   1.515  1.00  0.00    -0.037 A 
ATOM     43  C   UNL     1      11.722  10.284   0.834  1.00  0.00     0.004 A 
ATOM     44  C   UNL     1      12.829   9.727   2.869  1.00  0.00     0.004 A 
ATOM     45  C   UNL     1      10.524  10.547   1.468  1.00  0.00     0.000 A 
ATOM     46  C   UNL     1      11.647   9.982   3.534  1.00  0.00     0.000 A 
ATOM     47  C   UNL     1      10.515  10.384   2.848  1.00  0.00     0.000 A 
ENDBRANCH  35  42
ENDBRANCH  29  30
ENDBRANCH  28  29
ENDBRANCH  27  28
ENDBRANCH   1  27
TORSDOF 12
ENDMDL
MODEL 9
REMARK VINA RESULT:      -8.0      2.807      5.283
REMARK SMILES COC(=O)C1=C(C)[NH2+]C(C)=C(C(=O)OCCCN2CCC(c3ccccc3)(c3ccccc3)CC2)C1c1cccc([N+](=O)[O-])c1
REMARK SMILES IDX 14 1 12 2 13 3 11 4 5 5 6 6 36 7 8 8 9 9 7 10 10 13 3 14
REMARK SMILES IDX 4 15 2 16 1 17 37 18 38 19 45 20 39 21 41 22 40 23 42 24
REMARK SMILES IDX 43 25 44 26 15 27 16 28 17 29 18 30 19 31 35 32 20 33 34 34
REMARK SMILES IDX 21 35 22 36 23 37 27 38 24 39 26 40 25 41 28 42 29 43 33 44
REMARK SMILES IDX 30 45 32 46 31 47
REMARK H PARENT 8 11 8 12
ROOT
ATOM      1  O   UNL     1      19.615   8.300  -1.722  1.00  0.00    -0.462 OA
ENDROOT
BRANCH   1   2
ATOM      2  C   UNL     1      20.817   7.634  -1.808  1.00  0.00     0.340 C 
ATOM      3  O   UNL     1      20.698   6.367  -1.865  1.00  0.00    -0.246 OA
BRANCH   2   4
ATOM      4  C   UNL     1      22.120   8.186  -1.829  1.00  0.00     0.106 C 
ATOM      5  C   UNL     1      23.149  10.159  -2.412  1.00  0.00     0.106 C 
ATOM      6  C   UNL     1      23.961  10.073  -1.320  1.00  0.00     0.119 C 
ATOM      7  C   UNL     1      22.855   8.834  -2.959  1.00  0.00     0.106 C 
ATOM      8  N   UNL     1      24.222   8.728  -0.782  1.00  0.00    -0.288 N 
ATOM      9  C   UNL     1      22.896   8.133  -0.718  1.00  0.00     0.119 C 
ATOM     10  C   UNL     1      24.429  11.267  -0.618  1.00  0.00     0.112 C 
ATOM     11  H   UNL     1      24.566   8.884   0.196  1.00  0.00     0.357 HD
ATOM     12  H   UNL     1      24.852   8.252  -1.385  1.00  0.00     0.357 HD
ATOM     13  C   UNL     1      22.459   7.513   0.545  1.00  0.00     0.112 C 
BRANCH   5  14
ATOM     14  C   UNL     1      22.745  11.456  -2.854  1.00  0.00     0.340 C 
ATOM     15  O   UNL     1      21.552  11.891  -2.654  1.00  0.00    -0.246 OA
BRANCH  14  16
ATOM     16  O   UNL     1      23.591  12.345  -3.544  1.00  0.00    -0.465 OA
ATOM     17  C   UNL     1      23.456  13.742  -3.385  1.00  0.00     0.282 C 
ENDBRANCH  14  16
ENDBRANCH   5  14
BRANCH   7  18
ATOM     18  C   UNL     1      22.496   8.550  -4.292  1.00  0.00    -0.028 A 
ATOM     19  C   UNL     1      23.080   9.320  -5.301  1.00  0.00     0.005 A 
ATOM     20  C   UNL     1      21.595   7.609  -4.693  1.00  0.00     0.090 A 
ATOM     21  C   UNL     1      22.752   9.113  -6.616  1.00  0.00     0.007 A 
ATOM     22  C   UNL     1      21.250   7.387  -6.037  1.00  0.00     0.269 A 
ATOM     23  C   UNL     1      21.842   8.154  -7.009  1.00  0.00     0.085 A 
BRANCH  22  24
ATOM     24  N   UNL     1      20.309   6.400  -6.417  1.00  0.00     0.062 N 
ATOM     25  O   UNL     1      20.630   5.269  -6.826  1.00  0.00    -0.258 OA
ATOM     26  O   UNL     1      18.973   6.690  -6.336  1.00  0.00    -0.258 OA
ENDBRANCH  22  24
ENDBRANCH   7  18
ENDBRANCH   2   4
ENDBRANCH   1   2
BRANCH   1  27
ATOM     27  C   UNL     1      19.367   9.426  -0.900  1.00  0.00     0.234 C 
BRANCH  27  28
ATOM     28  C   UNL     1      18.206   9.246   0.005  1.00  0.00     0.057 C 
BRANCH  28  29
ATOM     29  C   UNL     1      17.616  10.498   0.592  1.00  0.00     0.088 C 
BRANCH  29  30
ATOM     30  N   UNL     1      16.334  10.442   1.131  1.00  0.00    -0.303 NA
ATOM     31  C   UNL     1      15.405  11.471   0.954  1.00  0.00     0.086 C 
ATOM     32  C   UNL     1      16.053   9.625   2.243  1.00  0.00     0.086 C 
ATOM     33  C   UNL     1      14.058  10.893   0.563  1.00  0.00     0.032 C 
ATOM     34  C   UNL     1      14.619   9.801   2.713  1.00  0.00     0.032 C 
ATOM     35  C   UNL     1      13.716   9.788   1.502  1.00  0.00     0.023 C 
BRANCH  35  36
ATOM     36  C   UNL     1      13.765   8.438   0.912  1.00  0.00    -0.037 A 
ATOM     37  C   UNL     1      13.997   8.385  -0.465  1.00  0.00     0.004 A 
ATOM     38  C   UNL     1      13.606   7.256   1.561  1.00  0.00     0.004 A 
ATOM     39  C   UNL     1      14.063   7.187  -1.144  1.00  0.00     0.000 A 
ATOM     40  C   UNL     1      13.669   6.051   0.899  1.00  0.00     0.000 A 
ATOM     41  C   UNL     1      13.901   5.986  -0.476  1.00  0.00     0.000 A 
ENDBRANCH  35  36
BRANCH  35  42
ATOM     42  C   UNL     1      12.278   9.978   1.910  1.00  0.00    -0.037 A 
ATOM     43  C   UNL     1      11.370  10.119   0.876  1.00  0.00     0.004 A 
ATOM     44  C   UNL     1      11.857  10.016   3.207  1.00  0.00     0.004 A 
ATOM     45  C   UNL     1      10.019  10.301   1.088  1.00  0.00     0.000 A 
ATOM     46  C   UNL     1      10.511  10.197   3.454  1.00  0.00     0.000 A 
ATOM     47  C   UNL     1       9.608  10.337   2.416  1.00  0.00     0.000 A 
ENDBRANCH  35  42
ENDBRANCH  29  30
ENDBRANCH  28  29
ENDBRANCH  27  28
ENDBRANCH   1  27
TORSDOF 12
ENDMDL
