MODEL 1
REMARK VINA RESULT:      -5.8      0.000      0.000
REMARK SMILES C[C@]12CC[C@H](O)C[C@@H]1CC[C@@H]1[C@@H]2CC[C@]2(C)C(=O)CC[C@@H]12
REMARK SMILES IDX 1 1 2 2 3 3 4 4 5 5 7 6 8 7 9 8 10 9 11 10 12 11 13 12 14 13
REMARK SMILES IDX 15 14 16 15 17 16 18 17 19 18 20 19 21 20 6 21
REMARK H PARENT 6 22
ROOT
ATOM      1  C   UNL     1      -9.715  35.758 -16.241  1.00  0.00     0.012 C 
ATOM      2  C   UNL     1      -9.729  34.368 -15.639  1.00  0.00    -0.026 C 
ATOM      3  C   UNL     1      -8.679  34.288 -14.595  1.00  0.00     0.010 C 
ATOM      4  C   UNL     1      -7.907  32.964 -14.627  1.00  0.00     0.032 C 
ATOM      5  C   UNL     1      -7.088  32.821 -15.872  1.00  0.00     0.114 C 
ATOM      6  C   UNL     1      -7.852  33.479 -17.029  1.00  0.00     0.036 C 
ATOM      7  C   UNL     1      -9.313  33.350 -16.718  1.00  0.00    -0.002 C 
ATOM      8  C   UNL     1     -10.209  33.378 -17.896  1.00  0.00     0.004 C 
ATOM      9  C   UNL     1     -11.520  34.034 -17.718  1.00  0.00     0.004 C 
ATOM     10  C   UNL     1     -12.071  34.149 -16.364  1.00  0.00    -0.003 C 
ATOM     11  C   UNL     1     -11.079  33.929 -15.231  1.00  0.00    -0.001 C 
ATOM     12  C   UNL     1     -11.654  34.539 -14.010  1.00  0.00     0.005 C 
ATOM     13  C   UNL     1     -12.916  33.794 -13.611  1.00  0.00     0.015 C 
ATOM     14  C   UNL     1     -13.859  33.794 -14.755  1.00  0.00     0.029 C 
ATOM     15  C   UNL     1     -14.457  35.160 -14.960  1.00  0.00     0.020 C 
ATOM     16  C   UNL     1     -14.978  32.837 -14.649  1.00  0.00     0.139 C 
ATOM     17  O   UNL     1     -15.417  32.384 -13.619  1.00  0.00    -0.299 OA
ATOM     18  C   UNL     1     -15.427  32.562 -16.041  1.00  0.00     0.076 C 
ATOM     19  C   UNL     1     -14.341  33.169 -16.943  1.00  0.00     0.013 C 
ATOM     20  C   UNL     1     -13.204  33.262 -16.033  1.00  0.00     0.006 C 
ENDROOT
BRANCH   5  21
ATOM     21  O   UNL     1      -5.804  33.322 -15.758  1.00  0.00    -0.393 OA
ATOM     22  H   UNL     1      -5.195  32.565 -15.575  1.00  0.00     0.210 HD
ENDBRANCH   5  21
TORSDOF 1
ENDMDL
MODEL 2
REMARK VINA RESULT:      -5.7      6.514      9.603
REMARK SMILES C[C@]12CC[C@H](O)C[C@@H]1CC[C@@H]1[C@@H]2CC[C@]2(C)C(=O)CC[C@@H]12
REMARK SMILES IDX 1 1 2 2 3 3 4 4 5 5 7 6 8 7 9 8 10 9 11 10 12 11 13 12 14 13
REMARK SMILES IDX 15 14 16 15 17 16 18 17 19 18 20 19 21 20 6 21
REMARK H PARENT 6 22
ROOT
ATOM      1  C   UNL     1      -2.026  32.923  -9.309  1.00  0.00     0.012 C 
ATOM      2  C   UNL     1      -3.390  33.463  -8.931  1.00  0.00    -0.026 C 
ATOM      3  C   UNL     1      -3.212  34.745  -8.207  1.00  0.00     0.010 C 
ATOM      4  C   UNL     1      -4.151  34.884  -7.003  1.00  0.00     0.032 C 
ATOM      5  C   UNL     1      -3.831  33.896  -5.924  1.00  0.00     0.114 C 
ATOM      6  C   UNL     1      -3.357  32.596  -6.587  1.00  0.00     0.036 C 
ATOM      7  C   UNL     1      -4.044  32.506  -7.916  1.00  0.00    -0.002 C 
ATOM      8  C   UNL     1      -4.197  31.135  -8.452  1.00  0.00     0.004 C 
ATOM      9  C   UNL     1      -4.089  30.977  -9.916  1.00  0.00     0.004 C 
ATOM     10  C   UNL     1      -4.351  32.140 -10.770  1.00  0.00    -0.003 C 
ATOM     11  C   UNL     1      -4.336  33.488 -10.064  1.00  0.00    -0.001 C 
ATOM     12  C   UNL     1      -4.132  34.529 -11.099  1.00  0.00     0.005 C 
ATOM     13  C   UNL     1      -5.327  34.562 -12.035  1.00  0.00     0.015 C 
ATOM     14  C   UNL     1      -5.528  33.210 -12.609  1.00  0.00     0.029 C 
ATOM     15  C   UNL     1      -4.457  32.890 -13.618  1.00  0.00     0.020 C 
ATOM     16  C   UNL     1      -6.831  32.992 -13.268  1.00  0.00     0.139 C 
ATOM     17  O   UNL     1      -7.537  33.858 -13.728  1.00  0.00    -0.299 OA
ATOM     18  C   UNL     1      -7.074  31.524 -13.238  1.00  0.00     0.076 C 
ATOM     19  C   UNL     1      -6.007  30.957 -12.288  1.00  0.00     0.013 C 
ATOM     20  C   UNL     1      -5.623  32.137 -11.521  1.00  0.00     0.006 C 
ENDROOT
BRANCH   5  21
ATOM     21  O   UNL     1      -2.917  34.357  -4.995  1.00  0.00    -0.393 OA
ATOM     22  H   UNL     1      -3.226  34.080  -4.098  1.00  0.00     0.210 HD
ENDBRANCH   5  21
TORSDOF 1
ENDMDL
MODEL 3
REMARK VINA RESULT:      -5.7      2.970      5.957
REMARK SMILES C[C@]12CC[C@H](O)C[C@@H]1CC[C@@H]1[C@@H]2CC[C@]2(C)C(=O)CC[C@@H]12
REMARK SMILES IDX 1 1 2 2 3 3 4 4 5 5 7 6 8 7 9 8 10 9 11 10 12 11 13 12 14 13
REMARK SMILES IDX 15 14 16 15 17 16 18 17 19 18 20 19 21 20 6 21
REMARK H PARENT 6 22
ROOT
ATOM      1  C   UNL     1     -10.713  33.917 -15.833  1.00  0.00     0.012 C 
ATOM      2  C   UNL     1     -11.259  34.505 -14.548  1.00  0.00    -0.026 C 
ATOM      3  C   UNL     1     -11.184  33.476 -13.483  1.00  0.00     0.010 C 
ATOM      4  C   UNL     1     -12.431  33.449 -12.592  1.00  0.00     0.032 C 
ATOM      5  C   UNL     1     -13.647  32.999 -13.341  1.00  0.00     0.114 C 
ATOM      6  C   UNL     1     -13.545  33.520 -14.781  1.00  0.00     0.036 C 
ATOM      7  C   UNL     1     -12.761  34.797 -14.731  1.00  0.00    -0.002 C 
ATOM      8  C   UNL     1     -13.022  35.738 -15.843  1.00  0.00     0.004 C 
ATOM      9  C   UNL     1     -11.874  36.529 -16.328  1.00  0.00     0.004 C 
ATOM     10  C   UNL     1     -10.737  36.744 -15.426  1.00  0.00    -0.003 C 
ATOM     11  C   UNL     1     -10.674  35.819 -14.219  1.00  0.00    -0.001 C 
ATOM     12  C   UNL     1      -9.280  35.838 -13.717  1.00  0.00     0.005 C 
ATOM     13  C   UNL     1      -8.940  37.224 -13.199  1.00  0.00     0.015 C 
ATOM     14  C   UNL     1      -9.178  38.214 -14.277  1.00  0.00     0.029 C 
ATOM     15  C   UNL     1      -8.125  38.107 -15.348  1.00  0.00     0.020 C 
ATOM     16  C   UNL     1      -9.219  39.624 -13.841  1.00  0.00     0.139 C 
ATOM     17  O   UNL     1      -8.698  40.063 -12.843  1.00  0.00    -0.299 OA
ATOM     18  C   UNL     1     -10.014  40.355 -14.864  1.00  0.00     0.076 C 
ATOM     19  C   UNL     1     -10.660  39.263 -15.731  1.00  0.00     0.013 C 
ATOM     20  C   UNL     1     -10.592  38.098 -14.856  1.00  0.00     0.006 C 
ENDROOT
BRANCH   5  21
ATOM     21  O   UNL     1     -13.853  31.632 -13.307  1.00  0.00    -0.393 OA
ATOM     22  H   UNL     1     -14.624  31.424 -13.888  1.00  0.00     0.210 HD
ENDBRANCH   5  21
TORSDOF 1
ENDMDL
MODEL 4
REMARK VINA RESULT:      -5.5     15.460     17.144
REMARK SMILES C[C@]12CC[C@H](O)C[C@@H]1CC[C@@H]1[C@@H]2CC[C@]2(C)C(=O)CC[C@@H]12
REMARK SMILES IDX 1 1 2 2 3 3 4 4 5 5 7 6 8 7 9 8 10 9 11 10 12 11 13 12 14 13
REMARK SMILES IDX 15 14 16 15 17 16 18 17 19 18 20 19 21 20 6 21
REMARK H PARENT 6 22
ROOT
ATOM      1  C   UNL     1      -5.542  42.004  -0.884  1.00  0.00     0.012 C 
ATOM      2  C   UNL     1      -6.874  41.694  -1.536  1.00  0.00    -0.026 C 
ATOM      3  C   UNL     1      -7.569  40.659  -0.733  1.00  0.00     0.010 C 
ATOM      4  C   UNL     1      -8.256  39.597  -1.599  1.00  0.00     0.032 C 
ATOM      5  C   UNL     1      -7.269  38.762  -2.354  1.00  0.00     0.114 C 
ATOM      6  C   UNL     1      -6.084  39.654  -2.746  1.00  0.00     0.036 C 
ATOM      7  C   UNL     1      -6.618  41.045  -2.910  1.00  0.00    -0.002 C 
ATOM      8  C   UNL     1      -5.831  41.918  -3.808  1.00  0.00     0.004 C 
ATOM      9  C   UNL     1      -5.751  43.347  -3.446  1.00  0.00     0.004 C 
ATOM     10  C   UNL     1      -6.800  43.915  -2.593  1.00  0.00    -0.003 C 
ATOM     11  C   UNL     1      -7.660  42.904  -1.849  1.00  0.00    -0.001 C 
ATOM     12  C   UNL     1      -8.301  43.612  -0.716  1.00  0.00     0.005 C 
ATOM     13  C   UNL     1      -9.259  44.664  -1.246  1.00  0.00     0.015 C 
ATOM     14  C   UNL     1      -8.521  45.576  -2.153  1.00  0.00     0.029 C 
ATOM     15  C   UNL     1      -7.599  46.478  -1.376  1.00  0.00     0.020 C 
ATOM     16  C   UNL     1      -9.365  46.438  -3.003  1.00  0.00     0.139 C 
ATOM     17  O   UNL     1     -10.503  46.763  -2.760  1.00  0.00    -0.299 OA
ATOM     18  C   UNL     1      -8.535  46.804  -4.183  1.00  0.00     0.076 C 
ATOM     19  C   UNL     1      -7.303  45.888  -4.110  1.00  0.00     0.013 C 
ATOM     20  C   UNL     1      -7.776  44.809  -3.249  1.00  0.00     0.006 C 
ENDROOT
BRANCH   5  21
ATOM     21  O   UNL     1      -6.854  37.632  -1.673  1.00  0.00    -0.393 OA
ATOM     22  H   UNL     1      -5.869  37.665  -1.597  1.00  0.00     0.210 HD
ENDBRANCH   5  21
TORSDOF 1
ENDMDL
MODEL 5
REMARK VINA RESULT:      -5.5     13.955     15.704
REMARK SMILES C[C@]12CC[C@H](O)C[C@@H]1CC[C@@H]1[C@@H]2CC[C@]2(C)C(=O)CC[C@@H]12
REMARK SMILES IDX 1 1 2 2 3 3 4 4 5 5 7 6 8 7 9 8 10 9 11 10 12 11 13 12 14 13
REMARK SMILES IDX 15 14 16 15 17 16 18 17 19 18 20 19 21 20 6 21
REMARK H PARENT 6 22
ROOT
ATOM      1  C   UNL     1      -3.776  41.050  -3.385  1.00  0.00     0.012 C 
ATOM      2  C   UNL     1      -5.121  40.630  -3.940  1.00  0.00    -0.026 C 
ATOM      3  C   UNL     1      -5.130  39.157  -4.108  1.00  0.00     0.010 C 
ATOM      4  C   UNL     1      -5.797  38.711  -5.414  1.00  0.00     0.032 C 
ATOM      5  C   UNL     1      -5.014  39.134  -6.619  1.00  0.00     0.114 C 
ATOM      6  C   UNL     1      -4.373  40.496  -6.321  1.00  0.00     0.036 C 
ATOM      7  C   UNL     1      -5.278  41.206  -5.361  1.00  0.00    -0.002 C 
ATOM      8  C   UNL     1      -5.183  42.683  -5.384  1.00  0.00     0.004 C 
ATOM      9  C   UNL     1      -5.349  43.381  -4.094  1.00  0.00     0.004 C 
ATOM     10  C   UNL     1      -6.076  42.701  -3.016  1.00  0.00    -0.003 C 
ATOM     11  C   UNL     1      -6.258  41.201  -3.192  1.00  0.00    -0.001 C 
ATOM     12  C   UNL     1      -6.552  40.629  -1.857  1.00  0.00     0.005 C 
ATOM     13  C   UNL     1      -7.885  41.155  -1.356  1.00  0.00     0.015 C 
ATOM     14  C   UNL     1      -7.848  42.638  -1.353  1.00  0.00     0.029 C 
ATOM     15  C   UNL     1      -6.969  43.151  -0.244  1.00  0.00     0.020 C 
ATOM     16  C   UNL     1      -9.160  43.301  -1.215  1.00  0.00     0.139 C 
ATOM     17  O   UNL     1     -10.145  42.808  -0.719  1.00  0.00    -0.299 OA
ATOM     18  C   UNL     1      -9.006  44.659  -1.805  1.00  0.00     0.076 C 
ATOM     19  C   UNL     1      -7.654  44.632  -2.534  1.00  0.00     0.013 C 
ATOM     20  C   UNL     1      -7.433  43.201  -2.715  1.00  0.00     0.006 C 
ENDROOT
BRANCH   5  21
ATOM     21  O   UNL     1      -4.075  38.206  -7.030  1.00  0.00    -0.393 OA
ATOM     22  H   UNL     1      -4.523  37.562  -7.631  1.00  0.00     0.210 HD
ENDBRANCH   5  21
TORSDOF 1
ENDMDL
MODEL 6
REMARK VINA RESULT:      -5.5      7.884     10.995
REMARK SMILES C[C@]12CC[C@H](O)C[C@@H]1CC[C@@H]1[C@@H]2CC[C@]2(C)C(=O)CC[C@@H]12
REMARK SMILES IDX 1 1 2 2 3 3 4 4 5 5 7 6 8 7 9 8 10 9 11 10 12 11 13 12 14 13
REMARK SMILES IDX 15 14 16 15 17 16 18 17 19 18 20 19 21 20 6 21
REMARK H PARENT 6 22
ROOT
ATOM      1  C   UNL     1      -1.603  35.001  -7.792  1.00  0.00     0.012 C 
ATOM      2  C   UNL     1      -3.090  35.286  -7.749  1.00  0.00    -0.026 C 
ATOM      3  C   UNL     1      -3.292  36.742  -7.555  1.00  0.00     0.010 C 
ATOM      4  C   UNL     1      -4.419  37.061  -6.566  1.00  0.00     0.032 C 
ATOM      5  C   UNL     1      -4.083  36.629  -5.173  1.00  0.00     0.114 C 
ATOM      6  C   UNL     1      -3.257  35.339  -5.255  1.00  0.00     0.036 C 
ATOM      7  C   UNL     1      -3.691  34.619  -6.496  1.00  0.00    -0.002 C 
ATOM      8  C   UNL     1      -3.477  33.155  -6.479  1.00  0.00     0.004 C 
ATOM      9  C   UNL     1      -3.108  32.522  -7.761  1.00  0.00     0.004 C 
ATOM     10  C   UNL     1      -3.460  33.206  -9.010  1.00  0.00    -0.003 C 
ATOM     11  C   UNL     1      -3.829  34.675  -8.871  1.00  0.00    -0.001 C 
ATOM     12  C   UNL     1      -3.678  35.300 -10.206  1.00  0.00     0.005 C 
ATOM     13  C   UNL     1      -4.691  34.705 -11.168  1.00  0.00     0.015 C 
ATOM     14  C   UNL     1      -4.520  33.232 -11.198  1.00  0.00     0.029 C 
ATOM     15  C   UNL     1      -3.260  32.851 -11.929  1.00  0.00     0.020 C 
ATOM     16  C   UNL     1      -5.630  32.481 -11.816  1.00  0.00     0.139 C 
ATOM     17  O   UNL     1      -6.414  32.926 -12.622  1.00  0.00    -0.299 OA
ATOM     18  C   UNL     1      -5.574  31.107 -11.248  1.00  0.00     0.076 C 
ATOM     19  C   UNL     1      -4.580  31.193 -10.079  1.00  0.00     0.013 C 
ATOM     20  C   UNL     1      -4.569  32.624  -9.793  1.00  0.00     0.006 C 
ENDROOT
BRANCH   5  21
ATOM     21  O   UNL     1      -3.441  37.599  -4.425  1.00  0.00    -0.393 OA
ATOM     22  H   UNL     1      -3.043  37.162  -3.633  1.00  0.00     0.210 HD
ENDBRANCH   5  21
TORSDOF 1
ENDMDL
MODEL 7
REMARK VINA RESULT:      -5.5     16.390     19.076
REMARK SMILES C[C@]12CC[C@H](O)C[C@@H]1CC[C@@H]1[C@@H]2CC[C@]2(C)C(=O)CC[C@@H]12
REMARK SMILES IDX 1 1 2 2 3 3 4 4 5 5 7 6 8 7 9 8 10 9 11 10 12 11 13 12 14 13
REMARK SMILES IDX 15 14 16 15 17 16 18 17 19 18 20 19 21 20 6 21
REMARK H PARENT 6 22
ROOT
ATOM      1  C   UNL     1      -5.820  43.950  -2.599  1.00  0.00     0.012 C 
ATOM      2  C   UNL     1      -5.690  42.554  -2.026  1.00  0.00    -0.026 C 
ATOM      3  C   UNL     1      -6.600  41.646  -2.766  1.00  0.00     0.010 C 
ATOM      4  C   UNL     1      -7.330  40.659  -1.849  1.00  0.00     0.032 C 
ATOM      5  C   UNL     1      -8.293  41.348  -0.932  1.00  0.00     0.114 C 
ATOM      6  C   UNL     1      -7.698  42.709  -0.545  1.00  0.00     0.036 C 
ATOM      7  C   UNL     1      -6.207  42.559  -0.574  1.00  0.00    -0.002 C 
ATOM      8  C   UNL     1      -5.464  43.507   0.285  1.00  0.00     0.004 C 
ATOM      9  C   UNL     1      -4.161  43.984  -0.221  1.00  0.00     0.004 C 
ATOM     10  C   UNL     1      -3.451  43.168  -1.211  1.00  0.00    -0.003 C 
ATOM     11  C   UNL     1      -4.288  42.106  -1.908  1.00  0.00    -0.001 C 
ATOM     12  C   UNL     1      -3.585  41.734  -3.158  1.00  0.00     0.005 C 
ATOM     13  C   UNL     1      -2.262  41.068  -2.822  1.00  0.00     0.015 C 
ATOM     14  C   UNL     1      -1.468  41.978  -1.962  1.00  0.00     0.029 C 
ATOM     15  C   UNL     1      -0.941  43.145  -2.755  1.00  0.00     0.020 C 
ATOM     16  C   UNL     1      -0.316  41.356  -1.279  1.00  0.00     0.139 C 
ATOM     17  O   UNL     1       0.260  40.359  -1.645  1.00  0.00    -0.299 OA
ATOM     18  C   UNL     1      -0.035  42.196  -0.083  1.00  0.00     0.076 C 
ATOM     19  C   UNL     1      -1.242  43.140   0.041  1.00  0.00     0.013 C 
ATOM     20  C   UNL     1      -2.259  42.437  -0.734  1.00  0.00     0.006 C 
ENDROOT
BRANCH   5  21
ATOM     21  O   UNL     1      -9.567  41.478  -1.453  1.00  0.00    -0.393 OA
ATOM     22  H   UNL     1     -10.080  40.668  -1.214  1.00  0.00     0.210 HD
ENDBRANCH   5  21
TORSDOF 1
ENDMDL
MODEL 8
REMARK VINA RESULT:      -5.5     14.366     15.879
REMARK SMILES C[C@]12CC[C@H](O)C[C@@H]1CC[C@@H]1[C@@H]2CC[C@]2(C)C(=O)CC[C@@H]12
REMARK SMILES IDX 1 1 2 2 3 3 4 4 5 5 7 6 8 7 9 8 10 9 11 10 12 11 13 12 14 13
REMARK SMILES IDX 15 14 16 15 17 16 18 17 19 18 20 19 21 20 6 21
REMARK H PARENT 6 22
ROOT
ATOM      1  C   UNL     1      -3.888  40.481  -5.847  1.00  0.00     0.012 C 
ATOM      2  C   UNL     1      -3.286  40.340  -4.464  1.00  0.00    -0.026 C 
ATOM      3  C   UNL     1      -1.899  40.864  -4.492  1.00  0.00     0.010 C 
ATOM      4  C   UNL     1      -0.917  39.994  -3.700  1.00  0.00     0.032 C 
ATOM      5  C   UNL     1      -0.729  38.647  -4.326  1.00  0.00     0.114 C 
ATOM      6  C   UNL     1      -2.064  38.213  -4.945  1.00  0.00     0.036 C 
ATOM      7  C   UNL     1      -3.151  38.842  -4.127  1.00  0.00    -0.002 C 
ATOM      8  C   UNL     1      -4.452  38.137  -4.164  1.00  0.00     0.004 C 
ATOM      9  C   UNL     1      -5.665  38.977  -4.118  1.00  0.00     0.004 C 
ATOM     10  C   UNL     1      -5.567  40.323  -3.543  1.00  0.00    -0.003 C 
ATOM     11  C   UNL     1      -4.156  40.872  -3.398  1.00  0.00    -0.001 C 
ATOM     12  C   UNL     1      -4.263  42.345  -3.277  1.00  0.00     0.005 C 
ATOM     13  C   UNL     1      -4.984  42.703  -1.990  1.00  0.00     0.015 C 
ATOM     14  C   UNL     1      -6.303  42.026  -1.972  1.00  0.00     0.029 C 
ATOM     15  C   UNL     1      -7.251  42.668  -2.950  1.00  0.00     0.020 C 
ATOM     16  C   UNL     1      -6.979  41.998  -0.660  1.00  0.00     0.139 C 
ATOM     17  O   UNL     1      -6.787  42.776   0.244  1.00  0.00    -0.299 OA
ATOM     18  C   UNL     1      -7.915  40.841  -0.696  1.00  0.00     0.076 C 
ATOM     19  C   UNL     1      -7.532  40.051  -1.958  1.00  0.00     0.013 C 
ATOM     20  C   UNL     1      -6.174  40.519  -2.210  1.00  0.00     0.006 C 
ENDROOT
BRANCH   5  21
ATOM     21  O   UNL     1       0.301  38.597  -5.247  1.00  0.00    -0.393 OA
ATOM     22  H   UNL     1       1.103  38.240  -4.791  1.00  0.00     0.210 HD
ENDBRANCH   5  21
TORSDOF 1
ENDMDL
MODEL 9
REMARK VINA RESULT:      -5.5      9.030     11.617
REMARK SMILES C[C@]12CC[C@H](O)C[C@@H]1CC[C@@H]1[C@@H]2CC[C@]2(C)C(=O)CC[C@@H]12
REMARK SMILES IDX 1 1 2 2 3 3 4 4 5 5 7 6 8 7 9 8 10 9 11 10 12 11 13 12 14 13
REMARK SMILES IDX 15 14 16 15 17 16 18 17 19 18 20 19 21 20 6 21
REMARK H PARENT 6 22
ROOT
ATOM      1  C   UNL     1      -2.482  36.926  -7.585  1.00  0.00     0.012 C 
ATOM      2  C   UNL     1      -3.956  36.583  -7.651  1.00  0.00    -0.026 C 
ATOM      3  C   UNL     1      -4.698  37.761  -8.161  1.00  0.00     0.010 C 
ATOM      4  C   UNL     1      -6.015  38.003  -7.416  1.00  0.00     0.032 C 
ATOM      5  C   UNL     1      -5.790  38.399  -5.990  1.00  0.00     0.114 C 
ATOM      6  C   UNL     1      -4.554  37.652  -5.472  1.00  0.00     0.036 C 
ATOM      7  C   UNL     1      -4.481  36.355  -6.221  1.00  0.00    -0.002 C 
ATOM      8  C   UNL     1      -3.762  35.267  -5.522  1.00  0.00     0.004 C 
ATOM      9  C   UNL     1      -2.975  34.342  -6.363  1.00  0.00     0.004 C 
ATOM     10  C   UNL     1      -3.331  34.206  -7.780  1.00  0.00    -0.003 C 
ATOM     11  C   UNL     1      -4.221  35.305  -8.341  1.00  0.00    -0.001 C 
ATOM     12  C   UNL     1      -4.078  35.285  -9.816  1.00  0.00     0.005 C 
ATOM     13  C   UNL     1      -4.628  33.980 -10.365  1.00  0.00     0.015 C 
ATOM     14  C   UNL     1      -3.938  32.848  -9.703  1.00  0.00     0.029 C 
ATOM     15  C   UNL     1      -2.520  32.722 -10.193  1.00  0.00     0.020 C 
ATOM     16  C   UNL     1      -4.580  31.530  -9.874  1.00  0.00     0.139 C 
ATOM     17  O   UNL     1      -5.321  31.224 -10.779  1.00  0.00    -0.299 OA
ATOM     18  C   UNL     1      -4.132  30.693  -8.728  1.00  0.00     0.076 C 
ATOM     19  C   UNL     1      -3.451  31.670  -7.757  1.00  0.00     0.013 C 
ATOM     20  C   UNL     1      -4.004  32.954  -8.176  1.00  0.00     0.006 C 
ENDROOT
BRANCH   5  21
ATOM     21  O   UNL     1      -5.678  39.764  -5.798  1.00  0.00    -0.393 OA
ATOM     22  H   UNL     1      -4.934  39.925  -5.168  1.00  0.00     0.210 HD
ENDBRANCH   5  21
TORSDOF 1
ENDMDL
