MODEL 1
REMARK VINA RESULT:      -6.1      0.000      0.000
REMARK SMILES CC/C(=C(\c1ccccc1)c1ccc(OCC[NH+](C)C)cc1)c1ccccc1
REMARK SMILES IDX 15 1 14 2 11 3 12 4 22 5 13 6 21 7 4 8 3 9 2 10 1 11 23 12
REMARK SMILES IDX 24 13 28 14 25 15 27 16 26 17 5 18 6 19 10 20 7 21 9 22 8 23
REMARK SMILES IDX 16 24 17 25 18 26 19 27 20 28
REMARK H PARENT 18 29
ROOT
ATOM      1  O   UNL     1     127.391 113.890 168.626  1.00  0.00    -0.488 OA
ENDROOT
BRANCH   1   2
ATOM      2  C   UNL     1     126.830 115.019 168.059  1.00  0.00     0.119 A 
ATOM      3  C   UNL     1     125.778 117.393 166.868  1.00  0.00    -0.017 A 
ATOM      4  C   UNL     1     124.957 116.370 167.300  1.00  0.00     0.012 A 
ATOM      5  C   UNL     1     127.143 117.194 167.050  1.00  0.00     0.012 A 
ATOM      6  C   UNL     1     125.482 115.225 167.876  1.00  0.00     0.047 A 
ATOM      7  C   UNL     1     127.660 116.061 167.620  1.00  0.00     0.047 A 
BRANCH   3   8
ATOM      8  C   UNL     1     125.255 118.615 166.283  1.00  0.00    -0.007 C 
ATOM      9  C   UNL     1     125.208 119.747 166.936  1.00  0.00    -0.033 C 
BRANCH   9  10
ATOM     10  C   UNL     1     124.640 121.015 166.402  1.00  0.00     0.033 C 
ATOM     11  C   UNL     1     125.750 121.834 165.811  1.00  0.00     0.009 C 
ENDBRANCH   9  10
BRANCH   9  12
ATOM     12  C   UNL     1     125.800 119.873 168.280  1.00  0.00    -0.022 A 
ATOM     13  C   UNL     1     125.048 119.743 169.420  1.00  0.00     0.008 A 
ATOM     14  C   UNL     1     127.132 120.137 168.375  1.00  0.00     0.008 A 
ATOM     15  C   UNL     1     125.645 119.879 170.647  1.00  0.00     0.001 A 
ATOM     16  C   UNL     1     127.781 120.284 169.605  1.00  0.00     0.001 A 
ATOM     17  C   UNL     1     127.002 120.148 170.730  1.00  0.00     0.000 A 
ENDBRANCH   9  12
BRANCH   8  18
ATOM     18  C   UNL     1     124.733 118.550 164.933  1.00  0.00    -0.018 A 
ATOM     19  C   UNL     1     125.335 119.207 163.877  1.00  0.00     0.009 A 
ATOM     20  C   UNL     1     123.559 117.845 164.685  1.00  0.00     0.009 A 
ATOM     21  C   UNL     1     124.762 119.144 162.633  1.00  0.00     0.001 A 
ATOM     22  C   UNL     1     122.972 117.771 163.443  1.00  0.00     0.001 A 
ATOM     23  C   UNL     1     123.598 118.441 162.396  1.00  0.00     0.000 A 
ENDBRANCH   8  18
ENDBRANCH   3   8
ENDBRANCH   1   2
BRANCH   1  24
ATOM     24  C   UNL     1     126.761 112.741 169.073  1.00  0.00     0.290 C 
BRANCH  24  25
ATOM     25  C   UNL     1     127.107 111.475 168.335  1.00  0.00     0.303 C 
BRANCH  25  26
ATOM     26  N   UNL     1     126.371 110.339 168.800  1.00  0.00    -0.337 N 
ATOM     27  C   UNL     1     127.212 109.266 169.283  1.00  0.00     0.332 C 
ATOM     28  C   UNL     1     125.503 109.776 167.785  1.00  0.00     0.332 C 
ATOM     29  H   UNL     1     125.730 110.598 169.608  1.00  0.00     0.347 HD
ENDBRANCH  25  26
ENDBRANCH  24  25
ENDBRANCH   1  24
TORSDOF 8
ENDMDL
MODEL 2
REMARK VINA RESULT:      -5.8     11.894     14.288
REMARK SMILES CC/C(=C(\c1ccccc1)c1ccc(OCC[NH+](C)C)cc1)c1ccccc1
REMARK SMILES IDX 15 1 14 2 11 3 12 4 22 5 13 6 21 7 4 8 3 9 2 10 1 11 23 12
REMARK SMILES IDX 24 13 28 14 25 15 27 16 26 17 5 18 6 19 10 20 7 21 9 22 8 23
REMARK SMILES IDX 16 24 17 25 18 26 19 27 20 28
REMARK H PARENT 18 29
ROOT
ATOM      1  O   UNL     1     114.490 112.365 164.701  1.00  0.00    -0.488 OA
ENDROOT
BRANCH   1   2
ATOM      2  C   UNL     1     114.134 113.420 163.880  1.00  0.00     0.119 A 
ATOM      3  C   UNL     1     113.433 115.535 162.093  1.00  0.00    -0.017 A 
ATOM      4  C   UNL     1     113.178 115.613 163.448  1.00  0.00     0.012 A 
ATOM      5  C   UNL     1     114.051 114.367 161.657  1.00  0.00     0.012 A 
ATOM      6  C   UNL     1     113.524 114.578 164.302  1.00  0.00     0.047 A 
ATOM      7  C   UNL     1     114.392 113.345 162.504  1.00  0.00     0.047 A 
BRANCH   3   8
ATOM      8  C   UNL     1     113.104 116.613 161.177  1.00  0.00    -0.007 C 
ATOM      9  C   UNL     1     111.876 116.887 160.821  1.00  0.00    -0.033 C 
BRANCH   9  10
ATOM     10  C   UNL     1     111.486 117.947 159.851  1.00  0.00     0.033 C 
ATOM     11  C   UNL     1     111.109 117.301 158.550  1.00  0.00     0.009 C 
ENDBRANCH   9  10
BRANCH   9  12
ATOM     12  C   UNL     1     110.733 116.179 161.427  1.00  0.00    -0.022 A 
ATOM     13  C   UNL     1     110.365 114.919 161.031  1.00  0.00     0.008 A 
ATOM     14  C   UNL     1     110.027 116.815 162.402  1.00  0.00     0.008 A 
ATOM     15  C   UNL     1     109.287 114.309 161.621  1.00  0.00     0.001 A 
ATOM     16  C   UNL     1     108.922 116.231 163.029  1.00  0.00     0.001 A 
ATOM     17  C   UNL     1     108.577 114.966 162.612  1.00  0.00     0.000 A 
ENDBRANCH   9  12
BRANCH   8  18
ATOM     18  C   UNL     1     114.195 117.383 160.617  1.00  0.00    -0.018 A 
ATOM     19  C   UNL     1     114.704 117.134 159.358  1.00  0.00     0.009 A 
ATOM     20  C   UNL     1     114.794 118.380 161.382  1.00  0.00     0.009 A 
ATOM     21  C   UNL     1     115.769 117.869 158.906  1.00  0.00     0.001 A 
ATOM     22  C   UNL     1     115.862 119.127 160.944  1.00  0.00     0.001 A 
ATOM     23  C   UNL     1     116.356 118.858 159.671  1.00  0.00     0.000 A 
ENDBRANCH   8  18
ENDBRANCH   3   8
ENDBRANCH   1   2
BRANCH   1  24
ATOM     24  C   UNL     1     113.869 111.138 164.851  1.00  0.00     0.290 C 
BRANCH  24  25
ATOM     25  C   UNL     1     114.787 109.947 164.946  1.00  0.00     0.303 C 
BRANCH  25  26
ATOM     26  N   UNL     1     114.833 109.381 166.260  1.00  0.00    -0.337 N 
ATOM     27  C   UNL     1     114.961 107.939 166.261  1.00  0.00     0.332 C 
ATOM     28  C   UNL     1     113.666 109.706 167.054  1.00  0.00     0.332 C 
ATOM     29  H   UNL     1     115.663 109.751 166.812  1.00  0.00     0.347 HD
ENDBRANCH  25  26
ENDBRANCH  24  25
ENDBRANCH   1  24
TORSDOF 8
ENDMDL
MODEL 3
REMARK VINA RESULT:      -5.8     11.890     14.454
REMARK SMILES CC/C(=C(\c1ccccc1)c1ccc(OCC[NH+](C)C)cc1)c1ccccc1
REMARK SMILES IDX 15 1 14 2 11 3 12 4 22 5 13 6 21 7 4 8 3 9 2 10 1 11 23 12
REMARK SMILES IDX 24 13 28 14 25 15 27 16 26 17 5 18 6 19 10 20 7 21 9 22 8 23
REMARK SMILES IDX 16 24 17 25 18 26 19 27 20 28
REMARK H PARENT 18 29
ROOT
ATOM      1  O   UNL     1     114.243 111.955 163.389  1.00  0.00    -0.488 OA
ENDROOT
BRANCH   1   2
ATOM      2  C   UNL     1     114.024 113.175 162.777  1.00  0.00     0.119 A 
ATOM      3  C   UNL     1     113.589 115.644 161.409  1.00  0.00    -0.017 A 
ATOM      4  C   UNL     1     113.433 115.533 162.776  1.00  0.00     0.012 A 
ATOM      5  C   UNL     1     113.971 114.483 160.744  1.00  0.00     0.012 A 
ATOM      6  C   UNL     1     113.648 114.327 163.426  1.00  0.00     0.047 A 
ATOM      7  C   UNL     1     114.182 113.293 161.388  1.00  0.00     0.047 A 
BRANCH   3   8
ATOM      8  C   UNL     1     113.394 116.899 160.705  1.00  0.00    -0.007 C 
ATOM      9  C   UNL     1     112.210 117.353 160.383  1.00  0.00    -0.033 C 
BRANCH   9  10
ATOM     10  C   UNL     1     111.956 118.607 159.622  1.00  0.00     0.033 C 
ATOM     11  C   UNL     1     111.744 119.730 160.594  1.00  0.00     0.009 C 
ENDBRANCH   9  10
BRANCH   9  12
ATOM     12  C   UNL     1     110.986 116.662 160.827  1.00  0.00    -0.022 A 
ATOM     13  C   UNL     1     110.369 116.967 162.013  1.00  0.00     0.008 A 
ATOM     14  C   UNL     1     110.472 115.686 160.028  1.00  0.00     0.008 A 
ATOM     15  C   UNL     1     109.237 116.286 162.385  1.00  0.00     0.001 A 
ATOM     16  C   UNL     1     109.322 114.968 160.368  1.00  0.00     0.001 A 
ATOM     17  C   UNL     1     108.724 115.296 161.563  1.00  0.00     0.000 A 
ENDBRANCH   9  12
BRANCH   8  18
ATOM     18  C   UNL     1     114.572 117.648 160.317  1.00  0.00    -0.018 A 
ATOM     19  C   UNL     1     115.182 118.553 161.163  1.00  0.00     0.009 A 
ATOM     20  C   UNL     1     115.089 117.497 159.034  1.00  0.00     0.009 A 
ATOM     21  C   UNL     1     116.266 119.265 160.716  1.00  0.00     0.001 A 
ATOM     22  C   UNL     1     116.175 118.201 158.570  1.00  0.00     0.001 A 
ATOM     23  C   UNL     1     116.773 119.107 159.441  1.00  0.00     0.000 A 
ENDBRANCH   8  18
ENDBRANCH   3   8
ENDBRANCH   1   2
BRANCH   1  24
ATOM     24  C   UNL     1     114.614 111.697 164.697  1.00  0.00     0.290 C 
BRANCH  24  25
ATOM     25  C   UNL     1     113.538 111.121 165.581  1.00  0.00     0.303 C 
BRANCH  25  26
ATOM     26  N   UNL     1     113.036 112.064 166.534  1.00  0.00    -0.337 N 
ATOM     27  C   UNL     1     113.045 111.568 167.893  1.00  0.00     0.332 C 
ATOM     28  C   UNL     1     111.682 112.489 166.245  1.00  0.00     0.332 C 
ATOM     29  H   UNL     1     113.617 112.954 166.542  1.00  0.00     0.347 HD
ENDBRANCH  25  26
ENDBRANCH  24  25
ENDBRANCH   1  24
TORSDOF 8
ENDMDL
MODEL 4
REMARK VINA RESULT:      -5.6     11.887     14.526
REMARK SMILES CC/C(=C(\c1ccccc1)c1ccc(OCC[NH+](C)C)cc1)c1ccccc1
REMARK SMILES IDX 15 1 14 2 11 3 12 4 22 5 13 6 21 7 4 8 3 9 2 10 1 11 23 12
REMARK SMILES IDX 24 13 28 14 25 15 27 16 26 17 5 18 6 19 10 20 7 21 9 22 8 23
REMARK SMILES IDX 16 24 17 25 18 26 19 27 20 28
REMARK H PARENT 18 29
ROOT
ATOM      1  O   UNL     1     113.966 112.672 165.997  1.00  0.00    -0.488 OA
ENDROOT
BRANCH   1   2
ATOM      2  C   UNL     1     113.794 113.430 164.853  1.00  0.00     0.119 A 
ATOM      3  C   UNL     1     113.505 114.915 162.430  1.00  0.00    -0.017 A 
ATOM      4  C   UNL     1     112.864 115.290 163.595  1.00  0.00     0.012 A 
ATOM      5  C   UNL     1     114.297 113.774 162.513  1.00  0.00     0.012 A 
ATOM      6  C   UNL     1     113.015 114.559 164.762  1.00  0.00     0.047 A 
ATOM      7  C   UNL     1     114.444 113.053 163.668  1.00  0.00     0.047 A 
BRANCH   3   8
ATOM      8  C   UNL     1     113.385 115.675 161.199  1.00  0.00    -0.007 C 
ATOM      9  C   UNL     1     112.539 115.360 160.253  1.00  0.00    -0.033 C 
BRANCH   9  10
ATOM     10  C   UNL     1     112.407 116.074 158.954  1.00  0.00     0.033 C 
ATOM     11  C   UNL     1     113.187 115.330 157.909  1.00  0.00     0.009 C 
ENDBRANCH   9  10
BRANCH   9  12
ATOM     12  C   UNL     1     111.565 114.269 160.439  1.00  0.00    -0.022 A 
ATOM     13  C   UNL     1     111.862 112.968 160.122  1.00  0.00     0.008 A 
ATOM     14  C   UNL     1     110.334 114.581 160.931  1.00  0.00     0.008 A 
ATOM     15  C   UNL     1     110.916 111.991 160.304  1.00  0.00     0.001 A 
ATOM     16  C   UNL     1     109.342 113.617 161.132  1.00  0.00     0.001 A 
ATOM     17  C   UNL     1     109.668 112.321 160.806  1.00  0.00     0.000 A 
ENDBRANCH   9  12
BRANCH   8  18
ATOM     18  C   UNL     1     114.274 116.804 161.010  1.00  0.00    -0.018 A 
ATOM     19  C   UNL     1     113.863 118.107 161.208  1.00  0.00     0.009 A 
ATOM     20  C   UNL     1     115.575 116.585 160.567  1.00  0.00     0.009 A 
ATOM     21  C   UNL     1     114.741 119.132 160.966  1.00  0.00     0.001 A 
ATOM     22  C   UNL     1     116.468 117.601 160.320  1.00  0.00     0.001 A 
ATOM     23  C   UNL     1     116.031 118.906 160.528  1.00  0.00     0.000 A 
ENDBRANCH   8  18
ENDBRANCH   3   8
ENDBRANCH   1   2
BRANCH   1  24
ATOM     24  C   UNL     1     113.002 112.088 166.801  1.00  0.00     0.290 C 
BRANCH  24  25
ATOM     25  C   UNL     1     113.164 110.611 167.048  1.00  0.00     0.303 C 
BRANCH  25  26
ATOM     26  N   UNL     1     113.768 109.924 165.948  1.00  0.00    -0.337 N 
ATOM     27  C   UNL     1     112.808 109.376 165.014  1.00  0.00     0.332 C 
ATOM     28  C   UNL     1     114.625 108.834 166.367  1.00  0.00     0.332 C 
ATOM     29  H   UNL     1     114.393 110.573 165.382  1.00  0.00     0.347 HD
ENDBRANCH  25  26
ENDBRANCH  24  25
ENDBRANCH   1  24
TORSDOF 8
ENDMDL
MODEL 5
REMARK VINA RESULT:      -5.6     12.145     14.406
REMARK SMILES CC/C(=C(\c1ccccc1)c1ccc(OCC[NH+](C)C)cc1)c1ccccc1
REMARK SMILES IDX 15 1 14 2 11 3 12 4 22 5 13 6 21 7 4 8 3 9 2 10 1 11 23 12
REMARK SMILES IDX 24 13 28 14 25 15 27 16 26 17 5 18 6 19 10 20 7 21 9 22 8 23
REMARK SMILES IDX 16 24 17 25 18 26 19 27 20 28
REMARK H PARENT 18 29
ROOT
ATOM      1  O   UNL     1     115.262 111.694 163.779  1.00  0.00    -0.488 OA
ENDROOT
BRANCH   1   2
ATOM      2  C   UNL     1     114.830 112.831 163.120  1.00  0.00     0.119 A 
ATOM      3  C   UNL     1     113.898 115.220 161.862  1.00  0.00    -0.017 A 
ATOM      4  C   UNL     1     114.599 114.255 161.164  1.00  0.00     0.012 A 
ATOM      5  C   UNL     1     113.676 114.953 163.209  1.00  0.00     0.012 A 
ATOM      6  C   UNL     1     115.044 113.101 161.789  1.00  0.00     0.047 A 
ATOM      7  C   UNL     1     114.117 113.812 163.825  1.00  0.00     0.047 A 
BRANCH   3   8
ATOM      8  C   UNL     1     113.398 116.427 161.229  1.00  0.00    -0.007 C 
ATOM      9  C   UNL     1     112.122 116.698 161.133  1.00  0.00    -0.033 C 
BRANCH   9  10
ATOM     10  C   UNL     1     111.554 117.895 160.454  1.00  0.00     0.033 C 
ATOM     11  C   UNL     1     110.975 117.475 159.134  1.00  0.00     0.009 C 
ENDBRANCH   9  10
BRANCH   9  12
ATOM     12  C   UNL     1     111.113 115.837 161.776  1.00  0.00    -0.022 A 
ATOM     13  C   UNL     1     110.766 114.615 161.260  1.00  0.00     0.008 A 
ATOM     14  C   UNL     1     110.509 116.288 162.910  1.00  0.00     0.008 A 
ATOM     15  C   UNL     1     109.813 113.856 161.891  1.00  0.00     0.001 A 
ATOM     16  C   UNL     1     109.533 115.549 163.584  1.00  0.00     0.001 A 
ATOM     17  C   UNL     1     109.206 114.326 163.043  1.00  0.00     0.000 A 
ENDBRANCH   9  12
BRANCH   8  18
ATOM     18  C   UNL     1     114.364 117.339 160.651  1.00  0.00    -0.018 A 
ATOM     19  C   UNL     1     114.956 118.348 161.385  1.00  0.00     0.009 A 
ATOM     20  C   UNL     1     114.679 117.237 159.299  1.00  0.00     0.009 A 
ATOM     21  C   UNL     1     115.826 119.207 160.765  1.00  0.00     0.001 A 
ATOM     22  C   UNL     1     115.550 118.090 158.662  1.00  0.00     0.001 A 
ATOM     23  C   UNL     1     116.135 119.098 159.423  1.00  0.00     0.000 A 
ENDBRANCH   8  18
ENDBRANCH   3   8
ENDBRANCH   1   2
BRANCH   1  24
ATOM     24  C   UNL     1     114.527 110.803 164.541  1.00  0.00     0.290 C 
BRANCH  24  25
ATOM     25  C   UNL     1     113.263 110.286 163.907  1.00  0.00     0.303 C 
BRANCH  25  26
ATOM     26  N   UNL     1     112.113 110.444 164.744  1.00  0.00    -0.337 N 
ATOM     27  C   UNL     1     112.193 109.693 165.978  1.00  0.00     0.332 C 
ATOM     28  C   UNL     1     110.881 110.057 164.089  1.00  0.00     0.332 C 
ATOM     29  H   UNL     1     111.976 111.461 165.027  1.00  0.00     0.347 HD
ENDBRANCH  25  26
ENDBRANCH  24  25
ENDBRANCH   1  24
TORSDOF 8
ENDMDL
MODEL 6
REMARK VINA RESULT:      -5.6     12.346     14.665
REMARK SMILES CC/C(=C(\c1ccccc1)c1ccc(OCC[NH+](C)C)cc1)c1ccccc1
REMARK SMILES IDX 15 1 14 2 11 3 12 4 22 5 13 6 21 7 4 8 3 9 2 10 1 11 23 12
REMARK SMILES IDX 24 13 28 14 25 15 27 16 26 17 5 18 6 19 10 20 7 21 9 22 8 23
REMARK SMILES IDX 16 24 17 25 18 26 19 27 20 28
REMARK H PARENT 18 29
ROOT
ATOM      1  O   UNL     1     115.060 110.970 161.174  1.00  0.00    -0.488 OA
ENDROOT
BRANCH   1   2
ATOM      2  C   UNL     1     114.685 112.299 161.085  1.00  0.00     0.119 A 
ATOM      3  C   UNL     1     113.844 115.014 160.810  1.00  0.00    -0.017 A 
ATOM      4  C   UNL     1     114.645 114.603 161.857  1.00  0.00     0.012 A 
ATOM      5  C   UNL     1     113.477 114.026 159.902  1.00  0.00     0.012 A 
ATOM      6  C   UNL     1     115.045 113.282 161.977  1.00  0.00     0.047 A 
ATOM      7  C   UNL     1     113.872 112.721 160.023  1.00  0.00     0.047 A 
BRANCH   3   8
ATOM      8  C   UNL     1     113.430 116.396 160.645  1.00  0.00    -0.007 C 
ATOM      9  C   UNL     1     112.235 116.819 160.968  1.00  0.00    -0.033 C 
BRANCH   9  10
ATOM     10  C   UNL     1     111.743 118.211 160.777  1.00  0.00     0.033 C 
ATOM     11  C   UNL     1     111.062 118.307 159.443  1.00  0.00     0.009 C 
ENDBRANCH   9  10
BRANCH   9  12
ATOM     12  C   UNL     1     111.268 115.927 161.634  1.00  0.00    -0.022 A 
ATOM     13  C   UNL     1     110.347 115.197 160.928  1.00  0.00     0.008 A 
ATOM     14  C   UNL     1     111.298 115.846 162.993  1.00  0.00     0.008 A 
ATOM     15  C   UNL     1     109.463 114.389 161.597  1.00  0.00     0.001 A 
ATOM     16  C   UNL     1     110.415 115.036 163.714  1.00  0.00     0.001 A 
ATOM     17  C   UNL     1     109.503 114.315 162.979  1.00  0.00     0.000 A 
ENDBRANCH   9  12
BRANCH   8  18
ATOM     18  C   UNL     1     114.379 117.324 160.064  1.00  0.00    -0.018 A 
ATOM     19  C   UNL     1     114.624 117.374 158.706  1.00  0.00     0.009 A 
ATOM     20  C   UNL     1     115.111 118.166 160.896  1.00  0.00     0.009 A 
ATOM     21  C   UNL     1     115.571 118.242 158.226  1.00  0.00     0.001 A 
ATOM     22  C   UNL     1     116.063 119.044 160.431  1.00  0.00     0.001 A 
ATOM     23  C   UNL     1     116.291 119.076 159.059  1.00  0.00     0.000 A 
ENDBRANCH   8  18
ENDBRANCH   3   8
ENDBRANCH   1   2
BRANCH   1  24
ATOM     24  C   UNL     1     114.269 109.862 161.420  1.00  0.00     0.290 C 
BRANCH  24  25
ATOM     25  C   UNL     1     113.870 109.650 162.857  1.00  0.00     0.303 C 
BRANCH  25  26
ATOM     26  N   UNL     1     112.452 109.581 163.038  1.00  0.00    -0.337 N 
ATOM     27  C   UNL     1     111.969 108.243 163.302  1.00  0.00     0.332 C 
ATOM     28  C   UNL     1     111.714 110.084 161.897  1.00  0.00     0.332 C 
ATOM     29  H   UNL     1     112.137 110.176 163.862  1.00  0.00     0.347 HD
ENDBRANCH  25  26
ENDBRANCH  24  25
ENDBRANCH   1  24
TORSDOF 8
ENDMDL
MODEL 7
REMARK VINA RESULT:      -5.6     11.839     14.465
REMARK SMILES CC/C(=C(\c1ccccc1)c1ccc(OCC[NH+](C)C)cc1)c1ccccc1
REMARK SMILES IDX 15 1 14 2 11 3 12 4 22 5 13 6 21 7 4 8 3 9 2 10 1 11 23 12
REMARK SMILES IDX 24 13 28 14 25 15 27 16 26 17 5 18 6 19 10 20 7 21 9 22 8 23
REMARK SMILES IDX 16 24 17 25 18 26 19 27 20 28
REMARK H PARENT 18 29
ROOT
ATOM      1  O   UNL     1     113.907 112.378 163.961  1.00  0.00    -0.488 OA
ENDROOT
BRANCH   1   2
ATOM      2  C   UNL     1     113.792 113.485 163.141  1.00  0.00     0.119 A 
ATOM      3  C   UNL     1     113.521 115.835 161.539  1.00  0.00    -0.017 A 
ATOM      4  C   UNL     1     114.007 114.652 161.019  1.00  0.00     0.012 A 
ATOM      5  C   UNL     1     113.172 115.808 162.886  1.00  0.00     0.012 A 
ATOM      6  C   UNL     1     114.133 113.520 161.809  1.00  0.00     0.047 A 
ATOM      7  C   UNL     1     113.297 114.688 163.665  1.00  0.00     0.047 A 
BRANCH   3   8
ATOM      8  C   UNL     1     113.355 117.029 160.730  1.00  0.00    -0.007 C 
ATOM      9  C   UNL     1     112.183 117.475 160.361  1.00  0.00    -0.033 C 
BRANCH   9  10
ATOM     10  C   UNL     1     111.958 118.664 159.494  1.00  0.00     0.033 C 
ATOM     11  C   UNL     1     111.446 118.204 158.160  1.00  0.00     0.009 C 
ENDBRANCH   9  10
BRANCH   9  12
ATOM     12  C   UNL     1     110.942 116.846 160.849  1.00  0.00    -0.022 A 
ATOM     13  C   UNL     1     110.508 115.634 160.378  1.00  0.00     0.008 A 
ATOM     14  C   UNL     1     110.213 117.507 161.790  1.00  0.00     0.008 A 
ATOM     15  C   UNL     1     109.341 115.096 160.859  1.00  0.00     0.001 A 
ATOM     16  C   UNL     1     109.018 116.996 162.307  1.00  0.00     0.001 A 
ATOM     17  C   UNL     1     108.608 115.778 161.816  1.00  0.00     0.000 A 
ENDBRANCH   9  12
BRANCH   8  18
ATOM     18  C   UNL     1     114.550 117.722 160.292  1.00  0.00    -0.018 A 
ATOM     19  C   UNL     1     115.080 117.551 159.029  1.00  0.00     0.009 A 
ATOM     20  C   UNL     1     115.224 118.555 161.181  1.00  0.00     0.009 A 
ATOM     21  C   UNL     1     116.240 118.201 158.694  1.00  0.00     0.001 A 
ATOM     22  C   UNL     1     116.388 119.214 160.861  1.00  0.00     0.001 A 
ATOM     23  C   UNL     1     116.902 119.026 159.582  1.00  0.00     0.000 A 
ENDBRANCH   8  18
ENDBRANCH   3   8
ENDBRANCH   1   2
BRANCH   1  24
ATOM     24  C   UNL     1     113.962 112.326 165.343  1.00  0.00     0.290 C 
BRANCH  24  25
ATOM     25  C   UNL     1     112.676 111.961 166.036  1.00  0.00     0.303 C 
BRANCH  25  26
ATOM     26  N   UNL     1     112.824 110.865 166.946  1.00  0.00    -0.337 N 
ATOM     27  C   UNL     1     113.155 111.277 168.293  1.00  0.00     0.332 C 
ATOM     28  C   UNL     1     113.838 109.919 166.527  1.00  0.00     0.332 C 
ATOM     29  H   UNL     1     111.925 110.302 167.022  1.00  0.00     0.347 HD
ENDBRANCH  25  26
ENDBRANCH  24  25
ENDBRANCH   1  24
TORSDOF 8
ENDMDL
MODEL 8
REMARK VINA RESULT:      -5.5     12.238     14.499
REMARK SMILES CC/C(=C(\c1ccccc1)c1ccc(OCC[NH+](C)C)cc1)c1ccccc1
REMARK SMILES IDX 15 1 14 2 11 3 12 4 22 5 13 6 21 7 4 8 3 9 2 10 1 11 23 12
REMARK SMILES IDX 24 13 28 14 25 15 27 16 26 17 5 18 6 19 10 20 7 21 9 22 8 23
REMARK SMILES IDX 16 24 17 25 18 26 19 27 20 28
REMARK H PARENT 18 29
ROOT
ATOM      1  O   UNL     1     115.030 110.975 161.171  1.00  0.00    -0.488 OA
ENDROOT
BRANCH   1   2
ATOM      2  C   UNL     1     114.648 112.296 161.022  1.00  0.00     0.119 A 
ATOM      3  C   UNL     1     113.924 115.051 160.809  1.00  0.00    -0.017 A 
ATOM      4  C   UNL     1     113.539 114.122 159.862  1.00  0.00     0.012 A 
ATOM      5  C   UNL     1     114.682 114.560 161.868  1.00  0.00     0.012 A 
ATOM      6  C   UNL     1     113.898 112.788 159.980  1.00  0.00     0.047 A 
ATOM      7  C   UNL     1     115.037 113.242 161.981  1.00  0.00     0.047 A 
BRANCH   3   8
ATOM      8  C   UNL     1     113.542 116.449 160.725  1.00  0.00    -0.007 C 
ATOM      9  C   UNL     1     112.358 116.880 161.078  1.00  0.00    -0.033 C 
BRANCH   9  10
ATOM     10  C   UNL     1     111.898 118.292 160.968  1.00  0.00     0.033 C 
ATOM     11  C   UNL     1     111.161 118.463 159.673  1.00  0.00     0.009 C 
ENDBRANCH   9  10
BRANCH   9  12
ATOM     12  C   UNL     1     111.374 115.975 161.698  1.00  0.00    -0.022 A 
ATOM     13  C   UNL     1     111.348 115.745 163.049  1.00  0.00     0.008 A 
ATOM     14  C   UNL     1     110.476 115.348 160.888  1.00  0.00     0.008 A 
ATOM     15  C   UNL     1     110.417 114.885 163.575  1.00  0.00     0.001 A 
ATOM     16  C   UNL     1     109.512 114.464 161.380  1.00  0.00     0.001 A 
ATOM     17  C   UNL     1     109.510 114.253 162.740  1.00  0.00     0.000 A 
ENDBRANCH   9  12
BRANCH   8  18
ATOM     18  C   UNL     1     114.510 117.386 160.192  1.00  0.00    -0.018 A 
ATOM     19  C   UNL     1     115.267 118.206 161.003  1.00  0.00     0.009 A 
ATOM     20  C   UNL     1     114.658 117.507 158.813  1.00  0.00     0.009 A 
ATOM     21  C   UNL     1     116.131 119.105 160.432  1.00  0.00     0.001 A 
ATOM     22  C   UNL     1     115.520 118.401 158.223  1.00  0.00     0.001 A 
ATOM     23  C   UNL     1     116.273 119.217 159.063  1.00  0.00     0.000 A 
ENDBRANCH   8  18
ENDBRANCH   3   8
ENDBRANCH   1   2
BRANCH   1  24
ATOM     24  C   UNL     1     114.320 109.829 160.858  1.00  0.00     0.290 C 
BRANCH  24  25
ATOM     25  C   UNL     1     113.226 109.453 161.824  1.00  0.00     0.303 C 
BRANCH  25  26
ATOM     26  N   UNL     1     113.691 108.635 162.903  1.00  0.00    -0.337 N 
ATOM     27  C   UNL     1     112.797 107.545 163.225  1.00  0.00     0.332 C 
ATOM     28  C   UNL     1     113.907 109.384 164.124  1.00  0.00     0.332 C 
ATOM     29  H   UNL     1     114.629 108.190 162.675  1.00  0.00     0.347 HD
ENDBRANCH  25  26
ENDBRANCH  24  25
ENDBRANCH   1  24
TORSDOF 8
ENDMDL
MODEL 9
REMARK VINA RESULT:      -5.5     12.007     14.368
REMARK SMILES CC/C(=C(\c1ccccc1)c1ccc(OCC[NH+](C)C)cc1)c1ccccc1
REMARK SMILES IDX 15 1 14 2 11 3 12 4 22 5 13 6 21 7 4 8 3 9 2 10 1 11 23 12
REMARK SMILES IDX 24 13 28 14 25 15 27 16 26 17 5 18 6 19 10 20 7 21 9 22 8 23
REMARK SMILES IDX 16 24 17 25 18 26 19 27 20 28
REMARK H PARENT 18 29
ROOT
ATOM      1  O   UNL     1     114.769 112.089 164.082  1.00  0.00    -0.488 OA
ENDROOT
BRANCH   1   2
ATOM      2  C   UNL     1     114.433 113.217 163.355  1.00  0.00     0.119 A 
ATOM      3  C   UNL     1     113.789 115.497 161.761  1.00  0.00    -0.017 A 
ATOM      4  C   UNL     1     113.367 115.383 163.071  1.00  0.00     0.012 A 
ATOM      5  C   UNL     1     114.545 114.437 161.271  1.00  0.00     0.012 A 
ATOM      6  C   UNL     1     113.688 114.270 163.832  1.00  0.00     0.047 A 
ATOM      7  C   UNL     1     114.860 113.338 162.025  1.00  0.00     0.047 A 
BRANCH   3   8
ATOM      8  C   UNL     1     113.489 116.662 160.947  1.00  0.00    -0.007 C 
ATOM      9  C   UNL     1     112.273 116.972 160.577  1.00  0.00    -0.033 C 
BRANCH   9  10
ATOM     10  C   UNL     1     111.915 118.124 159.706  1.00  0.00     0.033 C 
ATOM     11  C   UNL     1     111.646 119.321 160.571  1.00  0.00     0.009 C 
ENDBRANCH   9  10
BRANCH   9  12
ATOM     12  C   UNL     1     111.112 116.208 161.069  1.00  0.00    -0.022 A 
ATOM     13  C   UNL     1     110.714 115.033 160.484  1.00  0.00     0.008 A 
ATOM     14  C   UNL     1     110.419 116.703 162.132  1.00  0.00     0.008 A 
ATOM     15  C   UNL     1     109.620 114.366 160.975  1.00  0.00     0.001 A 
ATOM     16  C   UNL     1     109.300 116.056 162.663  1.00  0.00     0.001 A 
ATOM     17  C   UNL     1     108.924 114.880 162.056  1.00  0.00     0.000 A 
ENDBRANCH   9  12
BRANCH   8  18
ATOM     18  C   UNL     1     114.597 117.485 160.506  1.00  0.00    -0.018 A 
ATOM     19  C   UNL     1     115.161 118.456 161.308  1.00  0.00     0.009 A 
ATOM     20  C   UNL     1     115.089 117.333 159.213  1.00  0.00     0.009 A 
ATOM     21  C   UNL     1     116.176 119.232 160.812  1.00  0.00     0.001 A 
ATOM     22  C   UNL     1     116.107 118.102 158.699  1.00  0.00     0.001 A 
ATOM     23  C   UNL     1     116.660 119.074 159.528  1.00  0.00     0.000 A 
ENDBRANCH   8  18
ENDBRANCH   3   8
ENDBRANCH   1   2
BRANCH   1  24
ATOM     24  C   UNL     1     113.935 111.127 164.622  1.00  0.00     0.290 C 
BRANCH  24  25
ATOM     25  C   UNL     1     114.186 109.713 164.167  1.00  0.00     0.303 C 
BRANCH  25  26
ATOM     26  N   UNL     1     113.041 109.113 163.551  1.00  0.00    -0.337 N 
ATOM     27  C   UNL     1     113.377 108.201 162.479  1.00  0.00     0.332 C 
ATOM     28  C   UNL     1     112.119 110.089 163.008  1.00  0.00     0.332 C 
ATOM     29  H   UNL     1     112.475 108.548 164.252  1.00  0.00     0.347 HD
ENDBRANCH  25  26
ENDBRANCH  24  25
ENDBRANCH   1  24
TORSDOF 8
ENDMDL
