MODEL 1
REMARK VINA RESULT:      -8.1      0.000      0.000
REMARK SMILES O=C(CCC[NH+]1CCC(O)(c2ccc(Cl)cc2)CC1)c1ccc(F)cc1
REMARK SMILES IDX 4 1 3 2 2 3 1 4 20 5 21 6 26 7 22 8 25 9 23 10 24 11 5 12
REMARK SMILES IDX 6 13 7 14 19 15 8 16 18 17 9 18 10 20 11 22 12 23 17 24
REMARK SMILES IDX 13 25 16 26 14 27 15 28
REMARK H PARENT 6 19 10 21
ROOT
ATOM      1  C   UNL     1      97.339 120.933 115.878  1.00  0.00     0.070 C 
ENDROOT
BRANCH   1   2
ATOM      2  C   UNL     1      96.003 121.571 115.568  1.00  0.00     0.087 C 
BRANCH   2   3
ATOM      3  C   UNL     1      94.854 120.882 116.159  1.00  0.00     0.163 C 
ATOM      4  O   UNL     1      95.004 119.935 116.974  1.00  0.00    -0.294 OA
BRANCH   3   5
ATOM      5  C   UNL     1      93.459 121.252 115.840  1.00  0.00     0.018 A 
ATOM      6  C   UNL     1      93.055 121.402 114.526  1.00  0.00     0.015 A 
ATOM      7  C   UNL     1      92.536 121.453 116.835  1.00  0.00     0.015 A 
ATOM      8  C   UNL     1      91.756 121.747 114.236  1.00  0.00     0.040 A 
ATOM      9  C   UNL     1      91.241 121.795 116.554  1.00  0.00     0.040 A 
ATOM     10  C   UNL     1      90.853 121.942 115.250  1.00  0.00     0.123 A 
ATOM     11  F   UNL     1      89.549 122.288 115.009  1.00  0.00    -0.207 F 
ENDBRANCH   3   5
ENDBRANCH   2   3
ENDBRANCH   1   2
BRANCH   1  12
ATOM     12  C   UNL     1      98.380 121.589 115.037  1.00  0.00     0.262 C 
BRANCH  12  13
ATOM     13  N   UNL     1      99.598 121.889 115.780  1.00  0.00    -0.335 N 
ATOM     14  C   UNL     1      99.868 123.293 115.843  1.00  0.00     0.265 C 
ATOM     15  C   UNL     1      99.524 121.328 117.090  1.00  0.00     0.265 C 
ATOM     16  C   UNL     1      98.749 124.042 116.513  1.00  0.00     0.102 C 
ATOM     17  C   UNL     1      99.288 122.257 118.204  1.00  0.00     0.102 C 
ATOM     18  C   UNL     1      98.583 123.531 117.913  1.00  0.00     0.100 C 
ATOM     19  H   UNL     1     100.378 121.459 115.199  1.00  0.00     0.348 HD
BRANCH  18  20
ATOM     20  O   UNL     1      99.150 124.518 118.757  1.00  0.00    -0.385 OA
ATOM     21  H   UNL     1     100.131 124.386 118.727  1.00  0.00     0.211 HD
ENDBRANCH  18  20
BRANCH  18  22
ATOM     22  C   UNL     1      97.132 123.497 118.316  1.00  0.00    -0.016 A 
ATOM     23  C   UNL     1      96.249 124.493 117.955  1.00  0.00     0.008 A 
ATOM     24  C   UNL     1      96.596 122.473 119.066  1.00  0.00     0.008 A 
ATOM     25  C   UNL     1      94.917 124.499 118.302  1.00  0.00     0.021 A 
ATOM     26  C   UNL     1      95.263 122.458 119.426  1.00  0.00     0.021 A 
ATOM     27  C   UNL     1      94.425 123.471 119.044  1.00  0.00     0.041 A 
ATOM     28  Cl  UNL     1      92.737 123.459 119.493  1.00  0.00    -0.084 Cl
ENDBRANCH  18  22
ENDBRANCH  12  13
ENDBRANCH   1  12
TORSDOF 7
ENDMDL
MODEL 2
REMARK VINA RESULT:      -8.1      0.051      1.308
REMARK SMILES O=C(CCC[NH+]1CCC(O)(c2ccc(Cl)cc2)CC1)c1ccc(F)cc1
REMARK SMILES IDX 4 1 3 2 2 3 1 4 20 5 21 6 26 7 22 8 25 9 23 10 24 11 5 12
REMARK SMILES IDX 6 13 7 14 19 15 8 16 18 17 9 18 10 20 11 22 12 23 17 24
REMARK SMILES IDX 13 25 16 26 14 27 15 28
REMARK H PARENT 6 19 10 21
ROOT
ATOM      1  C   UNL     1      97.318 120.912 115.808  1.00  0.00     0.070 C 
ENDROOT
BRANCH   1   2
ATOM      2  C   UNL     1      95.986 121.580 115.546  1.00  0.00     0.087 C 
BRANCH   2   3
ATOM      3  C   UNL     1      94.841 120.902 116.158  1.00  0.00     0.163 C 
ATOM      4  O   UNL     1      94.996 119.975 116.994  1.00  0.00    -0.294 OA
BRANCH   3   5
ATOM      5  C   UNL     1      93.444 121.260 115.836  1.00  0.00     0.018 A 
ATOM      6  C   UNL     1      92.525 121.482 116.845  1.00  0.00     0.015 A 
ATOM      7  C   UNL     1      93.027 121.381 114.534  1.00  0.00     0.015 A 
ATOM      8  C   UNL     1      91.227 121.815 116.539  1.00  0.00     0.040 A 
ATOM      9  C   UNL     1      91.736 121.713 114.221  1.00  0.00     0.040 A 
ATOM     10  C   UNL     1      90.837 121.930 115.229  1.00  0.00     0.123 A 
ATOM     11  F   UNL     1      89.553 122.257 114.876  1.00  0.00    -0.207 F 
ENDBRANCH   3   5
ENDBRANCH   2   3
ENDBRANCH   1   2
BRANCH   1  12
ATOM     12  C   UNL     1      98.358 121.600 114.992  1.00  0.00     0.262 C 
BRANCH  12  13
ATOM     13  N   UNL     1      99.579 121.863 115.742  1.00  0.00    -0.335 N 
ATOM     14  C   UNL     1      99.884 123.260 115.817  1.00  0.00     0.265 C 
ATOM     15  C   UNL     1      99.486 121.295 117.047  1.00  0.00     0.265 C 
ATOM     16  C   UNL     1      98.782 124.032 116.489  1.00  0.00     0.102 C 
ATOM     17  C   UNL     1      99.268 122.221 118.167  1.00  0.00     0.102 C 
ATOM     18  C   UNL     1      98.597 123.514 117.884  1.00  0.00     0.100 C 
ATOM     19  H   UNL     1     100.351 121.419 115.161  1.00  0.00     0.348 HD
BRANCH  18  20
ATOM     20  O   UNL     1      99.185 124.480 118.737  1.00  0.00    -0.385 OA
ATOM     21  H   UNL     1      99.074 125.356 118.291  1.00  0.00     0.211 HD
ENDBRANCH  18  20
BRANCH  18  22
ATOM     22  C   UNL     1      97.144 123.513 118.280  1.00  0.00    -0.016 A 
ATOM     23  C   UNL     1      96.597 122.512 119.055  1.00  0.00     0.008 A 
ATOM     24  C   UNL     1      96.271 124.507 117.895  1.00  0.00     0.008 A 
ATOM     25  C   UNL     1      95.276 122.474 119.438  1.00  0.00     0.021 A 
ATOM     26  C   UNL     1      94.941 124.490 118.267  1.00  0.00     0.021 A 
ATOM     27  C   UNL     1      94.445 123.474 119.038  1.00  0.00     0.041 A 
ATOM     28  Cl  UNL     1      92.765 123.445 119.515  1.00  0.00    -0.084 Cl
ENDBRANCH  18  22
ENDBRANCH  12  13
ENDBRANCH   1  12
TORSDOF 7
ENDMDL
MODEL 3
REMARK VINA RESULT:      -8.1      5.348      8.423
REMARK SMILES O=C(CCC[NH+]1CCC(O)(c2ccc(Cl)cc2)CC1)c1ccc(F)cc1
REMARK SMILES IDX 4 1 3 2 2 3 1 4 20 5 21 6 26 7 22 8 25 9 23 10 24 11 5 12
REMARK SMILES IDX 6 13 7 14 19 15 8 16 18 17 9 18 10 20 11 22 12 23 17 24
REMARK SMILES IDX 13 25 16 26 14 27 15 28
REMARK H PARENT 6 19 10 21
ROOT
ATOM      1  C   UNL     1      92.762 123.798 119.415  1.00  0.00     0.070 C 
ENDROOT
BRANCH   1   2
ATOM      2  C   UNL     1      93.998 123.030 119.002  1.00  0.00     0.087 C 
BRANCH   2   3
ATOM      3  C   UNL     1      95.167 123.870 118.734  1.00  0.00     0.163 C 
ATOM      4  O   UNL     1      95.113 125.123 118.831  1.00  0.00    -0.294 OA
BRANCH   3   5
ATOM      5  C   UNL     1      96.474 123.304 118.337  1.00  0.00     0.018 A 
ATOM      6  C   UNL     1      97.543 123.324 119.215  1.00  0.00     0.015 A 
ATOM      7  C   UNL     1      96.657 122.750 117.096  1.00  0.00     0.015 A 
ATOM      8  C   UNL     1      98.756 122.796 118.839  1.00  0.00     0.040 A 
ATOM      9  C   UNL     1      97.862 122.222 116.715  1.00  0.00     0.040 A 
ATOM     10  C   UNL     1      98.912 122.247 117.592  1.00  0.00     0.123 A 
ATOM     11  F   UNL     1     100.102 121.712 117.174  1.00  0.00    -0.207 F 
ENDBRANCH   3   5
ENDBRANCH   2   3
ENDBRANCH   1   2
BRANCH   1  12
ATOM     12  C   UNL     1      92.044 123.009 120.456  1.00  0.00     0.262 C 
BRANCH  12  13
ATOM     13  N   UNL     1      91.253 121.922 119.895  1.00  0.00    -0.335 N 
ATOM     14  C   UNL     1      90.463 121.253 120.883  1.00  0.00     0.265 C 
ATOM     15  C   UNL     1      90.432 122.409 118.834  1.00  0.00     0.265 C 
ATOM     16  C   UNL     1      89.500 122.195 121.552  1.00  0.00     0.102 C 
ATOM     17  C   UNL     1      88.997 122.557 119.113  1.00  0.00     0.102 C 
ATOM     18  C   UNL     1      88.576 122.770 120.520  1.00  0.00     0.100 C 
ATOM     19  H   UNL     1      91.972 121.215 119.557  1.00  0.00     0.348 HD
BRANCH  18  20
ATOM     20  O   UNL     1      87.340 122.100 120.688  1.00  0.00    -0.385 OA
ATOM     21  H   UNL     1      87.535 121.131 120.632  1.00  0.00     0.211 HD
ENDBRANCH  18  20
BRANCH  18  22
ATOM     22  C   UNL     1      88.253 124.211 120.818  1.00  0.00    -0.016 A 
ATOM     23  C   UNL     1      88.880 124.909 121.829  1.00  0.00     0.008 A 
ATOM     24  C   UNL     1      87.315 124.922 120.102  1.00  0.00     0.008 A 
ATOM     25  C   UNL     1      88.614 126.224 122.133  1.00  0.00     0.021 A 
ATOM     26  C   UNL     1      87.031 126.243 120.389  1.00  0.00     0.021 A 
ATOM     27  C   UNL     1      87.681 126.892 121.403  1.00  0.00     0.041 A 
ATOM     28  Cl  UNL     1      87.329 128.564 121.771  1.00  0.00    -0.084 Cl
ENDBRANCH  18  22
ENDBRANCH  12  13
ENDBRANCH   1  12
TORSDOF 7
ENDMDL
MODEL 4
REMARK VINA RESULT:      -8.1      0.833      1.226
REMARK SMILES O=C(CCC[NH+]1CCC(O)(c2ccc(Cl)cc2)CC1)c1ccc(F)cc1
REMARK SMILES IDX 4 1 3 2 2 3 1 4 20 5 21 6 26 7 22 8 25 9 23 10 24 11 5 12
REMARK SMILES IDX 6 13 7 14 19 15 8 16 18 17 9 18 10 20 11 22 12 23 17 24
REMARK SMILES IDX 13 25 16 26 14 27 15 28
REMARK H PARENT 6 19 10 21
ROOT
ATOM      1  C   UNL     1      97.457 120.335 115.689  1.00  0.00     0.070 C 
ENDROOT
BRANCH   1   2
ATOM      2  C   UNL     1      96.079 120.775 116.132  1.00  0.00     0.087 C 
BRANCH   2   3
ATOM      3  C   UNL     1      95.196 121.184 115.037  1.00  0.00     0.163 C 
ATOM      4  O   UNL     1      95.622 121.303 113.859  1.00  0.00    -0.294 OA
BRANCH   3   5
ATOM      5  C   UNL     1      93.762 121.477 115.244  1.00  0.00     0.018 A 
ATOM      6  C   UNL     1      93.254 121.631 116.522  1.00  0.00     0.015 A 
ATOM      7  C   UNL     1      92.906 121.605 114.180  1.00  0.00     0.015 A 
ATOM      8  C   UNL     1      91.920 121.903 116.707  1.00  0.00     0.040 A 
ATOM      9  C   UNL     1      91.576 121.876 114.357  1.00  0.00     0.040 A 
ATOM     10  C   UNL     1      91.085 122.026 115.626  1.00  0.00     0.123 A 
ATOM     11  F   UNL     1      89.748 122.295 115.763  1.00  0.00    -0.207 F 
ENDBRANCH   3   5
ENDBRANCH   2   3
ENDBRANCH   1   2
BRANCH   1  12
ATOM     12  C   UNL     1      98.146 121.500 115.066  1.00  0.00     0.262 C 
BRANCH  12  13
ATOM     13  N   UNL     1      99.400 121.834 115.730  1.00  0.00    -0.335 N 
ATOM     14  C   UNL     1      99.647 123.243 115.755  1.00  0.00     0.265 C 
ATOM     15  C   UNL     1      99.415 121.294 117.051  1.00  0.00     0.265 C 
ATOM     16  C   UNL     1      98.557 123.984 116.479  1.00  0.00     0.102 C 
ATOM     17  C   UNL     1      99.227 122.237 118.162  1.00  0.00     0.102 C 
ATOM     18  C   UNL     1      98.484 123.494 117.894  1.00  0.00     0.100 C 
ATOM     19  H   UNL     1     100.152 121.408 115.111  1.00  0.00     0.348 HD
BRANCH  18  20
ATOM     20  O   UNL     1      99.081 124.504 118.687  1.00  0.00    -0.385 OA
ATOM     21  H   UNL     1      99.599 124.041 119.392  1.00  0.00     0.211 HD
ENDBRANCH  18  20
BRANCH  18  22
ATOM     22  C   UNL     1      97.060 123.441 118.383  1.00  0.00    -0.016 A 
ATOM     23  C   UNL     1      96.167 124.465 118.147  1.00  0.00     0.008 A 
ATOM     24  C   UNL     1      96.560 122.371 119.093  1.00  0.00     0.008 A 
ATOM     25  C   UNL     1      94.859 124.456 118.576  1.00  0.00     0.021 A 
ATOM     26  C   UNL     1      95.252 122.340 119.533  1.00  0.00     0.021 A 
ATOM     27  C   UNL     1      94.403 123.382 119.274  1.00  0.00     0.041 A 
ATOM     28  Cl  UNL     1      92.745 123.350 119.827  1.00  0.00    -0.084 Cl
ENDBRANCH  18  22
ENDBRANCH  12  13
ENDBRANCH   1  12
TORSDOF 7
ENDMDL
MODEL 5
REMARK VINA RESULT:      -8.1      5.175      8.049
REMARK SMILES O=C(CCC[NH+]1CCC(O)(c2ccc(Cl)cc2)CC1)c1ccc(F)cc1
REMARK SMILES IDX 4 1 3 2 2 3 1 4 20 5 21 6 26 7 22 8 25 9 23 10 24 11 5 12
REMARK SMILES IDX 6 13 7 14 19 15 8 16 18 17 9 18 10 20 11 22 12 23 17 24
REMARK SMILES IDX 13 25 16 26 14 27 15 28
REMARK H PARENT 6 19 10 21
ROOT
ATOM      1  C   UNL     1      92.829 123.996 119.167  1.00  0.00     0.070 C 
ENDROOT
BRANCH   1   2
ATOM      2  C   UNL     1      94.320 123.751 119.105  1.00  0.00     0.087 C 
BRANCH   2   3
ATOM      3  C   UNL     1      94.735 122.821 118.052  1.00  0.00     0.163 C 
ATOM      4  O   UNL     1      93.955 121.938 117.611  1.00  0.00    -0.294 OA
BRANCH   3   5
ATOM      5  C   UNL     1      96.082 122.861 117.446  1.00  0.00     0.018 A 
ATOM      6  C   UNL     1      96.738 124.066 117.270  1.00  0.00     0.015 A 
ATOM      7  C   UNL     1      96.711 121.710 117.046  1.00  0.00     0.015 A 
ATOM      8  C   UNL     1      97.991 124.096 116.705  1.00  0.00     0.040 A 
ATOM      9  C   UNL     1      97.959 121.731 116.483  1.00  0.00     0.040 A 
ATOM     10  C   UNL     1      98.598 122.930 116.314  1.00  0.00     0.123 A 
ATOM     11  F   UNL     1      99.844 122.912 115.744  1.00  0.00    -0.207 F 
ENDBRANCH   3   5
ENDBRANCH   2   3
ENDBRANCH   1   2
BRANCH   1  12
ATOM     12  C   UNL     1      92.259 123.156 120.258  1.00  0.00     0.262 C 
BRANCH  12  13
ATOM     13  N   UNL     1      91.505 122.015 119.755  1.00  0.00    -0.335 N 
ATOM     14  C   UNL     1      90.805 121.321 120.793  1.00  0.00     0.265 C 
ATOM     15  C   UNL     1      90.605 122.435 118.731  1.00  0.00     0.265 C 
ATOM     16  C   UNL     1      89.824 122.220 121.495  1.00  0.00     0.102 C 
ATOM     17  C   UNL     1      89.179 122.506 119.080  1.00  0.00     0.102 C 
ATOM     18  C   UNL     1      88.818 122.722 120.503  1.00  0.00     0.100 C 
ATOM     19  H   UNL     1      92.246 121.344 119.392  1.00  0.00     0.348 HD
BRANCH  18  20
ATOM     20  O   UNL     1      87.633 121.986 120.745  1.00  0.00    -0.385 OA
ATOM     21  H   UNL     1      87.054 122.558 121.308  1.00  0.00     0.211 HD
ENDBRANCH  18  20
BRANCH  18  22
ATOM     22  C   UNL     1      88.428 124.148 120.793  1.00  0.00    -0.016 A 
ATOM     23  C   UNL     1      87.454 124.802 120.068  1.00  0.00     0.008 A 
ATOM     24  C   UNL     1      89.015 124.887 121.796  1.00  0.00     0.008 A 
ATOM     25  C   UNL     1      87.069 126.103 120.300  1.00  0.00     0.021 A 
ATOM     26  C   UNL     1      88.646 126.193 122.048  1.00  0.00     0.021 A 
ATOM     27  C   UNL     1      87.673 126.800 121.300  1.00  0.00     0.041 A 
ATOM     28  Cl  UNL     1      87.197 128.452 121.612  1.00  0.00    -0.084 Cl
ENDBRANCH  18  22
ENDBRANCH  12  13
ENDBRANCH   1  12
TORSDOF 7
ENDMDL
MODEL 6
REMARK VINA RESULT:      -8.1      5.359      8.389
REMARK SMILES O=C(CCC[NH+]1CCC(O)(c2ccc(Cl)cc2)CC1)c1ccc(F)cc1
REMARK SMILES IDX 4 1 3 2 2 3 1 4 20 5 21 6 26 7 22 8 25 9 23 10 24 11 5 12
REMARK SMILES IDX 6 13 7 14 19 15 8 16 18 17 9 18 10 20 11 22 12 23 17 24
REMARK SMILES IDX 13 25 16 26 14 27 15 28
REMARK H PARENT 6 19 10 21
ROOT
ATOM      1  C   UNL     1      92.769 123.766 119.470  1.00  0.00     0.070 C 
ENDROOT
BRANCH   1   2
ATOM      2  C   UNL     1      94.021 123.000 119.102  1.00  0.00     0.087 C 
BRANCH   2   3
ATOM      3  C   UNL     1      95.159 123.846 118.735  1.00  0.00     0.163 C 
ATOM      4  O   UNL     1      95.063 125.100 118.707  1.00  0.00    -0.294 OA
BRANCH   3   5
ATOM      5  C   UNL     1      96.480 123.286 118.379  1.00  0.00     0.018 A 
ATOM      6  C   UNL     1      96.703 122.761 117.118  1.00  0.00     0.015 A 
ATOM      7  C   UNL     1      97.509 123.273 119.285  1.00  0.00     0.015 A 
ATOM      8  C   UNL     1      97.934 122.242 116.794  1.00  0.00     0.040 A 
ATOM      9  C   UNL     1      98.738 122.757 118.969  1.00  0.00     0.040 A 
ATOM     10  C   UNL     1      98.947 122.241 117.719  1.00  0.00     0.123 A 
ATOM     11  F   UNL     1     100.189 121.732 117.440  1.00  0.00    -0.207 F 
ENDBRANCH   3   5
ENDBRANCH   2   3
ENDBRANCH   1   2
BRANCH   1  12
ATOM     12  C   UNL     1      92.009 122.970 120.474  1.00  0.00     0.262 C 
BRANCH  12  13
ATOM     13  N   UNL     1      91.223 121.902 119.869  1.00  0.00    -0.335 N 
ATOM     14  C   UNL     1      90.404 121.218 120.823  1.00  0.00     0.265 C 
ATOM     15  C   UNL     1      90.432 122.420 118.800  1.00  0.00     0.265 C 
ATOM     16  C   UNL     1      89.432 122.153 121.489  1.00  0.00     0.102 C 
ATOM     17  C   UNL     1      88.991 122.574 119.048  1.00  0.00     0.102 C 
ATOM     18  C   UNL     1      88.538 122.759 120.449  1.00  0.00     0.100 C 
ATOM     19  H   UNL     1      91.944 121.197 119.533  1.00  0.00     0.348 HD
BRANCH  18  20
ATOM     20  O   UNL     1      87.293 122.095 120.572  1.00  0.00    -0.385 OA
ATOM     21  H   UNL     1      87.495 121.131 120.668  1.00  0.00     0.211 HD
ENDBRANCH  18  20
BRANCH  18  22
ATOM     22  C   UNL     1      88.219 124.196 120.771  1.00  0.00    -0.016 A 
ATOM     23  C   UNL     1      87.266 124.908 120.073  1.00  0.00     0.008 A 
ATOM     24  C   UNL     1      88.857 124.888 121.776  1.00  0.00     0.008 A 
ATOM     25  C   UNL     1      86.945 126.220 120.335  1.00  0.00     0.021 A 
ATOM     26  C   UNL     1      88.552 126.206 122.057  1.00  0.00     0.021 A 
ATOM     27  C   UNL     1      87.597 126.870 121.336  1.00  0.00     0.041 A 
ATOM     28  Cl  UNL     1      87.204 128.536 121.686  1.00  0.00    -0.084 Cl
ENDBRANCH  18  22
ENDBRANCH  12  13
ENDBRANCH   1  12
TORSDOF 7
ENDMDL
MODEL 7
REMARK VINA RESULT:      -8.1      0.862      1.255
REMARK SMILES O=C(CCC[NH+]1CCC(O)(c2ccc(Cl)cc2)CC1)c1ccc(F)cc1
REMARK SMILES IDX 4 1 3 2 2 3 1 4 20 5 21 6 26 7 22 8 25 9 23 10 24 11 5 12
REMARK SMILES IDX 6 13 7 14 19 15 8 16 18 17 9 18 10 20 11 22 12 23 17 24
REMARK SMILES IDX 13 25 16 26 14 27 15 28
REMARK H PARENT 6 19 10 21
ROOT
ATOM      1  C   UNL     1      97.439 120.373 115.645  1.00  0.00     0.070 C 
ENDROOT
BRANCH   1   2
ATOM      2  C   UNL     1      96.043 120.756 116.081  1.00  0.00     0.087 C 
BRANCH   2   3
ATOM      3  C   UNL     1      95.159 121.162 114.986  1.00  0.00     0.163 C 
ATOM      4  O   UNL     1      95.581 121.266 113.805  1.00  0.00    -0.294 OA
BRANCH   3   5
ATOM      5  C   UNL     1      93.729 121.471 115.195  1.00  0.00     0.018 A 
ATOM      6  C   UNL     1      92.885 121.657 114.115  1.00  0.00     0.015 A 
ATOM      7  C   UNL     1      93.207 121.579 116.459  1.00  0.00     0.015 A 
ATOM      8  C   UNL     1      91.556 121.944 114.317  1.00  0.00     0.040 A 
ATOM      9  C   UNL     1      91.884 121.864 116.668  1.00  0.00     0.040 A 
ATOM     10  C   UNL     1      91.059 122.046 115.592  1.00  0.00     0.123 A 
ATOM     11  F   UNL     1      89.742 122.333 115.841  1.00  0.00    -0.207 F 
ENDBRANCH   3   5
ENDBRANCH   2   3
ENDBRANCH   1   2
BRANCH   1  12
ATOM     12  C   UNL     1      98.099 121.579 115.068  1.00  0.00     0.262 C 
BRANCH  12  13
ATOM     13  N   UNL     1      99.341 121.921 115.749  1.00  0.00    -0.335 N 
ATOM     14  C   UNL     1      99.560 123.334 115.810  1.00  0.00     0.265 C 
ATOM     15  C   UNL     1      99.359 121.348 117.055  1.00  0.00     0.265 C 
ATOM     16  C   UNL     1      98.450 124.034 116.546  1.00  0.00     0.102 C 
ATOM     17  C   UNL     1      99.146 122.259 118.189  1.00  0.00     0.102 C 
ATOM     18  C   UNL     1      98.378 123.506 117.948  1.00  0.00     0.100 C 
ATOM     19  H   UNL     1     100.106 121.526 115.124  1.00  0.00     0.348 HD
BRANCH  18  20
ATOM     20  O   UNL     1      98.950 124.508 118.770  1.00  0.00    -0.385 OA
ATOM     21  H   UNL     1      99.617 124.983 118.214  1.00  0.00     0.211 HD
ENDBRANCH  18  20
BRANCH  18  22
ATOM     22  C   UNL     1      96.953 123.412 118.425  1.00  0.00    -0.016 A 
ATOM     23  C   UNL     1      96.450 122.267 119.007  1.00  0.00     0.008 A 
ATOM     24  C   UNL     1      96.063 124.458 118.313  1.00  0.00     0.008 A 
ATOM     25  C   UNL     1      95.155 122.139 119.455  1.00  0.00     0.021 A 
ATOM     26  C   UNL     1      94.759 124.353 118.755  1.00  0.00     0.021 A 
ATOM     27  C   UNL     1      94.307 123.195 119.326  1.00  0.00     0.041 A 
ATOM     28  Cl  UNL     1      92.659 123.055 119.891  1.00  0.00    -0.084 Cl
ENDBRANCH  18  22
ENDBRANCH  12  13
ENDBRANCH   1  12
TORSDOF 7
ENDMDL
MODEL 8
REMARK VINA RESULT:      -8.0      6.535      9.141
REMARK SMILES O=C(CCC[NH+]1CCC(O)(c2ccc(Cl)cc2)CC1)c1ccc(F)cc1
REMARK SMILES IDX 4 1 3 2 2 3 1 4 20 5 21 6 26 7 22 8 25 9 23 10 24 11 5 12
REMARK SMILES IDX 6 13 7 14 19 15 8 16 18 17 9 18 10 20 11 22 12 23 17 24
REMARK SMILES IDX 13 25 16 26 14 27 15 28
REMARK H PARENT 6 19 10 21
ROOT
ATOM      1  C   UNL     1      90.887 122.634 119.965  1.00  0.00     0.070 C 
ENDROOT
BRANCH   1   2
ATOM      2  C   UNL     1      91.663 123.457 118.961  1.00  0.00     0.087 C 
BRANCH   2   3
ATOM      3  C   UNL     1      92.544 122.673 118.092  1.00  0.00     0.163 C 
ATOM      4  O   UNL     1      93.700 122.338 118.459  1.00  0.00    -0.294 OA
BRANCH   3   5
ATOM      5  C   UNL     1      92.135 122.228 116.743  1.00  0.00     0.018 A 
ATOM      6  C   UNL     1      93.042 121.611 115.902  1.00  0.00     0.015 A 
ATOM      7  C   UNL     1      90.852 122.417 116.296  1.00  0.00     0.015 A 
ATOM      8  C   UNL     1      92.655 121.200 114.648  1.00  0.00     0.040 A 
ATOM      9  C   UNL     1      90.459 122.010 115.049  1.00  0.00     0.040 A 
ATOM     10  C   UNL     1      91.366 121.400 114.226  1.00  0.00     0.123 A 
ATOM     11  F   UNL     1      90.936 121.009 112.984  1.00  0.00    -0.207 F 
ENDBRANCH   3   5
ENDBRANCH   2   3
ENDBRANCH   1   2
BRANCH   1  12
ATOM     12  C   UNL     1      89.744 123.453 120.461  1.00  0.00     0.262 C 
BRANCH  12  13
ATOM     13  N   UNL     1      88.509 123.195 119.732  1.00  0.00    -0.335 N 
ATOM     14  C   UNL     1      87.893 121.962 120.117  1.00  0.00     0.265 C 
ATOM     15  C   UNL     1      87.604 124.286 119.899  1.00  0.00     0.265 C 
ATOM     16  C   UNL     1      87.550 121.948 121.582  1.00  0.00     0.102 C 
ATOM     17  C   UNL     1      86.458 124.074 120.795  1.00  0.00     0.102 C 
ATOM     18  C   UNL     1      86.592 123.064 121.874  1.00  0.00     0.100 C 
ATOM     19  H   UNL     1      88.814 123.075 118.721  1.00  0.00     0.348 HD
BRANCH  18  20
ATOM     20  O   UNL     1      85.322 122.455 122.028  1.00  0.00    -0.385 OA
ATOM     21  H   UNL     1      85.247 122.195 122.980  1.00  0.00     0.211 HD
ENDBRANCH  18  20
BRANCH  18  22
ATOM     22  C   UNL     1      86.866 123.683 123.219  1.00  0.00    -0.016 A 
ATOM     23  C   UNL     1      85.853 124.152 124.029  1.00  0.00     0.008 A 
ATOM     24  C   UNL     1      88.140 123.822 123.725  1.00  0.00     0.008 A 
ATOM     25  C   UNL     1      86.060 124.724 125.264  1.00  0.00     0.021 A 
ATOM     26  C   UNL     1      88.373 124.393 124.960  1.00  0.00     0.021 A 
ATOM     27  C   UNL     1      87.333 124.843 125.728  1.00  0.00     0.041 A 
ATOM     28  Cl  UNL     1      87.619 125.565 127.293  1.00  0.00    -0.084 Cl
ENDBRANCH  18  22
ENDBRANCH  12  13
ENDBRANCH   1  12
TORSDOF 7
ENDMDL
MODEL 9
REMARK VINA RESULT:      -7.9      5.209      8.088
REMARK SMILES O=C(CCC[NH+]1CCC(O)(c2ccc(Cl)cc2)CC1)c1ccc(F)cc1
REMARK SMILES IDX 4 1 3 2 2 3 1 4 20 5 21 6 26 7 22 8 25 9 23 10 24 11 5 12
REMARK SMILES IDX 6 13 7 14 19 15 8 16 18 17 9 18 10 20 11 22 12 23 17 24
REMARK SMILES IDX 13 25 16 26 14 27 15 28
REMARK H PARENT 6 19 10 21
ROOT
ATOM      1  C   UNL     1      92.822 124.024 118.911  1.00  0.00     0.070 C 
ENDROOT
BRANCH   1   2
ATOM      2  C   UNL     1      94.329 123.998 119.046  1.00  0.00     0.087 C 
BRANCH   2   3
ATOM      3  C   UNL     1      94.964 122.807 118.478  1.00  0.00     0.163 C 
ATOM      4  O   UNL     1      94.463 121.662 118.623  1.00  0.00    -0.294 OA
BRANCH   3   5
ATOM      5  C   UNL     1      96.222 122.874 117.704  1.00  0.00     0.018 A 
ATOM      6  C   UNL     1      96.820 121.718 117.235  1.00  0.00     0.015 A 
ATOM      7  C   UNL     1      96.823 124.076 117.435  1.00  0.00     0.015 A 
ATOM      8  C   UNL     1      97.990 121.787 116.517  1.00  0.00     0.040 A 
ATOM      9  C   UNL     1      97.988 124.153 116.719  1.00  0.00     0.040 A 
ATOM     10  C   UNL     1      98.570 123.003 116.260  1.00  0.00     0.123 A 
ATOM     11  F   UNL     1      99.737 123.119 115.551  1.00  0.00    -0.207 F 
ENDBRANCH   3   5
ENDBRANCH   2   3
ENDBRANCH   1   2
BRANCH   1  12
ATOM     12  C   UNL     1      92.232 123.335 120.094  1.00  0.00     0.262 C 
BRANCH  12  13
ATOM     13  N   UNL     1      91.499 122.128 119.735  1.00  0.00    -0.335 N 
ATOM     14  C   UNL     1      90.921 121.481 120.874  1.00  0.00     0.265 C 
ATOM     15  C   UNL     1      90.500 122.430 118.762  1.00  0.00     0.265 C 
ATOM     16  C   UNL     1      89.954 122.384 121.591  1.00  0.00     0.102 C 
ATOM     17  C   UNL     1      89.105 122.463 119.224  1.00  0.00     0.102 C 
ATOM     18  C   UNL     1      88.848 122.766 120.654  1.00  0.00     0.100 C 
ATOM     19  H   UNL     1      92.242 121.466 119.360  1.00  0.00     0.348 HD
BRANCH  18  20
ATOM     20  O   UNL     1      87.725 121.997 121.043  1.00  0.00    -0.385 OA
ATOM     21  H   UNL     1      87.955 121.580 121.911  1.00  0.00     0.211 HD
ENDBRANCH  18  20
BRANCH  18  22
ATOM     22  C   UNL     1      88.410 124.190 120.875  1.00  0.00    -0.016 A 
ATOM     23  C   UNL     1      88.908 124.956 121.909  1.00  0.00     0.008 A 
ATOM     24  C   UNL     1      87.489 124.816 120.065  1.00  0.00     0.008 A 
ATOM     25  C   UNL     1      88.534 126.260 122.146  1.00  0.00     0.021 A 
ATOM     26  C   UNL     1      87.098 126.122 120.284  1.00  0.00     0.021 A 
ATOM     27  C   UNL     1      87.621 126.843 121.323  1.00  0.00     0.041 A 
ATOM     28  Cl  UNL     1      87.134 128.497 121.606  1.00  0.00    -0.084 Cl
ENDBRANCH  18  22
ENDBRANCH  12  13
ENDBRANCH   1  12
TORSDOF 7
ENDMDL
