MODEL 1
REMARK VINA RESULT:      -8.6      0.000      0.000
REMARK SMILES CC/C(=C(\c1ccccc1)c1ccc(OCC[NH+](C)C)cc1)c1ccccc1
REMARK SMILES IDX 15 1 14 2 11 3 12 4 22 5 13 6 21 7 4 8 3 9 2 10 1 11 23 12
REMARK SMILES IDX 24 13 28 14 25 15 27 16 26 17 5 18 6 19 10 20 7 21 9 22 8 23
REMARK SMILES IDX 16 24 17 25 18 26 19 27 20 28
REMARK H PARENT 18 29
ROOT
ATOM      1  O   UNL     1      97.324 123.492 119.438  1.00  0.00    -0.488 OA
ENDROOT
BRANCH   1   2
ATOM      2  C   UNL     1      96.019 123.215 119.074  1.00  0.00     0.119 A 
ATOM      3  C   UNL     1      93.298 122.759 118.332  1.00  0.00    -0.017 A 
ATOM      4  C   UNL     1      94.234 121.743 118.327  1.00  0.00     0.012 A 
ATOM      5  C   UNL     1      93.763 124.011 118.720  1.00  0.00     0.012 A 
ATOM      6  C   UNL     1      95.550 121.981 118.690  1.00  0.00     0.047 A 
ATOM      7  C   UNL     1      95.065 124.244 119.078  1.00  0.00     0.047 A 
BRANCH   3   8
ATOM      8  C   UNL     1      91.907 122.535 117.980  1.00  0.00    -0.007 C 
ATOM      9  C   UNL     1      90.937 122.610 118.853  1.00  0.00    -0.033 C 
BRANCH   9  10
ATOM     10  C   UNL     1      89.502 122.344 118.558  1.00  0.00     0.033 C 
ATOM     11  C   UNL     1      88.841 121.816 119.798  1.00  0.00     0.009 C 
ENDBRANCH   9  10
BRANCH   9  12
ATOM     12  C   UNL     1      91.193 123.047 120.238  1.00  0.00    -0.022 A 
ATOM     13  C   UNL     1      91.647 122.182 121.200  1.00  0.00     0.008 A 
ATOM     14  C   UNL     1      90.958 124.350 120.556  1.00  0.00     0.008 A 
ATOM     15  C   UNL     1      91.861 122.637 122.477  1.00  0.00     0.001 A 
ATOM     16  C   UNL     1      91.161 124.855 121.843  1.00  0.00     0.001 A 
ATOM     17  C   UNL     1      91.617 123.964 122.788  1.00  0.00     0.000 A 
ENDBRANCH   9  12
BRANCH   8  18
ATOM     18  C   UNL     1      91.604 122.178 116.609  1.00  0.00    -0.018 A 
ATOM     19  C   UNL     1      91.773 120.895 116.126  1.00  0.00     0.009 A 
ATOM     20  C   UNL     1      91.171 123.161 115.725  1.00  0.00     0.009 A 
ATOM     21  C   UNL     1      91.513 120.635 114.805  1.00  0.00     0.001 A 
ATOM     22  C   UNL     1      90.904 122.918 114.398  1.00  0.00     0.001 A 
ATOM     23  C   UNL     1      91.082 121.617 113.935  1.00  0.00     0.000 A 
ENDBRANCH   8  18
ENDBRANCH   3   8
ENDBRANCH   1   2
BRANCH   1  24
ATOM     24  C   UNL     1      98.441 123.611 118.631  1.00  0.00     0.290 C 
BRANCH  24  25
ATOM     25  C   UNL     1      99.134 122.321 118.277  1.00  0.00     0.303 C 
BRANCH  25  26
ATOM     26  N   UNL     1      99.494 122.241 116.894  1.00  0.00    -0.337 N 
ATOM     27  C   UNL     1      99.341 123.494 116.187  1.00  0.00     0.332 C 
ATOM     28  C   UNL     1      98.730 121.247 116.169  1.00  0.00     0.332 C 
ATOM     29  H   UNL     1     100.512 121.958 116.775  1.00  0.00     0.347 HD
ENDBRANCH  25  26
ENDBRANCH  24  25
ENDBRANCH   1  24
TORSDOF 8
ENDMDL
MODEL 2
REMARK VINA RESULT:      -8.6      0.364      1.108
REMARK SMILES CC/C(=C(\c1ccccc1)c1ccc(OCC[NH+](C)C)cc1)c1ccccc1
REMARK SMILES IDX 15 1 14 2 11 3 12 4 22 5 13 6 21 7 4 8 3 9 2 10 1 11 23 12
REMARK SMILES IDX 24 13 28 14 25 15 27 16 26 17 5 18 6 19 10 20 7 21 9 22 8 23
REMARK SMILES IDX 16 24 17 25 18 26 19 27 20 28
REMARK H PARENT 18 29
ROOT
ATOM      1  O   UNL     1      97.316 123.465 119.493  1.00  0.00    -0.488 OA
ENDROOT
BRANCH   1   2
ATOM      2  C   UNL     1      95.986 123.296 119.154  1.00  0.00     0.119 A 
ATOM      3  C   UNL     1      93.255 122.831 118.456  1.00  0.00    -0.017 A 
ATOM      4  C   UNL     1      93.740 124.102 118.689  1.00  0.00     0.012 A 
ATOM      5  C   UNL     1      94.178 121.797 118.580  1.00  0.00     0.012 A 
ATOM      6  C   UNL     1      95.068 124.312 119.027  1.00  0.00     0.047 A 
ATOM      7  C   UNL     1      95.489 122.006 118.914  1.00  0.00     0.047 A 
BRANCH   3   8
ATOM      8  C   UNL     1      91.876 122.583 118.076  1.00  0.00    -0.007 C 
ATOM      9  C   UNL     1      90.884 122.666 118.925  1.00  0.00    -0.033 C 
BRANCH   9  10
ATOM     10  C   UNL     1      89.460 122.378 118.602  1.00  0.00     0.033 C 
ATOM     11  C   UNL     1      88.813 121.731 119.792  1.00  0.00     0.009 C 
ENDBRANCH   9  10
BRANCH   9  12
ATOM     12  C   UNL     1      91.103 123.136 120.305  1.00  0.00    -0.022 A 
ATOM     13  C   UNL     1      91.609 122.315 121.280  1.00  0.00     0.008 A 
ATOM     14  C   UNL     1      90.777 124.423 120.606  1.00  0.00     0.008 A 
ATOM     15  C   UNL     1      91.785 122.799 122.552  1.00  0.00     0.001 A 
ATOM     16  C   UNL     1      90.939 124.956 121.889  1.00  0.00     0.001 A 
ATOM     17  C   UNL     1      91.450 124.110 122.846  1.00  0.00     0.000 A 
ENDBRANCH   9  12
BRANCH   8  18
ATOM     18  C   UNL     1      91.609 122.193 116.707  1.00  0.00    -0.018 A 
ATOM     19  C   UNL     1      91.835 120.911 116.248  1.00  0.00     0.009 A 
ATOM     20  C   UNL     1      91.153 123.145 115.800  1.00  0.00     0.009 A 
ATOM     21  C   UNL     1      91.607 120.620 114.927  1.00  0.00     0.001 A 
ATOM     22  C   UNL     1      90.917 122.870 114.473  1.00  0.00     0.001 A 
ATOM     23  C   UNL     1      91.153 121.571 114.035  1.00  0.00     0.000 A 
ENDBRANCH   8  18
ENDBRANCH   3   8
ENDBRANCH   1   2
BRANCH   1  24
ATOM     24  C   UNL     1      98.405 123.647 118.659  1.00  0.00     0.290 C 
BRANCH  24  25
ATOM     25  C   UNL     1      98.909 122.410 117.962  1.00  0.00     0.303 C 
BRANCH  25  26
ATOM     26  N   UNL     1      98.504 122.338 116.591  1.00  0.00    -0.337 N 
ATOM     27  C   UNL     1      97.900 121.072 116.235  1.00  0.00     0.332 C 
ATOM     28  C   UNL     1      99.598 122.562 115.668  1.00  0.00     0.332 C 
ATOM     29  H   UNL     1      97.782 123.084 116.361  1.00  0.00     0.347 HD
ENDBRANCH  25  26
ENDBRANCH  24  25
ENDBRANCH   1  24
TORSDOF 8
ENDMDL
MODEL 3
REMARK VINA RESULT:      -8.6      0.564      1.142
REMARK SMILES CC/C(=C(\c1ccccc1)c1ccc(OCC[NH+](C)C)cc1)c1ccccc1
REMARK SMILES IDX 15 1 14 2 11 3 12 4 22 5 13 6 21 7 4 8 3 9 2 10 1 11 23 12
REMARK SMILES IDX 24 13 28 14 25 15 27 16 26 17 5 18 6 19 10 20 7 21 9 22 8 23
REMARK SMILES IDX 16 24 17 25 18 26 19 27 20 28
REMARK H PARENT 18 29
ROOT
ATOM      1  O   UNL     1      97.378 123.350 119.352  1.00  0.00    -0.488 OA
ENDROOT
BRANCH   1   2
ATOM      2  C   UNL     1      96.064 123.104 118.998  1.00  0.00     0.119 A 
ATOM      3  C   UNL     1      93.329 122.709 118.273  1.00  0.00    -0.017 A 
ATOM      4  C   UNL     1      94.234 121.666 118.294  1.00  0.00     0.012 A 
ATOM      5  C   UNL     1      93.832 123.957 118.628  1.00  0.00     0.012 A 
ATOM      6  C   UNL     1      95.558 121.873 118.648  1.00  0.00     0.047 A 
ATOM      7  C   UNL     1      95.141 124.160 118.977  1.00  0.00     0.047 A 
BRANCH   3   8
ATOM      8  C   UNL     1      91.931 122.517 117.931  1.00  0.00    -0.007 C 
ATOM      9  C   UNL     1      90.967 122.625 118.808  1.00  0.00    -0.033 C 
BRANCH   9  10
ATOM     10  C   UNL     1      89.525 122.393 118.522  1.00  0.00     0.033 C 
ATOM     11  C   UNL     1      88.829 122.030 119.801  1.00  0.00     0.009 C 
ENDBRANCH   9  10
BRANCH   9  12
ATOM     12  C   UNL     1      91.242 123.068 120.187  1.00  0.00    -0.022 A 
ATOM     13  C   UNL     1      91.137 124.382 120.563  1.00  0.00     0.008 A 
ATOM     14  C   UNL     1      91.620 122.131 121.100  1.00  0.00     0.008 A 
ATOM     15  C   UNL     1      91.414 124.743 121.857  1.00  0.00     0.001 A 
ATOM     16  C   UNL     1      91.912 122.455 122.429  1.00  0.00     0.001 A 
ATOM     17  C   UNL     1      91.798 123.781 122.777  1.00  0.00     0.000 A 
ENDBRANCH   9  12
BRANCH   8  18
ATOM     18  C   UNL     1      91.612 122.155 116.564  1.00  0.00    -0.018 A 
ATOM     19  C   UNL     1      91.752 120.866 116.091  1.00  0.00     0.009 A 
ATOM     20  C   UNL     1      91.194 123.140 115.675  1.00  0.00     0.009 A 
ATOM     21  C   UNL     1      91.478 120.601 114.774  1.00  0.00     0.001 A 
ATOM     22  C   UNL     1      90.913 122.892 114.352  1.00  0.00     0.001 A 
ATOM     23  C   UNL     1      91.062 121.584 113.898  1.00  0.00     0.000 A 
ENDBRANCH   8  18
ENDBRANCH   3   8
ENDBRANCH   1   2
BRANCH   1  24
ATOM     24  C   UNL     1      98.499 123.391 118.543  1.00  0.00     0.290 C 
BRANCH  24  25
ATOM     25  C   UNL     1      98.284 123.927 117.152  1.00  0.00     0.303 C 
BRANCH  25  26
ATOM     26  N   UNL     1      98.645 122.990 116.131  1.00  0.00    -0.337 N 
ATOM     27  C   UNL     1      97.528 122.209 115.646  1.00  0.00     0.332 C 
ATOM     28  C   UNL     1      99.665 122.055 116.560  1.00  0.00     0.332 C 
ATOM     29  H   UNL     1      99.052 123.482 115.281  1.00  0.00     0.347 HD
ENDBRANCH  25  26
ENDBRANCH  24  25
ENDBRANCH   1  24
TORSDOF 8
ENDMDL
MODEL 4
REMARK VINA RESULT:      -8.6      0.787      1.495
REMARK SMILES CC/C(=C(\c1ccccc1)c1ccc(OCC[NH+](C)C)cc1)c1ccccc1
REMARK SMILES IDX 15 1 14 2 11 3 12 4 22 5 13 6 21 7 4 8 3 9 2 10 1 11 23 12
REMARK SMILES IDX 24 13 28 14 25 15 27 16 26 17 5 18 6 19 10 20 7 21 9 22 8 23
REMARK SMILES IDX 16 24 17 25 18 26 19 27 20 28
REMARK H PARENT 18 29
ROOT
ATOM      1  O   UNL     1      97.594 123.821 119.607  1.00  0.00    -0.488 OA
ENDROOT
BRANCH   1   2
ATOM      2  C   UNL     1      96.288 123.559 119.236  1.00  0.00     0.119 A 
ATOM      3  C   UNL     1      93.609 122.904 118.494  1.00  0.00    -0.017 A 
ATOM      4  C   UNL     1      94.059 124.209 118.515  1.00  0.00     0.012 A 
ATOM      5  C   UNL     1      94.539 121.934 118.853  1.00  0.00     0.012 A 
ATOM      6  C   UNL     1      95.363 124.511 118.877  1.00  0.00     0.047 A 
ATOM      7  C   UNL     1      95.826 122.235 119.212  1.00  0.00     0.047 A 
BRANCH   3   8
ATOM      8  C   UNL     1      92.256 122.556 118.095  1.00  0.00    -0.007 C 
ATOM      9  C   UNL     1      91.260 122.510 118.941  1.00  0.00    -0.033 C 
BRANCH   9  10
ATOM     10  C   UNL     1      89.867 122.115 118.596  1.00  0.00     0.033 C 
ATOM     11  C   UNL     1      88.914 122.896 119.452  1.00  0.00     0.009 C 
ENDBRANCH   9  10
BRANCH   9  12
ATOM     12  C   UNL     1      91.435 122.928 120.343  1.00  0.00    -0.022 A 
ATOM     13  C   UNL     1      91.483 124.250 120.708  1.00  0.00     0.008 A 
ATOM     14  C   UNL     1      91.563 121.960 121.293  1.00  0.00     0.008 A 
ATOM     15  C   UNL     1      91.657 124.586 122.026  1.00  0.00     0.001 A 
ATOM     16  C   UNL     1      91.743 122.258 122.647  1.00  0.00     0.001 A 
ATOM     17  C   UNL     1      91.786 123.592 122.982  1.00  0.00     0.000 A 
ENDBRANCH   9  12
BRANCH   8  18
ATOM     18  C   UNL     1      92.026 122.212 116.706  1.00  0.00    -0.018 A 
ATOM     19  C   UNL     1      92.929 121.469 115.971  1.00  0.00     0.009 A 
ATOM     20  C   UNL     1      90.884 122.680 116.065  1.00  0.00     0.009 A 
ATOM     21  C   UNL     1      92.672 121.219 114.648  1.00  0.00     0.001 A 
ATOM     22  C   UNL     1      90.610 122.438 114.739  1.00  0.00     0.001 A 
ATOM     23  C   UNL     1      91.535 121.686 114.020  1.00  0.00     0.000 A 
ENDBRANCH   8  18
ENDBRANCH   3   8
ENDBRANCH   1   2
BRANCH   1  24
ATOM     24  C   UNL     1      98.765 123.485 118.950  1.00  0.00     0.290 C 
BRANCH  24  25
ATOM     25  C   UNL     1      98.755 123.678 117.456  1.00  0.00     0.303 C 
BRANCH  25  26
ATOM     26  N   UNL     1      98.484 122.469 116.739  1.00  0.00    -0.337 N 
ATOM     27  C   UNL     1      99.613 121.989 115.972  1.00  0.00     0.332 C 
ATOM     28  C   UNL     1      97.369 122.597 115.822  1.00  0.00     0.332 C 
ATOM     29  H   UNL     1      98.218 121.679 117.399  1.00  0.00     0.347 HD
ENDBRANCH  25  26
ENDBRANCH  24  25
ENDBRANCH   1  24
TORSDOF 8
ENDMDL
MODEL 5
REMARK VINA RESULT:      -8.5      0.579      1.420
REMARK SMILES CC/C(=C(\c1ccccc1)c1ccc(OCC[NH+](C)C)cc1)c1ccccc1
REMARK SMILES IDX 15 1 14 2 11 3 12 4 22 5 13 6 21 7 4 8 3 9 2 10 1 11 23 12
REMARK SMILES IDX 24 13 28 14 25 15 27 16 26 17 5 18 6 19 10 20 7 21 9 22 8 23
REMARK SMILES IDX 16 24 17 25 18 26 19 27 20 28
REMARK H PARENT 18 29
ROOT
ATOM      1  O   UNL     1      97.257 123.758 119.570  1.00  0.00    -0.488 OA
ENDROOT
BRANCH   1   2
ATOM      2  C   UNL     1      95.969 123.430 119.188  1.00  0.00     0.119 A 
ATOM      3  C   UNL     1      93.282 122.865 118.399  1.00  0.00    -0.017 A 
ATOM      4  C   UNL     1      94.230 121.868 118.520  1.00  0.00     0.012 A 
ATOM      5  C   UNL     1      93.718 124.155 118.687  1.00  0.00     0.012 A 
ATOM      6  C   UNL     1      95.530 122.158 118.904  1.00  0.00     0.047 A 
ATOM      7  C   UNL     1      95.003 124.439 119.065  1.00  0.00     0.047 A 
BRANCH   3   8
ATOM      8  C   UNL     1      91.907 122.588 118.023  1.00  0.00    -0.007 C 
ATOM      9  C   UNL     1      90.921 122.609 118.882  1.00  0.00    -0.033 C 
BRANCH   9  10
ATOM     10  C   UNL     1      89.504 122.287 118.561  1.00  0.00     0.033 C 
ATOM     11  C   UNL     1      88.797 121.892 119.825  1.00  0.00     0.009 C 
ENDBRANCH   9  10
BRANCH   9  12
ATOM     12  C   UNL     1      91.139 123.034 120.277  1.00  0.00    -0.022 A 
ATOM     13  C   UNL     1      90.948 124.331 120.680  1.00  0.00     0.008 A 
ATOM     14  C   UNL     1      91.551 122.100 121.178  1.00  0.00     0.008 A 
ATOM     15  C   UNL     1      91.174 124.677 121.988  1.00  0.00     0.001 A 
ATOM     16  C   UNL     1      91.794 122.409 122.519  1.00  0.00     0.001 A 
ATOM     17  C   UNL     1      91.594 123.717 122.894  1.00  0.00     0.000 A 
ENDBRANCH   9  12
BRANCH   8  18
ATOM     18  C   UNL     1      91.639 122.240 116.642  1.00  0.00    -0.018 A 
ATOM     19  C   UNL     1      91.138 123.153 115.736  1.00  0.00     0.009 A 
ATOM     20  C   UNL     1      91.845 120.933 116.213  1.00  0.00     0.009 A 
ATOM     21  C   UNL     1      90.861 122.746 114.456  1.00  0.00     0.001 A 
ATOM     22  C   UNL     1      91.575 120.507 114.933  1.00  0.00     0.001 A 
ATOM     23  C   UNL     1      91.070 121.446 114.038  1.00  0.00     0.000 A 
ENDBRANCH   8  18
ENDBRANCH   3   8
ENDBRANCH   1   2
BRANCH   1  24
ATOM     24  C   UNL     1      98.455 123.353 119.009  1.00  0.00     0.290 C 
BRANCH  24  25
ATOM     25  C   UNL     1      98.660 123.724 117.564  1.00  0.00     0.303 C 
BRANCH  25  26
ATOM     26  N   UNL     1      98.459 122.623 116.671  1.00  0.00    -0.337 N 
ATOM     27  C   UNL     1      99.574 122.395 115.778  1.00  0.00     0.332 C 
ATOM     28  C   UNL     1      97.277 122.776 115.847  1.00  0.00     0.332 C 
ATOM     29  H   UNL     1      98.316 121.714 117.204  1.00  0.00     0.347 HD
ENDBRANCH  25  26
ENDBRANCH  24  25
ENDBRANCH   1  24
TORSDOF 8
ENDMDL
MODEL 6
REMARK VINA RESULT:      -8.4      0.708      1.607
REMARK SMILES CC/C(=C(\c1ccccc1)c1ccc(OCC[NH+](C)C)cc1)c1ccccc1
REMARK SMILES IDX 15 1 14 2 11 3 12 4 22 5 13 6 21 7 4 8 3 9 2 10 1 11 23 12
REMARK SMILES IDX 24 13 28 14 25 15 27 16 26 17 5 18 6 19 10 20 7 21 9 22 8 23
REMARK SMILES IDX 16 24 17 25 18 26 19 27 20 28
REMARK H PARENT 18 29
ROOT
ATOM      1  O   UNL     1      97.650 123.436 119.637  1.00  0.00    -0.488 OA
ENDROOT
BRANCH   1   2
ATOM      2  C   UNL     1      96.331 123.262 119.258  1.00  0.00     0.119 A 
ATOM      3  C   UNL     1      93.619 122.787 118.498  1.00  0.00    -0.017 A 
ATOM      4  C   UNL     1      94.150 124.061 118.542  1.00  0.00     0.012 A 
ATOM      5  C   UNL     1      94.486 121.755 118.844  1.00  0.00     0.012 A 
ATOM      6  C   UNL     1      95.468 124.275 118.913  1.00  0.00     0.047 A 
ATOM      7  C   UNL     1      95.788 121.970 119.210  1.00  0.00     0.047 A 
BRANCH   3   8
ATOM      8  C   UNL     1      92.250 122.530 118.090  1.00  0.00    -0.007 C 
ATOM      9  C   UNL     1      91.257 122.476 118.940  1.00  0.00    -0.033 C 
BRANCH   9  10
ATOM     10  C   UNL     1      89.845 122.170 118.583  1.00  0.00     0.033 C 
ATOM     11  C   UNL     1      88.938 123.061 119.381  1.00  0.00     0.009 C 
ENDBRANCH   9  10
BRANCH   9  12
ATOM     12  C   UNL     1      91.461 122.793 120.365  1.00  0.00    -0.022 A 
ATOM     13  C   UNL     1      91.622 124.081 120.808  1.00  0.00     0.008 A 
ATOM     14  C   UNL     1      91.497 121.762 121.255  1.00  0.00     0.008 A 
ATOM     15  C   UNL     1      91.818 124.321 122.145  1.00  0.00     0.001 A 
ATOM     16  C   UNL     1      91.695 121.961 122.624  1.00  0.00     0.001 A 
ATOM     17  C   UNL     1      91.853 123.264 123.039  1.00  0.00     0.000 A 
ENDBRANCH   9  12
BRANCH   8  18
ATOM     18  C   UNL     1      91.995 122.289 116.684  1.00  0.00    -0.018 A 
ATOM     19  C   UNL     1      90.853 122.740 116.053  1.00  0.00     0.009 A 
ATOM     20  C   UNL     1      92.902 121.537 115.943  1.00  0.00     0.009 A 
ATOM     21  C   UNL     1      90.651 122.436 114.731  1.00  0.00     0.001 A 
ATOM     22  C   UNL     1      92.716 121.225 114.616  1.00  0.00     0.001 A 
ATOM     23  C   UNL     1      91.557 121.691 114.003  1.00  0.00     0.000 A 
ENDBRANCH   8  18
ENDBRANCH   3   8
ENDBRANCH   1   2
BRANCH   1  24
ATOM     24  C   UNL     1      98.779 123.501 118.839  1.00  0.00     0.290 C 
BRANCH  24  25
ATOM     25  C   UNL     1      99.018 122.312 117.946  1.00  0.00     0.303 C 
BRANCH  25  26
ATOM     26  N   UNL     1      98.944 122.636 116.554  1.00  0.00    -0.337 N 
ATOM     27  C   UNL     1      98.858 124.058 116.298  1.00  0.00     0.332 C 
ATOM     28  C   UNL     1      97.817 122.015 115.889  1.00  0.00     0.332 C 
ATOM     29  H   UNL     1      99.805 122.294 116.031  1.00  0.00     0.347 HD
ENDBRANCH  25  26
ENDBRANCH  24  25
ENDBRANCH   1  24
TORSDOF 8
ENDMDL
MODEL 7
REMARK VINA RESULT:      -8.3      0.739      1.069
REMARK SMILES CC/C(=C(\c1ccccc1)c1ccc(OCC[NH+](C)C)cc1)c1ccccc1
REMARK SMILES IDX 15 1 14 2 11 3 12 4 22 5 13 6 21 7 4 8 3 9 2 10 1 11 23 12
REMARK SMILES IDX 24 13 28 14 25 15 27 16 26 17 5 18 6 19 10 20 7 21 9 22 8 23
REMARK SMILES IDX 16 24 17 25 18 26 19 27 20 28
REMARK H PARENT 18 29
ROOT
ATOM      1  O   UNL     1      97.607 123.478 119.637  1.00  0.00    -0.488 OA
ENDROOT
BRANCH   1   2
ATOM      2  C   UNL     1      96.308 123.210 119.247  1.00  0.00     0.119 A 
ATOM      3  C   UNL     1      93.608 122.772 118.424  1.00  0.00    -0.017 A 
ATOM      4  C   UNL     1      94.460 121.724 118.711  1.00  0.00     0.012 A 
ATOM      5  C   UNL     1      94.146 124.048 118.563  1.00  0.00     0.012 A 
ATOM      6  C   UNL     1      95.768 121.953 119.109  1.00  0.00     0.047 A 
ATOM      7  C   UNL     1      95.438 124.272 118.956  1.00  0.00     0.047 A 
BRANCH   3   8
ATOM      8  C   UNL     1      92.227 122.564 118.029  1.00  0.00    -0.007 C 
ATOM      9  C   UNL     1      91.235 122.595 118.881  1.00  0.00    -0.033 C 
BRANCH   9  10
ATOM     10  C   UNL     1      89.809 122.342 118.539  1.00  0.00     0.033 C 
ATOM     11  C   UNL     1      89.074 121.942 119.785  1.00  0.00     0.009 C 
ENDBRANCH   9  10
BRANCH   9  12
ATOM     12  C   UNL     1      91.457 122.965 120.291  1.00  0.00    -0.022 A 
ATOM     13  C   UNL     1      91.723 122.027 121.255  1.00  0.00     0.008 A 
ATOM     14  C   UNL     1      91.382 124.281 120.631  1.00  0.00     0.008 A 
ATOM     15  C   UNL     1      91.913 122.422 122.555  1.00  0.00     0.001 A 
ATOM     16  C   UNL     1      91.567 124.728 121.942  1.00  0.00     0.001 A 
ATOM     17  C   UNL     1      91.834 123.765 122.887  1.00  0.00     0.000 A 
ENDBRANCH   9  12
BRANCH   8  18
ATOM     18  C   UNL     1      91.957 122.273 116.635  1.00  0.00    -0.018 A 
ATOM     19  C   UNL     1      90.779 122.645 116.018  1.00  0.00     0.009 A 
ATOM     20  C   UNL     1      92.888 121.552 115.893  1.00  0.00     0.009 A 
ATOM     21  C   UNL     1      90.567 122.297 114.709  1.00  0.00     0.001 A 
ATOM     22  C   UNL     1      92.692 121.195 114.580  1.00  0.00     0.001 A 
ATOM     23  C   UNL     1      91.497 121.582 113.980  1.00  0.00     0.000 A 
ENDBRANCH   8  18
ENDBRANCH   3   8
ENDBRANCH   1   2
BRANCH   1  24
ATOM     24  C   UNL     1      98.747 123.555 118.856  1.00  0.00     0.290 C 
BRANCH  24  25
ATOM     25  C   UNL     1      98.520 123.823 117.392  1.00  0.00     0.303 C 
BRANCH  25  26
ATOM     26  N   UNL     1      98.470 122.627 116.607  1.00  0.00    -0.337 N 
ATOM     27  C   UNL     1      99.616 122.459 115.739  1.00  0.00     0.332 C 
ATOM     28  C   UNL     1      97.289 122.550 115.772  1.00  0.00     0.332 C 
ATOM     29  H   UNL     1      98.438 121.760 117.223  1.00  0.00     0.347 HD
ENDBRANCH  25  26
ENDBRANCH  24  25
ENDBRANCH   1  24
TORSDOF 8
ENDMDL
MODEL 8
REMARK VINA RESULT:      -8.1      0.554      1.394
REMARK SMILES CC/C(=C(\c1ccccc1)c1ccc(OCC[NH+](C)C)cc1)c1ccccc1
REMARK SMILES IDX 15 1 14 2 11 3 12 4 22 5 13 6 21 7 4 8 3 9 2 10 1 11 23 12
REMARK SMILES IDX 24 13 28 14 25 15 27 16 26 17 5 18 6 19 10 20 7 21 9 22 8 23
REMARK SMILES IDX 16 24 17 25 18 26 19 27 20 28
REMARK H PARENT 18 29
ROOT
ATOM      1  O   UNL     1      97.229 122.987 119.476  1.00  0.00    -0.488 OA
ENDROOT
BRANCH   1   2
ATOM      2  C   UNL     1      95.898 122.917 119.107  1.00  0.00     0.119 A 
ATOM      3  C   UNL     1      93.159 122.655 118.340  1.00  0.00    -0.017 A 
ATOM      4  C   UNL     1      93.713 123.881 118.655  1.00  0.00     0.012 A 
ATOM      5  C   UNL     1      94.017 121.563 118.419  1.00  0.00     0.012 A 
ATOM      6  C   UNL     1      95.044 123.991 119.025  1.00  0.00     0.047 A 
ATOM      7  C   UNL     1      95.332 121.674 118.786  1.00  0.00     0.047 A 
BRANCH   3   8
ATOM      8  C   UNL     1      91.775 122.512 117.926  1.00  0.00    -0.007 C 
ATOM      9  C   UNL     1      90.771 122.657 118.752  1.00  0.00    -0.033 C 
BRANCH   9  10
ATOM     10  C   UNL     1      89.338 122.475 118.392  1.00  0.00     0.033 C 
ATOM     11  C   UNL     1      88.582 122.044 119.614  1.00  0.00     0.009 C 
ENDBRANCH   9  10
BRANCH   9  12
ATOM     12  C   UNL     1      90.990 123.093 120.143  1.00  0.00    -0.022 A 
ATOM     13  C   UNL     1      90.935 124.414 120.507  1.00  0.00     0.008 A 
ATOM     14  C   UNL     1      91.264 122.144 121.080  1.00  0.00     0.008 A 
ATOM     15  C   UNL     1      91.156 124.769 121.814  1.00  0.00     0.001 A 
ATOM     16  C   UNL     1      91.496 122.461 122.422  1.00  0.00     0.001 A 
ATOM     17  C   UNL     1      91.434 123.794 122.757  1.00  0.00     0.000 A 
ENDBRANCH   9  12
BRANCH   8  18
ATOM     18  C   UNL     1      91.514 122.158 116.545  1.00  0.00    -0.018 A 
ATOM     19  C   UNL     1      91.683 120.873 116.069  1.00  0.00     0.009 A 
ATOM     20  C   UNL     1      91.125 123.146 115.646  1.00  0.00     0.009 A 
ATOM     21  C   UNL     1      91.465 120.615 114.740  1.00  0.00     0.001 A 
ATOM     22  C   UNL     1      90.900 122.905 114.311  1.00  0.00     0.001 A 
ATOM     23  C   UNL     1      91.077 121.602 113.855  1.00  0.00     0.000 A 
ENDBRANCH   8  18
ENDBRANCH   3   8
ENDBRANCH   1   2
BRANCH   1  24
ATOM     24  C   UNL     1      98.186 123.911 119.095  1.00  0.00     0.290 C 
BRANCH  24  25
ATOM     25  C   UNL     1      99.332 123.369 118.281  1.00  0.00     0.303 C 
BRANCH  25  26
ATOM     26  N   UNL     1      99.222 123.676 116.888  1.00  0.00    -0.337 N 
ATOM     27  C   UNL     1      97.933 124.222 116.519  1.00  0.00     0.332 C 
ATOM     28  C   UNL     1      99.457 122.527 116.038  1.00  0.00     0.332 C 
ATOM     29  H   UNL     1      99.944 124.399 116.592  1.00  0.00     0.347 HD
ENDBRANCH  25  26
ENDBRANCH  24  25
ENDBRANCH   1  24
TORSDOF 8
ENDMDL
MODEL 9
REMARK VINA RESULT:      -7.9      1.148      4.687
REMARK SMILES CC/C(=C(\c1ccccc1)c1ccc(OCC[NH+](C)C)cc1)c1ccccc1
REMARK SMILES IDX 15 1 14 2 11 3 12 4 22 5 13 6 21 7 4 8 3 9 2 10 1 11 23 12
REMARK SMILES IDX 24 13 28 14 25 15 27 16 26 17 5 18 6 19 10 20 7 21 9 22 8 23
REMARK SMILES IDX 16 24 17 25 18 26 19 27 20 28
REMARK H PARENT 18 29
ROOT
ATOM      1  O   UNL     1      97.594 123.931 117.922  1.00  0.00    -0.488 OA
ENDROOT
BRANCH   1   2
ATOM      2  C   UNL     1      96.313 123.565 118.291  1.00  0.00     0.119 A 
ATOM      3  C   UNL     1      93.631 122.919 119.030  1.00  0.00    -0.017 A 
ATOM      4  C   UNL     1      94.626 121.962 118.995  1.00  0.00     0.012 A 
ATOM      5  C   UNL     1      94.017 124.210 118.686  1.00  0.00     0.012 A 
ATOM      6  C   UNL     1      95.923 122.292 118.634  1.00  0.00     0.047 A 
ATOM      7  C   UNL     1      95.299 124.533 118.329  1.00  0.00     0.047 A 
BRANCH   3   8
ATOM      8  C   UNL     1      92.269 122.608 119.427  1.00  0.00    -0.007 C 
ATOM      9  C   UNL     1      91.334 122.300 118.566  1.00  0.00    -0.033 C 
BRANCH   9  10
ATOM     10  C   UNL     1      89.914 122.019 118.913  1.00  0.00     0.033 C 
ATOM     11  C   UNL     1      89.255 123.300 119.335  1.00  0.00     0.009 C 
ENDBRANCH   9  10
BRANCH   9  12
ATOM     12  C   UNL     1      91.645 122.136 117.134  1.00  0.00    -0.022 A 
ATOM     13  C   UNL     1      92.764 121.468 116.705  1.00  0.00     0.008 A 
ATOM     14  C   UNL     1      90.791 122.679 116.224  1.00  0.00     0.008 A 
ATOM     15  C   UNL     1      93.013 121.352 115.361  1.00  0.00     0.001 A 
ATOM     16  C   UNL     1      91.007 122.585 114.845  1.00  0.00     0.001 A 
ATOM     17  C   UNL     1      92.136 121.909 114.445  1.00  0.00     0.000 A 
ENDBRANCH   9  12
BRANCH   8  18
ATOM     18  C   UNL     1      91.940 122.683 120.836  1.00  0.00    -0.018 A 
ATOM     19  C   UNL     1      91.722 123.885 121.480  1.00  0.00     0.009 A 
ATOM     20  C   UNL     1      91.886 121.515 121.590  1.00  0.00     0.009 A 
ATOM     21  C   UNL     1      91.462 123.889 122.826  1.00  0.00     0.001 A 
ATOM     22  C   UNL     1      91.626 121.500 122.941  1.00  0.00     0.001 A 
ATOM     23  C   UNL     1      91.409 122.724 123.566  1.00  0.00     0.000 A 
ENDBRANCH   8  18
ENDBRANCH   3   8
ENDBRANCH   1   2
BRANCH   1  24
ATOM     24  C   UNL     1      98.170 123.918 116.663  1.00  0.00     0.290 C 
BRANCH  24  25
ATOM     25  C   UNL     1      97.562 122.957 115.675  1.00  0.00     0.303 C 
BRANCH  25  26
ATOM     26  N   UNL     1      98.367 121.792 115.463  1.00  0.00    -0.337 N 
ATOM     27  C   UNL     1      97.701 120.559 115.822  1.00  0.00     0.332 C 
ATOM     28  C   UNL     1      99.616 121.830 116.196  1.00  0.00     0.332 C 
ATOM     29  H   UNL     1      98.642 121.692 114.441  1.00  0.00     0.347 HD
ENDBRANCH  25  26
ENDBRANCH  24  25
ENDBRANCH   1  24
TORSDOF 8
ENDMDL
