MODEL 1
REMARK VINA RESULT:     -11.0      0.000      0.000
REMARK SMILES O=C1NCN(c2ccccc2)C12CC[NH+](CCCC(c1ccc(F)cc1)c1ccc(F)cc1)CC2
REMARK SMILES IDX 17 1 16 2 15 3 1 4 2 5 3 6 12 7 4 8 5 9 13 10 35 11 14 12
REMARK SMILES IDX 34 13 6 16 7 17 11 18 8 19 10 20 9 21 18 22 19 23 20 24
REMARK SMILES IDX 21 25 26 26 22 27 25 28 23 29 24 30 27 31 28 32 33 33 29 34
REMARK SMILES IDX 32 35 30 36 31 37
REMARK H PARENT 3 14 15 15
ROOT
ATOM      1  C   UNL     1      93.019 123.574 119.842  1.00  0.00     0.062 C 
ENDROOT
BRANCH   1   2
ATOM      2  C   UNL     1      92.439 122.297 120.375  1.00  0.00     0.262 C 
BRANCH   2   3
ATOM      3  N   UNL     1      90.983 122.376 120.396  1.00  0.00    -0.335 N 
ATOM      4  O   UNL     1      88.267 122.680 118.674  1.00  0.00    -0.272 OA
ATOM      5  C   UNL     1      87.669 122.909 119.746  1.00  0.00     0.247 C 
ATOM      6  N   UNL     1      86.293 123.182 119.843  1.00  0.00    -0.336 N 
ATOM      7  C   UNL     1      88.305 122.935 121.117  1.00  0.00     0.131 C 
ATOM      8  C   UNL     1      85.930 122.924 121.201  1.00  0.00     0.238 C 
ATOM      9  N   UNL     1      87.151 123.234 121.961  1.00  0.00    -0.339 N 
ATOM     10  C   UNL     1      89.342 124.041 121.150  1.00  0.00     0.100 C 
ATOM     11  C   UNL     1      88.906 121.598 121.363  1.00  0.00     0.100 C 
ATOM     12  C   UNL     1      90.504 123.733 120.234  1.00  0.00     0.265 C 
ATOM     13  C   UNL     1      90.385 121.719 121.529  1.00  0.00     0.265 C 
ATOM     14  H   UNL     1      85.675 123.510 119.053  1.00  0.00     0.165 HD
ATOM     15  H   UNL     1      90.688 121.849 119.545  1.00  0.00     0.348 HD
BRANCH   9  16
ATOM     16  C   UNL     1      87.082 123.750 123.280  1.00  0.00     0.039 A 
ATOM     17  C   UNL     1      88.183 123.742 124.103  1.00  0.00     0.026 A 
ATOM     18  C   UNL     1      85.915 124.283 123.736  1.00  0.00     0.026 A 
ATOM     19  C   UNL     1      88.132 124.267 125.398  1.00  0.00     0.002 A 
ATOM     20  C   UNL     1      85.844 124.801 125.000  1.00  0.00     0.002 A 
ATOM     21  C   UNL     1      86.935 124.798 125.829  1.00  0.00     0.000 A 
ENDBRANCH   9  16
ENDBRANCH   2   3
ENDBRANCH   1   2
BRANCH   1  22
ATOM     22  C   UNL     1      93.637 123.523 118.512  1.00  0.00     0.019 C 
BRANCH  22  23
ATOM     23  C   UNL     1      93.756 122.292 117.743  1.00  0.00     0.049 C 
BRANCH  23  24
ATOM     24  C   UNL     1      92.694 122.073 116.696  1.00  0.00    -0.040 A 
ATOM     25  C   UNL     1      93.112 121.544 115.496  1.00  0.00     0.007 A 
ATOM     26  C   UNL     1      91.380 122.401 116.898  1.00  0.00     0.007 A 
ATOM     27  C   UNL     1      92.209 121.338 114.483  1.00  0.00     0.039 A 
ATOM     28  C   UNL     1      90.483 122.192 115.885  1.00  0.00     0.039 A 
ATOM     29  C   UNL     1      90.881 121.655 114.656  1.00  0.00     0.123 A 
ATOM     30  F   UNL     1      89.998 121.447 113.647  1.00  0.00    -0.207 F 
ENDBRANCH  23  24
BRANCH  23  31
ATOM     31  C   UNL     1      95.050 121.835 117.264  1.00  0.00    -0.040 A 
ATOM     32  C   UNL     1      95.370 120.571 116.855  1.00  0.00     0.007 A 
ATOM     33  C   UNL     1      96.060 122.805 117.247  1.00  0.00     0.007 A 
ATOM     34  C   UNL     1      96.682 120.306 116.441  1.00  0.00     0.039 A 
ATOM     35  C   UNL     1      97.334 122.561 116.847  1.00  0.00     0.039 A 
ATOM     36  C   UNL     1      97.644 121.284 116.439  1.00  0.00     0.123 A 
ATOM     37  F   UNL     1      98.924 121.053 116.041  1.00  0.00    -0.207 F 
ENDBRANCH  23  31
ENDBRANCH  22  23
ENDBRANCH   1  22
TORSDOF 7
ENDMDL
MODEL 2
REMARK VINA RESULT:     -10.9      2.420      3.242
REMARK SMILES O=C1NCN(c2ccccc2)C12CC[NH+](CCCC(c1ccc(F)cc1)c1ccc(F)cc1)CC2
REMARK SMILES IDX 17 1 16 2 15 3 1 4 2 5 3 6 12 7 4 8 5 9 13 10 35 11 14 12
REMARK SMILES IDX 34 13 6 16 7 17 11 18 8 19 10 20 9 21 18 22 19 23 20 24
REMARK SMILES IDX 21 25 26 26 22 27 25 28 23 29 24 30 27 31 28 32 33 33 29 34
REMARK SMILES IDX 32 35 30 36 31 37
REMARK H PARENT 3 14 15 15
ROOT
ATOM      1  C   UNL     1      90.991 122.099 120.639  1.00  0.00     0.062 C 
ENDROOT
BRANCH   1   2
ATOM      2  C   UNL     1      89.730 121.293 120.751  1.00  0.00     0.262 C 
BRANCH   2   3
ATOM      3  N   UNL     1      88.734 122.024 121.526  1.00  0.00    -0.335 N 
ATOM      4  O   UNL     1      85.717 122.084 122.677  1.00  0.00    -0.272 OA
ATOM      5  C   UNL     1      85.890 123.293 122.936  1.00  0.00     0.247 C 
ATOM      6  N   UNL     1      84.916 124.127 123.514  1.00  0.00    -0.336 N 
ATOM      7  C   UNL     1      87.159 124.072 122.678  1.00  0.00     0.131 C 
ATOM      8  C   UNL     1      85.621 125.243 124.061  1.00  0.00     0.238 C 
ATOM      9  N   UNL     1      86.789 125.393 123.179  1.00  0.00    -0.339 N 
ATOM     10  C   UNL     1      87.431 124.078 121.187  1.00  0.00     0.100 C 
ATOM     11  C   UNL     1      88.254 123.418 123.444  1.00  0.00     0.100 C 
ATOM     12  C   UNL     1      87.765 122.693 120.683  1.00  0.00     0.265 C 
ATOM     13  C   UNL     1      89.302 122.907 122.510  1.00  0.00     0.265 C 
ATOM     14  H   UNL     1      83.877 123.940 123.528  1.00  0.00     0.165 HD
ATOM     15  H   UNL     1      88.219 121.278 122.043  1.00  0.00     0.348 HD
BRANCH   9  16
ATOM     16  C   UNL     1      87.356 126.668 122.923  1.00  0.00     0.039 A 
ATOM     17  C   UNL     1      88.633 126.971 123.332  1.00  0.00     0.026 A 
ATOM     18  C   UNL     1      86.636 127.603 122.245  1.00  0.00     0.026 A 
ATOM     19  C   UNL     1      89.209 128.217 123.067  1.00  0.00     0.002 A 
ATOM     20  C   UNL     1      87.181 128.828 121.976  1.00  0.00     0.002 A 
ATOM     21  C   UNL     1      88.453 129.142 122.378  1.00  0.00     0.000 A 
ENDBRANCH   9  16
ENDBRANCH   2   3
ENDBRANCH   1   2
BRANCH   1  22
ATOM     22  C   UNL     1      91.294 122.687 119.330  1.00  0.00     0.019 C 
BRANCH  22  23
ATOM     23  C   UNL     1      92.429 122.267 118.519  1.00  0.00     0.049 C 
BRANCH  23  24
ATOM     24  C   UNL     1      92.150 122.092 117.049  1.00  0.00    -0.040 A 
ATOM     25  C   UNL     1      90.873 122.384 116.624  1.00  0.00     0.007 A 
ATOM     26  C   UNL     1      93.095 121.642 116.167  1.00  0.00     0.007 A 
ATOM     27  C   UNL     1      90.533 122.227 115.304  1.00  0.00     0.039 A 
ATOM     28  C   UNL     1      92.753 121.487 114.851  1.00  0.00     0.039 A 
ATOM     29  C   UNL     1      91.462 121.778 114.393  1.00  0.00     0.123 A 
ATOM     30  F   UNL     1      91.114 121.627 113.090  1.00  0.00    -0.207 F 
ENDBRANCH  23  24
BRANCH  23  31
ATOM     31  C   UNL     1      93.746 122.846 118.726  1.00  0.00    -0.040 A 
ATOM     32  C   UNL     1      94.035 124.164 118.945  1.00  0.00     0.007 A 
ATOM     33  C   UNL     1      94.814 121.941 118.675  1.00  0.00     0.007 A 
ATOM     34  C   UNL     1      95.372 124.546 119.105  1.00  0.00     0.039 A 
ATOM     35  C   UNL     1      96.114 122.298 118.829  1.00  0.00     0.039 A 
ATOM     36  C   UNL     1      96.391 123.628 119.048  1.00  0.00     0.123 A 
ATOM     37  F   UNL     1      97.698 123.973 119.202  1.00  0.00    -0.207 F 
ENDBRANCH  23  31
ENDBRANCH  22  23
ENDBRANCH   1  22
TORSDOF 7
ENDMDL
MODEL 3
REMARK VINA RESULT:     -10.9      1.907      2.713
REMARK SMILES O=C1NCN(c2ccccc2)C12CC[NH+](CCCC(c1ccc(F)cc1)c1ccc(F)cc1)CC2
REMARK SMILES IDX 17 1 16 2 15 3 1 4 2 5 3 6 12 7 4 8 5 9 13 10 35 11 14 12
REMARK SMILES IDX 34 13 6 16 7 17 11 18 8 19 10 20 9 21 18 22 19 23 20 24
REMARK SMILES IDX 21 25 26 26 22 27 25 28 23 29 24 30 27 31 28 32 33 33 29 34
REMARK SMILES IDX 32 35 30 36 31 37
REMARK H PARENT 3 14 15 15
ROOT
ATOM      1  C   UNL     1      90.700 123.071 120.077  1.00  0.00     0.062 C 
ENDROOT
BRANCH   1   2
ATOM      2  C   UNL     1      89.368 122.482 119.718  1.00  0.00     0.262 C 
BRANCH   2   3
ATOM      3  N   UNL     1      88.293 123.294 120.276  1.00  0.00    -0.335 N 
ATOM      4  O   UNL     1      85.938 125.427 119.699  1.00  0.00    -0.272 OA
ATOM      5  C   UNL     1      85.877 125.623 120.930  1.00  0.00     0.247 C 
ATOM      6  N   UNL     1      84.996 126.529 121.546  1.00  0.00    -0.336 N 
ATOM      7  C   UNL     1      86.727 124.932 121.971  1.00  0.00     0.131 C 
ATOM      8  C   UNL     1      84.905 126.130 122.915  1.00  0.00     0.238 C 
ATOM      9  N   UNL     1      86.220 125.536 123.200  1.00  0.00    -0.339 N 
ATOM     10  C   UNL     1      88.181 125.279 121.718  1.00  0.00     0.100 C 
ATOM     11  C   UNL     1      86.475 123.470 121.863  1.00  0.00     0.100 C 
ATOM     12  C   UNL     1      88.671 124.685 120.419  1.00  0.00     0.265 C 
ATOM     13  C   UNL     1      87.732 122.756 121.488  1.00  0.00     0.265 C 
ATOM     14  H   UNL     1      84.510 127.336 121.068  1.00  0.00     0.165 HD
ATOM     15  H   UNL     1      87.545 123.259 119.550  1.00  0.00     0.348 HD
BRANCH   9  16
ATOM     16  C   UNL     1      86.797 125.620 124.493  1.00  0.00     0.039 A 
ATOM     17  C   UNL     1      86.982 126.834 125.110  1.00  0.00     0.026 A 
ATOM     18  C   UNL     1      87.157 124.482 125.147  1.00  0.00     0.026 A 
ATOM     19  C   UNL     1      87.531 126.928 126.392  1.00  0.00     0.002 A 
ATOM     20  C   UNL     1      87.696 124.551 126.402  1.00  0.00     0.002 A 
ATOM     21  C   UNL     1      87.885 125.756 127.027  1.00  0.00     0.000 A 
ENDBRANCH   9  16
ENDBRANCH   2   3
ENDBRANCH   1   2
BRANCH   1  22
ATOM     22  C   UNL     1      91.568 123.483 118.969  1.00  0.00     0.019 C 
BRANCH  22  23
ATOM     23  C   UNL     1      92.541 122.591 118.352  1.00  0.00     0.049 C 
BRANCH  23  24
ATOM     24  C   UNL     1      92.257 122.205 116.924  1.00  0.00    -0.040 A 
ATOM     25  C   UNL     1      90.998 122.493 116.446  1.00  0.00     0.007 A 
ATOM     26  C   UNL     1      93.180 121.576 116.132  1.00  0.00     0.007 A 
ATOM     27  C   UNL     1      90.654 122.151 115.162  1.00  0.00     0.039 A 
ATOM     28  C   UNL     1      92.833 121.238 114.852  1.00  0.00     0.039 A 
ATOM     29  C   UNL     1      91.560 121.520 114.341  1.00  0.00     0.123 A 
ATOM     30  F   UNL     1      91.208 121.186 113.074  1.00  0.00    -0.207 F 
ENDBRANCH  23  24
BRANCH  23  31
ATOM     31  C   UNL     1      93.966 122.787 118.557  1.00  0.00    -0.040 A 
ATOM     32  C   UNL     1      94.951 121.851 118.407  1.00  0.00     0.007 A 
ATOM     33  C   UNL     1      94.342 124.073 118.967  1.00  0.00     0.007 A 
ATOM     34  C   UNL     1      96.277 122.216 118.668  1.00  0.00     0.039 A 
ATOM     35  C   UNL     1      95.624 124.439 119.222  1.00  0.00     0.039 A 
ATOM     36  C   UNL     1      96.605 123.487 119.068  1.00  0.00     0.123 A 
ATOM     37  F   UNL     1      97.885 123.868 119.326  1.00  0.00    -0.207 F 
ENDBRANCH  23  31
ENDBRANCH  22  23
ENDBRANCH   1  22
TORSDOF 7
ENDMDL
MODEL 4
REMARK VINA RESULT:     -10.8      2.311      2.753
REMARK SMILES O=C1NCN(c2ccccc2)C12CC[NH+](CCCC(c1ccc(F)cc1)c1ccc(F)cc1)CC2
REMARK SMILES IDX 17 1 16 2 15 3 1 4 2 5 3 6 12 7 4 8 5 9 13 10 35 11 14 12
REMARK SMILES IDX 34 13 6 16 7 17 11 18 8 19 10 20 9 21 18 22 19 23 20 24
REMARK SMILES IDX 21 25 26 26 22 27 25 28 23 29 24 30 27 31 28 32 33 33 29 34
REMARK SMILES IDX 32 35 30 36 31 37
REMARK H PARENT 3 14 15 15
ROOT
ATOM      1  C   UNL     1      92.474 123.383 120.281  1.00  0.00     0.062 C 
ENDROOT
BRANCH   1   2
ATOM      2  C   UNL     1      91.489 122.279 120.528  1.00  0.00     0.262 C 
BRANCH   2   3
ATOM      3  N   UNL     1      90.237 122.826 121.037  1.00  0.00    -0.335 N 
ATOM      4  O   UNL     1      87.031 122.499 121.246  1.00  0.00    -0.272 OA
ATOM      5  C   UNL     1      86.984 123.678 121.655  1.00  0.00     0.247 C 
ATOM      6  N   UNL     1      85.798 124.353 121.994  1.00  0.00    -0.336 N 
ATOM      7  C   UNL     1      88.177 124.583 121.856  1.00  0.00     0.131 C 
ATOM      8  C   UNL     1      86.186 125.449 122.824  1.00  0.00     0.238 C 
ATOM      9  N   UNL     1      87.532 125.800 122.344  1.00  0.00    -0.339 N 
ATOM     10  C   UNL     1      88.859 124.792 120.519  1.00  0.00     0.100 C 
ATOM     11  C   UNL     1      89.076 123.934 122.847  1.00  0.00     0.100 C 
ATOM     12  C   UNL     1      89.479 123.511 120.011  1.00  0.00     0.265 C 
ATOM     13  C   UNL     1      90.397 123.627 122.222  1.00  0.00     0.265 C 
ATOM     14  H   UNL     1      84.826 124.081 121.683  1.00  0.00     0.165 HD
ATOM     15  H   UNL     1      89.684 121.984 121.308  1.00  0.00     0.348 HD
BRANCH   9  16
ATOM     16  C   UNL     1      87.999 127.138 122.386  1.00  0.00     0.039 A 
ATOM     17  C   UNL     1      87.234 128.172 121.900  1.00  0.00     0.026 A 
ATOM     18  C   UNL     1      89.214 127.412 122.935  1.00  0.00     0.026 A 
ATOM     19  C   UNL     1      87.676 129.498 121.955  1.00  0.00     0.002 A 
ATOM     20  C   UNL     1      89.665 128.701 122.998  1.00  0.00     0.002 A 
ATOM     21  C   UNL     1      88.912 129.740 122.517  1.00  0.00     0.000 A 
ENDBRANCH   9  16
ENDBRANCH   2   3
ENDBRANCH   1   2
BRANCH   1  22
ATOM     22  C   UNL     1      92.928 123.577 118.900  1.00  0.00     0.019 C 
BRANCH  22  23
ATOM     23  C   UNL     1      93.460 122.494 118.084  1.00  0.00     0.049 C 
BRANCH  23  24
ATOM     24  C   UNL     1      92.680 122.176 116.835  1.00  0.00    -0.040 A 
ATOM     25  C   UNL     1      91.341 122.498 116.845  1.00  0.00     0.007 A 
ATOM     26  C   UNL     1      93.247 121.575 115.743  1.00  0.00     0.007 A 
ATOM     27  C   UNL     1      90.557 122.218 115.755  1.00  0.00     0.039 A 
ATOM     28  C   UNL     1      92.462 121.298 114.657  1.00  0.00     0.039 A 
ATOM     29  C   UNL     1      91.098 121.615 114.642  1.00  0.00     0.123 A 
ATOM     30  F   UNL     1      90.313 121.343 113.569  1.00  0.00    -0.207 F 
ENDBRANCH  23  24
BRANCH  23  31
ATOM     31  C   UNL     1      94.888 122.378 117.840  1.00  0.00    -0.040 A 
ATOM     32  C   UNL     1      95.545 121.295 117.326  1.00  0.00     0.007 A 
ATOM     33  C   UNL     1      95.650 123.499 118.193  1.00  0.00     0.007 A 
ATOM     34  C   UNL     1      96.936 121.354 117.179  1.00  0.00     0.039 A 
ATOM     35  C   UNL     1      96.999 123.569 118.053  1.00  0.00     0.039 A 
ATOM     36  C   UNL     1      97.647 122.472 117.536  1.00  0.00     0.123 A 
ATOM     37  F   UNL     1      98.998 122.556 117.401  1.00  0.00    -0.207 F 
ENDBRANCH  23  31
ENDBRANCH  22  23
ENDBRANCH   1  22
TORSDOF 7
ENDMDL
MODEL 5
REMARK VINA RESULT:     -10.8      2.983      3.920
REMARK SMILES O=C1NCN(c2ccccc2)C12CC[NH+](CCCC(c1ccc(F)cc1)c1ccc(F)cc1)CC2
REMARK SMILES IDX 17 1 16 2 15 3 1 4 2 5 3 6 12 7 4 8 5 9 13 10 35 11 14 12
REMARK SMILES IDX 34 13 6 16 7 17 11 18 8 19 10 20 9 21 18 22 19 23 20 24
REMARK SMILES IDX 21 25 26 26 22 27 25 28 23 29 24 30 27 31 28 32 33 33 29 34
REMARK SMILES IDX 32 35 30 36 31 37
REMARK H PARENT 3 14 15 15
ROOT
ATOM      1  C   UNL     1      90.450 122.353 120.045  1.00  0.00     0.062 C 
ENDROOT
BRANCH   1   2
ATOM      2  C   UNL     1      88.969 122.543 119.895  1.00  0.00     0.262 C 
BRANCH   2   3
ATOM      3  N   UNL     1      88.474 123.457 120.918  1.00  0.00    -0.335 N 
ATOM      4  O   UNL     1      85.933 124.473 122.633  1.00  0.00    -0.272 OA
ATOM      5  C   UNL     1      86.617 125.460 122.974  1.00  0.00     0.247 C 
ATOM      6  N   UNL     1      86.157 126.492 123.811  1.00  0.00    -0.336 N 
ATOM      7  C   UNL     1      88.045 125.724 122.555  1.00  0.00     0.131 C 
ATOM      8  C   UNL     1      87.323 127.142 124.320  1.00  0.00     0.238 C 
ATOM      9  N   UNL     1      88.317 126.981 123.248  1.00  0.00    -0.339 N 
ATOM     10  C   UNL     1      88.087 125.879 121.048  1.00  0.00     0.100 C 
ATOM     11  C   UNL     1      88.872 124.581 123.023  1.00  0.00     0.100 C 
ATOM     12  C   UNL     1      87.756 124.580 120.352  1.00  0.00     0.265 C 
ATOM     13  C   UNL     1      89.482 123.873 121.857  1.00  0.00     0.265 C 
ATOM     14  H   UNL     1      85.145 126.718 124.008  1.00  0.00     0.165 HD
ATOM     15  H   UNL     1      87.776 122.890 121.448  1.00  0.00     0.348 HD
BRANCH   9  16
ATOM     16  C   UNL     1      89.313 127.964 123.017  1.00  0.00     0.039 A 
ATOM     17  C   UNL     1      88.973 129.260 122.712  1.00  0.00     0.026 A 
ATOM     18  C   UNL     1      90.628 127.629 123.120  1.00  0.00     0.026 A 
ATOM     19  C   UNL     1      89.946 130.242 122.503  1.00  0.00     0.002 A 
ATOM     20  C   UNL     1      91.596 128.574 122.919  1.00  0.00     0.002 A 
ATOM     21  C   UNL     1      91.268 129.870 122.614  1.00  0.00     0.000 A 
ENDBRANCH   9  16
ENDBRANCH   2   3
ENDBRANCH   1   2
BRANCH   1  22
ATOM     22  C   UNL     1      91.313 123.028 119.070  1.00  0.00     0.019 C 
BRANCH  22  23
ATOM     23  C   UNL     1      92.371 122.340 118.342  1.00  0.00     0.049 C 
BRANCH  23  24
ATOM     24  C   UNL     1      92.111 122.112 116.876  1.00  0.00    -0.040 A 
ATOM     25  C   UNL     1      90.858 122.447 116.412  1.00  0.00     0.007 A 
ATOM     26  C   UNL     1      93.048 121.575 116.035  1.00  0.00     0.007 A 
ATOM     27  C   UNL     1      90.535 122.247 115.094  1.00  0.00     0.039 A 
ATOM     28  C   UNL     1      92.722 121.377 114.720  1.00  0.00     0.039 A 
ATOM     29  C   UNL     1      91.457 121.710 114.223  1.00  0.00     0.123 A 
ATOM     30  F   UNL     1      91.126 121.516 112.921  1.00  0.00    -0.207 F 
ENDBRANCH  23  24
BRANCH  23  31
ATOM     31  C   UNL     1      93.767 122.672 118.570  1.00  0.00    -0.040 A 
ATOM     32  C   UNL     1      94.836 121.825 118.472  1.00  0.00     0.007 A 
ATOM     33  C   UNL     1      94.016 123.999 118.943  1.00  0.00     0.007 A 
ATOM     34  C   UNL     1      96.117 122.317 118.748  1.00  0.00     0.039 A 
ATOM     35  C   UNL     1      95.253 124.488 119.212  1.00  0.00     0.039 A 
ATOM     36  C   UNL     1      96.319 123.625 119.111  1.00  0.00     0.123 A 
ATOM     37  F   UNL     1      97.553 124.128 119.383  1.00  0.00    -0.207 F 
ENDBRANCH  23  31
ENDBRANCH  22  23
ENDBRANCH   1  22
TORSDOF 7
ENDMDL
MODEL 6
REMARK VINA RESULT:     -10.8      1.064      1.785
REMARK SMILES O=C1NCN(c2ccccc2)C12CC[NH+](CCCC(c1ccc(F)cc1)c1ccc(F)cc1)CC2
REMARK SMILES IDX 17 1 16 2 15 3 1 4 2 5 3 6 12 7 4 8 5 9 13 10 35 11 14 12
REMARK SMILES IDX 34 13 6 16 7 17 11 18 8 19 10 20 9 21 18 22 19 23 20 24
REMARK SMILES IDX 21 25 26 26 22 27 25 28 23 29 24 30 27 31 28 32 33 33 29 34
REMARK SMILES IDX 32 35 30 36 31 37
REMARK H PARENT 3 14 15 15
ROOT
ATOM      1  C   UNL     1      93.715 123.837 119.125  1.00  0.00     0.062 C 
ENDROOT
BRANCH   1   2
ATOM      2  C   UNL     1      93.136 124.290 120.432  1.00  0.00     0.262 C 
BRANCH   2   3
ATOM      3  N   UNL     1      91.861 123.624 120.675  1.00  0.00    -0.335 N 
ATOM      4  O   UNL     1      89.519 121.751 119.477  1.00  0.00    -0.272 OA
ATOM      5  C   UNL     1      88.820 122.079 120.458  1.00  0.00     0.247 C 
ATOM      6  N   UNL     1      87.505 121.632 120.679  1.00  0.00    -0.336 N 
ATOM      7  C   UNL     1      89.252 123.003 121.573  1.00  0.00     0.131 C 
ATOM      8  C   UNL     1      87.243 121.834 122.069  1.00  0.00     0.238 C 
ATOM      9  N   UNL     1      88.061 123.005 122.419  1.00  0.00    -0.339 N 
ATOM     10  C   UNL     1      89.542 124.369 120.986  1.00  0.00     0.100 C 
ATOM     11  C   UNL     1      90.452 122.405 122.217  1.00  0.00     0.100 C 
ATOM     12  C   UNL     1      90.749 124.334 120.078  1.00  0.00     0.265 C 
ATOM     13  C   UNL     1      91.628 123.312 122.060  1.00  0.00     0.265 C 
ATOM     14  H   UNL     1      86.861 121.230 119.945  1.00  0.00     0.165 HD
ATOM     15  H   UNL     1      91.948 122.718 120.166  1.00  0.00     0.348 HD
BRANCH   9  16
ATOM     16  C   UNL     1      87.641 123.920 123.418  1.00  0.00     0.039 A 
ATOM     17  C   UNL     1      86.662 124.850 123.162  1.00  0.00     0.026 A 
ATOM     18  C   UNL     1      88.198 123.867 124.659  1.00  0.00     0.026 A 
ATOM     19  C   UNL     1      86.225 125.744 124.145  1.00  0.00     0.002 A 
ATOM     20  C   UNL     1      87.786 124.732 125.635  1.00  0.00     0.002 A 
ATOM     21  C   UNL     1      86.810 125.663 125.391  1.00  0.00     0.000 A 
ENDBRANCH   9  16
ENDBRANCH   2   3
ENDBRANCH   1   2
BRANCH   1  22
ATOM     22  C   UNL     1      94.024 122.409 118.989  1.00  0.00     0.019 C 
BRANCH  22  23
ATOM     23  C   UNL     1      94.363 121.791 117.714  1.00  0.00     0.049 C 
BRANCH  23  24
ATOM     24  C   UNL     1      93.274 121.806 116.674  1.00  0.00    -0.040 A 
ATOM     25  C   UNL     1      92.019 122.181 117.099  1.00  0.00     0.007 A 
ATOM     26  C   UNL     1      93.493 121.444 115.371  1.00  0.00     0.007 A 
ATOM     27  C   UNL     1      90.969 122.197 116.217  1.00  0.00     0.039 A 
ATOM     28  C   UNL     1      92.442 121.462 114.494  1.00  0.00     0.039 A 
ATOM     29  C   UNL     1      91.157 121.840 114.901  1.00  0.00     0.123 A 
ATOM     30  F   UNL     1      90.111 121.859 114.037  1.00  0.00    -0.207 F 
ENDBRANCH  23  24
BRANCH  23  31
ATOM     31  C   UNL     1      95.662 122.014 117.101  1.00  0.00    -0.040 A 
ATOM     32  C   UNL     1      96.289 123.217 116.927  1.00  0.00     0.007 A 
ATOM     33  C   UNL     1      96.311 120.864 116.635  1.00  0.00     0.007 A 
ATOM     34  C   UNL     1      97.537 123.243 116.294  1.00  0.00     0.039 A 
ATOM     35  C   UNL     1      97.522 120.877 116.021  1.00  0.00     0.039 A 
ATOM     36  C   UNL     1      98.141 122.093 115.850  1.00  0.00     0.123 A 
ATOM     37  F   UNL     1      99.353 122.092 115.234  1.00  0.00    -0.207 F 
ENDBRANCH  23  31
ENDBRANCH  22  23
ENDBRANCH   1  22
TORSDOF 7
ENDMDL
MODEL 7
REMARK VINA RESULT:     -10.8      2.304      2.926
REMARK SMILES O=C1NCN(c2ccccc2)C12CC[NH+](CCCC(c1ccc(F)cc1)c1ccc(F)cc1)CC2
REMARK SMILES IDX 17 1 16 2 15 3 1 4 2 5 3 6 12 7 4 8 5 9 13 10 35 11 14 12
REMARK SMILES IDX 34 13 6 16 7 17 11 18 8 19 10 20 9 21 18 22 19 23 20 24
REMARK SMILES IDX 21 25 26 26 22 27 25 28 23 29 24 30 27 31 28 32 33 33 29 34
REMARK SMILES IDX 32 35 30 36 31 37
REMARK H PARENT 3 14 15 15
ROOT
ATOM      1  C   UNL     1      91.364 122.241 120.644  1.00  0.00     0.062 C 
ENDROOT
BRANCH   1   2
ATOM      2  C   UNL     1      90.165 121.341 120.690  1.00  0.00     0.262 C 
BRANCH   2   3
ATOM      3  N   UNL     1      89.093 121.970 121.454  1.00  0.00    -0.335 N 
ATOM      4  O   UNL     1      86.041 121.778 122.492  1.00  0.00    -0.272 OA
ATOM      5  C   UNL     1      86.120 122.985 122.802  1.00  0.00     0.247 C 
ATOM      6  N   UNL     1      85.071 123.727 123.373  1.00  0.00    -0.336 N 
ATOM      7  C   UNL     1      87.340 123.859 122.621  1.00  0.00     0.131 C 
ATOM      8  C   UNL     1      85.676 124.867 123.986  1.00  0.00     0.238 C 
ATOM      9  N   UNL     1      86.861 125.131 123.155  1.00  0.00    -0.339 N 
ATOM     10  C   UNL     1      87.662 123.942 121.142  1.00  0.00     0.100 C 
ATOM     11  C   UNL     1      88.451 123.253 123.402  1.00  0.00     0.100 C 
ATOM     12  C   UNL     1      88.110 122.605 120.600  1.00  0.00     0.265 C 
ATOM     13  C   UNL     1      89.564 122.851 122.490  1.00  0.00     0.265 C 
ATOM     14  H   UNL     1      84.048 123.469 123.342  1.00  0.00     0.165 HD
ATOM     15  H   UNL     1      88.614 121.172 121.923  1.00  0.00     0.348 HD
BRANCH   9  16
ATOM     16  C   UNL     1      87.345 126.451 122.968  1.00  0.00     0.039 A 
ATOM     17  C   UNL     1      86.589 127.400 122.322  1.00  0.00     0.026 A 
ATOM     18  C   UNL     1      88.570 126.795 123.452  1.00  0.00     0.026 A 
ATOM     19  C   UNL     1      87.048 128.709 122.151  1.00  0.00     0.002 A 
ATOM     20  C   UNL     1      89.038 128.070 123.295  1.00  0.00     0.002 A 
ATOM     21  C   UNL     1      88.292 129.025 122.653  1.00  0.00     0.000 A 
ENDBRANCH   9  16
ENDBRANCH   2   3
ENDBRANCH   1   2
BRANCH   1  22
ATOM     22  C   UNL     1      91.710 122.827 119.344  1.00  0.00     0.019 C 
BRANCH  22  23
ATOM     23  C   UNL     1      92.666 122.215 118.431  1.00  0.00     0.049 C 
BRANCH  23  24
ATOM     24  C   UNL     1      92.208 122.079 117.003  1.00  0.00    -0.040 A 
ATOM     25  C   UNL     1      93.133 121.600 116.102  1.00  0.00     0.007 A 
ATOM     26  C   UNL     1      90.950 122.433 116.594  1.00  0.00     0.007 A 
ATOM     27  C   UNL     1      92.800 121.470 114.777  1.00  0.00     0.039 A 
ATOM     28  C   UNL     1      90.622 122.301 115.272  1.00  0.00     0.039 A 
ATOM     29  C   UNL     1      91.543 121.816 114.336  1.00  0.00     0.123 A 
ATOM     30  F   UNL     1      91.225 121.684 113.023  1.00  0.00    -0.207 F 
ENDBRANCH  23  24
BRANCH  23  31
ATOM     31  C   UNL     1      94.076 122.563 118.487  1.00  0.00    -0.040 A 
ATOM     32  C   UNL     1      95.135 121.730 118.255  1.00  0.00     0.007 A 
ATOM     33  C   UNL     1      94.352 123.893 118.833  1.00  0.00     0.007 A 
ATOM     34  C   UNL     1      96.434 122.237 118.374  1.00  0.00     0.039 A 
ATOM     35  C   UNL     1      95.608 124.396 118.950  1.00  0.00     0.039 A 
ATOM     36  C   UNL     1      96.664 123.547 118.715  1.00  0.00     0.123 A 
ATOM     37  F   UNL     1      97.916 124.065 118.835  1.00  0.00    -0.207 F 
ENDBRANCH  23  31
ENDBRANCH  22  23
ENDBRANCH   1  22
TORSDOF 7
ENDMDL
MODEL 8
REMARK VINA RESULT:     -10.8      1.114      1.565
REMARK SMILES O=C1NCN(c2ccccc2)C12CC[NH+](CCCC(c1ccc(F)cc1)c1ccc(F)cc1)CC2
REMARK SMILES IDX 17 1 16 2 15 3 1 4 2 5 3 6 12 7 4 8 5 9 13 10 35 11 14 12
REMARK SMILES IDX 34 13 6 16 7 17 11 18 8 19 10 20 9 21 18 22 19 23 20 24
REMARK SMILES IDX 21 25 26 26 22 27 25 28 23 29 24 30 27 31 28 32 33 33 29 34
REMARK SMILES IDX 32 35 30 36 31 37
REMARK H PARENT 3 14 15 15
ROOT
ATOM      1  C   UNL     1      92.501 123.527 120.264  1.00  0.00     0.062 C 
ENDROOT
BRANCH   1   2
ATOM      2  C   UNL     1      91.951 122.191 120.669  1.00  0.00     0.262 C 
BRANCH   2   3
ATOM      3  N   UNL     1      90.541 122.314 121.024  1.00  0.00    -0.335 N 
ATOM      4  O   UNL     1      87.477 122.127 120.023  1.00  0.00    -0.272 OA
ATOM      5  C   UNL     1      87.146 122.704 121.079  1.00  0.00     0.247 C 
ATOM      6  N   UNL     1      85.822 123.033 121.422  1.00  0.00    -0.336 N 
ATOM      7  C   UNL     1      88.094 123.151 122.168  1.00  0.00     0.131 C 
ATOM      8  C   UNL     1      85.814 123.234 122.836  1.00  0.00     0.238 C 
ATOM      9  N   UNL     1      87.165 123.737 123.131  1.00  0.00    -0.339 N 
ATOM     10  C   UNL     1      89.046 124.178 121.591  1.00  0.00     0.100 C 
ATOM     11  C   UNL     1      88.807 121.946 122.669  1.00  0.00     0.100 C 
ATOM     12  C   UNL     1      89.966 123.561 120.564  1.00  0.00     0.265 C 
ATOM     13  C   UNL     1      90.274 122.073 122.417  1.00  0.00     0.265 C 
ATOM     14  H   UNL     1      85.013 123.108 120.747  1.00  0.00     0.165 HD
ATOM     15  H   UNL     1      90.078 121.551 120.484  1.00  0.00     0.348 HD
BRANCH   9  16
ATOM     16  C   UNL     1      87.391 124.650 124.192  1.00  0.00     0.039 A 
ATOM     17  C   UNL     1      87.264 126.006 124.001  1.00  0.00     0.026 A 
ATOM     18  C   UNL     1      87.719 124.182 125.428  1.00  0.00     0.026 A 
ATOM     19  C   UNL     1      87.465 126.914 125.045  1.00  0.00     0.002 A 
ATOM     20  C   UNL     1      87.920 125.054 126.462  1.00  0.00     0.002 A 
ATOM     21  C   UNL     1      87.796 126.407 126.283  1.00  0.00     0.000 A 
ENDBRANCH   9  16
ENDBRANCH   2   3
ENDBRANCH   1   2
BRANCH   1  22
ATOM     22  C   UNL     1      92.982 123.662 118.885  1.00  0.00     0.019 C 
BRANCH  22  23
ATOM     23  C   UNL     1      93.465 122.531 118.103  1.00  0.00     0.049 C 
BRANCH  23  24
ATOM     24  C   UNL     1      92.657 122.193 116.878  1.00  0.00    -0.040 A 
ATOM     25  C   UNL     1      91.312 122.484 116.927  1.00  0.00     0.007 A 
ATOM     26  C   UNL     1      93.205 121.601 115.772  1.00  0.00     0.007 A 
ATOM     27  C   UNL     1      90.503 122.184 115.860  1.00  0.00     0.039 A 
ATOM     28  C   UNL     1      92.395 121.304 114.710  1.00  0.00     0.039 A 
ATOM     29  C   UNL     1      91.025 121.590 114.734  1.00  0.00     0.123 A 
ATOM     30  F   UNL     1      90.215 121.297 113.685  1.00  0.00    -0.207 F 
ENDBRANCH  23  24
BRANCH  23  31
ATOM     31  C   UNL     1      94.885 122.358 117.845  1.00  0.00    -0.040 A 
ATOM     32  C   UNL     1      95.488 121.265 117.290  1.00  0.00     0.007 A 
ATOM     33  C   UNL     1      95.700 123.431 118.229  1.00  0.00     0.007 A 
ATOM     34  C   UNL     1      96.880 121.266 117.133  1.00  0.00     0.039 A 
ATOM     35  C   UNL     1      97.049 123.445 118.081  1.00  0.00     0.039 A 
ATOM     36  C   UNL     1      97.643 122.337 117.522  1.00  0.00     0.123 A 
ATOM     37  F   UNL     1      98.996 122.364 117.379  1.00  0.00    -0.207 F 
ENDBRANCH  23  31
ENDBRANCH  22  23
ENDBRANCH   1  22
TORSDOF 7
ENDMDL
MODEL 9
REMARK VINA RESULT:     -10.8      2.788      3.348
REMARK SMILES O=C1NCN(c2ccccc2)C12CC[NH+](CCCC(c1ccc(F)cc1)c1ccc(F)cc1)CC2
REMARK SMILES IDX 17 1 16 2 15 3 1 4 2 5 3 6 12 7 4 8 5 9 13 10 35 11 14 12
REMARK SMILES IDX 34 13 6 16 7 17 11 18 8 19 10 20 9 21 18 22 19 23 20 24
REMARK SMILES IDX 21 25 26 26 22 27 25 28 23 29 24 30 27 31 28 32 33 33 29 34
REMARK SMILES IDX 32 35 30 36 31 37
REMARK H PARENT 3 14 15 15
ROOT
ATOM      1  C   UNL     1      91.290 123.135 120.377  1.00  0.00     0.062 C 
ENDROOT
BRANCH   1   2
ATOM      2  C   UNL     1      90.002 122.369 120.446  1.00  0.00     0.262 C 
BRANCH   2   3
ATOM      3  N   UNL     1      88.996 123.139 121.168  1.00  0.00    -0.335 N 
ATOM      4  O   UNL     1      85.897 123.393 122.040  1.00  0.00    -0.272 OA
ATOM      5  C   UNL     1      86.139 124.568 122.386  1.00  0.00     0.247 C 
ATOM      6  N   UNL     1      85.184 125.449 122.922  1.00  0.00    -0.336 N 
ATOM      7  C   UNL     1      87.485 125.249 122.293  1.00  0.00     0.131 C 
ATOM      8  C   UNL     1      85.918 126.472 123.596  1.00  0.00     0.238 C 
ATOM      9  N   UNL     1      87.174 126.570 122.836  1.00  0.00    -0.339 N 
ATOM     10  C   UNL     1      87.898 125.311 120.836  1.00  0.00     0.100 C 
ATOM     11  C   UNL     1      88.446 124.467 123.114  1.00  0.00     0.100 C 
ATOM     12  C   UNL     1      88.169 123.932 120.282  1.00  0.00     0.265 C 
ATOM     13  C   UNL     1      89.535 123.919 122.252  1.00  0.00     0.265 C 
ATOM     14  H   UNL     1      84.136 125.350 122.829  1.00  0.00     0.165 HD
ATOM     15  H   UNL     1      88.377 122.414 121.590  1.00  0.00     0.348 HD
BRANCH   9  16
ATOM     16  C   UNL     1      87.861 127.803 122.710  1.00  0.00     0.039 A 
ATOM     17  C   UNL     1      89.163 127.937 123.132  1.00  0.00     0.026 A 
ATOM     18  C   UNL     1      87.234 128.871 122.144  1.00  0.00     0.026 A 
ATOM     19  C   UNL     1      89.857 129.143 122.995  1.00  0.00     0.002 A 
ATOM     20  C   UNL     1      87.895 130.060 122.001  1.00  0.00     0.002 A 
ATOM     21  C   UNL     1      89.193 130.204 122.418  1.00  0.00     0.000 A 
ENDBRANCH   9  16
ENDBRANCH   2   3
ENDBRANCH   1   2
BRANCH   1  22
ATOM     22  C   UNL     1      91.818 123.435 119.041  1.00  0.00     0.019 C 
BRANCH  22  23
ATOM     23  C   UNL     1      92.738 122.549 118.339  1.00  0.00     0.049 C 
BRANCH  23  24
ATOM     24  C   UNL     1      92.360 122.211 116.920  1.00  0.00    -0.040 A 
ATOM     25  C   UNL     1      91.077 122.525 116.532  1.00  0.00     0.007 A 
ATOM     26  C   UNL     1      93.225 121.599 116.053  1.00  0.00     0.007 A 
ATOM     27  C   UNL     1      90.649 122.227 115.263  1.00  0.00     0.039 A 
ATOM     28  C   UNL     1      92.794 121.304 114.787  1.00  0.00     0.039 A 
ATOM     29  C   UNL     1      91.495 121.613 114.367  1.00  0.00     0.123 A 
ATOM     30  F   UNL     1      91.060 121.322 113.115  1.00  0.00    -0.207 F 
ENDBRANCH  23  24
BRANCH  23  31
ATOM     31  C   UNL     1      94.176 122.722 118.460  1.00  0.00    -0.040 A 
ATOM     32  C   UNL     1      95.136 121.781 118.213  1.00  0.00     0.007 A 
ATOM     33  C   UNL     1      94.594 123.987 118.892  1.00  0.00     0.007 A 
ATOM     34  C   UNL     1      96.481 122.121 118.402  1.00  0.00     0.039 A 
ATOM     35  C   UNL     1      95.894 124.329 119.079  1.00  0.00     0.039 A 
ATOM     36  C   UNL     1      96.851 123.373 118.828  1.00  0.00     0.123 A 
ATOM     37  F   UNL     1      98.149 123.729 119.018  1.00  0.00    -0.207 F 
ENDBRANCH  23  31
ENDBRANCH  22  23
ENDBRANCH   1  22
TORSDOF 7
ENDMDL
