MODEL 1
REMARK VINA RESULT:      -7.0      0.000      0.000
REMARK SMILES Clc1ccccc1C(c1ccccc1)(c1ccccc1)n1ccnc1
REMARK SMILES IDX 1 1 2 2 3 3 4 4 5 5 6 6 7 7 8 8 9 9 10 10 14 11 11 12 13 13
REMARK SMILES IDX 12 14 15 15 16 16 20 17 17 18 19 19 18 20 21 21 22 22 25 23
REMARK SMILES IDX 23 24 24 25
REMARK H PARENT
ROOT
ATOM      1  Cl  UNL     1      87.243 123.522 122.882  1.00  0.00    -0.084 Cl
ATOM      2  C   UNL     1      87.723 124.486 124.261  1.00  0.00     0.047 A 
ATOM      3  C   UNL     1      87.179 124.283 125.508  1.00  0.00     0.021 A 
ATOM      4  C   UNL     1      87.578 125.018 126.603  1.00  0.00     0.002 A 
ATOM      5  C   UNL     1      88.547 125.973 126.418  1.00  0.00     0.001 A 
ATOM      6  C   UNL     1      89.101 126.180 125.148  1.00  0.00     0.008 A 
ATOM      7  C   UNL     1      88.701 125.450 124.071  1.00  0.00     0.006 A 
ENDROOT
BRANCH   7   8
ATOM      8  C   UNL     1      89.285 125.704 122.727  1.00  0.00     0.123 C 
BRANCH   8   9
ATOM      9  C   UNL     1      90.055 124.492 122.328  1.00  0.00    -0.013 A 
ATOM     10  C   UNL     1      90.259 124.064 121.057  1.00  0.00     0.007 A 
ATOM     11  C   UNL     1      90.613 123.769 123.399  1.00  0.00     0.007 A 
ATOM     12  C   UNL     1      91.012 122.924 120.837  1.00  0.00     0.000 A 
ATOM     13  C   UNL     1      91.359 122.641 123.172  1.00  0.00     0.000 A 
ATOM     14  C   UNL     1      91.571 122.199 121.888  1.00  0.00     0.000 A 
ENDBRANCH   8   9
BRANCH   8  15
ATOM     15  C   UNL     1      90.313 126.779 122.779  1.00  0.00    -0.013 A 
ATOM     16  C   UNL     1      91.659 126.539 122.692  1.00  0.00     0.007 A 
ATOM     17  C   UNL     1      89.894 128.080 122.895  1.00  0.00     0.007 A 
ATOM     18  C   UNL     1      92.595 127.565 122.720  1.00  0.00     0.000 A 
ATOM     19  C   UNL     1      90.822 129.134 122.925  1.00  0.00     0.000 A 
ATOM     20  C   UNL     1      92.159 128.863 122.837  1.00  0.00     0.000 A 
ENDBRANCH   8  15
BRANCH   8  21
ATOM     21  N   UNL     1      88.254 126.068 121.801  1.00  0.00    -0.319 N 
ATOM     22  C   UNL     1      88.134 125.617 120.522  1.00  0.00     0.109 A 
ATOM     23  C   UNL     1      87.224 126.884 122.021  1.00  0.00     0.200 A 
ATOM     24  C   UNL     1      87.009 126.172 119.953  1.00  0.00     0.131 A 
ATOM     25  N   UNL     1      86.471 126.943 120.891  1.00  0.00    -0.245 NA
ENDBRANCH   8  21
ENDBRANCH   7   8
TORSDOF 4
ENDMDL
MODEL 2
REMARK VINA RESULT:      -7.0      0.819      1.339
REMARK SMILES Clc1ccccc1C(c1ccccc1)(c1ccccc1)n1ccnc1
REMARK SMILES IDX 1 1 2 2 3 3 4 4 5 5 6 6 7 7 8 8 9 9 10 10 14 11 11 12 13 13
REMARK SMILES IDX 12 14 15 15 16 16 20 17 17 18 19 19 18 20 21 21 22 22 25 23
REMARK SMILES IDX 23 24 24 25
REMARK H PARENT
ROOT
ATOM      1  Cl  UNL     1      87.651 123.343 123.157  1.00  0.00    -0.084 Cl
ATOM      2  C   UNL     1      87.862 124.469 124.479  1.00  0.00     0.047 A 
ATOM      3  C   UNL     1      87.467 124.159 125.760  1.00  0.00     0.021 A 
ATOM      4  C   UNL     1      87.661 125.029 126.810  1.00  0.00     0.002 A 
ATOM      5  C   UNL     1      88.267 126.233 126.545  1.00  0.00     0.001 A 
ATOM      6  C   UNL     1      88.668 126.548 125.241  1.00  0.00     0.008 A 
ATOM      7  C   UNL     1      88.472 125.683 124.209  1.00  0.00     0.006 A 
ENDROOT
BRANCH   7   8
ATOM      8  C   UNL     1      88.884 126.051 122.827  1.00  0.00     0.123 C 
BRANCH   8   9
ATOM      9  C   UNL     1      89.947 125.097 122.399  1.00  0.00    -0.013 A 
ATOM     10  C   UNL     1      90.799 124.437 123.223  1.00  0.00     0.007 A 
ATOM     11  C   UNL     1      90.026 124.885 121.010  1.00  0.00     0.007 A 
ATOM     12  C   UNL     1      91.729 123.567 122.683  1.00  0.00     0.000 A 
ATOM     13  C   UNL     1      90.949 124.021 120.483  1.00  0.00     0.000 A 
ATOM     14  C   UNL     1      91.817 123.347 121.308  1.00  0.00     0.000 A 
ENDBRANCH   8   9
BRANCH   8  15
ATOM     15  C   UNL     1      89.560 127.375 122.799  1.00  0.00    -0.013 A 
ATOM     16  C   UNL     1      90.918 127.531 122.900  1.00  0.00     0.007 A 
ATOM     17  C   UNL     1      88.791 128.500 122.638  1.00  0.00     0.007 A 
ATOM     18  C   UNL     1      91.524 128.780 122.847  1.00  0.00     0.000 A 
ATOM     19  C   UNL     1      89.382 129.773 122.582  1.00  0.00     0.000 A 
ATOM     20  C   UNL     1      90.739 129.896 122.688  1.00  0.00     0.000 A 
ENDBRANCH   8  15
BRANCH   8  21
ATOM     21  N   UNL     1      87.742 126.074 121.961  1.00  0.00    -0.319 N 
ATOM     22  C   UNL     1      87.737 125.750 120.638  1.00  0.00     0.109 A 
ATOM     23  C   UNL     1      86.490 126.389 122.287  1.00  0.00     0.200 A 
ATOM     24  C   UNL     1      86.455 125.873 120.151  1.00  0.00     0.131 A 
ATOM     25  N   UNL     1      85.712 126.265 121.180  1.00  0.00    -0.245 NA
ENDBRANCH   8  21
ENDBRANCH   7   8
TORSDOF 4
ENDMDL
MODEL 3
REMARK VINA RESULT:      -6.9      0.332      1.376
REMARK SMILES Clc1ccccc1C(c1ccccc1)(c1ccccc1)n1ccnc1
REMARK SMILES IDX 1 1 2 2 3 3 4 4 5 5 6 6 7 7 8 8 9 9 10 10 14 11 11 12 13 13
REMARK SMILES IDX 12 14 15 15 16 16 20 17 17 18 19 19 18 20 21 21 22 22 25 23
REMARK SMILES IDX 23 24 24 25
REMARK H PARENT
ROOT
ATOM      1  Cl  UNL     1      87.329 123.559 122.908  1.00  0.00    -0.084 Cl
ATOM      2  C   UNL     1      87.790 124.532 124.287  1.00  0.00     0.047 A 
ATOM      3  C   UNL     1      87.280 124.290 125.542  1.00  0.00     0.021 A 
ATOM      4  C   UNL     1      87.665 125.033 126.637  1.00  0.00     0.002 A 
ATOM      5  C   UNL     1      88.583 126.035 126.445  1.00  0.00     0.001 A 
ATOM      6  C   UNL     1      89.101 126.281 125.166  1.00  0.00     0.008 A 
ATOM      7  C   UNL     1      88.715 125.544 124.090  1.00  0.00     0.006 A 
ENDROOT
BRANCH   7   8
ATOM      8  C   UNL     1      89.260 125.840 122.737  1.00  0.00     0.123 C 
BRANCH   8   9
ATOM      9  C   UNL     1      90.155 124.713 122.349  1.00  0.00    -0.013 A 
ATOM     10  C   UNL     1      90.749 123.842 123.203  1.00  0.00     0.007 A 
ATOM     11  C   UNL     1      90.359 124.571 120.964  1.00  0.00     0.007 A 
ATOM     12  C   UNL     1      91.545 122.830 122.695  1.00  0.00     0.000 A 
ATOM     13  C   UNL     1      91.148 123.566 120.469  1.00  0.00     0.000 A 
ATOM     14  C   UNL     1      91.755 122.678 121.325  1.00  0.00     0.000 A 
ENDBRANCH   8   9
BRANCH   8  15
ATOM     15  C   UNL     1      90.165 127.020 122.766  1.00  0.00    -0.013 A 
ATOM     16  C   UNL     1      89.715 128.314 122.802  1.00  0.00     0.007 A 
ATOM     17  C   UNL     1      91.520 126.806 122.781  1.00  0.00     0.007 A 
ATOM     18  C   UNL     1      90.584 129.397 122.851  1.00  0.00     0.000 A 
ATOM     19  C   UNL     1      92.417 127.886 122.831  1.00  0.00     0.000 A 
ATOM     20  C   UNL     1      91.938 129.166 122.865  1.00  0.00     0.000 A 
ENDBRANCH   8  15
BRANCH   8  21
ATOM     21  N   UNL     1      88.189 126.076 121.814  1.00  0.00    -0.319 N 
ATOM     22  C   UNL     1      88.108 125.590 120.545  1.00  0.00     0.109 A 
ATOM     23  C   UNL     1      87.081 126.783 122.030  1.00  0.00     0.200 A 
ATOM     24  C   UNL     1      86.927 126.013 119.977  1.00  0.00     0.131 A 
ATOM     25  N   UNL     1      86.317 126.740 120.906  1.00  0.00    -0.245 NA
ENDBRANCH   8  21
ENDBRANCH   7   8
TORSDOF 4
ENDMDL
MODEL 4
REMARK VINA RESULT:      -6.8      1.181      1.663
REMARK SMILES Clc1ccccc1C(c1ccccc1)(c1ccccc1)n1ccnc1
REMARK SMILES IDX 1 1 2 2 3 3 4 4 5 5 6 6 7 7 8 8 9 9 10 10 14 11 11 12 13 13
REMARK SMILES IDX 12 14 15 15 16 16 20 17 17 18 19 19 18 20 21 21 22 22 25 23
REMARK SMILES IDX 23 24 24 25
REMARK H PARENT
ROOT
ATOM      1  Cl  UNL     1      87.585 123.502 123.319  1.00  0.00    -0.084 Cl
ATOM      2  C   UNL     1      87.867 124.632 124.624  1.00  0.00     0.047 A 
ATOM      3  C   UNL     1      87.715 124.264 125.942  1.00  0.00     0.021 A 
ATOM      4  C   UNL     1      87.968 125.142 126.974  1.00  0.00     0.002 A 
ATOM      5  C   UNL     1      88.381 126.411 126.653  1.00  0.00     0.001 A 
ATOM      6  C   UNL     1      88.536 126.785 125.311  1.00  0.00     0.008 A 
ATOM      7  C   UNL     1      88.283 125.913 124.298  1.00  0.00     0.006 A 
ENDROOT
BRANCH   7   8
ATOM      8  C   UNL     1      88.430 126.340 122.880  1.00  0.00     0.123 C 
BRANCH   8   9
ATOM      9  C   UNL     1      89.464 125.472 122.247  1.00  0.00    -0.013 A 
ATOM     10  C   UNL     1      89.452 125.030 120.965  1.00  0.00     0.007 A 
ATOM     11  C   UNL     1      90.534 125.118 123.091  1.00  0.00     0.007 A 
ATOM     12  C   UNL     1      90.492 124.240 120.509  1.00  0.00     0.000 A 
ATOM     13  C   UNL     1      91.561 124.336 122.631  1.00  0.00     0.000 A 
ATOM     14  C   UNL     1      91.559 123.882 121.333  1.00  0.00     0.000 A 
ENDBRANCH   8   9
BRANCH   8  15
ATOM     15  C   UNL     1      89.006 127.708 122.785  1.00  0.00    -0.013 A 
ATOM     16  C   UNL     1      90.342 127.975 122.932  1.00  0.00     0.007 A 
ATOM     17  C   UNL     1      88.163 128.755 122.511  1.00  0.00     0.007 A 
ATOM     18  C   UNL     1      90.855 129.261 122.814  1.00  0.00     0.000 A 
ATOM     19  C   UNL     1      88.659 130.064 122.389  1.00  0.00     0.000 A 
ATOM     20  C   UNL     1      89.998 130.299 122.541  1.00  0.00     0.000 A 
ENDBRANCH   8  15
BRANCH   8  21
ATOM     21  N   UNL     1      87.159 126.305 122.220  1.00  0.00    -0.319 N 
ATOM     22  C   UNL     1      85.948 126.508 122.809  1.00  0.00     0.109 A 
ATOM     23  C   UNL     1      86.928 126.093 120.925  1.00  0.00     0.200 A 
ATOM     24  C   UNL     1      84.962 126.416 121.852  1.00  0.00     0.131 A 
ATOM     25  N   UNL     1      85.588 126.162 120.708  1.00  0.00    -0.245 NA
ENDBRANCH   8  21
ENDBRANCH   7   8
TORSDOF 4
ENDMDL
MODEL 5
REMARK VINA RESULT:      -6.8      0.947      1.837
REMARK SMILES Clc1ccccc1C(c1ccccc1)(c1ccccc1)n1ccnc1
REMARK SMILES IDX 1 1 2 2 3 3 4 4 5 5 6 6 7 7 8 8 9 9 10 10 14 11 11 12 13 13
REMARK SMILES IDX 12 14 15 15 16 16 20 17 17 18 19 19 18 20 21 21 22 22 25 23
REMARK SMILES IDX 23 24 24 25
REMARK H PARENT
ROOT
ATOM      1  Cl  UNL     1      87.565 123.408 123.352  1.00  0.00    -0.084 Cl
ATOM      2  C   UNL     1      87.867 124.543 124.648  1.00  0.00     0.047 A 
ATOM      3  C   UNL     1      87.582 124.234 125.959  1.00  0.00     0.021 A 
ATOM      4  C   UNL     1      87.849 125.113 126.986  1.00  0.00     0.002 A 
ATOM      5  C   UNL     1      88.414 126.323 126.668  1.00  0.00     0.001 A 
ATOM      6  C   UNL     1      88.705 126.637 125.333  1.00  0.00     0.008 A 
ATOM      7  C   UNL     1      88.437 125.764 124.324  1.00  0.00     0.006 A 
ENDROOT
BRANCH   7   8
ATOM      8  C   UNL     1      88.730 126.130 122.912  1.00  0.00     0.123 C 
BRANCH   8   9
ATOM      9  C   UNL     1      89.755 125.177 122.398  1.00  0.00    -0.013 A 
ATOM     10  C   UNL     1      90.695 124.544 123.144  1.00  0.00     0.007 A 
ATOM     11  C   UNL     1      89.693 124.934 121.013  1.00  0.00     0.007 A 
ATOM     12  C   UNL     1      91.574 123.670 122.529  1.00  0.00     0.000 A 
ATOM     13  C   UNL     1      90.568 124.067 120.412  1.00  0.00     0.000 A 
ATOM     14  C   UNL     1      91.524 123.420 121.158  1.00  0.00     0.000 A 
ENDBRANCH   8   9
BRANCH   8  15
ATOM     15  C   UNL     1      89.400 127.455 122.825  1.00  0.00    -0.013 A 
ATOM     16  C   UNL     1      88.721 128.631 122.640  1.00  0.00     0.007 A 
ATOM     17  C   UNL     1      90.764 127.510 122.960  1.00  0.00     0.007 A 
ATOM     18  C   UNL     1      89.371 129.858 122.586  1.00  0.00     0.000 A 
ATOM     19  C   UNL     1      91.443 128.739 122.908  1.00  0.00     0.000 A 
ATOM     20  C   UNL     1      90.738 129.896 122.722  1.00  0.00     0.000 A 
ENDBRANCH   8  15
BRANCH   8  21
ATOM     21  N   UNL     1      87.520 126.150 122.146  1.00  0.00    -0.319 N 
ATOM     22  C   UNL     1      86.269 126.376 122.635  1.00  0.00     0.109 A 
ATOM     23  C   UNL     1      87.395 125.976 120.830  1.00  0.00     0.200 A 
ATOM     24  C   UNL     1      85.367 126.337 121.595  1.00  0.00     0.131 A 
ATOM     25  N   UNL     1      86.081 126.091 120.503  1.00  0.00    -0.245 NA
ENDBRANCH   8  21
ENDBRANCH   7   8
TORSDOF 4
ENDMDL
MODEL 6
REMARK VINA RESULT:      -6.7      1.378      4.618
REMARK SMILES Clc1ccccc1C(c1ccccc1)(c1ccccc1)n1ccnc1
REMARK SMILES IDX 1 1 2 2 3 3 4 4 5 5 6 6 7 7 8 8 9 9 10 10 14 11 11 12 13 13
REMARK SMILES IDX 12 14 15 15 16 16 20 17 17 18 19 19 18 20 21 21 22 22 25 23
REMARK SMILES IDX 23 24 24 25
REMARK H PARENT
ROOT
ATOM      1  Cl  UNL     1      90.398 124.797 120.008  1.00  0.00    -0.084 Cl
ATOM      2  C   UNL     1      90.585 123.688 121.348  1.00  0.00     0.047 A 
ATOM      3  C   UNL     1      91.477 122.642 121.299  1.00  0.00     0.021 A 
ATOM      4  C   UNL     1      91.651 121.786 122.365  1.00  0.00     0.002 A 
ATOM      5  C   UNL     1      90.901 122.003 123.494  1.00  0.00     0.001 A 
ATOM      6  C   UNL     1      89.992 123.068 123.543  1.00  0.00     0.008 A 
ATOM      7  C   UNL     1      89.826 123.909 122.486  1.00  0.00     0.006 A 
ENDROOT
BRANCH   7   8
ATOM      8  C   UNL     1      88.836 125.018 122.552  1.00  0.00     0.123 C 
BRANCH   8   9
ATOM      9  C   UNL     1      89.592 126.297 122.675  1.00  0.00    -0.013 A 
ATOM     10  C   UNL     1      90.941 126.418 122.745  1.00  0.00     0.007 A 
ATOM     11  C   UNL     1      88.792 127.455 122.704  1.00  0.00     0.007 A 
ATOM     12  C   UNL     1      91.506 127.677 122.842  1.00  0.00     0.000 A 
ATOM     13  C   UNL     1      89.360 128.699 122.799  1.00  0.00     0.000 A 
ATOM     14  C   UNL     1      90.726 128.832 122.870  1.00  0.00     0.000 A 
ENDBRANCH   8   9
BRANCH   8  15
ATOM     15  C   UNL     1      88.036 124.955 123.804  1.00  0.00    -0.013 A 
ATOM     16  C   UNL     1      86.749 124.488 123.853  1.00  0.00     0.007 A 
ATOM     17  C   UNL     1      88.621 125.360 124.977  1.00  0.00     0.007 A 
ATOM     18  C   UNL     1      86.032 124.418 125.042  1.00  0.00     0.000 A 
ATOM     19  C   UNL     1      87.917 125.299 126.191  1.00  0.00     0.000 A 
ATOM     20  C   UNL     1      86.633 124.829 126.207  1.00  0.00     0.000 A 
ENDBRANCH   8  15
BRANCH   8  21
ATOM     21  N   UNL     1      87.962 124.967 121.418  1.00  0.00    -0.319 N 
ATOM     22  C   UNL     1      87.264 123.877 120.997  1.00  0.00     0.109 A 
ATOM     23  C   UNL     1      87.655 125.966 120.591  1.00  0.00     0.200 A 
ATOM     24  C   UNL     1      86.520 124.220 119.890  1.00  0.00     0.131 A 
ATOM     25  N   UNL     1      86.777 125.503 119.663  1.00  0.00    -0.245 NA
ENDBRANCH   8  21
ENDBRANCH   7   8
TORSDOF 4
ENDMDL
MODEL 7
REMARK VINA RESULT:      -6.7      1.727      4.896
REMARK SMILES Clc1ccccc1C(c1ccccc1)(c1ccccc1)n1ccnc1
REMARK SMILES IDX 1 1 2 2 3 3 4 4 5 5 6 6 7 7 8 8 9 9 10 10 14 11 11 12 13 13
REMARK SMILES IDX 12 14 15 15 16 16 20 17 17 18 19 19 18 20 21 21 22 22 25 23
REMARK SMILES IDX 23 24 24 25
REMARK H PARENT
ROOT
ATOM      1  Cl  UNL     1      89.956 124.867 120.076  1.00  0.00    -0.084 Cl
ATOM      2  C   UNL     1      90.053 123.758 121.426  1.00  0.00     0.047 A 
ATOM      3  C   UNL     1      91.056 122.821 121.518  1.00  0.00     0.021 A 
ATOM      4  C   UNL     1      91.155 121.967 122.595  1.00  0.00     0.002 A 
ATOM      5  C   UNL     1      90.215 122.074 123.590  1.00  0.00     0.001 A 
ATOM      6  C   UNL     1      89.193 123.029 123.495  1.00  0.00     0.008 A 
ATOM      7  C   UNL     1      89.102 123.867 122.428  1.00  0.00     0.006 A 
ENDROOT
BRANCH   7   8
ATOM      8  C   UNL     1      87.994 124.856 122.337  1.00  0.00     0.123 C 
BRANCH   8   9
ATOM      9  C   UNL     1      88.582 126.217 122.497  1.00  0.00    -0.013 A 
ATOM     10  C   UNL     1      89.849 126.491 122.898  1.00  0.00     0.007 A 
ATOM     11  C   UNL     1      87.712 127.277 122.178  1.00  0.00     0.007 A 
ATOM     12  C   UNL     1      90.262 127.808 122.986  1.00  0.00     0.000 A 
ATOM     13  C   UNL     1      88.131 128.579 122.268  1.00  0.00     0.000 A 
ATOM     14  C   UNL     1      89.412 128.868 122.673  1.00  0.00     0.000 A 
ENDBRANCH   8   9
BRANCH   8  15
ATOM     15  C   UNL     1      87.063 124.732 123.490  1.00  0.00    -0.013 A 
ATOM     16  C   UNL     1      87.417 125.030 124.780  1.00  0.00     0.007 A 
ATOM     17  C   UNL     1      85.776 124.322 123.251  1.00  0.00     0.007 A 
ATOM     18  C   UNL     1      86.519 124.926 125.835  1.00  0.00     0.000 A 
ATOM     19  C   UNL     1      84.850 124.209 124.302  1.00  0.00     0.000 A 
ATOM     20  C   UNL     1      85.233 124.513 125.579  1.00  0.00     0.000 A 
ENDBRANCH   8  15
BRANCH   8  21
ATOM     21  N   UNL     1      87.271 124.677 121.112  1.00  0.00    -0.319 N 
ATOM     22  C   UNL     1      86.941 123.482 120.548  1.00  0.00     0.109 A 
ATOM     23  C   UNL     1      86.776 125.628 120.321  1.00  0.00     0.200 A 
ATOM     24  C   UNL     1      86.233 123.712 119.390  1.00  0.00     0.131 A 
ATOM     25  N   UNL     1      86.145 125.032 119.275  1.00  0.00    -0.245 NA
ENDBRANCH   8  21
ENDBRANCH   7   8
TORSDOF 4
ENDMDL
MODEL 8
REMARK VINA RESULT:      -6.7      1.208      4.386
REMARK SMILES Clc1ccccc1C(c1ccccc1)(c1ccccc1)n1ccnc1
REMARK SMILES IDX 1 1 2 2 3 3 4 4 5 5 6 6 7 7 8 8 9 9 10 10 14 11 11 12 13 13
REMARK SMILES IDX 12 14 15 15 16 16 20 17 17 18 19 19 18 20 21 21 22 22 25 23
REMARK SMILES IDX 23 24 24 25
REMARK H PARENT
ROOT
ATOM      1  Cl  UNL     1      87.141 127.943 122.932  1.00  0.00    -0.084 Cl
ATOM      2  C   UNL     1      88.888 127.973 122.841  1.00  0.00     0.047 A 
ATOM      3  C   UNL     1      89.593 129.154 122.889  1.00  0.00     0.021 A 
ATOM      4  C   UNL     1      90.970 129.179 122.850  1.00  0.00     0.002 A 
ATOM      5  C   UNL     1      91.634 127.981 122.760  1.00  0.00     0.001 A 
ATOM      6  C   UNL     1      90.916 126.779 122.711  1.00  0.00     0.008 A 
ATOM      7  C   UNL     1      89.556 126.762 122.749  1.00  0.00     0.006 A 
ENDROOT
BRANCH   7   8
ATOM      8  C   UNL     1      88.814 125.475 122.670  1.00  0.00     0.123 C 
BRANCH   8   9
ATOM      9  C   UNL     1      88.177 125.232 123.996  1.00  0.00    -0.013 A 
ATOM     10  C   UNL     1      87.043 124.521 124.213  1.00  0.00     0.007 A 
ATOM     11  C   UNL     1      88.859 125.799 125.089  1.00  0.00     0.007 A 
ATOM     12  C   UNL     1      86.577 124.366 125.507  1.00  0.00     0.000 A 
ATOM     13  C   UNL     1      88.391 125.640 126.367  1.00  0.00     0.000 A 
ATOM     14  C   UNL     1      87.242 124.922 126.599  1.00  0.00     0.000 A 
ENDBRANCH   8   9
BRANCH   8  15
ATOM     15  C   UNL     1      89.743 124.325 122.504  1.00  0.00    -0.013 A 
ATOM     16  C   UNL     1      89.999 123.415 123.496  1.00  0.00     0.007 A 
ATOM     17  C   UNL     1      90.357 124.149 121.290  1.00  0.00     0.007 A 
ATOM     18  C   UNL     1      90.855 122.336 123.305  1.00  0.00     0.000 A 
ATOM     19  C   UNL     1      91.227 123.067 121.075  1.00  0.00     0.000 A 
ATOM     20  C   UNL     1      91.463 122.175 122.084  1.00  0.00     0.000 A 
ENDBRANCH   8  15
BRANCH   8  21
ATOM     21  N   UNL     1      87.886 125.506 121.577  1.00  0.00    -0.319 N 
ATOM     22  C   UNL     1      86.622 125.001 121.589  1.00  0.00     0.109 A 
ATOM     23  C   UNL     1      88.076 126.045 120.374  1.00  0.00     0.200 A 
ATOM     24  C   UNL     1      86.033 125.237 120.367  1.00  0.00     0.131 A 
ATOM     25  N   UNL     1      86.943 125.877 119.643  1.00  0.00    -0.245 NA
ENDBRANCH   8  21
ENDBRANCH   7   8
TORSDOF 4
ENDMDL
MODEL 9
REMARK VINA RESULT:      -6.6      1.600      4.730
REMARK SMILES Clc1ccccc1C(c1ccccc1)(c1ccccc1)n1ccnc1
REMARK SMILES IDX 1 1 2 2 3 3 4 4 5 5 6 6 7 7 8 8 9 9 10 10 14 11 11 12 13 13
REMARK SMILES IDX 12 14 15 15 16 16 20 17 17 18 19 19 18 20 21 21 22 22 25 23
REMARK SMILES IDX 23 24 24 25
REMARK H PARENT
ROOT
ATOM      1  Cl  UNL     1      90.108 124.859 120.007  1.00  0.00    -0.084 Cl
ATOM      2  C   UNL     1      90.269 123.765 121.362  1.00  0.00     0.047 A 
ATOM      3  C   UNL     1      91.274 122.826 121.414  1.00  0.00     0.021 A 
ATOM      4  C   UNL     1      91.424 121.983 122.495  1.00  0.00     0.002 A 
ATOM      5  C   UNL     1      90.534 122.104 123.534  1.00  0.00     0.001 A 
ATOM      6  C   UNL     1      89.511 123.060 123.479  1.00  0.00     0.008 A 
ATOM      7  C   UNL     1      89.369 123.888 122.408  1.00  0.00     0.006 A 
ENDROOT
BRANCH   7   8
ATOM      8  C   UNL     1      88.260 124.879 122.361  1.00  0.00     0.123 C 
BRANCH   8   9
ATOM      9  C   UNL     1      88.855 126.237 122.512  1.00  0.00    -0.013 A 
ATOM     10  C   UNL     1      88.197 127.413 122.361  1.00  0.00     0.007 A 
ATOM     11  C   UNL     1      90.220 126.248 122.856  1.00  0.00     0.007 A 
ATOM     12  C   UNL     1      88.879 128.602 122.548  1.00  0.00     0.000 A 
ATOM     13  C   UNL     1      90.888 127.430 123.041  1.00  0.00     0.000 A 
ATOM     14  C   UNL     1      90.231 128.628 122.890  1.00  0.00     0.000 A 
ENDBRANCH   8   9
BRANCH   8  15
ATOM     15  C   UNL     1      87.367 124.747 123.543  1.00  0.00    -0.013 A 
ATOM     16  C   UNL     1      87.779 124.984 124.828  1.00  0.00     0.007 A 
ATOM     17  C   UNL     1      86.058 124.393 123.339  1.00  0.00     0.007 A 
ATOM     18  C   UNL     1      86.916 124.875 125.913  1.00  0.00     0.000 A 
ATOM     19  C   UNL     1      85.167 124.277 124.419  1.00  0.00     0.000 A 
ATOM     20  C   UNL     1      85.608 124.519 125.691  1.00  0.00     0.000 A 
ENDBRANCH   8  15
BRANCH   8  21
ATOM     21  N   UNL     1      87.497 124.709 121.160  1.00  0.00    -0.319 N 
ATOM     22  C   UNL     1      87.087 123.520 120.636  1.00  0.00     0.109 A 
ATOM     23  C   UNL     1      87.035 125.666 120.356  1.00  0.00     0.200 A 
ATOM     24  C   UNL     1      86.363 123.761 119.490  1.00  0.00     0.131 A 
ATOM     25  N   UNL     1      86.346 125.081 119.341  1.00  0.00    -0.245 NA
ENDBRANCH   8  21
ENDBRANCH   7   8
TORSDOF 4
ENDMDL
