MODEL 1
REMARK VINA RESULT:      -7.7      0.000      0.000
REMARK SMILES O=c1cc(-c2ccccc2)oc2cc([O-])c(O)c([O-])c12
REMARK SMILES IDX 1 1 2 2 3 3 4 4 11 5 12 6 13 7 14 8 15 9 16 10 18 11 19 12
REMARK SMILES IDX 20 13 5 14 6 15 10 16 7 17 9 18 8 19 17 20
REMARK H PARENT 17 21
ROOT
ATOM      1  O   UNL     1     160.831 155.751 156.204  1.00  0.00    -0.289 OA
ATOM      2  C   UNL     1     161.765 154.914 156.265  1.00  0.00     0.192 A 
ATOM      3  C   UNL     1     162.887 155.108 157.076  1.00  0.00     0.100 A 
ATOM      4  C   UNL     1     163.915 154.208 157.156  1.00  0.00     0.138 A 
ATOM      5  O   UNL     1     163.793 153.125 156.413  1.00  0.00    -0.456 OA
ATOM      6  C   UNL     1     162.771 152.882 155.633  1.00  0.00     0.137 A 
ATOM      7  C   UNL     1     162.705 151.710 154.871  1.00  0.00     0.043 A 
ATOM      8  C   UNL     1     161.632 151.469 154.061  1.00  0.00    -0.063 A 
ATOM      9  O   UNL     1     161.623 150.287 153.326  1.00  0.00    -0.870 OA
ATOM     10  C   UNL     1     160.576 152.349 153.951  1.00  0.00     0.100 A 
ATOM     11  C   UNL     1     160.624 153.497 154.688  1.00  0.00    -0.051 A 
ATOM     12  O   UNL     1     159.574 154.387 154.588  1.00  0.00    -0.869 OA
ATOM     13  C   UNL     1     161.713 153.758 155.520  1.00  0.00     0.060 A 
ENDROOT
BRANCH   4  14
ATOM     14  C   UNL     1     165.069 154.432 158.005  1.00  0.00     0.017 A 
ATOM     15  C   UNL     1     165.444 153.624 159.042  1.00  0.00     0.012 A 
ATOM     16  C   UNL     1     165.870 155.552 157.762  1.00  0.00     0.012 A 
ATOM     17  C   UNL     1     166.576 153.906 159.820  1.00  0.00     0.001 A 
ATOM     18  C   UNL     1     166.984 155.835 158.523  1.00  0.00     0.001 A 
ATOM     19  C   UNL     1     167.352 155.014 159.565  1.00  0.00     0.000 A 
ENDBRANCH   4  14
BRANCH  10  20
ATOM     20  O   UNL     1     159.500 152.053 153.106  1.00  0.00    -0.509 OA
ATOM     21  H   UNL     1     158.555 152.271 153.426  1.00  0.00     0.293 HD
ENDBRANCH  10  20
TORSDOF 2
ENDMDL
MODEL 2
REMARK VINA RESULT:      -7.6      0.153      1.060
REMARK SMILES O=c1cc(-c2ccccc2)oc2cc([O-])c(O)c([O-])c12
REMARK SMILES IDX 1 1 2 2 3 3 4 4 11 5 12 6 13 7 14 8 15 9 16 10 18 11 19 12
REMARK SMILES IDX 20 13 5 14 6 15 10 16 7 17 9 18 8 19 17 20
REMARK H PARENT 17 21
ROOT
ATOM      1  O   UNL     1     160.833 155.734 156.258  1.00  0.00    -0.289 OA
ATOM      2  C   UNL     1     161.774 154.904 156.303  1.00  0.00     0.192 A 
ATOM      3  C   UNL     1     162.897 155.094 157.114  1.00  0.00     0.100 A 
ATOM      4  C   UNL     1     163.933 154.201 157.175  1.00  0.00     0.138 A 
ATOM      5  O   UNL     1     163.818 153.129 156.415  1.00  0.00    -0.456 OA
ATOM      6  C   UNL     1     162.795 152.892 155.634  1.00  0.00     0.137 A 
ATOM      7  C   UNL     1     162.736 151.732 154.852  1.00  0.00     0.043 A 
ATOM      8  C   UNL     1     161.663 151.496 154.041  1.00  0.00    -0.063 A 
ATOM      9  O   UNL     1     161.661 150.326 153.287  1.00  0.00    -0.870 OA
ATOM     10  C   UNL     1     160.599 152.369 153.950  1.00  0.00     0.100 A 
ATOM     11  C   UNL     1     160.640 153.504 154.706  1.00  0.00    -0.051 A 
ATOM     12  O   UNL     1     159.582 154.387 154.625  1.00  0.00    -0.869 OA
ATOM     13  C   UNL     1     161.730 153.760 155.539  1.00  0.00     0.060 A 
ENDROOT
BRANCH   4  14
ATOM     14  C   UNL     1     165.088 154.421 158.025  1.00  0.00     0.017 A 
ATOM     15  C   UNL     1     165.912 155.509 157.957  1.00  0.00     0.012 A 
ATOM     16  C   UNL     1     165.398 153.459 158.992  1.00  0.00     0.012 A 
ATOM     17  C   UNL     1     167.012 155.651 158.815  1.00  0.00     0.001 A 
ATOM     18  C   UNL     1     166.477 153.593 159.838  1.00  0.00     0.001 A 
ATOM     19  C   UNL     1     167.301 154.694 159.760  1.00  0.00     0.000 A 
ENDBRANCH   4  14
BRANCH  10  20
ATOM     20  O   UNL     1     159.523 152.078 153.103  1.00  0.00    -0.509 OA
ATOM     21  H   UNL     1     158.631 151.812 153.523  1.00  0.00     0.293 HD
ENDBRANCH  10  20
TORSDOF 2
ENDMDL
MODEL 3
REMARK VINA RESULT:      -7.3      3.018      7.315
REMARK SMILES O=c1cc(-c2ccccc2)oc2cc([O-])c(O)c([O-])c12
REMARK SMILES IDX 1 1 2 2 3 3 4 4 11 5 12 6 13 7 14 8 15 9 16 10 18 11 19 12
REMARK SMILES IDX 20 13 5 14 6 15 10 16 7 17 9 18 8 19 17 20
REMARK H PARENT 17 21
ROOT
ATOM      1  O   UNL     1     165.619 152.305 159.667  1.00  0.00    -0.289 OA
ATOM      2  C   UNL     1     165.328 153.282 158.935  1.00  0.00     0.192 A 
ATOM      3  C   UNL     1     164.296 153.226 157.993  1.00  0.00     0.100 A 
ATOM      4  C   UNL     1     163.965 154.280 157.185  1.00  0.00     0.138 A 
ATOM      5  O   UNL     1     164.681 155.376 157.342  1.00  0.00    -0.456 OA
ATOM      6  C   UNL     1     165.659 155.495 158.203  1.00  0.00     0.137 A 
ATOM      7  C   UNL     1     166.380 156.689 158.319  1.00  0.00     0.043 A 
ATOM      8  C   UNL     1     167.398 156.800 159.222  1.00  0.00    -0.063 A 
ATOM      9  O   UNL     1     168.080 158.012 159.291  1.00  0.00    -0.870 OA
ATOM     10  C   UNL     1     167.765 155.763 160.054  1.00  0.00     0.100 A 
ATOM     11  C   UNL     1     167.072 154.591 159.955  1.00  0.00    -0.051 A 
ATOM     12  O   UNL     1     167.428 153.545 160.782  1.00  0.00    -0.869 OA
ATOM     13  C   UNL     1     166.029 154.462 159.037  1.00  0.00     0.060 A 
ENDROOT
BRANCH   4  14
ATOM     14  C   UNL     1     162.889 154.197 156.215  1.00  0.00     0.017 A 
ATOM     15  C   UNL     1     162.874 153.357 155.136  1.00  0.00     0.012 A 
ATOM     16  C   UNL     1     161.777 155.028 156.378  1.00  0.00     0.012 A 
ATOM     17  C   UNL     1     161.796 153.334 154.240  1.00  0.00     0.001 A 
ATOM     18  C   UNL     1     160.714 155.009 155.501  1.00  0.00     0.001 A 
ATOM     19  C   UNL     1     160.710 154.160 154.418  1.00  0.00     0.000 A 
ENDBRANCH   4  14
BRANCH  10  20
ATOM     20  O   UNL     1     168.817 155.930 160.963  1.00  0.00    -0.509 OA
ATOM     21  H   UNL     1     169.592 156.543 160.703  1.00  0.00     0.293 HD
ENDBRANCH  10  20
TORSDOF 2
ENDMDL
MODEL 4
REMARK VINA RESULT:      -7.2      3.027      7.335
REMARK SMILES O=c1cc(-c2ccccc2)oc2cc([O-])c(O)c([O-])c12
REMARK SMILES IDX 1 1 2 2 3 3 4 4 11 5 12 6 13 7 14 8 15 9 16 10 18 11 19 12
REMARK SMILES IDX 20 13 5 14 6 15 10 16 7 17 9 18 8 19 17 20
REMARK H PARENT 17 21
ROOT
ATOM      1  O   UNL     1     165.577 152.357 159.666  1.00  0.00    -0.289 OA
ATOM      2  C   UNL     1     165.293 153.340 158.939  1.00  0.00     0.192 A 
ATOM      3  C   UNL     1     164.247 153.305 158.012  1.00  0.00     0.100 A 
ATOM      4  C   UNL     1     163.923 154.366 157.211  1.00  0.00     0.138 A 
ATOM      5  O   UNL     1     164.662 155.448 157.359  1.00  0.00    -0.456 OA
ATOM      6  C   UNL     1     165.654 155.548 158.206  1.00  0.00     0.137 A 
ATOM      7  C   UNL     1     166.398 156.728 158.313  1.00  0.00     0.043 A 
ATOM      8  C   UNL     1     167.431 156.819 159.201  1.00  0.00    -0.063 A 
ATOM      9  O   UNL     1     168.136 158.018 159.262  1.00  0.00    -0.870 OA
ATOM     10  C   UNL     1     167.791 155.774 160.027  1.00  0.00     0.100 A 
ATOM     11  C   UNL     1     167.075 154.615 159.936  1.00  0.00    -0.051 A 
ATOM     12  O   UNL     1     167.423 153.561 160.756  1.00  0.00    -0.869 OA
ATOM     13  C   UNL     1     166.017 154.507 159.033  1.00  0.00     0.060 A 
ENDROOT
BRANCH   4  14
ATOM     14  C   UNL     1     162.832 154.304 156.256  1.00  0.00     0.017 A 
ATOM     15  C   UNL     1     161.729 155.110 156.278  1.00  0.00     0.012 A 
ATOM     16  C   UNL     1     162.897 153.358 155.229  1.00  0.00     0.012 A 
ATOM     17  C   UNL     1     160.713 154.991 155.319  1.00  0.00     0.001 A 
ATOM     18  C   UNL     1     161.902 153.235 154.282  1.00  0.00     0.001 A 
ATOM     19  C   UNL     1     160.795 154.053 154.315  1.00  0.00     0.000 A 
ENDBRANCH   4  14
BRANCH  10  20
ATOM     20  O   UNL     1     168.859 155.920 160.920  1.00  0.00    -0.509 OA
ATOM     21  H   UNL     1     169.257 155.080 161.344  1.00  0.00     0.293 HD
ENDBRANCH  10  20
TORSDOF 2
ENDMDL
MODEL 5
REMARK VINA RESULT:      -6.8      4.092      7.113
REMARK SMILES O=c1cc(-c2ccccc2)oc2cc([O-])c(O)c([O-])c12
REMARK SMILES IDX 1 1 2 2 3 3 4 4 11 5 12 6 13 7 14 8 15 9 16 10 18 11 19 12
REMARK SMILES IDX 20 13 5 14 6 15 10 16 7 17 9 18 8 19 17 20
REMARK H PARENT 17 21
ROOT
ATOM      1  O   UNL     1     161.438 149.341 154.399  1.00  0.00    -0.289 OA
ATOM      2  C   UNL     1     161.774 150.278 153.634  1.00  0.00     0.192 A 
ATOM      3  C   UNL     1     162.396 150.048 152.403  1.00  0.00     0.100 A 
ATOM      4  C   UNL     1     162.769 151.056 151.556  1.00  0.00     0.138 A 
ATOM      5  O   UNL     1     162.508 152.283 151.967  1.00  0.00    -0.456 OA
ATOM      6  C   UNL     1     161.930 152.566 153.105  1.00  0.00     0.137 A 
ATOM      7  C   UNL     1     161.681 153.892 153.480  1.00  0.00     0.043 A 
ATOM      8  C   UNL     1     161.077 154.174 154.672  1.00  0.00    -0.063 A 
ATOM      9  O   UNL     1     160.857 155.511 154.990  1.00  0.00    -0.870 OA
ATOM     10  C   UNL     1     160.685 153.189 155.554  1.00  0.00     0.100 A 
ATOM     11  C   UNL     1     160.919 151.891 155.204  1.00  0.00    -0.051 A 
ATOM     12  O   UNL     1     160.533 150.894 156.077  1.00  0.00    -0.869 OA
ATOM     13  C   UNL     1     161.536 151.586 153.990  1.00  0.00     0.060 A 
ENDROOT
BRANCH   4  14
ATOM     14  C   UNL     1     163.414 150.793 150.283  1.00  0.00     0.017 A 
ATOM     15  C   UNL     1     164.585 150.105 150.129  1.00  0.00     0.012 A 
ATOM     16  C   UNL     1     162.807 151.268 149.117  1.00  0.00     0.012 A 
ATOM     17  C   UNL     1     165.148 149.890 148.863  1.00  0.00     0.001 A 
ATOM     18  C   UNL     1     163.354 151.059 147.869  1.00  0.00     0.001 A 
ATOM     19  C   UNL     1     164.535 150.365 147.726  1.00  0.00     0.000 A 
ENDBRANCH   4  14
BRANCH  10  20
ATOM     20  O   UNL     1     160.069 153.533 156.763  1.00  0.00    -0.509 OA
ATOM     21  H   UNL     1     159.741 152.783 157.373  1.00  0.00     0.293 HD
ENDBRANCH  10  20
TORSDOF 2
ENDMDL
MODEL 6
REMARK VINA RESULT:      -6.7      1.286      2.855
REMARK SMILES O=c1cc(-c2ccccc2)oc2cc([O-])c(O)c([O-])c12
REMARK SMILES IDX 1 1 2 2 3 3 4 4 11 5 12 6 13 7 14 8 15 9 16 10 18 11 19 12
REMARK SMILES IDX 20 13 5 14 6 15 10 16 7 17 9 18 8 19 17 20
REMARK H PARENT 17 21
ROOT
ATOM      1  O   UNL     1     164.087 151.110 156.409  1.00  0.00    -0.289 OA
ATOM      2  C   UNL     1     164.014 152.318 156.740  1.00  0.00     0.192 A 
ATOM      3  C   UNL     1     165.011 152.945 157.494  1.00  0.00     0.100 A 
ATOM      4  C   UNL     1     164.949 154.261 157.866  1.00  0.00     0.138 A 
ATOM      5  O   UNL     1     163.880 154.924 157.469  1.00  0.00    -0.456 OA
ATOM      6  C   UNL     1     162.913 154.398 156.763  1.00  0.00     0.137 A 
ATOM      7  C   UNL     1     161.805 155.160 156.373  1.00  0.00     0.043 A 
ATOM      8  C   UNL     1     160.801 154.599 155.637  1.00  0.00    -0.063 A 
ATOM      9  O   UNL     1     159.724 155.406 155.280  1.00  0.00    -0.870 OA
ATOM     10  C   UNL     1     160.824 153.277 155.241  1.00  0.00     0.100 A 
ATOM     11  C   UNL     1     161.897 152.520 155.612  1.00  0.00    -0.051 A 
ATOM     12  O   UNL     1     161.934 151.196 155.224  1.00  0.00    -0.869 OA
ATOM     13  C   UNL     1     162.930 153.079 156.365  1.00  0.00     0.060 A 
ENDROOT
BRANCH   4  14
ATOM     14  C   UNL     1     165.997 154.889 158.649  1.00  0.00     0.017 A 
ATOM     15  C   UNL     1     166.632 154.309 159.710  1.00  0.00     0.012 A 
ATOM     16  C   UNL     1     166.400 156.183 158.307  1.00  0.00     0.012 A 
ATOM     17  C   UNL     1     167.638 154.981 160.420  1.00  0.00     0.001 A 
ATOM     18  C   UNL     1     167.389 156.849 159.001  1.00  0.00     0.001 A 
ATOM     19  C   UNL     1     168.022 156.255 160.069  1.00  0.00     0.000 A 
ENDBRANCH   4  14
BRANCH  10  20
ATOM     20  O   UNL     1     159.769 152.752 154.486  1.00  0.00    -0.509 OA
ATOM     21  H   UNL     1     159.949 152.488 153.516  1.00  0.00     0.293 HD
ENDBRANCH  10  20
TORSDOF 2
ENDMDL
MODEL 7
REMARK VINA RESULT:      -6.7      5.438      7.704
REMARK SMILES O=c1cc(-c2ccccc2)oc2cc([O-])c(O)c([O-])c12
REMARK SMILES IDX 1 1 2 2 3 3 4 4 11 5 12 6 13 7 14 8 15 9 16 10 18 11 19 12
REMARK SMILES IDX 20 13 5 14 6 15 10 16 7 17 9 18 8 19 17 20
REMARK H PARENT 17 21
ROOT
ATOM      1  O   UNL     1     160.395 150.107 149.533  1.00  0.00    -0.289 OA
ATOM      2  C   UNL     1     161.626 150.166 149.771  1.00  0.00     0.192 A 
ATOM      3  C   UNL     1     162.144 150.016 151.062  1.00  0.00     0.100 A 
ATOM      4  C   UNL     1     163.483 150.078 151.340  1.00  0.00     0.138 A 
ATOM      5  O   UNL     1     164.279 150.290 150.310  1.00  0.00    -0.456 OA
ATOM      6  C   UNL     1     163.860 150.439 149.079  1.00  0.00     0.137 A 
ATOM      7  C   UNL     1     164.760 150.662 148.031  1.00  0.00     0.043 A 
ATOM      8  C   UNL     1     164.309 150.816 146.751  1.00  0.00    -0.063 A 
ATOM      9  O   UNL     1     165.252 151.035 145.750  1.00  0.00    -0.870 OA
ATOM     10  C   UNL     1     162.970 150.761 146.426  1.00  0.00     0.100 A 
ATOM     11  C   UNL     1     162.078 150.544 147.437  1.00  0.00    -0.051 A 
ATOM     12  O   UNL     1     160.735 150.486 147.127  1.00  0.00    -0.869 OA
ATOM     13  C   UNL     1     162.522 150.385 148.750  1.00  0.00     0.060 A 
ENDROOT
BRANCH   4  14
ATOM     14  C   UNL     1     163.996 149.919 152.688  1.00  0.00     0.017 A 
ATOM     15  C   UNL     1     163.350 150.326 153.822  1.00  0.00     0.012 A 
ATOM     16  C   UNL     1     165.240 149.306 152.860  1.00  0.00     0.012 A 
ATOM     17  C   UNL     1     163.911 150.138 155.093  1.00  0.00     0.001 A 
ATOM     18  C   UNL     1     165.797 149.117 154.107  1.00  0.00     0.001 A 
ATOM     19  C   UNL     1     165.138 149.532 155.243  1.00  0.00     0.000 A 
ENDBRANCH   4  14
BRANCH  10  20
ATOM     20  O   UNL     1     162.562 150.925 145.098  1.00  0.00    -0.509 OA
ATOM     21  H   UNL     1     161.664 151.377 144.916  1.00  0.00     0.293 HD
ENDBRANCH  10  20
TORSDOF 2
ENDMDL
MODEL 8
REMARK VINA RESULT:      -6.7      1.266      3.016
REMARK SMILES O=c1cc(-c2ccccc2)oc2cc([O-])c(O)c([O-])c12
REMARK SMILES IDX 1 1 2 2 3 3 4 4 11 5 12 6 13 7 14 8 15 9 16 10 18 11 19 12
REMARK SMILES IDX 20 13 5 14 6 15 10 16 7 17 9 18 8 19 17 20
REMARK H PARENT 17 21
ROOT
ATOM      1  O   UNL     1     164.060 151.178 156.358  1.00  0.00    -0.289 OA
ATOM      2  C   UNL     1     163.978 152.386 156.689  1.00  0.00     0.192 A 
ATOM      3  C   UNL     1     164.978 153.025 157.428  1.00  0.00     0.100 A 
ATOM      4  C   UNL     1     164.907 154.340 157.798  1.00  0.00     0.138 A 
ATOM      5  O   UNL     1     163.825 154.991 157.415  1.00  0.00    -0.456 OA
ATOM      6  C   UNL     1     162.854 154.454 156.723  1.00  0.00     0.137 A 
ATOM      7  C   UNL     1     161.732 155.203 156.349  1.00  0.00     0.043 A 
ATOM      8  C   UNL     1     160.725 154.629 155.626  1.00  0.00    -0.063 A 
ATOM      9  O   UNL     1     159.635 155.424 155.283  1.00  0.00    -0.870 OA
ATOM     10  C   UNL     1     160.757 153.307 155.233  1.00  0.00     0.100 A 
ATOM     11  C   UNL     1     161.844 152.563 155.589  1.00  0.00    -0.051 A 
ATOM     12  O   UNL     1     161.889 151.239 155.203  1.00  0.00    -0.869 OA
ATOM     13  C   UNL     1     162.881 153.134 156.328  1.00  0.00     0.060 A 
ENDROOT
BRANCH   4  14
ATOM     14  C   UNL     1     165.958 154.981 158.566  1.00  0.00     0.017 A 
ATOM     15  C   UNL     1     166.426 156.247 158.345  1.00  0.00     0.012 A 
ATOM     16  C   UNL     1     166.549 154.269 159.614  1.00  0.00     0.012 A 
ATOM     17  C   UNL     1     167.447 156.799 159.131  1.00  0.00     0.001 A 
ATOM     18  C   UNL     1     167.553 154.807 160.391  1.00  0.00     0.001 A 
ATOM     19  C   UNL     1     168.016 156.082 160.158  1.00  0.00     0.000 A 
ENDBRANCH   4  14
BRANCH  10  20
ATOM     20  O   UNL     1     159.697 152.769 154.493  1.00  0.00    -0.509 OA
ATOM     21  H   UNL     1     159.791 152.717 153.477  1.00  0.00     0.293 HD
ENDBRANCH  10  20
TORSDOF 2
ENDMDL
MODEL 9
REMARK VINA RESULT:      -6.7      5.311      7.919
REMARK SMILES O=c1cc(-c2ccccc2)oc2cc([O-])c(O)c([O-])c12
REMARK SMILES IDX 1 1 2 2 3 3 4 4 11 5 12 6 13 7 14 8 15 9 16 10 18 11 19 12
REMARK SMILES IDX 20 13 5 14 6 15 10 16 7 17 9 18 8 19 17 20
REMARK H PARENT 17 21
ROOT
ATOM      1  O   UNL     1     158.483 149.358 149.395  1.00  0.00    -0.289 OA
ATOM      2  C   UNL     1     159.628 149.839 149.575  1.00  0.00     0.192 A 
ATOM      3  C   UNL     1     160.106 150.170 150.847  1.00  0.00     0.100 A 
ATOM      4  C   UNL     1     161.351 150.696 151.062  1.00  0.00     0.138 A 
ATOM      5  O   UNL     1     162.094 150.881 149.989  1.00  0.00    -0.456 OA
ATOM      6  C   UNL     1     161.708 150.594 148.772  1.00  0.00     0.137 A 
ATOM      7  C   UNL     1     162.548 150.816 147.675  1.00  0.00     0.043 A 
ATOM      8  C   UNL     1     162.133 150.512 146.410  1.00  0.00    -0.063 A 
ATOM      9  O   UNL     1     163.012 150.755 145.359  1.00  0.00    -0.870 OA
ATOM     10  C   UNL     1     160.887 149.981 146.148  1.00  0.00     0.100 A 
ATOM     11  C   UNL     1     160.055 149.758 147.207  1.00  0.00    -0.051 A 
ATOM     12  O   UNL     1     158.805 149.226 146.960  1.00  0.00    -0.869 OA
ATOM     13  C   UNL     1     160.464 150.063 148.505  1.00  0.00     0.060 A 
ENDROOT
BRANCH   4  14
ATOM     14  C   UNL     1     161.824 151.030 152.392  1.00  0.00     0.017 A 
ATOM     15  C   UNL     1     162.044 150.126 153.393  1.00  0.00     0.012 A 
ATOM     16  C   UNL     1     162.081 152.372 152.692  1.00  0.00     0.012 A 
ATOM     17  C   UNL     1     162.504 150.526 154.656  1.00  0.00     0.001 A 
ATOM     18  C   UNL     1     162.534 152.772 153.931  1.00  0.00     0.001 A 
ATOM     19  C   UNL     1     162.751 151.851 154.932  1.00  0.00     0.000 A 
ENDBRANCH   4  14
BRANCH  10  20
ATOM     20  O   UNL     1     160.511 149.687 144.832  1.00  0.00    -0.509 OA
ATOM     21  H   UNL     1     159.719 150.191 144.429  1.00  0.00     0.293 HD
ENDBRANCH  10  20
TORSDOF 2
ENDMDL
