MODEL 1
REMARK VINA RESULT:      -4.9      0.000      0.000
REMARK SMILES COc1cc(OC)c2ccc(=O)oc2c1
REMARK SMILES IDX 3 1 4 2 5 3 8 4 9 5 10 6 11 7 12 8 13 9 14 10 15 11 2 12
REMARK SMILES IDX 1 13 6 14 7 15
REMARK H PARENT
ROOT
ATOM      1  C   UNL     1      -5.694   0.579   7.287  1.00  0.00     0.126 A 
ATOM      2  C   UNL     1      -5.547  -0.701   7.786  1.00  0.00     0.093 A 
ATOM      3  C   UNL     1      -6.187  -1.127   8.926  1.00  0.00     0.133 A 
ATOM      4  C   UNL     1      -7.023  -0.250   9.625  1.00  0.00     0.060 A 
ATOM      5  C   UNL     1      -7.683  -0.648  10.778  1.00  0.00     0.023 A 
ATOM      6  C   UNL     1      -8.491   0.257  11.424  1.00  0.00     0.095 A 
ATOM      7  C   UNL     1      -8.596   1.524  10.872  1.00  0.00     0.336 A 
ATOM      8  O   UNL     1      -9.336   2.347  11.466  1.00  0.00    -0.246 OA
ATOM      9  O   UNL     1      -7.957   1.869   9.777  1.00  0.00    -0.422 OA
ATOM     10  C   UNL     1      -7.179   1.025   9.142  1.00  0.00     0.145 A 
ATOM     11  C   UNL     1      -6.520   1.426   7.989  1.00  0.00     0.094 A 
ENDROOT
BRANCH   1  12
ATOM     12  O   UNL     1      -5.050   1.007   6.140  1.00  0.00    -0.496 OA
ATOM     13  C   UNL     1      -3.663   0.767   6.013  1.00  0.00     0.278 C 
ENDBRANCH   1  12
BRANCH   3  14
ATOM     14  O   UNL     1      -6.079  -2.391   9.469  1.00  0.00    -0.496 OA
ATOM     15  C   UNL     1      -6.236  -3.605   8.810  1.00  0.00     0.278 C 
ENDBRANCH   3  14
TORSDOF 2
ENDMDL
MODEL 2
REMARK VINA RESULT:      -4.8      1.351      1.351
REMARK SMILES COc1cc(OC)c2ccc(=O)oc2c1
REMARK SMILES IDX 3 1 4 2 5 3 8 4 9 5 10 6 11 7 12 8 13 9 14 10 15 11 2 12
REMARK SMILES IDX 1 13 6 14 7 15
REMARK H PARENT
ROOT
ATOM      1  C   UNL     1      -7.457   0.068   7.236  1.00  0.00     0.126 A 
ATOM      2  C   UNL     1      -7.076  -1.092   7.885  1.00  0.00     0.093 A 
ATOM      3  C   UNL     1      -7.244  -1.270   9.238  1.00  0.00     0.133 A 
ATOM      4  C   UNL     1      -7.820  -0.254  10.008  1.00  0.00     0.060 A 
ATOM      5  C   UNL     1      -8.004  -0.402  11.376  1.00  0.00     0.023 A 
ATOM      6  C   UNL     1      -8.574   0.629  12.082  1.00  0.00     0.095 A 
ATOM      7  C   UNL     1      -8.934   1.764  11.372  1.00  0.00     0.336 A 
ATOM      8  O   UNL     1      -9.456   2.704  12.023  1.00  0.00    -0.246 OA
ATOM      9  O   UNL     1      -8.747   1.873  10.076  1.00  0.00    -0.422 OA
ATOM     10  C   UNL     1      -8.204   0.903   9.379  1.00  0.00     0.145 A 
ATOM     11  C   UNL     1      -8.021   1.054   8.012  1.00  0.00     0.094 A 
ENDROOT
BRANCH   1  12
ATOM     12  O   UNL     1      -7.287   0.246   5.875  1.00  0.00    -0.496 OA
ATOM     13  C   UNL     1      -5.974   0.268   5.354  1.00  0.00     0.278 C 
ENDBRANCH   1  12
BRANCH   3  14
ATOM     14  O   UNL     1      -6.884  -2.403   9.938  1.00  0.00    -0.496 OA
ATOM     15  C   UNL     1      -6.799  -3.702   9.448  1.00  0.00     0.278 C 
ENDBRANCH   3  14
TORSDOF 2
ENDMDL
MODEL 3
REMARK VINA RESULT:      -4.8      2.150      4.870
REMARK SMILES COc1cc(OC)c2ccc(=O)oc2c1
REMARK SMILES IDX 3 1 4 2 5 3 8 4 9 5 10 6 11 7 12 8 13 9 14 10 15 11 2 12
REMARK SMILES IDX 1 13 6 14 7 15
REMARK H PARENT
ROOT
ATOM      1  C   UNL     1      -7.693   1.054  11.412  1.00  0.00     0.126 A 
ATOM      2  C   UNL     1      -7.171   1.433  10.189  1.00  0.00     0.093 A 
ATOM      3  C   UNL     1      -7.265   0.640   9.070  1.00  0.00     0.133 A 
ATOM      4  C   UNL     1      -7.907  -0.601   9.146  1.00  0.00     0.060 A 
ATOM      5  C   UNL     1      -8.017  -1.424   8.034  1.00  0.00     0.023 A 
ATOM      6  C   UNL     1      -8.658  -2.632   8.168  1.00  0.00     0.095 A 
ATOM      7  C   UNL     1      -9.158  -2.952   9.421  1.00  0.00     0.336 A 
ATOM      8  O   UNL     1      -9.743  -4.059   9.536  1.00  0.00    -0.246 OA
ATOM      9  O   UNL     1      -9.036  -2.149  10.453  1.00  0.00    -0.422 OA
ATOM     10  C   UNL     1      -8.429  -0.991  10.352  1.00  0.00     0.145 A 
ATOM     11  C   UNL     1      -8.320  -0.170  11.465  1.00  0.00     0.094 A 
ENDROOT
BRANCH   1  12
ATOM     12  O   UNL     1      -7.599   1.852  12.538  1.00  0.00    -0.496 OA
ATOM     13  C   UNL     1      -8.789   2.266  13.176  1.00  0.00     0.278 C 
ENDBRANCH   1  12
BRANCH   3  14
ATOM     14  O   UNL     1      -6.765   0.966   7.825  1.00  0.00    -0.496 OA
ATOM     15  C   UNL     1      -7.035   2.111   7.085  1.00  0.00     0.278 C 
ENDBRANCH   3  14
TORSDOF 2
ENDMDL
MODEL 4
REMARK VINA RESULT:      -4.7      1.877      4.429
REMARK SMILES COc1cc(OC)c2ccc(=O)oc2c1
REMARK SMILES IDX 3 1 4 2 5 3 8 4 9 5 10 6 11 7 12 8 13 9 14 10 15 11 2 12
REMARK SMILES IDX 1 13 6 14 7 15
REMARK H PARENT
ROOT
ATOM      1  C   UNL     1      -8.223   0.633  11.344  1.00  0.00     0.126 A 
ATOM      2  C   UNL     1      -8.439  -0.682  10.978  1.00  0.00     0.093 A 
ATOM      3  C   UNL     1      -8.294  -1.122   9.683  1.00  0.00     0.133 A 
ATOM      4  C   UNL     1      -7.914  -0.223   8.681  1.00  0.00     0.060 A 
ATOM      5  C   UNL     1      -7.758  -0.634   7.365  1.00  0.00     0.023 A 
ATOM      6  C   UNL     1      -7.384   0.293   6.422  1.00  0.00     0.095 A 
ATOM      7  C   UNL     1      -7.182   1.595   6.854  1.00  0.00     0.336 A 
ATOM      8  O   UNL     1      -6.840   2.438   5.987  1.00  0.00    -0.246 OA
ATOM      9  O   UNL     1      -7.338   1.952   8.109  1.00  0.00    -0.422 OA
ATOM     10  C   UNL     1      -7.695   1.086   9.028  1.00  0.00     0.145 A 
ATOM     11  C   UNL     1      -7.850   1.500  10.343  1.00  0.00     0.094 A 
ENDROOT
BRANCH   1  12
ATOM     12  O   UNL     1      -8.370   1.074  12.647  1.00  0.00    -0.496 OA
ATOM     13  C   UNL     1      -9.266   2.135  12.905  1.00  0.00     0.278 C 
ENDBRANCH   1  12
BRANCH   3  14
ATOM     14  O   UNL     1      -8.495  -2.420   9.260  1.00  0.00    -0.496 OA
ATOM     15  C   UNL     1      -7.770  -3.546   9.633  1.00  0.00     0.278 C 
ENDBRANCH   3  14
TORSDOF 2
ENDMDL
MODEL 5
REMARK VINA RESULT:      -4.7      1.610      4.537
REMARK SMILES COc1cc(OC)c2ccc(=O)oc2c1
REMARK SMILES IDX 3 1 4 2 5 3 8 4 9 5 10 6 11 7 12 8 13 9 14 10 15 11 2 12
REMARK SMILES IDX 1 13 6 14 7 15
REMARK H PARENT
ROOT
ATOM      1  C   UNL     1      -8.232   0.960  10.909  1.00  0.00     0.126 A 
ATOM      2  C   UNL     1      -8.472  -0.401  10.940  1.00  0.00     0.093 A 
ATOM      3  C   UNL     1      -7.652  -1.309  10.312  1.00  0.00     0.133 A 
ATOM      4  C   UNL     1      -6.527  -0.863   9.610  1.00  0.00     0.060 A 
ATOM      5  C   UNL     1      -5.680  -1.753   8.966  1.00  0.00     0.023 A 
ATOM      6  C   UNL     1      -4.590  -1.258   8.290  1.00  0.00     0.095 A 
ATOM      7  C   UNL     1      -4.407   0.116   8.298  1.00  0.00     0.336 A 
ATOM      8  O   UNL     1      -3.409   0.563   7.678  1.00  0.00    -0.246 OA
ATOM      9  O   UNL     1      -5.229   0.932   8.918  1.00  0.00    -0.422 OA
ATOM     10  C   UNL     1      -6.276   0.485   9.570  1.00  0.00     0.145 A 
ATOM     11  C   UNL     1      -7.122   1.377  10.213  1.00  0.00     0.094 A 
ENDROOT
BRANCH   1  12
ATOM     12  O   UNL     1      -9.059   1.872  11.541  1.00  0.00    -0.496 OA
ATOM     13  C   UNL     1      -8.966   2.011  12.943  1.00  0.00     0.278 C 
ENDBRANCH   1  12
BRANCH   3  14
ATOM     14  O   UNL     1      -7.840  -2.676  10.310  1.00  0.00    -0.496 OA
ATOM     15  C   UNL     1      -8.885  -3.380   9.721  1.00  0.00     0.278 C 
ENDBRANCH   3  14
TORSDOF 2
ENDMDL
MODEL 6
REMARK VINA RESULT:      -4.6      1.510      4.864
REMARK SMILES COc1cc(OC)c2ccc(=O)oc2c1
REMARK SMILES IDX 3 1 4 2 5 3 8 4 9 5 10 6 11 7 12 8 13 9 14 10 15 11 2 12
REMARK SMILES IDX 1 13 6 14 7 15
REMARK H PARENT
ROOT
ATOM      1  C   UNL     1      -8.439   1.277  10.606  1.00  0.00     0.126 A 
ATOM      2  C   UNL     1      -7.837   1.593   9.403  1.00  0.00     0.093 A 
ATOM      3  C   UNL     1      -7.170   0.659   8.645  1.00  0.00     0.133 A 
ATOM      4  C   UNL     1      -7.085  -0.666   9.087  1.00  0.00     0.060 A 
ATOM      5  C   UNL     1      -6.420  -1.632   8.345  1.00  0.00     0.023 A 
ATOM      6  C   UNL     1      -6.368  -2.917   8.829  1.00  0.00     0.095 A 
ATOM      7  C   UNL     1      -6.993  -3.167  10.041  1.00  0.00     0.336 A 
ATOM      8  O   UNL     1      -6.942  -4.344  10.478  1.00  0.00    -0.246 OA
ATOM      9  O   UNL     1      -7.615  -2.229  10.719  1.00  0.00    -0.422 OA
ATOM     10  C   UNL     1      -7.678  -0.994  10.279  1.00  0.00     0.145 A 
ATOM     11  C   UNL     1      -8.344  -0.030  11.023  1.00  0.00     0.094 A 
ENDROOT
BRANCH   1  12
ATOM     12  O   UNL     1      -9.109   2.218  11.368  1.00  0.00    -0.496 OA
ATOM     13  C   UNL     1      -9.185   2.027  12.766  1.00  0.00     0.278 C 
ENDBRANCH   1  12
BRANCH   3  14
ATOM     14  O   UNL     1      -6.552   0.915   7.438  1.00  0.00    -0.496 OA
ATOM     15  C   UNL     1      -6.987   1.774   6.436  1.00  0.00     0.278 C 
ENDBRANCH   3  14
TORSDOF 2
ENDMDL
MODEL 7
REMARK VINA RESULT:      -4.3      8.385     10.107
REMARK SMILES COc1cc(OC)c2ccc(=O)oc2c1
REMARK SMILES IDX 3 1 4 2 5 3 8 4 9 5 10 6 11 7 12 8 13 9 14 10 15 11 2 12
REMARK SMILES IDX 1 13 6 14 7 15
REMARK H PARENT
ROOT
ATOM      1  C   UNL     1      -4.784   2.504  17.048  1.00  0.00     0.126 A 
ATOM      2  C   UNL     1      -3.898   2.756  18.079  1.00  0.00     0.093 A 
ATOM      3  C   UNL     1      -3.248   1.751  18.755  1.00  0.00     0.133 A 
ATOM      4  C   UNL     1      -3.475   0.416  18.406  1.00  0.00     0.060 A 
ATOM      5  C   UNL     1      -2.835  -0.622  19.069  1.00  0.00     0.023 A 
ATOM      6  C   UNL     1      -3.098  -1.914  18.684  1.00  0.00     0.095 A 
ATOM      7  C   UNL     1      -3.995  -2.099  17.644  1.00  0.00     0.336 A 
ATOM      8  O   UNL     1      -4.231  -3.283  17.296  1.00  0.00    -0.246 OA
ATOM      9  O   UNL     1      -4.585  -1.094  17.037  1.00  0.00    -0.422 OA
ATOM     10  C   UNL     1      -4.352   0.149  17.386  1.00  0.00     0.145 A 
ATOM     11  C   UNL     1      -4.993   1.184  16.721  1.00  0.00     0.094 A 
ENDROOT
BRANCH   1  12
ATOM     12  O   UNL     1      -5.438   3.516  16.368  1.00  0.00    -0.496 OA
ATOM     13  C   UNL     1      -5.894   3.264  15.055  1.00  0.00     0.278 C 
ENDBRANCH   1  12
BRANCH   3  14
ATOM     14  O   UNL     1      -2.354   1.942  19.789  1.00  0.00    -0.496 OA
ATOM     15  C   UNL     1      -1.231   2.762  19.788  1.00  0.00     0.278 C 
ENDBRANCH   3  14
TORSDOF 2
ENDMDL
MODEL 8
REMARK VINA RESULT:      -4.3      9.044     10.336
REMARK SMILES COc1cc(OC)c2ccc(=O)oc2c1
REMARK SMILES IDX 3 1 4 2 5 3 8 4 9 5 10 6 11 7 12 8 13 9 14 10 15 11 2 12
REMARK SMILES IDX 1 13 6 14 7 15
REMARK H PARENT
ROOT
ATOM      1  C   UNL     1      -5.080   1.787  16.858  1.00  0.00     0.126 A 
ATOM      2  C   UNL     1      -4.986   0.506  17.369  1.00  0.00     0.093 A 
ATOM      3  C   UNL     1      -4.079   0.167  18.346  1.00  0.00     0.133 A 
ATOM      4  C   UNL     1      -3.209   1.136  18.857  1.00  0.00     0.060 A 
ATOM      5  C   UNL     1      -2.283   0.826  19.843  1.00  0.00     0.023 A 
ATOM      6  C   UNL     1      -1.454   1.818  20.307  1.00  0.00     0.095 A 
ATOM      7  C   UNL     1      -1.600   3.081  19.753  1.00  0.00     0.336 A 
ATOM      8  O   UNL     1      -0.838   3.984  20.181  1.00  0.00    -0.246 OA
ATOM      9  O   UNL     1      -2.487   3.341  18.820  1.00  0.00    -0.422 OA
ATOM     10  C   UNL     1      -3.290   2.412  18.360  1.00  0.00     0.145 A 
ATOM     11  C   UNL     1      -4.215   2.725  17.374  1.00  0.00     0.094 A 
ENDROOT
BRANCH   1  12
ATOM     12  O   UNL     1      -5.992   2.128  15.875  1.00  0.00    -0.496 OA
ATOM     13  C   UNL     1      -5.803   3.335  15.166  1.00  0.00     0.278 C 
ENDBRANCH   1  12
BRANCH   3  14
ATOM     14  O   UNL     1      -3.941  -1.092  18.894  1.00  0.00    -0.496 OA
ATOM     15  C   UNL     1      -4.175  -2.311  18.268  1.00  0.00     0.278 C 
ENDBRANCH   3  14
TORSDOF 2
ENDMDL
MODEL 9
REMARK VINA RESULT:      -4.2      9.149     10.794
REMARK SMILES COc1cc(OC)c2ccc(=O)oc2c1
REMARK SMILES IDX 3 1 4 2 5 3 8 4 9 5 10 6 11 7 12 8 13 9 14 10 15 11 2 12
REMARK SMILES IDX 1 13 6 14 7 15
REMARK H PARENT
ROOT
ATOM      1  C   UNL     1      -4.255  -0.600  17.496  1.00  0.00     0.126 A 
ATOM      2  C   UNL     1      -4.842   0.583  17.089  1.00  0.00     0.093 A 
ATOM      3  C   UNL     1      -4.353   1.814  17.456  1.00  0.00     0.133 A 
ATOM      4  C   UNL     1      -3.219   1.898  18.273  1.00  0.00     0.060 A 
ATOM      5  C   UNL     1      -2.701   3.125  18.661  1.00  0.00     0.023 A 
ATOM      6  C   UNL     1      -1.586   3.147  19.464  1.00  0.00     0.095 A 
ATOM      7  C   UNL     1      -1.046   1.926  19.837  1.00  0.00     0.336 A 
ATOM      8  O   UNL     1      -0.026   1.953  20.572  1.00  0.00    -0.246 OA
ATOM      9  O   UNL     1      -1.562   0.781  19.451  1.00  0.00    -0.422 OA
ATOM     10  C   UNL     1      -2.626   0.733  18.685  1.00  0.00     0.145 A 
ATOM     11  C   UNL     1      -3.142  -0.495  18.298  1.00  0.00     0.094 A 
ENDROOT
BRANCH   1  12
ATOM     12  O   UNL     1      -4.748  -1.839  17.125  1.00  0.00    -0.496 OA
ATOM     13  C   UNL     1      -4.559  -2.932  18.000  1.00  0.00     0.278 C 
ENDBRANCH   1  12
BRANCH   3  14
ATOM     14  O   UNL     1      -4.895   3.026  17.080  1.00  0.00    -0.496 OA
ATOM     15  C   UNL     1      -5.658   3.290  15.949  1.00  0.00     0.278 C 
ENDBRANCH   3  14
TORSDOF 2
ENDMDL
