MODEL 1
REMARK VINA RESULT:      -7.0      0.000      0.000
REMARK SMILES COc1cccc2c1C(=O)c1c(O)c3c(c(O)c1C2=O)C[C@@](O)(C(=O)CO)C[C@@H]3O[C@H]1C[C@H](N)[C@H](O)[C@H](C)O1
REMARK SMILES IDX 3 1 4 2 5 3 6 4 7 5 8 6 9 7 10 8 11 9 12 10 14 11 15 12
REMARK SMILES IDX 16 13 18 14 19 15 20 16 21 17 22 18 28 19 29 20 2 21 1 22
REMARK SMILES IDX 13 23 17 25 30 27 31 28 32 29 39 30 33 31 37 32 35 33 38 34
REMARK SMILES IDX 34 35 36 38 23 40 24 42 25 43 26 44 27 45
REMARK H PARENT 13 24 17 26 34 36 34 37 36 39 23 41 27 46
ROOT
ATOM      1  C   UNL     1     106.668 123.250 109.624  1.00  0.00     0.130 A 
ATOM      2  C   UNL     1     107.642 122.505 109.033  1.00  0.00     0.047 A 
ATOM      3  C   UNL     1     107.768 122.365 107.663  1.00  0.00     0.005 A 
ATOM      4  C   UNL     1     106.857 123.015 106.864  1.00  0.00     0.013 A 
ATOM      5  C   UNL     1     105.849 123.785 107.456  1.00  0.00     0.038 A 
ATOM      6  C   UNL     1     105.753 123.904 108.821  1.00  0.00     0.076 A 
ATOM      7  C   UNL     1     104.681 124.721 109.413  1.00  0.00     0.202 C 
ATOM      8  O   UNL     1     104.620 124.809 110.653  1.00  0.00    -0.288 OA
ATOM      9  C   UNL     1     103.714 125.412 108.569  1.00  0.00     0.080 A 
ATOM     10  C   UNL     1     102.691 126.191 109.109  1.00  0.00     0.133 A 
ATOM     11  C   UNL     1     101.784 126.839 108.330  1.00  0.00     0.031 A 
ATOM     12  C   UNL     1     101.868 126.729 106.928  1.00  0.00     0.008 A 
ATOM     13  C   UNL     1     102.881 125.958 106.413  1.00  0.00     0.131 A 
ATOM     14  C   UNL     1     103.807 125.295 107.193  1.00  0.00     0.080 A 
ATOM     15  C   UNL     1     104.875 124.481 106.621  1.00  0.00     0.198 C 
ATOM     16  O   UNL     1     104.990 124.353 105.376  1.00  0.00    -0.288 OA
ATOM     17  C   UNL     1     100.884 127.434 106.081  1.00  0.00     0.083 C 
ATOM     18  C   UNL     1     100.478 128.787 106.593  1.00  0.00     0.132 C 
ATOM     19  C   UNL     1     100.822 128.980 108.039  1.00  0.00     0.081 C 
ATOM     20  C   UNL     1     100.663 127.690 108.785  1.00  0.00     0.159 C 
ENDROOT
BRANCH   1  21
ATOM     21  O   UNL     1     106.517 123.410 110.994  1.00  0.00    -0.496 OA
ATOM     22  C   UNL     1     106.858 122.450 111.950  1.00  0.00     0.278 C 
ENDBRANCH   1  21
BRANCH  10  23
ATOM     23  O   UNL     1     102.605 126.304 110.482  1.00  0.00    -0.507 OA
ATOM     24  H   UNL     1     103.368 126.036 111.086  1.00  0.00     0.293 HD
ENDBRANCH  10  23
BRANCH  13  25
ATOM     25  O   UNL     1     103.004 125.819 105.038  1.00  0.00    -0.507 OA
ATOM     26  H   UNL     1     102.234 125.949 104.396  1.00  0.00     0.293 HD
ENDBRANCH  13  25
BRANCH  20  27
ATOM     27  O   UNL     1     100.668 127.803 110.140  1.00  0.00    -0.344 OA
BRANCH  27  28
ATOM     28  C   UNL     1     100.166 128.987 110.635  1.00  0.00     0.252 C 
ATOM     29  C   UNL     1      98.820 128.920 111.263  1.00  0.00     0.083 C 
ATOM     30  O   UNL     1     101.078 129.455 111.581  1.00  0.00    -0.347 OA
ATOM     31  C   UNL     1      98.704 130.113 112.206  1.00  0.00     0.087 C 
ATOM     32  C   UNL     1     100.784 129.031 112.870  1.00  0.00     0.148 C 
ATOM     33  C   UNL     1      99.559 129.773 113.417  1.00  0.00     0.160 C 
ATOM     34  C   UNL     1     101.966 129.385 113.749  1.00  0.00     0.041 C 
BRANCH  31  35
ATOM     35  N   UNL     1      99.370 131.222 111.526  1.00  0.00    -0.325 NA
ATOM     36  H   UNL     1      99.869 130.922 110.682  1.00  0.00     0.119 HD
ATOM     37  H   UNL     1      98.751 132.045 111.410  1.00  0.00     0.119 HD
ENDBRANCH  31  35
BRANCH  33  38
ATOM     38  O   UNL     1      99.941 130.943 114.057  1.00  0.00    -0.389 OA
ATOM     39  H   UNL     1     100.772 130.749 114.550  1.00  0.00     0.211 HD
ENDBRANCH  33  38
ENDBRANCH  27  28
ENDBRANCH  20  27
BRANCH  18  40
ATOM     40  O   UNL     1     101.290 129.729 105.892  1.00  0.00    -0.382 OA
ATOM     41  H   UNL     1     101.077 129.708 104.930  1.00  0.00     0.212 HD
ENDBRANCH  18  40
BRANCH  18  42
ATOM     42  C   UNL     1      99.074 129.124 106.253  1.00  0.00     0.190 C 
ATOM     43  O   UNL     1      98.230 128.243 106.254  1.00  0.00    -0.294 OA
BRANCH  42  44
ATOM     44  C   UNL     1      98.602 130.481 105.902  1.00  0.00     0.234 C 
BRANCH  44  45
ATOM     45  O   UNL     1      98.932 130.818 104.581  1.00  0.00    -0.388 OA
ATOM     46  H   UNL     1      98.179 131.248 104.118  1.00  0.00     0.211 HD
ENDBRANCH  44  45
ENDBRANCH  42  44
ENDBRANCH  18  42
TORSDOF 11
ENDMDL
MODEL 2
REMARK VINA RESULT:      -6.8      2.759      7.739
REMARK SMILES COc1cccc2c1C(=O)c1c(O)c3c(c(O)c1C2=O)C[C@@](O)(C(=O)CO)C[C@@H]3O[C@H]1C[C@H](N)[C@H](O)[C@H](C)O1
REMARK SMILES IDX 3 1 4 2 5 3 6 4 7 5 8 6 9 7 10 8 11 9 12 10 14 11 15 12
REMARK SMILES IDX 16 13 18 14 19 15 20 16 21 17 22 18 28 19 29 20 2 21 1 22
REMARK SMILES IDX 13 23 17 25 30 27 31 28 32 29 39 30 33 31 37 32 35 33 38 34
REMARK SMILES IDX 34 35 36 38 23 40 24 42 25 43 26 44 27 45
REMARK H PARENT 13 24 17 26 34 36 34 37 36 39 23 41 27 46
ROOT
ATOM      1  C   UNL     1     100.703 131.253 114.215  1.00  0.00     0.130 A 
ATOM      2  C   UNL     1     100.312 132.475 114.669  1.00  0.00     0.047 A 
ATOM      3  C   UNL     1      99.727 133.435 113.862  1.00  0.00     0.005 A 
ATOM      4  C   UNL     1      99.536 133.130 112.535  1.00  0.00     0.013 A 
ATOM      5  C   UNL     1      99.934 131.877 112.053  1.00  0.00     0.038 A 
ATOM      6  C   UNL     1     100.511 130.946 112.881  1.00  0.00     0.076 A 
ATOM      7  C   UNL     1     100.919 129.637 112.343  1.00  0.00     0.202 C 
ATOM      8  O   UNL     1     101.440 128.816 113.120  1.00  0.00    -0.288 OA
ATOM      9  C   UNL     1     100.718 129.311 110.938  1.00  0.00     0.080 A 
ATOM     10  C   UNL     1     101.096 128.078 110.408  1.00  0.00     0.133 A 
ATOM     11  C   UNL     1     100.913 127.763 109.097  1.00  0.00     0.031 A 
ATOM     12  C   UNL     1     100.322 128.707 108.233  1.00  0.00     0.008 A 
ATOM     13  C   UNL     1      99.955 129.915 108.771  1.00  0.00     0.131 A 
ATOM     14  C   UNL     1     100.136 130.246 110.099  1.00  0.00     0.080 A 
ATOM     15  C   UNL     1      99.737 131.539 110.646  1.00  0.00     0.198 C 
ATOM     16  O   UNL     1      99.207 132.412 109.915  1.00  0.00    -0.288 OA
ATOM     17  C   UNL     1     100.120 128.365 106.810  1.00  0.00     0.083 C 
ATOM     18  C   UNL     1      99.729 126.936 106.562  1.00  0.00     0.132 C 
ATOM     19  C   UNL     1     100.016 126.050 107.736  1.00  0.00     0.081 C 
ATOM     20  C   UNL     1     101.269 126.495 108.425  1.00  0.00     0.159 C 
ENDROOT
BRANCH   1  21
ATOM     21  O   UNL     1     101.292 130.270 114.999  1.00  0.00    -0.496 OA
ATOM     22  C   UNL     1     101.184 130.191 116.389  1.00  0.00     0.278 C 
ENDBRANCH   1  21
BRANCH  10  23
ATOM     23  O   UNL     1     101.674 127.149 111.250  1.00  0.00    -0.507 OA
ATOM     24  H   UNL     1     102.617 126.818 111.109  1.00  0.00     0.293 HD
ENDBRANCH  10  23
BRANCH  13  25
ATOM     25  O   UNL     1      99.369 130.876 107.959  1.00  0.00    -0.507 OA
ATOM     26  H   UNL     1      99.447 131.869 108.131  1.00  0.00     0.293 HD
ENDBRANCH  13  25
BRANCH  20  27
ATOM     27  O   UNL     1     101.782 125.608 109.319  1.00  0.00    -0.344 OA
BRANCH  27  28
ATOM     28  C   UNL     1     102.910 124.935 108.902  1.00  0.00     0.252 C 
ATOM     29  C   UNL     1     102.789 124.171 107.633  1.00  0.00     0.083 C 
ATOM     30  O   UNL     1     103.923 125.883 108.759  1.00  0.00    -0.347 OA
ATOM     31  C   UNL     1     104.198 123.998 107.075  1.00  0.00     0.087 C 
ATOM     32  C   UNL     1     104.004 126.395 107.472  1.00  0.00     0.148 C 
ATOM     33  C   UNL     1     104.593 125.354 106.512  1.00  0.00     0.160 C 
ATOM     34  C   UNL     1     104.954 127.575 107.508  1.00  0.00     0.041 C 
BRANCH  31  35
ATOM     35  N   UNL     1     105.057 123.765 108.236  1.00  0.00    -0.325 NA
ATOM     36  H   UNL     1     105.842 124.423 108.282  1.00  0.00     0.119 HD
ATOM     37  H   UNL     1     104.515 123.653 109.112  1.00  0.00     0.119 HD
ENDBRANCH  31  35
BRANCH  33  38
ATOM     38  O   UNL     1     105.976 125.454 106.471  1.00  0.00    -0.389 OA
ATOM     39  H   UNL     1     106.235 126.186 107.078  1.00  0.00     0.211 HD
ENDBRANCH  33  38
ENDBRANCH  27  28
ENDBRANCH  20  27
BRANCH  18  40
ATOM     40  O   UNL     1      98.306 126.937 106.440  1.00  0.00    -0.382 OA
ATOM     41  H   UNL     1      98.049 126.837 105.493  1.00  0.00     0.212 HD
ENDBRANCH  18  40
BRANCH  18  42
ATOM     42  C   UNL     1     100.249 126.422 105.272  1.00  0.00     0.190 C 
ATOM     43  O   UNL     1     101.434 126.147 105.171  1.00  0.00    -0.294 OA
BRANCH  42  44
ATOM     44  C   UNL     1      99.424 126.210 104.062  1.00  0.00     0.234 C 
BRANCH  44  45
ATOM     45  O   UNL     1      98.526 125.145 104.228  1.00  0.00    -0.388 OA
ATOM     46  H   UNL     1      98.989 124.320 104.491  1.00  0.00     0.211 HD
ENDBRANCH  44  45
ENDBRANCH  42  44
ENDBRANCH  18  42
TORSDOF 11
ENDMDL
MODEL 3
REMARK VINA RESULT:      -6.6      4.615      8.054
REMARK SMILES COc1cccc2c1C(=O)c1c(O)c3c(c(O)c1C2=O)C[C@@](O)(C(=O)CO)C[C@@H]3O[C@H]1C[C@H](N)[C@H](O)[C@H](C)O1
REMARK SMILES IDX 3 1 4 2 5 3 6 4 7 5 8 6 9 7 10 8 11 9 12 10 14 11 15 12
REMARK SMILES IDX 16 13 18 14 19 15 20 16 21 17 22 18 28 19 29 20 2 21 1 22
REMARK SMILES IDX 13 23 17 25 30 27 31 28 32 29 39 30 33 31 37 32 35 33 38 34
REMARK SMILES IDX 34 35 36 38 23 40 24 42 25 43 26 44 27 45
REMARK H PARENT 13 24 17 26 34 36 34 37 36 39 23 41 27 46
ROOT
ATOM      1  C   UNL     1      99.293 129.275 105.095  1.00  0.00     0.130 A 
ATOM      2  C   UNL     1      99.304 128.190 104.274  1.00  0.00     0.047 A 
ATOM      3  C   UNL     1      99.530 126.900 104.721  1.00  0.00     0.005 A 
ATOM      4  C   UNL     1      99.755 126.715 106.064  1.00  0.00     0.013 A 
ATOM      5  C   UNL     1      99.746 127.821 106.922  1.00  0.00     0.038 A 
ATOM      6  C   UNL     1      99.518 129.090 106.445  1.00  0.00     0.076 A 
ATOM      7  C   UNL     1      99.516 130.233 107.373  1.00  0.00     0.202 C 
ATOM      8  O   UNL     1      99.307 131.369 106.911  1.00  0.00    -0.288 OA
ATOM      9  C   UNL     1      99.754 130.040 108.798  1.00  0.00     0.080 A 
ATOM     10  C   UNL     1      99.756 131.109 109.694  1.00  0.00     0.133 A 
ATOM     11  C   UNL     1      99.977 130.939 111.025  1.00  0.00     0.031 A 
ATOM     12  C   UNL     1     100.213 129.646 111.531  1.00  0.00     0.008 A 
ATOM     13  C   UNL     1     100.207 128.605 110.636  1.00  0.00     0.131 A 
ATOM     14  C   UNL     1      99.984 128.764 109.283  1.00  0.00     0.080 A 
ATOM     15  C   UNL     1      99.983 127.641 108.351  1.00  0.00     0.198 C 
ATOM     16  O   UNL     1     100.189 126.469 108.755  1.00  0.00    -0.288 OA
ATOM     17  C   UNL     1     100.451 129.461 112.977  1.00  0.00     0.083 C 
ATOM     18  C   UNL     1      99.628 130.354 113.863  1.00  0.00     0.132 C 
ATOM     19  C   UNL     1      99.047 131.519 113.121  1.00  0.00     0.081 C 
ATOM     20  C   UNL     1     100.002 131.989 112.067  1.00  0.00     0.159 C 
ENDROOT
BRANCH   1  21
ATOM     21  O   UNL     1      99.069 130.579 104.677  1.00  0.00    -0.496 OA
ATOM     22  C   UNL     1      99.264 131.042 103.374  1.00  0.00     0.278 C 
ENDBRANCH   1  21
BRANCH  10  23
ATOM     23  O   UNL     1      99.524 132.378 109.204  1.00  0.00    -0.507 OA
ATOM     24  H   UNL     1     100.270 132.949 108.834  1.00  0.00     0.293 HD
ENDBRANCH  10  23
BRANCH  13  25
ATOM     25  O   UNL     1     100.434 127.312 111.086  1.00  0.00    -0.507 OA
ATOM     26  H   UNL     1      99.691 126.671 111.327  1.00  0.00     0.293 HD
ENDBRANCH  13  25
BRANCH  20  27
ATOM     27  O   UNL     1      99.713 133.204 111.528  1.00  0.00    -0.344 OA
BRANCH  27  28
ATOM     28  C   UNL     1      99.666 134.251 112.423  1.00  0.00     0.252 C 
ATOM     29  C   UNL     1     100.957 134.647 113.042  1.00  0.00     0.083 C 
ATOM     30  O   UNL     1      99.141 135.349 111.740  1.00  0.00    -0.347 OA
ATOM     31  C   UNL     1     100.807 136.091 113.511  1.00  0.00     0.087 C 
ATOM     32  C   UNL     1     100.122 136.150 111.173  1.00  0.00     0.148 C 
ATOM     33  C   UNL     1     100.863 136.945 112.255  1.00  0.00     0.160 C 
ATOM     34  C   UNL     1      99.430 137.145 110.264  1.00  0.00     0.041 C 
BRANCH  31  35
ATOM     35  N   UNL     1      99.444 136.199 114.027  1.00  0.00    -0.325 NA
ATOM     36  H   UNL     1      99.250 135.521 114.772  1.00  0.00     0.119 HD
ATOM     37  H   UNL     1      99.176 137.179 114.233  1.00  0.00     0.119 HD
ENDBRANCH  31  35
BRANCH  33  38
ATOM     38  O   UNL     1     100.229 138.157 112.491  1.00  0.00    -0.389 OA
ATOM     39  H   UNL     1      99.269 137.968 112.603  1.00  0.00     0.211 HD
ENDBRANCH  33  38
ENDBRANCH  27  28
ENDBRANCH  20  27
BRANCH  18  40
ATOM     40  O   UNL     1      98.503 129.575 114.266  1.00  0.00    -0.382 OA
ATOM     41  H   UNL     1      98.296 129.745 115.215  1.00  0.00     0.212 HD
ENDBRANCH  18  40
BRANCH  18  42
ATOM     42  C   UNL     1     100.339 130.723 115.111  1.00  0.00     0.190 C 
ATOM     43  O   UNL     1     101.489 130.350 115.279  1.00  0.00    -0.294 OA
BRANCH  42  44
ATOM     44  C   UNL     1      99.748 131.529 116.202  1.00  0.00     0.234 C 
BRANCH  44  45
ATOM     45  O   UNL     1      98.712 130.841 116.851  1.00  0.00    -0.388 OA
ATOM     46  H   UNL     1      98.665 131.073 117.805  1.00  0.00     0.211 HD
ENDBRANCH  44  45
ENDBRANCH  42  44
ENDBRANCH  18  42
TORSDOF 11
ENDMDL
MODEL 4
REMARK VINA RESULT:      -6.5      2.399      7.780
REMARK SMILES COc1cccc2c1C(=O)c1c(O)c3c(c(O)c1C2=O)C[C@@](O)(C(=O)CO)C[C@@H]3O[C@H]1C[C@H](N)[C@H](O)[C@H](C)O1
REMARK SMILES IDX 3 1 4 2 5 3 6 4 7 5 8 6 9 7 10 8 11 9 12 10 14 11 15 12
REMARK SMILES IDX 16 13 18 14 19 15 20 16 21 17 22 18 28 19 29 20 2 21 1 22
REMARK SMILES IDX 13 23 17 25 30 27 31 28 32 29 39 30 33 31 37 32 35 33 38 34
REMARK SMILES IDX 34 35 36 38 23 40 24 42 25 43 26 44 27 45
REMARK H PARENT 13 24 17 26 34 36 34 37 36 39 23 41 27 46
ROOT
ATOM      1  C   UNL     1     100.679 131.232 114.113  1.00  0.00     0.130 A 
ATOM      2  C   UNL     1     100.194 132.414 114.583  1.00  0.00     0.047 A 
ATOM      3  C   UNL     1      99.486 133.311 113.802  1.00  0.00     0.005 A 
ATOM      4  C   UNL     1      99.266 132.983 112.485  1.00  0.00     0.013 A 
ATOM      5  C   UNL     1      99.758 131.771 111.986  1.00  0.00     0.038 A 
ATOM      6  C   UNL     1     100.457 130.902 112.789  1.00  0.00     0.076 A 
ATOM      7  C   UNL     1     100.962 129.635 112.234  1.00  0.00     0.202 C 
ATOM      8  O   UNL     1     101.592 128.870 112.987  1.00  0.00    -0.288 OA
ATOM      9  C   UNL     1     100.730 129.285 110.839  1.00  0.00     0.080 A 
ATOM     10  C   UNL     1     101.199 128.090 110.293  1.00  0.00     0.133 A 
ATOM     11  C   UNL     1     100.988 127.753 108.993  1.00  0.00     0.031 A 
ATOM     12  C   UNL     1     100.273 128.632 108.155  1.00  0.00     0.008 A 
ATOM     13  C   UNL     1      99.818 129.804 108.708  1.00  0.00     0.131 A 
ATOM     14  C   UNL     1     100.026 130.156 110.027  1.00  0.00     0.080 A 
ATOM     15  C   UNL     1      99.532 131.409 110.591  1.00  0.00     0.198 C 
ATOM     16  O   UNL     1      98.889 132.224 109.883  1.00  0.00    -0.288 OA
ATOM     17  C   UNL     1     100.041 128.267 106.743  1.00  0.00     0.083 C 
ATOM     18  C   UNL     1      99.775 126.806 106.514  1.00  0.00     0.132 C 
ATOM     19  C   UNL     1     100.197 125.957 107.674  1.00  0.00     0.081 C 
ATOM     20  C   UNL     1     101.432 126.521 108.306  1.00  0.00     0.159 C 
ENDROOT
BRANCH   1  21
ATOM     21  O   UNL     1     101.391 130.313 114.870  1.00  0.00    -0.496 OA
ATOM     22  C   UNL     1     101.978 130.586 116.107  1.00  0.00     0.278 C 
ENDBRANCH   1  21
BRANCH  10  23
ATOM     23  O   UNL     1     101.899 127.224 111.110  1.00  0.00    -0.507 OA
ATOM     24  H   UNL     1     101.517 126.891 111.982  1.00  0.00     0.293 HD
ENDBRANCH  10  23
BRANCH  13  25
ATOM     25  O   UNL     1      99.108 130.702 107.923  1.00  0.00    -0.507 OA
ATOM     26  H   UNL     1      98.665 131.531 108.293  1.00  0.00     0.293 HD
ENDBRANCH  13  25
BRANCH  20  27
ATOM     27  O   UNL     1     102.066 125.691 109.177  1.00  0.00    -0.344 OA
BRANCH  27  28
ATOM     28  C   UNL     1     103.439 125.800 109.203  1.00  0.00     0.252 C 
ATOM     29  C   UNL     1     104.169 124.751 109.962  1.00  0.00     0.083 C 
ATOM     30  O   UNL     1     103.876 125.779 107.878  1.00  0.00    -0.347 OA
ATOM     31  C   UNL     1     105.594 124.711 109.419  1.00  0.00     0.087 C 
ATOM     32  C   UNL     1     104.193 124.503 107.435  1.00  0.00     0.148 C 
ATOM     33  C   UNL     1     105.504 124.021 108.067  1.00  0.00     0.160 C 
ATOM     34  C   UNL     1     104.405 124.579 105.937  1.00  0.00     0.041 C 
BRANCH  31  35
ATOM     35  N   UNL     1     105.954 126.102 109.152  1.00  0.00    -0.325 NA
ATOM     36  H   UNL     1     106.969 126.248 109.133  1.00  0.00     0.119 HD
ATOM     37  H   UNL     1     105.431 126.500 108.351  1.00  0.00     0.119 HD
ENDBRANCH  31  35
BRANCH  33  38
ATOM     38  O   UNL     1     106.589 124.392 107.285  1.00  0.00    -0.389 OA
ATOM     39  H   UNL     1     106.780 125.339 107.481  1.00  0.00     0.211 HD
ENDBRANCH  33  38
ENDBRANCH  27  28
ENDBRANCH  20  27
BRANCH  18  40
ATOM     40  O   UNL     1      98.355 126.672 106.455  1.00  0.00    -0.382 OA
ATOM     41  H   UNL     1      97.932 127.562 106.458  1.00  0.00     0.212 HD
ENDBRANCH  18  40
BRANCH  18  42
ATOM     42  C   UNL     1     100.284 126.337 105.202  1.00  0.00     0.190 C 
ATOM     43  O   UNL     1     101.453 126.001 105.097  1.00  0.00    -0.294 OA
BRANCH  42  44
ATOM     44  C   UNL     1      99.466 126.241 103.973  1.00  0.00     0.234 C 
BRANCH  44  45
ATOM     45  O   UNL     1      98.520 125.209 104.060  1.00  0.00    -0.388 OA
ATOM     46  H   UNL     1      97.732 125.484 104.578  1.00  0.00     0.211 HD
ENDBRANCH  44  45
ENDBRANCH  42  44
ENDBRANCH  18  42
TORSDOF 11
ENDMDL
MODEL 5
REMARK VINA RESULT:      -6.4      4.318      7.827
REMARK SMILES COc1cccc2c1C(=O)c1c(O)c3c(c(O)c1C2=O)C[C@@](O)(C(=O)CO)C[C@@H]3O[C@H]1C[C@H](N)[C@H](O)[C@H](C)O1
REMARK SMILES IDX 3 1 4 2 5 3 6 4 7 5 8 6 9 7 10 8 11 9 12 10 14 11 15 12
REMARK SMILES IDX 16 13 18 14 19 15 20 16 21 17 22 18 28 19 29 20 2 21 1 22
REMARK SMILES IDX 13 23 17 25 30 27 31 28 32 29 39 30 33 31 37 32 35 33 38 34
REMARK SMILES IDX 34 35 36 38 23 40 24 42 25 43 26 44 27 45
REMARK H PARENT 13 24 17 26 34 36 34 37 36 39 23 41 27 46
ROOT
ATOM      1  C   UNL     1      99.318 128.905 105.202  1.00  0.00     0.130 A 
ATOM      2  C   UNL     1      99.423 127.808 104.404  1.00  0.00     0.047 A 
ATOM      3  C   UNL     1      99.842 126.571 104.862  1.00  0.00     0.005 A 
ATOM      4  C   UNL     1     100.167 126.454 106.193  1.00  0.00     0.013 A 
ATOM      5  C   UNL     1     100.064 127.574 107.027  1.00  0.00     0.038 A 
ATOM      6  C   UNL     1      99.644 128.788 106.540  1.00  0.00     0.076 A 
ATOM      7  C   UNL     1      99.547 129.947 107.443  1.00  0.00     0.202 C 
ATOM      8  O   UNL     1      99.164 131.033 106.971  1.00  0.00    -0.288 OA
ATOM      9  C   UNL     1      99.890 129.827 108.854  1.00  0.00     0.080 A 
ATOM     10  C   UNL     1      99.805 130.912 109.726  1.00  0.00     0.133 A 
ATOM     11  C   UNL     1     100.123 130.810 111.045  1.00  0.00     0.031 A 
ATOM     12  C   UNL     1     100.555 129.572 111.561  1.00  0.00     0.008 A 
ATOM     13  C   UNL     1     100.633 128.515 110.689  1.00  0.00     0.131 A 
ATOM     14  C   UNL     1     100.313 128.606 109.349  1.00  0.00     0.080 A 
ATOM     15  C   UNL     1     100.405 127.466 108.442  1.00  0.00     0.198 C 
ATOM     16  O   UNL     1     100.785 126.342 108.857  1.00  0.00    -0.288 OA
ATOM     17  C   UNL     1     100.899 129.460 112.994  1.00  0.00     0.083 C 
ATOM     18  C   UNL     1     100.020 130.264 113.909  1.00  0.00     0.132 C 
ATOM     19  C   UNL     1      99.249 131.323 113.181  1.00  0.00     0.081 C 
ATOM     20  C   UNL     1     100.071 131.883 112.061  1.00  0.00     0.159 C 
ENDROOT
BRANCH   1  21
ATOM     21  O   UNL     1      98.901 130.157 104.772  1.00  0.00    -0.496 OA
ATOM     22  C   UNL     1      98.982 130.614 103.456  1.00  0.00     0.278 C 
ENDBRANCH   1  21
BRANCH  10  23
ATOM     23  O   UNL     1      99.381 132.126 109.226  1.00  0.00    -0.507 OA
ATOM     24  H   UNL     1      99.917 132.971 109.357  1.00  0.00     0.293 HD
ENDBRANCH  10  23
BRANCH  13  25
ATOM     25  O   UNL     1     101.053 127.275 111.151  1.00  0.00    -0.507 OA
ATOM     26  H   UNL     1     100.501 126.434 111.061  1.00  0.00     0.293 HD
ENDBRANCH  13  25
BRANCH  20  27
ATOM     27  O   UNL     1      99.595 133.035 111.516  1.00  0.00    -0.344 OA
BRANCH  27  28
ATOM     28  C   UNL     1      99.961 134.192 112.169  1.00  0.00     0.252 C 
ATOM     29  C   UNL     1      99.905 135.444 111.372  1.00  0.00     0.083 C 
ATOM     30  O   UNL     1      99.115 134.324 113.271  1.00  0.00    -0.347 OA
ATOM     31  C   UNL     1      99.782 136.601 112.359  1.00  0.00     0.087 C 
ATOM     32  C   UNL     1      97.986 135.083 112.996  1.00  0.00     0.148 C 
ATOM     33  C   UNL     1      98.349 136.566 112.866  1.00  0.00     0.160 C 
ATOM     34  C   UNL     1      97.042 134.941 114.173  1.00  0.00     0.041 C 
BRANCH  31  35
ATOM     35  N   UNL     1     100.633 136.245 113.493  1.00  0.00    -0.325 NA
ATOM     36  H   UNL     1     101.567 135.936 113.202  1.00  0.00     0.119 HD
ATOM     37  H   UNL     1     100.613 136.960 114.243  1.00  0.00     0.119 HD
ENDBRANCH  31  35
BRANCH  33  38
ATOM     38  O   UNL     1      98.280 137.196 114.101  1.00  0.00    -0.389 OA
ATOM     39  H   UNL     1      97.786 138.039 113.971  1.00  0.00     0.211 HD
ENDBRANCH  33  38
ENDBRANCH  27  28
ENDBRANCH  20  27
BRANCH  18  40
ATOM     40  O   UNL     1      99.031 129.357 114.397  1.00  0.00    -0.382 OA
ATOM     41  H   UNL     1      98.325 129.231 113.721  1.00  0.00     0.212 HD
ENDBRANCH  18  40
BRANCH  18  42
ATOM     42  C   UNL     1     100.748 130.757 115.104  1.00  0.00     0.190 C 
ATOM     43  O   UNL     1     101.946 130.549 115.204  1.00  0.00    -0.294 OA
BRANCH  42  44
ATOM     44  C   UNL     1     100.119 131.500 116.219  1.00  0.00     0.234 C 
BRANCH  44  45
ATOM     45  O   UNL     1      99.087 130.762 116.817  1.00  0.00    -0.388 OA
ATOM     46  H   UNL     1      99.416 129.910 117.180  1.00  0.00     0.211 HD
ENDBRANCH  44  45
ENDBRANCH  42  44
ENDBRANCH  18  42
TORSDOF 11
ENDMDL
MODEL 6
REMARK VINA RESULT:      -5.9      2.563      8.017
REMARK SMILES COc1cccc2c1C(=O)c1c(O)c3c(c(O)c1C2=O)C[C@@](O)(C(=O)CO)C[C@@H]3O[C@H]1C[C@H](N)[C@H](O)[C@H](C)O1
REMARK SMILES IDX 3 1 4 2 5 3 6 4 7 5 8 6 9 7 10 8 11 9 12 10 14 11 15 12
REMARK SMILES IDX 16 13 18 14 19 15 20 16 21 17 22 18 28 19 29 20 2 21 1 22
REMARK SMILES IDX 13 23 17 25 30 27 31 28 32 29 39 30 33 31 37 32 35 33 38 34
REMARK SMILES IDX 34 35 36 38 23 40 24 42 25 43 26 44 27 45
REMARK H PARENT 13 24 17 26 34 36 34 37 36 39 23 41 27 46
ROOT
ATOM      1  C   UNL     1     100.986 131.142 115.362  1.00  0.00     0.130 A 
ATOM      2  C   UNL     1     100.210 131.811 116.258  1.00  0.00     0.047 A 
ATOM      3  C   UNL     1      98.928 132.249 115.976  1.00  0.00     0.005 A 
ATOM      4  C   UNL     1      98.420 131.991 114.724  1.00  0.00     0.013 A 
ATOM      5  C   UNL     1      99.206 131.303 113.792  1.00  0.00     0.038 A 
ATOM      6  C   UNL     1     100.476 130.882 114.104  1.00  0.00     0.076 A 
ATOM      7  C   UNL     1     101.277 130.162 113.101  1.00  0.00     0.202 C 
ATOM      8  O   UNL     1     102.424 129.793 113.414  1.00  0.00    -0.288 OA
ATOM      9  C   UNL     1     100.743 129.886 111.774  1.00  0.00     0.080 A 
ATOM     10  C   UNL     1     101.485 129.206 110.809  1.00  0.00     0.133 A 
ATOM     11  C   UNL     1     100.995 128.944 109.567  1.00  0.00     0.031 A 
ATOM     12  C   UNL     1      99.694 129.369 109.230  1.00  0.00     0.008 A 
ATOM     13  C   UNL     1      98.977 130.037 110.192  1.00  0.00     0.131 A 
ATOM     14  C   UNL     1      99.464 130.309 111.455  1.00  0.00     0.080 A 
ATOM     15  C   UNL     1      98.681 131.022 112.460  1.00  0.00     0.198 C 
ATOM     16  O   UNL     1      97.517 131.420 112.205  1.00  0.00    -0.288 OA
ATOM     17  C   UNL     1      99.161 129.083 107.883  1.00  0.00     0.083 C 
ATOM     18  C   UNL     1      99.562 127.747 107.325  1.00  0.00     0.132 C 
ATOM     19  C   UNL     1     100.734 127.153 108.045  1.00  0.00     0.081 C 
ATOM     20  C   UNL     1     101.682 128.233 108.468  1.00  0.00     0.159 C 
ENDROOT
BRANCH   1  21
ATOM     21  O   UNL     1     102.273 130.690 115.615  1.00  0.00    -0.496 OA
ATOM     22  C   UNL     1     103.260 131.427 116.274  1.00  0.00     0.278 C 
ENDBRANCH   1  21
BRANCH  10  23
ATOM     23  O   UNL     1     102.759 128.786 111.134  1.00  0.00    -0.507 OA
ATOM     24  H   UNL     1     103.579 129.247 110.771  1.00  0.00     0.293 HD
ENDBRANCH  10  23
BRANCH  13  25
ATOM     25  O   UNL     1      97.692 130.475 109.907  1.00  0.00    -0.507 OA
ATOM     26  H   UNL     1      96.955 129.861 109.589  1.00  0.00     0.293 HD
ENDBRANCH  13  25
BRANCH  20  27
ATOM     27  O   UNL     1     102.907 127.800 108.871  1.00  0.00    -0.344 OA
BRANCH  27  28
ATOM     28  C   UNL     1     103.470 126.813 108.091  1.00  0.00     0.252 C 
ATOM     29  C   UNL     1     104.896 127.002 107.718  1.00  0.00     0.083 C 
ATOM     30  O   UNL     1     103.346 125.615 108.795  1.00  0.00    -0.347 OA
ATOM     31  C   UNL     1     105.460 125.625 107.382  1.00  0.00     0.087 C 
ATOM     32  C   UNL     1     104.454 125.336 109.583  1.00  0.00     0.148 C 
ATOM     33  C   UNL     1     105.644 124.914 108.714  1.00  0.00     0.160 C 
ATOM     34  C   UNL     1     104.097 124.164 110.474  1.00  0.00     0.041 C 
BRANCH  31  35
ATOM     35  N   UNL     1     104.389 124.920 106.680  1.00  0.00    -0.325 NA
ATOM     36  H   UNL     1     104.647 123.959 106.432  1.00  0.00     0.119 HD
ATOM     37  H   UNL     1     103.470 125.030 107.146  1.00  0.00     0.119 HD
ENDBRANCH  31  35
BRANCH  33  38
ATOM     38  O   UNL     1     105.638 123.541 108.510  1.00  0.00    -0.389 OA
ATOM     39  H   UNL     1     106.356 123.338 107.866  1.00  0.00     0.211 HD
ENDBRANCH  33  38
ENDBRANCH  27  28
ENDBRANCH  20  27
BRANCH  18  40
ATOM     40  O   UNL     1      98.474 126.865 107.601  1.00  0.00    -0.382 OA
ATOM     41  H   UNL     1      97.911 127.238 108.320  1.00  0.00     0.212 HD
ENDBRANCH  18  40
BRANCH  18  42
ATOM     42  C   UNL     1      99.705 127.770 105.848  1.00  0.00     0.190 C 
ATOM     43  O   UNL     1      99.469 128.800 105.239  1.00  0.00    -0.294 OA
BRANCH  42  44
ATOM     44  C   UNL     1     100.121 126.609 105.031  1.00  0.00     0.234 C 
BRANCH  44  45
ATOM     45  O   UNL     1      99.038 125.764 104.743  1.00  0.00    -0.388 OA
ATOM     46  H   UNL     1      98.821 125.183 105.505  1.00  0.00     0.211 HD
ENDBRANCH  44  45
ENDBRANCH  42  44
ENDBRANCH  18  42
TORSDOF 11
ENDMDL
MODEL 7
REMARK VINA RESULT:      -5.9      3.251      9.203
REMARK SMILES COc1cccc2c1C(=O)c1c(O)c3c(c(O)c1C2=O)C[C@@](O)(C(=O)CO)C[C@@H]3O[C@H]1C[C@H](N)[C@H](O)[C@H](C)O1
REMARK SMILES IDX 3 1 4 2 5 3 6 4 7 5 8 6 9 7 10 8 11 9 12 10 14 11 15 12
REMARK SMILES IDX 16 13 18 14 19 15 20 16 21 17 22 18 28 19 29 20 2 21 1 22
REMARK SMILES IDX 13 23 17 25 30 27 31 28 32 29 39 30 33 31 37 32 35 33 38 34
REMARK SMILES IDX 34 35 36 38 23 40 24 42 25 43 26 44 27 45
REMARK H PARENT 13 24 17 26 34 36 34 37 36 39 23 41 27 46
ROOT
ATOM      1  C   UNL     1      99.833 134.480 114.527  1.00  0.00     0.130 A 
ATOM      2  C   UNL     1     100.088 134.803 115.825  1.00  0.00     0.047 A 
ATOM      3  C   UNL     1     100.640 133.918 116.734  1.00  0.00     0.005 A 
ATOM      4  C   UNL     1     100.944 132.651 116.296  1.00  0.00     0.013 A 
ATOM      5  C   UNL     1     100.688 132.304 114.964  1.00  0.00     0.038 A 
ATOM      6  C   UNL     1     100.139 133.207 114.086  1.00  0.00     0.076 A 
ATOM      7  C   UNL     1      99.881 132.810 112.692  1.00  0.00     0.202 C 
ATOM      8  O   UNL     1      99.382 133.651 111.921  1.00  0.00    -0.288 OA
ATOM      9  C   UNL     1     100.202 131.469 112.224  1.00  0.00     0.080 A 
ATOM     10  C   UNL     1      99.966 131.073 110.907  1.00  0.00     0.133 A 
ATOM     11  C   UNL     1     100.262 129.823 110.461  1.00  0.00     0.031 A 
ATOM     12  C   UNL     1     100.827 128.884 111.348  1.00  0.00     0.008 A 
ATOM     13  C   UNL     1     101.052 129.290 112.640  1.00  0.00     0.131 A 
ATOM     14  C   UNL     1     100.756 130.556 113.104  1.00  0.00     0.080 A 
ATOM     15  C   UNL     1     101.006 130.963 114.484  1.00  0.00     0.198 C 
ATOM     16  O   UNL     1     101.507 130.161 115.311  1.00  0.00    -0.288 OA
ATOM     17  C   UNL     1     101.150 127.527 110.863  1.00  0.00     0.083 C 
ATOM     18  C   UNL     1     101.678 127.477 109.457  1.00  0.00     0.132 C 
ATOM     19  C   UNL     1     101.390 128.732 108.692  1.00  0.00     0.081 C 
ATOM     20  C   UNL     1     100.060 129.291 109.096  1.00  0.00     0.159 C 
ENDROOT
BRANCH   1  21
ATOM     21  O   UNL     1      99.280 135.344 113.592  1.00  0.00    -0.496 OA
ATOM     22  C   UNL     1      98.362 136.354 113.887  1.00  0.00     0.278 C 
ENDBRANCH   1  21
BRANCH  10  23
ATOM     23  O   UNL     1      99.414 131.988 110.034  1.00  0.00    -0.507 OA
ATOM     24  H   UNL     1      99.739 132.077 109.083  1.00  0.00     0.293 HD
ENDBRANCH  10  23
BRANCH  13  25
ATOM     25  O   UNL     1     101.607 128.401 113.550  1.00  0.00    -0.507 OA
ATOM     26  H   UNL     1     101.629 127.401 113.405  1.00  0.00     0.293 HD
ENDBRANCH  13  25
BRANCH  20  27
ATOM     27  O   UNL     1      99.567 130.257 108.275  1.00  0.00    -0.344 OA
BRANCH  27  28
ATOM     28  C   UNL     1      99.421 129.891 106.955  1.00  0.00     0.252 C 
ATOM     29  C   UNL     1      98.319 130.550 106.206  1.00  0.00     0.083 C 
ATOM     30  O   UNL     1     100.629 130.176 106.316  1.00  0.00    -0.347 OA
ATOM     31  C   UNL     1      98.668 130.465 104.724  1.00  0.00     0.087 C 
ATOM     32  C   UNL     1     100.653 131.441 105.748  1.00  0.00     0.148 C 
ATOM     33  C   UNL     1      99.769 131.489 104.495  1.00  0.00     0.160 C 
ATOM     34  C   UNL     1     102.078 131.722 105.316  1.00  0.00     0.041 C 
BRANCH  31  35
ATOM     35  N   UNL     1      99.279 129.150 104.536  1.00  0.00    -0.325 NA
ATOM     36  H   UNL     1      98.587 128.393 104.532  1.00  0.00     0.119 HD
ATOM     37  H   UNL     1      99.960 129.138 103.754  1.00  0.00     0.119 HD
ENDBRANCH  31  35
BRANCH  33  38
ATOM     38  O   UNL     1     100.500 131.139 103.368  1.00  0.00    -0.389 OA
ATOM     39  H   UNL     1     101.266 130.599 103.672  1.00  0.00     0.211 HD
ENDBRANCH  33  38
ENDBRANCH  27  28
ENDBRANCH  20  27
BRANCH  18  40
ATOM     40  O   UNL     1     103.100 127.435 109.576  1.00  0.00    -0.382 OA
ATOM     41  H   UNL     1     103.438 128.301 109.903  1.00  0.00     0.212 HD
ENDBRANCH  18  40
BRANCH  18  42
ATOM     42  C   UNL     1     101.290 126.232 108.750  1.00  0.00     0.190 C 
ATOM     43  O   UNL     1     100.108 125.994 108.561  1.00  0.00    -0.294 OA
BRANCH  42  44
ATOM     44  C   UNL     1     102.248 125.225 108.243  1.00  0.00     0.234 C 
BRANCH  44  45
ATOM     45  O   UNL     1     102.870 124.529 109.290  1.00  0.00    -0.388 OA
ATOM     46  H   UNL     1     103.841 124.681 109.297  1.00  0.00     0.211 HD
ENDBRANCH  44  45
ENDBRANCH  42  44
ENDBRANCH  18  42
TORSDOF 11
ENDMDL
MODEL 8
REMARK VINA RESULT:      -5.9      0.997      1.255
REMARK SMILES COc1cccc2c1C(=O)c1c(O)c3c(c(O)c1C2=O)C[C@@](O)(C(=O)CO)C[C@@H]3O[C@H]1C[C@H](N)[C@H](O)[C@H](C)O1
REMARK SMILES IDX 3 1 4 2 5 3 6 4 7 5 8 6 9 7 10 8 11 9 12 10 14 11 15 12
REMARK SMILES IDX 16 13 18 14 19 15 20 16 21 17 22 18 28 19 29 20 2 21 1 22
REMARK SMILES IDX 13 23 17 25 30 27 31 28 32 29 39 30 33 31 37 32 35 33 38 34
REMARK SMILES IDX 34 35 36 38 23 40 24 42 25 43 26 44 27 45
REMARK H PARENT 13 24 17 26 34 36 34 37 36 39 23 41 27 46
ROOT
ATOM      1  C   UNL     1     106.813 123.156 109.678  1.00  0.00     0.130 A 
ATOM      2  C   UNL     1     107.834 122.470 109.094  1.00  0.00     0.047 A 
ATOM      3  C   UNL     1     108.017 122.400 107.724  1.00  0.00     0.005 A 
ATOM      4  C   UNL     1     107.116 123.058 106.920  1.00  0.00     0.013 A 
ATOM      5  C   UNL     1     106.061 123.767 107.506  1.00  0.00     0.038 A 
ATOM      6  C   UNL     1     105.908 123.818 108.871  1.00  0.00     0.076 A 
ATOM      7  C   UNL     1     104.787 124.572 109.456  1.00  0.00     0.202 C 
ATOM      8  O   UNL     1     104.676 124.598 110.695  1.00  0.00    -0.288 OA
ATOM      9  C   UNL     1     103.832 125.271 108.607  1.00  0.00     0.080 A 
ATOM     10  C   UNL     1     102.763 125.991 109.141  1.00  0.00     0.133 A 
ATOM     11  C   UNL     1     101.866 126.646 108.356  1.00  0.00     0.031 A 
ATOM     12  C   UNL     1     102.007 126.605 106.955  1.00  0.00     0.008 A 
ATOM     13  C   UNL     1     103.065 125.892 106.446  1.00  0.00     0.131 A 
ATOM     14  C   UNL     1     103.982 125.223 107.232  1.00  0.00     0.080 A 
ATOM     15  C   UNL     1     105.098 124.471 106.666  1.00  0.00     0.198 C 
ATOM     16  O   UNL     1     105.265 124.405 105.422  1.00  0.00    -0.288 OA
ATOM     17  C   UNL     1     101.034 127.318 106.103  1.00  0.00     0.083 C 
ATOM     18  C   UNL     1     100.564 128.632 106.661  1.00  0.00     0.132 C 
ATOM     19  C   UNL     1     100.845 128.767 108.126  1.00  0.00     0.081 C 
ATOM     20  C   UNL     1     100.701 127.439 108.805  1.00  0.00     0.159 C 
ENDROOT
BRANCH   1  21
ATOM     21  O   UNL     1     106.604 123.245 111.048  1.00  0.00    -0.496 OA
ATOM     22  C   UNL     1     106.954 122.259 111.972  1.00  0.00     0.278 C 
ENDBRANCH   1  21
BRANCH  10  23
ATOM     23  O   UNL     1     102.620 126.036 110.513  1.00  0.00    -0.507 OA
ATOM     24  H   UNL     1     103.352 126.388 111.112  1.00  0.00     0.293 HD
ENDBRANCH  10  23
BRANCH  13  25
ATOM     25  O   UNL     1     103.246 125.823 105.072  1.00  0.00    -0.507 OA
ATOM     26  H   UNL     1     104.154 125.739 104.637  1.00  0.00     0.293 HD
ENDBRANCH  13  25
BRANCH  20  27
ATOM     27  O   UNL     1     100.650 127.488 110.163  1.00  0.00    -0.344 OA
BRANCH  27  28
ATOM     28  C   UNL     1     100.522 128.749 110.704  1.00  0.00     0.252 C 
ATOM     29  C   UNL     1     100.070 129.820 109.778  1.00  0.00     0.083 C 
ATOM     30  O   UNL     1      99.611 128.653 111.756  1.00  0.00    -0.347 OA
ATOM     31  C   UNL     1      99.466 130.929 110.634  1.00  0.00     0.087 C 
ATOM     32  C   UNL     1      98.306 128.915 111.364  1.00  0.00     0.148 C 
ATOM     33  C   UNL     1      98.112 130.411 111.092  1.00  0.00     0.160 C 
ATOM     34  C   UNL     1      97.398 128.535 112.516  1.00  0.00     0.041 C 
BRANCH  31  35
ATOM     35  N   UNL     1     100.306 131.010 111.827  1.00  0.00    -0.325 NA
ATOM     36  H   UNL     1     100.761 131.923 111.927  1.00  0.00     0.119 HD
ATOM     37  H   UNL     1      99.825 130.655 112.674  1.00  0.00     0.119 HD
ENDBRANCH  31  35
BRANCH  33  38
ATOM     38  O   UNL     1      97.732 131.073 112.251  1.00  0.00    -0.389 OA
ATOM     39  H   UNL     1      97.225 130.431 112.802  1.00  0.00     0.211 HD
ENDBRANCH  33  38
ENDBRANCH  27  28
ENDBRANCH  20  27
BRANCH  18  40
ATOM     40  O   UNL     1     101.370 129.632 106.037  1.00  0.00    -0.382 OA
ATOM     41  H   UNL     1     101.537 130.372 106.666  1.00  0.00     0.212 HD
ENDBRANCH  18  40
BRANCH  18  42
ATOM     42  C   UNL     1      99.164 128.940 106.280  1.00  0.00     0.190 C 
ATOM     43  O   UNL     1      98.342 128.040 106.240  1.00  0.00    -0.294 OA
BRANCH  42  44
ATOM     44  C   UNL     1      98.670 130.291 105.934  1.00  0.00     0.234 C 
BRANCH  44  45
ATOM     45  O   UNL     1      99.088 130.684 104.654  1.00  0.00    -0.388 OA
ATOM     46  H   UNL     1      98.687 131.540 104.390  1.00  0.00     0.211 HD
ENDBRANCH  44  45
ENDBRANCH  42  44
ENDBRANCH  18  42
TORSDOF 11
ENDMDL
MODEL 9
REMARK VINA RESULT:      -5.8      2.812      7.938
REMARK SMILES COc1cccc2c1C(=O)c1c(O)c3c(c(O)c1C2=O)C[C@@](O)(C(=O)CO)C[C@@H]3O[C@H]1C[C@H](N)[C@H](O)[C@H](C)O1
REMARK SMILES IDX 3 1 4 2 5 3 6 4 7 5 8 6 9 7 10 8 11 9 12 10 14 11 15 12
REMARK SMILES IDX 16 13 18 14 19 15 20 16 21 17 22 18 28 19 29 20 2 21 1 22
REMARK SMILES IDX 13 23 17 25 30 27 31 28 32 29 39 30 33 31 37 32 35 33 38 34
REMARK SMILES IDX 34 35 36 38 23 40 24 42 25 43 26 44 27 45
REMARK H PARENT 13 24 17 26 34 36 34 37 36 39 23 41 27 46
ROOT
ATOM      1  C   UNL     1     100.645 131.395 115.216  1.00  0.00     0.130 A 
ATOM      2  C   UNL     1     100.318 132.591 115.777  1.00  0.00     0.047 A 
ATOM      3  C   UNL     1      99.811 133.657 115.055  1.00  0.00     0.005 A 
ATOM      4  C   UNL     1      99.635 133.491 113.702  1.00  0.00     0.013 A 
ATOM      5  C   UNL     1      99.967 132.267 113.110  1.00  0.00     0.038 A 
ATOM      6  C   UNL     1     100.467 131.228 113.856  1.00  0.00     0.076 A 
ATOM      7  C   UNL     1     100.808 129.953 113.203  1.00  0.00     0.202 C 
ATOM      8  O   UNL     1     101.260 129.031 113.907  1.00  0.00    -0.288 OA
ATOM      9  C   UNL     1     100.622 129.774 111.769  1.00  0.00     0.080 A 
ATOM     10  C   UNL     1     100.938 128.575 111.131  1.00  0.00     0.133 A 
ATOM     11  C   UNL     1     100.768 128.398 109.793  1.00  0.00     0.031 A 
ATOM     12  C   UNL     1     100.256 129.453 109.012  1.00  0.00     0.008 A 
ATOM     13  C   UNL     1      99.950 130.626 109.656  1.00  0.00     0.131 A 
ATOM     14  C   UNL     1     100.118 130.818 111.013  1.00  0.00     0.080 A 
ATOM     15  C   UNL     1      99.785 132.076 111.674  1.00  0.00     0.198 C 
ATOM     16  O   UNL     1      99.326 133.045 111.020  1.00  0.00    -0.288 OA
ATOM     17  C   UNL     1     100.069 129.261 107.560  1.00  0.00     0.083 C 
ATOM     18  C   UNL     1      99.597 127.888 107.169  1.00  0.00     0.132 C 
ATOM     19  C   UNL     1      99.802 126.880 108.258  1.00  0.00     0.081 C 
ATOM     20  C   UNL     1     101.063 127.179 109.009  1.00  0.00     0.159 C 
ENDROOT
BRANCH   1  21
ATOM     21  O   UNL     1     101.154 130.308 115.913  1.00  0.00    -0.496 OA
ATOM     22  C   UNL     1     101.012 130.107 117.288  1.00  0.00     0.278 C 
ENDBRANCH   1  21
BRANCH  10  23
ATOM     23  O   UNL     1     101.439 127.537 111.891  1.00  0.00    -0.507 OA
ATOM     24  H   UNL     1     101.401 127.551 112.899  1.00  0.00     0.293 HD
ENDBRANCH  10  23
BRANCH  13  25
ATOM     25  O   UNL     1      99.442 131.694 108.930  1.00  0.00    -0.507 OA
ATOM     26  H   UNL     1      99.189 132.578 109.348  1.00  0.00     0.293 HD
ENDBRANCH  13  25
BRANCH  20  27
ATOM     27  O   UNL     1     101.500 126.181 109.824  1.00  0.00    -0.344 OA
BRANCH  27  28
ATOM     28  C   UNL     1     102.580 125.466 109.354  1.00  0.00     0.252 C 
ATOM     29  C   UNL     1     102.337 124.614 108.160  1.00  0.00     0.083 C 
ATOM     30  O   UNL     1     103.580 126.390 109.048  1.00  0.00    -0.347 OA
ATOM     31  C   UNL     1     103.688 124.385 107.489  1.00  0.00     0.087 C 
ATOM     32  C   UNL     1     103.544 126.806 107.725  1.00  0.00     0.148 C 
ATOM     33  C   UNL     1     104.035 125.692 106.793  1.00  0.00     0.160 C 
ATOM     34  C   UNL     1     104.498 127.975 107.587  1.00  0.00     0.041 C 
BRANCH  31  35
ATOM     35  N   UNL     1     104.650 124.227 108.578  1.00  0.00    -0.325 NA
ATOM     36  H   UNL     1     104.255 123.726 109.381  1.00  0.00     0.119 HD
ATOM     37  H   UNL     1     105.570 123.884 108.247  1.00  0.00     0.119 HD
ENDBRANCH  31  35
BRANCH  33  38
ATOM     38  O   UNL     1     105.409 125.772 106.617  1.00  0.00    -0.389 OA
ATOM     39  H   UNL     1     105.800 124.946 106.987  1.00  0.00     0.211 HD
ENDBRANCH  33  38
ENDBRANCH  27  28
ENDBRANCH  20  27
BRANCH  18  40
ATOM     40  O   UNL     1      98.181 127.989 107.021  1.00  0.00    -0.382 OA
ATOM     41  H   UNL     1      97.839 127.219 106.510  1.00  0.00     0.212 HD
ENDBRANCH  18  40
BRANCH  18  42
ATOM     42  C   UNL     1     100.117 127.467 105.845  1.00  0.00     0.190 C 
ATOM     43  O   UNL     1     100.288 128.304 104.974  1.00  0.00    -0.294 OA
BRANCH  42  44
ATOM     44  C   UNL     1     100.455 126.072 105.486  1.00  0.00     0.234 C 
BRANCH  44  45
ATOM     45  O   UNL     1      99.636 125.591 104.453  1.00  0.00    -0.388 OA
ATOM     46  H   UNL     1     100.143 125.038 103.818  1.00  0.00     0.211 HD
ENDBRANCH  44  45
ENDBRANCH  42  44
ENDBRANCH  18  42
TORSDOF 11
ENDMDL
