MODEL 1
REMARK VINA RESULT:      -9.3      0.000      0.000
REMARK SMILES CC/C(=C(\c1ccccc1)c1ccc(OCC[NH+](C)C)cc1)c1ccccc1
REMARK SMILES IDX 15 1 14 2 11 3 12 4 22 5 13 6 21 7 4 8 3 9 2 10 1 11 23 12
REMARK SMILES IDX 24 13 28 14 25 15 27 16 26 17 5 18 6 19 10 20 7 21 9 22 8 23
REMARK SMILES IDX 16 24 17 25 18 26 19 27 20 28
REMARK H PARENT 18 29
ROOT
ATOM      1  O   UNL     1      98.721 129.145 111.213  1.00  0.00    -0.488 OA
ENDROOT
BRANCH   1   2
ATOM      2  C   UNL     1      99.622 128.397 110.477  1.00  0.00     0.119 A 
ATOM      3  C   UNL     1     101.569 126.920 108.998  1.00  0.00    -0.017 A 
ATOM      4  C   UNL     1     100.239 126.552 109.019  1.00  0.00     0.012 A 
ATOM      5  C   UNL     1     101.898 128.052 109.738  1.00  0.00     0.012 A 
ATOM      6  C   UNL     1      99.306 127.279 109.742  1.00  0.00     0.047 A 
ATOM      7  C   UNL     1     100.975 128.768 110.452  1.00  0.00     0.047 A 
BRANCH   3   8
ATOM      8  C   UNL     1     102.564 126.192 108.231  1.00  0.00    -0.007 C 
ATOM      9  C   UNL     1     102.444 125.971 106.948  1.00  0.00    -0.033 C 
BRANCH   9  10
ATOM     10  C   UNL     1     103.408 125.192 106.123  1.00  0.00     0.033 C 
ATOM     11  C   UNL     1     103.218 123.730 106.406  1.00  0.00     0.009 C 
ENDBRANCH   9  10
BRANCH   9  12
ATOM     12  C   UNL     1     101.332 126.557 106.177  1.00  0.00    -0.022 A 
ATOM     13  C   UNL     1     100.527 125.795 105.370  1.00  0.00     0.008 A 
ATOM     14  C   UNL     1     101.118 127.898 106.274  1.00  0.00     0.008 A 
ATOM     15  C   UNL     1      99.511 126.391 104.666  1.00  0.00     0.001 A 
ATOM     16  C   UNL     1     100.096 128.546 105.574  1.00  0.00     0.001 A 
ATOM     17  C   UNL     1      99.304 127.756 104.773  1.00  0.00     0.000 A 
ENDBRANCH   9  12
BRANCH   8  18
ATOM     18  C   UNL     1     103.713 125.665 108.939  1.00  0.00    -0.018 A 
ATOM     19  C   UNL     1     104.997 126.113 108.698  1.00  0.00     0.009 A 
ATOM     20  C   UNL     1     103.537 124.637 109.861  1.00  0.00     0.009 A 
ATOM     21  C   UNL     1     106.046 125.537 109.368  1.00  0.00     0.001 A 
ATOM     22  C   UNL     1     104.578 124.050 110.542  1.00  0.00     0.001 A 
ATOM     23  C   UNL     1     105.862 124.519 110.283  1.00  0.00     0.000 A 
ENDBRANCH   8  18
ENDBRANCH   3   8
ENDBRANCH   1   2
BRANCH   1  24
ATOM     24  C   UNL     1      98.353 130.468 111.044  1.00  0.00     0.290 C 
BRANCH  24  25
ATOM     25  C   UNL     1      98.458 131.339 112.269  1.00  0.00     0.303 C 
BRANCH  25  26
ATOM     26  N   UNL     1      99.396 130.841 113.228  1.00  0.00    -0.337 N 
ATOM     27  C   UNL     1      98.834 130.681 114.552  1.00  0.00     0.332 C 
ATOM     28  C   UNL     1     100.567 131.683 113.361  1.00  0.00     0.332 C 
ATOM     29  H   UNL     1      99.766 129.884 112.948  1.00  0.00     0.347 HD
ENDBRANCH  25  26
ENDBRANCH  24  25
ENDBRANCH   1  24
TORSDOF 8
ENDMDL
MODEL 2
REMARK VINA RESULT:      -9.3      0.601      1.106
REMARK SMILES CC/C(=C(\c1ccccc1)c1ccc(OCC[NH+](C)C)cc1)c1ccccc1
REMARK SMILES IDX 15 1 14 2 11 3 12 4 22 5 13 6 21 7 4 8 3 9 2 10 1 11 23 12
REMARK SMILES IDX 24 13 28 14 25 15 27 16 26 17 5 18 6 19 10 20 7 21 9 22 8 23
REMARK SMILES IDX 16 24 17 25 18 26 19 27 20 28
REMARK H PARENT 18 29
ROOT
ATOM      1  O   UNL     1      98.588 129.027 111.173  1.00  0.00    -0.488 OA
ENDROOT
BRANCH   1   2
ATOM      2  C   UNL     1      99.574 128.372 110.458  1.00  0.00     0.119 A 
ATOM      3  C   UNL     1     101.528 126.947 108.939  1.00  0.00    -0.017 A 
ATOM      4  C   UNL     1     101.852 128.078 109.662  1.00  0.00     0.012 A 
ATOM      5  C   UNL     1     100.197 126.548 108.999  1.00  0.00     0.012 A 
ATOM      6  C   UNL     1     100.892 128.759 110.394  1.00  0.00     0.047 A 
ATOM      7  C   UNL     1      99.250 127.223 109.722  1.00  0.00     0.047 A 
BRANCH   3   8
ATOM      8  C   UNL     1     102.517 126.200 108.182  1.00  0.00    -0.007 C 
ATOM      9  C   UNL     1     102.391 125.954 106.904  1.00  0.00    -0.033 C 
BRANCH   9  10
ATOM     10  C   UNL     1     103.349 125.155 106.091  1.00  0.00     0.033 C 
ATOM     11  C   UNL     1     103.179 123.703 106.430  1.00  0.00     0.009 C 
ENDBRANCH   9  10
BRANCH   9  12
ATOM     12  C   UNL     1     101.280 126.530 106.126  1.00  0.00    -0.022 A 
ATOM     13  C   UNL     1     100.449 125.754 105.359  1.00  0.00     0.008 A 
ATOM     14  C   UNL     1     101.092 127.878 106.173  1.00  0.00     0.008 A 
ATOM     15  C   UNL     1      99.435 126.341 104.646  1.00  0.00     0.001 A 
ATOM     16  C   UNL     1     100.072 128.518 105.462  1.00  0.00     0.001 A 
ATOM     17  C   UNL     1      99.255 127.713 104.703  1.00  0.00     0.000 A 
ENDBRANCH   9  12
BRANCH   8  18
ATOM     18  C   UNL     1     103.666 125.680 108.896  1.00  0.00    -0.018 A 
ATOM     19  C   UNL     1     104.950 126.125 108.651  1.00  0.00     0.009 A 
ATOM     20  C   UNL     1     103.489 124.664 109.831  1.00  0.00     0.009 A 
ATOM     21  C   UNL     1     105.998 125.557 109.328  1.00  0.00     0.001 A 
ATOM     22  C   UNL     1     104.529 124.084 110.519  1.00  0.00     0.001 A 
ATOM     23  C   UNL     1     105.814 124.549 110.255  1.00  0.00     0.000 A 
ENDBRANCH   8  18
ENDBRANCH   3   8
ENDBRANCH   1   2
BRANCH   1  24
ATOM     24  C   UNL     1      98.685 130.193 111.913  1.00  0.00     0.290 C 
BRANCH  24  25
ATOM     25  C   UNL     1      98.983 130.015 113.378  1.00  0.00     0.303 C 
BRANCH  25  26
ATOM     26  N   UNL     1      99.001 131.252 114.098  1.00  0.00    -0.337 N 
ATOM     27  C   UNL     1      98.443 131.152 115.429  1.00  0.00     0.332 C 
ATOM     28  C   UNL     1      98.287 132.312 113.415  1.00  0.00     0.332 C 
ATOM     29  H   UNL     1      99.994 131.614 114.221  1.00  0.00     0.347 HD
ENDBRANCH  25  26
ENDBRANCH  24  25
ENDBRANCH   1  24
TORSDOF 8
ENDMDL
MODEL 3
REMARK VINA RESULT:      -9.2      0.510      1.449
REMARK SMILES CC/C(=C(\c1ccccc1)c1ccc(OCC[NH+](C)C)cc1)c1ccccc1
REMARK SMILES IDX 15 1 14 2 11 3 12 4 22 5 13 6 21 7 4 8 3 9 2 10 1 11 23 12
REMARK SMILES IDX 24 13 28 14 25 15 27 16 26 17 5 18 6 19 10 20 7 21 9 22 8 23
REMARK SMILES IDX 16 24 17 25 18 26 19 27 20 28
REMARK H PARENT 18 29
ROOT
ATOM      1  O   UNL     1      98.503 129.060 111.132  1.00  0.00    -0.488 OA
ENDROOT
BRANCH   1   2
ATOM      2  C   UNL     1      99.493 128.398 110.429  1.00  0.00     0.119 A 
ATOM      3  C   UNL     1     101.455 126.958 108.935  1.00  0.00    -0.017 A 
ATOM      4  C   UNL     1     101.776 128.093 109.654  1.00  0.00     0.012 A 
ATOM      5  C   UNL     1     100.122 126.563 108.986  1.00  0.00     0.012 A 
ATOM      6  C   UNL     1     100.813 128.781 110.374  1.00  0.00     0.047 A 
ATOM      7  C   UNL     1      99.172 127.245 109.698  1.00  0.00     0.047 A 
BRANCH   3   8
ATOM      8  C   UNL     1     102.449 126.203 108.191  1.00  0.00    -0.007 C 
ATOM      9  C   UNL     1     102.343 125.968 106.909  1.00  0.00    -0.033 C 
BRANCH   9  10
ATOM     10  C   UNL     1     103.305 125.162 106.108  1.00  0.00     0.033 C 
ATOM     11  C   UNL     1     103.154 123.716 106.480  1.00  0.00     0.009 C 
ENDBRANCH   9  10
BRANCH   9  12
ATOM     12  C   UNL     1     101.252 126.563 106.115  1.00  0.00    -0.022 A 
ATOM     13  C   UNL     1     100.995 127.910 106.129  1.00  0.00     0.008 A 
ATOM     14  C   UNL     1     100.481 125.735 105.358  1.00  0.00     0.008 A 
ATOM     15  C   UNL     1      99.961 128.412 105.380  1.00  0.00     0.001 A 
ATOM     16  C   UNL     1      99.418 126.203 104.581  1.00  0.00     0.001 A 
ATOM     17  C   UNL     1      99.183 127.559 104.614  1.00  0.00     0.000 A 
ENDBRANCH   9  12
BRANCH   8  18
ATOM     18  C   UNL     1     103.578 125.665 108.922  1.00  0.00    -0.018 A 
ATOM     19  C   UNL     1     104.873 126.083 108.690  1.00  0.00     0.009 A 
ATOM     20  C   UNL     1     103.370 124.657 109.859  1.00  0.00     0.009 A 
ATOM     21  C   UNL     1     105.902 125.498 109.383  1.00  0.00     0.001 A 
ATOM     22  C   UNL     1     104.389 124.060 110.563  1.00  0.00     0.001 A 
ATOM     23  C   UNL     1     105.686 124.499 110.313  1.00  0.00     0.000 A 
ENDBRANCH   8  18
ENDBRANCH   3   8
ENDBRANCH   1   2
BRANCH   1  24
ATOM     24  C   UNL     1      98.359 130.419 111.352  1.00  0.00     0.290 C 
BRANCH  24  25
ATOM     25  C   UNL     1      99.162 130.985 112.494  1.00  0.00     0.303 C 
BRANCH  25  26
ATOM     26  N   UNL     1      98.354 131.342 113.621  1.00  0.00    -0.337 N 
ATOM     27  C   UNL     1      98.019 132.749 113.666  1.00  0.00     0.332 C 
ATOM     28  C   UNL     1      98.976 131.011 114.887  1.00  0.00     0.332 C 
ATOM     29  H   UNL     1      97.428 130.819 113.615  1.00  0.00     0.347 HD
ENDBRANCH  25  26
ENDBRANCH  24  25
ENDBRANCH   1  24
TORSDOF 8
ENDMDL
MODEL 4
REMARK VINA RESULT:      -9.2      0.539      1.508
REMARK SMILES CC/C(=C(\c1ccccc1)c1ccc(OCC[NH+](C)C)cc1)c1ccccc1
REMARK SMILES IDX 15 1 14 2 11 3 12 4 22 5 13 6 21 7 4 8 3 9 2 10 1 11 23 12
REMARK SMILES IDX 24 13 28 14 25 15 27 16 26 17 5 18 6 19 10 20 7 21 9 22 8 23
REMARK SMILES IDX 16 24 17 25 18 26 19 27 20 28
REMARK H PARENT 18 29
ROOT
ATOM      1  O   UNL     1      98.728 129.197 111.132  1.00  0.00    -0.488 OA
ENDROOT
BRANCH   1   2
ATOM      2  C   UNL     1      99.611 128.419 110.407  1.00  0.00     0.119 A 
ATOM      3  C   UNL     1     101.522 126.883 108.942  1.00  0.00    -0.017 A 
ATOM      4  C   UNL     1     100.204 126.487 109.056  1.00  0.00     0.012 A 
ATOM      5  C   UNL     1     101.857 128.072 109.582  1.00  0.00     0.012 A 
ATOM      6  C   UNL     1      99.288 127.243 109.771  1.00  0.00     0.047 A 
ATOM      7  C   UNL     1     100.950 128.817 110.288  1.00  0.00     0.047 A 
BRANCH   3   8
ATOM      8  C   UNL     1     102.497 126.124 108.179  1.00  0.00    -0.007 C 
ATOM      9  C   UNL     1     102.383 125.918 106.893  1.00  0.00    -0.033 C 
BRANCH   9  10
ATOM     10  C   UNL     1     103.326 125.109 106.072  1.00  0.00     0.033 C 
ATOM     11  C   UNL     1     103.182 123.664 106.450  1.00  0.00     0.009 C 
ENDBRANCH   9  10
BRANCH   9  12
ATOM     12  C   UNL     1     101.304 126.552 106.115  1.00  0.00    -0.022 A 
ATOM     13  C   UNL     1     101.089 127.906 106.139  1.00  0.00     0.008 A 
ATOM     14  C   UNL     1     100.497 125.753 105.364  1.00  0.00     0.008 A 
ATOM     15  C   UNL     1     100.064 128.445 105.405  1.00  0.00     0.001 A 
ATOM     16  C   UNL     1      99.440 126.260 104.601  1.00  0.00     0.001 A 
ATOM     17  C   UNL     1      99.250 127.622 104.644  1.00  0.00     0.000 A 
ENDBRANCH   9  12
BRANCH   8  18
ATOM     18  C   UNL     1     103.617 125.547 108.895  1.00  0.00    -0.018 A 
ATOM     19  C   UNL     1     103.452 124.582 109.869  1.00  0.00     0.009 A 
ATOM     20  C   UNL     1     104.905 126.006 108.637  1.00  0.00     0.009 A 
ATOM     21  C   UNL     1     104.550 124.112 110.542  1.00  0.00     0.001 A 
ATOM     22  C   UNL     1     106.018 125.546 109.302  1.00  0.00     0.001 A 
ATOM     23  C   UNL     1     105.825 124.573 110.278  1.00  0.00     0.000 A 
ENDBRANCH   8  18
ENDBRANCH   3   8
ENDBRANCH   1   2
BRANCH   1  24
ATOM     24  C   UNL     1      98.997 130.288 111.940  1.00  0.00     0.290 C 
BRANCH  24  25
ATOM     25  C   UNL     1      98.561 130.162 113.377  1.00  0.00     0.303 C 
BRANCH  25  26
ATOM     26  N   UNL     1      99.431 130.845 114.286  1.00  0.00    -0.337 N 
ATOM     27  C   UNL     1     100.806 130.402 114.210  1.00  0.00     0.332 C 
ATOM     28  C   UNL     1      99.017 130.712 115.668  1.00  0.00     0.332 C 
ATOM     29  H   UNL     1      99.447 131.891 114.094  1.00  0.00     0.347 HD
ENDBRANCH  25  26
ENDBRANCH  24  25
ENDBRANCH   1  24
TORSDOF 8
ENDMDL
MODEL 5
REMARK VINA RESULT:      -9.0      0.759      1.782
REMARK SMILES CC/C(=C(\c1ccccc1)c1ccc(OCC[NH+](C)C)cc1)c1ccccc1
REMARK SMILES IDX 15 1 14 2 11 3 12 4 22 5 13 6 21 7 4 8 3 9 2 10 1 11 23 12
REMARK SMILES IDX 24 13 28 14 25 15 27 16 26 17 5 18 6 19 10 20 7 21 9 22 8 23
REMARK SMILES IDX 16 24 17 25 18 26 19 27 20 28
REMARK H PARENT 18 29
ROOT
ATOM      1  O   UNL     1      98.989 129.395 111.377  1.00  0.00    -0.488 OA
ENDROOT
BRANCH   1   2
ATOM      2  C   UNL     1      99.888 128.648 110.639  1.00  0.00     0.119 A 
ATOM      3  C   UNL     1     101.658 127.037 109.079  1.00  0.00    -0.017 A 
ATOM      4  C   UNL     1     102.094 128.174 109.732  1.00  0.00     0.012 A 
ATOM      5  C   UNL     1     100.310 126.729 109.231  1.00  0.00     0.012 A 
ATOM      6  C   UNL     1     101.222 128.945 110.485  1.00  0.00     0.047 A 
ATOM      7  C   UNL     1      99.451 127.493 109.975  1.00  0.00     0.047 A 
BRANCH   3   8
ATOM      8  C   UNL     1     102.553 126.197 108.303  1.00  0.00    -0.007 C 
ATOM      9  C   UNL     1     102.385 125.977 107.025  1.00  0.00    -0.033 C 
BRANCH   9  10
ATOM     10  C   UNL     1     103.242 125.089 106.193  1.00  0.00     0.033 C 
ATOM     11  C   UNL     1     102.948 123.660 106.547  1.00  0.00     0.009 C 
ENDBRANCH   9  10
BRANCH   9  12
ATOM     12  C   UNL     1     101.330 126.674 106.267  1.00  0.00    -0.022 A 
ATOM     13  C   UNL     1     101.173 128.035 106.324  1.00  0.00     0.008 A 
ATOM     14  C   UNL     1     100.488 125.928 105.501  1.00  0.00     0.008 A 
ATOM     15  C   UNL     1     100.168 128.634 105.607  1.00  0.00     0.001 A 
ATOM     16  C   UNL     1      99.451 126.496 104.755  1.00  0.00     0.001 A 
ATOM     17  C   UNL     1      99.318 127.864 104.831  1.00  0.00     0.000 A 
ENDBRANCH   9  12
BRANCH   8  18
ATOM     18  C   UNL     1     103.650 125.553 108.997  1.00  0.00    -0.018 A 
ATOM     19  C   UNL     1     103.447 124.574 109.950  1.00  0.00     0.009 A 
ATOM     20  C   UNL     1     104.956 125.959 108.739  1.00  0.00     0.009 A 
ATOM     21  C   UNL     1     104.527 124.040 110.604  1.00  0.00     0.001 A 
ATOM     22  C   UNL     1     106.050 125.432 109.385  1.00  0.00     0.001 A 
ATOM     23  C   UNL     1     105.820 124.447 110.340  1.00  0.00     0.000 A 
ENDBRANCH   8  18
ENDBRANCH   3   8
ENDBRANCH   1   2
BRANCH   1  24
ATOM     24  C   UNL     1      99.237 130.244 112.441  1.00  0.00     0.290 C 
BRANCH  24  25
ATOM     25  C   UNL     1      99.895 129.616 113.641  1.00  0.00     0.303 C 
BRANCH  25  26
ATOM     26  N   UNL     1     101.111 130.271 114.018  1.00  0.00    -0.337 N 
ATOM     27  C   UNL     1     101.132 130.693 115.402  1.00  0.00     0.332 C 
ATOM     28  C   UNL     1     101.393 131.441 113.212  1.00  0.00     0.332 C 
ATOM     29  H   UNL     1     101.951 129.631 113.892  1.00  0.00     0.347 HD
ENDBRANCH  25  26
ENDBRANCH  24  25
ENDBRANCH   1  24
TORSDOF 8
ENDMDL
MODEL 6
REMARK VINA RESULT:      -8.9      0.615      1.156
REMARK SMILES CC/C(=C(\c1ccccc1)c1ccc(OCC[NH+](C)C)cc1)c1ccccc1
REMARK SMILES IDX 15 1 14 2 11 3 12 4 22 5 13 6 21 7 4 8 3 9 2 10 1 11 23 12
REMARK SMILES IDX 24 13 28 14 25 15 27 16 26 17 5 18 6 19 10 20 7 21 9 22 8 23
REMARK SMILES IDX 16 24 17 25 18 26 19 27 20 28
REMARK H PARENT 18 29
ROOT
ATOM      1  O   UNL     1      98.968 129.444 111.297  1.00  0.00    -0.488 OA
ENDROOT
BRANCH   1   2
ATOM      2  C   UNL     1      99.815 128.638 110.558  1.00  0.00     0.119 A 
ATOM      3  C   UNL     1     101.654 127.035 109.072  1.00  0.00    -0.017 A 
ATOM      4  C   UNL     1     100.303 126.751 109.105  1.00  0.00     0.012 A 
ATOM      5  C   UNL     1     102.059 128.147 109.803  1.00  0.00     0.012 A 
ATOM      6  C   UNL     1      99.423 127.538 109.831  1.00  0.00     0.047 A 
ATOM      7  C   UNL     1     101.188 128.924 110.520  1.00  0.00     0.047 A 
BRANCH   3   8
ATOM      8  C   UNL     1     102.595 126.243 108.301  1.00  0.00    -0.007 C 
ATOM      9  C   UNL     1     102.439 126.004 107.024  1.00  0.00    -0.033 C 
BRANCH   9  10
ATOM     10  C   UNL     1     103.345 125.161 106.198  1.00  0.00     0.033 C 
ATOM     11  C   UNL     1     103.190 123.728 106.614  1.00  0.00     0.009 C 
ENDBRANCH   9  10
BRANCH   9  12
ATOM     12  C   UNL     1     101.343 126.632 106.263  1.00  0.00    -0.022 A 
ATOM     13  C   UNL     1     101.162 127.991 106.238  1.00  0.00     0.008 A 
ATOM     14  C   UNL     1     100.489 125.822 105.579  1.00  0.00     0.008 A 
ATOM     15  C   UNL     1     100.120 128.524 105.522  1.00  0.00     0.001 A 
ATOM     16  C   UNL     1      99.415 126.323 104.837  1.00  0.00     0.001 A 
ATOM     17  C   UNL     1      99.258 127.690 104.830  1.00  0.00     0.000 A 
ENDBRANCH   9  12
BRANCH   8  18
ATOM     18  C   UNL     1     103.729 125.670 108.997  1.00  0.00    -0.018 A 
ATOM     19  C   UNL     1     105.027 126.073 108.751  1.00  0.00     0.009 A 
ATOM     20  C   UNL     1     103.523 124.644 109.914  1.00  0.00     0.009 A 
ATOM     21  C   UNL     1     106.058 125.457 109.410  1.00  0.00     0.001 A 
ATOM     22  C   UNL     1     104.546 124.015 110.585  1.00  0.00     0.001 A 
ATOM     23  C   UNL     1     105.844 124.439 110.320  1.00  0.00     0.000 A 
ENDBRANCH   8  18
ENDBRANCH   3   8
ENDBRANCH   1   2
BRANCH   1  24
ATOM     24  C   UNL     1      99.233 130.669 111.883  1.00  0.00     0.290 C 
BRANCH  24  25
ATOM     25  C   UNL     1      99.703 130.623 113.313  1.00  0.00     0.303 C 
BRANCH  25  26
ATOM     26  N   UNL     1      99.249 131.739 114.086  1.00  0.00    -0.337 N 
ATOM     27  C   UNL     1      98.369 132.625 113.356  1.00  0.00     0.332 C 
ATOM     28  C   UNL     1     100.336 132.547 114.601  1.00  0.00     0.332 C 
ATOM     29  H   UNL     1      98.703 131.421 114.942  1.00  0.00     0.347 HD
ENDBRANCH  25  26
ENDBRANCH  24  25
ENDBRANCH   1  24
TORSDOF 8
ENDMDL
MODEL 7
REMARK VINA RESULT:      -8.9      0.952      1.706
REMARK SMILES CC/C(=C(\c1ccccc1)c1ccc(OCC[NH+](C)C)cc1)c1ccccc1
REMARK SMILES IDX 15 1 14 2 11 3 12 4 22 5 13 6 21 7 4 8 3 9 2 10 1 11 23 12
REMARK SMILES IDX 24 13 28 14 25 15 27 16 26 17 5 18 6 19 10 20 7 21 9 22 8 23
REMARK SMILES IDX 16 24 17 25 18 26 19 27 20 28
REMARK H PARENT 18 29
ROOT
ATOM      1  O   UNL     1      98.621 129.426 111.775  1.00  0.00    -0.488 OA
ENDROOT
BRANCH   1   2
ATOM      2  C   UNL     1      99.545 128.783 110.971  1.00  0.00     0.119 A 
ATOM      3  C   UNL     1     101.364 127.395 109.262  1.00  0.00    -0.017 A 
ATOM      4  C   UNL     1     101.788 128.390 110.120  1.00  0.00     0.012 A 
ATOM      5  C   UNL     1     100.002 127.112 109.284  1.00  0.00     0.012 A 
ATOM      6  C   UNL     1     100.892 129.054 110.944  1.00  0.00     0.047 A 
ATOM      7  C   UNL     1      99.119 127.770 110.098  1.00  0.00     0.047 A 
BRANCH   3   8
ATOM      8  C   UNL     1     102.282 126.665 108.405  1.00  0.00    -0.007 C 
ATOM      9  C   UNL     1     102.197 126.683 107.100  1.00  0.00    -0.033 C 
BRANCH   9  10
ATOM     10  C   UNL     1     103.080 125.917 106.178  1.00  0.00     0.033 C 
ATOM     11  C   UNL     1     102.691 124.469 106.224  1.00  0.00     0.009 C 
ENDBRANCH   9  10
BRANCH   9  12
ATOM     12  C   UNL     1     101.221 127.550 106.415  1.00  0.00    -0.022 A 
ATOM     13  C   UNL     1     100.211 127.038 105.642  1.00  0.00     0.008 A 
ATOM     14  C   UNL     1     101.348 128.898 106.557  1.00  0.00     0.008 A 
ATOM     15  C   UNL     1      99.335 127.889 105.017  1.00  0.00     0.001 A 
ATOM     16  C   UNL     1     100.478 129.801 105.938  1.00  0.00     0.001 A 
ATOM     17  C   UNL     1      99.475 129.259 105.169  1.00  0.00     0.000 A 
ENDBRANCH   9  12
BRANCH   8  18
ATOM     18  C   UNL     1     103.306 125.859 109.040  1.00  0.00    -0.018 A 
ATOM     19  C   UNL     1     103.001 124.811 109.885  1.00  0.00     0.009 A 
ATOM     20  C   UNL     1     104.647 126.172 108.837  1.00  0.00     0.009 A 
ATOM     21  C   UNL     1     104.018 124.119 110.491  1.00  0.00     0.001 A 
ATOM     22  C   UNL     1     105.679 125.488 109.435  1.00  0.00     0.001 A 
ATOM     23  C   UNL     1     105.346 124.435 110.283  1.00  0.00     0.000 A 
ENDBRANCH   8  18
ENDBRANCH   3   8
ENDBRANCH   1   2
BRANCH   1  24
ATOM     24  C   UNL     1      98.828 130.451 112.681  1.00  0.00     0.290 C 
BRANCH  24  25
ATOM     25  C   UNL     1      98.994 130.030 114.118  1.00  0.00     0.303 C 
BRANCH  25  26
ATOM     26  N   UNL     1      99.093 131.140 115.016  1.00  0.00    -0.337 N 
ATOM     27  C   UNL     1      98.288 130.989 116.209  1.00  0.00     0.332 C 
ATOM     28  C   UNL     1      98.713 132.397 114.403  1.00  0.00     0.332 C 
ATOM     29  H   UNL     1     100.093 131.279 115.352  1.00  0.00     0.347 HD
ENDBRANCH  25  26
ENDBRANCH  24  25
ENDBRANCH   1  24
TORSDOF 8
ENDMDL
MODEL 8
REMARK VINA RESULT:      -8.9      0.956      1.516
REMARK SMILES CC/C(=C(\c1ccccc1)c1ccc(OCC[NH+](C)C)cc1)c1ccccc1
REMARK SMILES IDX 15 1 14 2 11 3 12 4 22 5 13 6 21 7 4 8 3 9 2 10 1 11 23 12
REMARK SMILES IDX 24 13 28 14 25 15 27 16 26 17 5 18 6 19 10 20 7 21 9 22 8 23
REMARK SMILES IDX 16 24 17 25 18 26 19 27 20 28
REMARK H PARENT 18 29
ROOT
ATOM      1  O   UNL     1      98.698 129.631 111.854  1.00  0.00    -0.488 OA
ENDROOT
BRANCH   1   2
ATOM      2  C   UNL     1      99.548 128.921 111.026  1.00  0.00     0.119 A 
ATOM      3  C   UNL     1     101.394 127.510 109.364  1.00  0.00    -0.017 A 
ATOM      4  C   UNL     1     100.042 127.229 109.352  1.00  0.00     0.012 A 
ATOM      5  C   UNL     1     101.796 128.520 110.233  1.00  0.00     0.012 A 
ATOM      6  C   UNL     1      99.158 127.923 110.164  1.00  0.00     0.047 A 
ATOM      7  C   UNL     1     100.922 129.203 111.035  1.00  0.00     0.047 A 
BRANCH   3   8
ATOM      8  C   UNL     1     102.339 126.817 108.507  1.00  0.00    -0.007 C 
ATOM      9  C   UNL     1     102.279 126.870 107.201  1.00  0.00    -0.033 C 
BRANCH   9  10
ATOM     10  C   UNL     1     103.190 126.143 106.276  1.00  0.00     0.033 C 
ATOM     11  C   UNL     1     102.715 124.726 106.140  1.00  0.00     0.009 C 
ENDBRANCH   9  10
BRANCH   9  12
ATOM     12  C   UNL     1     101.305 127.743 106.521  1.00  0.00    -0.022 A 
ATOM     13  C   UNL     1     101.364 129.110 106.615  1.00  0.00     0.008 A 
ATOM     14  C   UNL     1     100.317 127.158 105.789  1.00  0.00     0.008 A 
ATOM     15  C   UNL     1     100.427 129.877 105.971  1.00  0.00     0.001 A 
ATOM     16  C   UNL     1      99.342 127.901 105.117  1.00  0.00     0.001 A 
ATOM     17  C   UNL     1      99.428 129.270 105.229  1.00  0.00     0.000 A 
ENDBRANCH   9  12
BRANCH   8  18
ATOM     18  C   UNL     1     103.361 126.007 109.139  1.00  0.00    -0.018 A 
ATOM     19  C   UNL     1     104.708 126.262 108.979  1.00  0.00     0.009 A 
ATOM     20  C   UNL     1     102.987 124.903 109.899  1.00  0.00     0.009 A 
ATOM     21  C   UNL     1     105.624 125.429 109.566  1.00  0.00     0.001 A 
ATOM     22  C   UNL     1     103.892 124.057 110.496  1.00  0.00     0.001 A 
ATOM     23  C   UNL     1     105.244 124.335 110.319  1.00  0.00     0.000 A 
ENDBRANCH   8  18
ENDBRANCH   3   8
ENDBRANCH   1   2
BRANCH   1  24
ATOM     24  C   UNL     1      98.540 131.002 111.961  1.00  0.00     0.290 C 
BRANCH  24  25
ATOM     25  C   UNL     1      98.761 131.581 113.335  1.00  0.00     0.303 C 
BRANCH  25  26
ATOM     26  N   UNL     1      99.783 132.583 113.360  1.00  0.00    -0.337 N 
ATOM     27  C   UNL     1      99.775 133.443 112.197  1.00  0.00     0.332 C 
ATOM     28  C   UNL     1     101.115 132.025 113.469  1.00  0.00     0.332 C 
ATOM     29  H   UNL     1      99.675 133.224 114.202  1.00  0.00     0.347 HD
ENDBRANCH  25  26
ENDBRANCH  24  25
ENDBRANCH   1  24
TORSDOF 8
ENDMDL
MODEL 9
REMARK VINA RESULT:      -8.8      0.643      1.170
REMARK SMILES CC/C(=C(\c1ccccc1)c1ccc(OCC[NH+](C)C)cc1)c1ccccc1
REMARK SMILES IDX 15 1 14 2 11 3 12 4 22 5 13 6 21 7 4 8 3 9 2 10 1 11 23 12
REMARK SMILES IDX 24 13 28 14 25 15 27 16 26 17 5 18 6 19 10 20 7 21 9 22 8 23
REMARK SMILES IDX 16 24 17 25 18 26 19 27 20 28
REMARK H PARENT 18 29
ROOT
ATOM      1  O   UNL     1      99.133 129.567 111.146  1.00  0.00    -0.488 OA
ENDROOT
BRANCH   1   2
ATOM      2  C   UNL     1      99.943 128.708 110.425  1.00  0.00     0.119 A 
ATOM      3  C   UNL     1     101.706 127.003 108.961  1.00  0.00    -0.017 A 
ATOM      4  C   UNL     1     100.373 126.689 109.141  1.00  0.00     0.012 A 
ATOM      5  C   UNL     1     102.132 128.197 109.535  1.00  0.00     0.012 A 
ATOM      6  C   UNL     1      99.530 127.527 109.854  1.00  0.00     0.047 A 
ATOM      7  C   UNL     1     101.297 129.023 110.239  1.00  0.00     0.047 A 
BRANCH   3   8
ATOM      8  C   UNL     1     102.607 126.157 108.199  1.00  0.00    -0.007 C 
ATOM      9  C   UNL     1     102.412 125.875 106.936  1.00  0.00    -0.033 C 
BRANCH   9  10
ATOM     10  C   UNL     1     103.276 124.977 106.121  1.00  0.00     0.033 C 
ATOM     11  C   UNL     1     103.033 123.557 106.540  1.00  0.00     0.009 C 
ENDBRANCH   9  10
BRANCH   9  12
ATOM     12  C   UNL     1     101.315 126.503 106.178  1.00  0.00    -0.022 A 
ATOM     13  C   UNL     1     100.441 125.768 105.420  1.00  0.00     0.008 A 
ATOM     14  C   UNL     1     101.186 127.858 106.236  1.00  0.00     0.008 A 
ATOM     15  C   UNL     1      99.443 126.402 104.725  1.00  0.00     0.001 A 
ATOM     16  C   UNL     1     100.185 128.545 105.544  1.00  0.00     0.001 A 
ATOM     17  C   UNL     1      99.322 127.780 104.792  1.00  0.00     0.000 A 
ENDBRANCH   9  12
BRANCH   8  18
ATOM     18  C   UNL     1     103.743 125.581 108.889  1.00  0.00    -0.018 A 
ATOM     19  C   UNL     1     103.600 124.607 109.858  1.00  0.00     0.009 A 
ATOM     20  C   UNL     1     105.023 126.048 108.611  1.00  0.00     0.009 A 
ATOM     21  C   UNL     1     104.713 124.138 110.507  1.00  0.00     0.001 A 
ATOM     22  C   UNL     1     106.150 125.588 109.251  1.00  0.00     0.001 A 
ATOM     23  C   UNL     1     105.981 124.607 110.223  1.00  0.00     0.000 A 
ENDBRANCH   8  18
ENDBRANCH   3   8
ENDBRANCH   1   2
BRANCH   1  24
ATOM     24  C   UNL     1      97.991 129.275 111.872  1.00  0.00     0.290 C 
BRANCH  24  25
ATOM     25  C   UNL     1      98.118 129.397 113.368  1.00  0.00     0.303 C 
BRANCH  25  26
ATOM     26  N   UNL     1      98.795 130.591 113.775  1.00  0.00    -0.337 N 
ATOM     27  C   UNL     1      98.841 130.765 115.210  1.00  0.00     0.332 C 
ATOM     28  C   UNL     1      98.203 131.791 113.219  1.00  0.00     0.332 C 
ATOM     29  H   UNL     1      99.805 130.595 113.444  1.00  0.00     0.347 HD
ENDBRANCH  25  26
ENDBRANCH  24  25
ENDBRANCH   1  24
TORSDOF 8
ENDMDL
