MODEL 1
REMARK VINA RESULT:      -9.4      0.000      0.000
REMARK SMILES O=c1c([O-])c(-c2ccccc2)oc2cc([O-])cc([O-])c12
REMARK SMILES IDX 1 1 2 2 3 3 4 4 5 5 12 6 13 7 14 8 15 9 16 10 17 11 18 12
REMARK SMILES IDX 19 13 20 14 6 15 7 16 11 17 8 18 10 19 9 20
REMARK H PARENT
ROOT
ATOM      1  O   UNL     1       1.909   5.577  19.278  1.00  0.00    -0.290 OA
ATOM      2  C   UNL     1       3.144   5.714  19.155  1.00  0.00     0.184 A 
ATOM      3  C   UNL     1       3.640   5.805  17.838  1.00  0.00    -0.014 A 
ATOM      4  O   UNL     1       2.771   5.740  16.783  1.00  0.00    -0.867 OA
ATOM      5  C   UNL     1       4.985   5.956  17.671  1.00  0.00     0.130 A 
ATOM      6  O   UNL     1       5.774   6.010  18.763  1.00  0.00    -0.457 OA
ATOM      7  C   UNL     1       5.333   5.929  19.963  1.00  0.00     0.137 A 
ATOM      8  C   UNL     1       6.185   5.992  21.030  1.00  0.00     0.039 A 
ATOM      9  C   UNL     1       5.745   5.908  22.334  1.00  0.00    -0.106 A 
ATOM     10  O   UNL     1       6.640   5.975  23.401  1.00  0.00    -0.872 OA
ATOM     11  C   UNL     1       4.377   5.753  22.570  1.00  0.00    -0.016 A 
ATOM     12  C   UNL     1       3.495   5.686  21.523  1.00  0.00    -0.094 A 
ATOM     13  O   UNL     1       2.147   5.532  21.766  1.00  0.00    -0.872 OA
ATOM     14  C   UNL     1       3.985   5.775  20.244  1.00  0.00     0.056 A 
ENDROOT
BRANCH   5  15
ATOM     15  C   UNL     1       5.613   6.060  16.366  1.00  0.00     0.017 A 
ATOM     16  C   UNL     1       5.140   5.606  15.176  1.00  0.00     0.012 A 
ATOM     17  C   UNL     1       6.860   6.703  16.293  1.00  0.00     0.012 A 
ATOM     18  C   UNL     1       5.821   5.757  13.977  1.00  0.00     0.001 A 
ATOM     19  C   UNL     1       7.548   6.861  15.112  1.00  0.00     0.001 A 
ATOM     20  C   UNL     1       7.034   6.387  13.928  1.00  0.00     0.000 A 
ENDBRANCH   5  15
TORSDOF 1
ENDMDL
MODEL 2
REMARK VINA RESULT:      -9.3      0.892      1.200
REMARK SMILES O=c1c([O-])c(-c2ccccc2)oc2cc([O-])cc([O-])c12
REMARK SMILES IDX 1 1 2 2 3 3 4 4 5 5 12 6 13 7 14 8 15 9 16 10 17 11 18 12
REMARK SMILES IDX 19 13 20 14 6 15 7 16 11 17 8 18 10 19 9 20
REMARK H PARENT
ROOT
ATOM      1  O   UNL     1       2.047   5.632  18.908  1.00  0.00    -0.290 OA
ATOM      2  C   UNL     1       3.254   5.947  18.954  1.00  0.00     0.184 A 
ATOM      3  C   UNL     1       3.839   6.379  17.746  1.00  0.00    -0.014 A 
ATOM      4  O   UNL     1       3.081   6.433  16.609  1.00  0.00    -0.867 OA
ATOM      5  C   UNL     1       5.157   6.731  17.764  1.00  0.00     0.130 A 
ATOM      6  O   UNL     1       5.836   6.649  18.927  1.00  0.00    -0.457 OA
ATOM      7  C   UNL     1       5.313   6.257  20.028  1.00  0.00     0.137 A 
ATOM      8  C   UNL     1       6.055   6.197  21.176  1.00  0.00     0.039 A 
ATOM      9  C   UNL     1       5.524   5.781  22.378  1.00  0.00    -0.106 A 
ATOM     10  O   UNL     1       6.308   5.730  23.531  1.00  0.00    -0.872 OA
ATOM     11  C   UNL     1       4.179   5.408  22.423  1.00  0.00    -0.016 A 
ATOM     12  C   UNL     1       3.407   5.456  21.292  1.00  0.00    -0.094 A 
ATOM     13  O   UNL     1       2.081   5.086  21.347  1.00  0.00    -0.872 OA
ATOM     14  C   UNL     1       3.983   5.879  20.120  1.00  0.00     0.056 A 
ENDROOT
BRANCH   5  15
ATOM     15  C   UNL     1       5.870   7.190  16.586  1.00  0.00     0.017 A 
ATOM     16  C   UNL     1       5.971   8.461  16.116  1.00  0.00     0.012 A 
ATOM     17  C   UNL     1       6.547   6.228  15.819  1.00  0.00     0.012 A 
ATOM     18  C   UNL     1       6.681   8.799  14.974  1.00  0.00     0.001 A 
ATOM     19  C   UNL     1       7.257   6.546  14.683  1.00  0.00     0.001 A 
ATOM     20  C   UNL     1       7.334   7.846  14.241  1.00  0.00     0.000 A 
ENDBRANCH   5  15
TORSDOF 1
ENDMDL
MODEL 3
REMARK VINA RESULT:      -9.3      1.774      5.914
REMARK SMILES O=c1c([O-])c(-c2ccccc2)oc2cc([O-])cc([O-])c12
REMARK SMILES IDX 1 1 2 2 3 3 4 4 5 5 12 6 13 7 14 8 15 9 16 10 17 11 18 12
REMARK SMILES IDX 19 13 20 14 6 15 7 16 11 17 8 18 10 19 9 20
REMARK H PARENT
ROOT
ATOM      1  O   UNL     1       3.560   5.829  15.116  1.00  0.00    -0.290 OA
ATOM      2  C   UNL     1       4.324   5.970  16.095  1.00  0.00     0.184 A 
ATOM      3  C   UNL     1       3.723   5.942  17.371  1.00  0.00    -0.014 A 
ATOM      4  O   UNL     1       2.371   5.766  17.478  1.00  0.00    -0.867 OA
ATOM      5  C   UNL     1       4.531   6.093  18.460  1.00  0.00     0.130 A 
ATOM      6  O   UNL     1       5.855   6.263  18.268  1.00  0.00    -0.457 OA
ATOM      7  C   UNL     1       6.408   6.290  17.114  1.00  0.00     0.137 A 
ATOM      8  C   UNL     1       7.759   6.464  16.986  1.00  0.00     0.039 A 
ATOM      9  C   UNL     1       8.387   6.499  15.759  1.00  0.00    -0.106 A 
ATOM     10  O   UNL     1       9.767   6.679  15.663  1.00  0.00    -0.872 OA
ATOM     11  C   UNL     1       7.614   6.349  14.606  1.00  0.00    -0.016 A 
ATOM     12  C   UNL     1       6.257   6.172  14.699  1.00  0.00    -0.094 A 
ATOM     13  O   UNL     1       5.502   6.026  13.555  1.00  0.00    -0.872 OA
ATOM     14  C   UNL     1       5.681   6.145  15.944  1.00  0.00     0.056 A 
ENDROOT
BRANCH   5  15
ATOM     15  C   UNL     1       4.031   6.082  19.823  1.00  0.00     0.017 A 
ATOM     16  C   UNL     1       2.741   5.975  20.236  1.00  0.00     0.012 A 
ATOM     17  C   UNL     1       4.971   6.192  20.861  1.00  0.00     0.012 A 
ATOM     18  C   UNL     1       2.365   5.974  21.570  1.00  0.00     0.001 A 
ATOM     19  C   UNL     1       4.614   6.193  22.190  1.00  0.00     0.001 A 
ATOM     20  C   UNL     1       3.296   6.082  22.566  1.00  0.00     0.000 A 
ENDBRANCH   5  15
TORSDOF 1
ENDMDL
MODEL 4
REMARK VINA RESULT:      -9.1      1.445      5.878
REMARK SMILES O=c1c([O-])c(-c2ccccc2)oc2cc([O-])cc([O-])c12
REMARK SMILES IDX 1 1 2 2 3 3 4 4 5 5 12 6 13 7 14 8 15 9 16 10 17 11 18 12
REMARK SMILES IDX 19 13 20 14 6 15 7 16 11 17 8 18 10 19 9 20
REMARK H PARENT
ROOT
ATOM      1  O   UNL     1       2.885   5.688  16.416  1.00  0.00    -0.290 OA
ATOM      2  C   UNL     1       3.824   5.843  17.224  1.00  0.00     0.184 A 
ATOM      3  C   UNL     1       3.494   5.769  18.594  1.00  0.00    -0.014 A 
ATOM      4  O   UNL     1       2.199   5.537  18.966  1.00  0.00    -0.867 OA
ATOM      5  C   UNL     1       4.499   5.934  19.502  1.00  0.00     0.130 A 
ATOM      6  O   UNL     1       5.750   6.160  19.053  1.00  0.00    -0.457 OA
ATOM      7  C   UNL     1       6.058   6.229  17.812  1.00  0.00     0.137 A 
ATOM      8  C   UNL     1       7.348   6.461  17.420  1.00  0.00     0.039 A 
ATOM      9  C   UNL     1       7.714   6.541  16.094  1.00  0.00    -0.106 A 
ATOM     10  O   UNL     1       9.039   6.779  15.726  1.00  0.00    -0.872 OA
ATOM     11  C   UNL     1       6.730   6.380  15.116  1.00  0.00    -0.016 A 
ATOM     12  C   UNL     1       5.427   6.147  15.474  1.00  0.00    -0.094 A 
ATOM     13  O   UNL     1       4.463   5.990  14.502  1.00  0.00    -0.872 OA
ATOM     14  C   UNL     1       5.115   6.075  16.808  1.00  0.00     0.056 A 
ENDROOT
BRANCH   5  15
ATOM     15  C   UNL     1       4.285   5.879  20.936  1.00  0.00     0.017 A 
ATOM     16  C   UNL     1       3.100   5.884  21.602  1.00  0.00     0.012 A 
ATOM     17  C   UNL     1       5.420   5.811  21.762  1.00  0.00     0.012 A 
ATOM     18  C   UNL     1       3.002   5.827  22.985  1.00  0.00     0.001 A 
ATOM     19  C   UNL     1       5.340   5.754  23.134  1.00  0.00     0.001 A 
ATOM     20  C   UNL     1       4.120   5.762  23.770  1.00  0.00     0.000 A 
ENDBRANCH   5  15
TORSDOF 1
ENDMDL
MODEL 5
REMARK VINA RESULT:      -9.0      1.775      6.002
REMARK SMILES O=c1c([O-])c(-c2ccccc2)oc2cc([O-])cc([O-])c12
REMARK SMILES IDX 1 1 2 2 3 3 4 4 5 5 12 6 13 7 14 8 15 9 16 10 17 11 18 12
REMARK SMILES IDX 19 13 20 14 6 15 7 16 11 17 8 18 10 19 9 20
REMARK H PARENT
ROOT
ATOM      1  O   UNL     1       3.553   5.792  15.174  1.00  0.00    -0.290 OA
ATOM      2  C   UNL     1       4.325   5.943  16.143  1.00  0.00     0.184 A 
ATOM      3  C   UNL     1       3.740   5.910  17.426  1.00  0.00    -0.014 A 
ATOM      4  O   UNL     1       2.390   5.720  17.548  1.00  0.00    -0.867 OA
ATOM      5  C   UNL     1       4.557   6.071  18.506  1.00  0.00     0.130 A 
ATOM      6  O   UNL     1       5.877   6.254  18.300  1.00  0.00    -0.457 OA
ATOM      7  C   UNL     1       6.418   6.285  17.139  1.00  0.00     0.137 A 
ATOM      8  C   UNL     1       7.765   6.474  16.997  1.00  0.00     0.039 A 
ATOM      9  C   UNL     1       8.379   6.513  15.763  1.00  0.00    -0.106 A 
ATOM     10  O   UNL     1       9.756   6.708  15.651  1.00  0.00    -0.872 OA
ATOM     11  C   UNL     1       7.595   6.353  14.619  1.00  0.00    -0.016 A 
ATOM     12  C   UNL     1       6.242   6.163  14.726  1.00  0.00    -0.094 A 
ATOM     13  O   UNL     1       5.476   6.007  13.591  1.00  0.00    -0.872 OA
ATOM     14  C   UNL     1       5.679   6.131  15.977  1.00  0.00     0.056 A 
ENDROOT
BRANCH   5  15
ATOM     15  C   UNL     1       4.072   6.056  19.874  1.00  0.00     0.017 A 
ATOM     16  C   UNL     1       4.806   6.068  21.017  1.00  0.00     0.012 A 
ATOM     17  C   UNL     1       2.681   6.029  20.071  1.00  0.00     0.012 A 
ATOM     18  C   UNL     1       4.244   6.054  22.285  1.00  0.00     0.001 A 
ATOM     19  C   UNL     1       2.107   6.014  21.322  1.00  0.00     0.001 A 
ATOM     20  C   UNL     1       2.887   6.027  22.455  1.00  0.00     0.000 A 
ENDBRANCH   5  15
TORSDOF 1
ENDMDL
MODEL 6
REMARK VINA RESULT:      -8.9      1.461      5.969
REMARK SMILES O=c1c([O-])c(-c2ccccc2)oc2cc([O-])cc([O-])c12
REMARK SMILES IDX 1 1 2 2 3 3 4 4 5 5 12 6 13 7 14 8 15 9 16 10 17 11 18 12
REMARK SMILES IDX 19 13 20 14 6 15 7 16 11 17 8 18 10 19 9 20
REMARK H PARENT
ROOT
ATOM      1  O   UNL     1       2.877   5.728  16.363  1.00  0.00    -0.290 OA
ATOM      2  C   UNL     1       3.816   5.869  17.173  1.00  0.00     0.184 A 
ATOM      3  C   UNL     1       3.486   5.785  18.541  1.00  0.00    -0.014 A 
ATOM      4  O   UNL     1       2.188   5.559  18.911  1.00  0.00    -0.867 OA
ATOM      5  C   UNL     1       4.491   5.934  19.451  1.00  0.00     0.130 A 
ATOM      6  O   UNL     1       5.744   6.155  19.005  1.00  0.00    -0.457 OA
ATOM      7  C   UNL     1       6.053   6.233  17.765  1.00  0.00     0.137 A 
ATOM      8  C   UNL     1       7.345   6.458  17.375  1.00  0.00     0.039 A 
ATOM      9  C   UNL     1       7.712   6.548  16.050  1.00  0.00    -0.106 A 
ATOM     10  O   UNL     1       9.039   6.779  15.685  1.00  0.00    -0.872 OA
ATOM     11  C   UNL     1       6.728   6.403  15.070  1.00  0.00    -0.016 A 
ATOM     12  C   UNL     1       5.423   6.177  15.426  1.00  0.00    -0.094 A 
ATOM     13  O   UNL     1       4.458   6.035  14.452  1.00  0.00    -0.872 OA
ATOM     14  C   UNL     1       5.110   6.095  16.759  1.00  0.00     0.056 A 
ENDROOT
BRANCH   5  15
ATOM     15  C   UNL     1       4.276   5.868  20.885  1.00  0.00     0.017 A 
ATOM     16  C   UNL     1       5.213   5.771  21.864  1.00  0.00     0.012 A 
ATOM     17  C   UNL     1       2.949   5.909  21.347  1.00  0.00     0.012 A 
ATOM     18  C   UNL     1       4.902   5.716  23.215  1.00  0.00     0.001 A 
ATOM     19  C   UNL     1       2.624   5.855  22.683  1.00  0.00     0.001 A 
ATOM     20  C   UNL     1       3.604   5.757  23.643  1.00  0.00     0.000 A 
ENDBRANCH   5  15
TORSDOF 1
ENDMDL
MODEL 7
REMARK VINA RESULT:      -8.8      0.901      1.032
REMARK SMILES O=c1c([O-])c(-c2ccccc2)oc2cc([O-])cc([O-])c12
REMARK SMILES IDX 1 1 2 2 3 3 4 4 5 5 12 6 13 7 14 8 15 9 16 10 17 11 18 12
REMARK SMILES IDX 19 13 20 14 6 15 7 16 11 17 8 18 10 19 9 20
REMARK H PARENT
ROOT
ATOM      1  O   UNL     1       1.514   5.854  20.330  1.00  0.00    -0.290 OA
ATOM      2  C   UNL     1       2.748   5.875  20.143  1.00  0.00     0.184 A 
ATOM      3  C   UNL     1       3.181   5.908  18.801  1.00  0.00    -0.014 A 
ATOM      4  O   UNL     1       2.257   5.915  17.793  1.00  0.00    -0.867 OA
ATOM      5  C   UNL     1       4.524   5.933  18.564  1.00  0.00     0.130 A 
ATOM      6  O   UNL     1       5.370   5.923  19.615  1.00  0.00    -0.457 OA
ATOM      7  C   UNL     1       4.986   5.893  20.836  1.00  0.00     0.137 A 
ATOM      8  C   UNL     1       5.894   5.885  21.859  1.00  0.00     0.039 A 
ATOM      9  C   UNL     1       5.515   5.853  23.183  1.00  0.00    -0.106 A 
ATOM     10  O   UNL     1       6.467   5.846  24.203  1.00  0.00    -0.872 OA
ATOM     11  C   UNL     1       4.153   5.828  23.491  1.00  0.00    -0.016 A 
ATOM     12  C   UNL     1       3.216   5.834  22.490  1.00  0.00    -0.094 A 
ATOM     13  O   UNL     1       1.874   5.809  22.803  1.00  0.00    -0.872 OA
ATOM     14  C   UNL     1       3.645   5.867  21.187  1.00  0.00     0.056 A 
ENDROOT
BRANCH   5  15
ATOM     15  C   UNL     1       5.091   5.967  17.228  1.00  0.00     0.017 A 
ATOM     16  C   UNL     1       4.436   5.860  16.043  1.00  0.00     0.012 A 
ATOM     17  C   UNL     1       6.482   6.130  17.116  1.00  0.00     0.012 A 
ATOM     18  C   UNL     1       5.073   5.906  14.812  1.00  0.00     0.001 A 
ATOM     19  C   UNL     1       7.130   6.178  15.903  1.00  0.00     0.001 A 
ATOM     20  C   UNL     1       6.429   6.066  14.725  1.00  0.00     0.000 A 
ENDBRANCH   5  15
TORSDOF 1
ENDMDL
MODEL 8
REMARK VINA RESULT:      -8.7      2.361      6.591
REMARK SMILES O=c1c([O-])c(-c2ccccc2)oc2cc([O-])cc([O-])c12
REMARK SMILES IDX 1 1 2 2 3 3 4 4 5 5 12 6 13 7 14 8 15 9 16 10 17 11 18 12
REMARK SMILES IDX 19 13 20 14 6 15 7 16 11 17 8 18 10 19 9 20
REMARK H PARENT
ROOT
ATOM      1  O   UNL     1       6.829   9.327  16.570  1.00  0.00    -0.290 OA
ATOM      2  C   UNL     1       6.293   8.201  16.629  1.00  0.00     0.184 A 
ATOM      3  C   UNL     1       5.568   7.909  17.803  1.00  0.00    -0.014 A 
ATOM      4  O   UNL     1       5.487   8.845  18.797  1.00  0.00    -0.867 OA
ATOM      5  C   UNL     1       4.970   6.687  17.898  1.00  0.00     0.130 A 
ATOM      6  O   UNL     1       5.100   5.820  16.873  1.00  0.00    -0.457 OA
ATOM      7  C   UNL     1       5.756   6.076  15.804  1.00  0.00     0.137 A 
ATOM      8  C   UNL     1       5.848   5.153  14.799  1.00  0.00     0.039 A 
ATOM      9  C   UNL     1       6.546   5.395  13.635  1.00  0.00    -0.106 A 
ATOM     10  O   UNL     1       6.622   4.432  12.628  1.00  0.00    -0.872 OA
ATOM     11  C   UNL     1       7.180   6.630  13.478  1.00  0.00    -0.016 A 
ATOM     12  C   UNL     1       7.107   7.577  14.466  1.00  0.00    -0.094 A 
ATOM     13  O   UNL     1       7.736   8.793  14.303  1.00  0.00    -0.872 OA
ATOM     14  C   UNL     1       6.399   7.287  15.606  1.00  0.00     0.056 A 
ENDROOT
BRANCH   5  15
ATOM     15  C   UNL     1       4.199   6.271  19.055  1.00  0.00     0.017 A 
ATOM     16  C   UNL     1       2.849   6.165  19.162  1.00  0.00     0.012 A 
ATOM     17  C   UNL     1       4.907   5.929  20.220  1.00  0.00     0.012 A 
ATOM     18  C   UNL     1       2.205   5.755  20.319  1.00  0.00     0.001 A 
ATOM     19  C   UNL     1       4.283   5.520  21.377  1.00  0.00     0.001 A 
ATOM     20  C   UNL     1       2.913   5.427  21.443  1.00  0.00     0.000 A 
ENDBRANCH   5  15
TORSDOF 1
ENDMDL
MODEL 9
REMARK VINA RESULT:      -8.5      2.362      6.650
REMARK SMILES O=c1c([O-])c(-c2ccccc2)oc2cc([O-])cc([O-])c12
REMARK SMILES IDX 1 1 2 2 3 3 4 4 5 5 12 6 13 7 14 8 15 9 16 10 17 11 18 12
REMARK SMILES IDX 19 13 20 14 6 15 7 16 11 17 8 18 10 19 9 20
REMARK H PARENT
ROOT
ATOM      1  O   UNL     1       6.812   9.364  16.580  1.00  0.00    -0.290 OA
ATOM      2  C   UNL     1       6.315   8.221  16.657  1.00  0.00     0.184 A 
ATOM      3  C   UNL     1       5.633   7.910  17.851  1.00  0.00    -0.014 A 
ATOM      4  O   UNL     1       5.548   8.846  18.845  1.00  0.00    -0.867 OA
ATOM      5  C   UNL     1       5.079   6.669  17.966  1.00  0.00     0.130 A 
ATOM      6  O   UNL     1       5.209   5.802  16.940  1.00  0.00    -0.457 OA
ATOM      7  C   UNL     1       5.826   6.076  15.853  1.00  0.00     0.137 A 
ATOM      8  C   UNL     1       5.922   5.153  14.848  1.00  0.00     0.039 A 
ATOM      9  C   UNL     1       6.579   5.414  13.665  1.00  0.00    -0.106 A 
ATOM     10  O   UNL     1       6.660   4.451  12.659  1.00  0.00    -0.872 OA
ATOM     11  C   UNL     1       7.167   6.668  13.487  1.00  0.00    -0.016 A 
ATOM     12  C   UNL     1       7.090   7.617  14.474  1.00  0.00    -0.094 A 
ATOM     13  O   UNL     1       7.673   8.852  14.290  1.00  0.00    -0.872 OA
ATOM     14  C   UNL     1       6.424   7.307  15.633  1.00  0.00     0.056 A 
ENDROOT
BRANCH   5  15
ATOM     15  C   UNL     1       4.354   6.232  19.145  1.00  0.00     0.017 A 
ATOM     16  C   UNL     1       4.865   5.881  20.354  1.00  0.00     0.012 A 
ATOM     17  C   UNL     1       2.954   6.154  19.057  1.00  0.00     0.012 A 
ATOM     18  C   UNL     1       4.083   5.476  21.425  1.00  0.00     0.001 A 
ATOM     19  C   UNL     1       2.163   5.753  20.109  1.00  0.00     0.001 A 
ATOM     20  C   UNL     1       2.721   5.406  21.317  1.00  0.00     0.000 A 
ENDBRANCH   5  15
TORSDOF 1
ENDMDL
