MODEL 1
REMARK VINA RESULT:      -5.6      0.000      0.000
REMARK SMILES COc1cccc2c1C(=O)c1c(O)c3c(c(O)c1C2=O)C[C@@](O)(C(=O)CO)C[C@@H]3O[C@H]1C[C@H](N)[C@H](O)[C@H](C)O1
REMARK SMILES IDX 3 1 4 2 5 3 6 4 7 5 8 6 9 7 10 8 11 9 12 10 14 11 15 12
REMARK SMILES IDX 16 13 18 14 19 15 20 16 21 17 22 18 28 19 29 20 2 21 1 22
REMARK SMILES IDX 13 23 17 25 30 27 31 28 32 29 39 30 33 31 37 32 35 33 38 34
REMARK SMILES IDX 34 35 36 38 23 40 24 42 25 43 26 44 27 45
REMARK H PARENT 13 24 17 26 34 36 34 37 36 39 23 41 27 46
ROOT
ATOM      1  C   UNL     1      56.707  -5.547  12.731  1.00  0.00     0.130 A 
ATOM      2  C   UNL     1      57.215  -5.726  13.980  1.00  0.00     0.047 A 
ATOM      3  C   UNL     1      58.532  -6.074  14.224  1.00  0.00     0.005 A 
ATOM      4  C   UNL     1      59.362  -6.247  13.142  1.00  0.00     0.013 A 
ATOM      5  C   UNL     1      58.855  -6.066  11.850  1.00  0.00     0.038 A 
ATOM      6  C   UNL     1      57.542  -5.719  11.643  1.00  0.00     0.076 A 
ATOM      7  C   UNL     1      57.039  -5.537  10.271  1.00  0.00     0.202 C 
ATOM      8  O   UNL     1      55.844  -5.224  10.116  1.00  0.00    -0.288 OA
ATOM      9  C   UNL     1      57.917  -5.718   9.122  1.00  0.00     0.080 A 
ATOM     10  C   UNL     1      57.461  -5.551   7.815  1.00  0.00     0.133 A 
ATOM     11  C   UNL     1      58.272  -5.718   6.736  1.00  0.00     0.031 A 
ATOM     12  C   UNL     1      59.622  -6.073   6.930  1.00  0.00     0.008 A 
ATOM     13  C   UNL     1      60.054  -6.234   8.223  1.00  0.00     0.131 A 
ATOM     14  C   UNL     1      59.240  -6.067   9.326  1.00  0.00     0.080 A 
ATOM     15  C   UNL     1      59.725  -6.245  10.692  1.00  0.00     0.198 C 
ATOM     16  O   UNL     1      60.920  -6.561  10.914  1.00  0.00    -0.288 OA
ATOM     17  C   UNL     1      60.504  -6.252   5.759  1.00  0.00     0.083 C 
ATOM     18  C   UNL     1      60.251  -5.287   4.636  1.00  0.00     0.132 C 
ATOM     19  C   UNL     1      58.916  -4.616   4.744  1.00  0.00     0.081 C 
ATOM     20  C   UNL     1      57.905  -5.566   5.311  1.00  0.00     0.159 C 
ENDROOT
BRANCH   1  21
ATOM     21  O   UNL     1      55.393  -5.198  12.454  1.00  0.00    -0.496 OA
ATOM     22  C   UNL     1      54.295  -5.540  13.247  1.00  0.00     0.278 C 
ENDBRANCH   1  21
BRANCH  10  23
ATOM     23  O   UNL     1      56.140  -5.201   7.619  1.00  0.00    -0.507 OA
ATOM     24  H   UNL     1      55.860  -4.243   7.471  1.00  0.00     0.293 HD
ENDBRANCH  10  23
BRANCH  13  25
ATOM     25  O   UNL     1      61.375  -6.583   8.465  1.00  0.00    -0.507 OA
ATOM     26  H   UNL     1      61.867  -6.336   9.312  1.00  0.00     0.293 HD
ENDBRANCH  13  25
BRANCH  20  27
ATOM     27  O   UNL     1      56.610  -5.170   5.191  1.00  0.00    -0.344 OA
BRANCH  27  28
ATOM     28  C   UNL     1      55.850  -5.897   4.300  1.00  0.00     0.252 C 
ATOM     29  C   UNL     1      55.437  -7.254   4.742  1.00  0.00     0.083 C 
ATOM     30  O   UNL     1      54.705  -5.146   4.031  1.00  0.00    -0.347 OA
ATOM     31  C   UNL     1      54.204  -7.637   3.929  1.00  0.00     0.087 C 
ATOM     32  C   UNL     1      53.646  -5.459   4.871  1.00  0.00     0.148 C 
ATOM     33  C   UNL     1      53.055  -6.827   4.510  1.00  0.00     0.160 C 
ATOM     34  C   UNL     1      52.566  -4.420   4.651  1.00  0.00     0.041 C 
BRANCH  31  35
ATOM     35  N   UNL     1      54.440  -7.116   2.584  1.00  0.00    -0.325 NA
ATOM     36  H   UNL     1      54.414  -6.091   2.549  1.00  0.00     0.119 HD
ATOM     37  H   UNL     1      55.257  -7.559   2.126  1.00  0.00     0.119 HD
ENDBRANCH  31  35
BRANCH  33  38
ATOM     38  O   UNL     1      52.056  -6.692   3.557  1.00  0.00    -0.389 OA
ATOM     39  H   UNL     1      51.823  -5.736   3.511  1.00  0.00     0.211 HD
ENDBRANCH  33  38
ENDBRANCH  27  28
ENDBRANCH  20  27
BRANCH  18  40
ATOM     40  O   UNL     1      61.205  -4.238   4.800  1.00  0.00    -0.382 OA
ATOM     41  H   UNL     1      62.118  -4.588   4.673  1.00  0.00     0.212 HD
ENDBRANCH  18  40
BRANCH  18  42
ATOM     42  C   UNL     1      60.524  -5.883   3.305  1.00  0.00     0.190 C 
ATOM     43  O   UNL     1      61.035  -6.989   3.237  1.00  0.00    -0.294 OA
BRANCH  42  44
ATOM     44  C   UNL     1      60.220  -5.224   2.016  1.00  0.00     0.234 C 
BRANCH  44  45
ATOM     45  O   UNL     1      60.853  -3.977   1.909  1.00  0.00    -0.388 OA
ATOM     46  H   UNL     1      60.203  -3.250   1.792  1.00  0.00     0.211 HD
ENDBRANCH  44  45
ENDBRANCH  42  44
ENDBRANCH  18  42
TORSDOF 11
ENDMDL
MODEL 2
REMARK VINA RESULT:      -5.5      1.023      1.052
REMARK SMILES COc1cccc2c1C(=O)c1c(O)c3c(c(O)c1C2=O)C[C@@](O)(C(=O)CO)C[C@@H]3O[C@H]1C[C@H](N)[C@H](O)[C@H](C)O1
REMARK SMILES IDX 3 1 4 2 5 3 6 4 7 5 8 6 9 7 10 8 11 9 12 10 14 11 15 12
REMARK SMILES IDX 16 13 18 14 19 15 20 16 21 17 22 18 28 19 29 20 2 21 1 22
REMARK SMILES IDX 13 23 17 25 30 27 31 28 32 29 39 30 33 31 37 32 35 33 38 34
REMARK SMILES IDX 34 35 36 38 23 40 24 42 25 43 26 44 27 45
REMARK H PARENT 13 24 17 26 34 36 34 37 36 39 23 41 27 46
ROOT
ATOM      1  C   UNL     1      56.257  -5.849  13.257  1.00  0.00     0.130 A 
ATOM      2  C   UNL     1      56.793  -5.971  14.502  1.00  0.00     0.047 A 
ATOM      3  C   UNL     1      58.136  -6.211  14.732  1.00  0.00     0.005 A 
ATOM      4  C   UNL     1      58.964  -6.331  13.641  1.00  0.00     0.013 A 
ATOM      5  C   UNL     1      58.428  -6.208  12.354  1.00  0.00     0.038 A 
ATOM      6  C   UNL     1      57.089  -5.969  12.160  1.00  0.00     0.076 A 
ATOM      7  C   UNL     1      56.557  -5.845  10.793  1.00  0.00     0.202 C 
ATOM      8  O   UNL     1      55.339  -5.629  10.651  1.00  0.00    -0.288 OA
ATOM      9  C   UNL     1      57.432  -5.971   9.635  1.00  0.00     0.080 A 
ATOM     10  C   UNL     1      56.948  -5.857   8.332  1.00  0.00     0.133 A 
ATOM     11  C   UNL     1      57.757  -5.973   7.244  1.00  0.00     0.031 A 
ATOM     12  C   UNL     1      59.133  -6.218   7.425  1.00  0.00     0.008 A 
ATOM     13  C   UNL     1      59.592  -6.327   8.714  1.00  0.00     0.131 A 
ATOM     14  C   UNL     1      58.781  -6.211   9.825  1.00  0.00     0.080 A 
ATOM     15  C   UNL     1      59.295  -6.332  11.186  1.00  0.00     0.198 C 
ATOM     16  O   UNL     1      60.515  -6.550  11.397  1.00  0.00    -0.288 OA
ATOM     17  C   UNL     1      60.012  -6.342   6.244  1.00  0.00     0.083 C 
ATOM     18  C   UNL     1      59.669  -5.414   5.113  1.00  0.00     0.132 C 
ATOM     19  C   UNL     1      58.286  -4.850   5.232  1.00  0.00     0.081 C 
ATOM     20  C   UNL     1      57.361  -5.869   5.823  1.00  0.00     0.159 C 
ENDROOT
BRANCH   1  21
ATOM     21  O   UNL     1      54.916  -5.608  12.994  1.00  0.00    -0.496 OA
ATOM     22  C   UNL     1      54.007  -5.080  13.913  1.00  0.00     0.278 C 
ENDBRANCH   1  21
BRANCH  10  23
ATOM     23  O   UNL     1      55.601  -5.616   8.149  1.00  0.00    -0.507 OA
ATOM     24  H   UNL     1      55.017  -5.270   8.896  1.00  0.00     0.293 HD
ENDBRANCH  10  23
BRANCH  13  25
ATOM     25  O   UNL     1      60.940  -6.568   8.942  1.00  0.00    -0.507 OA
ATOM     26  H   UNL     1      61.277  -7.193   9.661  1.00  0.00     0.293 HD
ENDBRANCH  13  25
BRANCH  20  27
ATOM     27  O   UNL     1      56.037  -5.578   5.715  1.00  0.00    -0.344 OA
BRANCH  27  28
ATOM     28  C   UNL     1      55.584  -5.361   4.432  1.00  0.00     0.252 C 
ATOM     29  C   UNL     1      55.532  -6.549   3.542  1.00  0.00     0.083 C 
ATOM     30  O   UNL     1      54.300  -4.824   4.538  1.00  0.00    -0.347 OA
ATOM     31  C   UNL     1      54.522  -6.242   2.440  1.00  0.00     0.087 C 
ATOM     32  C   UNL     1      53.307  -5.792   4.503  1.00  0.00     0.148 C 
ATOM     33  C   UNL     1      53.151  -6.358   3.087  1.00  0.00     0.160 C 
ATOM     34  C   UNL     1      52.001  -5.121   4.876  1.00  0.00     0.041 C 
BRANCH  31  35
ATOM     35  N   UNL     1      54.710  -4.829   2.114  1.00  0.00    -0.325 NA
ATOM     36  H   UNL     1      55.004  -4.275   2.925  1.00  0.00     0.119 HD
ATOM     37  H   UNL     1      55.268  -4.693   1.252  1.00  0.00     0.119 HD
ENDBRANCH  31  35
BRANCH  33  38
ATOM     38  O   UNL     1      52.233  -5.612   2.361  1.00  0.00    -0.389 OA
ATOM     39  H   UNL     1      52.342  -4.671   2.631  1.00  0.00     0.211 HD
ENDBRANCH  33  38
ENDBRANCH  27  28
ENDBRANCH  20  27
BRANCH  18  40
ATOM     40  O   UNL     1      60.539  -4.291   5.253  1.00  0.00    -0.382 OA
ATOM     41  H   UNL     1      60.087  -3.473   4.940  1.00  0.00     0.212 HD
ENDBRANCH  18  40
BRANCH  18  42
ATOM     42  C   UNL     1      59.973  -6.004   3.786  1.00  0.00     0.190 C 
ATOM     43  O   UNL     1      59.439  -7.051   3.459  1.00  0.00    -0.294 OA
BRANCH  42  44
ATOM     44  C   UNL     1      60.900  -5.407   2.799  1.00  0.00     0.234 C 
BRANCH  44  45
ATOM     45  O   UNL     1      62.195  -5.272   3.320  1.00  0.00    -0.388 OA
ATOM     46  H   UNL     1      62.697  -6.115   3.263  1.00  0.00     0.211 HD
ENDBRANCH  44  45
ENDBRANCH  42  44
ENDBRANCH  18  42
TORSDOF 11
ENDMDL
MODEL 3
REMARK VINA RESULT:      -5.5      1.598      1.984
REMARK SMILES COc1cccc2c1C(=O)c1c(O)c3c(c(O)c1C2=O)C[C@@](O)(C(=O)CO)C[C@@H]3O[C@H]1C[C@H](N)[C@H](O)[C@H](C)O1
REMARK SMILES IDX 3 1 4 2 5 3 6 4 7 5 8 6 9 7 10 8 11 9 12 10 14 11 15 12
REMARK SMILES IDX 16 13 18 14 19 15 20 16 21 17 22 18 28 19 29 20 2 21 1 22
REMARK SMILES IDX 13 23 17 25 30 27 31 28 32 29 39 30 33 31 37 32 35 33 38 34
REMARK SMILES IDX 34 35 36 38 23 40 24 42 25 43 26 44 27 45
REMARK H PARENT 13 24 17 26 34 36 34 37 36 39 23 41 27 46
ROOT
ATOM      1  C   UNL     1      55.050  -4.960  13.427  1.00  0.00     0.130 A 
ATOM      2  C   UNL     1      55.543  -4.718  14.673  1.00  0.00     0.047 A 
ATOM      3  C   UNL     1      56.895  -4.665  14.959  1.00  0.00     0.005 A 
ATOM      4  C   UNL     1      57.780  -4.869  13.926  1.00  0.00     0.013 A 
ATOM      5  C   UNL     1      57.289  -5.119  12.639  1.00  0.00     0.038 A 
ATOM      6  C   UNL     1      55.939  -5.165  12.389  1.00  0.00     0.076 A 
ATOM      7  C   UNL     1      55.454  -5.431  11.024  1.00  0.00     0.202 C 
ATOM      8  O   UNL     1      54.225  -5.466  10.830  1.00  0.00    -0.288 OA
ATOM      9  C   UNL     1      56.388  -5.647   9.928  1.00  0.00     0.080 A 
ATOM     10  C   UNL     1      55.950  -5.900   8.628  1.00  0.00     0.133 A 
ATOM     11  C   UNL     1      56.815  -6.103   7.597  1.00  0.00     0.031 A 
ATOM     12  C   UNL     1      58.203  -6.060   7.836  1.00  0.00     0.008 A 
ATOM     13  C   UNL     1      58.617  -5.809   9.121  1.00  0.00     0.131 A 
ATOM     14  C   UNL     1      57.749  -5.602  10.175  1.00  0.00     0.080 A 
ATOM     15  C   UNL     1      58.215  -5.337  11.533  1.00  0.00     0.198 C 
ATOM     16  O   UNL     1      59.443  -5.289  11.794  1.00  0.00    -0.288 OA
ATOM     17  C   UNL     1      59.142  -6.278   6.717  1.00  0.00     0.083 C 
ATOM     18  C   UNL     1      58.698  -5.688   5.408  1.00  0.00     0.132 C 
ATOM     19  C   UNL     1      57.236  -5.362   5.391  1.00  0.00     0.081 C 
ATOM     20  C   UNL     1      56.471  -6.377   6.185  1.00  0.00     0.159 C 
ENDROOT
BRANCH   1  21
ATOM     21  O   UNL     1      53.700  -5.020  13.110  1.00  0.00    -0.496 OA
ATOM     22  C   UNL     1      52.708  -5.534  13.946  1.00  0.00     0.278 C 
ENDBRANCH   1  21
BRANCH  10  23
ATOM     23  O   UNL     1      54.592  -5.943   8.388  1.00  0.00    -0.507 OA
ATOM     24  H   UNL     1      54.220  -6.133   7.469  1.00  0.00     0.293 HD
ENDBRANCH  10  23
BRANCH  13  25
ATOM     25  O   UNL     1      59.974  -5.756   9.405  1.00  0.00    -0.507 OA
ATOM     26  H   UNL     1      60.541  -4.935   9.248  1.00  0.00     0.293 HD
ENDBRANCH  13  25
BRANCH  20  27
ATOM     27  O   UNL     1      55.123  -6.351   6.007  1.00  0.00    -0.344 OA
BRANCH  27  28
ATOM     28  C   UNL     1      54.681  -5.577   4.956  1.00  0.00     0.252 C 
ATOM     29  C   UNL     1      54.361  -6.298   3.697  1.00  0.00     0.083 C 
ATOM     30  O   UNL     1      53.536  -4.910   5.394  1.00  0.00    -0.347 OA
ATOM     31  C   UNL     1      53.399  -5.416   2.906  1.00  0.00     0.087 C 
ATOM     32  C   UNL     1      52.367  -5.600   5.106  1.00  0.00     0.148 C 
ATOM     33  C   UNL     1      52.055  -5.534   3.607  1.00  0.00     0.160 C 
ATOM     34  C   UNL     1      51.237  -4.910   5.842  1.00  0.00     0.041 C 
BRANCH  31  35
ATOM     35  N   UNL     1      53.857  -4.044   3.115  1.00  0.00    -0.325 NA
ATOM     36  H   UNL     1      53.191  -3.349   2.760  1.00  0.00     0.119 HD
ATOM     37  H   UNL     1      54.200  -3.884   4.080  1.00  0.00     0.119 HD
ENDBRANCH  31  35
BRANCH  33  38
ATOM     38  O   UNL     1      51.282  -4.418   3.317  1.00  0.00    -0.389 OA
ATOM     39  H   UNL     1      50.989  -4.034   4.176  1.00  0.00     0.211 HD
ENDBRANCH  33  38
ENDBRANCH  27  28
ENDBRANCH  20  27
BRANCH  18  40
ATOM     40  O   UNL     1      59.359  -4.427   5.304  1.00  0.00    -0.382 OA
ATOM     41  H   UNL     1      59.993  -4.438   4.549  1.00  0.00     0.212 HD
ENDBRANCH  18  40
BRANCH  18  42
ATOM     42  C   UNL     1      59.156  -6.486   4.244  1.00  0.00     0.190 C 
ATOM     43  O   UNL     1      58.580  -7.525   3.966  1.00  0.00    -0.294 OA
BRANCH  42  44
ATOM     44  C   UNL     1      60.288  -6.112   3.367  1.00  0.00     0.234 C 
BRANCH  44  45
ATOM     45  O   UNL     1      61.445  -5.829   4.109  1.00  0.00    -0.388 OA
ATOM     46  H   UNL     1      61.931  -5.059   3.740  1.00  0.00     0.211 HD
ENDBRANCH  44  45
ENDBRANCH  42  44
ENDBRANCH  18  42
TORSDOF 11
ENDMDL
MODEL 4
REMARK VINA RESULT:      -5.4      2.823      7.820
REMARK SMILES COc1cccc2c1C(=O)c1c(O)c3c(c(O)c1C2=O)C[C@@](O)(C(=O)CO)C[C@@H]3O[C@H]1C[C@H](N)[C@H](O)[C@H](C)O1
REMARK SMILES IDX 3 1 4 2 5 3 6 4 7 5 8 6 9 7 10 8 11 9 12 10 14 11 15 12
REMARK SMILES IDX 16 13 18 14 19 15 20 16 21 17 22 18 28 19 29 20 2 21 1 22
REMARK SMILES IDX 13 23 17 25 30 27 31 28 32 29 39 30 33 31 37 32 35 33 38 34
REMARK SMILES IDX 34 35 36 38 23 40 24 42 25 43 26 44 27 45
REMARK H PARENT 13 24 17 26 34 36 34 37 36 39 23 41 27 46
ROOT
ATOM      1  C   UNL     1      53.869  -5.739   4.721  1.00  0.00     0.130 A 
ATOM      2  C   UNL     1      53.956  -5.575   3.373  1.00  0.00     0.047 A 
ATOM      3  C   UNL     1      55.158  -5.490   2.693  1.00  0.00     0.005 A 
ATOM      4  C   UNL     1      56.319  -5.575   3.425  1.00  0.00     0.013 A 
ATOM      5  C   UNL     1      56.246  -5.743   4.813  1.00  0.00     0.038 A 
ATOM      6  C   UNL     1      55.035  -5.825   5.457  1.00  0.00     0.076 A 
ATOM      7  C   UNL     1      54.993  -6.001   6.918  1.00  0.00     0.202 C 
ATOM      8  O   UNL     1      53.880  -6.071   7.473  1.00  0.00    -0.288 OA
ATOM      9  C   UNL     1      56.220  -6.092   7.697  1.00  0.00     0.080 A 
ATOM     10  C   UNL     1      56.202  -6.259   9.082  1.00  0.00     0.133 A 
ATOM     11  C   UNL     1      57.343  -6.345   9.817  1.00  0.00     0.031 A 
ATOM     12  C   UNL     1      58.593  -6.264   9.173  1.00  0.00     0.008 A 
ATOM     13  C   UNL     1      58.593  -6.099   7.809  1.00  0.00     0.131 A 
ATOM     14  C   UNL     1      57.442  -6.011   7.052  1.00  0.00     0.080 A 
ATOM     15  C   UNL     1      57.469  -5.836   5.603  1.00  0.00     0.198 C 
ATOM     16  O   UNL     1      58.560  -5.758   4.984  1.00  0.00    -0.288 OA
ATOM     17  C   UNL     1      59.832  -6.359   9.971  1.00  0.00     0.083 C 
ATOM     18  C   UNL     1      59.764  -7.333  11.114  1.00  0.00     0.132 C 
ATOM     19  C   UNL     1      58.355  -7.702  11.469  1.00  0.00     0.081 C 
ATOM     20  C   UNL     1      57.449  -6.524  11.282  1.00  0.00     0.159 C 
ENDROOT
BRANCH   1  21
ATOM     21  O   UNL     1      52.680  -5.828   5.430  1.00  0.00    -0.496 OA
ATOM     22  C   UNL     1      51.607  -4.943   5.300  1.00  0.00     0.278 C 
ENDBRANCH   1  21
BRANCH  10  23
ATOM     23  O   UNL     1      54.980  -6.341   9.718  1.00  0.00    -0.507 OA
ATOM     24  H   UNL     1      54.359  -7.123   9.577  1.00  0.00     0.293 HD
ENDBRANCH  10  23
BRANCH  13  25
ATOM     25  O   UNL     1      59.800  -6.014   7.130  1.00  0.00    -0.507 OA
ATOM     26  H   UNL     1      60.680  -5.819   7.586  1.00  0.00     0.293 HD
ENDBRANCH  13  25
BRANCH  20  27
ATOM     27  O   UNL     1      56.215  -6.651  11.838  1.00  0.00    -0.344 OA
BRANCH  27  28
ATOM     28  C   UNL     1      55.942  -5.784  12.874  1.00  0.00     0.252 C 
ATOM     29  C   UNL     1      57.037  -5.566  13.856  1.00  0.00     0.083 C 
ATOM     30  O   UNL     1      55.603  -4.558  12.302  1.00  0.00    -0.347 OA
ATOM     31  C   UNL     1      56.771  -4.226  14.536  1.00  0.00     0.087 C 
ATOM     32  C   UNL     1      56.692  -3.711  12.155  1.00  0.00     0.148 C 
ATOM     33  C   UNL     1      57.137  -3.161  13.515  1.00  0.00     0.160 C 
ATOM     34  C   UNL     1      56.248  -2.537  11.307  1.00  0.00     0.041 C 
BRANCH  31  35
ATOM     35  N   UNL     1      55.321  -4.153  14.711  1.00  0.00    -0.325 NA
ATOM     36  H   UNL     1      54.998  -3.200  14.912  1.00  0.00     0.119 HD
ATOM     37  H   UNL     1      54.807  -4.652  13.963  1.00  0.00     0.119 HD
ENDBRANCH  31  35
BRANCH  33  38
ATOM     38  O   UNL     1      56.462  -1.985  13.811  1.00  0.00    -0.389 OA
ATOM     39  H   UNL     1      56.655  -1.346  13.086  1.00  0.00     0.211 HD
ENDBRANCH  33  38
ENDBRANCH  27  28
ENDBRANCH  20  27
BRANCH  18  40
ATOM     40  O   UNL     1      60.352  -8.541  10.633  1.00  0.00    -0.382 OA
ATOM     41  H   UNL     1      60.570  -8.453   9.675  1.00  0.00     0.212 HD
ENDBRANCH  18  40
BRANCH  18  42
ATOM     42  C   UNL     1      60.590  -6.908  12.270  1.00  0.00     0.190 C 
ATOM     43  O   UNL     1      61.610  -7.523  12.536  1.00  0.00    -0.294 OA
BRANCH  42  44
ATOM     44  C   UNL     1      60.267  -5.765  13.153  1.00  0.00     0.234 C 
BRANCH  44  45
ATOM     45  O   UNL     1      60.133  -4.572  12.428  1.00  0.00    -0.388 OA
ATOM     46  H   UNL     1      59.282  -4.540  11.939  1.00  0.00     0.211 HD
ENDBRANCH  44  45
ENDBRANCH  42  44
ENDBRANCH  18  42
TORSDOF 11
ENDMDL
MODEL 5
REMARK VINA RESULT:      -5.2      5.344     11.809
REMARK SMILES COc1cccc2c1C(=O)c1c(O)c3c(c(O)c1C2=O)C[C@@](O)(C(=O)CO)C[C@@H]3O[C@H]1C[C@H](N)[C@H](O)[C@H](C)O1
REMARK SMILES IDX 3 1 4 2 5 3 6 4 7 5 8 6 9 7 10 8 11 9 12 10 14 11 15 12
REMARK SMILES IDX 16 13 18 14 19 15 20 16 21 17 22 18 28 19 29 20 2 21 1 22
REMARK SMILES IDX 13 23 17 25 30 27 31 28 32 29 39 30 33 31 37 32 35 33 38 34
REMARK SMILES IDX 34 35 36 38 23 40 24 42 25 43 26 44 27 45
REMARK H PARENT 13 24 17 26 34 36 34 37 36 39 23 41 27 46
ROOT
ATOM      1  C   UNL     1      66.817  -4.595  -2.782  1.00  0.00     0.130 A 
ATOM      2  C   UNL     1      67.646  -4.997  -3.784  1.00  0.00     0.047 A 
ATOM      3  C   UNL     1      67.273  -5.900  -4.763  1.00  0.00     0.005 A 
ATOM      4  C   UNL     1      65.999  -6.414  -4.714  1.00  0.00     0.013 A 
ATOM      5  C   UNL     1      65.134  -6.011  -3.689  1.00  0.00     0.038 A 
ATOM      6  C   UNL     1      65.536  -5.111  -2.732  1.00  0.00     0.076 A 
ATOM      7  C   UNL     1      64.603  -4.708  -1.667  1.00  0.00     0.202 C 
ATOM      8  O   UNL     1      64.997  -3.891  -0.814  1.00  0.00    -0.288 OA
ATOM      9  C   UNL     1      63.252  -5.250  -1.611  1.00  0.00     0.080 A 
ATOM     10  C   UNL     1      62.352  -4.881  -0.611  1.00  0.00     0.133 A 
ATOM     11  C   UNL     1      61.089  -5.382  -0.551  1.00  0.00     0.031 A 
ATOM     12  C   UNL     1      60.660  -6.306  -1.524  1.00  0.00     0.008 A 
ATOM     13  C   UNL     1      61.558  -6.658  -2.501  1.00  0.00     0.131 A 
ATOM     14  C   UNL     1      62.842  -6.157  -2.573  1.00  0.00     0.080 A 
ATOM     15  C   UNL     1      63.779  -6.547  -3.623  1.00  0.00     0.198 C 
ATOM     16  O   UNL     1      63.442  -7.368  -4.513  1.00  0.00    -0.288 OA
ATOM     17  C   UNL     1      59.288  -6.848  -1.460  1.00  0.00     0.083 C 
ATOM     18  C   UNL     1      58.248  -5.859  -1.014  1.00  0.00     0.132 C 
ATOM     19  C   UNL     1      58.846  -4.663  -0.338  1.00  0.00     0.081 C 
ATOM     20  C   UNL     1      60.051  -5.066   0.455  1.00  0.00     0.159 C 
ENDROOT
BRANCH   1  21
ATOM     21  O   UNL     1      67.161  -3.691  -1.786  1.00  0.00    -0.496 OA
ATOM     22  C   UNL     1      68.467  -3.301  -1.483  1.00  0.00     0.278 C 
ENDBRANCH   1  21
BRANCH  10  23
ATOM     23  O   UNL     1      62.766  -3.975   0.345  1.00  0.00    -0.507 OA
ATOM     24  H   UNL     1      62.565  -2.990   0.265  1.00  0.00     0.293 HD
ENDBRANCH  10  23
BRANCH  13  25
ATOM     25  O   UNL     1      61.182  -7.564  -3.483  1.00  0.00    -0.507 OA
ATOM     26  H   UNL     1      60.883  -7.287  -4.408  1.00  0.00     0.293 HD
ENDBRANCH  13  25
BRANCH  20  27
ATOM     27  O   UNL     1      60.504  -4.130   1.332  1.00  0.00    -0.344 OA
BRANCH  27  28
ATOM     28  C   UNL     1      59.931  -4.169   2.584  1.00  0.00     0.252 C 
ATOM     29  C   UNL     1      59.029  -5.318   2.861  1.00  0.00     0.083 C 
ATOM     30  O   UNL     1      60.974  -4.186   3.511  1.00  0.00    -0.347 OA
ATOM     31  C   UNL     1      58.970  -5.489   4.376  1.00  0.00     0.087 C 
ATOM     32  C   UNL     1      61.354  -5.471   3.872  1.00  0.00     0.148 C 
ATOM     33  C   UNL     1      60.297  -6.114   4.777  1.00  0.00     0.160 C 
ATOM     34  C   UNL     1      62.637  -5.361   4.670  1.00  0.00     0.041 C 
BRANCH  31  35
ATOM     35  N   UNL     1      58.965  -4.135   4.927  1.00  0.00    -0.325 NA
ATOM     36  H   UNL     1      58.839  -3.418   4.205  1.00  0.00     0.119 HD
ATOM     37  H   UNL     1      58.350  -4.048   5.756  1.00  0.00     0.119 HD
ENDBRANCH  31  35
BRANCH  33  38
ATOM     38  O   UNL     1      60.557  -5.830   6.110  1.00  0.00    -0.389 OA
ATOM     39  H   UNL     1      60.355  -4.876   6.251  1.00  0.00     0.211 HD
ENDBRANCH  33  38
ENDBRANCH  27  28
ENDBRANCH  20  27
BRANCH  18  40
ATOM     40  O   UNL     1      57.655  -5.350  -2.209  1.00  0.00    -0.382 OA
ATOM     41  H   UNL     1      58.088  -4.503  -2.467  1.00  0.00     0.212 HD
ENDBRANCH  18  40
BRANCH  18  42
ATOM     42  C   UNL     1      57.147  -6.499  -0.254  1.00  0.00     0.190 C 
ATOM     43  O   UNL     1      57.222  -7.685   0.025  1.00  0.00    -0.294 OA
BRANCH  42  44
ATOM     44  C   UNL     1      55.930  -5.796   0.208  1.00  0.00     0.234 C 
BRANCH  44  45
ATOM     45  O   UNL     1      55.182  -5.295  -0.868  1.00  0.00    -0.388 OA
ATOM     46  H   UNL     1      54.241  -5.571  -0.814  1.00  0.00     0.211 HD
ENDBRANCH  44  45
ENDBRANCH  42  44
ENDBRANCH  18  42
TORSDOF 11
ENDMDL
MODEL 6
REMARK VINA RESULT:      -5.2      2.343      7.853
REMARK SMILES COc1cccc2c1C(=O)c1c(O)c3c(c(O)c1C2=O)C[C@@](O)(C(=O)CO)C[C@@H]3O[C@H]1C[C@H](N)[C@H](O)[C@H](C)O1
REMARK SMILES IDX 3 1 4 2 5 3 6 4 7 5 8 6 9 7 10 8 11 9 12 10 14 11 15 12
REMARK SMILES IDX 16 13 18 14 19 15 20 16 21 17 22 18 28 19 29 20 2 21 1 22
REMARK SMILES IDX 13 23 17 25 30 27 31 28 32 29 39 30 33 31 37 32 35 33 38 34
REMARK SMILES IDX 34 35 36 38 23 40 24 42 25 43 26 44 27 45
REMARK H PARENT 13 24 17 26 34 36 34 37 36 39 23 41 27 46
ROOT
ATOM      1  C   UNL     1      61.452  -5.261  -0.277  1.00  0.00     0.130 A 
ATOM      2  C   UNL     1      62.551  -5.354  -1.074  1.00  0.00     0.047 A 
ATOM      3  C   UNL     1      63.818  -5.638  -0.594  1.00  0.00     0.005 A 
ATOM      4  C   UNL     1      63.964  -5.834   0.759  1.00  0.00     0.013 A 
ATOM      5  C   UNL     1      62.842  -5.741   1.592  1.00  0.00     0.038 A 
ATOM      6  C   UNL     1      61.598  -5.458   1.083  1.00  0.00     0.076 A 
ATOM      7  C   UNL     1      60.439  -5.366   1.986  1.00  0.00     0.202 C 
ATOM      8  O   UNL     1      59.325  -5.108   1.493  1.00  0.00    -0.288 OA
ATOM      9  C   UNL     1      60.590  -5.573   3.420  1.00  0.00     0.080 A 
ATOM     10  C   UNL     1      59.505  -5.491   4.293  1.00  0.00     0.133 A 
ATOM     11  C   UNL     1      59.636  -5.683   5.633  1.00  0.00     0.031 A 
ATOM     12  C   UNL     1      60.905  -5.974   6.173  1.00  0.00     0.008 A 
ATOM     13  C   UNL     1      61.962  -6.051   5.300  1.00  0.00     0.131 A 
ATOM     14  C   UNL     1      61.841  -5.859   3.938  1.00  0.00     0.080 A 
ATOM     15  C   UNL     1      62.982  -5.946   3.030  1.00  0.00     0.198 C 
ATOM     16  O   UNL     1      64.132  -6.203   3.465  1.00  0.00    -0.288 OA
ATOM     17  C   UNL     1      61.047  -6.184   7.628  1.00  0.00     0.083 C 
ATOM     18  C   UNL     1      59.897  -6.910   8.268  1.00  0.00     0.132 C 
ATOM     19  C   UNL     1      58.671  -6.913   7.407  1.00  0.00     0.081 C 
ATOM     20  C   UNL     1      58.566  -5.623   6.652  1.00  0.00     0.159 C 
ENDROOT
BRANCH   1  21
ATOM     21  O   UNL     1      60.171  -4.978  -0.729  1.00  0.00    -0.496 OA
ATOM     22  C   UNL     1      59.519  -5.664  -1.756  1.00  0.00     0.278 C 
ENDBRANCH   1  21
BRANCH  10  23
ATOM     23  O   UNL     1      58.260  -5.207   3.770  1.00  0.00    -0.507 OA
ATOM     24  H   UNL     1      57.541  -5.912   3.699  1.00  0.00     0.293 HD
ENDBRANCH  10  23
BRANCH  13  25
ATOM     25  O   UNL     1      63.231  -6.336   5.784  1.00  0.00    -0.507 OA
ATOM     26  H   UNL     1      63.422  -6.523   6.758  1.00  0.00     0.293 HD
ENDBRANCH  13  25
BRANCH  20  27
ATOM     27  O   UNL     1      57.360  -5.395   6.065  1.00  0.00    -0.344 OA
BRANCH  27  28
ATOM     28  C   UNL     1      56.419  -6.386   6.245  1.00  0.00     0.252 C 
ATOM     29  C   UNL     1      55.219  -6.018   7.041  1.00  0.00     0.083 C 
ATOM     30  O   UNL     1      56.007  -6.794   4.976  1.00  0.00    -0.347 OA
ATOM     31  C   UNL     1      54.108  -6.989   6.655  1.00  0.00     0.087 C 
ATOM     32  C   UNL     1      54.891  -6.103   4.524  1.00  0.00     0.148 C 
ATOM     33  C   UNL     1      53.634  -6.554   5.277  1.00  0.00     0.160 C 
ATOM     34  C   UNL     1      54.700  -6.450   3.062  1.00  0.00     0.041 C 
BRANCH  31  35
ATOM     35  N   UNL     1      54.759  -8.286   6.480  1.00  0.00    -0.325 NA
ATOM     36  H   UNL     1      54.757  -8.846   7.339  1.00  0.00     0.119 HD
ATOM     37  H   UNL     1      54.440  -8.777   5.625  1.00  0.00     0.119 HD
ENDBRANCH  31  35
BRANCH  33  38
ATOM     38  O   UNL     1      53.037  -7.628   4.633  1.00  0.00    -0.389 OA
ATOM     39  H   UNL     1      52.497  -8.108   5.303  1.00  0.00     0.211 HD
ENDBRANCH  33  38
ENDBRANCH  27  28
ENDBRANCH  20  27
BRANCH  18  40
ATOM     40  O   UNL     1      60.296  -8.278   8.347  1.00  0.00    -0.382 OA
ATOM     41  H   UNL     1      61.279  -8.342   8.387  1.00  0.00     0.212 HD
ENDBRANCH  18  40
BRANCH  18  42
ATOM     42  C   UNL     1      59.658  -6.472   9.664  1.00  0.00     0.190 C 
ATOM     43  O   UNL     1      60.420  -5.671  10.180  1.00  0.00    -0.294 OA
BRANCH  42  44
ATOM     44  C   UNL     1      58.536  -6.942  10.507  1.00  0.00     0.234 C 
BRANCH  44  45
ATOM     45  O   UNL     1      58.609  -8.324  10.741  1.00  0.00    -0.388 OA
ATOM     46  H   UNL     1      57.737  -8.758  10.612  1.00  0.00     0.211 HD
ENDBRANCH  44  45
ENDBRANCH  42  44
ENDBRANCH  18  42
TORSDOF 11
ENDMDL
MODEL 7
REMARK VINA RESULT:      -5.1      4.658      9.767
REMARK SMILES COc1cccc2c1C(=O)c1c(O)c3c(c(O)c1C2=O)C[C@@](O)(C(=O)CO)C[C@@H]3O[C@H]1C[C@H](N)[C@H](O)[C@H](C)O1
REMARK SMILES IDX 3 1 4 2 5 3 6 4 7 5 8 6 9 7 10 8 11 9 12 10 14 11 15 12
REMARK SMILES IDX 16 13 18 14 19 15 20 16 21 17 22 18 28 19 29 20 2 21 1 22
REMARK SMILES IDX 13 23 17 25 30 27 31 28 32 29 39 30 33 31 37 32 35 33 38 34
REMARK SMILES IDX 34 35 36 38 23 40 24 42 25 43 26 44 27 45
REMARK H PARENT 13 24 17 26 34 36 34 37 36 39 23 41 27 46
ROOT
ATOM      1  C   UNL     1      67.848  -7.176   2.733  1.00  0.00     0.130 A 
ATOM      2  C   UNL     1      69.118  -6.995   2.280  1.00  0.00     0.047 A 
ATOM      3  C   UNL     1      69.415  -6.434   1.051  1.00  0.00     0.005 A 
ATOM      4  C   UNL     1      68.366  -6.042   0.253  1.00  0.00     0.013 A 
ATOM      5  C   UNL     1      67.053  -6.222   0.705  1.00  0.00     0.038 A 
ATOM      6  C   UNL     1      66.793  -6.782   1.932  1.00  0.00     0.076 A 
ATOM      7  C   UNL     1      65.401  -6.958   2.378  1.00  0.00     0.202 C 
ATOM      8  O   UNL     1      65.199  -7.470   3.495  1.00  0.00    -0.288 OA
ATOM      9  C   UNL     1      64.288  -6.544   1.536  1.00  0.00     0.080 A 
ATOM     10  C   UNL     1      62.962  -6.701   1.939  1.00  0.00     0.133 A 
ATOM     11  C   UNL     1      61.915  -6.318   1.160  1.00  0.00     0.031 A 
ATOM     12  C   UNL     1      62.163  -5.741  -0.102  1.00  0.00     0.008 A 
ATOM     13  C   UNL     1      63.474  -5.593  -0.483  1.00  0.00     0.131 A 
ATOM     14  C   UNL     1      64.544  -5.978   0.299  1.00  0.00     0.080 A 
ATOM     15  C   UNL     1      65.929  -5.811  -0.131  1.00  0.00     0.198 C 
ATOM     16  O   UNL     1      66.200  -5.301  -1.247  1.00  0.00    -0.288 OA
ATOM     17  C   UNL     1      61.027  -5.323  -0.948  1.00  0.00     0.083 C 
ATOM     18  C   UNL     1      59.871  -4.733  -0.191  1.00  0.00     0.132 C 
ATOM     19  C   UNL     1      59.918  -5.057   1.272  1.00  0.00     0.081 C 
ATOM     20  C   UNL     1      60.476  -6.432   1.479  1.00  0.00     0.159 C 
ENDROOT
BRANCH   1  21
ATOM     21  O   UNL     1      67.519  -7.736   3.961  1.00  0.00    -0.496 OA
ATOM     22  C   UNL     1      68.408  -8.435   4.780  1.00  0.00     0.278 C 
ENDBRANCH   1  21
BRANCH  10  23
ATOM     23  O   UNL     1      62.713  -7.265   3.175  1.00  0.00    -0.507 OA
ATOM     24  H   UNL     1      63.454  -7.647   3.743  1.00  0.00     0.293 HD
ENDBRANCH  10  23
BRANCH  13  25
ATOM     25  O   UNL     1      63.768  -5.030  -1.717  1.00  0.00    -0.507 OA
ATOM     26  H   UNL     1      64.675  -4.650  -1.950  1.00  0.00     0.293 HD
ENDBRANCH  13  25
BRANCH  20  27
ATOM     27  O   UNL     1      60.302  -6.942   2.728  1.00  0.00    -0.344 OA
BRANCH  27  28
ATOM     28  C   UNL     1      59.427  -6.246   3.533  1.00  0.00     0.252 C 
ATOM     29  C   UNL     1      58.203  -6.973   3.959  1.00  0.00     0.083 C 
ATOM     30  O   UNL     1      60.137  -5.861   4.671  1.00  0.00    -0.347 OA
ATOM     31  C   UNL     1      57.695  -6.295   5.228  1.00  0.00     0.087 C 
ATOM     32  C   UNL     1      60.035  -6.779   5.707  1.00  0.00     0.148 C 
ATOM     33  C   UNL     1      58.639  -6.730   6.338  1.00  0.00     0.160 C 
ATOM     34  C   UNL     1      61.036  -6.381   6.772  1.00  0.00     0.041 C 
BRANCH  31  35
ATOM     35  N   UNL     1      57.918  -4.865   5.029  1.00  0.00    -0.325 NA
ATOM     36  H   UNL     1      57.583  -4.538   4.116  1.00  0.00     0.119 HD
ATOM     37  H   UNL     1      57.618  -4.300   5.844  1.00  0.00     0.119 HD
ENDBRANCH  31  35
BRANCH  33  38
ATOM     38  O   UNL     1      58.601  -5.800   7.368  1.00  0.00    -0.389 OA
ATOM     39  H   UNL     1      58.728  -4.910   6.963  1.00  0.00     0.211 HD
ENDBRANCH  33  38
ENDBRANCH  27  28
ENDBRANCH  20  27
BRANCH  18  40
ATOM     40  O   UNL     1      60.039  -3.317  -0.261  1.00  0.00    -0.382 OA
ATOM     41  H   UNL     1      60.280  -2.961   0.626  1.00  0.00     0.212 HD
ENDBRANCH  18  40
BRANCH  18  42
ATOM     42  C   UNL     1      58.566  -5.022  -0.835  1.00  0.00     0.190 C 
ATOM     43  O   UNL     1      58.541  -5.638  -1.887  1.00  0.00    -0.294 OA
BRANCH  42  44
ATOM     44  C   UNL     1      57.255  -4.609  -0.288  1.00  0.00     0.234 C 
BRANCH  44  45
ATOM     45  O   UNL     1      57.213  -3.232  -0.027  1.00  0.00    -0.388 OA
ATOM     46  H   UNL     1      56.875  -3.046   0.877  1.00  0.00     0.211 HD
ENDBRANCH  44  45
ENDBRANCH  42  44
ENDBRANCH  18  42
TORSDOF 11
ENDMDL
MODEL 8
REMARK VINA RESULT:      -5.0      0.897      1.141
REMARK SMILES COc1cccc2c1C(=O)c1c(O)c3c(c(O)c1C2=O)C[C@@](O)(C(=O)CO)C[C@@H]3O[C@H]1C[C@H](N)[C@H](O)[C@H](C)O1
REMARK SMILES IDX 3 1 4 2 5 3 6 4 7 5 8 6 9 7 10 8 11 9 12 10 14 11 15 12
REMARK SMILES IDX 16 13 18 14 19 15 20 16 21 17 22 18 28 19 29 20 2 21 1 22
REMARK SMILES IDX 13 23 17 25 30 27 31 28 32 29 39 30 33 31 37 32 35 33 38 34
REMARK SMILES IDX 34 35 36 38 23 40 24 42 25 43 26 44 27 45
REMARK H PARENT 13 24 17 26 34 36 34 37 36 39 23 41 27 46
ROOT
ATOM      1  C   UNL     1      56.106  -5.492  13.160  1.00  0.00     0.130 A 
ATOM      2  C   UNL     1      56.613  -5.564  14.420  1.00  0.00     0.047 A 
ATOM      3  C   UNL     1      57.946  -5.819  14.691  1.00  0.00     0.005 A 
ATOM      4  C   UNL     1      58.794  -6.008  13.625  1.00  0.00     0.013 A 
ATOM      5  C   UNL     1      58.287  -5.937  12.322  1.00  0.00     0.038 A 
ATOM      6  C   UNL     1      56.958  -5.682  12.088  1.00  0.00     0.076 A 
ATOM      7  C   UNL     1      56.456  -5.614  10.706  1.00  0.00     0.202 C 
ATOM      8  O   UNL     1      55.246  -5.381  10.527  1.00  0.00    -0.288 OA
ATOM      9  C   UNL     1      57.352  -5.813   9.574  1.00  0.00     0.080 A 
ATOM     10  C   UNL     1      56.897  -5.753   8.257  1.00  0.00     0.133 A 
ATOM     11  C   UNL     1      57.725  -5.938   7.194  1.00  0.00     0.031 A 
ATOM     12  C   UNL     1      59.092  -6.201   7.415  1.00  0.00     0.008 A 
ATOM     13  C   UNL     1      59.523  -6.257   8.718  1.00  0.00     0.131 A 
ATOM     14  C   UNL     1      58.692  -6.071   9.805  1.00  0.00     0.080 A 
ATOM     15  C   UNL     1      59.175  -6.135  11.181  1.00  0.00     0.198 C 
ATOM     16  O   UNL     1      60.385  -6.367  11.428  1.00  0.00    -0.288 OA
ATOM     17  C   UNL     1      59.992  -6.400   6.261  1.00  0.00     0.083 C 
ATOM     18  C   UNL     1      59.692  -5.522   5.079  1.00  0.00     0.132 C 
ATOM     19  C   UNL     1      58.319  -4.926   5.141  1.00  0.00     0.081 C 
ATOM     20  C   UNL     1      57.361  -5.896   5.761  1.00  0.00     0.159 C 
ENDROOT
BRANCH   1  21
ATOM     21  O   UNL     1      54.775  -5.238  12.857  1.00  0.00    -0.496 OA
ATOM     22  C   UNL     1      53.697  -5.544  13.690  1.00  0.00     0.278 C 
ENDBRANCH   1  21
BRANCH  10  23
ATOM     23  O   UNL     1      55.560  -5.495   8.034  1.00  0.00    -0.507 OA
ATOM     24  H   UNL     1      55.255  -4.855   7.316  1.00  0.00     0.293 HD
ENDBRANCH  10  23
BRANCH  13  25
ATOM     25  O   UNL     1      60.860  -6.512   8.987  1.00  0.00    -0.507 OA
ATOM     26  H   UNL     1      61.540  -6.718   8.268  1.00  0.00     0.293 HD
ENDBRANCH  13  25
BRANCH  20  27
ATOM     27  O   UNL     1      56.046  -5.585   5.611  1.00  0.00    -0.344 OA
BRANCH  27  28
ATOM     28  C   UNL     1      55.456  -6.057   4.458  1.00  0.00     0.252 C 
ATOM     29  C   UNL     1      54.677  -7.316   4.585  1.00  0.00     0.083 C 
ATOM     30  O   UNL     1      54.609  -5.051   3.992  1.00  0.00    -0.347 OA
ATOM     31  C   UNL     1      53.687  -7.351   3.425  1.00  0.00     0.087 C 
ATOM     32  C   UNL     1      53.310  -5.179   4.463  1.00  0.00     0.148 C 
ATOM     33  C   UNL     1      52.598  -6.350   3.775  1.00  0.00     0.160 C 
ATOM     34  C   UNL     1      52.564  -3.911   4.100  1.00  0.00     0.041 C 
BRANCH  31  35
ATOM     35  N   UNL     1      54.404  -6.800   2.276  1.00  0.00    -0.325 NA
ATOM     36  H   UNL     1      54.333  -5.778   2.223  1.00  0.00     0.119 HD
ATOM     37  H   UNL     1      55.360  -7.187   2.184  1.00  0.00     0.119 HD
ENDBRANCH  31  35
BRANCH  33  38
ATOM     38  O   UNL     1      51.968  -5.925   2.614  1.00  0.00    -0.389 OA
ATOM     39  H   UNL     1      51.881  -4.945   2.670  1.00  0.00     0.211 HD
ENDBRANCH  33  38
ENDBRANCH  27  28
ENDBRANCH  20  27
BRANCH  18  40
ATOM     40  O   UNL     1      60.582  -4.410   5.183  1.00  0.00    -0.382 OA
ATOM     41  H   UNL     1      60.081  -3.598   5.430  1.00  0.00     0.212 HD
ENDBRANCH  18  40
BRANCH  18  42
ATOM     42  C   UNL     1      60.011  -6.181   3.789  1.00  0.00     0.190 C 
ATOM     43  O   UNL     1      61.125  -6.053   3.310  1.00  0.00    -0.294 OA
BRANCH  42  44
ATOM     44  C   UNL     1      59.057  -7.005   3.014  1.00  0.00     0.234 C 
BRANCH  44  45
ATOM     45  O   UNL     1      59.186  -8.369   3.317  1.00  0.00    -0.388 OA
ATOM     46  H   UNL     1      58.992  -8.932   2.536  1.00  0.00     0.211 HD
ENDBRANCH  44  45
ENDBRANCH  42  44
ENDBRANCH  18  42
TORSDOF 11
ENDMDL
MODEL 9
REMARK VINA RESULT:      -5.0      2.737      4.544
REMARK SMILES COc1cccc2c1C(=O)c1c(O)c3c(c(O)c1C2=O)C[C@@](O)(C(=O)CO)C[C@@H]3O[C@H]1C[C@H](N)[C@H](O)[C@H](C)O1
REMARK SMILES IDX 3 1 4 2 5 3 6 4 7 5 8 6 9 7 10 8 11 9 12 10 14 11 15 12
REMARK SMILES IDX 16 13 18 14 19 15 20 16 21 17 22 18 28 19 29 20 2 21 1 22
REMARK SMILES IDX 13 23 17 25 30 27 31 28 32 29 39 30 33 31 37 32 35 33 38 34
REMARK SMILES IDX 34 35 36 38 23 40 24 42 25 43 26 44 27 45
REMARK H PARENT 13 24 17 26 34 36 34 37 36 39 23 41 27 46
ROOT
ATOM      1  C   UNL     1      53.607  -6.522   8.942  1.00  0.00     0.130 A 
ATOM      2  C   UNL     1      53.081  -6.868  10.148  1.00  0.00     0.047 A 
ATOM      3  C   UNL     1      53.843  -7.336  11.204  1.00  0.00     0.005 A 
ATOM      4  C   UNL     1      55.200  -7.455  11.015  1.00  0.00     0.013 A 
ATOM      5  C   UNL     1      55.756  -7.103   9.780  1.00  0.00     0.038 A 
ATOM      6  C   UNL     1      54.971  -6.640   8.752  1.00  0.00     0.076 A 
ATOM      7  C   UNL     1      55.586  -6.279   7.464  1.00  0.00     0.202 C 
ATOM      8  O   UNL     1      54.848  -5.864   6.552  1.00  0.00    -0.288 OA
ATOM      9  C   UNL     1      57.024  -6.403   7.261  1.00  0.00     0.080 A 
ATOM     10  C   UNL     1      57.627  -6.066   6.050  1.00  0.00     0.133 A 
ATOM     11  C   UNL     1      58.968  -6.178   5.850  1.00  0.00     0.031 A 
ATOM     12  C   UNL     1      59.788  -6.650   6.894  1.00  0.00     0.008 A 
ATOM     13  C   UNL     1      59.178  -6.978   8.080  1.00  0.00     0.131 A 
ATOM     14  C   UNL     1      57.819  -6.868   8.294  1.00  0.00     0.080 A 
ATOM     15  C   UNL     1      57.195  -7.223   9.565  1.00  0.00     0.198 C 
ATOM     16  O   UNL     1      57.885  -7.648  10.525  1.00  0.00    -0.288 OA
ATOM     17  C   UNL     1      61.244  -6.770   6.679  1.00  0.00     0.083 C 
ATOM     18  C   UNL     1      61.842  -5.677   5.840  1.00  0.00     0.132 C 
ATOM     19  C   UNL     1      60.809  -4.925   5.057  1.00  0.00     0.081 C 
ATOM     20  C   UNL     1      59.717  -5.851   4.618  1.00  0.00     0.159 C 
ENDROOT
BRANCH   1  21
ATOM     21  O   UNL     1      52.870  -6.050   7.865  1.00  0.00    -0.496 OA
ATOM     22  C   UNL     1      51.579  -5.525   7.953  1.00  0.00     0.278 C 
ENDBRANCH   1  21
BRANCH  10  23
ATOM     23  O   UNL     1      56.828  -5.601   5.024  1.00  0.00    -0.507 OA
ATOM     24  H   UNL     1      56.557  -4.632   4.960  1.00  0.00     0.293 HD
ENDBRANCH  10  23
BRANCH  13  25
ATOM     25  O   UNL     1      59.944  -7.447   9.138  1.00  0.00    -0.507 OA
ATOM     26  H   UNL     1      59.618  -8.144   9.791  1.00  0.00     0.293 HD
ENDBRANCH  13  25
BRANCH  20  27
ATOM     27  O   UNL     1      58.882  -5.350   3.669  1.00  0.00    -0.344 OA
BRANCH  27  28
ATOM     28  C   UNL     1      58.930  -5.983   2.446  1.00  0.00     0.252 C 
ATOM     29  C   UNL     1      57.718  -5.865   1.595  1.00  0.00     0.083 C 
ATOM     30  O   UNL     1      60.017  -5.451   1.753  1.00  0.00    -0.347 OA
ATOM     31  C   UNL     1      58.154  -6.109   0.154  1.00  0.00     0.087 C 
ATOM     32  C   UNL     1      59.669  -4.374   0.949  1.00  0.00     0.148 C 
ATOM     33  C   UNL     1      58.884  -4.848  -0.280  1.00  0.00     0.160 C 
ATOM     34  C   UNL     1      60.953  -3.737   0.457  1.00  0.00     0.041 C 
BRANCH  31  35
ATOM     35  N   UNL     1      59.158  -7.169   0.219  1.00  0.00    -0.325 NA
ATOM     36  H   UNL     1      59.252  -7.677  -0.667  1.00  0.00     0.119 HD
ATOM     37  H   UNL     1      60.046  -6.848   0.646  1.00  0.00     0.119 HD
ENDBRANCH  31  35
BRANCH  33  38
ATOM     38  O   UNL     1      59.747  -5.149  -1.325  1.00  0.00    -0.389 OA
ATOM     39  H   UNL     1      60.190  -4.309  -1.589  1.00  0.00     0.211 HD
ENDBRANCH  33  38
ENDBRANCH  27  28
ENDBRANCH  20  27
BRANCH  18  40
ATOM     40  O   UNL     1      62.373  -4.724   6.761  1.00  0.00    -0.382 OA
ATOM     41  H   UNL     1      62.693  -5.182   7.573  1.00  0.00     0.212 HD
ENDBRANCH  18  40
BRANCH  18  42
ATOM     42  C   UNL     1      62.993  -6.148   5.031  1.00  0.00     0.190 C 
ATOM     43  O   UNL     1      63.440  -5.432   4.150  1.00  0.00    -0.294 OA
BRANCH  42  44
ATOM     44  C   UNL     1      63.661  -7.456   5.211  1.00  0.00     0.234 C 
BRANCH  44  45
ATOM     45  O   UNL     1      64.613  -7.414   6.240  1.00  0.00    -0.388 OA
ATOM     46  H   UNL     1      65.188  -8.210   6.233  1.00  0.00     0.211 HD
ENDBRANCH  44  45
ENDBRANCH  42  44
ENDBRANCH  18  42
TORSDOF 11
ENDMDL
