MODEL 1
REMARK VINA RESULT:      -5.1      0.000      0.000
REMARK SMILES CC/C(=C(\c1ccccc1)c1ccc(OCC[NH+](C)C)cc1)c1ccccc1
REMARK SMILES IDX 15 1 14 2 11 3 12 4 22 5 13 6 21 7 4 8 3 9 2 10 1 11 23 12
REMARK SMILES IDX 24 13 28 14 25 15 27 16 26 17 5 18 6 19 10 20 7 21 9 22 8 23
REMARK SMILES IDX 16 24 17 25 18 26 19 27 20 28
REMARK H PARENT 18 29
ROOT
ATOM      1  O   UNL     1      32.253  -7.792  25.935  1.00  0.00    -0.488 OA
ENDROOT
BRANCH   1   2
ATOM      2  C   UNL     1      32.379  -7.844  27.311  1.00  0.00     0.119 A 
ATOM      3  C   UNL     1      32.749  -7.916  30.142  1.00  0.00    -0.017 A 
ATOM      4  C   UNL     1      31.521  -8.166  29.563  1.00  0.00     0.012 A 
ATOM      5  C   UNL     1      33.789  -7.630  29.263  1.00  0.00     0.012 A 
ATOM      6  C   UNL     1      31.357  -8.127  28.187  1.00  0.00     0.047 A 
ATOM      7  C   UNL     1      33.625  -7.592  27.904  1.00  0.00     0.047 A 
BRANCH   3   8
ATOM      8  C   UNL     1      32.956  -7.973  31.579  1.00  0.00    -0.007 C 
ATOM      9  C   UNL     1      33.169  -9.095  32.217  1.00  0.00    -0.033 C 
BRANCH   9  10
ATOM     10  C   UNL     1      33.340  -9.217  33.691  1.00  0.00     0.033 C 
ATOM     11  C   UNL     1      34.797  -9.405  33.997  1.00  0.00     0.009 C 
ENDBRANCH   9  10
BRANCH   9  12
ATOM     12  C   UNL     1      33.329 -10.365  31.488  1.00  0.00    -0.022 A 
ATOM     13  C   UNL     1      32.331 -11.305  31.437  1.00  0.00     0.008 A 
ATOM     14  C   UNL     1      34.514 -10.602  30.859  1.00  0.00     0.008 A 
ATOM     15  C   UNL     1      32.534 -12.476  30.752  1.00  0.00     0.001 A 
ATOM     16  C   UNL     1      34.763 -11.782  30.151  1.00  0.00     0.001 A 
ATOM     17  C   UNL     1      33.744 -12.705  30.117  1.00  0.00     0.000 A 
ENDBRANCH   9  12
BRANCH   8  18
ATOM     18  C   UNL     1      32.883  -6.733  32.324  1.00  0.00    -0.018 A 
ATOM     19  C   UNL     1      31.691  -6.234  32.810  1.00  0.00     0.009 A 
ATOM     20  C   UNL     1      34.039  -5.985  32.524  1.00  0.00     0.009 A 
ATOM     21  C   UNL     1      31.685  -5.030  33.467  1.00  0.00     0.001 A 
ATOM     22  C   UNL     1      34.052  -4.777  33.181  1.00  0.00     0.001 A 
ATOM     23  C   UNL     1      32.838  -4.295  33.662  1.00  0.00     0.000 A 
ENDBRANCH   8  18
ENDBRANCH   3   8
ENDBRANCH   1   2
BRANCH   1  24
ATOM     24  C   UNL     1      32.256  -8.835  25.026  1.00  0.00     0.290 C 
BRANCH  24  25
ATOM     25  C   UNL     1      33.554  -9.588  24.897  1.00  0.00     0.303 C 
BRANCH  25  26
ATOM     26  N   UNL     1      33.428 -10.976  25.223  1.00  0.00    -0.337 N 
ATOM     27  C   UNL     1      32.141 -11.535  24.872  1.00  0.00     0.332 C 
ATOM     28  C   UNL     1      33.641 -11.246  26.630  1.00  0.00     0.332 C 
ATOM     29  H   UNL     1      34.153 -11.561  24.710  1.00  0.00     0.347 HD
ENDBRANCH  25  26
ENDBRANCH  24  25
ENDBRANCH   1  24
TORSDOF 8
ENDMDL
MODEL 2
REMARK VINA RESULT:      -5.1      8.870     11.052
REMARK SMILES CC/C(=C(\c1ccccc1)c1ccc(OCC[NH+](C)C)cc1)c1ccccc1
REMARK SMILES IDX 15 1 14 2 11 3 12 4 22 5 13 6 21 7 4 8 3 9 2 10 1 11 23 12
REMARK SMILES IDX 24 13 28 14 25 15 27 16 26 17 5 18 6 19 10 20 7 21 9 22 8 23
REMARK SMILES IDX 16 24 17 25 18 26 19 27 20 28
REMARK H PARENT 18 29
ROOT
ATOM      1  O   UNL     1      36.221  -5.544  38.316  1.00  0.00    -0.488 OA
ENDROOT
BRANCH   1   2
ATOM      2  C   UNL     1      36.989  -6.675  38.109  1.00  0.00     0.119 A 
ATOM      3  C   UNL     1      38.519  -9.029  37.581  1.00  0.00    -0.017 A 
ATOM      4  C   UNL     1      38.766  -8.232  38.681  1.00  0.00     0.012 A 
ATOM      5  C   UNL     1      37.481  -8.615  36.752  1.00  0.00     0.012 A 
ATOM      6  C   UNL     1      38.015  -7.093  38.924  1.00  0.00     0.047 A 
ATOM      7  C   UNL     1      36.740  -7.488  36.994  1.00  0.00     0.047 A 
BRANCH   3   8
ATOM      8  C   UNL     1      39.273 -10.241  37.314  1.00  0.00    -0.007 C 
ATOM      9  C   UNL     1      38.921 -11.410  37.784  1.00  0.00    -0.033 C 
BRANCH   9  10
ATOM     10  C   UNL     1      39.682 -12.673  37.582  1.00  0.00     0.033 C 
ATOM     11  C   UNL     1      40.574 -12.898  38.767  1.00  0.00     0.009 C 
ENDBRANCH   9  10
BRANCH   9  12
ATOM     12  C   UNL     1      37.657 -11.582  38.523  1.00  0.00    -0.022 A 
ATOM     13  C   UNL     1      37.600 -11.514  39.891  1.00  0.00     0.008 A 
ATOM     14  C   UNL     1      36.523 -11.825  37.810  1.00  0.00     0.008 A 
ATOM     15  C   UNL     1      36.400 -11.692  40.531  1.00  0.00     0.001 A 
ATOM     16  C   UNL     1      35.280 -12.012  38.421  1.00  0.00     0.001 A 
ATOM     17  C   UNL     1      35.253 -11.938  39.795  1.00  0.00     0.000 A 
ENDBRANCH   9  12
BRANCH   8  18
ATOM     18  C   UNL     1      40.483 -10.126  36.526  1.00  0.00    -0.018 A 
ATOM     19  C   UNL     1      40.516 -10.423  35.178  1.00  0.00     0.009 A 
ATOM     20  C   UNL     1      41.672  -9.752  37.146  1.00  0.00     0.009 A 
ATOM     21  C   UNL     1      41.705 -10.340  34.501  1.00  0.00     0.001 A 
ATOM     22  C   UNL     1      42.873  -9.662  36.481  1.00  0.00     0.001 A 
ATOM     23  C   UNL     1      42.880  -9.966  35.123  1.00  0.00     0.000 A 
ENDBRANCH   8  18
ENDBRANCH   3   8
ENDBRANCH   1   2
BRANCH   1  24
ATOM     24  C   UNL     1      36.569  -4.217  38.135  1.00  0.00     0.290 C 
BRANCH  24  25
ATOM     25  C   UNL     1      35.683  -3.429  37.205  1.00  0.00     0.303 C 
BRANCH  25  26
ATOM     26  N   UNL     1      36.027  -2.041  37.151  1.00  0.00    -0.337 N 
ATOM     27  C   UNL     1      36.805  -1.686  35.984  1.00  0.00     0.332 C 
ATOM     28  C   UNL     1      36.773  -1.599  38.311  1.00  0.00     0.332 C 
ATOM     29  H   UNL     1      35.158  -1.428  37.123  1.00  0.00     0.347 HD
ENDBRANCH  25  26
ENDBRANCH  24  25
ENDBRANCH   1  24
TORSDOF 8
ENDMDL
MODEL 3
REMARK VINA RESULT:      -5.0      8.108     10.670
REMARK SMILES CC/C(=C(\c1ccccc1)c1ccc(OCC[NH+](C)C)cc1)c1ccccc1
REMARK SMILES IDX 15 1 14 2 11 3 12 4 22 5 13 6 21 7 4 8 3 9 2 10 1 11 23 12
REMARK SMILES IDX 24 13 28 14 25 15 27 16 26 17 5 18 6 19 10 20 7 21 9 22 8 23
REMARK SMILES IDX 16 24 17 25 18 26 19 27 20 28
REMARK H PARENT 18 29
ROOT
ATOM      1  O   UNL     1      36.136  -4.925  38.418  1.00  0.00    -0.488 OA
ENDROOT
BRANCH   1   2
ATOM      2  C   UNL     1      36.808  -6.098  38.125  1.00  0.00     0.119 A 
ATOM      3  C   UNL     1      38.136  -8.526  37.419  1.00  0.00    -0.017 A 
ATOM      4  C   UNL     1      38.459  -7.827  38.565  1.00  0.00     0.012 A 
ATOM      5  C   UNL     1      37.127  -7.975  36.636  1.00  0.00     0.012 A 
ATOM      6  C   UNL     1      37.805  -6.650  38.894  1.00  0.00     0.047 A 
ATOM      7  C   UNL     1      36.482  -6.812  36.963  1.00  0.00     0.047 A 
BRANCH   3   8
ATOM      8  C   UNL     1      38.787  -9.774  37.062  1.00  0.00    -0.007 C 
ATOM      9  C   UNL     1      38.150 -10.916  37.020  1.00  0.00    -0.033 C 
BRANCH   9  10
ATOM     10  C   UNL     1      38.777 -12.230  36.707  1.00  0.00     0.033 C 
ATOM     11  C   UNL     1      38.631 -12.500  35.238  1.00  0.00     0.009 C 
ENDBRANCH   9  10
BRANCH   9  12
ATOM     12  C   UNL     1      36.692 -10.980  37.224  1.00  0.00    -0.022 A 
ATOM     13  C   UNL     1      35.804 -10.699  36.217  1.00  0.00     0.008 A 
ATOM     14  C   UNL     1      36.229 -11.321  38.458  1.00  0.00     0.008 A 
ATOM     15  C   UNL     1      34.456 -10.763  36.462  1.00  0.00     0.001 A 
ATOM     16  C   UNL     1      34.864 -11.398  38.751  1.00  0.00     0.001 A 
ATOM     17  C   UNL     1      33.997 -11.111  37.722  1.00  0.00     0.000 A 
ENDBRANCH   9  12
BRANCH   8  18
ATOM     18  C   UNL     1      40.207  -9.741  36.779  1.00  0.00    -0.018 A 
ATOM     19  C   UNL     1      41.157 -10.046  37.733  1.00  0.00     0.009 A 
ATOM     20  C   UNL     1      40.646  -9.344  35.519  1.00  0.00     0.009 A 
ATOM     21  C   UNL     1      42.486  -9.949  37.413  1.00  0.00     0.001 A 
ATOM     22  C   UNL     1      41.975  -9.242  35.180  1.00  0.00     0.001 A 
ATOM     23  C   UNL     1      42.913  -9.555  36.160  1.00  0.00     0.000 A 
ENDBRANCH   8  18
ENDBRANCH   3   8
ENDBRANCH   1   2
BRANCH   1  24
ATOM     24  C   UNL     1      35.879  -3.845  37.591  1.00  0.00     0.290 C 
BRANCH  24  25
ATOM     25  C   UNL     1      36.557  -2.554  37.970  1.00  0.00     0.303 C 
BRANCH  25  26
ATOM     26  N   UNL     1      36.218  -1.470  37.099  1.00  0.00    -0.337 N 
ATOM     27  C   UNL     1      37.343  -0.971  36.338  1.00  0.00     0.332 C 
ATOM     28  C   UNL     1      35.645  -0.341  37.803  1.00  0.00     0.332 C 
ATOM     29  H   UNL     1      35.485  -1.761  36.386  1.00  0.00     0.347 HD
ENDBRANCH  25  26
ENDBRANCH  24  25
ENDBRANCH   1  24
TORSDOF 8
ENDMDL
MODEL 4
REMARK VINA RESULT:      -5.0      4.276      8.045
REMARK SMILES CC/C(=C(\c1ccccc1)c1ccc(OCC[NH+](C)C)cc1)c1ccccc1
REMARK SMILES IDX 15 1 14 2 11 3 12 4 22 5 13 6 21 7 4 8 3 9 2 10 1 11 23 12
REMARK SMILES IDX 24 13 28 14 25 15 27 16 26 17 5 18 6 19 10 20 7 21 9 22 8 23
REMARK SMILES IDX 16 24 17 25 18 26 19 27 20 28
REMARK H PARENT 18 29
ROOT
ATOM      1  O   UNL     1      34.332  -4.080  34.407  1.00  0.00    -0.488 OA
ENDROOT
BRANCH   1   2
ATOM      2  C   UNL     1      33.694  -5.091  33.712  1.00  0.00     0.119 A 
ATOM      3  C   UNL     1      32.304  -7.098  32.229  1.00  0.00    -0.017 A 
ATOM      4  C   UNL     1      33.415  -7.396  32.993  1.00  0.00     0.012 A 
ATOM      5  C   UNL     1      31.907  -5.764  32.229  1.00  0.00     0.012 A 
ATOM      6  C   UNL     1      34.079  -6.411  33.707  1.00  0.00     0.047 A 
ATOM      7  C   UNL     1      32.565  -4.792  32.935  1.00  0.00     0.047 A 
BRANCH   3   8
ATOM      8  C   UNL     1      31.574  -8.113  31.490  1.00  0.00    -0.007 C 
ATOM      9  C   UNL     1      30.522  -8.719  31.974  1.00  0.00    -0.033 C 
BRANCH   9  10
ATOM     10  C   UNL     1      29.766  -9.798  31.281  1.00  0.00     0.033 C 
ATOM     11  C   UNL     1      28.602  -9.187  30.556  1.00  0.00     0.009 C 
ENDBRANCH   9  10
BRANCH   9  12
ATOM     12  C   UNL     1      29.942  -8.317  33.269  1.00  0.00    -0.022 A 
ATOM     13  C   UNL     1      29.055  -7.277  33.376  1.00  0.00     0.008 A 
ATOM     14  C   UNL     1      30.318  -9.003  34.383  1.00  0.00     0.008 A 
ATOM     15  C   UNL     1      28.552  -6.936  34.606  1.00  0.00     0.001 A 
ATOM     16  C   UNL     1      29.831  -8.689  35.656  1.00  0.00     0.001 A 
ATOM     17  C   UNL     1      28.942  -7.642  35.732  1.00  0.00     0.000 A 
ENDBRANCH   9  12
BRANCH   8  18
ATOM     18  C   UNL     1      32.068  -8.483  30.179  1.00  0.00    -0.018 A 
ATOM     19  C   UNL     1      32.919  -9.553  29.987  1.00  0.00     0.009 A 
ATOM     20  C   UNL     1      31.718  -7.714  29.073  1.00  0.00     0.009 A 
ATOM     21  C   UNL     1      33.387  -9.820  28.726  1.00  0.00     0.001 A 
ATOM     22  C   UNL     1      32.177  -7.969  27.802  1.00  0.00     0.001 A 
ATOM     23  C   UNL     1      33.034  -9.053  27.634  1.00  0.00     0.000 A 
ENDBRANCH   8  18
ENDBRANCH   3   8
ENDBRANCH   1   2
BRANCH   1  24
ATOM     24  C   UNL     1      35.385  -4.176  35.301  1.00  0.00     0.290 C 
BRANCH  24  25
ATOM     25  C   UNL     1      35.854  -2.876  35.901  1.00  0.00     0.303 C 
BRANCH  25  26
ATOM     26  N   UNL     1      35.793  -2.868  37.331  1.00  0.00    -0.337 N 
ATOM     27  C   UNL     1      36.674  -1.894  37.939  1.00  0.00     0.332 C 
ATOM     28  C   UNL     1      36.112  -4.154  37.915  1.00  0.00     0.332 C 
ATOM     29  H   UNL     1      34.814  -2.635  37.676  1.00  0.00     0.347 HD
ENDBRANCH  25  26
ENDBRANCH  24  25
ENDBRANCH   1  24
TORSDOF 8
ENDMDL
MODEL 5
REMARK VINA RESULT:      -5.0      4.239      7.985
REMARK SMILES CC/C(=C(\c1ccccc1)c1ccc(OCC[NH+](C)C)cc1)c1ccccc1
REMARK SMILES IDX 15 1 14 2 11 3 12 4 22 5 13 6 21 7 4 8 3 9 2 10 1 11 23 12
REMARK SMILES IDX 24 13 28 14 25 15 27 16 26 17 5 18 6 19 10 20 7 21 9 22 8 23
REMARK SMILES IDX 16 24 17 25 18 26 19 27 20 28
REMARK H PARENT 18 29
ROOT
ATOM      1  O   UNL     1      34.357  -4.121  34.352  1.00  0.00    -0.488 OA
ENDROOT
BRANCH   1   2
ATOM      2  C   UNL     1      33.703  -5.110  33.640  1.00  0.00     0.119 A 
ATOM      3  C   UNL     1      32.279  -7.071  32.127  1.00  0.00    -0.017 A 
ATOM      4  C   UNL     1      33.409  -7.392  32.854  1.00  0.00     0.012 A 
ATOM      5  C   UNL     1      31.880  -5.739  32.181  1.00  0.00     0.012 A 
ATOM      6  C   UNL     1      34.089  -6.429  33.583  1.00  0.00     0.047 A 
ATOM      7  C   UNL     1      32.554  -4.789  32.901  1.00  0.00     0.047 A 
BRANCH   3   8
ATOM      8  C   UNL     1      31.533  -8.063  31.374  1.00  0.00    -0.007 C 
ATOM      9  C   UNL     1      30.497  -8.692  31.867  1.00  0.00    -0.033 C 
BRANCH   9  10
ATOM     10  C   UNL     1      29.726  -9.750  31.158  1.00  0.00     0.033 C 
ATOM     11  C   UNL     1      30.125 -11.090  31.703  1.00  0.00     0.009 C 
ENDBRANCH   9  10
BRANCH   9  12
ATOM     12  C   UNL     1      29.953  -8.338  33.190  1.00  0.00    -0.022 A 
ATOM     13  C   UNL     1      30.462  -8.864  34.350  1.00  0.00     0.008 A 
ATOM     14  C   UNL     1      28.906  -7.469  33.245  1.00  0.00     0.008 A 
ATOM     15  C   UNL     1      29.913  -8.510  35.556  1.00  0.00     0.001 A 
ATOM     16  C   UNL     1      28.316  -7.081  34.451  1.00  0.00     0.001 A 
ATOM     17  C   UNL     1      28.848  -7.625  35.598  1.00  0.00     0.000 A 
ENDBRANCH   9  12
BRANCH   8  18
ATOM     18  C   UNL     1      31.990  -8.385  30.038  1.00  0.00    -0.018 A 
ATOM     19  C   UNL     1      31.542  -7.708  28.922  1.00  0.00     0.009 A 
ATOM     20  C   UNL     1      32.876  -9.443  29.853  1.00  0.00     0.009 A 
ATOM     21  C   UNL     1      31.978  -8.094  27.681  1.00  0.00     0.001 A 
ATOM     22  C   UNL     1      33.325  -9.843  28.616  1.00  0.00     0.001 A 
ATOM     23  C   UNL     1      32.859  -9.144  27.507  1.00  0.00     0.000 A 
ENDBRANCH   8  18
ENDBRANCH   3   8
ENDBRANCH   1   2
BRANCH   1  24
ATOM     24  C   UNL     1      35.326  -4.256  35.329  1.00  0.00     0.290 C 
BRANCH  24  25
ATOM     25  C   UNL     1      35.871  -2.970  35.893  1.00  0.00     0.303 C 
BRANCH  25  26
ATOM     26  N   UNL     1      35.801  -2.912  37.321  1.00  0.00    -0.337 N 
ATOM     27  C   UNL     1      36.716  -1.955  37.905  1.00  0.00     0.332 C 
ATOM     28  C   UNL     1      36.065  -4.191  37.950  1.00  0.00     0.332 C 
ATOM     29  H   UNL     1      34.830  -2.630  37.651  1.00  0.00     0.347 HD
ENDBRANCH  25  26
ENDBRANCH  24  25
ENDBRANCH   1  24
TORSDOF 8
ENDMDL
MODEL 6
REMARK VINA RESULT:      -5.0      0.829      1.419
REMARK SMILES CC/C(=C(\c1ccccc1)c1ccc(OCC[NH+](C)C)cc1)c1ccccc1
REMARK SMILES IDX 15 1 14 2 11 3 12 4 22 5 13 6 21 7 4 8 3 9 2 10 1 11 23 12
REMARK SMILES IDX 24 13 28 14 25 15 27 16 26 17 5 18 6 19 10 20 7 21 9 22 8 23
REMARK SMILES IDX 16 24 17 25 18 26 19 27 20 28
REMARK H PARENT 18 29
ROOT
ATOM      1  O   UNL     1      32.065  -7.863  25.782  1.00  0.00    -0.488 OA
ENDROOT
BRANCH   1   2
ATOM      2  C   UNL     1      32.230  -7.913  27.154  1.00  0.00     0.119 A 
ATOM      3  C   UNL     1      32.684  -7.985  29.973  1.00  0.00    -0.017 A 
ATOM      4  C   UNL     1      31.430  -8.193  29.432  1.00  0.00     0.012 A 
ATOM      5  C   UNL     1      33.706  -7.741  29.061  1.00  0.00     0.012 A 
ATOM      6  C   UNL     1      31.226  -8.155  28.062  1.00  0.00     0.047 A 
ATOM      7  C   UNL     1      33.502  -7.703  27.708  1.00  0.00     0.047 A 
BRANCH   3   8
ATOM      8  C   UNL     1      32.932  -8.043  31.403  1.00  0.00    -0.007 C 
ATOM      9  C   UNL     1      33.216  -9.157  32.026  1.00  0.00    -0.033 C 
BRANCH   9  10
ATOM     10  C   UNL     1      33.432  -9.281  33.494  1.00  0.00     0.033 C 
ATOM     11  C   UNL     1      34.847  -9.717  33.741  1.00  0.00     0.009 C 
ENDBRANCH   9  10
BRANCH   9  12
ATOM     12  C   UNL     1      33.416 -10.414  31.282  1.00  0.00    -0.022 A 
ATOM     13  C   UNL     1      34.566 -10.668  30.581  1.00  0.00     0.008 A 
ATOM     14  C   UNL     1      32.413 -11.335  31.292  1.00  0.00     0.008 A 
ATOM     15  C   UNL     1      34.698 -11.849  29.896  1.00  0.00     0.001 A 
ATOM     16  C   UNL     1      32.505 -12.551  30.609  1.00  0.00     0.001 A 
ATOM     17  C   UNL     1      33.671 -12.778  29.915  1.00  0.00     0.000 A 
ENDBRANCH   9  12
BRANCH   8  18
ATOM     18  C   UNL     1      32.820  -6.813  32.161  1.00  0.00    -0.018 A 
ATOM     19  C   UNL     1      31.647  -6.433  32.781  1.00  0.00     0.009 A 
ATOM     20  C   UNL     1      33.912  -5.952  32.234  1.00  0.00     0.009 A 
ATOM     21  C   UNL     1      31.595  -5.233  33.442  1.00  0.00     0.001 A 
ATOM     22  C   UNL     1      33.878  -4.746  32.894  1.00  0.00     0.001 A 
ATOM     23  C   UNL     1      32.684  -4.385  33.512  1.00  0.00     0.000 A 
ENDBRANCH   8  18
ENDBRANCH   3   8
ENDBRANCH   1   2
BRANCH   1  24
ATOM     24  C   UNL     1      32.838  -8.449  24.795  1.00  0.00     0.290 C 
BRANCH  24  25
ATOM     25  C   UNL     1      32.125  -9.425  23.897  1.00  0.00     0.303 C 
BRANCH  25  26
ATOM     26  N   UNL     1      31.185 -10.246  24.599  1.00  0.00    -0.337 N 
ATOM     27  C   UNL     1      31.505 -11.656  24.552  1.00  0.00     0.332 C 
ATOM     28  C   UNL     1      29.831 -10.099  24.106  1.00  0.00     0.332 C 
ATOM     29  H   UNL     1      31.141  -9.988  25.630  1.00  0.00     0.347 HD
ENDBRANCH  25  26
ENDBRANCH  24  25
ENDBRANCH   1  24
TORSDOF 8
ENDMDL
MODEL 7
REMARK VINA RESULT:      -5.0      0.670      1.546
REMARK SMILES CC/C(=C(\c1ccccc1)c1ccc(OCC[NH+](C)C)cc1)c1ccccc1
REMARK SMILES IDX 15 1 14 2 11 3 12 4 22 5 13 6 21 7 4 8 3 9 2 10 1 11 23 12
REMARK SMILES IDX 24 13 28 14 25 15 27 16 26 17 5 18 6 19 10 20 7 21 9 22 8 23
REMARK SMILES IDX 16 24 17 25 18 26 19 27 20 28
REMARK H PARENT 18 29
ROOT
ATOM      1  O   UNL     1      32.393  -7.762  25.471  1.00  0.00    -0.488 OA
ENDROOT
BRANCH   1   2
ATOM      2  C   UNL     1      32.472  -7.830  26.850  1.00  0.00     0.119 A 
ATOM      3  C   UNL     1      32.746  -7.941  29.691  1.00  0.00    -0.017 A 
ATOM      4  C   UNL     1      31.530  -8.144  29.069  1.00  0.00     0.012 A 
ATOM      5  C   UNL     1      33.823  -7.681  28.849  1.00  0.00     0.012 A 
ATOM      6  C   UNL     1      31.413  -8.087  27.689  1.00  0.00     0.047 A 
ATOM      7  C   UNL     1      33.705  -7.625  27.486  1.00  0.00     0.047 A 
BRANCH   3   8
ATOM      8  C   UNL     1      32.904  -8.018  31.132  1.00  0.00    -0.007 C 
ATOM      9  C   UNL     1      33.095  -9.148  31.763  1.00  0.00    -0.033 C 
BRANCH   9  10
ATOM     10  C   UNL     1      33.215  -9.291  33.239  1.00  0.00     0.033 C 
ATOM     11  C   UNL     1      34.662  -9.472  33.594  1.00  0.00     0.009 C 
ENDBRANCH   9  10
BRANCH   9  12
ATOM     12  C   UNL     1      33.280 -10.409  31.021  1.00  0.00    -0.022 A 
ATOM     13  C   UNL     1      34.474 -10.738  30.434  1.00  0.00     0.008 A 
ATOM     14  C   UNL     1      32.219 -11.256  30.917  1.00  0.00     0.008 A 
ATOM     15  C   UNL     1      34.591 -11.920  29.746  1.00  0.00     0.001 A 
ATOM     16  C   UNL     1      32.293 -12.469  30.226  1.00  0.00     0.001 A 
ATOM     17  C   UNL     1      33.504 -12.773  29.648  1.00  0.00     0.000 A 
ENDBRANCH   9  12
BRANCH   8  18
ATOM     18  C   UNL     1      32.805  -6.788  31.892  1.00  0.00    -0.018 A 
ATOM     19  C   UNL     1      33.858  -5.903  32.003  1.00  0.00     0.009 A 
ATOM     20  C   UNL     1      31.629  -6.500  32.579  1.00  0.00     0.009 A 
ATOM     21  C   UNL     1      33.714  -4.781  32.777  1.00  0.00     0.001 A 
ATOM     22  C   UNL     1      31.467  -5.379  33.359  1.00  0.00     0.001 A 
ATOM     23  C   UNL     1      32.543  -4.502  33.454  1.00  0.00     0.000 A 
ENDBRANCH   8  18
ENDBRANCH   3   8
ENDBRANCH   1   2
BRANCH   1  24
ATOM     24  C   UNL     1      32.452  -8.791  24.548  1.00  0.00     0.290 C 
BRANCH  24  25
ATOM     25  C   UNL     1      33.322  -9.961  24.928  1.00  0.00     0.303 C 
BRANCH  25  26
ATOM     26  N   UNL     1      32.750 -11.222  24.564  1.00  0.00    -0.337 N 
ATOM     27  C   UNL     1      33.488 -11.911  23.527  1.00  0.00     0.332 C 
ATOM     28  C   UNL     1      31.380 -11.109  24.107  1.00  0.00     0.332 C 
ATOM     29  H   UNL     1      32.718 -11.887  25.393  1.00  0.00     0.347 HD
ENDBRANCH  25  26
ENDBRANCH  24  25
ENDBRANCH   1  24
TORSDOF 8
ENDMDL
MODEL 8
REMARK VINA RESULT:      -4.9      0.521      1.732
REMARK SMILES CC/C(=C(\c1ccccc1)c1ccc(OCC[NH+](C)C)cc1)c1ccccc1
REMARK SMILES IDX 15 1 14 2 11 3 12 4 22 5 13 6 21 7 4 8 3 9 2 10 1 11 23 12
REMARK SMILES IDX 24 13 28 14 25 15 27 16 26 17 5 18 6 19 10 20 7 21 9 22 8 23
REMARK SMILES IDX 16 24 17 25 18 26 19 27 20 28
REMARK H PARENT 18 29
ROOT
ATOM      1  O   UNL     1      32.146  -7.918  25.782  1.00  0.00    -0.488 OA
ENDROOT
BRANCH   1   2
ATOM      2  C   UNL     1      32.405  -7.930  27.141  1.00  0.00     0.119 A 
ATOM      3  C   UNL     1      32.832  -7.999  29.964  1.00  0.00    -0.017 A 
ATOM      4  C   UNL     1      33.832  -7.628  29.086  1.00  0.00     0.012 A 
ATOM      5  C   UNL     1      31.611  -8.333  29.388  1.00  0.00     0.012 A 
ATOM      6  C   UNL     1      33.609  -7.600  27.718  1.00  0.00     0.047 A 
ATOM      7  C   UNL     1      31.393  -8.304  28.036  1.00  0.00     0.047 A 
BRANCH   3   8
ATOM      8  C   UNL     1      33.030  -8.014  31.402  1.00  0.00    -0.007 C 
ATOM      9  C   UNL     1      33.260  -9.114  32.072  1.00  0.00    -0.033 C 
BRANCH   9  10
ATOM     10  C   UNL     1      33.423  -9.193  33.550  1.00  0.00     0.033 C 
ATOM     11  C   UNL     1      34.835  -9.594  33.862  1.00  0.00     0.009 C 
ENDBRANCH   9  10
BRANCH   9  12
ATOM     12  C   UNL     1      33.451 -10.400  31.378  1.00  0.00    -0.022 A 
ATOM     13  C   UNL     1      34.582 -10.674  30.653  1.00  0.00     0.008 A 
ATOM     14  C   UNL     1      32.458 -11.329  31.460  1.00  0.00     0.008 A 
ATOM     15  C   UNL     1      34.705 -11.883  30.016  1.00  0.00     0.001 A 
ATOM     16  C   UNL     1      32.542 -12.573  30.827  1.00  0.00     0.001 A 
ATOM     17  C   UNL     1      33.689 -12.820  30.108  1.00  0.00     0.000 A 
ENDBRANCH   9  12
BRANCH   8  18
ATOM     18  C   UNL     1      32.926  -6.757  32.115  1.00  0.00    -0.018 A 
ATOM     19  C   UNL     1      34.015  -5.931  32.315  1.00  0.00     0.009 A 
ATOM     20  C   UNL     1      31.704  -6.378  32.662  1.00  0.00     0.009 A 
ATOM     21  C   UNL     1      33.858  -4.777  33.040  1.00  0.00     0.001 A 
ATOM     22  C   UNL     1      31.529  -5.224  33.389  1.00  0.00     0.001 A 
ATOM     23  C   UNL     1      32.641  -4.408  33.578  1.00  0.00     0.000 A 
ENDBRANCH   8  18
ENDBRANCH   3   8
ENDBRANCH   1   2
BRANCH   1  24
ATOM     24  C   UNL     1      32.801  -8.596  24.770  1.00  0.00     0.290 C 
BRANCH  24  25
ATOM     25  C   UNL     1      33.222 -10.006  25.093  1.00  0.00     0.303 C 
BRANCH  25  26
ATOM     26  N   UNL     1      32.119 -10.916  25.164  1.00  0.00    -0.337 N 
ATOM     27  C   UNL     1      32.421 -12.133  25.885  1.00  0.00     0.332 C 
ATOM     28  C   UNL     1      31.626 -11.305  23.858  1.00  0.00     0.332 C 
ATOM     29  H   UNL     1      31.287 -10.477  25.661  1.00  0.00     0.347 HD
ENDBRANCH  25  26
ENDBRANCH  24  25
ENDBRANCH   1  24
TORSDOF 8
ENDMDL
MODEL 9
REMARK VINA RESULT:      -4.9      4.225      7.960
REMARK SMILES CC/C(=C(\c1ccccc1)c1ccc(OCC[NH+](C)C)cc1)c1ccccc1
REMARK SMILES IDX 15 1 14 2 11 3 12 4 22 5 13 6 21 7 4 8 3 9 2 10 1 11 23 12
REMARK SMILES IDX 24 13 28 14 25 15 27 16 26 17 5 18 6 19 10 20 7 21 9 22 8 23
REMARK SMILES IDX 16 24 17 25 18 26 19 27 20 28
REMARK H PARENT 18 29
ROOT
ATOM      1  O   UNL     1      34.539  -4.180  34.169  1.00  0.00    -0.488 OA
ENDROOT
BRANCH   1   2
ATOM      2  C   UNL     1      33.782  -5.112  33.483  1.00  0.00     0.119 A 
ATOM      3  C   UNL     1      32.285  -7.120  32.109  1.00  0.00    -0.017 A 
ATOM      4  C   UNL     1      31.912  -5.790  32.085  1.00  0.00     0.012 A 
ATOM      5  C   UNL     1      33.431  -7.416  32.840  1.00  0.00     0.012 A 
ATOM      6  C   UNL     1      32.649  -4.828  32.757  1.00  0.00     0.047 A 
ATOM      7  C   UNL     1      34.157  -6.463  33.503  1.00  0.00     0.047 A 
BRANCH   3   8
ATOM      8  C   UNL     1      31.547  -8.146  31.395  1.00  0.00    -0.007 C 
ATOM      9  C   UNL     1      30.527  -8.777  31.918  1.00  0.00    -0.033 C 
BRANCH   9  10
ATOM     10  C   UNL     1      29.766  -9.868  31.251  1.00  0.00     0.033 C 
ATOM     11  C   UNL     1      30.229 -11.187  31.796  1.00  0.00     0.009 C 
ENDBRANCH   9  10
BRANCH   9  12
ATOM     12  C   UNL     1      29.992  -8.391  33.237  1.00  0.00    -0.022 A 
ATOM     13  C   UNL     1      30.533  -8.861  34.406  1.00  0.00     0.008 A 
ATOM     14  C   UNL     1      28.921  -7.551  33.277  1.00  0.00     0.008 A 
ATOM     15  C   UNL     1      29.991  -8.480  35.608  1.00  0.00     0.001 A 
ATOM     16  C   UNL     1      28.337  -7.138  34.478  1.00  0.00     0.001 A 
ATOM     17  C   UNL     1      28.902  -7.625  35.635  1.00  0.00     0.000 A 
ENDBRANCH   9  12
BRANCH   8  18
ATOM     18  C   UNL     1      31.995  -8.501  30.064  1.00  0.00    -0.018 A 
ATOM     19  C   UNL     1      32.931  -9.490  29.840  1.00  0.00     0.009 A 
ATOM     20  C   UNL     1      31.508  -7.796  28.967  1.00  0.00     0.009 A 
ATOM     21  C   UNL     1      33.347  -9.744  28.558  1.00  0.00     0.001 A 
ATOM     22  C   UNL     1      31.913  -8.038  27.675  1.00  0.00     0.001 A 
ATOM     23  C   UNL     1      32.858  -9.041  27.475  1.00  0.00     0.000 A 
ENDBRANCH   8  18
ENDBRANCH   3   8
ENDBRANCH   1   2
BRANCH   1  24
ATOM     24  C   UNL     1      35.094  -4.277  35.433  1.00  0.00     0.290 C 
BRANCH  24  25
ATOM     25  C   UNL     1      35.704  -3.013  35.979  1.00  0.00     0.303 C 
BRANCH  25  26
ATOM     26  N   UNL     1      35.770  -2.998  37.409  1.00  0.00    -0.337 N 
ATOM     27  C   UNL     1      36.764  -2.084  37.929  1.00  0.00     0.332 C 
ATOM     28  C   UNL     1      36.054  -4.302  37.973  1.00  0.00     0.332 C 
ATOM     29  H   UNL     1      34.843  -2.700  37.837  1.00  0.00     0.347 HD
ENDBRANCH  25  26
ENDBRANCH  24  25
ENDBRANCH   1  24
TORSDOF 8
ENDMDL
