MODEL 1
REMARK VINA RESULT:      -6.6      0.000      0.000
REMARK SMILES Clc1ccc(COC(Cn2ccnc2)c2ccc(Cl)cc2Cl)c(Cl)c1
REMARK SMILES IDX 7 1 6 2 5 3 2 4 3 5 25 6 4 7 23 8 1 9 24 10 8 11 9 12 10 13
REMARK SMILES IDX 11 14 14 15 12 16 13 17 15 18 16 19 21 20 17 21 20 22 18 23
REMARK SMILES IDX 22 24 19 25
REMARK H PARENT
ROOT
ATOM      1  O   UNL     1     -13.725  18.317 -22.329  1.00  0.00    -0.367 OA
ENDROOT
BRANCH   1   2
ATOM      2  C   UNL     1     -12.534  17.728 -22.142  1.00  0.00     0.198 C 
BRANCH   2   3
ATOM      3  C   UNL     1     -12.599  16.263 -21.949  1.00  0.00    -0.004 A 
ATOM      4  C   UNL     1     -12.955  13.452 -21.781  1.00  0.00     0.042 A 
ATOM      5  C   UNL     1     -13.186  14.151 -22.953  1.00  0.00     0.021 A 
ATOM      6  C   UNL     1     -12.543  14.193 -20.701  1.00  0.00     0.041 A 
ATOM      7  C   UNL     1     -13.020  15.511 -23.057  1.00  0.00     0.009 A 
ATOM      8  C   UNL     1     -12.368  15.583 -20.793  1.00  0.00     0.048 A 
ATOM      9  Cl  UNL     1     -13.183  11.712 -21.674  1.00  0.00    -0.084 Cl
ATOM     10  Cl  UNL     1     -11.743  16.464 -19.403  1.00  0.00    -0.084 Cl
ENDBRANCH   2   3
ENDBRANCH   1   2
BRANCH   1  11
ATOM     11  C   UNL     1     -14.256  19.330 -21.674  1.00  0.00     0.170 C 
BRANCH  11  12
ATOM     12  C   UNL     1     -13.778  20.629 -22.370  1.00  0.00     0.160 C 
BRANCH  12  13
ATOM     13  N   UNL     1     -13.195  21.483 -21.383  1.00  0.00    -0.335 N 
ATOM     14  C   UNL     1     -13.159  22.825 -21.374  1.00  0.00     0.107 A 
ATOM     15  C   UNL     1     -12.572  21.023 -20.279  1.00  0.00     0.199 A 
ATOM     16  C   UNL     1     -12.488  23.172 -20.220  1.00  0.00     0.130 A 
ATOM     17  N   UNL     1     -12.139  22.052 -19.567  1.00  0.00    -0.245 NA
ENDBRANCH  12  13
ENDBRANCH  11  12
BRANCH  11  18
ATOM     18  C   UNL     1     -15.773  19.329 -21.722  1.00  0.00     0.001 A 
ATOM     19  C   UNL     1     -16.469  20.238 -22.482  1.00  0.00     0.009 A 
ATOM     20  C   UNL     1     -16.478  18.409 -20.990  1.00  0.00     0.048 A 
ATOM     21  C   UNL     1     -17.870  20.211 -22.498  1.00  0.00     0.021 A 
ATOM     22  C   UNL     1     -17.871  18.372 -20.999  1.00  0.00     0.041 A 
ATOM     23  C   UNL     1     -18.573  19.285 -21.764  1.00  0.00     0.042 A 
ATOM     24  Cl  UNL     1     -15.573  17.258 -20.024  1.00  0.00    -0.084 Cl
ATOM     25  Cl  UNL     1     -20.329  19.251 -21.779  1.00  0.00    -0.084 Cl
ENDBRANCH  11  18
ENDBRANCH   1  11
TORSDOF 6
ENDMDL
MODEL 2
REMARK VINA RESULT:      -6.6      5.164      7.666
REMARK SMILES Clc1ccc(COC(Cn2ccnc2)c2ccc(Cl)cc2Cl)c(Cl)c1
REMARK SMILES IDX 7 1 6 2 5 3 2 4 3 5 25 6 4 7 23 8 1 9 24 10 8 11 9 12 10 13
REMARK SMILES IDX 11 14 14 15 12 16 13 17 15 18 16 19 21 20 17 21 20 22 18 23
REMARK SMILES IDX 22 24 19 25
REMARK H PARENT
ROOT
ATOM      1  O   UNL     1     -13.445  12.882 -17.863  1.00  0.00    -0.367 OA
ENDROOT
BRANCH   1   2
ATOM      2  C   UNL     1     -12.539  12.557 -18.797  1.00  0.00     0.198 C 
BRANCH   2   3
ATOM      3  C   UNL     1     -12.525  13.453 -19.975  1.00  0.00    -0.004 A 
ATOM      4  C   UNL     1     -12.597  15.393 -22.045  1.00  0.00     0.042 A 
ATOM      5  C   UNL     1     -12.295  15.729 -20.736  1.00  0.00     0.021 A 
ATOM      6  C   UNL     1     -12.860  14.067 -22.288  1.00  0.00     0.041 A 
ATOM      7  C   UNL     1     -12.255  14.806 -19.718  1.00  0.00     0.009 A 
ATOM      8  C   UNL     1     -12.820  13.114 -21.259  1.00  0.00     0.048 A 
ATOM      9  Cl  UNL     1     -12.649  16.595 -23.326  1.00  0.00    -0.084 Cl
ATOM     10  Cl  UNL     1     -13.069  11.415 -21.651  1.00  0.00    -0.084 Cl
ENDBRANCH   2   3
ENDBRANCH   1   2
BRANCH   1  11
ATOM     11  C   UNL     1     -14.189  12.084 -17.124  1.00  0.00     0.170 C 
BRANCH  11  12
ATOM     12  C   UNL     1     -15.181  12.977 -16.337  1.00  0.00     0.160 C 
BRANCH  12  13
ATOM     13  N   UNL     1     -14.773  14.340 -16.478  1.00  0.00    -0.335 N 
ATOM     14  C   UNL     1     -15.215  15.244 -17.365  1.00  0.00     0.107 A 
ATOM     15  C   UNL     1     -13.839  14.919 -15.695  1.00  0.00     0.199 A 
ATOM     16  C   UNL     1     -14.516  16.403 -17.098  1.00  0.00     0.130 A 
ATOM     17  N   UNL     1     -13.680  16.178 -16.072  1.00  0.00    -0.245 NA
ENDBRANCH  12  13
ENDBRANCH  11  12
BRANCH  11  18
ATOM     18  C   UNL     1     -15.018  11.120 -17.954  1.00  0.00     0.001 A 
ATOM     19  C   UNL     1     -15.703  11.538 -19.070  1.00  0.00     0.009 A 
ATOM     20  C   UNL     1     -15.099   9.800 -17.589  1.00  0.00     0.048 A 
ATOM     21  C   UNL     1     -16.463  10.621 -19.810  1.00  0.00     0.021 A 
ATOM     22  C   UNL     1     -15.850   8.880 -18.318  1.00  0.00     0.041 A 
ATOM     23  C   UNL     1     -16.539   9.298 -19.441  1.00  0.00     0.042 A 
ATOM     24  Cl  UNL     1     -14.220   9.287 -16.161  1.00  0.00    -0.084 Cl
ATOM     25  Cl  UNL     1     -17.493   8.147 -20.364  1.00  0.00    -0.084 Cl
ENDBRANCH  11  18
ENDBRANCH   1  11
TORSDOF 6
ENDMDL
MODEL 3
REMARK VINA RESULT:      -6.4      3.129      6.445
REMARK SMILES Clc1ccc(COC(Cn2ccnc2)c2ccc(Cl)cc2Cl)c(Cl)c1
REMARK SMILES IDX 7 1 6 2 5 3 2 4 3 5 25 6 4 7 23 8 1 9 24 10 8 11 9 12 10 13
REMARK SMILES IDX 11 14 14 15 12 16 13 17 15 18 16 19 21 20 17 21 20 22 18 23
REMARK SMILES IDX 22 24 19 25
REMARK H PARENT
ROOT
ATOM      1  O   UNL     1     -16.920  17.597 -20.452  1.00  0.00    -0.367 OA
ENDROOT
BRANCH   1   2
ATOM      2  C   UNL     1     -17.624  18.015 -19.389  1.00  0.00     0.198 C 
BRANCH   2   3
ATOM      3  C   UNL     1     -18.435  19.229 -19.631  1.00  0.00    -0.004 A 
ATOM      4  C   UNL     1     -20.036  21.449 -20.380  1.00  0.00     0.042 A 
ATOM      5  C   UNL     1     -20.262  20.180 -20.883  1.00  0.00     0.021 A 
ATOM      6  C   UNL     1     -18.993  21.577 -19.496  1.00  0.00     0.041 A 
ATOM      7  C   UNL     1     -19.500  19.091 -20.535  1.00  0.00     0.009 A 
ATOM      8  C   UNL     1     -18.207  20.474 -19.130  1.00  0.00     0.048 A 
ATOM      9  Cl  UNL     1     -21.023  22.826 -20.849  1.00  0.00    -0.084 Cl
ATOM     10  Cl  UNL     1     -16.946  20.681 -17.918  1.00  0.00    -0.084 Cl
ENDBRANCH   2   3
ENDBRANCH   1   2
BRANCH   1  11
ATOM     11  C   UNL     1     -15.720  17.976 -20.846  1.00  0.00     0.170 C 
BRANCH  11  12
ATOM     12  C   UNL     1     -15.210  16.914 -21.852  1.00  0.00     0.160 C 
BRANCH  12  13
ATOM     13  N   UNL     1     -13.789  16.814 -21.722  1.00  0.00    -0.335 N 
ATOM     14  C   UNL     1     -13.088  16.391 -20.658  1.00  0.00     0.107 A 
ATOM     15  C   UNL     1     -12.929  17.152 -22.704  1.00  0.00     0.199 A 
ATOM     16  C   UNL     1     -11.762  16.483 -21.025  1.00  0.00     0.130 A 
ATOM     17  N   UNL     1     -11.690  16.951 -22.281  1.00  0.00    -0.245 NA
ENDBRANCH  12  13
ENDBRANCH  11  12
BRANCH  11  18
ATOM     18  C   UNL     1     -15.736  19.308 -21.572  1.00  0.00     0.001 A 
ATOM     19  C   UNL     1     -16.664  19.585 -22.548  1.00  0.00     0.009 A 
ATOM     20  C   UNL     1     -14.805  20.267 -21.261  1.00  0.00     0.048 A 
ATOM     21  C   UNL     1     -16.645  20.825 -23.202  1.00  0.00     0.021 A 
ATOM     22  C   UNL     1     -14.778  21.503 -21.903  1.00  0.00     0.041 A 
ATOM     23  C   UNL     1     -15.711  21.783 -22.885  1.00  0.00     0.042 A 
ATOM     24  Cl  UNL     1     -13.629  19.895 -20.014  1.00  0.00    -0.084 Cl
ATOM     25  Cl  UNL     1     -15.683  23.336 -23.704  1.00  0.00    -0.084 Cl
ENDBRANCH  11  18
ENDBRANCH   1  11
TORSDOF 6
ENDMDL
MODEL 4
REMARK VINA RESULT:      -6.3      6.239      8.437
REMARK SMILES Clc1ccc(COC(Cn2ccnc2)c2ccc(Cl)cc2Cl)c(Cl)c1
REMARK SMILES IDX 7 1 6 2 5 3 2 4 3 5 25 6 4 7 23 8 1 9 24 10 8 11 9 12 10 13
REMARK SMILES IDX 11 14 14 15 12 16 13 17 15 18 16 19 21 20 17 21 20 22 18 23
REMARK SMILES IDX 22 24 19 25
REMARK H PARENT
ROOT
ATOM      1  O   UNL     1     -12.686  11.438 -18.427  1.00  0.00    -0.367 OA
ENDROOT
BRANCH   1   2
ATOM      2  C   UNL     1     -11.726  11.932 -19.224  1.00  0.00     0.198 C 
BRANCH   2   3
ATOM      3  C   UNL     1     -12.222  12.816 -20.302  1.00  0.00    -0.004 A 
ATOM      4  C   UNL     1     -13.139  14.273 -22.559  1.00  0.00     0.042 A 
ATOM      5  C   UNL     1     -13.374  12.916 -22.418  1.00  0.00     0.021 A 
ATOM      6  C   UNL     1     -12.437  14.878 -21.545  1.00  0.00     0.041 A 
ATOM      7  C   UNL     1     -12.939  12.191 -21.334  1.00  0.00     0.009 A 
ATOM      8  C   UNL     1     -11.988  14.151 -20.433  1.00  0.00     0.048 A 
ATOM      9  Cl  UNL     1     -13.700  15.174 -23.960  1.00  0.00    -0.084 Cl
ATOM     10  Cl  UNL     1     -11.180  15.001 -19.119  1.00  0.00    -0.084 Cl
ENDBRANCH   2   3
ENDBRANCH   1   2
BRANCH   1  11
ATOM     11  C   UNL     1     -13.896  11.911 -18.204  1.00  0.00     0.170 C 
BRANCH  11  12
ATOM     12  C   UNL     1     -14.684  10.819 -17.438  1.00  0.00     0.160 C 
BRANCH  12  13
ATOM     13  N   UNL     1     -15.552  10.156 -18.361  1.00  0.00    -0.335 N 
ATOM     14  C   UNL     1     -16.107  10.659 -19.475  1.00  0.00     0.107 A 
ATOM     15  C   UNL     1     -15.946   8.874 -18.219  1.00  0.00     0.199 A 
ATOM     16  C   UNL     1     -16.858   9.635 -20.013  1.00  0.00     0.130 A 
ATOM     17  N   UNL     1     -16.744   8.553 -19.225  1.00  0.00    -0.245 NA
ENDBRANCH  12  13
ENDBRANCH  11  12
BRANCH  11  18
ATOM     18  C   UNL     1     -13.888  13.151 -17.329  1.00  0.00     0.001 A 
ATOM     19  C   UNL     1     -14.524  14.307 -17.714  1.00  0.00     0.009 A 
ATOM     20  C   UNL     1     -13.230  13.133 -16.125  1.00  0.00     0.048 A 
ATOM     21  C   UNL     1     -14.491  15.436 -16.883  1.00  0.00     0.021 A 
ATOM     22  C   UNL     1     -13.192  14.248 -15.291  1.00  0.00     0.041 A 
ATOM     23  C   UNL     1     -13.831  15.412 -15.676  1.00  0.00     0.042 A 
ATOM     24  Cl  UNL     1     -12.423  11.649 -15.652  1.00  0.00    -0.084 Cl
ATOM     25  Cl  UNL     1     -13.786  16.825 -14.633  1.00  0.00    -0.084 Cl
ENDBRANCH  11  18
ENDBRANCH   1  11
TORSDOF 6
ENDMDL
MODEL 5
REMARK VINA RESULT:      -6.2      5.092      7.630
REMARK SMILES Clc1ccc(COC(Cn2ccnc2)c2ccc(Cl)cc2Cl)c(Cl)c1
REMARK SMILES IDX 7 1 6 2 5 3 2 4 3 5 25 6 4 7 23 8 1 9 24 10 8 11 9 12 10 13
REMARK SMILES IDX 11 14 14 15 12 16 13 17 15 18 16 19 21 20 17 21 20 22 18 23
REMARK SMILES IDX 22 24 19 25
REMARK H PARENT
ROOT
ATOM      1  O   UNL     1     -12.502  13.378 -19.010  1.00  0.00    -0.367 OA
ENDROOT
BRANCH   1   2
ATOM      2  C   UNL     1     -11.953  14.414 -19.663  1.00  0.00     0.198 C 
BRANCH   2   3
ATOM      3  C   UNL     1     -12.415  14.570 -21.059  1.00  0.00    -0.004 A 
ATOM      4  C   UNL     1     -13.402  15.150 -23.657  1.00  0.00     0.042 A 
ATOM      5  C   UNL     1     -12.888  16.135 -22.832  1.00  0.00     0.021 A 
ATOM      6  C   UNL     1     -13.408  13.873 -23.150  1.00  0.00     0.041 A 
ATOM      7  C   UNL     1     -12.406  15.878 -21.571  1.00  0.00     0.009 A 
ATOM      8  C   UNL     1     -12.917  13.595 -21.865  1.00  0.00     0.048 A 
ATOM      9  Cl  UNL     1     -14.020  15.508 -25.263  1.00  0.00    -0.084 Cl
ATOM     10  Cl  UNL     1     -12.860  11.925 -21.310  1.00  0.00    -0.084 Cl
ENDBRANCH   2   3
ENDBRANCH   1   2
BRANCH   1  11
ATOM     11  C   UNL     1     -13.008  13.346 -17.793  1.00  0.00     0.170 C 
BRANCH  11  12
ATOM     12  C   UNL     1     -14.055  14.484 -17.699  1.00  0.00     0.160 C 
BRANCH  12  13
ATOM     13  N   UNL     1     -13.942  15.098 -16.413  1.00  0.00    -0.335 N 
ATOM     14  C   UNL     1     -12.906  15.797 -15.922  1.00  0.00     0.107 A 
ATOM     15  C   UNL     1     -14.915  15.048 -15.480  1.00  0.00     0.199 A 
ATOM     16  C   UNL     1     -13.280  16.174 -14.649  1.00  0.00     0.130 A 
ATOM     17  N   UNL     1     -14.513  15.703 -14.401  1.00  0.00    -0.245 NA
ENDBRANCH  12  13
ENDBRANCH  11  12
BRANCH  11  18
ATOM     18  C   UNL     1     -13.733  12.047 -17.493  1.00  0.00     0.001 A 
ATOM     19  C   UNL     1     -14.691  11.546 -18.341  1.00  0.00     0.009 A 
ATOM     20  C   UNL     1     -13.439  11.349 -16.349  1.00  0.00     0.048 A 
ATOM     21  C   UNL     1     -15.345  10.345 -18.029  1.00  0.00     0.021 A 
ATOM     22  C   UNL     1     -14.082  10.155 -16.030  1.00  0.00     0.041 A 
ATOM     23  C   UNL     1     -15.045   9.649 -16.882  1.00  0.00     0.042 A 
ATOM     24  Cl  UNL     1     -12.216  12.006 -15.278  1.00  0.00    -0.084 Cl
ATOM     25  Cl  UNL     1     -15.864   8.146 -16.487  1.00  0.00    -0.084 Cl
ENDBRANCH  11  18
ENDBRANCH   1  11
TORSDOF 6
ENDMDL
MODEL 6
REMARK VINA RESULT:      -6.2      2.770      5.797
REMARK SMILES Clc1ccc(COC(Cn2ccnc2)c2ccc(Cl)cc2Cl)c(Cl)c1
REMARK SMILES IDX 7 1 6 2 5 3 2 4 3 5 25 6 4 7 23 8 1 9 24 10 8 11 9 12 10 13
REMARK SMILES IDX 11 14 14 15 12 16 13 17 15 18 16 19 21 20 17 21 20 22 18 23
REMARK SMILES IDX 22 24 19 25
REMARK H PARENT
ROOT
ATOM      1  O   UNL     1     -15.495  18.055 -22.024  1.00  0.00    -0.367 OA
ENDROOT
BRANCH   1   2
ATOM      2  C   UNL     1     -16.486  17.306 -21.517  1.00  0.00     0.198 C 
BRANCH   2   3
ATOM      3  C   UNL     1     -17.555  18.079 -20.846  1.00  0.00    -0.004 A 
ATOM      4  C   UNL     1     -19.574  19.768 -19.785  1.00  0.00     0.042 A 
ATOM      5  C   UNL     1     -19.352  19.658 -21.146  1.00  0.00     0.021 A 
ATOM      6  C   UNL     1     -18.763  19.013 -18.972  1.00  0.00     0.041 A 
ATOM      7  C   UNL     1     -18.380  18.847 -21.682  1.00  0.00     0.009 A 
ATOM      8  C   UNL     1     -17.768  18.180 -19.506  1.00  0.00     0.048 A 
ATOM      9  Cl  UNL     1     -20.819  20.820 -19.126  1.00  0.00    -0.084 Cl
ATOM     10  Cl  UNL     1     -16.828  17.162 -18.420  1.00  0.00    -0.084 Cl
ENDBRANCH   2   3
ENDBRANCH   1   2
BRANCH   1  11
ATOM     11  C   UNL     1     -14.636  18.825 -21.387  1.00  0.00     0.170 C 
BRANCH  11  12
ATOM     12  C   UNL     1     -13.290  18.742 -22.149  1.00  0.00     0.160 C 
BRANCH  12  13
ATOM     13  N   UNL     1     -12.794  17.404 -22.048  1.00  0.00    -0.335 N 
ATOM     14  C   UNL     1     -12.618  16.515 -23.037  1.00  0.00     0.107 A 
ATOM     15  C   UNL     1     -12.423  16.838 -20.881  1.00  0.00     0.199 A 
ATOM     16  C   UNL     1     -12.124  15.377 -22.433  1.00  0.00     0.130 A 
ATOM     17  N   UNL     1     -12.015  15.599 -21.114  1.00  0.00    -0.245 NA
ENDBRANCH  12  13
ENDBRANCH  11  12
BRANCH  11  18
ATOM     18  C   UNL     1     -15.053  20.284 -21.375  1.00  0.00     0.001 A 
ATOM     19  C   UNL     1     -15.319  20.966 -22.538  1.00  0.00     0.009 A 
ATOM     20  C   UNL     1     -15.166  20.952 -20.182  1.00  0.00     0.048 A 
ATOM     21  C   UNL     1     -15.696  22.315 -22.490  1.00  0.00     0.021 A 
ATOM     22  C   UNL     1     -15.542  22.293 -20.122  1.00  0.00     0.041 A 
ATOM     23  C   UNL     1     -15.810  22.980 -21.291  1.00  0.00     0.042 A 
ATOM     24  Cl  UNL     1     -14.821  20.066 -18.708  1.00  0.00    -0.084 Cl
ATOM     25  Cl  UNL     1     -16.280  24.671 -21.227  1.00  0.00    -0.084 Cl
ENDBRANCH  11  18
ENDBRANCH   1  11
TORSDOF 6
ENDMDL
MODEL 7
REMARK VINA RESULT:      -6.2      5.350      7.605
REMARK SMILES Clc1ccc(COC(Cn2ccnc2)c2ccc(Cl)cc2Cl)c(Cl)c1
REMARK SMILES IDX 7 1 6 2 5 3 2 4 3 5 25 6 4 7 23 8 1 9 24 10 8 11 9 12 10 13
REMARK SMILES IDX 11 14 14 15 12 16 13 17 15 18 16 19 21 20 17 21 20 22 18 23
REMARK SMILES IDX 22 24 19 25
REMARK H PARENT
ROOT
ATOM      1  O   UNL     1     -13.038  13.711 -16.537  1.00  0.00    -0.367 OA
ENDROOT
BRANCH   1   2
ATOM      2  C   UNL     1     -12.076  13.299 -17.377  1.00  0.00     0.198 C 
BRANCH   2   3
ATOM      3  C   UNL     1     -12.380  13.515 -18.809  1.00  0.00    -0.004 A 
ATOM      4  C   UNL     1     -12.870  13.640 -21.602  1.00  0.00     0.042 A 
ATOM      5  C   UNL     1     -13.024  12.468 -20.883  1.00  0.00     0.021 A 
ATOM      6  C   UNL     1     -12.468  14.744 -20.889  1.00  0.00     0.041 A 
ATOM      7  C   UNL     1     -12.792  12.384 -19.531  1.00  0.00     0.009 A 
ATOM      8  C   UNL     1     -12.229  14.673 -19.508  1.00  0.00     0.048 A 
ATOM      9  Cl  UNL     1     -13.166  13.717 -23.333  1.00  0.00    -0.084 Cl
ATOM     10  Cl  UNL     1     -11.811  16.142 -18.632  1.00  0.00    -0.084 Cl
ENDBRANCH   2   3
ENDBRANCH   1   2
BRANCH   1  11
ATOM     11  C   UNL     1     -13.785  12.990 -15.724  1.00  0.00     0.170 C 
BRANCH  11  12
ATOM     12  C   UNL     1     -14.874  13.929 -15.146  1.00  0.00     0.160 C 
BRANCH  12  13
ATOM     13  N   UNL     1     -14.622  15.256 -15.614  1.00  0.00    -0.335 N 
ATOM     14  C   UNL     1     -15.159  15.868 -16.681  1.00  0.00     0.107 A 
ATOM     15  C   UNL     1     -13.765  16.105 -15.010  1.00  0.00     0.199 A 
ATOM     16  C   UNL     1     -14.598  17.127 -16.711  1.00  0.00     0.130 A 
ATOM     17  N   UNL     1     -13.748  17.248 -15.678  1.00  0.00    -0.245 NA
ENDBRANCH  12  13
ENDBRANCH  11  12
BRANCH  11  18
ATOM     18  C   UNL     1     -14.504  11.859 -16.436  1.00  0.00     0.001 A 
ATOM     19  C   UNL     1     -15.618  12.087 -17.208  1.00  0.00     0.009 A 
ATOM     20  C   UNL     1     -14.044  10.572 -16.312  1.00  0.00     0.048 A 
ATOM     21  C   UNL     1     -16.260  11.017 -17.847  1.00  0.00     0.021 A 
ATOM     22  C   UNL     1     -14.672   9.502 -16.944  1.00  0.00     0.041 A 
ATOM     23  C   UNL     1     -15.793   9.729 -17.720  1.00  0.00     0.042 A 
ATOM     24  Cl  UNL     1     -12.621  10.301 -15.322  1.00  0.00    -0.084 Cl
ATOM     25  Cl  UNL     1     -16.597   8.386 -18.517  1.00  0.00    -0.084 Cl
ENDBRANCH  11  18
ENDBRANCH   1  11
TORSDOF 6
ENDMDL
MODEL 8
REMARK VINA RESULT:      -6.1      2.747      3.806
REMARK SMILES Clc1ccc(COC(Cn2ccnc2)c2ccc(Cl)cc2Cl)c(Cl)c1
REMARK SMILES IDX 7 1 6 2 5 3 2 4 3 5 25 6 4 7 23 8 1 9 24 10 8 11 9 12 10 13
REMARK SMILES IDX 11 14 14 15 12 16 13 17 15 18 16 19 21 20 17 21 20 22 18 23
REMARK SMILES IDX 22 24 19 25
REMARK H PARENT
ROOT
ATOM      1  O   UNL     1     -13.505  17.893 -22.454  1.00  0.00    -0.367 OA
ENDROOT
BRANCH   1   2
ATOM      2  C   UNL     1     -12.423  17.132 -22.226  1.00  0.00     0.198 C 
BRANCH   2   3
ATOM      3  C   UNL     1     -12.712  15.688 -22.077  1.00  0.00    -0.004 A 
ATOM      4  C   UNL     1     -13.029  12.909 -21.596  1.00  0.00     0.042 A 
ATOM      5  C   UNL     1     -12.561  13.773 -20.621  1.00  0.00     0.021 A 
ATOM      6  C   UNL     1     -13.333  13.471 -22.812  1.00  0.00     0.041 A 
ATOM      7  C   UNL     1     -12.400  15.121 -20.831  1.00  0.00     0.009 A 
ATOM      8  C   UNL     1     -13.174  14.846 -23.041  1.00  0.00     0.048 A 
ATOM      9  Cl  UNL     1     -13.218  11.186 -21.301  1.00  0.00    -0.084 Cl
ATOM     10  Cl  UNL     1     -13.674  15.523 -24.588  1.00  0.00    -0.084 Cl
ENDBRANCH   2   3
ENDBRANCH   1   2
BRANCH   1  11
ATOM     11  C   UNL     1     -14.291  18.489 -21.579  1.00  0.00     0.170 C 
BRANCH  11  12
ATOM     12  C   UNL     1     -13.551  18.488 -20.219  1.00  0.00     0.160 C 
BRANCH  12  13
ATOM     13  N   UNL     1     -14.488  18.145 -19.194  1.00  0.00    -0.335 N 
ATOM     14  C   UNL     1     -14.610  18.693 -17.975  1.00  0.00     0.107 A 
ATOM     15  C   UNL     1     -15.414  17.175 -19.331  1.00  0.00     0.199 A 
ATOM     16  C   UNL     1     -15.649  18.020 -17.366  1.00  0.00     0.130 A 
ATOM     17  N   UNL     1     -16.125  17.096 -18.216  1.00  0.00    -0.245 NA
ENDBRANCH  12  13
ENDBRANCH  11  12
BRANCH  11  18
ATOM     18  C   UNL     1     -14.571  19.938 -21.934  1.00  0.00     0.001 A 
ATOM     19  C   UNL     1     -13.570  20.879 -21.959  1.00  0.00     0.009 A 
ATOM     20  C   UNL     1     -15.850  20.332 -22.235  1.00  0.00     0.048 A 
ATOM     21  C   UNL     1     -13.866  22.209 -22.286  1.00  0.00     0.021 A 
ATOM     22  C   UNL     1     -16.156  21.652 -22.563  1.00  0.00     0.041 A 
ATOM     23  C   UNL     1     -15.150  22.599 -22.588  1.00  0.00     0.042 A 
ATOM     24  Cl  UNL     1     -17.115  19.117 -22.196  1.00  0.00    -0.084 Cl
ATOM     25  Cl  UNL     1     -15.524  24.266 -22.995  1.00  0.00    -0.084 Cl
ENDBRANCH  11  18
ENDBRANCH   1  11
TORSDOF 6
ENDMDL
MODEL 9
REMARK VINA RESULT:      -6.1      3.404      6.704
REMARK SMILES Clc1ccc(COC(Cn2ccnc2)c2ccc(Cl)cc2Cl)c(Cl)c1
REMARK SMILES IDX 7 1 6 2 5 3 2 4 3 5 25 6 4 7 23 8 1 9 24 10 8 11 9 12 10 13
REMARK SMILES IDX 11 14 14 15 12 16 13 17 15 18 16 19 21 20 17 21 20 22 18 23
REMARK SMILES IDX 22 24 19 25
REMARK H PARENT
ROOT
ATOM      1  O   UNL     1     -16.131  18.017 -20.031  1.00  0.00    -0.367 OA
ENDROOT
BRANCH   1   2
ATOM      2  C   UNL     1     -16.188  18.526 -18.791  1.00  0.00     0.198 C 
BRANCH   2   3
ATOM      3  C   UNL     1     -17.053  19.719 -18.659  1.00  0.00    -0.004 A 
ATOM      4  C   UNL     1     -18.572  22.060 -18.138  1.00  0.00     0.042 A 
ATOM      5  C   UNL     1     -17.257  21.932 -17.725  1.00  0.00     0.021 A 
ATOM      6  C   UNL     1     -19.104  20.990 -18.816  1.00  0.00     0.041 A 
ATOM      7  C   UNL     1     -16.503  20.809 -17.966  1.00  0.00     0.009 A 
ATOM      8  C   UNL     1     -18.345  19.837 -19.070  1.00  0.00     0.048 A 
ATOM      9  Cl  UNL     1     -19.515  23.506 -17.810  1.00  0.00    -0.084 Cl
ATOM     10  Cl  UNL     1     -19.050  18.539 -20.030  1.00  0.00    -0.084 Cl
ENDBRANCH   2   3
ENDBRANCH   1   2
BRANCH   1  11
ATOM     11  C   UNL     1     -15.188  18.167 -20.941  1.00  0.00     0.170 C 
BRANCH  11  12
ATOM     12  C   UNL     1     -15.316  16.986 -21.935  1.00  0.00     0.160 C 
BRANCH  12  13
ATOM     13  N   UNL     1     -14.052  16.323 -22.016  1.00  0.00    -0.335 N 
ATOM     14  C   UNL     1     -12.966  16.701 -22.708  1.00  0.00     0.107 A 
ATOM     15  C   UNL     1     -13.778  15.169 -21.373  1.00  0.00     0.199 A 
ATOM     16  C   UNL     1     -12.013  15.734 -22.466  1.00  0.00     0.130 A 
ATOM     17  N   UNL     1     -12.534  14.807 -21.647  1.00  0.00    -0.245 NA
ENDBRANCH  12  13
ENDBRANCH  11  12
BRANCH  11  18
ATOM     18  C   UNL     1     -15.346  19.446 -21.743  1.00  0.00     0.001 A 
ATOM     19  C   UNL     1     -16.539  19.779 -22.338  1.00  0.00     0.009 A 
ATOM     20  C   UNL     1     -14.279  20.295 -21.890  1.00  0.00     0.048 A 
ATOM     21  C   UNL     1     -16.646  20.966 -23.076  1.00  0.00     0.021 A 
ATOM     22  C   UNL     1     -14.375  21.478 -22.620  1.00  0.00     0.041 A 
ATOM     23  C   UNL     1     -15.574  21.815 -23.219  1.00  0.00     0.042 A 
ATOM     24  Cl  UNL     1     -12.764  19.852 -21.124  1.00  0.00    -0.084 Cl
ATOM     25  Cl  UNL     1     -15.705  23.302 -24.146  1.00  0.00    -0.084 Cl
ENDBRANCH  11  18
ENDBRANCH   1  11
TORSDOF 6
ENDMDL
