MODEL 1
REMARK VINA RESULT:      -5.9      0.000      0.000
REMARK SMILES CC1=[NH+]c2ccc(Cl)cc2S(=O)(=O)N1
REMARK SMILES IDX 1 1 2 2 3 3 4 4 5 5 6 6 7 7 8 8 9 9 10 10 11 11 12 12 13 13
REMARK SMILES IDX 14 14
REMARK H PARENT 3 15 14 16
ROOT
ATOM      1  C   UNL     1     -13.722  14.261 -21.979  1.00  0.00     0.146 C 
ATOM      2  C   UNL     1     -13.843  13.333 -20.793  1.00  0.00     0.259 C 
ATOM      3  N   UNL     1     -14.750  12.455 -20.831  1.00  0.00    -0.243 N 
ATOM      4  C   UNL     1     -15.010  11.504 -19.814  1.00  0.00     0.147 A 
ATOM      5  C   UNL     1     -16.050  10.590 -19.996  1.00  0.00     0.055 A 
ATOM      6  C   UNL     1     -16.359   9.639 -19.050  1.00  0.00     0.025 A 
ATOM      7  C   UNL     1     -15.650   9.551 -17.880  1.00  0.00     0.042 A 
ATOM      8  Cl  UNL     1     -16.039   8.357 -16.691  1.00  0.00    -0.084 Cl
ATOM      9  C   UNL     1     -14.626  10.452 -17.700  1.00  0.00     0.049 A 
ATOM     10  C   UNL     1     -14.314  11.396 -18.631  1.00  0.00     0.156 A 
ATOM     11  S   UNL     1     -12.996  12.525 -18.358  1.00  0.00     0.332 S 
ATOM     12  O   UNL     1     -11.704  11.819 -18.090  1.00  0.00    -0.179 OA
ATOM     13  O   UNL     1     -13.384  13.411 -17.188  1.00  0.00    -0.179 OA
ATOM     14  N   UNL     1     -12.927  13.535 -19.744  1.00  0.00    -0.166 N 
ATOM     15  H   UNL     1     -15.363  12.421 -21.681  1.00  0.00     0.312 HD
ATOM     16  H   UNL     1     -12.240  14.298 -19.856  1.00  0.00     0.327 HD
ENDROOT
TORSDOF 0
ENDMDL
MODEL 2
REMARK VINA RESULT:      -5.9      4.421      5.031
REMARK SMILES CC1=[NH+]c2ccc(Cl)cc2S(=O)(=O)N1
REMARK SMILES IDX 1 1 2 2 3 3 4 4 5 5 6 6 7 7 8 8 9 9 10 10 11 11 12 12 13 13
REMARK SMILES IDX 14 14
REMARK H PARENT 3 15 14 16
ROOT
ATOM      1  C   UNL     1     -14.216  15.315 -25.379  1.00  0.00     0.146 C 
ATOM      2  C   UNL     1     -13.586  15.285 -24.006  1.00  0.00     0.259 C 
ATOM      3  N   UNL     1     -13.523  14.169 -23.418  1.00  0.00    -0.243 N 
ATOM      4  C   UNL     1     -12.968  13.954 -22.133  1.00  0.00     0.147 A 
ATOM      5  C   UNL     1     -12.967  12.658 -21.608  1.00  0.00     0.055 A 
ATOM      6  C   UNL     1     -12.446  12.376 -20.366  1.00  0.00     0.025 A 
ATOM      7  C   UNL     1     -11.900  13.364 -19.588  1.00  0.00     0.042 A 
ATOM      8  Cl  UNL     1     -11.246  13.008 -18.027  1.00  0.00    -0.084 Cl
ATOM      9  C   UNL     1     -11.902  14.639 -20.104  1.00  0.00     0.049 A 
ATOM     10  C   UNL     1     -12.416  14.928 -21.332  1.00  0.00     0.156 A 
ATOM     11  S   UNL     1     -12.394  16.572 -21.950  1.00  0.00     0.332 S 
ATOM     12  O   UNL     1     -11.010  17.138 -21.980  1.00  0.00    -0.179 OA
ATOM     13  O   UNL     1     -13.305  17.407 -21.068  1.00  0.00    -0.179 OA
ATOM     14  N   UNL     1     -13.123  16.515 -23.504  1.00  0.00    -0.166 N 
ATOM     15  H   UNL     1     -13.909  13.331 -23.915  1.00  0.00     0.312 HD
ATOM     16  H   UNL     1     -13.245  17.348 -24.103  1.00  0.00     0.327 HD
ENDROOT
TORSDOF 0
ENDMDL
MODEL 3
REMARK VINA RESULT:      -5.9      2.649      3.488
REMARK SMILES CC1=[NH+]c2ccc(Cl)cc2S(=O)(=O)N1
REMARK SMILES IDX 1 1 2 2 3 3 4 4 5 5 6 6 7 7 8 8 9 9 10 10 11 11 12 12 13 13
REMARK SMILES IDX 14 14
REMARK H PARENT 3 15 14 16
ROOT
ATOM      1  C   UNL     1     -13.516  13.018 -22.373  1.00  0.00     0.146 C 
ATOM      2  C   UNL     1     -13.744  12.392 -21.017  1.00  0.00     0.259 C 
ATOM      3  N   UNL     1     -12.852  12.561 -20.139  1.00  0.00    -0.243 N 
ATOM      4  C   UNL     1     -12.897  12.049 -18.820  1.00  0.00     0.147 A 
ATOM      5  C   UNL     1     -11.832  12.319 -17.956  1.00  0.00     0.055 A 
ATOM      6  C   UNL     1     -11.809  11.853 -16.661  1.00  0.00     0.025 A 
ATOM      7  C   UNL     1     -12.840  11.100 -16.163  1.00  0.00     0.042 A 
ATOM      8  Cl  UNL     1     -12.809  10.515 -14.535  1.00  0.00    -0.084 Cl
ATOM      9  C   UNL     1     -13.887  10.834 -17.013  1.00  0.00     0.049 A 
ATOM     10  C   UNL     1     -13.919  11.290 -18.296  1.00  0.00     0.156 A 
ATOM     11  S   UNL     1     -15.280  10.926 -19.346  1.00  0.00     0.332 S 
ATOM     12  O   UNL     1     -16.577  11.378 -18.754  1.00  0.00    -0.179 OA
ATOM     13  O   UNL     1     -15.286   9.427 -19.588  1.00  0.00    -0.179 OA
ATOM     14  N   UNL     1     -14.941  11.670 -20.855  1.00  0.00    -0.166 N 
ATOM     15  H   UNL     1     -12.008  13.125 -20.402  1.00  0.00     0.312 HD
ATOM     16  H   UNL     1     -15.576  11.618 -21.667  1.00  0.00     0.327 HD
ENDROOT
TORSDOF 0
ENDMDL
MODEL 4
REMARK VINA RESULT:      -5.8      3.155      4.717
REMARK SMILES CC1=[NH+]c2ccc(Cl)cc2S(=O)(=O)N1
REMARK SMILES IDX 1 1 2 2 3 3 4 4 5 5 6 6 7 7 8 8 9 9 10 10 11 11 12 12 13 13
REMARK SMILES IDX 14 14
REMARK H PARENT 3 15 14 16
ROOT
ATOM      1  C   UNL     1     -15.044   9.797 -17.444  1.00  0.00     0.146 C 
ATOM      2  C   UNL     1     -14.601  11.080 -18.106  1.00  0.00     0.259 C 
ATOM      3  N   UNL     1     -14.366  11.044 -19.347  1.00  0.00    -0.243 N 
ATOM      4  C   UNL     1     -13.944  12.146 -20.130  1.00  0.00     0.147 A 
ATOM      5  C   UNL     1     -13.723  11.956 -21.497  1.00  0.00     0.055 A 
ATOM      6  C   UNL     1     -13.311  12.981 -22.318  1.00  0.00     0.025 A 
ATOM      7  C   UNL     1     -13.100  14.241 -21.822  1.00  0.00     0.042 A 
ATOM      8  Cl  UNL     1     -12.582  15.529 -22.854  1.00  0.00    -0.084 Cl
ATOM      9  C   UNL     1     -13.317  14.428 -20.477  1.00  0.00     0.049 A 
ATOM     10  C   UNL     1     -13.724  13.420 -19.656  1.00  0.00     0.156 A 
ATOM     11  S   UNL     1     -13.990  13.707 -17.944  1.00  0.00     0.332 S 
ATOM     12  O   UNL     1     -14.978  14.805 -17.710  1.00  0.00    -0.179 OA
ATOM     13  O   UNL     1     -12.646  14.042 -17.320  1.00  0.00    -0.179 OA
ATOM     14  N   UNL     1     -14.488  12.208 -17.273  1.00  0.00    -0.166 N 
ATOM     15  H   UNL     1     -14.494  10.129 -19.843  1.00  0.00     0.312 HD
ATOM     16  H   UNL     1     -14.714  12.082 -16.273  1.00  0.00     0.327 HD
ENDROOT
TORSDOF 0
ENDMDL
MODEL 5
REMARK VINA RESULT:      -5.7      3.024      4.647
REMARK SMILES CC1=[NH+]c2ccc(Cl)cc2S(=O)(=O)N1
REMARK SMILES IDX 1 1 2 2 3 3 4 4 5 5 6 6 7 7 8 8 9 9 10 10 11 11 12 12 13 13
REMARK SMILES IDX 14 14
REMARK H PARENT 3 15 14 16
ROOT
ATOM      1  C   UNL     1     -15.925   9.400 -19.025  1.00  0.00     0.146 C 
ATOM      2  C   UNL     1     -14.980  10.571 -19.151  1.00  0.00     0.259 C 
ATOM      3  N   UNL     1     -14.810  11.061 -20.303  1.00  0.00    -0.243 N 
ATOM      4  C   UNL     1     -13.965  12.156 -20.608  1.00  0.00     0.147 A 
ATOM      5  C   UNL     1     -13.878  12.591 -21.933  1.00  0.00     0.055 A 
ATOM      6  C   UNL     1     -13.077  13.648 -22.301  1.00  0.00     0.025 A 
ATOM      7  C   UNL     1     -12.326  14.322 -21.374  1.00  0.00     0.042 A 
ATOM      8  Cl  UNL     1     -11.318  15.649 -21.838  1.00  0.00    -0.084 Cl
ATOM      9  C   UNL     1     -12.411  13.893 -20.070  1.00  0.00     0.049 A 
ATOM     10  C   UNL     1     -13.200  12.849 -19.695  1.00  0.00     0.156 A 
ATOM     11  S   UNL     1     -13.278  12.337 -18.017  1.00  0.00     0.332 S 
ATOM     12  O   UNL     1     -13.682  13.457 -17.111  1.00  0.00    -0.179 OA
ATOM     13  O   UNL     1     -11.911  11.797 -17.637  1.00  0.00    -0.179 OA
ATOM     14  N   UNL     1     -14.368  11.012 -17.964  1.00  0.00    -0.166 N 
ATOM     15  H   UNL     1     -15.335  10.629 -21.101  1.00  0.00     0.312 HD
ATOM     16  H   UNL     1     -14.605  10.508 -17.093  1.00  0.00     0.327 HD
ENDROOT
TORSDOF 0
ENDMDL
MODEL 6
REMARK VINA RESULT:      -5.6      1.241      1.422
REMARK SMILES CC1=[NH+]c2ccc(Cl)cc2S(=O)(=O)N1
REMARK SMILES IDX 1 1 2 2 3 3 4 4 5 5 6 6 7 7 8 8 9 9 10 10 11 11 12 12 13 13
REMARK SMILES IDX 14 14
REMARK H PARENT 3 15 14 16
ROOT
ATOM      1  C   UNL     1     -13.578  12.604 -21.987  1.00  0.00     0.146 C 
ATOM      2  C   UNL     1     -13.964  12.295 -20.560  1.00  0.00     0.259 C 
ATOM      3  N   UNL     1     -14.545  11.196 -20.338  1.00  0.00    -0.243 N 
ATOM      4  C   UNL     1     -14.977  10.742 -19.068  1.00  0.00     0.147 A 
ATOM      5  C   UNL     1     -15.608   9.499 -18.976  1.00  0.00     0.055 A 
ATOM      6  C   UNL     1     -16.055   8.995 -17.775  1.00  0.00     0.025 A 
ATOM      7  C   UNL     1     -15.895   9.701 -16.611  1.00  0.00     0.042 A 
ATOM      8  Cl  UNL     1     -16.457   9.068 -15.102  1.00  0.00    -0.084 Cl
ATOM      9  C   UNL     1     -15.275  10.925 -16.702  1.00  0.00     0.049 A 
ATOM     10  C   UNL     1     -14.831  11.432 -17.885  1.00  0.00     0.156 A 
ATOM     11  S   UNL     1     -14.042  13.000 -17.952  1.00  0.00     0.332 S 
ATOM     12  O   UNL     1     -12.854  13.066 -17.045  1.00  0.00    -0.179 OA
ATOM     13  O   UNL     1     -15.073  14.049 -17.575  1.00  0.00    -0.179 OA
ATOM     14  N   UNL     1     -13.639  13.270 -19.598  1.00  0.00    -0.166 N 
ATOM     15  H   UNL     1     -14.724  10.563 -21.155  1.00  0.00     0.312 HD
ATOM     16  H   UNL     1     -13.162  14.124 -19.932  1.00  0.00     0.327 HD
ENDROOT
TORSDOF 0
ENDMDL
MODEL 7
REMARK VINA RESULT:      -5.6      3.032      4.554
REMARK SMILES CC1=[NH+]c2ccc(Cl)cc2S(=O)(=O)N1
REMARK SMILES IDX 1 1 2 2 3 3 4 4 5 5 6 6 7 7 8 8 9 9 10 10 11 11 12 12 13 13
REMARK SMILES IDX 14 14
REMARK H PARENT 3 15 14 16
ROOT
ATOM      1  C   UNL     1     -16.283   8.666 -18.716  1.00  0.00     0.146 C 
ATOM      2  C   UNL     1     -15.597  10.011 -18.762  1.00  0.00     0.259 C 
ATOM      3  N   UNL     1     -15.037  10.342 -19.845  1.00  0.00    -0.243 N 
ATOM      4  C   UNL     1     -14.349  11.560 -20.068  1.00  0.00     0.147 A 
ATOM      5  C   UNL     1     -13.777  11.790 -21.323  1.00  0.00     0.055 A 
ATOM      6  C   UNL     1     -13.094  12.950 -21.610  1.00  0.00     0.025 A 
ATOM      7  C   UNL     1     -12.947  13.934 -20.669  1.00  0.00     0.042 A 
ATOM      8  Cl  UNL     1     -12.088  15.391 -21.031  1.00  0.00    -0.084 Cl
ATOM      9  C   UNL     1     -13.508  13.708 -19.434  1.00  0.00     0.049 A 
ATOM     10  C   UNL     1     -14.186  12.564 -19.140  1.00  0.00     0.156 A 
ATOM     11  S   UNL     1     -14.888  12.319 -17.548  1.00  0.00     0.332 S 
ATOM     12  O   UNL     1     -15.832  13.419 -17.181  1.00  0.00    -0.179 OA
ATOM     13  O   UNL     1     -13.747  12.225 -16.551  1.00  0.00    -0.179 OA
ATOM     14  N   UNL     1     -15.644  10.778 -17.584  1.00  0.00    -0.166 N 
ATOM     15  H   UNL     1     -15.081   9.668 -20.646  1.00  0.00     0.312 HD
ATOM     16  H   UNL     1     -16.140  10.372 -16.774  1.00  0.00     0.327 HD
ENDROOT
TORSDOF 0
ENDMDL
MODEL 8
REMARK VINA RESULT:      -5.5      9.028     10.004
REMARK SMILES CC1=[NH+]c2ccc(Cl)cc2S(=O)(=O)N1
REMARK SMILES IDX 1 1 2 2 3 3 4 4 5 5 6 6 7 7 8 8 9 9 10 10 11 11 12 12 13 13
REMARK SMILES IDX 14 14
REMARK H PARENT 3 15 14 16
ROOT
ATOM      1  C   UNL     1     -21.127  19.226 -22.326  1.00  0.00     0.146 C 
ATOM      2  C   UNL     1     -19.644  19.287 -22.043  1.00  0.00     0.259 C 
ATOM      3  N   UNL     1     -18.982  20.205 -22.604  1.00  0.00    -0.243 N 
ATOM      4  C   UNL     1     -17.589  20.415 -22.455  1.00  0.00     0.147 A 
ATOM      5  C   UNL     1     -16.991  21.476 -23.140  1.00  0.00     0.055 A 
ATOM      6  C   UNL     1     -15.643  21.738 -23.043  1.00  0.00     0.025 A 
ATOM      7  C   UNL     1     -14.827  20.961 -22.263  1.00  0.00     0.042 A 
ATOM      8  Cl  UNL     1     -13.133  21.291 -22.142  1.00  0.00    -0.084 Cl
ATOM      9  C   UNL     1     -15.416  19.917 -21.590  1.00  0.00     0.049 A 
ATOM     10  C   UNL     1     -16.748  19.649 -21.679  1.00  0.00     0.156 A 
ATOM     11  S   UNL     1     -17.456  18.304 -20.799  1.00  0.00     0.332 S 
ATOM     12  O   UNL     1     -17.190  18.397 -19.330  1.00  0.00    -0.179 OA
ATOM     13  O   UNL     1     -16.880  17.023 -21.376  1.00  0.00    -0.179 OA
ATOM     14  N   UNL     1     -19.131  18.307 -21.174  1.00  0.00    -0.166 N 
ATOM     15  H   UNL     1     -19.498  20.869 -23.230  1.00  0.00     0.312 HD
ATOM     16  H   UNL     1     -19.798  17.617 -20.792  1.00  0.00     0.327 HD
ENDROOT
TORSDOF 0
ENDMDL
MODEL 9
REMARK VINA RESULT:      -5.5      9.142     10.267
REMARK SMILES CC1=[NH+]c2ccc(Cl)cc2S(=O)(=O)N1
REMARK SMILES IDX 1 1 2 2 3 3 4 4 5 5 6 6 7 7 8 8 9 9 10 10 11 11 12 12 13 13
REMARK SMILES IDX 14 14
REMARK H PARENT 3 15 14 16
ROOT
ATOM      1  C   UNL     1     -22.548  19.113 -23.082  1.00  0.00     0.146 C 
ATOM      2  C   UNL     1     -21.388  19.508 -22.197  1.00  0.00     0.259 C 
ATOM      3  N   UNL     1     -20.479  18.651 -22.013  1.00  0.00    -0.243 N 
ATOM      4  C   UNL     1     -19.323  18.845 -21.218  1.00  0.00     0.147 A 
ATOM      5  C   UNL     1     -18.399  17.803 -21.107  1.00  0.00     0.055 A 
ATOM      6  C   UNL     1     -17.254  17.922 -20.351  1.00  0.00     0.025 A 
ATOM      7  C   UNL     1     -16.974  19.078 -19.672  1.00  0.00     0.042 A 
ATOM      8  Cl  UNL     1     -15.536  19.227 -18.722  1.00  0.00    -0.084 Cl
ATOM      9  C   UNL     1     -17.883  20.104 -19.781  1.00  0.00     0.049 A 
ATOM     10  C   UNL     1     -19.018  19.996 -20.525  1.00  0.00     0.156 A 
ATOM     11  S   UNL     1     -20.151  21.334 -20.636  1.00  0.00     0.332 S 
ATOM     12  O   UNL     1     -19.493  22.582 -21.134  1.00  0.00    -0.179 OA
ATOM     13  O   UNL     1     -20.748  21.547 -19.257  1.00  0.00    -0.179 OA
ATOM     14  N   UNL     1     -21.429  20.805 -21.654  1.00  0.00    -0.166 N 
ATOM     15  H   UNL     1     -20.580  17.720 -22.484  1.00  0.00     0.312 HD
ATOM     16  H   UNL     1     -22.242  21.394 -21.895  1.00  0.00     0.327 HD
ENDROOT
TORSDOF 0
ENDMDL
