MODEL 1
REMARK VINA RESULT:      -6.3      0.000      0.000
REMARK SMILES O=C1c2c([O-])ccc(O)c2C(=O)c2c(NCC[NH2+]CCO)ccc(NCCNCCO)c21
REMARK SMILES IDX 1 1 2 2 3 3 4 4 5 5 6 6 7 7 8 8 10 9 11 10 12 11 13 12 14 13
REMARK SMILES IDX 22 14 23 15 24 16 32 17 25 18 26 20 27 21 28 22 29 24 30 25
REMARK SMILES IDX 31 26 9 28 15 30 16 32 17 33 18 34 19 37 20 38 21 39
REMARK H PARENT 25 19 28 23 31 27 9 29 15 31 18 35 18 36 21 40
ROOT
ATOM      1  O   UNL     1     -12.812  11.443 -18.955  1.00  0.00    -0.288 OA
ATOM      2  C   UNL     1     -13.117  12.660 -18.962  1.00  0.00     0.196 C 
ATOM      3  C   UNL     1     -13.290  13.329 -20.273  1.00  0.00     0.030 A 
ATOM      4  C   UNL     1     -13.106  12.567 -21.411  1.00  0.00    -0.097 A 
ATOM      5  O   UNL     1     -12.771  11.222 -21.290  1.00  0.00    -0.872 OA
ATOM      6  C   UNL     1     -13.263  13.166 -22.641  1.00  0.00    -0.004 A 
ATOM      7  C   UNL     1     -13.594  14.490 -22.731  1.00  0.00     0.046 A 
ATOM      8  C   UNL     1     -13.781  15.267 -21.609  1.00  0.00     0.127 A 
ATOM      9  C   UNL     1     -13.620  14.649 -20.370  1.00  0.00     0.075 A 
ATOM     10  C   UNL     1     -13.809  15.436 -19.145  1.00  0.00     0.200 C 
ATOM     11  O   UNL     1     -14.111  16.640 -19.328  1.00  0.00    -0.288 OA
ATOM     12  C   UNL     1     -13.644  14.802 -17.845  1.00  0.00     0.059 A 
ATOM     13  C   UNL     1     -13.830  15.583 -16.739  1.00  0.00     0.046 A 
ATOM     14  C   UNL     1     -13.658  14.934 -15.499  1.00  0.00     0.028 A 
ATOM     15  C   UNL     1     -13.331  13.618 -15.413  1.00  0.00     0.028 A 
ATOM     16  C   UNL     1     -13.139  12.814 -16.549  1.00  0.00     0.046 A 
ATOM     17  C   UNL     1     -13.302  13.428 -17.764  1.00  0.00     0.059 A 
ENDROOT
BRANCH  16  18
ATOM     18  N   UNL     1     -12.833  11.437 -16.342  1.00  0.00    -0.383 N 
ATOM     19  H   UNL     1     -11.976  11.023 -16.680  1.00  0.00     0.160 HD
BRANCH  18  20
ATOM     20  C   UNL     1     -13.738  10.548 -15.635  1.00  0.00     0.128 C 
BRANCH  20  21
ATOM     21  C   UNL     1     -15.140  10.566 -16.128  1.00  0.00     0.102 C 
BRANCH  21  22
ATOM     22  N   UNL     1     -15.243  10.033 -17.493  1.00  0.00    -0.313 NA
ATOM     23  H   UNL     1     -14.321  10.229 -17.953  1.00  0.00     0.122 HD
BRANCH  22  24
ATOM     24  C   UNL     1     -16.226  10.852 -18.187  1.00  0.00     0.109 C 
BRANCH  24  25
ATOM     25  C   UNL     1     -16.219  10.574 -19.671  1.00  0.00     0.171 C 
BRANCH  25  26
ATOM     26  O   UNL     1     -15.064   9.899 -20.062  1.00  0.00    -0.395 OA
ATOM     27  H   UNL     1     -14.292  10.350 -19.621  1.00  0.00     0.210 HD
ENDBRANCH  25  26
ENDBRANCH  24  25
ENDBRANCH  22  24
ENDBRANCH  21  22
ENDBRANCH  20  21
ENDBRANCH  18  20
ENDBRANCH  16  18
BRANCH   8  28
ATOM     28  O   UNL     1     -14.120  16.623 -21.705  1.00  0.00    -0.507 OA
ATOM     29  H   UNL     1     -15.094  16.929 -21.739  1.00  0.00     0.293 HD
ENDBRANCH   8  28
BRANCH  13  30
ATOM     30  N   UNL     1     -14.171  16.951 -16.732  1.00  0.00    -0.379 N 
ATOM     31  H   UNL     1     -13.558  17.713 -16.982  1.00  0.00     0.160 HD
BRANCH  30  32
ATOM     32  C   UNL     1     -15.527  17.378 -16.332  1.00  0.00     0.174 C 
BRANCH  32  33
ATOM     33  C   UNL     1     -16.546  16.321 -16.553  1.00  0.00     0.281 C 
BRANCH  33  34
ATOM     34  N   UNL     1     -17.292  16.449 -17.767  1.00  0.00    -0.343 N 
ATOM     35  H   UNL     1     -16.986  15.789 -18.517  1.00  0.00     0.346 HD
ATOM     36  H   UNL     1     -18.289  16.197 -17.556  1.00  0.00     0.346 HD
BRANCH  34  37
ATOM     37  C   UNL     1     -17.309  17.787 -18.304  1.00  0.00     0.289 C 
BRANCH  37  38
ATOM     38  C   UNL     1     -17.291  17.797 -19.816  1.00  0.00     0.217 C 
BRANCH  38  39
ATOM     39  O   UNL     1     -18.581  17.598 -20.276  1.00  0.00    -0.391 OA
ATOM     40  H   UNL     1     -19.142  17.366 -19.480  1.00  0.00     0.210 HD
ENDBRANCH  38  39
ENDBRANCH  37  38
ENDBRANCH  34  37
ENDBRANCH  33  34
ENDBRANCH  32  33
ENDBRANCH  30  32
ENDBRANCH  13  30
TORSDOF 15
ENDMDL
MODEL 2
REMARK VINA RESULT:      -5.9      1.635      5.639
REMARK SMILES O=C1c2c([O-])ccc(O)c2C(=O)c2c(NCC[NH2+]CCO)ccc(NCCNCCO)c21
REMARK SMILES IDX 1 1 2 2 3 3 4 4 5 5 6 6 7 7 8 8 10 9 11 10 12 11 13 12 14 13
REMARK SMILES IDX 22 14 23 15 24 16 32 17 25 18 26 20 27 21 28 22 29 24 30 25
REMARK SMILES IDX 31 26 9 28 15 30 16 32 17 33 18 34 19 37 20 38 21 39
REMARK H PARENT 25 19 28 23 31 27 9 29 15 31 18 35 18 36 21 40
ROOT
ATOM      1  O   UNL     1     -14.629  17.305 -20.688  1.00  0.00    -0.288 OA
ATOM      2  C   UNL     1     -14.303  16.277 -20.046  1.00  0.00     0.196 C 
ATOM      3  C   UNL     1     -13.875  15.083 -20.812  1.00  0.00     0.030 A 
ATOM      4  C   UNL     1     -13.859  15.176 -22.190  1.00  0.00    -0.097 A 
ATOM      5  O   UNL     1     -14.238  16.367 -22.802  1.00  0.00    -0.872 OA
ATOM      6  C   UNL     1     -13.463  14.080 -22.925  1.00  0.00    -0.004 A 
ATOM      7  C   UNL     1     -13.095  12.922 -22.297  1.00  0.00     0.046 A 
ATOM      8  C   UNL     1     -13.104  12.808 -20.925  1.00  0.00     0.127 A 
ATOM      9  C   UNL     1     -13.506  13.925 -20.193  1.00  0.00     0.075 A 
ATOM     10  C   UNL     1     -13.532  13.852 -18.728  1.00  0.00     0.200 C 
ATOM     11  O   UNL     1     -13.177  12.750 -18.244  1.00  0.00    -0.288 OA
ATOM     12  C   UNL     1     -13.949  15.011 -17.953  1.00  0.00     0.059 A 
ATOM     13  C   UNL     1     -13.957  14.886 -16.591  1.00  0.00     0.046 A 
ATOM     14  C   UNL     1     -14.369  16.029 -15.876  1.00  0.00     0.028 A 
ATOM     15  C   UNL     1     -14.733  17.179 -16.502  1.00  0.00     0.028 A 
ATOM     16  C   UNL     1     -14.727  17.309 -17.901  1.00  0.00     0.046 A 
ATOM     17  C   UNL     1     -14.328  16.207 -18.613  1.00  0.00     0.059 A 
ENDROOT
BRANCH  16  18
ATOM     18  N   UNL     1     -15.094  18.572 -18.450  1.00  0.00    -0.383 N 
ATOM     19  H   UNL     1     -14.456  19.116 -19.014  1.00  0.00     0.160 HD
BRANCH  18  20
ATOM     20  C   UNL     1     -16.404  19.155 -18.225  1.00  0.00     0.128 C 
BRANCH  20  21
ATOM     21  C   UNL     1     -17.290  19.176 -19.419  1.00  0.00     0.102 C 
BRANCH  21  22
ATOM     22  N   UNL     1     -18.025  17.914 -19.573  1.00  0.00    -0.313 NA
ATOM     23  H   UNL     1     -17.419  17.170 -19.147  1.00  0.00     0.122 HD
BRANCH  22  24
ATOM     24  C   UNL     1     -18.074  17.630 -20.999  1.00  0.00     0.109 C 
BRANCH  24  25
ATOM     25  C   UNL     1     -17.569  18.801 -21.808  1.00  0.00     0.171 C 
BRANCH  25  26
ATOM     26  O   UNL     1     -16.608  18.408 -22.736  1.00  0.00    -0.395 OA
ATOM     27  H   UNL     1     -15.953  17.828 -22.258  1.00  0.00     0.210 HD
ENDBRANCH  25  26
ENDBRANCH  24  25
ENDBRANCH  22  24
ENDBRANCH  21  22
ENDBRANCH  20  21
ENDBRANCH  18  20
ENDBRANCH  16  18
BRANCH   8  28
ATOM     28  O   UNL     1     -12.725  11.620 -20.286  1.00  0.00    -0.507 OA
ATOM     29  H   UNL     1     -12.579  10.755 -20.809  1.00  0.00     0.293 HD
ENDBRANCH   8  28
BRANCH  13  30
ATOM     30  N   UNL     1     -13.595  13.737 -15.858  1.00  0.00    -0.379 N 
ATOM     31  H   UNL     1     -12.673  13.329 -15.818  1.00  0.00     0.160 HD
BRANCH  30  32
ATOM     32  C   UNL     1     -14.605  13.015 -15.058  1.00  0.00     0.174 C 
BRANCH  32  33
ATOM     33  C   UNL     1     -15.904  12.884 -15.764  1.00  0.00     0.281 C 
BRANCH  33  34
ATOM     34  N   UNL     1     -15.938  11.874 -16.778  1.00  0.00    -0.343 N 
ATOM     35  H   UNL     1     -16.800  11.901 -17.367  1.00  0.00     0.346 HD
ATOM     36  H   UNL     1     -15.139  12.055 -17.434  1.00  0.00     0.346 HD
BRANCH  34  37
ATOM     37  C   UNL     1     -15.763  10.534 -16.273  1.00  0.00     0.289 C 
BRANCH  37  38
ATOM     38  C   UNL     1     -14.696   9.774 -17.029  1.00  0.00     0.217 C 
BRANCH  38  39
ATOM     39  O   UNL     1     -14.549  10.341 -18.282  1.00  0.00    -0.391 OA
ATOM     40  H   UNL     1     -14.844   9.655 -18.949  1.00  0.00     0.210 HD
ENDBRANCH  38  39
ENDBRANCH  37  38
ENDBRANCH  34  37
ENDBRANCH  33  34
ENDBRANCH  32  33
ENDBRANCH  30  32
ENDBRANCH  13  30
TORSDOF 15
ENDMDL
MODEL 3
REMARK VINA RESULT:      -5.9      1.287      5.421
REMARK SMILES O=C1c2c([O-])ccc(O)c2C(=O)c2c(NCC[NH2+]CCO)ccc(NCCNCCO)c21
REMARK SMILES IDX 1 1 2 2 3 3 4 4 5 5 6 6 7 7 8 8 10 9 11 10 12 11 13 12 14 13
REMARK SMILES IDX 22 14 23 15 24 16 32 17 25 18 26 20 27 21 28 22 29 24 30 25
REMARK SMILES IDX 31 26 9 28 15 30 16 32 17 33 18 34 19 37 20 38 21 39
REMARK H PARENT 25 19 28 23 31 27 9 29 15 31 18 35 18 36 21 40
ROOT
ATOM      1  O   UNL     1     -13.809  17.470 -20.311  1.00  0.00    -0.288 OA
ATOM      2  C   UNL     1     -13.693  16.282 -19.924  1.00  0.00     0.196 C 
ATOM      3  C   UNL     1     -13.541  15.225 -20.952  1.00  0.00     0.030 A 
ATOM      4  C   UNL     1     -13.535  15.614 -22.277  1.00  0.00    -0.097 A 
ATOM      5  O   UNL     1     -13.668  16.962 -22.597  1.00  0.00    -0.872 OA
ATOM      6  C   UNL     1     -13.394  14.650 -23.251  1.00  0.00    -0.004 A 
ATOM      7  C   UNL     1     -13.264  13.333 -22.908  1.00  0.00     0.046 A 
ATOM      8  C   UNL     1     -13.268  12.923 -21.593  1.00  0.00     0.127 A 
ATOM      9  C   UNL     1     -13.411  13.909 -20.617  1.00  0.00     0.075 A 
ATOM     10  C   UNL     1     -13.421  13.521 -19.202  1.00  0.00     0.200 C 
ATOM     11  O   UNL     1     -13.295  12.292 -18.986  1.00  0.00    -0.288 OA
ATOM     12  C   UNL     1     -13.569  14.541 -18.173  1.00  0.00     0.059 A 
ATOM     13  C   UNL     1     -13.574  14.123 -16.872  1.00  0.00     0.046 A 
ATOM     14  C   UNL     1     -13.722  15.139 -15.905  1.00  0.00     0.028 A 
ATOM     15  C   UNL     1     -13.850  16.448 -16.249  1.00  0.00     0.028 A 
ATOM     16  C   UNL     1     -13.846  16.878 -17.587  1.00  0.00     0.046 A 
ATOM     17  C   UNL     1     -13.703  15.904 -18.540  1.00  0.00     0.059 A 
ENDROOT
BRANCH  16  18
ATOM     18  N   UNL     1     -13.951  18.279 -17.830  1.00  0.00    -0.383 N 
ATOM     19  H   UNL     1     -13.268  18.778 -18.383  1.00  0.00     0.160 HD
BRANCH  18  20
ATOM     20  C   UNL     1     -15.043  19.072 -17.295  1.00  0.00     0.128 C 
BRANCH  20  21
ATOM     21  C   UNL     1     -16.377  18.765 -17.873  1.00  0.00     0.102 C 
BRANCH  21  22
ATOM     22  N   UNL     1     -16.396  18.959 -19.328  1.00  0.00    -0.313 NA
ATOM     23  H   UNL     1     -16.877  19.877 -19.495  1.00  0.00     0.122 HD
BRANCH  22  24
ATOM     24  C   UNL     1     -17.274  17.935 -19.875  1.00  0.00     0.109 C 
BRANCH  24  25
ATOM     25  C   UNL     1     -18.701  18.142 -19.427  1.00  0.00     0.171 C 
BRANCH  25  26
ATOM     26  O   UNL     1     -19.036  17.298 -18.371  1.00  0.00    -0.395 OA
ATOM     27  H   UNL     1     -19.177  16.387 -18.751  1.00  0.00     0.210 HD
ENDBRANCH  25  26
ENDBRANCH  24  25
ENDBRANCH  22  24
ENDBRANCH  21  22
ENDBRANCH  20  21
ENDBRANCH  18  20
ENDBRANCH  16  18
BRANCH   8  28
ATOM     28  O   UNL     1     -13.134  11.573 -21.246  1.00  0.00    -0.507 OA
ATOM     29  H   UNL     1     -13.906  11.049 -20.830  1.00  0.00     0.293 HD
ENDBRANCH   8  28
BRANCH  13  30
ATOM     30  N   UNL     1     -13.447  12.792 -16.424  1.00  0.00    -0.379 N 
ATOM     31  H   UNL     1     -12.769  12.121 -16.753  1.00  0.00     0.160 HD
BRANCH  30  32
ATOM     32  C   UNL     1     -14.354  12.266 -15.382  1.00  0.00     0.174 C 
BRANCH  32  33
ATOM     33  C   UNL     1     -15.515  11.538 -15.953  1.00  0.00     0.281 C 
BRANCH  33  34
ATOM     34  N   UNL     1     -15.336  11.079 -17.296  1.00  0.00    -0.343 N 
ATOM     35  H   UNL     1     -14.447  11.408 -17.736  1.00  0.00     0.346 HD
ATOM     36  H   UNL     1     -15.270  10.032 -17.269  1.00  0.00     0.346 HD
BRANCH  34  37
ATOM     37  C   UNL     1     -16.435  11.401 -18.174  1.00  0.00     0.289 C 
BRANCH  37  38
ATOM     38  C   UNL     1     -16.392  10.606 -19.459  1.00  0.00     0.217 C 
BRANCH  38  39
ATOM     39  O   UNL     1     -15.093  10.184 -19.677  1.00  0.00    -0.391 OA
ATOM     40  H   UNL     1     -15.069   9.202 -19.480  1.00  0.00     0.210 HD
ENDBRANCH  38  39
ENDBRANCH  37  38
ENDBRANCH  34  37
ENDBRANCH  33  34
ENDBRANCH  32  33
ENDBRANCH  30  32
ENDBRANCH  13  30
TORSDOF 15
ENDMDL
MODEL 4
REMARK VINA RESULT:      -5.8      1.597      1.839
REMARK SMILES O=C1c2c([O-])ccc(O)c2C(=O)c2c(NCC[NH2+]CCO)ccc(NCCNCCO)c21
REMARK SMILES IDX 1 1 2 2 3 3 4 4 5 5 6 6 7 7 8 8 10 9 11 10 12 11 13 12 14 13
REMARK SMILES IDX 22 14 23 15 24 16 32 17 25 18 26 20 27 21 28 22 29 24 30 25
REMARK SMILES IDX 31 26 9 28 15 30 16 32 17 33 18 34 19 37 20 38 21 39
REMARK H PARENT 25 19 28 23 31 27 9 29 15 31 18 35 18 36 21 40
ROOT
ATOM      1  O   UNL     1     -13.780  12.046 -18.929  1.00  0.00    -0.288 OA
ATOM      2  C   UNL     1     -13.936  13.267 -19.175  1.00  0.00     0.196 C 
ATOM      3  C   UNL     1     -13.724  13.730 -20.567  1.00  0.00     0.030 A 
ATOM      4  C   UNL     1     -13.369  12.786 -21.511  1.00  0.00    -0.097 A 
ATOM      5  O   UNL     1     -13.224  11.455 -21.130  1.00  0.00    -0.872 OA
ATOM      6  C   UNL     1     -13.167  13.192 -22.812  1.00  0.00    -0.004 A 
ATOM      7  C   UNL     1     -13.317  14.506 -23.158  1.00  0.00     0.046 A 
ATOM      8  C   UNL     1     -13.671  15.464 -22.233  1.00  0.00     0.127 A 
ATOM      9  C   UNL     1     -13.872  15.039 -20.920  1.00  0.00     0.075 A 
ATOM     10  C   UNL     1     -14.250  16.023 -19.899  1.00  0.00     0.200 C 
ATOM     11  O   UNL     1     -14.364  17.202 -20.312  1.00  0.00    -0.288 OA
ATOM     12  C   UNL     1     -14.464  15.593 -18.524  1.00  0.00     0.059 A 
ATOM     13  C   UNL     1     -14.812  16.552 -17.614  1.00  0.00     0.046 A 
ATOM     14  C   UNL     1     -15.007  16.097 -16.294  1.00  0.00     0.028 A 
ATOM     15  C   UNL     1     -14.859  14.789 -15.952  1.00  0.00     0.028 A 
ATOM     16  C   UNL     1     -14.500  13.803 -16.887  1.00  0.00     0.046 A 
ATOM     17  C   UNL     1     -14.306  14.228 -18.175  1.00  0.00     0.059 A 
ENDROOT
BRANCH  16  18
ATOM     18  N   UNL     1     -14.408  12.457 -16.425  1.00  0.00    -0.383 N 
ATOM     19  H   UNL     1     -14.501  11.670 -17.052  1.00  0.00     0.160 HD
BRANCH  18  20
ATOM     20  C   UNL     1     -14.180  12.139 -15.027  1.00  0.00     0.128 C 
BRANCH  20  21
ATOM     21  C   UNL     1     -15.184  11.222 -14.426  1.00  0.00     0.102 C 
BRANCH  21  22
ATOM     22  N   UNL     1     -16.246  10.877 -15.380  1.00  0.00    -0.313 NA
ATOM     23  H   UNL     1     -17.152  11.102 -14.903  1.00  0.00     0.122 HD
BRANCH  22  24
ATOM     24  C   UNL     1     -16.215   9.431 -15.535  1.00  0.00     0.109 C 
BRANCH  24  25
ATOM     25  C   UNL     1     -15.453   9.029 -16.775  1.00  0.00     0.171 C 
BRANCH  25  26
ATOM     26  O   UNL     1     -15.508  10.018 -17.754  1.00  0.00    -0.395 OA
ATOM     27  H   UNL     1     -14.786   9.824 -18.414  1.00  0.00     0.210 HD
ENDBRANCH  25  26
ENDBRANCH  24  25
ENDBRANCH  22  24
ENDBRANCH  21  22
ENDBRANCH  20  21
ENDBRANCH  18  20
ENDBRANCH  16  18
BRANCH   8  28
ATOM     28  O   UNL     1     -13.823  16.809 -22.592  1.00  0.00    -0.507 OA
ATOM     29  H   UNL     1     -14.687  17.155 -23.013  1.00  0.00     0.293 HD
ENDBRANCH   8  28
BRANCH  13  30
ATOM     30  N   UNL     1     -14.989  17.926 -17.877  1.00  0.00    -0.379 N 
ATOM     31  H   UNL     1     -14.263  18.574 -18.144  1.00  0.00     0.160 HD
BRANCH  30  32
ATOM     32  C   UNL     1     -16.329  18.538 -17.769  1.00  0.00     0.174 C 
BRANCH  32  33
ATOM     33  C   UNL     1     -17.367  17.770 -18.502  1.00  0.00     0.281 C 
BRANCH  33  34
ATOM     34  N   UNL     1     -17.307  17.884 -19.927  1.00  0.00    -0.343 N 
ATOM     35  H   UNL     1     -16.651  18.626 -20.260  1.00  0.00     0.346 HD
ATOM     36  H   UNL     1     -16.928  16.980 -20.303  1.00  0.00     0.346 HD
BRANCH  34  37
ATOM     37  C   UNL     1     -18.591  18.086 -20.551  1.00  0.00     0.289 C 
BRANCH  37  38
ATOM     38  C   UNL     1     -18.524  19.075 -21.693  1.00  0.00     0.217 C 
BRANCH  38  39
ATOM     39  O   UNL     1     -17.417  18.782 -22.470  1.00  0.00    -0.391 OA
ATOM     40  H   UNL     1     -17.497  19.325 -23.307  1.00  0.00     0.210 HD
ENDBRANCH  38  39
ENDBRANCH  37  38
ENDBRANCH  34  37
ENDBRANCH  33  34
ENDBRANCH  32  33
ENDBRANCH  30  32
ENDBRANCH  13  30
TORSDOF 15
ENDMDL
MODEL 5
REMARK VINA RESULT:      -5.8      6.429      9.258
REMARK SMILES O=C1c2c([O-])ccc(O)c2C(=O)c2c(NCC[NH2+]CCO)ccc(NCCNCCO)c21
REMARK SMILES IDX 1 1 2 2 3 3 4 4 5 5 6 6 7 7 8 8 10 9 11 10 12 11 13 12 14 13
REMARK SMILES IDX 22 14 23 15 24 16 32 17 25 18 26 20 27 21 28 22 29 24 30 25
REMARK SMILES IDX 31 26 9 28 15 30 16 32 17 33 18 34 19 37 20 38 21 39
REMARK H PARENT 25 19 28 23 31 27 9 29 15 31 18 35 18 36 21 40
ROOT
ATOM      1  O   UNL     1     -17.293  18.380 -22.196  1.00  0.00    -0.288 OA
ATOM      2  C   UNL     1     -16.700  19.350 -21.663  1.00  0.00     0.196 C 
ATOM      3  C   UNL     1     -15.248  19.220 -21.398  1.00  0.00     0.030 A 
ATOM      4  C   UNL     1     -14.633  18.035 -21.758  1.00  0.00    -0.097 A 
ATOM      5  O   UNL     1     -15.385  17.023 -22.346  1.00  0.00    -0.872 OA
ATOM      6  C   UNL     1     -13.283  17.891 -21.523  1.00  0.00    -0.004 A 
ATOM      7  C   UNL     1     -12.569  18.902 -20.944  1.00  0.00     0.046 A 
ATOM      8  C   UNL     1     -13.161  20.091 -20.578  1.00  0.00     0.127 A 
ATOM      9  C   UNL     1     -14.528  20.224 -20.821  1.00  0.00     0.075 A 
ATOM     10  C   UNL     1     -15.204  21.472 -20.449  1.00  0.00     0.200 C 
ATOM     11  O   UNL     1     -14.467  22.341 -19.925  1.00  0.00    -0.288 OA
ATOM     12  C   UNL     1     -16.631  21.624 -20.698  1.00  0.00     0.059 A 
ATOM     13  C   UNL     1     -17.209  22.807 -20.328  1.00  0.00     0.046 A 
ATOM     14  C   UNL     1     -18.592  22.915 -20.583  1.00  0.00     0.028 A 
ATOM     15  C   UNL     1     -19.299  21.908 -21.160  1.00  0.00     0.028 A 
ATOM     16  C   UNL     1     -18.706  20.693 -21.540  1.00  0.00     0.046 A 
ATOM     17  C   UNL     1     -17.362  20.570 -21.299  1.00  0.00     0.059 A 
ENDROOT
BRANCH  16  18
ATOM     18  N   UNL     1     -19.537  19.719 -22.169  1.00  0.00    -0.383 N 
ATOM     19  H   UNL     1     -19.180  19.086 -22.871  1.00  0.00     0.160 HD
BRANCH  18  20
ATOM     20  C   UNL     1     -20.945  19.585 -21.842  1.00  0.00     0.128 C 
BRANCH  20  21
ATOM     21  C   UNL     1     -21.853  19.508 -23.017  1.00  0.00     0.102 C 
BRANCH  21  22
ATOM     22  N   UNL     1     -23.265  19.539 -22.615  1.00  0.00    -0.313 NA
ATOM     23  H   UNL     1     -23.269  19.615 -21.568  1.00  0.00     0.122 HD
BRANCH  22  24
ATOM     24  C   UNL     1     -23.817  18.230 -22.929  1.00  0.00     0.109 C 
BRANCH  24  25
ATOM     25  C   UNL     1     -25.297  18.176 -22.636  1.00  0.00     0.171 C 
BRANCH  25  26
ATOM     26  O   UNL     1     -26.056  18.464 -23.769  1.00  0.00    -0.395 OA
ATOM     27  H   UNL     1     -25.565  19.160 -24.287  1.00  0.00     0.210 HD
ENDBRANCH  25  26
ENDBRANCH  24  25
ENDBRANCH  22  24
ENDBRANCH  21  22
ENDBRANCH  20  21
ENDBRANCH  18  20
ENDBRANCH  16  18
BRANCH   8  28
ATOM     28  O   UNL     1     -12.426  21.125 -19.985  1.00  0.00    -0.507 OA
ATOM     29  H   UNL     1     -11.708  20.936 -19.283  1.00  0.00     0.293 HD
ENDBRANCH   8  28
BRANCH  13  30
ATOM     30  N   UNL     1     -16.556  23.903 -19.728  1.00  0.00    -0.379 N 
ATOM     31  H   UNL     1     -15.993  23.867 -18.891  1.00  0.00     0.160 HD
BRANCH  30  32
ATOM     32  C   UNL     1     -16.664  25.251 -20.322  1.00  0.00     0.174 C 
BRANCH  32  33
ATOM     33  C   UNL     1     -16.093  25.318 -21.690  1.00  0.00     0.281 C 
BRANCH  33  34
ATOM     34  N   UNL     1     -14.766  24.800 -21.815  1.00  0.00    -0.343 N 
ATOM     35  H   UNL     1     -14.020  25.509 -21.634  1.00  0.00     0.346 HD
ATOM     36  H   UNL     1     -14.642  24.063 -21.077  1.00  0.00     0.346 HD
BRANCH  34  37
ATOM     37  C   UNL     1     -14.504  24.163 -23.082  1.00  0.00     0.289 C 
BRANCH  37  38
ATOM     38  C   UNL     1     -15.700  23.393 -23.594  1.00  0.00     0.217 C 
BRANCH  38  39
ATOM     39  O   UNL     1     -15.908  23.726 -24.922  1.00  0.00    -0.391 OA
ATOM     40  H   UNL     1     -15.039  23.584 -25.397  1.00  0.00     0.210 HD
ENDBRANCH  38  39
ENDBRANCH  37  38
ENDBRANCH  34  37
ENDBRANCH  33  34
ENDBRANCH  32  33
ENDBRANCH  30  32
ENDBRANCH  13  30
TORSDOF 15
ENDMDL
MODEL 6
REMARK VINA RESULT:      -5.8      7.805     11.182
REMARK SMILES O=C1c2c([O-])ccc(O)c2C(=O)c2c(NCC[NH2+]CCO)ccc(NCCNCCO)c21
REMARK SMILES IDX 1 1 2 2 3 3 4 4 5 5 6 6 7 7 8 8 10 9 11 10 12 11 13 12 14 13
REMARK SMILES IDX 22 14 23 15 24 16 32 17 25 18 26 20 27 21 28 22 29 24 30 25
REMARK SMILES IDX 31 26 9 28 15 30 16 32 17 33 18 34 19 37 20 38 21 39
REMARK H PARENT 25 19 28 23 31 27 9 29 15 31 18 35 18 36 21 40
ROOT
ATOM      1  O   UNL     1     -21.524  22.466 -21.552  1.00  0.00    -0.288 OA
ATOM      2  C   UNL     1     -20.361  22.484 -21.080  1.00  0.00     0.196 C 
ATOM      3  C   UNL     1     -19.878  23.741 -20.461  1.00  0.00     0.030 A 
ATOM      4  C   UNL     1     -20.742  24.819 -20.440  1.00  0.00    -0.097 A 
ATOM      5  O   UNL     1     -22.014  24.691 -20.990  1.00  0.00    -0.872 OA
ATOM      6  C   UNL     1     -20.316  25.998 -19.868  1.00  0.00    -0.004 A 
ATOM      7  C   UNL     1     -19.062  26.096 -19.334  1.00  0.00     0.046 A 
ATOM      8  C   UNL     1     -18.185  25.034 -19.345  1.00  0.00     0.127 A 
ATOM      9  C   UNL     1     -18.628  23.846 -19.926  1.00  0.00     0.075 A 
ATOM     10  C   UNL     1     -17.730  22.686 -19.961  1.00  0.00     0.200 C 
ATOM     11  O   UNL     1     -16.601  22.872 -19.447  1.00  0.00    -0.288 OA
ATOM     12  C   UNL     1     -18.180  21.440 -20.565  1.00  0.00     0.059 A 
ATOM     13  C   UNL     1     -17.301  20.393 -20.572  1.00  0.00     0.046 A 
ATOM     14  C   UNL     1     -17.773  19.205 -21.167  1.00  0.00     0.028 A 
ATOM     15  C   UNL     1     -19.022  19.110 -21.696  1.00  0.00     0.028 A 
ATOM     16  C   UNL     1     -19.926  20.186 -21.689  1.00  0.00     0.046 A 
ATOM     17  C   UNL     1     -19.484  21.349 -21.115  1.00  0.00     0.059 A 
ENDROOT
BRANCH  16  18
ATOM     18  N   UNL     1     -21.222  19.963 -22.240  1.00  0.00    -0.383 N 
ATOM     19  H   UNL     1     -21.871  20.721 -22.402  1.00  0.00     0.160 HD
BRANCH  18  20
ATOM     20  C   UNL     1     -21.688  18.635 -22.596  1.00  0.00     0.128 C 
BRANCH  20  21
ATOM     21  C   UNL     1     -23.003  18.600 -23.288  1.00  0.00     0.102 C 
BRANCH  21  22
ATOM     22  N   UNL     1     -24.027  19.347 -22.546  1.00  0.00    -0.313 NA
ATOM     23  H   UNL     1     -23.878  19.118 -21.532  1.00  0.00     0.122 HD
BRANCH  22  24
ATOM     24  C   UNL     1     -25.311  18.767 -22.909  1.00  0.00     0.109 C 
BRANCH  24  25
ATOM     25  C   UNL     1     -26.079  19.676 -23.838  1.00  0.00     0.171 C 
BRANCH  25  26
ATOM     26  O   UNL     1     -27.309  20.044 -23.296  1.00  0.00    -0.395 OA
ATOM     27  H   UNL     1     -27.143  20.345 -22.360  1.00  0.00     0.210 HD
ENDBRANCH  25  26
ENDBRANCH  24  25
ENDBRANCH  22  24
ENDBRANCH  21  22
ENDBRANCH  20  21
ENDBRANCH  18  20
ENDBRANCH  16  18
BRANCH   8  28
ATOM     28  O   UNL     1     -16.900  25.138 -18.797  1.00  0.00    -0.507 OA
ATOM     29  H   UNL     1     -16.063  25.066 -19.378  1.00  0.00     0.293 HD
ENDBRANCH   8  28
BRANCH  13  30
ATOM     30  N   UNL     1     -15.992  20.400 -20.047  1.00  0.00    -0.379 N 
ATOM     31  H   UNL     1     -15.715  20.792 -19.160  1.00  0.00     0.160 HD
BRANCH  30  32
ATOM     32  C   UNL     1     -14.880  19.799 -20.812  1.00  0.00     0.174 C 
BRANCH  32  33
ATOM     33  C   UNL     1     -13.948  20.818 -21.357  1.00  0.00     0.281 C 
BRANCH  33  34
ATOM     34  N   UNL     1     -14.563  22.047 -21.752  1.00  0.00    -0.343 N 
ATOM     35  H   UNL     1     -15.467  22.240 -21.262  1.00  0.00     0.346 HD
ATOM     36  H   UNL     1     -13.919  22.829 -21.477  1.00  0.00     0.346 HD
BRANCH  34  37
ATOM     37  C   UNL     1     -14.772  22.166 -23.174  1.00  0.00     0.289 C 
BRANCH  37  38
ATOM     38  C   UNL     1     -16.164  22.651 -23.510  1.00  0.00     0.217 C 
BRANCH  38  39
ATOM     39  O   UNL     1     -16.102  23.415 -24.663  1.00  0.00    -0.391 OA
ATOM     40  H   UNL     1     -16.553  22.889 -25.386  1.00  0.00     0.210 HD
ENDBRANCH  38  39
ENDBRANCH  37  38
ENDBRANCH  34  37
ENDBRANCH  33  34
ENDBRANCH  32  33
ENDBRANCH  30  32
ENDBRANCH  13  30
TORSDOF 15
ENDMDL
MODEL 7
REMARK VINA RESULT:      -5.7      2.210      2.663
REMARK SMILES O=C1c2c([O-])ccc(O)c2C(=O)c2c(NCC[NH2+]CCO)ccc(NCCNCCO)c21
REMARK SMILES IDX 1 1 2 2 3 3 4 4 5 5 6 6 7 7 8 8 10 9 11 10 12 11 13 12 14 13
REMARK SMILES IDX 22 14 23 15 24 16 32 17 25 18 26 20 27 21 28 22 29 24 30 25
REMARK SMILES IDX 31 26 9 28 15 30 16 32 17 33 18 34 19 37 20 38 21 39
REMARK H PARENT 25 19 28 23 31 27 9 29 15 31 18 35 18 36 21 40
ROOT
ATOM      1  O   UNL     1     -13.333  12.174 -18.781  1.00  0.00    -0.288 OA
ATOM      2  C   UNL     1     -13.450  13.384 -19.095  1.00  0.00     0.196 C 
ATOM      3  C   UNL     1     -13.423  13.735 -20.535  1.00  0.00     0.030 A 
ATOM      4  C   UNL     1     -13.273  12.706 -21.444  1.00  0.00    -0.097 A 
ATOM      5  O   UNL     1     -13.153  11.398 -20.987  1.00  0.00    -0.872 OA
ATOM      6  C   UNL     1     -13.246  13.008 -22.788  1.00  0.00    -0.004 A 
ATOM      7  C   UNL     1     -13.366  14.303 -23.210  1.00  0.00     0.046 A 
ATOM      8  C   UNL     1     -13.517  15.344 -22.320  1.00  0.00     0.127 A 
ATOM      9  C   UNL     1     -13.542  15.025 -20.963  1.00  0.00     0.075 A 
ATOM     10  C   UNL     1     -13.701  16.100 -19.976  1.00  0.00     0.200 C 
ATOM     11  O   UNL     1     -13.803  17.253 -20.459  1.00  0.00    -0.288 OA
ATOM     12  C   UNL     1     -13.729  15.780 -18.556  1.00  0.00     0.059 A 
ATOM     13  C   UNL     1     -13.876  16.821 -17.682  1.00  0.00     0.046 A 
ATOM     14  C   UNL     1     -13.896  16.471 -16.316  1.00  0.00     0.028 A 
ATOM     15  C   UNL     1     -13.778  15.183 -15.900  1.00  0.00     0.028 A 
ATOM     16  C   UNL     1     -13.626  14.113 -16.797  1.00  0.00     0.046 A 
ATOM     17  C   UNL     1     -13.605  14.434 -18.130  1.00  0.00     0.059 A 
ENDROOT
BRANCH  16  18
ATOM     18  N   UNL     1     -13.548  12.798 -16.251  1.00  0.00    -0.383 N 
ATOM     19  H   UNL     1     -12.730  12.217 -16.373  1.00  0.00     0.160 HD
BRANCH  18  20
ATOM     20  C   UNL     1     -14.640  12.214 -15.493  1.00  0.00     0.128 C 
BRANCH  20  21
ATOM     21  C   UNL     1     -15.965  12.272 -16.164  1.00  0.00     0.102 C 
BRANCH  21  22
ATOM     22  N   UNL     1     -15.969  11.517 -17.424  1.00  0.00    -0.313 NA
ATOM     23  H   UNL     1     -16.953  11.557 -17.785  1.00  0.00     0.122 HD
BRANCH  22  24
ATOM     24  C   UNL     1     -15.717  10.126 -17.079  1.00  0.00     0.109 C 
BRANCH  24  25
ATOM     25  C   UNL     1     -15.682   9.254 -18.310  1.00  0.00     0.171 C 
BRANCH  25  26
ATOM     26  O   UNL     1     -15.102   9.915 -19.391  1.00  0.00    -0.395 OA
ATOM     27  H   UNL     1     -14.735   9.219 -20.003  1.00  0.00     0.210 HD
ENDBRANCH  25  26
ENDBRANCH  24  25
ENDBRANCH  22  24
ENDBRANCH  21  22
ENDBRANCH  20  21
ENDBRANCH  18  20
ENDBRANCH  16  18
BRANCH   8  28
ATOM     28  O   UNL     1     -13.639  16.669 -22.756  1.00  0.00    -0.507 OA
ATOM     29  H   UNL     1     -13.224  17.444 -22.236  1.00  0.00     0.293 HD
ENDBRANCH   8  28
BRANCH  13  30
ATOM     30  N   UNL     1     -14.007  18.183 -18.022  1.00  0.00    -0.379 N 
ATOM     31  H   UNL     1     -14.832  18.618 -18.408  1.00  0.00     0.160 HD
BRANCH  30  32
ATOM     32  C   UNL     1     -12.875  19.111 -17.826  1.00  0.00     0.174 C 
BRANCH  32  33
ATOM     33  C   UNL     1     -12.948  20.297 -18.717  1.00  0.00     0.281 C 
BRANCH  33  34
ATOM     34  N   UNL     1     -12.776  20.014 -20.109  1.00  0.00    -0.343 N 
ATOM     35  H   UNL     1     -11.825  19.656 -20.349  1.00  0.00     0.346 HD
ATOM     36  H   UNL     1     -13.443  19.244 -20.362  1.00  0.00     0.346 HD
BRANCH  34  37
ATOM     37  C   UNL     1     -13.085  21.127 -20.973  1.00  0.00     0.289 C 
BRANCH  37  38
ATOM     38  C   UNL     1     -13.631  20.680 -22.310  1.00  0.00     0.217 C 
BRANCH  38  39
ATOM     39  O   UNL     1     -13.300  19.349 -22.502  1.00  0.00    -0.391 OA
ATOM     40  H   UNL     1     -14.071  18.924 -22.978  1.00  0.00     0.210 HD
ENDBRANCH  38  39
ENDBRANCH  37  38
ENDBRANCH  34  37
ENDBRANCH  33  34
ENDBRANCH  32  33
ENDBRANCH  30  32
ENDBRANCH  13  30
TORSDOF 15
ENDMDL
MODEL 8
REMARK VINA RESULT:      -5.6      4.861      7.823
REMARK SMILES O=C1c2c([O-])ccc(O)c2C(=O)c2c(NCC[NH2+]CCO)ccc(NCCNCCO)c21
REMARK SMILES IDX 1 1 2 2 3 3 4 4 5 5 6 6 7 7 8 8 10 9 11 10 12 11 13 12 14 13
REMARK SMILES IDX 22 14 23 15 24 16 32 17 25 18 26 20 27 21 28 22 29 24 30 25
REMARK SMILES IDX 31 26 9 28 15 30 16 32 17 33 18 34 19 37 20 38 21 39
REMARK H PARENT 25 19 28 23 31 27 9 29 15 31 18 35 18 36 21 40
ROOT
ATOM      1  O   UNL     1     -14.196  19.336 -22.137  1.00  0.00    -0.288 OA
ATOM      2  C   UNL     1     -15.190  20.018 -21.787  1.00  0.00     0.196 C 
ATOM      3  C   UNL     1     -15.028  21.487 -21.688  1.00  0.00     0.030 A 
ATOM      4  C   UNL     1     -13.789  22.019 -21.990  1.00  0.00    -0.097 A 
ATOM      5  O   UNL     1     -12.753  21.172 -22.371  1.00  0.00    -0.872 OA
ATOM      6  C   UNL     1     -13.615  23.383 -21.906  1.00  0.00    -0.004 A 
ATOM      7  C   UNL     1     -14.650  24.192 -21.529  1.00  0.00     0.046 A 
ATOM      8  C   UNL     1     -15.893  23.683 -21.223  1.00  0.00     0.127 A 
ATOM      9  C   UNL     1     -16.057  22.301 -21.313  1.00  0.00     0.075 A 
ATOM     10  C   UNL     1     -17.363  21.712 -20.996  1.00  0.00     0.200 C 
ATOM     11  O   UNL     1     -18.250  22.533 -20.662  1.00  0.00    -0.288 OA
ATOM     12  C   UNL     1     -17.547  20.270 -21.086  1.00  0.00     0.059 A 
ATOM     13  C   UNL     1     -18.784  19.776 -20.777  1.00  0.00     0.046 A 
ATOM     14  C   UNL     1     -18.922  18.376 -20.874  1.00  0.00     0.028 A 
ATOM     15  C   UNL     1     -17.891  17.574 -21.250  1.00  0.00     0.028 A 
ATOM     16  C   UNL     1     -16.619  18.081 -21.566  1.00  0.00     0.046 A 
ATOM     17  C   UNL     1     -16.467  19.440 -21.478  1.00  0.00     0.059 A 
ENDROOT
BRANCH  16  18
ATOM     18  N   UNL     1     -15.621  17.151 -21.983  1.00  0.00    -0.383 N 
ATOM     19  H   UNL     1     -15.384  17.023 -22.956  1.00  0.00     0.160 HD
BRANCH  18  20
ATOM     20  C   UNL     1     -14.891  16.331 -21.033  1.00  0.00     0.128 C 
BRANCH  20  21
ATOM     21  C   UNL     1     -13.999  15.313 -21.646  1.00  0.00     0.102 C 
BRANCH  21  22
ATOM     22  N   UNL     1     -14.614  13.978 -21.639  1.00  0.00    -0.313 NA
ATOM     23  H   UNL     1     -15.560  14.095 -21.201  1.00  0.00     0.122 HD
BRANCH  22  24
ATOM     24  C   UNL     1     -13.836  13.165 -20.717  1.00  0.00     0.109 C 
BRANCH  24  25
ATOM     25  C   UNL     1     -13.551  11.800 -21.296  1.00  0.00     0.171 C 
BRANCH  25  26
ATOM     26  O   UNL     1     -12.255  11.380 -21.007  1.00  0.00    -0.395 OA
ATOM     27  H   UNL     1     -11.753  12.174 -20.672  1.00  0.00     0.210 HD
ENDBRANCH  25  26
ENDBRANCH  24  25
ENDBRANCH  22  24
ENDBRANCH  21  22
ENDBRANCH  20  21
ENDBRANCH  18  20
ENDBRANCH  16  18
BRANCH   8  28
ATOM     28  O   UNL     1     -16.952  24.516 -20.838  1.00  0.00    -0.507 OA
ATOM     29  H   UNL     1     -17.753  24.680 -21.451  1.00  0.00     0.293 HD
ENDBRANCH   8  28
BRANCH  13  30
ATOM     30  N   UNL     1     -19.908  20.529 -20.381  1.00  0.00    -0.379 N 
ATOM     31  H   UNL     1     -20.454  21.132 -20.978  1.00  0.00     0.160 HD
BRANCH  30  32
ATOM     32  C   UNL     1     -20.381  20.481 -18.983  1.00  0.00     0.174 C 
BRANCH  32  33
ATOM     33  C   UNL     1     -20.974  21.767 -18.537  1.00  0.00     0.281 C 
BRANCH  33  34
ATOM     34  N   UNL     1     -21.245  22.700 -19.586  1.00  0.00    -0.343 N 
ATOM     35  H   UNL     1     -20.659  22.554 -20.439  1.00  0.00     0.346 HD
ATOM     36  H   UNL     1     -22.238  22.553 -19.895  1.00  0.00     0.346 HD
BRANCH  34  37
ATOM     37  C   UNL     1     -21.140  24.081 -19.182  1.00  0.00     0.289 C 
BRANCH  37  38
ATOM     38  C   UNL     1     -20.956  25.010 -20.361  1.00  0.00     0.217 C 
BRANCH  38  39
ATOM     39  O   UNL     1     -19.609  25.306 -20.488  1.00  0.00    -0.391 OA
ATOM     40  H   UNL     1     -19.405  26.024 -19.821  1.00  0.00     0.210 HD
ENDBRANCH  38  39
ENDBRANCH  37  38
ENDBRANCH  34  37
ENDBRANCH  33  34
ENDBRANCH  32  33
ENDBRANCH  30  32
ENDBRANCH  13  30
TORSDOF 15
ENDMDL
MODEL 9
REMARK VINA RESULT:      -5.5      2.640      3.902
REMARK SMILES O=C1c2c([O-])ccc(O)c2C(=O)c2c(NCC[NH2+]CCO)ccc(NCCNCCO)c21
REMARK SMILES IDX 1 1 2 2 3 3 4 4 5 5 6 6 7 7 8 8 10 9 11 10 12 11 13 12 14 13
REMARK SMILES IDX 22 14 23 15 24 16 32 17 25 18 26 20 27 21 28 22 29 24 30 25
REMARK SMILES IDX 31 26 9 28 15 30 16 32 17 33 18 34 19 37 20 38 21 39
REMARK H PARENT 25 19 28 23 31 27 9 29 15 31 18 35 18 36 21 40
ROOT
ATOM      1  O   UNL     1     -13.920  13.317 -17.812  1.00  0.00    -0.288 OA
ATOM      2  C   UNL     1     -14.032  14.139 -18.755  1.00  0.00     0.196 C 
ATOM      3  C   UNL     1     -13.741  13.667 -20.129  1.00  0.00     0.030 A 
ATOM      4  C   UNL     1     -13.366  12.347 -20.289  1.00  0.00    -0.097 A 
ATOM      5  O   UNL     1     -13.275  11.519 -19.174  1.00  0.00    -0.872 OA
ATOM      6  C   UNL     1     -13.092  11.885 -21.557  1.00  0.00    -0.004 A 
ATOM      7  C   UNL     1     -13.190  12.720 -22.636  1.00  0.00     0.046 A 
ATOM      8  C   UNL     1     -13.562  14.039 -22.498  1.00  0.00     0.127 A 
ATOM      9  C   UNL     1     -13.837  14.494 -21.209  1.00  0.00     0.075 A 
ATOM     10  C   UNL     1     -14.238  15.892 -21.013  1.00  0.00     0.200 C 
ATOM     11  O   UNL     1     -14.300  16.580 -22.060  1.00  0.00    -0.288 OA
ATOM     12  C   UNL     1     -14.528  16.380 -19.672  1.00  0.00     0.059 A 
ATOM     13  C   UNL     1     -14.893  17.691 -19.547  1.00  0.00     0.046 A 
ATOM     14  C   UNL     1     -15.164  18.127 -18.233  1.00  0.00     0.028 A 
ATOM     15  C   UNL     1     -15.067  17.293 -17.164  1.00  0.00     0.028 A 
ATOM     16  C   UNL     1     -14.690  15.946 -17.291  1.00  0.00     0.046 A 
ATOM     17  C   UNL     1     -14.424  15.505 -18.561  1.00  0.00     0.059 A 
ENDROOT
BRANCH  16  18
ATOM     18  N   UNL     1     -14.656  15.154 -16.105  1.00  0.00    -0.383 N 
ATOM     19  H   UNL     1     -15.351  14.447 -15.915  1.00  0.00     0.160 HD
BRANCH  18  20
ATOM     20  C   UNL     1     -13.623  15.323 -15.099  1.00  0.00     0.128 C 
BRANCH  20  21
ATOM     21  C   UNL     1     -13.212  14.070 -14.412  1.00  0.00     0.102 C 
BRANCH  21  22
ATOM     22  N   UNL     1     -13.972  12.911 -14.897  1.00  0.00    -0.313 NA
ATOM     23  H   UNL     1     -14.917  12.970 -14.443  1.00  0.00     0.122 HD
BRANCH  22  24
ATOM     24  C   UNL     1     -13.329  11.728 -14.343  1.00  0.00     0.109 C 
BRANCH  24  25
ATOM     25  C   UNL     1     -12.750  10.859 -15.434  1.00  0.00     0.171 C 
BRANCH  25  26
ATOM     26  O   UNL     1     -13.645  10.696 -16.489  1.00  0.00    -0.395 OA
ATOM     27  H   UNL     1     -14.412  11.313 -16.327  1.00  0.00     0.210 HD
ENDBRANCH  25  26
ENDBRANCH  24  25
ENDBRANCH  22  24
ENDBRANCH  21  22
ENDBRANCH  20  21
ENDBRANCH  18  20
ENDBRANCH  16  18
BRANCH   8  28
ATOM     28  O   UNL     1     -13.661  14.891 -23.605  1.00  0.00    -0.507 OA
ATOM     29  H   UNL     1     -14.480  15.484 -23.751  1.00  0.00     0.293 HD
ENDBRANCH   8  28
BRANCH  13  30
ATOM     30  N   UNL     1     -15.021  18.624 -20.597  1.00  0.00    -0.379 N 
ATOM     31  H   UNL     1     -15.653  18.548 -21.380  1.00  0.00     0.160 HD
BRANCH  30  32
ATOM     32  C   UNL     1     -14.186  19.843 -20.616  1.00  0.00     0.174 C 
BRANCH  32  33
ATOM     33  C   UNL     1     -13.696  20.177 -21.977  1.00  0.00     0.281 C 
BRANCH  33  34
ATOM     34  N   UNL     1     -14.361  21.279 -22.602  1.00  0.00    -0.343 N 
ATOM     35  H   UNL     1     -13.849  22.185 -22.507  1.00  0.00     0.346 HD
ATOM     36  H   UNL     1     -14.403  21.082 -23.632  1.00  0.00     0.346 HD
BRANCH  34  37
ATOM     37  C   UNL     1     -15.722  21.465 -22.162  1.00  0.00     0.289 C 
BRANCH  37  38
ATOM     38  C   UNL     1     -16.726  21.019 -23.201  1.00  0.00     0.217 C 
BRANCH  38  39
ATOM     39  O   UNL     1     -16.937  19.659 -23.058  1.00  0.00    -0.391 OA
ATOM     40  H   UNL     1     -16.186  19.304 -22.500  1.00  0.00     0.210 HD
ENDBRANCH  38  39
ENDBRANCH  37  38
ENDBRANCH  34  37
ENDBRANCH  33  34
ENDBRANCH  32  33
ENDBRANCH  30  32
ENDBRANCH  13  30
TORSDOF 15
ENDMDL
