MODEL 1
REMARK VINA RESULT:      -7.4      0.000      0.000
REMARK SMILES S=C1SCN(Cc2ccccc2)C[NH+]1Cc1ccccc1
REMARK SMILES IDX 1 1 2 2 3 3 4 4 5 5 13 6 14 7 15 9 16 10 17 11 21 12 18 13
REMARK SMILES IDX 20 14 19 15 6 16 7 17 8 18 12 19 9 20 11 21 10 22
REMARK H PARENT 14 8
ROOT
ATOM      1  S   UNL     1     -14.895  13.339 -14.353  1.00  0.00    -0.009 S 
ATOM      2  C   UNL     1     -13.908  13.128 -15.335  1.00  0.00     0.234 C 
ATOM      3  S   UNL     1     -12.207  13.569 -15.024  1.00  0.00    -0.040 SA
ATOM      4  C   UNL     1     -11.285  13.153 -16.527  1.00  0.00     0.172 C 
ATOM      5  N   UNL     1     -12.099  12.980 -17.688  1.00  0.00    -0.242 NA
ATOM      6  C   UNL     1     -13.467  13.294 -17.587  1.00  0.00     0.364 C 
ATOM      7  N   UNL     1     -14.199  12.561 -16.609  1.00  0.00    -0.271 N 
ATOM      8  H   UNL     1     -15.225  12.662 -16.803  1.00  0.00     0.356 HD
ENDROOT
BRANCH   7   9
ATOM      9  C   UNL     1     -13.912  11.162 -16.516  1.00  0.00     0.306 C 
BRANCH   9  10
ATOM     10  C   UNL     1     -14.773  10.279 -17.295  1.00  0.00     0.007 A 
ATOM     11  C   UNL     1     -15.259   9.107 -16.761  1.00  0.00     0.009 A 
ATOM     12  C   UNL     1     -15.117  10.597 -18.588  1.00  0.00     0.009 A 
ATOM     13  C   UNL     1     -16.076   8.259 -17.496  1.00  0.00     0.001 A 
ATOM     14  C   UNL     1     -15.938   9.752 -19.339  1.00  0.00     0.001 A 
ATOM     15  C   UNL     1     -16.404   8.593 -18.776  1.00  0.00     0.000 A 
ENDBRANCH   9  10
ENDBRANCH   7   9
BRANCH   5  16
ATOM     16  C   UNL     1     -11.438  13.521 -18.855  1.00  0.00     0.126 C 
BRANCH  16  17
ATOM     17  C   UNL     1     -12.121  13.314 -20.119  1.00  0.00    -0.034 A 
ATOM     18  C   UNL     1     -12.422  12.049 -20.557  1.00  0.00     0.005 A 
ATOM     19  C   UNL     1     -12.493  14.369 -20.911  1.00  0.00     0.005 A 
ATOM     20  C   UNL     1     -13.084  11.879 -21.776  1.00  0.00     0.000 A 
ATOM     21  C   UNL     1     -13.145  14.229 -22.111  1.00  0.00     0.000 A 
ATOM     22  C   UNL     1     -13.446  12.953 -22.551  1.00  0.00     0.000 A 
ENDBRANCH  16  17
ENDBRANCH   5  16
TORSDOF 4
ENDMDL
MODEL 2
REMARK VINA RESULT:      -7.0      1.818      4.681
REMARK SMILES S=C1SCN(Cc2ccccc2)C[NH+]1Cc1ccccc1
REMARK SMILES IDX 1 1 2 2 3 3 4 4 5 5 13 6 14 7 15 9 16 10 17 11 21 12 18 13
REMARK SMILES IDX 20 14 19 15 6 16 7 17 8 18 12 19 9 20 11 21 10 22
REMARK H PARENT 14 8
ROOT
ATOM      1  S   UNL     1     -12.418  16.865 -16.729  1.00  0.00    -0.009 S 
ATOM      2  C   UNL     1     -13.408  15.883 -16.925  1.00  0.00     0.234 C 
ATOM      3  S   UNL     1     -15.059  16.117 -16.290  1.00  0.00    -0.040 SA
ATOM      4  C   UNL     1     -15.998  14.635 -16.741  1.00  0.00     0.172 C 
ATOM      5  N   UNL     1     -15.191  13.511 -17.095  1.00  0.00    -0.242 NA
ATOM      6  C   UNL     1     -13.799  13.615 -16.912  1.00  0.00     0.364 C 
ATOM      7  N   UNL     1     -13.159  14.668 -17.626  1.00  0.00    -0.271 N 
ATOM      8  H   UNL     1     -12.124  14.489 -17.646  1.00  0.00     0.356 HD
ENDROOT
BRANCH   7   9
ATOM      9  C   UNL     1     -13.587  14.874 -18.977  1.00  0.00     0.306 C 
BRANCH   9  10
ATOM     10  C   UNL     1     -13.358  13.765 -19.897  1.00  0.00     0.007 A 
ATOM     11  C   UNL     1     -12.393  12.817 -19.642  1.00  0.00     0.009 A 
ATOM     12  C   UNL     1     -14.103  13.644 -21.047  1.00  0.00     0.009 A 
ATOM     13  C   UNL     1     -12.166  11.761 -20.513  1.00  0.00     0.001 A 
ATOM     14  C   UNL     1     -13.884  12.585 -21.932  1.00  0.00     0.001 A 
ATOM     15  C   UNL     1     -12.915  11.660 -21.647  1.00  0.00     0.000 A 
ENDBRANCH   9  10
ENDBRANCH   7   9
BRANCH   5  16
ATOM     16  C   UNL     1     -15.777  12.288 -16.595  1.00  0.00     0.126 C 
BRANCH  16  17
ATOM     17  C   UNL     1     -15.871  11.198 -17.548  1.00  0.00    -0.034 A 
ATOM     18  C   UNL     1     -15.722   9.895 -17.144  1.00  0.00     0.005 A 
ATOM     19  C   UNL     1     -16.117  11.429 -18.876  1.00  0.00     0.005 A 
ATOM     20  C   UNL     1     -15.822   8.864 -18.082  1.00  0.00     0.000 A 
ATOM     21  C   UNL     1     -16.221  10.434 -19.817  1.00  0.00     0.000 A 
ATOM     22  C   UNL     1     -16.069   9.122 -19.407  1.00  0.00     0.000 A 
ENDBRANCH  16  17
ENDBRANCH   5  16
TORSDOF 4
ENDMDL
MODEL 3
REMARK VINA RESULT:      -6.7      1.526      2.006
REMARK SMILES S=C1SCN(Cc2ccccc2)C[NH+]1Cc1ccccc1
REMARK SMILES IDX 1 1 2 2 3 3 4 4 5 5 13 6 14 7 15 9 16 10 17 11 21 12 18 13
REMARK SMILES IDX 20 14 19 15 6 16 7 17 8 18 12 19 9 20 11 21 10 22
REMARK H PARENT 14 8
ROOT
ATOM      1  S   UNL     1     -15.829  14.778 -16.709  1.00  0.00    -0.009 S 
ATOM      2  C   UNL     1     -14.713  14.232 -17.371  1.00  0.00     0.234 C 
ATOM      3  S   UNL     1     -13.098  14.972 -17.195  1.00  0.00    -0.040 SA
ATOM      4  C   UNL     1     -11.967  13.984 -18.207  1.00  0.00     0.172 C 
ATOM      5  N   UNL     1     -12.612  13.163 -19.182  1.00  0.00    -0.242 NA
ATOM      6  C   UNL     1     -14.000  13.317 -19.359  1.00  0.00     0.364 C 
ATOM      7  N   UNL     1     -14.801  13.080 -18.205  1.00  0.00    -0.271 N 
ATOM      8  H   UNL     1     -15.798  12.947 -18.502  1.00  0.00     0.356 HD
ENDROOT
BRANCH   7   9
ATOM      9  C   UNL     1     -14.436  11.955 -17.398  1.00  0.00     0.306 C 
BRANCH   9  10
ATOM     10  C   UNL     1     -15.072  10.688 -17.741  1.00  0.00     0.007 A 
ATOM     11  C   UNL     1     -15.227   9.694 -16.802  1.00  0.00     0.009 A 
ATOM     12  C   UNL     1     -15.529  10.457 -19.017  1.00  0.00     0.009 A 
ATOM     13  C   UNL     1     -15.827   8.483 -17.120  1.00  0.00     0.001 A 
ATOM     14  C   UNL     1     -16.135   9.242 -19.350  1.00  0.00     0.001 A 
ATOM     15  C   UNL     1     -16.273   8.274 -18.391  1.00  0.00     0.000 A 
ENDBRANCH   9  10
ENDBRANCH   7   9
BRANCH   5  16
ATOM     16  C   UNL     1     -11.845  13.133 -20.407  1.00  0.00     0.126 C 
BRANCH  16  17
ATOM     17  C   UNL     1     -12.131  14.193 -21.356  1.00  0.00    -0.034 A 
ATOM     18  C   UNL     1     -13.038  14.005 -22.369  1.00  0.00     0.005 A 
ATOM     19  C   UNL     1     -11.513  15.413 -21.272  1.00  0.00     0.005 A 
ATOM     20  C   UNL     1     -13.298  15.044 -23.265  1.00  0.00     0.000 A 
ATOM     21  C   UNL     1     -11.752  16.450 -22.140  1.00  0.00     0.000 A 
ATOM     22  C   UNL     1     -12.666  16.258 -23.160  1.00  0.00     0.000 A 
ENDBRANCH  16  17
ENDBRANCH   5  16
TORSDOF 4
ENDMDL
MODEL 4
REMARK VINA RESULT:      -6.6      7.412      9.840
REMARK SMILES S=C1SCN(Cc2ccccc2)C[NH+]1Cc1ccccc1
REMARK SMILES IDX 1 1 2 2 3 3 4 4 5 5 13 6 14 7 15 9 16 10 17 11 21 12 18 13
REMARK SMILES IDX 20 14 19 15 6 16 7 17 8 18 12 19 9 20 11 21 10 22
REMARK H PARENT 14 8
ROOT
ATOM      1  S   UNL     1     -12.965  16.590 -22.394  1.00  0.00    -0.009 S 
ATOM      2  C   UNL     1     -13.979  17.066 -21.541  1.00  0.00     0.234 C 
ATOM      3  S   UNL     1     -14.055  16.543 -19.836  1.00  0.00    -0.040 SA
ATOM      4  C   UNL     1     -15.496  17.365 -19.110  1.00  0.00     0.172 C 
ATOM      5  N   UNL     1     -16.431  17.868 -20.066  1.00  0.00    -0.242 NA
ATOM      6  C   UNL     1     -16.226  17.548 -21.421  1.00  0.00     0.364 C 
ATOM      7  N   UNL     1     -14.986  17.975 -21.976  1.00  0.00    -0.271 N 
ATOM      8  H   UNL     1     -15.050  17.940 -23.024  1.00  0.00     0.356 HD
ENDROOT
BRANCH   7   9
ATOM      9  C   UNL     1     -14.545  19.288 -21.614  1.00  0.00     0.306 C 
BRANCH   9  10
ATOM     10  C   UNL     1     -15.558  20.337 -21.652  1.00  0.00     0.007 A 
ATOM     11  C   UNL     1     -16.352  20.518 -22.762  1.00  0.00     0.009 A 
ATOM     12  C   UNL     1     -15.740  21.175 -20.577  1.00  0.00     0.009 A 
ATOM     13  C   UNL     1     -17.315  21.516 -22.809  1.00  0.00     0.001 A 
ATOM     14  C   UNL     1     -16.707  22.184 -20.612  1.00  0.00     0.001 A 
ATOM     15  C   UNL     1     -17.479  22.335 -21.733  1.00  0.00     0.000 A 
ENDBRANCH   9  10
ENDBRANCH   7   9
BRANCH   5  16
ATOM     16  C   UNL     1     -17.786  17.679 -19.597  1.00  0.00     0.126 C 
BRANCH  16  17
ATOM     17  C   UNL     1     -18.760  18.642 -20.078  1.00  0.00    -0.034 A 
ATOM     18  C   UNL     1     -19.126  19.717 -19.307  1.00  0.00     0.005 A 
ATOM     19  C   UNL     1     -19.340  18.517 -21.313  1.00  0.00     0.005 A 
ATOM     20  C   UNL     1     -20.062  20.631 -19.796  1.00  0.00     0.000 A 
ATOM     21  C   UNL     1     -20.261  19.402 -21.817  1.00  0.00     0.000 A 
ATOM     22  C   UNL     1     -20.629  20.483 -21.038  1.00  0.00     0.000 A 
ENDBRANCH  16  17
ENDBRANCH   5  16
TORSDOF 4
ENDMDL
MODEL 5
REMARK VINA RESULT:      -6.6      5.439      7.378
REMARK SMILES S=C1SCN(Cc2ccccc2)C[NH+]1Cc1ccccc1
REMARK SMILES IDX 1 1 2 2 3 3 4 4 5 5 13 6 14 7 15 9 16 10 17 11 21 12 18 13
REMARK SMILES IDX 20 14 19 15 6 16 7 17 8 18 12 19 9 20 11 21 10 22
REMARK H PARENT 14 8
ROOT
ATOM      1  S   UNL     1     -14.136  21.263 -21.880  1.00  0.00    -0.009 S 
ATOM      2  C   UNL     1     -13.559  20.010 -21.595  1.00  0.00     0.234 C 
ATOM      3  S   UNL     1     -11.940  19.902 -20.852  1.00  0.00    -0.040 SA
ATOM      4  C   UNL     1     -11.574  18.137 -20.673  1.00  0.00     0.172 C 
ATOM      5  N   UNL     1     -12.386  17.282 -21.478  1.00  0.00    -0.242 NA
ATOM      6  C   UNL     1     -13.250  17.882 -22.414  1.00  0.00     0.364 C 
ATOM      7  N   UNL     1     -14.217  18.779 -21.876  1.00  0.00    -0.271 N 
ATOM      8  H   UNL     1     -14.965  18.945 -22.594  1.00  0.00     0.356 HD
ENDROOT
BRANCH   7   9
ATOM      9  C   UNL     1     -14.863  18.368 -20.666  1.00  0.00     0.306 C 
BRANCH   9  10
ATOM     10  C   UNL     1     -16.320  18.423 -20.667  1.00  0.00     0.007 A 
ATOM     11  C   UNL     1     -17.045  18.080 -19.548  1.00  0.00     0.009 A 
ATOM     12  C   UNL     1     -17.006  18.818 -21.792  1.00  0.00     0.009 A 
ATOM     13  C   UNL     1     -18.432  18.126 -19.541  1.00  0.00     0.001 A 
ATOM     14  C   UNL     1     -18.402  18.868 -21.798  1.00  0.00     0.001 A 
ATOM     15  C   UNL     1     -19.092  18.520 -20.666  1.00  0.00     0.000 A 
ENDBRANCH   9  10
ENDBRANCH   7   9
BRANCH   5  16
ATOM     16  C   UNL     1     -11.606  16.180 -21.994  1.00  0.00     0.126 C 
BRANCH  16  17
ATOM     17  C   UNL     1     -12.148  14.856 -21.755  1.00  0.00    -0.034 A 
ATOM     18  C   UNL     1     -12.958  14.249 -22.682  1.00  0.00     0.005 A 
ATOM     19  C   UNL     1     -11.869  14.166 -20.604  1.00  0.00     0.005 A 
ATOM     20  C   UNL     1     -13.463  12.971 -22.428  1.00  0.00     0.000 A 
ATOM     21  C   UNL     1     -12.351  12.910 -20.331  1.00  0.00     0.000 A 
ATOM     22  C   UNL     1     -13.167  12.301 -21.267  1.00  0.00     0.000 A 
ENDBRANCH  16  17
ENDBRANCH   5  16
TORSDOF 4
ENDMDL
MODEL 6
REMARK VINA RESULT:      -6.5      1.910      3.367
REMARK SMILES S=C1SCN(Cc2ccccc2)C[NH+]1Cc1ccccc1
REMARK SMILES IDX 1 1 2 2 3 3 4 4 5 5 13 6 14 7 15 9 16 10 17 11 21 12 18 13
REMARK SMILES IDX 20 14 19 15 6 16 7 17 8 18 12 19 9 20 11 21 10 22
REMARK H PARENT 14 8
ROOT
ATOM      1  S   UNL     1     -15.973  10.595 -15.153  1.00  0.00    -0.009 S 
ATOM      2  C   UNL     1     -15.094  11.570 -15.660  1.00  0.00     0.234 C 
ATOM      3  S   UNL     1     -13.879  12.338 -14.602  1.00  0.00    -0.040 SA
ATOM      4  C   UNL     1     -12.978  13.526 -15.631  1.00  0.00     0.172 C 
ATOM      5  N   UNL     1     -13.646  13.881 -16.842  1.00  0.00    -0.242 NA
ATOM      6  C   UNL     1     -14.960  13.412 -17.033  1.00  0.00     0.364 C 
ATOM      7  N   UNL     1     -15.119  11.996 -17.019  1.00  0.00    -0.271 N 
ATOM      8  H   UNL     1     -16.050  11.753 -17.438  1.00  0.00     0.356 HD
ENDROOT
BRANCH   7   9
ATOM      9  C   UNL     1     -14.121  11.237 -17.710  1.00  0.00     0.306 C 
BRANCH   9  10
ATOM     10  C   UNL     1     -13.812  11.672 -19.067  1.00  0.00     0.007 A 
ATOM     11  C   UNL     1     -14.798  11.784 -20.021  1.00  0.00     0.009 A 
ATOM     12  C   UNL     1     -12.520  11.979 -19.428  1.00  0.00     0.009 A 
ATOM     13  C   UNL     1     -14.513  12.193 -21.316  1.00  0.00     0.001 A 
ATOM     14  C   UNL     1     -12.219  12.392 -20.728  1.00  0.00     0.001 A 
ATOM     15  C   UNL     1     -13.226  12.491 -21.651  1.00  0.00     0.000 A 
ENDBRANCH   9  10
ENDBRANCH   7   9
BRANCH   5  16
ATOM     16  C   UNL     1     -13.457  15.285 -17.133  1.00  0.00     0.126 C 
BRANCH  16  17
ATOM     17  C   UNL     1     -12.974  15.593 -18.466  1.00  0.00    -0.034 A 
ATOM     18  C   UNL     1     -11.628  15.674 -18.726  1.00  0.00     0.005 A 
ATOM     19  C   UNL     1     -13.838  15.808 -19.508  1.00  0.00     0.005 A 
ATOM     20  C   UNL     1     -11.191  15.967 -20.020  1.00  0.00     0.000 A 
ATOM     21  C   UNL     1     -13.433  16.097 -20.788  1.00  0.00     0.000 A 
ATOM     22  C   UNL     1     -12.077  16.178 -21.046  1.00  0.00     0.000 A 
ENDBRANCH  16  17
ENDBRANCH   5  16
TORSDOF 4
ENDMDL
MODEL 7
REMARK VINA RESULT:      -6.5      5.363      7.171
REMARK SMILES S=C1SCN(Cc2ccccc2)C[NH+]1Cc1ccccc1
REMARK SMILES IDX 1 1 2 2 3 3 4 4 5 5 13 6 14 7 15 9 16 10 17 11 21 12 18 13
REMARK SMILES IDX 20 14 19 15 6 16 7 17 8 18 12 19 9 20 11 21 10 22
REMARK H PARENT 14 8
ROOT
ATOM      1  S   UNL     1     -14.174  21.284 -20.706  1.00  0.00    -0.009 S 
ATOM      2  C   UNL     1     -13.634  19.984 -20.666  1.00  0.00     0.234 C 
ATOM      3  S   UNL     1     -12.051  19.679 -19.899  1.00  0.00    -0.040 SA
ATOM      4  C   UNL     1     -11.727  17.906 -20.076  1.00  0.00     0.172 C 
ATOM      5  N   UNL     1     -12.519  17.259 -21.073  1.00  0.00    -0.242 NA
ATOM      6  C   UNL     1     -13.329  18.064 -21.897  1.00  0.00     0.364 C 
ATOM      7  N   UNL     1     -14.302  18.856 -21.223  1.00  0.00    -0.271 N 
ATOM      8  H   UNL     1     -15.014  19.188 -21.919  1.00  0.00     0.356 HD
ENDROOT
BRANCH   7   9
ATOM      9  C   UNL     1     -15.008  18.221 -20.152  1.00  0.00     0.306 C 
BRANCH   9  10
ATOM     10  C   UNL     1     -16.459  18.364 -20.168  1.00  0.00     0.007 A 
ATOM     11  C   UNL     1     -17.222  17.766 -21.146  1.00  0.00     0.009 A 
ATOM     12  C   UNL     1     -17.101  19.104 -19.203  1.00  0.00     0.009 A 
ATOM     13  C   UNL     1     -18.603  17.900 -21.172  1.00  0.00     0.001 A 
ATOM     14  C   UNL     1     -18.491  19.246 -19.217  1.00  0.00     0.001 A 
ATOM     15  C   UNL     1     -19.219  18.639 -20.206  1.00  0.00     0.000 A 
ENDBRANCH   9  10
ENDBRANCH   7   9
BRANCH   5  16
ATOM     16  C   UNL     1     -11.737  16.267 -21.777  1.00  0.00     0.126 C 
BRANCH  16  17
ATOM     17  C   UNL     1     -12.192  14.896 -21.645  1.00  0.00    -0.034 A 
ATOM     18  C   UNL     1     -11.863  14.148 -20.542  1.00  0.00     0.005 A 
ATOM     19  C   UNL     1     -12.967  14.304 -22.608  1.00  0.00     0.005 A 
ATOM     20  C   UNL     1     -12.319  12.831 -20.439  1.00  0.00     0.000 A 
ATOM     21  C   UNL     1     -13.428  13.013 -22.529  1.00  0.00     0.000 A 
ATOM     22  C   UNL     1     -13.094  12.262 -21.418  1.00  0.00     0.000 A 
ENDBRANCH  16  17
ENDBRANCH   5  16
TORSDOF 4
ENDMDL
MODEL 8
REMARK VINA RESULT:      -6.5      2.426      5.922
REMARK SMILES S=C1SCN(Cc2ccccc2)C[NH+]1Cc1ccccc1
REMARK SMILES IDX 1 1 2 2 3 3 4 4 5 5 13 6 14 7 15 9 16 10 17 11 21 12 18 13
REMARK SMILES IDX 20 14 19 15 6 16 7 17 8 18 12 19 9 20 11 21 10 22
REMARK H PARENT 14 8
ROOT
ATOM      1  S   UNL     1     -16.356  10.472 -19.673  1.00  0.00    -0.009 S 
ATOM      2  C   UNL     1     -15.366  11.059 -18.863  1.00  0.00     0.234 C 
ATOM      3  S   UNL     1     -14.775  10.225 -17.400  1.00  0.00    -0.040 SA
ATOM      4  C   UNL     1     -13.536  11.315 -16.652  1.00  0.00     0.172 C 
ATOM      5  N   UNL     1     -13.596  12.670 -17.100  1.00  0.00    -0.242 NA
ATOM      6  C   UNL     1     -14.673  13.044 -17.927  1.00  0.00     0.364 C 
ATOM      7  N   UNL     1     -14.787  12.328 -19.153  1.00  0.00    -0.271 N 
ATOM      8  H   UNL     1     -15.424  12.856 -19.799  1.00  0.00     0.356 HD
ENDROOT
BRANCH   7   9
ATOM      9  C   UNL     1     -13.568  12.076 -19.860  1.00  0.00     0.306 C 
BRANCH   9  10
ATOM     10  C   UNL     1     -13.179  13.078 -20.845  1.00  0.00     0.007 A 
ATOM     11  C   UNL     1     -12.432  14.177 -20.485  1.00  0.00     0.009 A 
ATOM     12  C   UNL     1     -13.555  12.949 -22.162  1.00  0.00     0.009 A 
ATOM     13  C   UNL     1     -12.062  15.138 -21.415  1.00  0.00     0.001 A 
ATOM     14  C   UNL     1     -13.188  13.910 -23.108  1.00  0.00     0.001 A 
ATOM     15  C   UNL     1     -12.445  14.991 -22.714  1.00  0.00     0.000 A 
ENDBRANCH   9  10
ENDBRANCH   7   9
BRANCH   5  16
ATOM     16  C   UNL     1     -13.330  13.577 -16.007  1.00  0.00     0.126 C 
BRANCH  16  17
ATOM     17  C   UNL     1     -14.493  14.214 -15.417  1.00  0.00    -0.034 A 
ATOM     18  C   UNL     1     -15.284  13.542 -14.520  1.00  0.00     0.005 A 
ATOM     19  C   UNL     1     -14.837  15.503 -15.730  1.00  0.00     0.005 A 
ATOM     20  C   UNL     1     -16.395  14.181 -13.964  1.00  0.00     0.000 A 
ATOM     21  C   UNL     1     -15.923  16.153 -15.197  1.00  0.00     0.000 A 
ATOM     22  C   UNL     1     -16.719  15.473 -14.294  1.00  0.00     0.000 A 
ENDBRANCH  16  17
ENDBRANCH   5  16
TORSDOF 4
ENDMDL
MODEL 9
REMARK VINA RESULT:      -6.5      2.693      5.862
REMARK SMILES S=C1SCN(Cc2ccccc2)C[NH+]1Cc1ccccc1
REMARK SMILES IDX 1 1 2 2 3 3 4 4 5 5 13 6 14 7 15 9 16 10 17 11 21 12 18 13
REMARK SMILES IDX 20 14 19 15 6 16 7 17 8 18 12 19 9 20 11 21 10 22
REMARK H PARENT 14 8
ROOT
ATOM      1  S   UNL     1     -16.420   8.932 -19.670  1.00  0.00    -0.009 S 
ATOM      2  C   UNL     1     -16.030   9.650 -18.524  1.00  0.00     0.234 C 
ATOM      3  S   UNL     1     -15.774   8.813 -16.968  1.00  0.00    -0.040 SA
ATOM      4  C   UNL     1     -15.302  10.087 -15.771  1.00  0.00     0.172 C 
ATOM      5  N   UNL     1     -15.622  11.421 -16.172  1.00  0.00    -0.242 NA
ATOM      6  C   UNL     1     -16.386  11.592 -17.342  1.00  0.00     0.364 C 
ATOM      7  N   UNL     1     -15.818  11.059 -18.534  1.00  0.00    -0.271 N 
ATOM      8  H   UNL     1     -16.312  11.474 -19.363  1.00  0.00     0.356 HD
ENDROOT
BRANCH   7   9
ATOM      9  C   UNL     1     -14.414  11.267 -18.719  1.00  0.00     0.306 C 
BRANCH   9  10
ATOM     10  C   UNL     1     -14.038  12.218 -19.759  1.00  0.00     0.007 A 
ATOM     11  C   UNL     1     -13.859  11.812 -21.062  1.00  0.00     0.009 A 
ATOM     12  C   UNL     1     -13.851  13.547 -19.459  1.00  0.00     0.009 A 
ATOM     13  C   UNL     1     -13.497  12.708 -22.057  1.00  0.00     0.001 A 
ATOM     14  C   UNL     1     -13.487  14.460 -20.452  1.00  0.00     0.001 A 
ATOM     15  C   UNL     1     -13.316  14.021 -21.738  1.00  0.00     0.000 A 
ENDBRANCH   9  10
ENDBRANCH   7   9
BRANCH   5  16
ATOM     16  C   UNL     1     -16.069  12.198 -15.037  1.00  0.00     0.126 C 
BRANCH  16  17
ATOM     17  C   UNL     1     -15.581  13.563 -14.976  1.00  0.00    -0.034 A 
ATOM     18  C   UNL     1     -16.294  14.536 -14.322  1.00  0.00     0.005 A 
ATOM     19  C   UNL     1     -14.396  13.925 -15.561  1.00  0.00     0.005 A 
ATOM     20  C   UNL     1     -15.798  15.841 -14.274  1.00  0.00     0.000 A 
ATOM     21  C   UNL     1     -13.887  15.200 -15.527  1.00  0.00     0.000 A 
ATOM     22  C   UNL     1     -14.607  16.179 -14.868  1.00  0.00     0.000 A 
ENDBRANCH  16  17
ENDBRANCH   5  16
TORSDOF 4
ENDMDL
