MODEL 1
REMARK VINA RESULT:      -9.1      0.000      0.000
REMARK SMILES O=C1NCN(c2ccccc2)C12CC[NH+](CCCC(c1ccc(F)cc1)c1ccc(F)cc1)CC2
REMARK SMILES IDX 17 1 16 2 15 3 1 4 2 5 3 6 12 7 4 8 5 9 13 10 35 11 14 12
REMARK SMILES IDX 34 13 6 16 7 17 11 18 8 19 10 20 9 21 18 22 19 23 20 24
REMARK SMILES IDX 21 25 26 26 22 27 25 28 23 29 24 30 27 31 28 32 33 33 29 34
REMARK SMILES IDX 32 35 30 36 31 37
REMARK H PARENT 3 14 15 15
ROOT
ATOM      1  C   UNL     1     -15.472  14.576 -17.419  1.00  0.00     0.062 C 
ENDROOT
BRANCH   1   2
ATOM      2  C   UNL     1     -15.682  16.034 -17.131  1.00  0.00     0.262 C 
BRANCH   2   3
ATOM      3  N   UNL     1     -16.153  16.720 -18.329  1.00  0.00    -0.335 N 
ATOM      4  O   UNL     1     -16.149  16.836 -21.556  1.00  0.00    -0.272 OA
ATOM      5  C   UNL     1     -16.634  17.983 -21.469  1.00  0.00     0.247 C 
ATOM      6  N   UNL     1     -16.948  18.797 -22.572  1.00  0.00    -0.336 N 
ATOM      7  C   UNL     1     -16.968  18.698 -20.180  1.00  0.00     0.131 C 
ATOM      8  C   UNL     1     -17.873  19.776 -22.095  1.00  0.00     0.238 C 
ATOM      9  N   UNL     1     -17.498  19.962 -20.685  1.00  0.00    -0.339 N 
ATOM     10  C   UNL     1     -15.691  18.888 -19.386  1.00  0.00     0.100 C 
ATOM     11  C   UNL     1     -17.963  17.871 -19.448  1.00  0.00     0.100 C 
ATOM     12  C   UNL     1     -15.133  17.566 -18.914  1.00  0.00     0.265 C 
ATOM     13  C   UNL     1     -17.398  17.419 -18.141  1.00  0.00     0.265 C 
ATOM     14  H   UNL     1     -16.562  18.683 -23.548  1.00  0.00     0.165 HD
ATOM     15  H   UNL     1     -16.332  15.950 -19.008  1.00  0.00     0.348 HD
BRANCH   9  16
ATOM     16  C   UNL     1     -17.659  21.216 -20.043  1.00  0.00     0.039 A 
ATOM     17  C   UNL     1     -18.429  21.341 -18.911  1.00  0.00     0.026 A 
ATOM     18  C   UNL     1     -17.027  22.314 -20.540  1.00  0.00     0.026 A 
ATOM     19  C   UNL     1     -18.578  22.568 -18.258  1.00  0.00     0.002 A 
ATOM     20  C   UNL     1     -17.159  23.525 -19.917  1.00  0.00     0.002 A 
ATOM     21  C   UNL     1     -17.924  23.660 -18.787  1.00  0.00     0.000 A 
ENDBRANCH   9  16
ENDBRANCH   2   3
ENDBRANCH   1   2
BRANCH   1  22
ATOM     22  C   UNL     1     -14.091  14.128 -17.625  1.00  0.00     0.019 C 
BRANCH  22  23
ATOM     23  C   UNL     1     -13.752  12.944 -18.402  1.00  0.00     0.049 C 
BRANCH  23  24
ATOM     24  C   UNL     1     -14.480  11.682 -18.017  1.00  0.00    -0.040 A 
ATOM     25  C   UNL     1     -13.894  10.905 -17.043  1.00  0.00     0.007 A 
ATOM     26  C   UNL     1     -15.652  11.296 -18.611  1.00  0.00     0.007 A 
ATOM     27  C   UNL     1     -14.483   9.728 -16.655  1.00  0.00     0.039 A 
ATOM     28  C   UNL     1     -16.236  10.121 -18.220  1.00  0.00     0.039 A 
ATOM     29  C   UNL     1     -15.662   9.313 -17.231  1.00  0.00     0.123 A 
ATOM     30  F   UNL     1     -16.235   8.147 -16.839  1.00  0.00    -0.207 F 
ENDBRANCH  23  24
BRANCH  23  31
ATOM     31  C   UNL     1     -13.588  13.022 -19.844  1.00  0.00    -0.040 A 
ATOM     32  C   UNL     1     -13.398  11.976 -20.704  1.00  0.00     0.007 A 
ATOM     33  C   UNL     1     -13.614  14.315 -20.382  1.00  0.00     0.007 A 
ATOM     34  C   UNL     1     -13.239  12.242 -22.069  1.00  0.00     0.039 A 
ATOM     35  C   UNL     1     -13.461  14.586 -21.703  1.00  0.00     0.039 A 
ATOM     36  C   UNL     1     -13.270  13.524 -22.557  1.00  0.00     0.123 A 
ATOM     37  F   UNL     1     -13.119  13.810 -23.878  1.00  0.00    -0.207 F 
ENDBRANCH  23  31
ENDBRANCH  22  23
ENDBRANCH   1  22
TORSDOF 7
ENDMDL
MODEL 2
REMARK VINA RESULT:      -8.7      1.248      1.702
REMARK SMILES O=C1NCN(c2ccccc2)C12CC[NH+](CCCC(c1ccc(F)cc1)c1ccc(F)cc1)CC2
REMARK SMILES IDX 17 1 16 2 15 3 1 4 2 5 3 6 12 7 4 8 5 9 13 10 35 11 14 12
REMARK SMILES IDX 34 13 6 16 7 17 11 18 8 19 10 20 9 21 18 22 19 23 20 24
REMARK SMILES IDX 21 25 26 26 22 27 25 28 23 29 24 30 27 31 28 32 33 33 29 34
REMARK SMILES IDX 32 35 30 36 31 37
REMARK H PARENT 3 14 15 15
ROOT
ATOM      1  C   UNL     1     -15.270  15.535 -17.710  1.00  0.00     0.062 C 
ENDROOT
BRANCH   1   2
ATOM      2  C   UNL     1     -14.618  16.799 -18.186  1.00  0.00     0.262 C 
BRANCH   2   3
ATOM      3  N   UNL     1     -15.456  17.452 -19.186  1.00  0.00    -0.335 N 
ATOM      4  O   UNL     1     -15.783  18.346 -22.271  1.00  0.00    -0.272 OA
ATOM      5  C   UNL     1     -16.739  19.065 -21.913  1.00  0.00     0.247 C 
ATOM      6  N   UNL     1     -17.490  19.876 -22.782  1.00  0.00    -0.336 N 
ATOM      7  C   UNL     1     -17.257  19.194 -20.499  1.00  0.00     0.131 C 
ATOM      8  C   UNL     1     -18.722  20.147 -22.109  1.00  0.00     0.238 C 
ATOM      9  N   UNL     1     -18.359  20.135 -20.684  1.00  0.00    -0.339 N 
ATOM     10  C   UNL     1     -16.155  19.764 -19.629  1.00  0.00     0.100 C 
ATOM     11  C   UNL     1     -17.682  17.842 -20.048  1.00  0.00     0.100 C 
ATOM     12  C   UNL     1     -15.005  18.794 -19.490  1.00  0.00     0.265 C 
ATOM     13  C   UNL     1     -16.861  17.406 -18.879  1.00  0.00     0.265 C 
ATOM     14  H   UNL     1     -17.182  20.203 -23.737  1.00  0.00     0.165 HD
ATOM     15  H   UNL     1     -15.311  16.882 -20.048  1.00  0.00     0.348 HD
BRANCH   9  16
ATOM     16  C   UNL     1     -19.032  20.961 -19.748  1.00  0.00     0.039 A 
ATOM     17  C   UNL     1     -20.236  20.580 -19.204  1.00  0.00     0.026 A 
ATOM     18  C   UNL     1     -18.473  22.140 -19.363  1.00  0.00     0.026 A 
ATOM     19  C   UNL     1     -20.899  21.377 -18.266  1.00  0.00     0.002 A 
ATOM     20  C   UNL     1     -19.105  22.934 -18.447  1.00  0.00     0.002 A 
ATOM     21  C   UNL     1     -20.305  22.565 -17.898  1.00  0.00     0.000 A 
ENDBRANCH   9  16
ENDBRANCH   2   3
ENDBRANCH   1   2
BRANCH   1  22
ATOM     22  C   UNL     1     -14.436  14.599 -16.947  1.00  0.00     0.019 C 
BRANCH  22  23
ATOM     23  C   UNL     1     -13.869  13.391 -17.529  1.00  0.00     0.049 C 
BRANCH  23  24
ATOM     24  C   UNL     1     -14.459  12.094 -17.040  1.00  0.00    -0.040 A 
ATOM     25  C   UNL     1     -15.738  12.150 -16.532  1.00  0.00     0.007 A 
ATOM     26  C   UNL     1     -13.768  10.912 -17.066  1.00  0.00     0.007 A 
ATOM     27  C   UNL     1     -16.336  11.016 -16.044  1.00  0.00     0.039 A 
ATOM     28  C   UNL     1     -14.369   9.783 -16.579  1.00  0.00     0.039 A 
ATOM     29  C   UNL     1     -15.667   9.813 -16.058  1.00  0.00     0.123 A 
ATOM     30  F   UNL     1     -16.269   8.698 -15.573  1.00  0.00    -0.207 F 
ENDBRANCH  23  24
BRANCH  23  31
ATOM     31  C   UNL     1     -13.575  13.317 -18.951  1.00  0.00    -0.040 A 
ATOM     32  C   UNL     1     -12.547  13.934 -19.606  1.00  0.00     0.007 A 
ATOM     33  C   UNL     1     -14.461  12.539 -19.707  1.00  0.00     0.007 A 
ATOM     34  C   UNL     1     -12.428  13.765 -20.991  1.00  0.00     0.039 A 
ATOM     35  C   UNL     1     -14.356  12.366 -21.049  1.00  0.00     0.039 A 
ATOM     36  C   UNL     1     -13.318  12.994 -21.697  1.00  0.00     0.123 A 
ATOM     37  F   UNL     1     -13.224  12.812 -23.042  1.00  0.00    -0.207 F 
ENDBRANCH  23  31
ENDBRANCH  22  23
ENDBRANCH   1  22
TORSDOF 7
ENDMDL
MODEL 3
REMARK VINA RESULT:      -8.7      3.055      5.209
REMARK SMILES O=C1NCN(c2ccccc2)C12CC[NH+](CCCC(c1ccc(F)cc1)c1ccc(F)cc1)CC2
REMARK SMILES IDX 17 1 16 2 15 3 1 4 2 5 3 6 12 7 4 8 5 9 13 10 35 11 14 12
REMARK SMILES IDX 34 13 6 16 7 17 11 18 8 19 10 20 9 21 18 22 19 23 20 24
REMARK SMILES IDX 21 25 26 26 22 27 25 28 23 29 24 30 27 31 28 32 33 33 29 34
REMARK SMILES IDX 32 35 30 36 31 37
REMARK H PARENT 3 14 15 15
ROOT
ATOM      1  C   UNL     1     -12.086  18.407 -19.206  1.00  0.00     0.062 C 
ENDROOT
BRANCH   1   2
ATOM      2  C   UNL     1     -11.666  18.879 -20.567  1.00  0.00     0.262 C 
BRANCH   2   3
ATOM      3  N   UNL     1     -12.433  20.060 -20.948  1.00  0.00    -0.335 N 
ATOM      4  O   UNL     1     -12.520  23.282 -21.135  1.00  0.00    -0.272 OA
ATOM      5  C   UNL     1     -13.748  23.191 -21.339  1.00  0.00     0.247 C 
ATOM      6  N   UNL     1     -14.604  24.290 -21.533  1.00  0.00    -0.336 N 
ATOM      7  C   UNL     1     -14.531  21.900 -21.414  1.00  0.00     0.131 C 
ATOM      8  C   UNL     1     -15.772  23.777 -22.177  1.00  0.00     0.238 C 
ATOM      9  N   UNL     1     -15.878  22.398 -21.676  1.00  0.00    -0.339 N 
ATOM     10  C   UNL     1     -14.430  21.193 -20.077  1.00  0.00     0.100 C 
ATOM     11  C   UNL     1     -13.958  21.087 -22.520  1.00  0.00     0.100 C 
ATOM     12  C   UNL     1     -13.019  20.728 -19.805  1.00  0.00     0.265 C 
ATOM     13  C   UNL     1     -13.399  19.809 -21.986  1.00  0.00     0.265 C 
ATOM     14  H   UNL     1     -14.398  25.286 -21.249  1.00  0.00     0.165 HD
ATOM     15  H   UNL     1     -11.718  20.709 -21.344  1.00  0.00     0.348 HD
BRANCH   9  16
ATOM     16  C   UNL     1     -17.141  21.776 -21.504  1.00  0.00     0.039 A 
ATOM     17  C   UNL     1     -17.886  21.984 -20.367  1.00  0.00     0.026 A 
ATOM     18  C   UNL     1     -17.639  20.977 -22.487  1.00  0.00     0.026 A 
ATOM     19  C   UNL     1     -19.141  21.393 -20.196  1.00  0.00     0.002 A 
ATOM     20  C   UNL     1     -18.864  20.388 -22.339  1.00  0.00     0.002 A 
ATOM     21  C   UNL     1     -19.616  20.588 -21.210  1.00  0.00     0.000 A 
ENDBRANCH   9  16
ENDBRANCH   2   3
ENDBRANCH   1   2
BRANCH   1  22
ATOM     22  C   UNL     1     -12.804  17.129 -19.134  1.00  0.00     0.019 C 
BRANCH  22  23
ATOM     23  C   UNL     1     -13.733  16.686 -20.164  1.00  0.00     0.049 C 
BRANCH  23  24
ATOM     24  C   UNL     1     -13.568  15.260 -20.621  1.00  0.00    -0.040 A 
ATOM     25  C   UNL     1     -13.247  15.070 -21.947  1.00  0.00     0.007 A 
ATOM     26  C   UNL     1     -13.747  14.192 -19.784  1.00  0.00     0.007 A 
ATOM     27  C   UNL     1     -13.104  13.800 -22.445  1.00  0.00     0.039 A 
ATOM     28  C   UNL     1     -13.602  12.926 -20.285  1.00  0.00     0.039 A 
ATOM     29  C   UNL     1     -13.276  12.706 -21.629  1.00  0.00     0.123 A 
ATOM     30  F   UNL     1     -13.132  11.454 -22.133  1.00  0.00    -0.207 F 
ENDBRANCH  23  24
BRANCH  23  31
ATOM     31  C   UNL     1     -15.140  17.045 -20.102  1.00  0.00    -0.040 A 
ATOM     32  C   UNL     1     -15.991  17.205 -21.160  1.00  0.00     0.007 A 
ATOM     33  C   UNL     1     -15.648  17.260 -18.814  1.00  0.00     0.007 A 
ATOM     34  C   UNL     1     -17.318  17.575 -20.911  1.00  0.00     0.039 A 
ATOM     35  C   UNL     1     -16.933  17.617 -18.560  1.00  0.00     0.039 A 
ATOM     36  C   UNL     1     -17.778  17.776 -19.634  1.00  0.00     0.123 A 
ATOM     37  F   UNL     1     -19.063  18.133 -19.365  1.00  0.00    -0.207 F 
ENDBRANCH  23  31
ENDBRANCH  22  23
ENDBRANCH   1  22
TORSDOF 7
ENDMDL
MODEL 4
REMARK VINA RESULT:      -8.6      3.704      9.495
REMARK SMILES O=C1NCN(c2ccccc2)C12CC[NH+](CCCC(c1ccc(F)cc1)c1ccc(F)cc1)CC2
REMARK SMILES IDX 17 1 16 2 15 3 1 4 2 5 3 6 12 7 4 8 5 9 13 10 35 11 14 12
REMARK SMILES IDX 34 13 6 16 7 17 11 18 8 19 10 20 9 21 18 22 19 23 20 24
REMARK SMILES IDX 21 25 26 26 22 27 25 28 23 29 24 30 27 31 28 32 33 33 29 34
REMARK SMILES IDX 32 35 30 36 31 37
REMARK H PARENT 3 14 15 15
ROOT
ATOM      1  C   UNL     1     -18.391  18.414 -19.391  1.00  0.00     0.062 C 
ENDROOT
BRANCH   1   2
ATOM      2  C   UNL     1     -17.092  18.729 -18.710  1.00  0.00     0.262 C 
BRANCH   2   3
ATOM      3  N   UNL     1     -15.972  18.353 -19.565  1.00  0.00    -0.335 N 
ATOM      4  O   UNL     1     -14.187  19.082 -22.156  1.00  0.00    -0.272 OA
ATOM      5  C   UNL     1     -13.715  17.927 -22.097  1.00  0.00     0.247 C 
ATOM      6  N   UNL     1     -12.765  17.413 -22.996  1.00  0.00    -0.336 N 
ATOM      7  C   UNL     1     -14.075  16.885 -21.064  1.00  0.00     0.131 C 
ATOM      8  C   UNL     1     -12.160  16.295 -22.342  1.00  0.00     0.238 C 
ATOM      9  N   UNL     1     -13.228  15.769 -21.477  1.00  0.00    -0.339 N 
ATOM     10  C   UNL     1     -15.550  16.563 -21.193  1.00  0.00     0.100 C 
ATOM     11  C   UNL     1     -13.738  17.439 -19.726  1.00  0.00     0.100 C 
ATOM     12  C   UNL     1     -16.408  17.745 -20.805  1.00  0.00     0.265 C 
ATOM     13  C   UNL     1     -14.972  17.565 -18.894  1.00  0.00     0.265 C 
ATOM     14  H   UNL     1     -12.558  17.796 -23.958  1.00  0.00     0.165 HD
ATOM     15  H   UNL     1     -15.529  19.264 -19.816  1.00  0.00     0.348 HD
BRANCH   9  16
ATOM     16  C   UNL     1     -13.318  14.384 -21.186  1.00  0.00     0.039 A 
ATOM     17  C   UNL     1     -13.329  13.447 -22.191  1.00  0.00     0.026 A 
ATOM     18  C   UNL     1     -13.374  13.970 -19.890  1.00  0.00     0.026 A 
ATOM     19  C   UNL     1     -13.398  12.078 -21.914  1.00  0.00     0.002 A 
ATOM     20  C   UNL     1     -13.442  12.636 -19.598  1.00  0.00     0.002 A 
ATOM     21  C   UNL     1     -13.454  11.692 -20.592  1.00  0.00     0.000 A 
ENDBRANCH   9  16
ENDBRANCH   2   3
ENDBRANCH   1   2
BRANCH   1  22
ATOM     22  C   UNL     1     -19.444  19.435 -19.326  1.00  0.00     0.019 C 
BRANCH  22  23
ATOM     23  C   UNL     1     -19.602  20.471 -20.338  1.00  0.00     0.049 C 
BRANCH  23  24
ATOM     24  C   UNL     1     -20.428  21.662 -19.927  1.00  0.00    -0.040 A 
ATOM     25  C   UNL     1     -20.810  22.523 -20.931  1.00  0.00     0.007 A 
ATOM     26  C   UNL     1     -20.770  21.908 -18.624  1.00  0.00     0.007 A 
ATOM     27  C   UNL     1     -21.544  23.644 -20.634  1.00  0.00     0.039 A 
ATOM     28  C   UNL     1     -21.502  23.028 -18.333  1.00  0.00     0.039 A 
ATOM     29  C   UNL     1     -21.904  23.919 -19.335  1.00  0.00     0.123 A 
ATOM     30  F   UNL     1     -22.629  25.031 -19.054  1.00  0.00    -0.207 F 
ENDBRANCH  23  24
BRANCH  23  31
ATOM     31  C   UNL     1     -18.478  20.885 -21.161  1.00  0.00    -0.040 A 
ATOM     32  C   UNL     1     -18.203  20.476 -22.436  1.00  0.00     0.007 A 
ATOM     33  C   UNL     1     -17.591  21.785 -20.556  1.00  0.00     0.007 A 
ATOM     34  C   UNL     1     -17.057  20.968 -23.073  1.00  0.00     0.039 A 
ATOM     35  C   UNL     1     -16.478  22.270 -21.163  1.00  0.00     0.039 A 
ATOM     36  C   UNL     1     -16.212  21.849 -22.446  1.00  0.00     0.123 A 
ATOM     37  F   UNL     1     -15.094  22.343 -23.042  1.00  0.00    -0.207 F 
ENDBRANCH  23  31
ENDBRANCH  22  23
ENDBRANCH   1  22
TORSDOF 7
ENDMDL
MODEL 5
REMARK VINA RESULT:      -8.6      3.385      5.667
REMARK SMILES O=C1NCN(c2ccccc2)C12CC[NH+](CCCC(c1ccc(F)cc1)c1ccc(F)cc1)CC2
REMARK SMILES IDX 17 1 16 2 15 3 1 4 2 5 3 6 12 7 4 8 5 9 13 10 35 11 14 12
REMARK SMILES IDX 34 13 6 16 7 17 11 18 8 19 10 20 9 21 18 22 19 23 20 24
REMARK SMILES IDX 21 25 26 26 22 27 25 28 23 29 24 30 27 31 28 32 33 33 29 34
REMARK SMILES IDX 32 35 30 36 31 37
REMARK H PARENT 3 14 15 15
ROOT
ATOM      1  C   UNL     1     -12.747  19.561 -21.095  1.00  0.00     0.062 C 
ENDROOT
BRANCH   1   2
ATOM      2  C   UNL     1     -13.416  20.154 -22.301  1.00  0.00     0.262 C 
BRANCH   2   3
ATOM      3  N   UNL     1     -14.254  21.281 -21.908  1.00  0.00    -0.335 N 
ATOM      4  O   UNL     1     -14.363  24.359 -20.937  1.00  0.00    -0.272 OA
ATOM      5  C   UNL     1     -15.560  24.172 -20.636  1.00  0.00     0.247 C 
ATOM      6  N   UNL     1     -16.398  25.152 -20.075  1.00  0.00    -0.336 N 
ATOM      7  C   UNL     1     -16.318  22.877 -20.816  1.00  0.00     0.131 C 
ATOM      8  C   UNL     1     -17.738  24.716 -20.314  1.00  0.00     0.238 C 
ATOM      9  N   UNL     1     -17.639  23.248 -20.315  1.00  0.00    -0.339 N 
ATOM     10  C   UNL     1     -15.661  21.808 -19.965  1.00  0.00     0.100 C 
ATOM     11  C   UNL     1     -16.292  22.535 -22.263  1.00  0.00     0.100 C 
ATOM     12  C   UNL     1     -14.278  21.474 -20.473  1.00  0.00     0.265 C 
ATOM     13  C   UNL     1     -15.577  21.241 -22.474  1.00  0.00     0.265 C 
ATOM     14  H   UNL     1     -16.075  26.028 -19.582  1.00  0.00     0.165 HD
ATOM     15  H   UNL     1     -13.770  22.110 -22.316  1.00  0.00     0.348 HD
BRANCH   9  16
ATOM     16  C   UNL     1     -18.713  22.441 -19.862  1.00  0.00     0.039 A 
ATOM     17  C   UNL     1     -19.214  22.576 -18.588  1.00  0.00     0.026 A 
ATOM     18  C   UNL     1     -19.276  21.532 -20.703  1.00  0.00     0.026 A 
ATOM     19  C   UNL     1     -20.287  21.800 -18.138  1.00  0.00     0.002 A 
ATOM     20  C   UNL     1     -20.326  20.763 -20.283  1.00  0.00     0.002 A 
ATOM     21  C   UNL     1     -20.833  20.888 -19.016  1.00  0.00     0.000 A 
ENDBRANCH   9  16
ENDBRANCH   2   3
ENDBRANCH   1   2
BRANCH   1  22
ATOM     22  C   UNL     1     -12.988  18.139 -20.829  1.00  0.00     0.019 C 
BRANCH  22  23
ATOM     23  C   UNL     1     -14.107  17.406 -21.406  1.00  0.00     0.049 C 
BRANCH  23  24
ATOM     24  C   UNL     1     -13.838  15.961 -21.738  1.00  0.00    -0.040 A 
ATOM     25  C   UNL     1     -13.977  15.056 -20.710  1.00  0.00     0.007 A 
ATOM     26  C   UNL     1     -13.448  15.551 -22.985  1.00  0.00     0.007 A 
ATOM     27  C   UNL     1     -13.726  13.724 -20.926  1.00  0.00     0.039 A 
ATOM     28  C   UNL     1     -13.199  14.222 -23.197  1.00  0.00     0.039 A 
ATOM     29  C   UNL     1     -13.334  13.281 -22.169  1.00  0.00     0.123 A 
ATOM     30  F   UNL     1     -13.088  11.961 -22.371  1.00  0.00    -0.207 F 
ENDBRANCH  23  24
BRANCH  23  31
ATOM     31  C   UNL     1     -15.453  17.569 -20.882  1.00  0.00    -0.040 A 
ATOM     32  C   UNL     1     -16.619  17.521 -21.593  1.00  0.00     0.007 A 
ATOM     33  C   UNL     1     -15.535  17.817 -19.505  1.00  0.00     0.007 A 
ATOM     34  C   UNL     1     -17.831  17.721 -20.921  1.00  0.00     0.039 A 
ATOM     35  C   UNL     1     -16.703  18.012 -18.842  1.00  0.00     0.039 A 
ATOM     36  C   UNL     1     -17.869  17.962 -19.571  1.00  0.00     0.123 A 
ATOM     37  F   UNL     1     -19.033  18.158 -18.893  1.00  0.00    -0.207 F 
ENDBRANCH  23  31
ENDBRANCH  22  23
ENDBRANCH   1  22
TORSDOF 7
ENDMDL
MODEL 6
REMARK VINA RESULT:      -8.6      3.788      9.901
REMARK SMILES O=C1NCN(c2ccccc2)C12CC[NH+](CCCC(c1ccc(F)cc1)c1ccc(F)cc1)CC2
REMARK SMILES IDX 17 1 16 2 15 3 1 4 2 5 3 6 12 7 4 8 5 9 13 10 35 11 14 12
REMARK SMILES IDX 34 13 6 16 7 17 11 18 8 19 10 20 9 21 18 22 19 23 20 24
REMARK SMILES IDX 21 25 26 26 22 27 25 28 23 29 24 30 27 31 28 32 33 33 29 34
REMARK SMILES IDX 32 35 30 36 31 37
REMARK H PARENT 3 14 15 15
ROOT
ATOM      1  C   UNL     1     -18.709  18.424 -19.683  1.00  0.00     0.062 C 
ENDROOT
BRANCH   1   2
ATOM      2  C   UNL     1     -17.473  18.790 -18.915  1.00  0.00     0.262 C 
BRANCH   2   3
ATOM      3  N   UNL     1     -16.283  18.447 -19.684  1.00  0.00    -0.335 N 
ATOM      4  O   UNL     1     -14.302  19.256 -22.103  1.00  0.00    -0.272 OA
ATOM      5  C   UNL     1     -13.822  18.106 -22.033  1.00  0.00     0.247 C 
ATOM      6  N   UNL     1     -12.795  17.623 -22.863  1.00  0.00    -0.336 N 
ATOM      7  C   UNL     1     -14.252  17.035 -21.057  1.00  0.00     0.131 C 
ATOM      8  C   UNL     1     -12.232  16.497 -22.188  1.00  0.00     0.238 C 
ATOM      9  N   UNL     1     -13.360  15.938 -21.426  1.00  0.00    -0.339 N 
ATOM     10  C   UNL     1     -15.708  16.700 -21.313  1.00  0.00     0.100 C 
ATOM     11  C   UNL     1     -14.032  17.560 -19.683  1.00  0.00     0.100 C 
ATOM     12  C   UNL     1     -16.608  17.864 -20.969  1.00  0.00     0.265 C 
ATOM     13  C   UNL     1     -15.331  17.653 -18.952  1.00  0.00     0.265 C 
ATOM     14  H   UNL     1     -12.516  18.032 -23.796  1.00  0.00     0.165 HD
ATOM     15  H   UNL     1     -15.832  19.367 -19.877  1.00  0.00     0.348 HD
BRANCH   9  16
ATOM     16  C   UNL     1     -13.456  14.546 -21.175  1.00  0.00     0.039 A 
ATOM     17  C   UNL     1     -13.303  13.630 -22.188  1.00  0.00     0.026 A 
ATOM     18  C   UNL     1     -13.684  14.103 -19.908  1.00  0.00     0.026 A 
ATOM     19  C   UNL     1     -13.376  12.254 -21.948  1.00  0.00     0.002 A 
ATOM     20  C   UNL     1     -13.760  12.762 -19.652  1.00  0.00     0.002 A 
ATOM     21  C   UNL     1     -13.608  11.839 -20.654  1.00  0.00     0.000 A 
ENDBRANCH   9  16
ENDBRANCH   2   3
ENDBRANCH   1   2
BRANCH   1  22
ATOM     22  C   UNL     1     -19.470  19.523 -20.287  1.00  0.00     0.019 C 
BRANCH  22  23
ATOM     23  C   UNL     1     -19.085  20.921 -20.146  1.00  0.00     0.049 C 
BRANCH  23  24
ATOM     24  C   UNL     1     -18.008  21.398 -21.085  1.00  0.00    -0.040 A 
ATOM     25  C   UNL     1     -17.134  22.341 -20.592  1.00  0.00     0.007 A 
ATOM     26  C   UNL     1     -17.900  20.949 -22.374  1.00  0.00     0.007 A 
ATOM     27  C   UNL     1     -16.139  22.844 -21.392  1.00  0.00     0.039 A 
ATOM     28  C   UNL     1     -16.906  21.453 -23.169  1.00  0.00     0.039 A 
ATOM     29  C   UNL     1     -16.004  22.412 -22.692  1.00  0.00     0.123 A 
ATOM     30  F   UNL     1     -15.017  22.917 -23.475  1.00  0.00    -0.207 F 
ENDBRANCH  23  24
BRANCH  23  31
ATOM     31  C   UNL     1     -20.090  21.953 -19.951  1.00  0.00    -0.040 A 
ATOM     32  C   UNL     1     -20.629  22.761 -20.913  1.00  0.00     0.007 A 
ATOM     33  C   UNL     1     -20.521  22.129 -18.630  1.00  0.00     0.007 A 
ATOM     34  C   UNL     1     -21.578  23.720 -20.537  1.00  0.00     0.039 A 
ATOM     35  C   UNL     1     -21.441  23.053 -18.254  1.00  0.00     0.039 A 
ATOM     36  C   UNL     1     -21.975  23.861 -19.231  1.00  0.00     0.123 A 
ATOM     37  F   UNL     1     -22.895  24.783 -18.839  1.00  0.00    -0.207 F 
ENDBRANCH  23  31
ENDBRANCH  22  23
ENDBRANCH   1  22
TORSDOF 7
ENDMDL
MODEL 7
REMARK VINA RESULT:      -8.6      3.312      8.204
REMARK SMILES O=C1NCN(c2ccccc2)C12CC[NH+](CCCC(c1ccc(F)cc1)c1ccc(F)cc1)CC2
REMARK SMILES IDX 17 1 16 2 15 3 1 4 2 5 3 6 12 7 4 8 5 9 13 10 35 11 14 12
REMARK SMILES IDX 34 13 6 16 7 17 11 18 8 19 10 20 9 21 18 22 19 23 20 24
REMARK SMILES IDX 21 25 26 26 22 27 25 28 23 29 24 30 27 31 28 32 33 33 29 34
REMARK SMILES IDX 32 35 30 36 31 37
REMARK H PARENT 3 14 15 15
ROOT
ATOM      1  C   UNL     1     -16.624  17.941 -18.761  1.00  0.00     0.062 C 
ENDROOT
BRANCH   1   2
ATOM      2  C   UNL     1     -15.745  18.178 -17.568  1.00  0.00     0.262 C 
BRANCH   2   3
ATOM      3  N   UNL     1     -15.052  16.947 -17.202  1.00  0.00    -0.335 N 
ATOM      4  O   UNL     1     -13.064  15.481 -15.123  1.00  0.00    -0.272 OA
ATOM      5  C   UNL     1     -12.955  14.554 -15.953  1.00  0.00     0.247 C 
ATOM      6  N   UNL     1     -12.159  13.411 -15.764  1.00  0.00    -0.336 N 
ATOM      7  C   UNL     1     -13.650  14.492 -17.293  1.00  0.00     0.131 C 
ATOM      8  C   UNL     1     -12.655  12.425 -16.673  1.00  0.00     0.238 C 
ATOM      9  N   UNL     1     -13.168  13.211 -17.805  1.00  0.00    -0.339 N 
ATOM     10  C   UNL     1     -13.181  15.660 -18.137  1.00  0.00     0.100 C 
ATOM     11  C   UNL     1     -15.116  14.534 -17.046  1.00  0.00     0.100 C 
ATOM     12  C   UNL     1     -13.651  16.977 -17.564  1.00  0.00     0.265 C 
ATOM     13  C   UNL     1     -15.710  15.755 -17.669  1.00  0.00     0.265 C 
ATOM     14  H   UNL     1     -11.360  13.325 -15.079  1.00  0.00     0.165 HD
ATOM     15  H   UNL     1     -15.094  16.934 -16.160  1.00  0.00     0.348 HD
BRANCH   9  16
ATOM     16  C   UNL     1     -13.128  12.703 -19.128  1.00  0.00     0.039 A 
ATOM     17  C   UNL     1     -14.259  12.667 -19.909  1.00  0.00     0.026 A 
ATOM     18  C   UNL     1     -11.950  12.262 -19.646  1.00  0.00     0.026 A 
ATOM     19  C   UNL     1     -14.227  12.188 -21.222  1.00  0.00     0.002 A 
ATOM     20  C   UNL     1     -11.896  11.789 -20.928  1.00  0.00     0.002 A 
ATOM     21  C   UNL     1     -13.017  11.748 -21.716  1.00  0.00     0.000 A 
ENDBRANCH   9  16
ENDBRANCH   2   3
ENDBRANCH   1   2
BRANCH   1  22
ATOM     22  C   UNL     1     -16.561  18.930 -19.843  1.00  0.00     0.019 C 
BRANCH  22  23
ATOM     23  C   UNL     1     -15.339  19.216 -20.582  1.00  0.00     0.049 C 
BRANCH  23  24
ATOM     24  C   UNL     1     -14.570  18.012 -21.060  1.00  0.00    -0.040 A 
ATOM     25  C   UNL     1     -13.196  18.102 -21.023  1.00  0.00     0.007 A 
ATOM     26  C   UNL     1     -15.185  16.885 -21.536  1.00  0.00     0.007 A 
ATOM     27  C   UNL     1     -12.425  17.057 -21.464  1.00  0.00     0.039 A 
ATOM     28  C   UNL     1     -14.412  15.844 -21.974  1.00  0.00     0.039 A 
ATOM     29  C   UNL     1     -13.014  15.910 -21.946  1.00  0.00     0.123 A 
ATOM     30  F   UNL     1     -12.240  14.883 -22.380  1.00  0.00    -0.207 F 
ENDBRANCH  23  24
BRANCH  23  31
ATOM     31  C   UNL     1     -15.300  20.277 -21.575  1.00  0.00    -0.040 A 
ATOM     32  C   UNL     1     -14.314  21.209 -21.739  1.00  0.00     0.007 A 
ATOM     33  C   UNL     1     -16.408  20.338 -22.431  1.00  0.00     0.007 A 
ATOM     34  C   UNL     1     -14.455  22.175 -22.742  1.00  0.00     0.039 A 
ATOM     35  C   UNL     1     -16.555  21.269 -23.408  1.00  0.00     0.039 A 
ATOM     36  C   UNL     1     -15.556  22.202 -23.561  1.00  0.00     0.123 A 
ATOM     37  F   UNL     1     -15.716  23.128 -24.544  1.00  0.00    -0.207 F 
ENDBRANCH  23  31
ENDBRANCH  22  23
ENDBRANCH   1  22
TORSDOF 7
ENDMDL
MODEL 8
REMARK VINA RESULT:      -8.5      3.801      9.459
REMARK SMILES O=C1NCN(c2ccccc2)C12CC[NH+](CCCC(c1ccc(F)cc1)c1ccc(F)cc1)CC2
REMARK SMILES IDX 17 1 16 2 15 3 1 4 2 5 3 6 12 7 4 8 5 9 13 10 35 11 14 12
REMARK SMILES IDX 34 13 6 16 7 17 11 18 8 19 10 20 9 21 18 22 19 23 20 24
REMARK SMILES IDX 21 25 26 26 22 27 25 28 23 29 24 30 27 31 28 32 33 33 29 34
REMARK SMILES IDX 32 35 30 36 31 37
REMARK H PARENT 3 14 15 15
ROOT
ATOM      1  C   UNL     1     -18.708  18.239 -19.662  1.00  0.00     0.062 C 
ENDROOT
BRANCH   1   2
ATOM      2  C   UNL     1     -17.719  17.894 -18.588  1.00  0.00     0.262 C 
BRANCH   2   3
ATOM      3  N   UNL     1     -16.374  17.820 -19.147  1.00  0.00    -0.335 N 
ATOM      4  O   UNL     1     -14.014  19.361 -20.723  1.00  0.00    -0.272 OA
ATOM      5  C   UNL     1     -13.470  18.251 -20.898  1.00  0.00     0.247 C 
ATOM      6  N   UNL     1     -12.261  18.061 -21.591  1.00  0.00    -0.336 N 
ATOM      7  C   UNL     1     -14.003  16.925 -20.404  1.00  0.00     0.131 C 
ATOM      8  C   UNL     1     -11.760  16.788 -21.178  1.00  0.00     0.238 C 
ATOM      9  N   UNL     1     -12.971  16.008 -20.881  1.00  0.00    -0.339 N 
ATOM     10  C   UNL     1     -15.346  16.669 -21.058  1.00  0.00     0.100 C 
ATOM     11  C   UNL     1     -14.108  17.003 -18.923  1.00  0.00     0.100 C 
ATOM     12  C   UNL     1     -16.386  17.659 -20.586  1.00  0.00     0.265 C 
ATOM     13  C   UNL     1     -15.532  16.850 -18.498  1.00  0.00     0.265 C 
ATOM     14  H   UNL     1     -11.831  18.741 -22.275  1.00  0.00     0.165 HD
ATOM     15  H   UNL     1     -15.967  18.760 -18.953  1.00  0.00     0.348 HD
BRANCH   9  16
ATOM     16  C   UNL     1     -13.008  14.605 -21.085  1.00  0.00     0.039 A 
ATOM     17  C   UNL     1     -13.262  14.075 -22.328  1.00  0.00     0.026 A 
ATOM     18  C   UNL     1     -12.768  13.765 -20.042  1.00  0.00     0.026 A 
ATOM     19  C   UNL     1     -13.280  12.694 -22.545  1.00  0.00     0.002 A 
ATOM     20  C   UNL     1     -12.781  12.410 -20.232  1.00  0.00     0.002 A 
ATOM     21  C   UNL     1     -13.033  11.871 -21.467  1.00  0.00     0.000 A 
ENDBRANCH   9  16
ENDBRANCH   2   3
ENDBRANCH   1   2
BRANCH   1  22
ATOM     22  C   UNL     1     -19.493  19.465 -19.478  1.00  0.00     0.019 C 
BRANCH  22  23
ATOM     23  C   UNL     1     -19.556  20.520 -20.480  1.00  0.00     0.049 C 
BRANCH  23  24
ATOM     24  C   UNL     1     -20.349  21.741 -20.092  1.00  0.00    -0.040 A 
ATOM     25  C   UNL     1     -20.704  21.850 -18.766  1.00  0.00     0.007 A 
ATOM     26  C   UNL     1     -20.731  22.692 -20.999  1.00  0.00     0.007 A 
ATOM     27  C   UNL     1     -21.448  22.920 -18.337  1.00  0.00     0.039 A 
ATOM     28  C   UNL     1     -21.472  23.759 -20.568  1.00  0.00     0.039 A 
ATOM     29  C   UNL     1     -21.845  23.894 -19.225  1.00  0.00     0.123 A 
ATOM     30  F   UNL     1     -22.581  24.948 -18.790  1.00  0.00    -0.207 F 
ENDBRANCH  23  24
BRANCH  23  31
ATOM     31  C   UNL     1     -18.375  20.896 -21.240  1.00  0.00    -0.040 A 
ATOM     32  C   UNL     1     -18.097  20.565 -22.537  1.00  0.00     0.007 A 
ATOM     33  C   UNL     1     -17.433  21.664 -20.543  1.00  0.00     0.007 A 
ATOM     34  C   UNL     1     -16.894  21.002 -23.104  1.00  0.00     0.039 A 
ATOM     35  C   UNL     1     -16.264  22.094 -21.083  1.00  0.00     0.039 A 
ATOM     36  C   UNL     1     -15.996  21.752 -22.388  1.00  0.00     0.123 A 
ATOM     37  F   UNL     1     -14.821  22.190 -22.915  1.00  0.00    -0.207 F 
ENDBRANCH  23  31
ENDBRANCH  22  23
ENDBRANCH   1  22
TORSDOF 7
ENDMDL
MODEL 9
REMARK VINA RESULT:      -8.4      2.111      4.575
REMARK SMILES O=C1NCN(c2ccccc2)C12CC[NH+](CCCC(c1ccc(F)cc1)c1ccc(F)cc1)CC2
REMARK SMILES IDX 17 1 16 2 15 3 1 4 2 5 3 6 12 7 4 8 5 9 13 10 35 11 14 12
REMARK SMILES IDX 34 13 6 16 7 17 11 18 8 19 10 20 9 21 18 22 19 23 20 24
REMARK SMILES IDX 21 25 26 26 22 27 25 28 23 29 24 30 27 31 28 32 33 33 29 34
REMARK SMILES IDX 32 35 30 36 31 37
REMARK H PARENT 3 14 15 15
ROOT
ATOM      1  C   UNL     1     -12.575  16.931 -17.702  1.00  0.00     0.062 C 
ENDROOT
BRANCH   1   2
ATOM      2  C   UNL     1     -14.034  17.269 -17.794  1.00  0.00     0.262 C 
BRANCH   2   3
ATOM      3  N   UNL     1     -14.283  18.107 -18.961  1.00  0.00    -0.335 N 
ATOM      4  O   UNL     1     -13.135  20.372 -20.957  1.00  0.00    -0.272 OA
ATOM      5  C   UNL     1     -14.299  20.518 -21.385  1.00  0.00     0.247 C 
ATOM      6  N   UNL     1     -14.667  21.439 -22.382  1.00  0.00    -0.336 N 
ATOM      7  C   UNL     1     -15.509  19.745 -20.915  1.00  0.00     0.131 C 
ATOM      8  C   UNL     1     -15.920  20.987 -22.899  1.00  0.00     0.238 C 
ATOM      9  N   UNL     1     -16.558  20.320 -21.754  1.00  0.00    -0.339 N 
ATOM     10  C   UNL     1     -15.729  20.033 -19.444  1.00  0.00     0.100 C 
ATOM     11  C   UNL     1     -15.251  18.302 -21.170  1.00  0.00     0.100 C 
ATOM     12  C   UNL     1     -14.609  19.471 -18.600  1.00  0.00     0.265 C 
ATOM     13  C   UNL     1     -15.236  17.546 -19.882  1.00  0.00     0.265 C 
ATOM     14  H   UNL     1     -14.109  22.286 -22.672  1.00  0.00     0.165 HD
ATOM     15  H   UNL     1     -13.363  18.137 -19.452  1.00  0.00     0.348 HD
BRANCH   9  16
ATOM     16  C   UNL     1     -17.967  20.322 -21.596  1.00  0.00     0.039 A 
ATOM     17  C   UNL     1     -18.701  19.171 -21.756  1.00  0.00     0.026 A 
ATOM     18  C   UNL     1     -18.607  21.476 -21.260  1.00  0.00     0.026 A 
ATOM     19  C   UNL     1     -20.089  19.158 -21.583  1.00  0.00     0.002 A 
ATOM     20  C   UNL     1     -19.963  21.485 -21.086  1.00  0.00     0.002 A 
ATOM     21  C   UNL     1     -20.705  20.343 -21.243  1.00  0.00     0.000 A 
ENDBRANCH   9  16
ENDBRANCH   2   3
ENDBRANCH   1   2
BRANCH   1  22
ATOM     22  C   UNL     1     -12.140  15.673 -18.320  1.00  0.00     0.019 C 
BRANCH  22  23
ATOM     23  C   UNL     1     -13.073  14.639 -18.746  1.00  0.00     0.049 C 
BRANCH  23  24
ATOM     24  C   UNL     1     -13.094  14.348 -20.224  1.00  0.00    -0.040 A 
ATOM     25  C   UNL     1     -12.542  15.304 -21.048  1.00  0.00     0.007 A 
ATOM     26  C   UNL     1     -13.652  13.212 -20.745  1.00  0.00     0.007 A 
ATOM     27  C   UNL     1     -12.545  15.125 -22.408  1.00  0.00     0.039 A 
ATOM     28  C   UNL     1     -13.651  13.036 -22.102  1.00  0.00     0.039 A 
ATOM     29  C   UNL     1     -13.096  13.992 -22.962  1.00  0.00     0.123 A 
ATOM     30  F   UNL     1     -13.093  13.826 -24.309  1.00  0.00    -0.207 F 
ENDBRANCH  23  24
BRANCH  23  31
ATOM     31  C   UNL     1     -13.224  13.412 -17.980  1.00  0.00    -0.040 A 
ATOM     32  C   UNL     1     -14.394  12.869 -17.528  1.00  0.00     0.007 A 
ATOM     33  C   UNL     1     -12.031  12.746 -17.672  1.00  0.00     0.007 A 
ATOM     34  C   UNL     1     -14.347  11.684 -16.784  1.00  0.00     0.039 A 
ATOM     35  C   UNL     1     -11.973  11.596 -16.953  1.00  0.00     0.039 A 
ATOM     36  C   UNL     1     -13.157  11.061 -16.503  1.00  0.00     0.123 A 
ATOM     37  F   UNL     1     -13.084   9.909 -15.784  1.00  0.00    -0.207 F 
ENDBRANCH  23  31
ENDBRANCH  22  23
ENDBRANCH   1  22
TORSDOF 7
ENDMDL
