MODEL 1
REMARK VINA RESULT:      -6.4      0.000      0.000
REMARK SMILES Clc1ccccc1C(c1ccccc1)(c1ccccc1)n1ccnc1
REMARK SMILES IDX 1 1 2 2 3 3 4 4 5 5 6 6 7 7 8 8 9 9 10 10 14 11 11 12 13 13
REMARK SMILES IDX 12 14 15 15 16 16 20 17 17 18 19 19 18 20 21 21 22 22 25 23
REMARK SMILES IDX 23 24 24 25
REMARK H PARENT
ROOT
ATOM      1  Cl  UNL     1     -12.150  15.817 -16.973  1.00  0.00    -0.084 Cl
ATOM      2  C   UNL     1     -13.896  15.815 -16.863  1.00  0.00     0.047 A 
ATOM      3  C   UNL     1     -14.590  16.906 -16.391  1.00  0.00     0.021 A 
ATOM      4  C   UNL     1     -15.966  16.921 -16.333  1.00  0.00     0.002 A 
ATOM      5  C   UNL     1     -16.641  15.805 -16.763  1.00  0.00     0.001 A 
ATOM      6  C   UNL     1     -15.934  14.695 -17.243  1.00  0.00     0.008 A 
ATOM      7  C   UNL     1     -14.574  14.687 -17.296  1.00  0.00     0.006 A 
ENDROOT
BRANCH   7   8
ATOM      8  C   UNL     1     -13.844  13.487 -17.787  1.00  0.00     0.123 C 
BRANCH   8   9
ATOM      9  C   UNL     1     -12.973  13.914 -18.918  1.00  0.00    -0.013 A 
ATOM     10  C   UNL     1     -11.693  13.516 -19.128  1.00  0.00     0.007 A 
ATOM     11  C   UNL     1     -13.581  14.796 -19.831  1.00  0.00     0.007 A 
ATOM     12  C   UNL     1     -11.009  13.985 -20.235  1.00  0.00     0.000 A 
ATOM     13  C   UNL     1     -12.897  15.255 -20.926  1.00  0.00     0.000 A 
ATOM     14  C   UNL     1     -11.599  14.859 -21.148  1.00  0.00     0.000 A 
ENDBRANCH   8   9
BRANCH   8  15
ATOM     15  C   UNL     1     -14.774  12.503 -18.404  1.00  0.00    -0.013 A 
ATOM     16  C   UNL     1     -15.840  11.956 -17.740  1.00  0.00     0.007 A 
ATOM     17  C   UNL     1     -14.572  12.143 -19.712  1.00  0.00     0.007 A 
ATOM     18  C   UNL     1     -16.707  11.056 -18.349  1.00  0.00     0.000 A 
ATOM     19  C   UNL     1     -15.434  11.235 -20.349  1.00  0.00     0.000 A 
ATOM     20  C   UNL     1     -16.490  10.704 -19.660  1.00  0.00     0.000 A 
ENDBRANCH   8  15
BRANCH   8  21
ATOM     21  N   UNL     1     -13.133  12.867 -16.708  1.00  0.00    -0.319 N 
ATOM     22  C   UNL     1     -13.393  13.033 -15.381  1.00  0.00     0.109 A 
ATOM     23  C   UNL     1     -12.118  12.009 -16.799  1.00  0.00     0.200 A 
ATOM     24  C   UNL     1     -12.516  12.262 -14.652  1.00  0.00     0.131 A 
ATOM     25  N   UNL     1     -11.747  11.646 -15.543  1.00  0.00    -0.245 NA
ENDBRANCH   8  21
ENDBRANCH   7   8
TORSDOF 4
ENDMDL
MODEL 2
REMARK VINA RESULT:      -6.1      4.370      6.646
REMARK SMILES Clc1ccccc1C(c1ccccc1)(c1ccccc1)n1ccnc1
REMARK SMILES IDX 1 1 2 2 3 3 4 4 5 5 6 6 7 7 8 8 9 9 10 10 14 11 11 12 13 13
REMARK SMILES IDX 12 14 15 15 16 16 20 17 17 18 19 19 18 20 21 21 22 22 25 23
REMARK SMILES IDX 23 24 24 25
REMARK H PARENT
ROOT
ATOM      1  Cl  UNL     1     -15.401  20.221 -21.944  1.00  0.00    -0.084 Cl
ATOM      2  C   UNL     1     -14.696  20.385 -20.351  1.00  0.00     0.047 A 
ATOM      3  C   UNL     1     -14.065  21.543 -19.958  1.00  0.00     0.021 A 
ATOM      4  C   UNL     1     -13.537  21.688 -18.693  1.00  0.00     0.002 A 
ATOM      5  C   UNL     1     -13.656  20.634 -17.821  1.00  0.00     0.001 A 
ATOM      6  C   UNL     1     -14.298  19.455 -18.223  1.00  0.00     0.008 A 
ATOM      7  C   UNL     1     -14.816  19.320 -19.474  1.00  0.00     0.006 A 
ENDROOT
BRANCH   7   8
ATOM      8  C   UNL     1     -15.471  18.049 -19.886  1.00  0.00     0.123 C 
BRANCH   8   9
ATOM      9  C   UNL     1     -16.898  18.350 -20.194  1.00  0.00    -0.013 A 
ATOM     10  C   UNL     1     -17.682  17.669 -21.067  1.00  0.00     0.007 A 
ATOM     11  C   UNL     1     -17.438  19.438 -19.482  1.00  0.00     0.007 A 
ATOM     12  C   UNL     1     -18.999  18.055 -21.239  1.00  0.00     0.000 A 
ATOM     13  C   UNL     1     -18.745  19.813 -19.658  1.00  0.00     0.000 A 
ATOM     14  C   UNL     1     -19.548  19.130 -20.540  1.00  0.00     0.000 A 
ENDBRANCH   8   9
BRANCH   8  15
ATOM     15  C   UNL     1     -15.546  17.087 -18.754  1.00  0.00    -0.013 A 
ATOM     16  C   UNL     1     -14.595  16.131 -18.513  1.00  0.00     0.007 A 
ATOM     17  C   UNL     1     -16.607  17.176 -17.889  1.00  0.00     0.007 A 
ATOM     18  C   UNL     1     -14.679  15.260 -17.433  1.00  0.00     0.000 A 
ATOM     19  C   UNL     1     -16.714  16.306 -16.790  1.00  0.00     0.000 A 
ATOM     20  C   UNL     1     -15.749  15.361 -16.577  1.00  0.00     0.000 A 
ENDBRANCH   8  15
BRANCH   8  21
ATOM     21  N   UNL     1     -14.754  17.455 -20.976  1.00  0.00    -0.319 N 
ATOM     22  C   UNL     1     -13.428  17.615 -21.240  1.00  0.00     0.109 A 
ATOM     23  C   UNL     1     -15.237  16.632 -21.905  1.00  0.00     0.200 A 
ATOM     24  C   UNL     1     -13.100  16.875 -22.354  1.00  0.00     0.131 A 
ATOM     25  N   UNL     1     -14.224  16.283 -22.741  1.00  0.00    -0.245 NA
ENDBRANCH   8  21
ENDBRANCH   7   8
TORSDOF 4
ENDMDL
MODEL 3
REMARK VINA RESULT:      -5.9      2.005      4.858
REMARK SMILES Clc1ccccc1C(c1ccccc1)(c1ccccc1)n1ccnc1
REMARK SMILES IDX 1 1 2 2 3 3 4 4 5 5 6 6 7 7 8 8 9 9 10 10 14 11 11 12 13 13
REMARK SMILES IDX 12 14 15 15 16 16 20 17 17 18 19 19 18 20 21 21 22 22 25 23
REMARK SMILES IDX 23 24 24 25
REMARK H PARENT
ROOT
ATOM      1  Cl  UNL     1     -11.802  11.793 -17.664  1.00  0.00    -0.084 Cl
ATOM      2  C   UNL     1     -13.533  11.628 -17.480  1.00  0.00     0.047 A 
ATOM      3  C   UNL     1     -14.137  10.393 -17.422  1.00  0.00     0.021 A 
ATOM      4  C   UNL     1     -15.497  10.258 -17.244  1.00  0.00     0.002 A 
ATOM      5  C   UNL     1     -16.248  11.401 -17.125  1.00  0.00     0.001 A 
ATOM      6  C   UNL     1     -15.632  12.658 -17.184  1.00  0.00     0.008 A 
ATOM      7  C   UNL     1     -14.289  12.783 -17.361  1.00  0.00     0.006 A 
ENDROOT
BRANCH   7   8
ATOM      8  C   UNL     1     -13.660  14.130 -17.446  1.00  0.00     0.123 C 
BRANCH   8   9
ATOM      9  C   UNL     1     -12.781  14.299 -16.254  1.00  0.00    -0.013 A 
ATOM     10  C   UNL     1     -12.728  13.468 -15.183  1.00  0.00     0.007 A 
ATOM     11  C   UNL     1     -11.939  15.426 -16.297  1.00  0.00     0.007 A 
ATOM     12  C   UNL     1     -11.847  13.744 -14.152  1.00  0.00     0.000 A 
ATOM     13  C   UNL     1     -11.069  15.692 -15.272  1.00  0.00     0.000 A 
ATOM     14  C   UNL     1     -11.008  14.858 -14.182  1.00  0.00     0.000 A 
ENDBRANCH   8   9
BRANCH   8  15
ATOM     15  C   UNL     1     -14.673  15.209 -17.298  1.00  0.00    -0.013 A 
ATOM     16  C   UNL     1     -15.395  15.413 -16.152  1.00  0.00     0.007 A 
ATOM     17  C   UNL     1     -14.879  16.062 -18.353  1.00  0.00     0.007 A 
ATOM     18  C   UNL     1     -16.319  16.444 -16.035  1.00  0.00     0.000 A 
ATOM     19  C   UNL     1     -15.808  17.112 -18.258  1.00  0.00     0.000 A 
ATOM     20  C   UNL     1     -16.515  17.289 -17.101  1.00  0.00     0.000 A 
ENDBRANCH   8  15
BRANCH   8  21
ATOM     21  N   UNL     1     -12.977  14.277 -18.697  1.00  0.00    -0.319 N 
ATOM     22  C   UNL     1     -11.718  14.768 -18.866  1.00  0.00     0.109 A 
ATOM     23  C   UNL     1     -13.430  13.947 -19.906  1.00  0.00     0.200 A 
ATOM     24  C   UNL     1     -11.401  14.736 -20.206  1.00  0.00     0.131 A 
ATOM     25  N   UNL     1     -12.464  14.230 -20.820  1.00  0.00    -0.245 NA
ENDBRANCH   8  21
ENDBRANCH   7   8
TORSDOF 4
ENDMDL
MODEL 4
REMARK VINA RESULT:      -5.9      4.295      5.990
REMARK SMILES Clc1ccccc1C(c1ccccc1)(c1ccccc1)n1ccnc1
REMARK SMILES IDX 1 1 2 2 3 3 4 4 5 5 6 6 7 7 8 8 9 9 10 10 14 11 11 12 13 13
REMARK SMILES IDX 12 14 15 15 16 16 20 17 17 18 19 19 18 20 21 21 22 22 25 23
REMARK SMILES IDX 23 24 24 25
REMARK H PARENT
ROOT
ATOM      1  Cl  UNL     1     -15.883  20.343 -18.528  1.00  0.00    -0.084 Cl
ATOM      2  C   UNL     1     -16.756  19.236 -19.562  1.00  0.00     0.047 A 
ATOM      3  C   UNL     1     -18.128  19.269 -19.659  1.00  0.00     0.021 A 
ATOM      4  C   UNL     1     -18.818  18.420 -20.497  1.00  0.00     0.002 A 
ATOM      5  C   UNL     1     -18.093  17.525 -21.245  1.00  0.00     0.001 A 
ATOM      6  C   UNL     1     -16.696  17.492 -21.146  1.00  0.00     0.008 A 
ATOM      7  C   UNL     1     -16.022  18.333 -20.315  1.00  0.00     0.006 A 
ENDROOT
BRANCH   7   8
ATOM      8  C   UNL     1     -14.540  18.262 -20.208  1.00  0.00     0.123 C 
BRANCH   8   9
ATOM      9  C   UNL     1     -13.983  19.546 -20.720  1.00  0.00    -0.013 A 
ATOM     10  C   UNL     1     -12.903  20.198 -20.222  1.00  0.00     0.007 A 
ATOM     11  C   UNL     1     -14.665  20.084 -21.829  1.00  0.00     0.007 A 
ATOM     12  C   UNL     1     -12.490  21.378 -20.813  1.00  0.00     0.000 A 
ATOM     13  C   UNL     1     -14.248  21.254 -22.409  1.00  0.00     0.000 A 
ATOM     14  C   UNL     1     -13.155  21.922 -21.912  1.00  0.00     0.000 A 
ENDBRANCH   8   9
BRANCH   8  15
ATOM     15  C   UNL     1     -13.980  17.237 -21.130  1.00  0.00    -0.013 A 
ATOM     16  C   UNL     1     -13.162  17.541 -22.186  1.00  0.00     0.007 A 
ATOM     17  C   UNL     1     -14.276  15.918 -20.899  1.00  0.00     0.007 A 
ATOM     18  C   UNL     1     -12.634  16.560 -23.017  1.00  0.00     0.000 A 
ATOM     19  C   UNL     1     -13.755  14.909 -21.726  1.00  0.00     0.000 A 
ATOM     20  C   UNL     1     -12.941  15.243 -22.773  1.00  0.00     0.000 A 
ENDBRANCH   8  15
BRANCH   8  21
ATOM     21  N   UNL     1     -14.157  17.959 -18.861  1.00  0.00    -0.319 N 
ATOM     22  C   UNL     1     -14.902  17.267 -17.955  1.00  0.00     0.109 A 
ATOM     23  C   UNL     1     -13.010  18.272 -18.259  1.00  0.00     0.200 A 
ATOM     24  C   UNL     1     -14.194  17.160 -16.779  1.00  0.00     0.131 A 
ATOM     25  N   UNL     1     -13.041  17.783 -16.991  1.00  0.00    -0.245 NA
ENDBRANCH   8  21
ENDBRANCH   7   8
TORSDOF 4
ENDMDL
MODEL 5
REMARK VINA RESULT:      -5.9      4.611      7.591
REMARK SMILES Clc1ccccc1C(c1ccccc1)(c1ccccc1)n1ccnc1
REMARK SMILES IDX 1 1 2 2 3 3 4 4 5 5 6 6 7 7 8 8 9 9 10 10 14 11 11 12 13 13
REMARK SMILES IDX 12 14 15 15 16 16 20 17 17 18 19 19 18 20 21 21 22 22 25 23
REMARK SMILES IDX 23 24 24 25
REMARK H PARENT
ROOT
ATOM      1  Cl  UNL     1     -14.743  16.289 -18.773  1.00  0.00    -0.084 Cl
ATOM      2  C   UNL     1     -13.888  16.494 -20.285  1.00  0.00     0.047 A 
ATOM      3  C   UNL     1     -13.276  15.436 -20.917  1.00  0.00     0.021 A 
ATOM      4  C   UNL     1     -12.629  15.587 -22.124  1.00  0.00     0.002 A 
ATOM      5  C   UNL     1     -12.608  16.837 -22.692  1.00  0.00     0.001 A 
ATOM      6  C   UNL     1     -13.231  17.914 -22.048  1.00  0.00     0.008 A 
ATOM      7  C   UNL     1     -13.867  17.757 -20.855  1.00  0.00     0.006 A 
ENDROOT
BRANCH   7   8
ATOM      8  C   UNL     1     -14.500  18.921 -20.178  1.00  0.00     0.123 C 
BRANCH   8   9
ATOM      9  C   UNL     1     -15.968  18.668 -20.113  1.00  0.00    -0.013 A 
ATOM     10  C   UNL     1     -16.812  19.138 -19.161  1.00  0.00     0.007 A 
ATOM     11  C   UNL     1     -16.477  17.879 -21.161  1.00  0.00     0.007 A 
ATOM     12  C   UNL     1     -18.160  18.833 -19.239  1.00  0.00     0.000 A 
ATOM     13  C   UNL     1     -17.814  17.582 -21.231  1.00  0.00     0.000 A 
ATOM     14  C   UNL     1     -18.678  18.053 -20.272  1.00  0.00     0.000 A 
ENDBRANCH   8   9
BRANCH   8  15
ATOM     15  C   UNL     1     -14.387  20.153 -21.003  1.00  0.00    -0.013 A 
ATOM     16  C   UNL     1     -15.234  20.447 -22.039  1.00  0.00     0.007 A 
ATOM     17  C   UNL     1     -13.401  21.057 -20.698  1.00  0.00     0.007 A 
ATOM     18  C   UNL     1     -15.118  21.618 -22.779  1.00  0.00     0.000 A 
ATOM     19  C   UNL     1     -13.264  22.247 -21.432  1.00  0.00     0.000 A 
ATOM     20  C   UNL     1     -14.124  22.512 -22.461  1.00  0.00     0.000 A 
ENDBRANCH   8  15
BRANCH   8  21
ATOM     21  N   UNL     1     -13.891  19.139 -18.899  1.00  0.00    -0.319 N 
ATOM     22  C   UNL     1     -14.524  19.583 -17.779  1.00  0.00     0.109 A 
ATOM     23  C   UNL     1     -12.617  18.931 -18.567  1.00  0.00     0.200 A 
ATOM     24  C   UNL     1     -13.616  19.647 -16.745  1.00  0.00     0.131 A 
ATOM     25  N   UNL     1     -12.458  19.243 -17.254  1.00  0.00    -0.245 NA
ENDBRANCH   8  21
ENDBRANCH   7   8
TORSDOF 4
ENDMDL
MODEL 6
REMARK VINA RESULT:      -5.8      6.485      8.339
REMARK SMILES Clc1ccccc1C(c1ccccc1)(c1ccccc1)n1ccnc1
REMARK SMILES IDX 1 1 2 2 3 3 4 4 5 5 6 6 7 7 8 8 9 9 10 10 14 11 11 12 13 13
REMARK SMILES IDX 12 14 15 15 16 16 20 17 17 18 19 19 18 20 21 21 22 22 25 23
REMARK SMILES IDX 23 24 24 25
REMARK H PARENT
ROOT
ATOM      1  Cl  UNL     1     -12.973  21.748 -20.092  1.00  0.00    -0.084 Cl
ATOM      2  C   UNL     1     -14.285  21.560 -18.950  1.00  0.00     0.047 A 
ATOM      3  C   UNL     1     -14.146  21.910 -17.627  1.00  0.00     0.021 A 
ATOM      4  C   UNL     1     -15.187  21.794 -16.732  1.00  0.00     0.002 A 
ATOM      5  C   UNL     1     -16.386  21.313 -17.198  1.00  0.00     0.001 A 
ATOM      6  C   UNL     1     -16.527  20.957 -18.545  1.00  0.00     0.008 A 
ATOM      7  C   UNL     1     -15.494  21.073 -19.423  1.00  0.00     0.006 A 
ENDROOT
BRANCH   7   8
ATOM      8  C   UNL     1     -15.660  20.665 -20.844  1.00  0.00     0.123 C 
BRANCH   8   9
ATOM      9  C   UNL     1     -15.609  21.897 -21.682  1.00  0.00    -0.013 A 
ATOM     10  C   UNL     1     -15.588  23.171 -21.218  1.00  0.00     0.007 A 
ATOM     11  C   UNL     1     -15.565  21.665 -23.070  1.00  0.00     0.007 A 
ATOM     12  C   UNL     1     -15.523  24.220 -22.118  1.00  0.00     0.000 A 
ATOM     13  C   UNL     1     -15.500  22.710 -23.954  1.00  0.00     0.000 A 
ATOM     14  C   UNL     1     -15.478  24.005 -23.495  1.00  0.00     0.000 A 
ENDBRANCH   8   9
BRANCH   8  15
ATOM     15  C   UNL     1     -17.022  20.120 -21.094  1.00  0.00    -0.013 A 
ATOM     16  C   UNL     1     -17.279  18.785 -21.263  1.00  0.00     0.007 A 
ATOM     17  C   UNL     1     -18.079  20.993 -21.133  1.00  0.00     0.007 A 
ATOM     18  C   UNL     1     -18.566  18.302 -21.472  1.00  0.00     0.000 A 
ATOM     19  C   UNL     1     -19.388  20.528 -21.343  1.00  0.00     0.000 A 
ATOM     20  C   UNL     1     -19.614  19.189 -21.509  1.00  0.00     0.000 A 
ENDBRANCH   8  15
BRANCH   8  21
ATOM     21  N   UNL     1     -14.677  19.683 -21.193  1.00  0.00    -0.319 N 
ATOM     22  C   UNL     1     -14.405  18.543 -20.499  1.00  0.00     0.109 A 
ATOM     23  C   UNL     1     -13.873  19.690 -22.256  1.00  0.00     0.200 A 
ATOM     24  C   UNL     1     -13.415  17.845 -21.153  1.00  0.00     0.131 A 
ATOM     25  N   UNL     1     -13.107  18.567 -22.224  1.00  0.00    -0.245 NA
ENDBRANCH   8  21
ENDBRANCH   7   8
TORSDOF 4
ENDMDL
MODEL 7
REMARK VINA RESULT:      -5.8      6.170      8.731
REMARK SMILES Clc1ccccc1C(c1ccccc1)(c1ccccc1)n1ccnc1
REMARK SMILES IDX 1 1 2 2 3 3 4 4 5 5 6 6 7 7 8 8 9 9 10 10 14 11 11 12 13 13
REMARK SMILES IDX 12 14 15 15 16 16 20 17 17 18 19 19 18 20 21 21 22 22 25 23
REMARK SMILES IDX 23 24 24 25
REMARK H PARENT
ROOT
ATOM      1  Cl  UNL     1     -16.684  17.723 -19.308  1.00  0.00    -0.084 Cl
ATOM      2  C   UNL     1     -17.750  18.537 -20.431  1.00  0.00     0.047 A 
ATOM      3  C   UNL     1     -19.047  18.122 -20.624  1.00  0.00     0.021 A 
ATOM      4  C   UNL     1     -19.899  18.780 -21.484  1.00  0.00     0.002 A 
ATOM      5  C   UNL     1     -19.417  19.877 -22.155  1.00  0.00     0.001 A 
ATOM      6  C   UNL     1     -18.095  20.299 -21.957  1.00  0.00     0.008 A 
ATOM      7  C   UNL     1     -17.260  19.643 -21.107  1.00  0.00     0.006 A 
ENDROOT
BRANCH   7   8
ATOM      8  C   UNL     1     -15.852  20.094 -20.933  1.00  0.00     0.123 C 
BRANCH   8   9
ATOM      9  C   UNL     1     -15.668  20.471 -19.503  1.00  0.00    -0.013 A 
ATOM     10  C   UNL     1     -14.575  20.201 -18.746  1.00  0.00     0.007 A 
ATOM     11  C   UNL     1     -16.744  21.179 -18.936  1.00  0.00     0.007 A 
ATOM     12  C   UNL     1     -14.537  20.629 -17.431  1.00  0.00     0.000 A 
ATOM     13  C   UNL     1     -16.698  21.600 -17.632  1.00  0.00     0.000 A 
ATOM     14  C   UNL     1     -15.596  21.332 -16.856  1.00  0.00     0.000 A 
ENDBRANCH   8   9
BRANCH   8  15
ATOM     15  C   UNL     1     -15.596  21.360 -21.671  1.00  0.00    -0.013 A 
ATOM     16  C   UNL     1     -15.189  22.518 -21.063  1.00  0.00     0.007 A 
ATOM     17  C   UNL     1     -15.750  21.366 -23.035  1.00  0.00     0.007 A 
ATOM     18  C   UNL     1     -14.934  23.680 -21.781  1.00  0.00     0.000 A 
ATOM     19  C   UNL     1     -15.499  22.529 -23.782  1.00  0.00     0.000 A 
ATOM     20  C   UNL     1     -15.094  23.670 -23.146  1.00  0.00     0.000 A 
ENDBRANCH   8  15
BRANCH   8  21
ATOM     21  N   UNL     1     -14.949  19.080 -21.388  1.00  0.00    -0.319 N 
ATOM     22  C   UNL     1     -13.589  19.160 -21.382  1.00  0.00     0.109 A 
ATOM     23  C   UNL     1     -15.263  17.879 -21.874  1.00  0.00     0.200 A 
ATOM     24  C   UNL     1     -13.068  17.985 -21.876  1.00  0.00     0.131 A 
ATOM     25  N   UNL     1     -14.112  17.219 -22.168  1.00  0.00    -0.245 NA
ENDBRANCH   8  21
ENDBRANCH   7   8
TORSDOF 4
ENDMDL
MODEL 8
REMARK VINA RESULT:      -5.8      6.376      8.771
REMARK SMILES Clc1ccccc1C(c1ccccc1)(c1ccccc1)n1ccnc1
REMARK SMILES IDX 1 1 2 2 3 3 4 4 5 5 6 6 7 7 8 8 9 9 10 10 14 11 11 12 13 13
REMARK SMILES IDX 12 14 15 15 16 16 20 17 17 18 19 19 18 20 21 21 22 22 25 23
REMARK SMILES IDX 23 24 24 25
REMARK H PARENT
ROOT
ATOM      1  Cl  UNL     1     -17.343  22.938 -20.161  1.00  0.00    -0.084 Cl
ATOM      2  C   UNL     1     -16.195  22.075 -19.163  1.00  0.00     0.047 A 
ATOM      3  C   UNL     1     -15.874  22.505 -17.896  1.00  0.00     0.021 A 
ATOM      4  C   UNL     1     -14.995  21.810 -17.095  1.00  0.00     0.002 A 
ATOM      5  C   UNL     1     -14.437  20.660 -17.597  1.00  0.00     0.001 A 
ATOM      6  C   UNL     1     -14.764  20.223 -18.887  1.00  0.00     0.008 A 
ATOM      7  C   UNL     1     -15.632  20.915 -19.673  1.00  0.00     0.006 A 
ENDROOT
BRANCH   7   8
ATOM      8  C   UNL     1     -15.945  20.445 -21.049  1.00  0.00     0.123 C 
BRANCH   8   9
ATOM      9  C   UNL     1     -17.390  20.081 -21.090  1.00  0.00    -0.013 A 
ATOM     10  C   UNL     1     -18.202  20.174 -22.172  1.00  0.00     0.007 A 
ATOM     11  C   UNL     1     -17.908  19.589 -19.877  1.00  0.00     0.007 A 
ATOM     12  C   UNL     1     -19.525  19.783 -22.065  1.00  0.00     0.000 A 
ATOM     13  C   UNL     1     -19.220  19.203 -19.780  1.00  0.00     0.000 A 
ATOM     14  C   UNL     1     -20.051  19.293 -20.870  1.00  0.00     0.000 A 
ENDBRANCH   8   9
BRANCH   8  15
ATOM     15  C   UNL     1     -15.247  19.168 -21.356  1.00  0.00    -0.013 A 
ATOM     16  C   UNL     1     -15.873  17.949 -21.360  1.00  0.00     0.007 A 
ATOM     17  C   UNL     1     -13.913  19.211 -21.674  1.00  0.00     0.007 A 
ATOM     18  C   UNL     1     -15.200  16.774 -21.673  1.00  0.00     0.000 A 
ATOM     19  C   UNL     1     -13.212  18.036 -21.993  1.00  0.00     0.000 A 
ATOM     20  C   UNL     1     -13.864  16.834 -21.989  1.00  0.00     0.000 A 
ENDBRANCH   8  15
BRANCH   8  21
ATOM     21  N   UNL     1     -15.570  21.441 -22.009  1.00  0.00    -0.319 N 
ATOM     22  C   UNL     1     -16.144  21.630 -23.229  1.00  0.00     0.109 A 
ATOM     23  C   UNL     1     -14.621  22.367 -21.880  1.00  0.00     0.200 A 
ATOM     24  C   UNL     1     -15.529  22.692 -23.854  1.00  0.00     0.131 A 
ATOM     25  N   UNL     1     -14.602  23.125 -23.008  1.00  0.00    -0.245 NA
ENDBRANCH   8  21
ENDBRANCH   7   8
TORSDOF 4
ENDMDL
MODEL 9
REMARK VINA RESULT:      -5.8      6.447      9.279
REMARK SMILES Clc1ccccc1C(c1ccccc1)(c1ccccc1)n1ccnc1
REMARK SMILES IDX 1 1 2 2 3 3 4 4 5 5 6 6 7 7 8 8 9 9 10 10 14 11 11 12 13 13
REMARK SMILES IDX 12 14 15 15 16 16 20 17 17 18 19 19 18 20 21 21 22 22 25 23
REMARK SMILES IDX 23 24 24 25
REMARK H PARENT
ROOT
ATOM      1  Cl  UNL     1     -17.306  20.542 -23.223  1.00  0.00    -0.084 Cl
ATOM      2  C   UNL     1     -16.201  21.783 -22.675  1.00  0.00     0.047 A 
ATOM      3  C   UNL     1     -15.769  22.785 -23.513  1.00  0.00     0.021 A 
ATOM      4  C   UNL     1     -14.925  23.783 -23.076  1.00  0.00     0.002 A 
ATOM      5  C   UNL     1     -14.518  23.753 -21.765  1.00  0.00     0.001 A 
ATOM      6  C   UNL     1     -14.958  22.732 -20.912  1.00  0.00     0.008 A 
ATOM      7  C   UNL     1     -15.791  21.750 -21.352  1.00  0.00     0.006 A 
ENDROOT
BRANCH   7   8
ATOM      8  C   UNL     1     -16.225  20.661 -20.435  1.00  0.00     0.123 C 
BRANCH   8   9
ATOM      9  C   UNL     1     -17.693  20.803 -20.221  1.00  0.00    -0.013 A 
ATOM     10  C   UNL     1     -18.450  21.864 -20.596  1.00  0.00     0.007 A 
ATOM     11  C   UNL     1     -18.305  19.708 -19.583  1.00  0.00     0.007 A 
ATOM     12  C   UNL     1     -19.811  21.850 -20.345  1.00  0.00     0.000 A 
ATOM     13  C   UNL     1     -19.654  19.701 -19.339  1.00  0.00     0.000 A 
ATOM     14  C   UNL     1     -20.431  20.771 -19.715  1.00  0.00     0.000 A 
ENDBRANCH   8   9
BRANCH   8  15
ATOM     15  C   UNL     1     -15.648  20.838 -19.075  1.00  0.00    -0.013 A 
ATOM     16  C   UNL     1     -16.200  21.654 -18.123  1.00  0.00     0.007 A 
ATOM     17  C   UNL     1     -14.519  20.131 -18.746  1.00  0.00     0.007 A 
ATOM     18  C   UNL     1     -15.652  21.782 -16.852  1.00  0.00     0.000 A 
ATOM     19  C   UNL     1     -13.947  20.245 -17.468  1.00  0.00     0.000 A 
ATOM     20  C   UNL     1     -14.520  21.068 -16.539  1.00  0.00     0.000 A 
ENDBRANCH   8  15
BRANCH   8  21
ATOM     21  N   UNL     1     -15.835  19.387 -20.962  1.00  0.00    -0.319 N 
ATOM     22  C   UNL     1     -16.583  18.249 -20.934  1.00  0.00     0.109 A 
ATOM     23  C   UNL     1     -14.697  19.087 -21.587  1.00  0.00     0.200 A 
ATOM     24  C   UNL     1     -15.883  17.238 -21.553  1.00  0.00     0.131 A 
ATOM     25  N   UNL     1     -14.734  17.776 -21.944  1.00  0.00    -0.245 NA
ENDBRANCH   8  21
ENDBRANCH   7   8
TORSDOF 4
ENDMDL
