MODEL 1
REMARK VINA RESULT:      -5.4      0.000      0.000
REMARK SMILES CC/C(=C(\c1ccccc1)c1ccc(OCC[NH+](C)C)cc1)c1ccccc1
REMARK SMILES IDX 15 1 14 2 11 3 12 4 22 5 13 6 21 7 4 8 3 9 2 10 1 11 23 12
REMARK SMILES IDX 24 13 28 14 25 15 27 16 26 17 5 18 6 19 10 20 7 21 9 22 8 23
REMARK SMILES IDX 16 24 17 25 18 26 19 27 20 28
REMARK H PARENT 18 29
ROOT
ATOM      1  O   UNL     1      -6.729  -1.346 -10.716  1.00  0.00    -0.488 OA
ENDROOT
BRANCH   1   2
ATOM      2  C   UNL     1      -6.589  -1.342 -12.091  1.00  0.00     0.119 A 
ATOM      3  C   UNL     1      -6.188  -1.296 -14.919  1.00  0.00    -0.017 A 
ATOM      4  C   UNL     1      -7.361  -1.761 -14.358  1.00  0.00     0.012 A 
ATOM      5  C   UNL     1      -5.220  -0.853 -14.023  1.00  0.00     0.012 A 
ATOM      6  C   UNL     1      -7.540  -1.777 -12.984  1.00  0.00     0.047 A 
ATOM      7  C   UNL     1      -5.400  -0.870 -12.666  1.00  0.00     0.047 A 
BRANCH   3   8
ATOM      8  C   UNL     1      -5.981  -1.245 -16.355  1.00  0.00    -0.007 C 
ATOM      9  C   UNL     1      -5.740  -2.312 -17.073  1.00  0.00    -0.033 C 
BRANCH   9  10
ATOM     10  C   UNL     1      -5.474  -2.312 -18.538  1.00  0.00     0.033 C 
ATOM     11  C   UNL     1      -4.246  -3.129 -18.809  1.00  0.00     0.009 C 
ENDBRANCH   9  10
BRANCH   9  12
ATOM     12  C   UNL     1      -5.781  -3.657 -16.471  1.00  0.00    -0.022 A 
ATOM     13  C   UNL     1      -6.851  -4.497 -16.641  1.00  0.00     0.008 A 
ATOM     14  C   UNL     1      -4.720  -4.057 -15.717  1.00  0.00     0.008 A 
ATOM     15  C   UNL     1      -6.843  -5.736 -16.051  1.00  0.00     0.001 A 
ATOM     16  C   UNL     1      -4.671  -5.309 -15.098  1.00  0.00     0.001 A 
ATOM     17  C   UNL     1      -5.758  -6.131 -15.287  1.00  0.00     0.000 A 
ENDBRANCH   9  12
BRANCH   8  18
ATOM     18  C   UNL     1      -6.010   0.053 -16.999  1.00  0.00    -0.018 A 
ATOM     19  C   UNL     1      -7.124   0.867 -16.967  1.00  0.00     0.009 A 
ATOM     20  C   UNL     1      -4.899   0.485 -17.717  1.00  0.00     0.009 A 
ATOM     21  C   UNL     1      -7.101   2.063 -17.637  1.00  0.00     0.001 A 
ATOM     22  C   UNL     1      -4.858   1.682 -18.394  1.00  0.00     0.001 A 
ATOM     23  C   UNL     1      -5.994   2.486 -18.347  1.00  0.00     0.000 A 
ENDBRANCH   8  18
ENDBRANCH   3   8
ENDBRANCH   1   2
BRANCH   1  24
ATOM     24  C   UNL     1      -6.624  -2.411  -9.838  1.00  0.00     0.290 C 
BRANCH  24  25
ATOM     25  C   UNL     1      -6.869  -2.089  -8.387  1.00  0.00     0.303 C 
BRANCH  25  26
ATOM     26  N   UNL     1      -5.688  -2.193  -7.585  1.00  0.00    -0.337 N 
ATOM     27  C   UNL     1      -4.741  -3.170  -8.079  1.00  0.00     0.332 C 
ATOM     28  C   UNL     1      -5.971  -2.534  -6.206  1.00  0.00     0.332 C 
ATOM     29  H   UNL     1      -5.163  -1.269  -7.546  1.00  0.00     0.347 HD
ENDBRANCH  25  26
ENDBRANCH  24  25
ENDBRANCH   1  24
TORSDOF 8
ENDMDL
MODEL 2
REMARK VINA RESULT:      -5.4      1.485      1.932
REMARK SMILES CC/C(=C(\c1ccccc1)c1ccc(OCC[NH+](C)C)cc1)c1ccccc1
REMARK SMILES IDX 15 1 14 2 11 3 12 4 22 5 13 6 21 7 4 8 3 9 2 10 1 11 23 12
REMARK SMILES IDX 24 13 28 14 25 15 27 16 26 17 5 18 6 19 10 20 7 21 9 22 8 23
REMARK SMILES IDX 16 24 17 25 18 26 19 27 20 28
REMARK H PARENT 18 29
ROOT
ATOM      1  O   UNL     1      -7.172  -1.122 -11.586  1.00  0.00    -0.488 OA
ENDROOT
BRANCH   1   2
ATOM      2  C   UNL     1      -6.818  -1.214 -12.920  1.00  0.00     0.119 A 
ATOM      3  C   UNL     1      -6.195  -1.434 -15.699  1.00  0.00    -0.017 A 
ATOM      4  C   UNL     1      -5.269  -0.982 -14.779  1.00  0.00     0.012 A 
ATOM      5  C   UNL     1      -7.443  -1.775 -15.187  1.00  0.00     0.012 A 
ATOM      6  C   UNL     1      -5.586  -0.880 -13.434  1.00  0.00     0.047 A 
ATOM      7  C   UNL     1      -7.754  -1.673 -13.857  1.00  0.00     0.047 A 
BRANCH   3   8
ATOM      8  C   UNL     1      -5.883  -1.573 -17.110  1.00  0.00    -0.007 C 
ATOM      9  C   UNL     1      -5.551  -2.717 -17.651  1.00  0.00    -0.033 C 
BRANCH   9  10
ATOM     10  C   UNL     1      -5.177  -2.908 -19.079  1.00  0.00     0.033 C 
ATOM     11  C   UNL     1      -3.847  -3.601 -19.144  1.00  0.00     0.009 C 
ENDBRANCH   9  10
BRANCH   9  12
ATOM     12  C   UNL     1      -5.588  -3.966 -16.868  1.00  0.00    -0.022 A 
ATOM     13  C   UNL     1      -6.630  -4.852 -16.963  1.00  0.00     0.008 A 
ATOM     14  C   UNL     1      -4.554  -4.227 -16.022  1.00  0.00     0.008 A 
ATOM     15  C   UNL     1      -6.622  -5.996 -16.205  1.00  0.00     0.001 A 
ATOM     16  C   UNL     1      -4.504  -5.378 -15.232  1.00  0.00     0.001 A 
ATOM     17  C   UNL     1      -5.563  -6.249 -15.349  1.00  0.00     0.000 A 
ENDBRANCH   9  12
BRANCH   8  18
ATOM     18  C   UNL     1      -5.910  -0.380 -17.932  1.00  0.00    -0.018 A 
ATOM     19  C   UNL     1      -6.990  -0.058 -18.730  1.00  0.00     0.009 A 
ATOM     20  C   UNL     1      -4.797   0.454 -17.964  1.00  0.00     0.009 A 
ATOM     21  C   UNL     1      -6.931   1.061 -19.520  1.00  0.00     0.001 A 
ATOM     22  C   UNL     1      -4.722   1.581 -18.749  1.00  0.00     0.001 A 
ATOM     23  C   UNL     1      -5.823   1.885 -19.544  1.00  0.00     0.000 A 
ENDBRANCH   8  18
ENDBRANCH   3   8
ENDBRANCH   1   2
BRANCH   1  24
ATOM     24  C   UNL     1      -6.557  -1.693 -10.486  1.00  0.00     0.290 C 
BRANCH  24  25
ATOM     25  C   UNL     1      -6.946  -3.116 -10.183  1.00  0.00     0.303 C 
BRANCH  25  26
ATOM     26  N   UNL     1      -5.969  -4.067 -10.619  1.00  0.00    -0.337 N 
ATOM     27  C   UNL     1      -4.640  -3.510 -10.743  1.00  0.00     0.332 C 
ATOM     28  C   UNL     1      -6.299  -4.668 -11.895  1.00  0.00     0.332 C 
ATOM     29  H   UNL     1      -5.886  -4.878  -9.937  1.00  0.00     0.347 HD
ENDBRANCH  25  26
ENDBRANCH  24  25
ENDBRANCH   1  24
TORSDOF 8
ENDMDL
MODEL 3
REMARK VINA RESULT:      -5.4      1.040      1.646
REMARK SMILES CC/C(=C(\c1ccccc1)c1ccc(OCC[NH+](C)C)cc1)c1ccccc1
REMARK SMILES IDX 15 1 14 2 11 3 12 4 22 5 13 6 21 7 4 8 3 9 2 10 1 11 23 12
REMARK SMILES IDX 24 13 28 14 25 15 27 16 26 17 5 18 6 19 10 20 7 21 9 22 8 23
REMARK SMILES IDX 16 24 17 25 18 26 19 27 20 28
REMARK H PARENT 18 29
ROOT
ATOM      1  O   UNL     1      -7.435  -0.837 -11.582  1.00  0.00    -0.488 OA
ENDROOT
BRANCH   1   2
ATOM      2  C   UNL     1      -7.007  -0.969 -12.890  1.00  0.00     0.119 A 
ATOM      3  C   UNL     1      -6.232  -1.273 -15.622  1.00  0.00    -0.017 A 
ATOM      4  C   UNL     1      -5.355  -0.802 -14.665  1.00  0.00     0.012 A 
ATOM      5  C   UNL     1      -7.509  -1.590 -15.172  1.00  0.00     0.012 A 
ATOM      6  C   UNL     1      -5.746  -0.660 -13.343  1.00  0.00     0.047 A 
ATOM      7  C   UNL     1      -7.894  -1.448 -13.865  1.00  0.00     0.047 A 
BRANCH   3   8
ATOM      8  C   UNL     1      -5.842  -1.455 -17.009  1.00  0.00    -0.007 C 
ATOM      9  C   UNL     1      -5.515  -2.621 -17.504  1.00  0.00    -0.033 C 
BRANCH   9  10
ATOM     10  C   UNL     1      -5.064  -2.856 -18.903  1.00  0.00     0.033 C 
ATOM     11  C   UNL     1      -3.731  -3.544 -18.874  1.00  0.00     0.009 C 
ENDBRANCH   9  10
BRANCH   9  12
ATOM     12  C   UNL     1      -5.638  -3.849 -16.699  1.00  0.00    -0.022 A 
ATOM     13  C   UNL     1      -6.678  -4.727 -16.865  1.00  0.00     0.008 A 
ATOM     14  C   UNL     1      -4.686  -4.099 -15.758  1.00  0.00     0.008 A 
ATOM     15  C   UNL     1      -6.751  -5.851 -16.082  1.00  0.00     0.001 A 
ATOM     16  C   UNL     1      -4.721  -5.231 -14.938  1.00  0.00     0.001 A 
ATOM     17  C   UNL     1      -5.776  -6.094 -15.128  1.00  0.00     0.000 A 
ENDBRANCH   9  12
BRANCH   8  18
ATOM     18  C   UNL     1      -5.783  -0.281 -17.857  1.00  0.00    -0.018 A 
ATOM     19  C   UNL     1      -4.662   0.521 -17.929  1.00  0.00     0.009 A 
ATOM     20  C   UNL     1      -6.905   0.090 -18.591  1.00  0.00     0.009 A 
ATOM     21  C   UNL     1      -4.689   1.644 -18.714  1.00  0.00     0.001 A 
ATOM     22  C   UNL     1      -6.949   1.213 -19.385  1.00  0.00     0.001 A 
ATOM     23  C   UNL     1      -5.806   2.005 -19.442  1.00  0.00     0.000 A 
ENDBRANCH   8  18
ENDBRANCH   3   8
ENDBRANCH   1   2
BRANCH   1  24
ATOM     24  C   UNL     1      -8.277  -1.664 -10.859  1.00  0.00     0.290 C 
BRANCH  24  25
ATOM     25  C   UNL     1      -7.605  -2.566  -9.856  1.00  0.00     0.303 C 
BRANCH  25  26
ATOM     26  N   UNL     1      -6.295  -2.118  -9.492  1.00  0.00    -0.337 N 
ATOM     27  C   UNL     1      -5.239  -2.993  -9.951  1.00  0.00     0.332 C 
ATOM     28  C   UNL     1      -6.130  -1.965  -8.061  1.00  0.00     0.332 C 
ATOM     29  H   UNL     1      -6.085  -1.160  -9.905  1.00  0.00     0.347 HD
ENDBRANCH  25  26
ENDBRANCH  24  25
ENDBRANCH   1  24
TORSDOF 8
ENDMDL
MODEL 4
REMARK VINA RESULT:      -5.4      3.230      6.840
REMARK SMILES CC/C(=C(\c1ccccc1)c1ccc(OCC[NH+](C)C)cc1)c1ccccc1
REMARK SMILES IDX 15 1 14 2 11 3 12 4 22 5 13 6 21 7 4 8 3 9 2 10 1 11 23 12
REMARK SMILES IDX 24 13 28 14 25 15 27 16 26 17 5 18 6 19 10 20 7 21 9 22 8 23
REMARK SMILES IDX 16 24 17 25 18 26 19 27 20 28
REMARK H PARENT 18 29
ROOT
ATOM      1  O   UNL     1      -7.678   1.655 -16.255  1.00  0.00    -0.488 OA
ENDROOT
BRANCH   1   2
ATOM      2  C   UNL     1      -7.145   0.431 -15.893  1.00  0.00     0.119 A 
ATOM      3  C   UNL     1      -6.152  -2.139 -15.143  1.00  0.00    -0.017 A 
ATOM      4  C   UNL     1      -5.304  -1.095 -15.457  1.00  0.00     0.012 A 
ATOM      5  C   UNL     1      -7.513  -1.860 -15.214  1.00  0.00     0.012 A 
ATOM      6  C   UNL     1      -5.802   0.147 -15.819  1.00  0.00     0.047 A 
ATOM      7  C   UNL     1      -8.002  -0.632 -15.573  1.00  0.00     0.047 A 
BRANCH   3   8
ATOM      8  C   UNL     1      -5.659  -3.444 -14.737  1.00  0.00    -0.007 C 
ATOM      9  C   UNL     1      -5.417  -4.405 -15.590  1.00  0.00    -0.033 C 
BRANCH   9  10
ATOM     10  C   UNL     1      -4.958  -5.773 -15.225  1.00  0.00     0.033 C 
ATOM     11  C   UNL     1      -3.711  -6.089 -15.998  1.00  0.00     0.009 C 
ENDBRANCH   9  10
BRANCH   9  12
ATOM     12  C   UNL     1      -5.522  -4.175 -17.042  1.00  0.00    -0.022 A 
ATOM     13  C   UNL     1      -4.518  -3.576 -17.758  1.00  0.00     0.008 A 
ATOM     14  C   UNL     1      -6.663  -4.566 -17.675  1.00  0.00     0.008 A 
ATOM     15  C   UNL     1      -4.669  -3.376 -19.107  1.00  0.00     0.001 A 
ATOM     16  C   UNL     1      -6.860  -4.381 -19.047  1.00  0.00     0.001 A 
ATOM     17  C   UNL     1      -5.834  -3.778 -19.739  1.00  0.00     0.000 A 
ENDBRANCH   9  12
BRANCH   8  18
ATOM     18  C   UNL     1      -5.469  -3.686 -13.321  1.00  0.00    -0.018 A 
ATOM     19  C   UNL     1      -6.415  -4.332 -12.550  1.00  0.00     0.009 A 
ATOM     20  C   UNL     1      -4.320  -3.213 -12.694  1.00  0.00     0.009 A 
ATOM     21  C   UNL     1      -6.194  -4.486 -11.205  1.00  0.00     0.001 A 
ATOM     22  C   UNL     1      -4.082  -3.360 -11.347  1.00  0.00     0.001 A 
ATOM     23  C   UNL     1      -5.050  -4.016 -10.591  1.00  0.00     0.000 A 
ENDBRANCH   8  18
ENDBRANCH   3   8
ENDBRANCH   1   2
BRANCH   1  24
ATOM     24  C   UNL     1      -7.280   2.507 -17.270  1.00  0.00     0.290 C 
BRANCH  24  25
ATOM     25  C   UNL     1      -7.699   2.109 -18.661  1.00  0.00     0.303 C 
BRANCH  25  26
ATOM     26  N   UNL     1      -6.606   1.650 -19.463  1.00  0.00    -0.337 N 
ATOM     27  C   UNL     1      -6.473   0.209 -19.484  1.00  0.00     0.332 C 
ATOM     28  C   UNL     1      -5.331   2.190 -19.038  1.00  0.00     0.332 C 
ATOM     29  H   UNL     1      -6.717   1.950 -20.477  1.00  0.00     0.347 HD
ENDBRANCH  25  26
ENDBRANCH  24  25
ENDBRANCH   1  24
TORSDOF 8
ENDMDL
MODEL 5
REMARK VINA RESULT:      -5.3      2.808      7.218
REMARK SMILES CC/C(=C(\c1ccccc1)c1ccc(OCC[NH+](C)C)cc1)c1ccccc1
REMARK SMILES IDX 15 1 14 2 11 3 12 4 22 5 13 6 21 7 4 8 3 9 2 10 1 11 23 12
REMARK SMILES IDX 24 13 28 14 25 15 27 16 26 17 5 18 6 19 10 20 7 21 9 22 8 23
REMARK SMILES IDX 16 24 17 25 18 26 19 27 20 28
REMARK H PARENT 18 29
ROOT
ATOM      1  O   UNL     1      -6.971   1.099 -15.712  1.00  0.00    -0.488 OA
ENDROOT
BRANCH   1   2
ATOM      2  C   UNL     1      -6.981   0.104 -14.751  1.00  0.00     0.119 A 
ATOM      3  C   UNL     1      -6.889  -1.931 -12.749  1.00  0.00    -0.017 A 
ATOM      4  C   UNL     1      -8.071  -1.570 -13.366  1.00  0.00     0.012 A 
ATOM      5  C   UNL     1      -5.753  -1.244 -13.165  1.00  0.00     0.012 A 
ATOM      6  C   UNL     1      -8.100  -0.580 -14.336  1.00  0.00     0.047 A 
ATOM      7  C   UNL     1      -5.783  -0.267 -14.123  1.00  0.00     0.047 A 
BRANCH   3   8
ATOM      8  C   UNL     1      -6.825  -2.980 -11.747  1.00  0.00    -0.007 C 
ATOM      9  C   UNL     1      -6.611  -4.234 -12.051  1.00  0.00    -0.033 C 
BRANCH   9  10
ATOM     10  C   UNL     1      -6.583  -5.355 -11.071  1.00  0.00     0.033 C 
ATOM     11  C   UNL     1      -7.915  -6.045 -11.084  1.00  0.00     0.009 C 
ENDBRANCH   9  10
BRANCH   9  12
ATOM     12  C   UNL     1      -6.303  -4.639 -13.434  1.00  0.00    -0.022 A 
ATOM     13  C   UNL     1      -5.027  -4.605 -13.935  1.00  0.00     0.008 A 
ATOM     14  C   UNL     1      -7.331  -5.046 -14.230  1.00  0.00     0.008 A 
ATOM     15  C   UNL     1      -4.795  -4.983 -15.233  1.00  0.00     0.001 A 
ATOM     16  C   UNL     1      -7.140  -5.439 -15.558  1.00  0.00     0.001 A 
ATOM     17  C   UNL     1      -5.849  -5.395 -16.032  1.00  0.00     0.000 A 
ENDBRANCH   9  12
BRANCH   8  18
ATOM     18  C   UNL     1      -7.047  -2.611 -10.364  1.00  0.00    -0.018 A 
ATOM     19  C   UNL     1      -6.009  -2.306  -9.506  1.00  0.00     0.009 A 
ATOM     20  C   UNL     1      -8.343  -2.607  -9.855  1.00  0.00     0.009 A 
ATOM     21  C   UNL     1      -6.284  -2.012  -8.196  1.00  0.00     0.001 A 
ATOM     22  C   UNL     1      -8.637  -2.312  -8.545  1.00  0.00     0.001 A 
ATOM     23  C   UNL     1      -7.573  -2.008  -7.700  1.00  0.00     0.000 A 
ENDBRANCH   8  18
ENDBRANCH   3   8
ENDBRANCH   1   2
BRANCH   1  24
ATOM     24  C   UNL     1      -7.820   1.268 -16.792  1.00  0.00     0.290 C 
BRANCH  24  25
ATOM     25  C   UNL     1      -7.174   1.192 -18.150  1.00  0.00     0.303 C 
BRANCH  25  26
ATOM     26  N   UNL     1      -5.770   0.919 -18.086  1.00  0.00    -0.337 N 
ATOM     27  C   UNL     1      -4.983   1.735 -18.985  1.00  0.00     0.332 C 
ATOM     28  C   UNL     1      -5.452  -0.464 -18.378  1.00  0.00     0.332 C 
ATOM     29  H   UNL     1      -5.385   1.098 -17.111  1.00  0.00     0.347 HD
ENDBRANCH  25  26
ENDBRANCH  24  25
ENDBRANCH   1  24
TORSDOF 8
ENDMDL
MODEL 6
REMARK VINA RESULT:      -5.2      2.735      7.457
REMARK SMILES CC/C(=C(\c1ccccc1)c1ccc(OCC[NH+](C)C)cc1)c1ccccc1
REMARK SMILES IDX 15 1 14 2 11 3 12 4 22 5 13 6 21 7 4 8 3 9 2 10 1 11 23 12
REMARK SMILES IDX 24 13 28 14 25 15 27 16 26 17 5 18 6 19 10 20 7 21 9 22 8 23
REMARK SMILES IDX 16 24 17 25 18 26 19 27 20 28
REMARK H PARENT 18 29
ROOT
ATOM      1  O   UNL     1      -9.025   1.137 -14.162  1.00  0.00    -0.488 OA
ENDROOT
BRANCH   1   2
ATOM      2  C   UNL     1      -8.554   0.259 -13.202  1.00  0.00     0.119 A 
ATOM      3  C   UNL     1      -7.482  -1.491 -11.216  1.00  0.00    -0.017 A 
ATOM      4  C   UNL     1      -8.771  -1.631 -11.690  1.00  0.00     0.012 A 
ATOM      5  C   UNL     1      -6.742  -0.449 -11.766  1.00  0.00     0.012 A 
ATOM      6  C   UNL     1      -9.277  -0.774 -12.654  1.00  0.00     0.047 A 
ATOM      7  C   UNL     1      -7.244   0.398 -12.719  1.00  0.00     0.047 A 
BRANCH   3   8
ATOM      8  C   UNL     1      -6.917  -2.388 -10.224  1.00  0.00    -0.007 C 
ATOM      9  C   UNL     1      -6.247  -3.465 -10.545  1.00  0.00    -0.033 C 
BRANCH   9  10
ATOM     10  C   UNL     1      -5.688  -4.443  -9.572  1.00  0.00     0.033 C 
ATOM     11  C   UNL     1      -4.366  -3.935  -9.077  1.00  0.00     0.009 C 
ENDBRANCH   9  10
BRANCH   9  12
ATOM     12  C   UNL     1      -5.924  -3.766 -11.951  1.00  0.00    -0.022 A 
ATOM     13  C   UNL     1      -6.667  -4.647 -12.695  1.00  0.00     0.008 A 
ATOM     14  C   UNL     1      -4.846  -3.151 -12.511  1.00  0.00     0.008 A 
ATOM     15  C   UNL     1      -6.318  -4.900 -13.997  1.00  0.00     0.001 A 
ATOM     16  C   UNL     1      -4.455  -3.380 -13.833  1.00  0.00     0.001 A 
ATOM     17  C   UNL     1      -5.219  -4.268 -14.555  1.00  0.00     0.000 A 
ENDBRANCH   9  12
BRANCH   8  18
ATOM     18  C   UNL     1      -7.147  -2.085  -8.826  1.00  0.00    -0.018 A 
ATOM     19  C   UNL     1      -6.169  -1.539  -8.019  1.00  0.00     0.009 A 
ATOM     20  C   UNL     1      -8.376  -2.394  -8.251  1.00  0.00     0.009 A 
ATOM     21  C   UNL     1      -6.437  -1.321  -6.692  1.00  0.00     0.001 A 
ATOM     22  C   UNL     1      -8.663  -2.181  -6.923  1.00  0.00     0.001 A 
ATOM     23  C   UNL     1      -7.660  -1.629  -6.130  1.00  0.00     0.000 A 
ENDBRANCH   8  18
ENDBRANCH   3   8
ENDBRANCH   1   2
BRANCH   1  24
ATOM     24  C   UNL     1      -9.466   0.862 -15.444  1.00  0.00     0.290 C 
BRANCH  24  25
ATOM     25  C   UNL     1      -8.523   0.061 -16.304  1.00  0.00     0.303 C 
BRANCH  25  26
ATOM     26  N   UNL     1      -7.212   0.631 -16.374  1.00  0.00    -0.337 N 
ATOM     27  C   UNL     1      -6.928   1.267 -17.642  1.00  0.00     0.332 C 
ATOM     28  C   UNL     1      -6.163  -0.340 -16.140  1.00  0.00     0.332 C 
ATOM     29  H   UNL     1      -7.075   1.380 -15.632  1.00  0.00     0.347 HD
ENDBRANCH  25  26
ENDBRANCH  24  25
ENDBRANCH   1  24
TORSDOF 8
ENDMDL
MODEL 7
REMARK VINA RESULT:      -5.1      3.039      7.192
REMARK SMILES CC/C(=C(\c1ccccc1)c1ccc(OCC[NH+](C)C)cc1)c1ccccc1
REMARK SMILES IDX 15 1 14 2 11 3 12 4 22 5 13 6 21 7 4 8 3 9 2 10 1 11 23 12
REMARK SMILES IDX 24 13 28 14 25 15 27 16 26 17 5 18 6 19 10 20 7 21 9 22 8 23
REMARK SMILES IDX 16 24 17 25 18 26 19 27 20 28
REMARK H PARENT 18 29
ROOT
ATOM      1  O   UNL     1      -5.261  -0.163 -16.086  1.00  0.00    -0.488 OA
ENDROOT
BRANCH   1   2
ATOM      2  C   UNL     1      -5.615  -0.996 -15.040  1.00  0.00     0.119 A 
ATOM      3  C   UNL     1      -6.259  -2.791 -12.914  1.00  0.00    -0.017 A 
ATOM      4  C   UNL     1      -6.897  -1.574 -13.057  1.00  0.00     0.012 A 
ATOM      5  C   UNL     1      -5.289  -3.085 -13.867  1.00  0.00     0.012 A 
ATOM      6  C   UNL     1      -6.572  -0.714 -14.095  1.00  0.00     0.047 A 
ATOM      7  C   UNL     1      -4.971  -2.233 -14.891  1.00  0.00     0.047 A 
BRANCH   3   8
ATOM      8  C   UNL     1      -6.594  -3.722 -11.851  1.00  0.00    -0.007 C 
ATOM      9  C   UNL     1      -7.298  -4.806 -12.057  1.00  0.00    -0.033 C 
BRANCH   9  10
ATOM     10  C   UNL     1      -7.710  -5.768 -10.999  1.00  0.00     0.033 C 
ATOM     11  C   UNL     1      -9.169  -5.573 -10.706  1.00  0.00     0.009 C 
ENDBRANCH   9  10
BRANCH   9  12
ATOM     12  C   UNL     1      -7.696  -5.205 -13.419  1.00  0.00    -0.022 A 
ATOM     13  C   UNL     1      -7.040  -6.192 -14.108  1.00  0.00     0.008 A 
ATOM     14  C   UNL     1      -8.743  -4.555 -14.001  1.00  0.00     0.008 A 
ATOM     15  C   UNL     1      -7.444  -6.519 -15.378  1.00  0.00     0.001 A 
ATOM     16  C   UNL     1      -9.187  -4.856 -15.292  1.00  0.00     0.001 A 
ATOM     17  C   UNL     1      -8.510  -5.851 -15.958  1.00  0.00     0.000 A 
ENDBRANCH   9  12
BRANCH   8  18
ATOM     18  C   UNL     1      -6.155  -3.405 -10.508  1.00  0.00    -0.018 A 
ATOM     19  C   UNL     1      -6.862  -2.553  -9.682  1.00  0.00     0.009 A 
ATOM     20  C   UNL     1      -4.956  -3.932 -10.036  1.00  0.00     0.009 A 
ATOM     21  C   UNL     1      -6.366  -2.257  -8.439  1.00  0.00     0.001 A 
ATOM     22  C   UNL     1      -4.445  -3.647  -8.792  1.00  0.00     0.001 A 
ATOM     23  C   UNL     1      -5.176  -2.786  -7.979  1.00  0.00     0.000 A 
ENDBRANCH   8  18
ENDBRANCH   3   8
ENDBRANCH   1   2
BRANCH   1  24
ATOM     24  C   UNL     1      -5.642  -0.232 -17.414  1.00  0.00     0.290 C 
BRANCH  24  25
ATOM     25  C   UNL     1      -7.107  -0.009 -17.688  1.00  0.00     0.303 C 
BRANCH  25  26
ATOM     26  N   UNL     1      -7.781  -1.197 -18.116  1.00  0.00    -0.337 N 
ATOM     27  C   UNL     1      -8.792  -1.652 -17.186  1.00  0.00     0.332 C 
ATOM     28  C   UNL     1      -6.878  -2.307 -18.341  1.00  0.00     0.332 C 
ATOM     29  H   UNL     1      -8.280  -1.046 -19.043  1.00  0.00     0.347 HD
ENDBRANCH  25  26
ENDBRANCH  24  25
ENDBRANCH   1  24
TORSDOF 8
ENDMDL
MODEL 8
REMARK VINA RESULT:      -5.1      3.004      7.274
REMARK SMILES CC/C(=C(\c1ccccc1)c1ccc(OCC[NH+](C)C)cc1)c1ccccc1
REMARK SMILES IDX 15 1 14 2 11 3 12 4 22 5 13 6 21 7 4 8 3 9 2 10 1 11 23 12
REMARK SMILES IDX 24 13 28 14 25 15 27 16 26 17 5 18 6 19 10 20 7 21 9 22 8 23
REMARK SMILES IDX 16 24 17 25 18 26 19 27 20 28
REMARK H PARENT 18 29
ROOT
ATOM      1  O   UNL     1      -5.637   0.189 -16.148  1.00  0.00    -0.488 OA
ENDROOT
BRANCH   1   2
ATOM      2  C   UNL     1      -5.858  -0.717 -15.127  1.00  0.00     0.119 A 
ATOM      3  C   UNL     1      -6.216  -2.643 -13.048  1.00  0.00    -0.017 A 
ATOM      4  C   UNL     1      -7.063  -1.561 -13.191  1.00  0.00     0.012 A 
ATOM      5  C   UNL     1      -5.185  -2.735 -13.978  1.00  0.00     0.012 A 
ATOM      6  C   UNL     1      -6.875  -0.634 -14.205  1.00  0.00     0.047 A 
ATOM      7  C   UNL     1      -5.002  -1.818 -14.978  1.00  0.00     0.047 A 
BRANCH   3   8
ATOM      8  C   UNL     1      -6.402  -3.642 -12.011  1.00  0.00    -0.007 C 
ATOM      9  C   UNL     1      -6.987  -4.791 -12.233  1.00  0.00    -0.033 C 
BRANCH   9  10
ATOM     10  C   UNL     1      -7.245  -5.830 -11.198  1.00  0.00     0.033 C 
ATOM     11  C   UNL     1      -8.711  -5.842 -10.878  1.00  0.00     0.009 C 
ENDBRANCH   9  10
BRANCH   9  12
ATOM     12  C   UNL     1      -7.390  -5.187 -13.594  1.00  0.00    -0.022 A 
ATOM     13  C   UNL     1      -8.541  -4.720 -14.176  1.00  0.00     0.008 A 
ATOM     14  C   UNL     1      -6.590  -6.051 -14.277  1.00  0.00     0.008 A 
ATOM     15  C   UNL     1      -8.877  -5.127 -15.442  1.00  0.00     0.001 A 
ATOM     16  C   UNL     1      -6.894  -6.492 -15.568  1.00  0.00     0.001 A 
ATOM     17  C   UNL     1      -8.054  -6.007 -16.126  1.00  0.00     0.000 A 
ENDBRANCH   9  12
BRANCH   8  18
ATOM     18  C   UNL     1      -5.949  -3.322 -10.672  1.00  0.00    -0.018 A 
ATOM     19  C   UNL     1      -4.747  -3.781 -10.171  1.00  0.00     0.009 A 
ATOM     20  C   UNL     1      -6.765  -2.567  -9.835  1.00  0.00     0.009 A 
ATOM     21  C   UNL     1      -4.400  -3.481  -8.879  1.00  0.00     0.001 A 
ATOM     22  C   UNL     1      -6.432  -2.255  -8.537  1.00  0.00     0.001 A 
ATOM     23  C   UNL     1      -5.216  -2.729  -8.055  1.00  0.00     0.000 A 
ENDBRANCH   8  18
ENDBRANCH   3   8
ENDBRANCH   1   2
BRANCH   1  24
ATOM     24  C   UNL     1      -5.663  -0.025 -17.515  1.00  0.00     0.290 C 
BRANCH  24  25
ATOM     25  C   UNL     1      -6.960  -0.554 -18.071  1.00  0.00     0.303 C 
BRANCH  25  26
ATOM     26  N   UNL     1      -6.830  -1.860 -18.642  1.00  0.00    -0.337 N 
ATOM     27  C   UNL     1      -5.478  -2.373 -18.605  1.00  0.00     0.332 C 
ATOM     28  C   UNL     1      -7.270  -1.917 -20.021  1.00  0.00     0.332 C 
ATOM     29  H   UNL     1      -7.429  -2.570 -18.124  1.00  0.00     0.347 HD
ENDBRANCH  25  26
ENDBRANCH  24  25
ENDBRANCH   1  24
TORSDOF 8
ENDMDL
MODEL 9
REMARK VINA RESULT:      -5.1      1.174      1.988
REMARK SMILES CC/C(=C(\c1ccccc1)c1ccc(OCC[NH+](C)C)cc1)c1ccccc1
REMARK SMILES IDX 15 1 14 2 11 3 12 4 22 5 13 6 21 7 4 8 3 9 2 10 1 11 23 12
REMARK SMILES IDX 24 13 28 14 25 15 27 16 26 17 5 18 6 19 10 20 7 21 9 22 8 23
REMARK SMILES IDX 16 24 17 25 18 26 19 27 20 28
REMARK H PARENT 18 29
ROOT
ATOM      1  O   UNL     1      -7.143  -2.573 -11.473  1.00  0.00    -0.488 OA
ENDROOT
BRANCH   1   2
ATOM      2  C   UNL     1      -6.756  -2.445 -12.794  1.00  0.00     0.119 A 
ATOM      3  C   UNL     1      -6.071  -2.184 -15.555  1.00  0.00    -0.017 A 
ATOM      4  C   UNL     1      -5.114  -2.137 -14.560  1.00  0.00     0.012 A 
ATOM      5  C   UNL     1      -7.382  -2.367 -15.128  1.00  0.00     0.012 A 
ATOM      6  C   UNL     1      -5.462  -2.266 -13.225  1.00  0.00     0.047 A 
ATOM      7  C   UNL     1      -7.724  -2.493 -13.808  1.00  0.00     0.047 A 
BRANCH   3   8
ATOM      8  C   UNL     1      -5.732  -2.076 -16.963  1.00  0.00    -0.007 C 
ATOM      9  C   UNL     1      -5.239  -3.075 -17.649  1.00  0.00    -0.033 C 
BRANCH   9  10
ATOM     10  C   UNL     1      -4.831  -3.006 -19.079  1.00  0.00     0.033 C 
ATOM     11  C   UNL     1      -5.917  -3.607 -19.923  1.00  0.00     0.009 C 
ENDBRANCH   9  10
BRANCH   9  12
ATOM     12  C   UNL     1      -5.106  -4.415 -17.051  1.00  0.00    -0.022 A 
ATOM     13  C   UNL     1      -3.888  -4.935 -16.694  1.00  0.00     0.008 A 
ATOM     14  C   UNL     1      -6.237  -5.151 -16.862  1.00  0.00     0.008 A 
ATOM     15  C   UNL     1      -3.818  -6.192 -16.150  1.00  0.00     0.001 A 
ATOM     16  C   UNL     1      -6.211  -6.436 -16.312  1.00  0.00     0.001 A 
ATOM     17  C   UNL     1      -4.975  -6.930 -15.963  1.00  0.00     0.000 A 
ENDBRANCH   9  12
BRANCH   8  18
ATOM     18  C   UNL     1      -5.920  -0.793 -17.609  1.00  0.00    -0.018 A 
ATOM     19  C   UNL     1      -4.959   0.196 -17.578  1.00  0.00     0.009 A 
ATOM     20  C   UNL     1      -7.126  -0.518 -18.247  1.00  0.00     0.009 A 
ATOM     21  C   UNL     1      -5.219   1.406 -18.169  1.00  0.00     0.001 A 
ATOM     22  C   UNL     1      -7.404   0.688 -18.846  1.00  0.00     0.001 A 
ATOM     23  C   UNL     1      -6.419   1.670 -18.801  1.00  0.00     0.000 A 
ENDBRANCH   8  18
ENDBRANCH   3   8
ENDBRANCH   1   2
BRANCH   1  24
ATOM     24  C   UNL     1      -6.396  -3.005 -10.390  1.00  0.00     0.290 C 
BRANCH  24  25
ATOM     25  C   UNL     1      -6.392  -2.093  -9.192  1.00  0.00     0.303 C 
BRANCH  25  26
ATOM     26  N   UNL     1      -5.773  -2.682  -8.044  1.00  0.00    -0.337 N 
ATOM     27  C   UNL     1      -5.466  -1.727  -7.001  1.00  0.00     0.332 C 
ATOM     28  C   UNL     1      -4.542  -3.376  -8.362  1.00  0.00     0.332 C 
ATOM     29  H   UNL     1      -6.403  -3.414  -7.597  1.00  0.00     0.347 HD
ENDBRANCH  25  26
ENDBRANCH  24  25
ENDBRANCH   1  24
TORSDOF 8
ENDMDL
