MODEL 1
REMARK VINA RESULT:      -5.7      0.000      0.000
REMARK SMILES CC/C(=C(\c1ccccc1)c1ccc(OCC[NH+](C)C)cc1)c1ccccc1
REMARK SMILES IDX 15 1 14 2 11 3 12 4 22 5 13 6 21 7 4 8 3 9 2 10 1 11 23 12
REMARK SMILES IDX 24 13 28 14 25 15 27 16 26 17 5 18 6 19 10 20 7 21 9 22 8 23
REMARK SMILES IDX 16 24 17 25 18 26 19 27 20 28
REMARK H PARENT 18 29
ROOT
ATOM      1  O   UNL     1       7.559   6.523  13.470  1.00  0.00    -0.488 OA
ENDROOT
BRANCH   1   2
ATOM      2  C   UNL     1       6.847   6.319  14.637  1.00  0.00     0.119 A 
ATOM      3  C   UNL     1       5.280   5.877  16.984  1.00  0.00    -0.017 A 
ATOM      4  C   UNL     1       6.643   6.094  17.049  1.00  0.00     0.012 A 
ATOM      5  C   UNL     1       4.723   5.890  15.709  1.00  0.00     0.012 A 
ATOM      6  C   UNL     1       7.389   6.307  15.901  1.00  0.00     0.047 A 
ATOM      7  C   UNL     1       5.463   6.100  14.576  1.00  0.00     0.047 A 
BRANCH   3   8
ATOM      8  C   UNL     1       4.469   5.676  18.172  1.00  0.00    -0.007 C 
ATOM      9  C   UNL     1       3.888   6.661  18.806  1.00  0.00    -0.033 C 
BRANCH   9  10
ATOM     10  C   UNL     1       3.086   6.517  20.052  1.00  0.00     0.033 C 
ATOM     11  C   UNL     1       1.628   6.570  19.700  1.00  0.00     0.009 C 
ENDBRANCH   9  10
BRANCH   9  12
ATOM     12  C   UNL     1       3.931   8.036  18.276  1.00  0.00    -0.022 A 
ATOM     13  C   UNL     1       3.018   8.491  17.359  1.00  0.00     0.008 A 
ATOM     14  C   UNL     1       4.921   8.863  18.712  1.00  0.00     0.008 A 
ATOM     15  C   UNL     1       3.109   9.777  16.890  1.00  0.00     0.001 A 
ATOM     16  C   UNL     1       5.051  10.180  18.260  1.00  0.00     0.001 A 
ATOM     17  C   UNL     1       4.120  10.608  17.341  1.00  0.00     0.000 A 
ENDBRANCH   9  12
BRANCH   8  18
ATOM     18  C   UNL     1       4.338   4.326  18.682  1.00  0.00    -0.018 A 
ATOM     19  C   UNL     1       5.313   3.734  19.460  1.00  0.00     0.009 A 
ATOM     20  C   UNL     1       3.218   3.572  18.345  1.00  0.00     0.009 A 
ATOM     21  C   UNL     1       5.148   2.436  19.871  1.00  0.00     0.001 A 
ATOM     22  C   UNL     1       3.035   2.270  18.749  1.00  0.00     0.001 A 
ATOM     23  C   UNL     1       4.032   1.696  19.533  1.00  0.00     0.000 A 
ENDBRANCH   8  18
ENDBRANCH   3   8
ENDBRANCH   1   2
BRANCH   1  24
ATOM     24  C   UNL     1       8.242   7.655  13.059  1.00  0.00     0.290 C 
BRANCH  24  25
ATOM     25  C   UNL     1       7.395   8.753  12.470  1.00  0.00     0.303 C 
BRANCH  25  26
ATOM     26  N   UNL     1       7.413   9.951  13.253  1.00  0.00    -0.337 N 
ATOM     27  C   UNL     1       8.743  10.365  13.642  1.00  0.00     0.332 C 
ATOM     28  C   UNL     1       6.628   9.843  14.466  1.00  0.00     0.332 C 
ATOM     29  H   UNL     1       6.994  10.770  12.718  1.00  0.00     0.347 HD
ENDBRANCH  25  26
ENDBRANCH  24  25
ENDBRANCH   1  24
TORSDOF 8
ENDMDL
MODEL 2
REMARK VINA RESULT:      -5.6      0.424      1.344
REMARK SMILES CC/C(=C(\c1ccccc1)c1ccc(OCC[NH+](C)C)cc1)c1ccccc1
REMARK SMILES IDX 15 1 14 2 11 3 12 4 22 5 13 6 21 7 4 8 3 9 2 10 1 11 23 12
REMARK SMILES IDX 24 13 28 14 25 15 27 16 26 17 5 18 6 19 10 20 7 21 9 22 8 23
REMARK SMILES IDX 16 24 17 25 18 26 19 27 20 28
REMARK H PARENT 18 29
ROOT
ATOM      1  O   UNL     1       7.536   6.583  13.575  1.00  0.00    -0.488 OA
ENDROOT
BRANCH   1   2
ATOM      2  C   UNL     1       6.826   6.329  14.734  1.00  0.00     0.119 A 
ATOM      3  C   UNL     1       5.267   5.778  17.062  1.00  0.00    -0.017 A 
ATOM      4  C   UNL     1       6.613   6.074  17.142  1.00  0.00     0.012 A 
ATOM      5  C   UNL     1       4.722   5.767  15.782  1.00  0.00     0.012 A 
ATOM      6  C   UNL     1       7.357   6.339  16.003  1.00  0.00     0.047 A 
ATOM      7  C   UNL     1       5.458   6.029  14.658  1.00  0.00     0.047 A 
BRANCH   3   8
ATOM      8  C   UNL     1       4.457   5.520  18.240  1.00  0.00    -0.007 C 
ATOM      9  C   UNL     1       3.854   6.471  18.905  1.00  0.00    -0.033 C 
BRANCH   9  10
ATOM     10  C   UNL     1       3.053   6.270  20.143  1.00  0.00     0.033 C 
ATOM     11  C   UNL     1       1.595   6.353  19.798  1.00  0.00     0.009 C 
ENDBRANCH   9  10
BRANCH   9  12
ATOM     12  C   UNL     1       3.868   7.863  18.420  1.00  0.00    -0.022 A 
ATOM     13  C   UNL     1       4.783   8.781  18.869  1.00  0.00     0.008 A 
ATOM     14  C   UNL     1       2.931   8.236  17.505  1.00  0.00     0.008 A 
ATOM     15  C   UNL     1       4.747  10.067  18.393  1.00  0.00     0.001 A 
ATOM     16  C   UNL     1       2.857   9.535  16.994  1.00  0.00     0.001 A 
ATOM     17  C   UNL     1       3.788  10.433  17.463  1.00  0.00     0.000 A 
ENDBRANCH   9  12
BRANCH   8  18
ATOM     18  C   UNL     1       4.355   4.152  18.706  1.00  0.00    -0.018 A 
ATOM     19  C   UNL     1       3.240   3.374  18.471  1.00  0.00     0.009 A 
ATOM     20  C   UNL     1       5.390   3.606  19.460  1.00  0.00     0.009 A 
ATOM     21  C   UNL     1       3.187   2.103  18.981  1.00  0.00     0.001 A 
ATOM     22  C   UNL     1       5.355   2.333  19.979  1.00  0.00     0.001 A 
ATOM     23  C   UNL     1       4.219   1.568  19.727  1.00  0.00     0.000 A 
ENDBRANCH   8  18
ENDBRANCH   3   8
ENDBRANCH   1   2
BRANCH   1  24
ATOM     24  C   UNL     1       7.519   7.717  12.781  1.00  0.00     0.290 C 
BRANCH  24  25
ATOM     25  C   UNL     1       8.181   8.936  13.367  1.00  0.00     0.303 C 
BRANCH  25  26
ATOM     26  N   UNL     1       7.292  10.052  13.483  1.00  0.00    -0.337 N 
ATOM     27  C   UNL     1       7.971  11.329  13.517  1.00  0.00     0.332 C 
ATOM     28  C   UNL     1       6.454   9.984  14.664  1.00  0.00     0.332 C 
ATOM     29  H   UNL     1       6.618  10.098  12.661  1.00  0.00     0.347 HD
ENDBRANCH  25  26
ENDBRANCH  24  25
ENDBRANCH   1  24
TORSDOF 8
ENDMDL
MODEL 3
REMARK VINA RESULT:      -5.6      0.622      1.166
REMARK SMILES CC/C(=C(\c1ccccc1)c1ccc(OCC[NH+](C)C)cc1)c1ccccc1
REMARK SMILES IDX 15 1 14 2 11 3 12 4 22 5 13 6 21 7 4 8 3 9 2 10 1 11 23 12
REMARK SMILES IDX 24 13 28 14 25 15 27 16 26 17 5 18 6 19 10 20 7 21 9 22 8 23
REMARK SMILES IDX 16 24 17 25 18 26 19 27 20 28
REMARK H PARENT 18 29
ROOT
ATOM      1  O   UNL     1       7.663   6.583  13.430  1.00  0.00    -0.488 OA
ENDROOT
BRANCH   1   2
ATOM      2  C   UNL     1       6.939   6.360  14.587  1.00  0.00     0.119 A 
ATOM      3  C   UNL     1       5.349   5.879  16.911  1.00  0.00    -0.017 A 
ATOM      4  C   UNL     1       6.704   6.129  16.996  1.00  0.00     0.012 A 
ATOM      5  C   UNL     1       4.810   5.879  15.628  1.00  0.00     0.012 A 
ATOM      6  C   UNL     1       7.463   6.360  15.859  1.00  0.00     0.047 A 
ATOM      7  C   UNL     1       5.562   6.108  14.506  1.00  0.00     0.047 A 
BRANCH   3   8
ATOM      8  C   UNL     1       4.525   5.657  18.086  1.00  0.00    -0.007 C 
ATOM      9  C   UNL     1       3.944   6.632  18.736  1.00  0.00    -0.033 C 
BRANCH   9  10
ATOM     10  C   UNL     1       3.130   6.466  19.971  1.00  0.00     0.033 C 
ATOM     11  C   UNL     1       1.676   6.550  19.609  1.00  0.00     0.009 C 
ENDBRANCH   9  10
BRANCH   9  12
ATOM     12  C   UNL     1       4.001   8.017  18.236  1.00  0.00    -0.022 A 
ATOM     13  C   UNL     1       3.132   8.483  17.284  1.00  0.00     0.008 A 
ATOM     14  C   UNL     1       4.959   8.844  18.739  1.00  0.00     0.008 A 
ATOM     15  C   UNL     1       3.233   9.779  16.845  1.00  0.00     0.001 A 
ATOM     16  C   UNL     1       5.099  10.171  18.321  1.00  0.00     0.001 A 
ATOM     17  C   UNL     1       4.212  10.610  17.364  1.00  0.00     0.000 A 
ENDBRANCH   9  12
BRANCH   8  18
ATOM     18  C   UNL     1       4.381   4.297  18.566  1.00  0.00    -0.018 A 
ATOM     19  C   UNL     1       3.257   3.538  18.306  1.00  0.00     0.009 A 
ATOM     20  C   UNL     1       5.381   3.741  19.357  1.00  0.00     0.009 A 
ATOM     21  C   UNL     1       3.164   2.275  18.830  1.00  0.00     0.001 A 
ATOM     22  C   UNL     1       5.305   2.475  19.890  1.00  0.00     0.001 A 
ATOM     23  C   UNL     1       4.162   1.730  19.614  1.00  0.00     0.000 A 
ENDBRANCH   8  18
ENDBRANCH   3   8
ENDBRANCH   1   2
BRANCH   1  24
ATOM     24  C   UNL     1       8.382   7.707  13.062  1.00  0.00     0.290 C 
BRANCH  24  25
ATOM     25  C   UNL     1       7.686   9.026  13.270  1.00  0.00     0.303 C 
BRANCH  25  26
ATOM     26  N   UNL     1       6.692   9.295  12.276  1.00  0.00    -0.337 N 
ATOM     27  C   UNL     1       7.110  10.271  11.292  1.00  0.00     0.332 C 
ATOM     28  C   UNL     1       5.445   9.769  12.841  1.00  0.00     0.332 C 
ATOM     29  H   UNL     1       6.441   8.417  11.732  1.00  0.00     0.347 HD
ENDBRANCH  25  26
ENDBRANCH  24  25
ENDBRANCH   1  24
TORSDOF 8
ENDMDL
MODEL 4
REMARK VINA RESULT:      -5.6      0.549      1.738
REMARK SMILES CC/C(=C(\c1ccccc1)c1ccc(OCC[NH+](C)C)cc1)c1ccccc1
REMARK SMILES IDX 15 1 14 2 11 3 12 4 22 5 13 6 21 7 4 8 3 9 2 10 1 11 23 12
REMARK SMILES IDX 24 13 28 14 25 15 27 16 26 17 5 18 6 19 10 20 7 21 9 22 8 23
REMARK SMILES IDX 16 24 17 25 18 26 19 27 20 28
REMARK H PARENT 18 29
ROOT
ATOM      1  O   UNL     1       7.394   6.379  12.967  1.00  0.00    -0.488 OA
ENDROOT
BRANCH   1   2
ATOM      2  C   UNL     1       6.695   6.229  14.151  1.00  0.00     0.119 A 
ATOM      3  C   UNL     1       5.347   5.956  16.655  1.00  0.00    -0.017 A 
ATOM      4  C   UNL     1       4.695   5.762  15.452  1.00  0.00     0.012 A 
ATOM      5  C   UNL     1       6.695   6.289  16.568  1.00  0.00     0.012 A 
ATOM      6  C   UNL     1       5.363   5.899  14.246  1.00  0.00     0.047 A 
ATOM      7  C   UNL     1       7.353   6.424  15.375  1.00  0.00     0.047 A 
BRANCH   3   8
ATOM      8  C   UNL     1       4.679   5.795  17.934  1.00  0.00    -0.007 C 
ATOM      9  C   UNL     1       4.136   6.796  18.578  1.00  0.00    -0.033 C 
BRANCH   9  10
ATOM     10  C   UNL     1       3.482   6.697  19.911  1.00  0.00     0.033 C 
ATOM     11  C   UNL     1       1.993   6.736  19.726  1.00  0.00     0.009 C 
ENDBRANCH   9  10
BRANCH   9  12
ATOM     12  C   UNL     1       4.070   8.140  17.975  1.00  0.00    -0.022 A 
ATOM     13  C   UNL     1       4.984   9.117  18.276  1.00  0.00     0.008 A 
ATOM     14  C   UNL     1       3.058   8.406  17.103  1.00  0.00     0.008 A 
ATOM     15  C   UNL     1       4.872  10.355  17.696  1.00  0.00     0.001 A 
ATOM     16  C   UNL     1       2.906   9.652  16.490  1.00  0.00     0.001 A 
ATOM     17  C   UNL     1       3.838  10.613  16.810  1.00  0.00     0.000 A 
ENDBRANCH   9  12
BRANCH   8  18
ATOM     18  C   UNL     1       4.655   4.473  18.525  1.00  0.00    -0.018 A 
ATOM     19  C   UNL     1       3.533   3.669  18.489  1.00  0.00     0.009 A 
ATOM     20  C   UNL     1       5.779   4.003  19.199  1.00  0.00     0.009 A 
ATOM     21  C   UNL     1       3.562   2.447  19.110  1.00  0.00     0.001 A 
ATOM     22  C   UNL     1       5.825   2.780  19.826  1.00  0.00     0.001 A 
ATOM     23  C   UNL     1       4.682   1.988  19.774  1.00  0.00     0.000 A 
ENDBRANCH   8  18
ENDBRANCH   3   8
ENDBRANCH   1   2
BRANCH   1  24
ATOM     24  C   UNL     1       7.720   7.544  12.296  1.00  0.00     0.290 C 
BRANCH  24  25
ATOM     25  C   UNL     1       6.954   8.774  12.708  1.00  0.00     0.303 C 
BRANCH  25  26
ATOM     26  N   UNL     1       7.731   9.675  13.504  1.00  0.00    -0.337 N 
ATOM     27  C   UNL     1       6.967  10.333  14.541  1.00  0.00     0.332 C 
ATOM     28  C   UNL     1       8.366  10.714  12.719  1.00  0.00     0.332 C 
ATOM     29  H   UNL     1       8.525   9.168  13.998  1.00  0.00     0.347 HD
ENDBRANCH  25  26
ENDBRANCH  24  25
ENDBRANCH   1  24
TORSDOF 8
ENDMDL
MODEL 5
REMARK VINA RESULT:      -5.6      0.568      1.525
REMARK SMILES CC/C(=C(\c1ccccc1)c1ccc(OCC[NH+](C)C)cc1)c1ccccc1
REMARK SMILES IDX 15 1 14 2 11 3 12 4 22 5 13 6 21 7 4 8 3 9 2 10 1 11 23 12
REMARK SMILES IDX 24 13 28 14 25 15 27 16 26 17 5 18 6 19 10 20 7 21 9 22 8 23
REMARK SMILES IDX 16 24 17 25 18 26 19 27 20 28
REMARK H PARENT 18 29
ROOT
ATOM      1  O   UNL     1       7.625   6.519  13.455  1.00  0.00    -0.488 OA
ENDROOT
BRANCH   1   2
ATOM      2  C   UNL     1       6.823   6.301  14.561  1.00  0.00     0.119 A 
ATOM      3  C   UNL     1       5.260   5.876  16.914  1.00  0.00    -0.017 A 
ATOM      4  C   UNL     1       4.703   5.827  15.651  1.00  0.00     0.012 A 
ATOM      5  C   UNL     1       6.624   6.143  16.966  1.00  0.00     0.012 A 
ATOM      6  C   UNL     1       5.475   6.036  14.519  1.00  0.00     0.047 A 
ATOM      7  C   UNL     1       7.385   6.349  15.846  1.00  0.00     0.047 A 
BRANCH   3   8
ATOM      8  C   UNL     1       4.481   5.638  18.116  1.00  0.00    -0.007 C 
ATOM      9  C   UNL     1       3.907   6.602  18.789  1.00  0.00    -0.033 C 
BRANCH   9  10
ATOM     10  C   UNL     1       3.139   6.420  20.051  1.00  0.00     0.033 C 
ATOM     11  C   UNL     1       1.674   6.555  19.751  1.00  0.00     0.009 C 
ENDBRANCH   9  10
BRANCH   9  12
ATOM     12  C   UNL     1       3.923   7.989  18.291  1.00  0.00    -0.022 A 
ATOM     13  C   UNL     1       3.022   8.438  17.360  1.00  0.00     0.008 A 
ATOM     14  C   UNL     1       4.876   8.835  18.773  1.00  0.00     0.008 A 
ATOM     15  C   UNL     1       3.086   9.737  16.922  1.00  0.00     0.001 A 
ATOM     16  C   UNL     1       4.978  10.165  18.354  1.00  0.00     0.001 A 
ATOM     17  C   UNL     1       4.060  10.587  17.420  1.00  0.00     0.000 A 
ENDBRANCH   9  12
BRANCH   8  18
ATOM     18  C   UNL     1       4.377   4.275  18.597  1.00  0.00    -0.018 A 
ATOM     19  C   UNL     1       3.262   3.494  18.364  1.00  0.00     0.009 A 
ATOM     20  C   UNL     1       5.408   3.738  19.362  1.00  0.00     0.009 A 
ATOM     21  C   UNL     1       3.207   2.229  18.889  1.00  0.00     0.001 A 
ATOM     22  C   UNL     1       5.370   2.470  19.895  1.00  0.00     0.001 A 
ATOM     23  C   UNL     1       4.236   1.703  19.646  1.00  0.00     0.000 A 
ENDBRANCH   8  18
ENDBRANCH   3   8
ENDBRANCH   1   2
BRANCH   1  24
ATOM     24  C   UNL     1       7.553   7.537  12.521  1.00  0.00     0.290 C 
BRANCH  24  25
ATOM     25  C   UNL     1       8.353   8.773  12.837  1.00  0.00     0.303 C 
BRANCH  25  26
ATOM     26  N   UNL     1       7.794   9.961  12.267  1.00  0.00    -0.337 N 
ATOM     27  C   UNL     1       6.756  10.557  13.081  1.00  0.00     0.332 C 
ATOM     28  C   UNL     1       7.229   9.742  10.951  1.00  0.00     0.332 C 
ATOM     29  H   UNL     1       8.534  10.713  12.136  1.00  0.00     0.347 HD
ENDBRANCH  25  26
ENDBRANCH  24  25
ENDBRANCH   1  24
TORSDOF 8
ENDMDL
MODEL 6
REMARK VINA RESULT:      -5.5     15.025     16.990
REMARK SMILES CC/C(=C(\c1ccccc1)c1ccc(OCC[NH+](C)C)cc1)c1ccccc1
REMARK SMILES IDX 15 1 14 2 11 3 12 4 22 5 13 6 21 7 4 8 3 9 2 10 1 11 23 12
REMARK SMILES IDX 24 13 28 14 25 15 27 16 26 17 5 18 6 19 10 20 7 21 9 22 8 23
REMARK SMILES IDX 16 24 17 25 18 26 19 27 20 28
REMARK H PARENT 18 29
ROOT
ATOM      1  O   UNL     1      15.946  -5.871  24.967  1.00  0.00    -0.488 OA
ENDROOT
BRANCH   1   2
ATOM      2  C   UNL     1      14.723  -5.550  25.527  1.00  0.00     0.119 A 
ATOM      3  C   UNL     1      12.211  -4.977  26.760  1.00  0.00    -0.017 A 
ATOM      4  C   UNL     1      12.728  -4.180  25.758  1.00  0.00     0.012 A 
ATOM      5  C   UNL     1      12.987  -6.072  27.127  1.00  0.00     0.012 A 
ATOM      6  C   UNL     1      13.949  -4.471  25.169  1.00  0.00     0.047 A 
ATOM      7  C   UNL     1      14.193  -6.358  26.544  1.00  0.00     0.047 A 
BRANCH   3   8
ATOM      8  C   UNL     1      10.924  -4.710  27.378  1.00  0.00    -0.007 C 
ATOM      9  C   UNL     1      10.805  -4.090  28.523  1.00  0.00    -0.033 C 
BRANCH   9  10
ATOM     10  C   UNL     1       9.517  -3.832  29.223  1.00  0.00     0.033 C 
ATOM     11  C   UNL     1       9.591  -4.412  30.605  1.00  0.00     0.009 C 
ENDBRANCH   9  10
BRANCH   9  12
ATOM     12  C   UNL     1      11.982  -3.517  29.202  1.00  0.00    -0.022 A 
ATOM     13  C   UNL     1      12.857  -4.294  29.918  1.00  0.00     0.008 A 
ATOM     14  C   UNL     1      12.186  -2.174  29.114  1.00  0.00     0.008 A 
ATOM     15  C   UNL     1      13.931  -3.710  30.540  1.00  0.00     0.001 A 
ATOM     16  C   UNL     1      13.266  -1.538  29.733  1.00  0.00     0.001 A 
ATOM     17  C   UNL     1      14.127  -2.342  30.443  1.00  0.00     0.000 A 
ENDBRANCH   9  12
BRANCH   8  18
ATOM     18  C   UNL     1       9.735  -5.190  26.702  1.00  0.00    -0.018 A 
ATOM     19  C   UNL     1       9.044  -4.419  25.789  1.00  0.00     0.009 A 
ATOM     20  C   UNL     1       9.235  -6.451  27.011  1.00  0.00     0.009 A 
ATOM     21  C   UNL     1       7.899  -4.915  25.222  1.00  0.00     0.001 A 
ATOM     22  C   UNL     1       8.089  -6.965  26.450  1.00  0.00     0.001 A 
ATOM     23  C   UNL     1       7.410  -6.169  25.532  1.00  0.00     0.000 A 
ENDBRANCH   8  18
ENDBRANCH   3   8
ENDBRANCH   1   2
BRANCH   1  24
ATOM     24  C   UNL     1      16.274  -6.017  23.630  1.00  0.00     0.290 C 
BRANCH  24  25
ATOM     25  C   UNL     1      17.152  -4.939  23.050  1.00  0.00     0.303 C 
BRANCH  25  26
ATOM     26  N   UNL     1      16.411  -3.930  22.357  1.00  0.00    -0.337 N 
ATOM     27  C   UNL     1      15.258  -4.445  21.651  1.00  0.00     0.332 C 
ATOM     28  C   UNL     1      17.213  -3.206  21.391  1.00  0.00     0.332 C 
ATOM     29  H   UNL     1      16.041  -3.192  23.027  1.00  0.00     0.347 HD
ENDBRANCH  25  26
ENDBRANCH  24  25
ENDBRANCH   1  24
TORSDOF 8
ENDMDL
MODEL 7
REMARK VINA RESULT:      -5.4     13.239     17.112
REMARK SMILES CC/C(=C(\c1ccccc1)c1ccc(OCC[NH+](C)C)cc1)c1ccccc1
REMARK SMILES IDX 15 1 14 2 11 3 12 4 22 5 13 6 21 7 4 8 3 9 2 10 1 11 23 12
REMARK SMILES IDX 24 13 28 14 25 15 27 16 26 17 5 18 6 19 10 20 7 21 9 22 8 23
REMARK SMILES IDX 16 24 17 25 18 26 19 27 20 28
REMARK H PARENT 18 29
ROOT
ATOM      1  O   UNL     1       9.693  -4.773  23.790  1.00  0.00    -0.488 OA
ENDROOT
BRANCH   1   2
ATOM      2  C   UNL     1      10.635  -4.704  24.800  1.00  0.00     0.119 A 
ATOM      3  C   UNL     1      12.602  -4.677  26.871  1.00  0.00    -0.017 A 
ATOM      4  C   UNL     1      11.987  -3.519  26.436  1.00  0.00     0.012 A 
ATOM      5  C   UNL     1      12.202  -5.851  26.241  1.00  0.00     0.012 A 
ATOM      6  C   UNL     1      11.035  -3.549  25.429  1.00  0.00     0.047 A 
ATOM      7  C   UNL     1      11.261  -5.878  25.246  1.00  0.00     0.047 A 
BRANCH   3   8
ATOM      8  C   UNL     1      13.585  -4.679  27.940  1.00  0.00    -0.007 C 
ATOM      9  C   UNL     1      13.290  -4.355  29.172  1.00  0.00    -0.033 C 
BRANCH   9  10
ATOM     10  C   UNL     1      14.266  -4.295  30.295  1.00  0.00     0.033 C 
ATOM     11  C   UNL     1      14.780  -2.891  30.416  1.00  0.00     0.009 C 
ENDBRANCH   9  10
BRANCH   9  12
ATOM     12  C   UNL     1      11.898  -4.079  29.572  1.00  0.00    -0.022 A 
ATOM     13  C   UNL     1      10.975  -5.080  29.733  1.00  0.00     0.008 A 
ATOM     14  C   UNL     1      11.532  -2.783  29.773  1.00  0.00     0.008 A 
ATOM     15  C   UNL     1       9.690  -4.768  30.097  1.00  0.00     0.001 A 
ATOM     16  C   UNL     1      10.233  -2.420  30.143  1.00  0.00     0.001 A 
ATOM     17  C   UNL     1       9.330  -3.446  30.298  1.00  0.00     0.000 A 
ENDBRANCH   9  12
BRANCH   8  18
ATOM     18  C   UNL     1      14.952  -5.021  27.603  1.00  0.00    -0.018 A 
ATOM     19  C   UNL     1      15.481  -6.273  27.846  1.00  0.00     0.009 A 
ATOM     20  C   UNL     1      15.786  -4.049  27.059  1.00  0.00     0.009 A 
ATOM     21  C   UNL     1      16.796  -6.516  27.546  1.00  0.00     0.001 A 
ATOM     22  C   UNL     1      17.108  -4.276  26.751  1.00  0.00     0.001 A 
ATOM     23  C   UNL     1      17.617  -5.546  27.005  1.00  0.00     0.000 A 
ENDBRANCH   8  18
ENDBRANCH   3   8
ENDBRANCH   1   2
BRANCH   1  24
ATOM     24  C   UNL     1       9.753  -4.246  22.512  1.00  0.00     0.290 C 
BRANCH  24  25
ATOM     25  C   UNL     1      11.112  -4.259  21.862  1.00  0.00     0.303 C 
BRANCH  25  26
ATOM     26  N   UNL     1      11.559  -2.955  21.479  1.00  0.00    -0.337 N 
ATOM     27  C   UNL     1      10.947  -2.471  20.260  1.00  0.00     0.332 C 
ATOM     28  C   UNL     1      12.994  -2.884  21.292  1.00  0.00     0.332 C 
ATOM     29  H   UNL     1      11.336  -2.233  22.228  1.00  0.00     0.347 HD
ENDBRANCH  25  26
ENDBRANCH  24  25
ENDBRANCH   1  24
TORSDOF 8
ENDMDL
MODEL 8
REMARK VINA RESULT:      -5.4      3.144      7.132
REMARK SMILES CC/C(=C(\c1ccccc1)c1ccc(OCC[NH+](C)C)cc1)c1ccccc1
REMARK SMILES IDX 15 1 14 2 11 3 12 4 22 5 13 6 21 7 4 8 3 9 2 10 1 11 23 12
REMARK SMILES IDX 24 13 28 14 25 15 27 16 26 17 5 18 6 19 10 20 7 21 9 22 8 23
REMARK SMILES IDX 16 24 17 25 18 26 19 27 20 28
REMARK H PARENT 18 29
ROOT
ATOM      1  O   UNL     1       5.527   2.568  19.413  1.00  0.00    -0.488 OA
ENDROOT
BRANCH   1   2
ATOM      2  C   UNL     1       5.348   3.849  18.922  1.00  0.00     0.119 A 
ATOM      3  C   UNL     1       5.095   6.505  17.902  1.00  0.00    -0.017 A 
ATOM      4  C   UNL     1       3.991   5.711  18.148  1.00  0.00     0.012 A 
ATOM      5  C   UNL     1       6.330   5.931  18.183  1.00  0.00     0.012 A 
ATOM      6  C   UNL     1       4.131   4.424  18.643  1.00  0.00     0.047 A 
ATOM      7  C   UNL     1       6.466   4.659  18.672  1.00  0.00     0.047 A 
BRANCH   3   8
ATOM      8  C   UNL     1       4.978   7.865  17.406  1.00  0.00    -0.007 C 
ATOM      9  C   UNL     1       5.243   8.191  16.168  1.00  0.00    -0.033 C 
BRANCH   9  10
ATOM     10  C   UNL     1       5.186   9.573  15.619  1.00  0.00     0.033 C 
ATOM     11  C   UNL     1       3.817   9.815  15.053  1.00  0.00     0.009 C 
ENDBRANCH   9  10
BRANCH   9  12
ATOM     12  C   UNL     1       5.567   7.160  15.164  1.00  0.00    -0.022 A 
ATOM     13  C   UNL     1       6.855   6.916  14.763  1.00  0.00     0.008 A 
ATOM     14  C   UNL     1       4.543   6.445  14.622  1.00  0.00     0.008 A 
ATOM     15  C   UNL     1       7.102   5.952  13.818  1.00  0.00     0.001 A 
ATOM     16  C   UNL     1       4.749   5.455  13.657  1.00  0.00     0.001 A 
ATOM     17  C   UNL     1       6.052   5.232  13.274  1.00  0.00     0.000 A 
ENDBRANCH   9  12
BRANCH   8  18
ATOM     18  C   UNL     1       4.587   8.897  18.345  1.00  0.00    -0.018 A 
ATOM     19  C   UNL     1       3.317   8.962  18.882  1.00  0.00     0.009 A 
ATOM     20  C   UNL     1       5.498   9.891  18.688  1.00  0.00     0.009 A 
ATOM     21  C   UNL     1       2.998   9.993  19.728  1.00  0.00     0.001 A 
ATOM     22  C   UNL     1       5.195  10.931  19.536  1.00  0.00     0.001 A 
ATOM     23  C   UNL     1       3.909  10.975  20.065  1.00  0.00     0.000 A 
ENDBRANCH   8  18
ENDBRANCH   3   8
ENDBRANCH   1   2
BRANCH   1  24
ATOM     24  C   UNL     1       4.960   1.983  20.531  1.00  0.00     0.290 C 
BRANCH  24  25
ATOM     25  C   UNL     1       4.830   2.871  21.740  1.00  0.00     0.303 C 
BRANCH  25  26
ATOM     26  N   UNL     1       3.471   3.069  22.143  1.00  0.00    -0.337 N 
ATOM     27  C   UNL     1       3.341   3.692  23.443  1.00  0.00     0.332 C 
ATOM     28  C   UNL     1       2.711   1.836  22.185  1.00  0.00     0.332 C 
ATOM     29  H   UNL     1       2.952   3.698  21.461  1.00  0.00     0.347 HD
ENDBRANCH  25  26
ENDBRANCH  24  25
ENDBRANCH   1  24
TORSDOF 8
ENDMDL
MODEL 9
REMARK VINA RESULT:      -5.4      0.792      1.220
REMARK SMILES CC/C(=C(\c1ccccc1)c1ccc(OCC[NH+](C)C)cc1)c1ccccc1
REMARK SMILES IDX 15 1 14 2 11 3 12 4 22 5 13 6 21 7 4 8 3 9 2 10 1 11 23 12
REMARK SMILES IDX 24 13 28 14 25 15 27 16 26 17 5 18 6 19 10 20 7 21 9 22 8 23
REMARK SMILES IDX 16 24 17 25 18 26 19 27 20 28
REMARK H PARENT 18 29
ROOT
ATOM      1  O   UNL     1       7.714   6.573  14.296  1.00  0.00    -0.488 OA
ENDROOT
BRANCH   1   2
ATOM      2  C   UNL     1       6.813   6.283  15.305  1.00  0.00     0.119 A 
ATOM      3  C   UNL     1       5.038   5.700  17.465  1.00  0.00    -0.017 A 
ATOM      4  C   UNL     1       4.594   5.778  16.160  1.00  0.00     0.012 A 
ATOM      5  C   UNL     1       6.398   5.920  17.659  1.00  0.00     0.012 A 
ATOM      6  C   UNL     1       5.468   6.062  15.122  1.00  0.00     0.047 A 
ATOM      7  C   UNL     1       7.259   6.201  16.632  1.00  0.00     0.047 A 
BRANCH   3   8
ATOM      8  C   UNL     1       4.150   5.380  18.569  1.00  0.00    -0.007 C 
ATOM      9  C   UNL     1       3.445   6.287  19.194  1.00  0.00    -0.033 C 
BRANCH   9  10
ATOM     10  C   UNL     1       2.558   6.022  20.360  1.00  0.00     0.033 C 
ATOM     11  C   UNL     1       1.143   5.894  19.874  1.00  0.00     0.009 C 
ENDBRANCH   9  10
BRANCH   9  12
ATOM     12  C   UNL     1       3.424   7.685  18.730  1.00  0.00    -0.022 A 
ATOM     13  C   UNL     1       2.492   8.139  17.832  1.00  0.00     0.008 A 
ATOM     14  C   UNL     1       4.373   8.537  19.209  1.00  0.00     0.008 A 
ATOM     15  C   UNL     1       2.523   9.449  17.424  1.00  0.00     0.001 A 
ATOM     16  C   UNL     1       4.441   9.878  18.820  1.00  0.00     0.001 A 
ATOM     17  C   UNL     1       3.493  10.305  17.918  1.00  0.00     0.000 A 
ENDBRANCH   9  12
BRANCH   8  18
ATOM     18  C   UNL     1       4.084   4.000  19.008  1.00  0.00    -0.018 A 
ATOM     19  C   UNL     1       4.995   3.464  19.895  1.00  0.00     0.009 A 
ATOM     20  C   UNL     1       3.101   3.163  18.488  1.00  0.00     0.009 A 
ATOM     21  C   UNL     1       4.904   2.138  20.232  1.00  0.00     0.001 A 
ATOM     22  C   UNL     1       2.994   1.832  18.816  1.00  0.00     0.001 A 
ATOM     23  C   UNL     1       3.925   1.315  19.713  1.00  0.00     0.000 A 
ENDBRANCH   8  18
ENDBRANCH   3   8
ENDBRANCH   1   2
BRANCH   1  24
ATOM     24  C   UNL     1       7.538   7.377  13.184  1.00  0.00     0.290 C 
BRANCH  24  25
ATOM     25  C   UNL     1       7.746   8.852  13.403  1.00  0.00     0.303 C 
BRANCH  25  26
ATOM     26  N   UNL     1       6.517   9.576  13.529  1.00  0.00    -0.337 N 
ATOM     27  C   UNL     1       6.534  10.860  12.864  1.00  0.00     0.332 C 
ATOM     28  C   UNL     1       6.144   9.815  14.908  1.00  0.00     0.332 C 
ATOM     29  H   UNL     1       5.704   9.036  13.106  1.00  0.00     0.347 HD
ENDBRANCH  25  26
ENDBRANCH  24  25
ENDBRANCH   1  24
TORSDOF 8
ENDMDL
