MODEL 1
REMARK VINA RESULT:      -4.5      0.000      0.000
REMARK SMILES CC/C(=C(\c1ccccc1)c1ccc(OCC[NH+](C)C)cc1)c1ccccc1
REMARK SMILES IDX 15 1 14 2 11 3 12 4 22 5 13 6 21 7 4 8 3 9 2 10 1 11 23 12
REMARK SMILES IDX 24 13 28 14 25 15 27 16 26 17 5 18 6 19 10 20 7 21 9 22 8 23
REMARK SMILES IDX 16 24 17 25 18 26 19 27 20 28
REMARK H PARENT 18 29
ROOT
ATOM      1  O   UNL     1     125.666 119.677 152.942  1.00  0.00    -0.488 OA
ENDROOT
BRANCH   1   2
ATOM      2  C   UNL     1     126.953 119.745 153.443  1.00  0.00     0.119 A 
ATOM      3  C   UNL     1     129.575 119.965 154.554  1.00  0.00    -0.017 A 
ATOM      4  C   UNL     1     129.278 119.044 153.568  1.00  0.00     0.012 A 
ATOM      5  C   UNL     1     128.522 120.774 154.967  1.00  0.00     0.012 A 
ATOM      6  C   UNL     1     128.000 118.950 153.039  1.00  0.00     0.047 A 
ATOM      7  C   UNL     1     127.260 120.678 154.444  1.00  0.00     0.047 A 
BRANCH   3   8
ATOM      8  C   UNL     1     130.910 120.103 155.110  1.00  0.00    -0.007 C 
ATOM      9  C   UNL     1     131.852 120.795 154.522  1.00  0.00    -0.033 C 
BRANCH   9  10
ATOM     10  C   UNL     1     133.247 120.931 155.022  1.00  0.00     0.033 C 
ATOM     11  C   UNL     1     134.018 119.697 154.652  1.00  0.00     0.009 C 
ENDBRANCH   9  10
BRANCH   9  12
ATOM     12  C   UNL     1     131.571 121.578 153.305  1.00  0.00    -0.022 A 
ATOM     13  C   UNL     1     130.994 121.016 152.196  1.00  0.00     0.008 A 
ATOM     14  C   UNL     1     131.911 122.897 153.296  1.00  0.00     0.008 A 
ATOM     15  C   UNL     1     130.763 121.787 151.084  1.00  0.00     0.001 A 
ATOM     16  C   UNL     1     131.695 123.719 152.186  1.00  0.00     0.001 A 
ATOM     17  C   UNL     1     131.114 123.127 151.088  1.00  0.00     0.000 A 
ENDBRANCH   9  12
BRANCH   8  18
ATOM     18  C   UNL     1     131.204 119.410 156.347  1.00  0.00    -0.018 A 
ATOM     19  C   UNL     1     132.190 119.836 157.215  1.00  0.00     0.009 A 
ATOM     20  C   UNL     1     130.510 118.245 156.661  1.00  0.00     0.009 A 
ATOM     21  C   UNL     1     132.450 119.106 158.346  1.00  0.00     0.001 A 
ATOM     22  C   UNL     1     130.757 117.501 157.792  1.00  0.00     0.001 A 
ATOM     23  C   UNL     1     131.755 117.952 158.651  1.00  0.00     0.000 A 
ENDBRANCH   8  18
ENDBRANCH   3   8
ENDBRANCH   1   2
BRANCH   1  24
ATOM     24  C   UNL     1     124.472 119.575 153.635  1.00  0.00     0.290 C 
BRANCH  24  25
ATOM     25  C   UNL     1     124.579 119.631 155.136  1.00  0.00     0.303 C 
BRANCH  25  26
ATOM     26  N   UNL     1     124.007 120.819 155.693  1.00  0.00    -0.337 N 
ATOM     27  C   UNL     1     123.659 121.811 154.698  1.00  0.00     0.332 C 
ATOM     28  C   UNL     1     124.876 121.467 156.654  1.00  0.00     0.332 C 
ATOM     29  H   UNL     1     123.109 120.605 156.222  1.00  0.00     0.347 HD
ENDBRANCH  25  26
ENDBRANCH  24  25
ENDBRANCH   1  24
TORSDOF 8
ENDMDL
MODEL 2
REMARK VINA RESULT:      -4.3      0.314      1.303
REMARK SMILES CC/C(=C(\c1ccccc1)c1ccc(OCC[NH+](C)C)cc1)c1ccccc1
REMARK SMILES IDX 15 1 14 2 11 3 12 4 22 5 13 6 21 7 4 8 3 9 2 10 1 11 23 12
REMARK SMILES IDX 24 13 28 14 25 15 27 16 26 17 5 18 6 19 10 20 7 21 9 22 8 23
REMARK SMILES IDX 16 24 17 25 18 26 19 27 20 28
REMARK H PARENT 18 29
ROOT
ATOM      1  O   UNL     1     125.560 119.600 153.033  1.00  0.00    -0.488 OA
ENDROOT
BRANCH   1   2
ATOM      2  C   UNL     1     126.830 119.734 153.564  1.00  0.00     0.119 A 
ATOM      3  C   UNL     1     129.493 119.937 154.578  1.00  0.00    -0.017 A 
ATOM      4  C   UNL     1     128.454 120.678 155.107  1.00  0.00     0.012 A 
ATOM      5  C   UNL     1     129.160 119.088 153.527  1.00  0.00     0.012 A 
ATOM      6  C   UNL     1     127.167 120.568 154.603  1.00  0.00     0.047 A 
ATOM      7  C   UNL     1     127.888 118.982 153.031  1.00  0.00     0.047 A 
BRANCH   3   8
ATOM      8  C   UNL     1     130.845 120.013 155.101  1.00  0.00    -0.007 C 
ATOM      9  C   UNL     1     131.798 120.678 154.501  1.00  0.00    -0.033 C 
BRANCH   9  10
ATOM     10  C   UNL     1     133.211 120.750 154.966  1.00  0.00     0.033 C 
ATOM     11  C   UNL     1     133.944 119.532 154.484  1.00  0.00     0.009 C 
ENDBRANCH   9  10
BRANCH   9  12
ATOM     12  C   UNL     1     131.518 121.494 153.305  1.00  0.00    -0.022 A 
ATOM     13  C   UNL     1     130.941 120.961 152.181  1.00  0.00     0.008 A 
ATOM     14  C   UNL     1     131.858 122.812 153.331  1.00  0.00     0.008 A 
ATOM     15  C   UNL     1     130.710 121.762 151.091  1.00  0.00     0.001 A 
ATOM     16  C   UNL     1     131.642 123.663 152.244  1.00  0.00     0.001 A 
ATOM     17  C   UNL     1     131.061 123.101 151.130  1.00  0.00     0.000 A 
ENDBRANCH   9  12
BRANCH   8  18
ATOM     18  C   UNL     1     131.144 119.286 156.318  1.00  0.00    -0.018 A 
ATOM     19  C   UNL     1     130.455 118.146 156.684  1.00  0.00     0.009 A 
ATOM     20  C   UNL     1     132.123 119.768 157.181  1.00  0.00     0.009 A 
ATOM     21  C   UNL     1     130.756 117.533 157.873  1.00  0.00     0.001 A 
ATOM     22  C   UNL     1     132.438 119.165 158.377  1.00  0.00     0.001 A 
ATOM     23  C   UNL     1     131.730 118.018 158.723  1.00  0.00     0.000 A 
ENDBRANCH   8  18
ENDBRANCH   3   8
ENDBRANCH   1   2
BRANCH   1  24
ATOM     24  C   UNL     1     124.411 120.302 153.351  1.00  0.00     0.290 C 
BRANCH  24  25
ATOM     25  C   UNL     1     123.838 120.035 154.718  1.00  0.00     0.303 C 
BRANCH  25  26
ATOM     26  N   UNL     1     123.620 121.230 155.475  1.00  0.00    -0.337 N 
ATOM     27  C   UNL     1     123.496 122.416 154.655  1.00  0.00     0.332 C 
ATOM     28  C   UNL     1     124.671 121.487 156.438  1.00  0.00     0.332 C 
ATOM     29  H   UNL     1     122.723 121.170 156.044  1.00  0.00     0.347 HD
ENDBRANCH  25  26
ENDBRANCH  24  25
ENDBRANCH   1  24
TORSDOF 8
ENDMDL
MODEL 3
REMARK VINA RESULT:      -4.2      0.495      1.076
REMARK SMILES CC/C(=C(\c1ccccc1)c1ccc(OCC[NH+](C)C)cc1)c1ccccc1
REMARK SMILES IDX 15 1 14 2 11 3 12 4 22 5 13 6 21 7 4 8 3 9 2 10 1 11 23 12
REMARK SMILES IDX 24 13 28 14 25 15 27 16 26 17 5 18 6 19 10 20 7 21 9 22 8 23
REMARK SMILES IDX 16 24 17 25 18 26 19 27 20 28
REMARK H PARENT 18 29
ROOT
ATOM      1  O   UNL     1     125.505 119.704 153.138  1.00  0.00    -0.488 OA
ENDROOT
BRANCH   1   2
ATOM      2  C   UNL     1     126.795 119.762 153.634  1.00  0.00     0.119 A 
ATOM      3  C   UNL     1     129.491 119.807 154.575  1.00  0.00    -0.017 A 
ATOM      4  C   UNL     1     128.513 120.606 155.132  1.00  0.00     0.012 A 
ATOM      5  C   UNL     1     129.081 118.982 153.532  1.00  0.00     0.012 A 
ATOM      6  C   UNL     1     127.208 120.573 154.665  1.00  0.00     0.047 A 
ATOM      7  C   UNL     1     127.792 118.951 153.071  1.00  0.00     0.047 A 
BRANCH   3   8
ATOM      8  C   UNL     1     130.860 119.803 155.060  1.00  0.00    -0.007 C 
ATOM      9  C   UNL     1     131.841 120.377 154.412  1.00  0.00    -0.033 C 
BRANCH   9  10
ATOM     10  C   UNL     1     133.267 120.363 154.839  1.00  0.00     0.033 C 
ATOM     11  C   UNL     1     133.675 121.756 155.218  1.00  0.00     0.009 C 
ENDBRANCH   9  10
BRANCH   9  12
ATOM     12  C   UNL     1     131.586 121.170 153.196  1.00  0.00    -0.022 A 
ATOM     13  C   UNL     1     131.127 120.598 152.038  1.00  0.00     0.008 A 
ATOM     14  C   UNL     1     131.829 122.509 153.238  1.00  0.00     0.008 A 
ATOM     15  C   UNL     1     130.915 121.379 150.930  1.00  0.00     0.001 A 
ATOM     16  C   UNL     1     131.629 123.343 152.134  1.00  0.00     0.001 A 
ATOM     17  C   UNL     1     131.167 122.740 150.986  1.00  0.00     0.000 A 
ENDBRANCH   9  12
BRANCH   8  18
ATOM     18  C   UNL     1     131.140 119.097 156.294  1.00  0.00    -0.018 A 
ATOM     19  C   UNL     1     132.226 119.403 157.089  1.00  0.00     0.009 A 
ATOM     20  C   UNL     1     130.320 118.041 156.680  1.00  0.00     0.009 A 
ATOM     21  C   UNL     1     132.461 118.665 158.220  1.00  0.00     0.001 A 
ATOM     22  C   UNL     1     130.540 117.291 157.812  1.00  0.00     0.001 A 
ATOM     23  C   UNL     1     131.641 117.619 158.596  1.00  0.00     0.000 A 
ENDBRANCH   8  18
ENDBRANCH   3   8
ENDBRANCH   1   2
BRANCH   1  24
ATOM     24  C   UNL     1     124.407 120.468 153.491  1.00  0.00     0.290 C 
BRANCH  24  25
ATOM     25  C   UNL     1     123.800 120.159 154.835  1.00  0.00     0.303 C 
BRANCH  25  26
ATOM     26  N   UNL     1     123.595 121.327 155.636  1.00  0.00    -0.337 N 
ATOM     27  C   UNL     1     123.373 122.527 154.859  1.00  0.00     0.332 C 
ATOM     28  C   UNL     1     124.701 121.598 156.531  1.00  0.00     0.332 C 
ATOM     29  H   UNL     1     122.743 121.221 156.264  1.00  0.00     0.347 HD
ENDBRANCH  25  26
ENDBRANCH  24  25
ENDBRANCH   1  24
TORSDOF 8
ENDMDL
MODEL 4
REMARK VINA RESULT:      -4.1      0.366      1.629
REMARK SMILES CC/C(=C(\c1ccccc1)c1ccc(OCC[NH+](C)C)cc1)c1ccccc1
REMARK SMILES IDX 15 1 14 2 11 3 12 4 22 5 13 6 21 7 4 8 3 9 2 10 1 11 23 12
REMARK SMILES IDX 24 13 28 14 25 15 27 16 26 17 5 18 6 19 10 20 7 21 9 22 8 23
REMARK SMILES IDX 16 24 17 25 18 26 19 27 20 28
REMARK H PARENT 18 29
ROOT
ATOM      1  O   UNL     1     125.599 119.940 153.142  1.00  0.00    -0.488 OA
ENDROOT
BRANCH   1   2
ATOM      2  C   UNL     1     126.891 119.953 153.635  1.00  0.00     0.119 A 
ATOM      3  C   UNL     1     129.589 119.899 154.573  1.00  0.00    -0.017 A 
ATOM      4  C   UNL     1     128.656 120.777 155.090  1.00  0.00     0.012 A 
ATOM      5  C   UNL     1     129.132 119.047 153.573  1.00  0.00     0.012 A 
ATOM      6  C   UNL     1     127.351 120.791 154.624  1.00  0.00     0.047 A 
ATOM      7  C   UNL     1     127.841 119.063 153.114  1.00  0.00     0.047 A 
BRANCH   3   8
ATOM      8  C   UNL     1     130.956 119.846 155.058  1.00  0.00    -0.007 C 
ATOM      9  C   UNL     1     131.948 120.435 154.442  1.00  0.00    -0.033 C 
BRANCH   9  10
ATOM     10  C   UNL     1     133.373 120.373 154.868  1.00  0.00     0.033 C 
ATOM     11  C   UNL     1     133.789 121.724 155.373  1.00  0.00     0.009 C 
ENDBRANCH   9  10
BRANCH   9  12
ATOM     12  C   UNL     1     131.710 121.294 153.268  1.00  0.00    -0.022 A 
ATOM     13  C   UNL     1     131.911 122.650 153.307  1.00  0.00     0.008 A 
ATOM     14  C   UNL     1     131.266 120.709 152.121  1.00  0.00     0.008 A 
ATOM     15  C   UNL     1     131.664 123.407 152.190  1.00  0.00     0.001 A 
ATOM     16  C   UNL     1     131.002 121.442 150.960  1.00  0.00     0.001 A 
ATOM     17  C   UNL     1     131.214 122.799 151.029  1.00  0.00     0.000 A 
ENDBRANCH   9  12
BRANCH   8  18
ATOM     18  C   UNL     1     131.221 119.073 156.255  1.00  0.00    -0.018 A 
ATOM     19  C   UNL     1     130.373 118.075 156.691  1.00  0.00     0.009 A 
ATOM     20  C   UNL     1     132.341 119.367 157.026  1.00  0.00     0.009 A 
ATOM     21  C   UNL     1     130.657 117.414 157.858  1.00  0.00     0.001 A 
ATOM     22  C   UNL     1     132.643 118.714 158.198  1.00  0.00     0.001 A 
ATOM     23  C   UNL     1     131.772 117.712 158.617  1.00  0.00     0.000 A 
ENDBRANCH   8  18
ENDBRANCH   3   8
ENDBRANCH   1   2
BRANCH   1  24
ATOM     24  C   UNL     1     124.418 119.686 153.816  1.00  0.00     0.290 C 
BRANCH  24  25
ATOM     25  C   UNL     1     124.482 119.805 155.316  1.00  0.00     0.303 C 
BRANCH  25  26
ATOM     26  N   UNL     1     123.950 121.042 155.801  1.00  0.00    -0.337 N 
ATOM     27  C   UNL     1     123.617 121.978 154.748  1.00  0.00     0.332 C 
ATOM     28  C   UNL     1     124.849 121.725 156.709  1.00  0.00     0.332 C 
ATOM     29  H   UNL     1     123.053 120.889 156.353  1.00  0.00     0.347 HD
ENDBRANCH  25  26
ENDBRANCH  24  25
ENDBRANCH   1  24
TORSDOF 8
ENDMDL
MODEL 5
REMARK VINA RESULT:      -4.1      0.362      1.034
REMARK SMILES CC/C(=C(\c1ccccc1)c1ccc(OCC[NH+](C)C)cc1)c1ccccc1
REMARK SMILES IDX 15 1 14 2 11 3 12 4 22 5 13 6 21 7 4 8 3 9 2 10 1 11 23 12
REMARK SMILES IDX 24 13 28 14 25 15 27 16 26 17 5 18 6 19 10 20 7 21 9 22 8 23
REMARK SMILES IDX 16 24 17 25 18 26 19 27 20 28
REMARK H PARENT 18 29
ROOT
ATOM      1  O   UNL     1     125.615 119.739 153.051  1.00  0.00    -0.488 OA
ENDROOT
BRANCH   1   2
ATOM      2  C   UNL     1     126.922 119.713 153.504  1.00  0.00     0.119 A 
ATOM      3  C   UNL     1     129.589 119.731 154.526  1.00  0.00    -0.017 A 
ATOM      4  C   UNL     1     129.225 118.939 153.455  1.00  0.00     0.012 A 
ATOM      5  C   UNL     1     128.578 120.517 155.071  1.00  0.00     0.012 A 
ATOM      6  C   UNL     1     127.927 118.941 152.971  1.00  0.00     0.047 A 
ATOM      7  C   UNL     1     127.295 120.517 154.590  1.00  0.00     0.047 A 
BRANCH   3   8
ATOM      8  C   UNL     1     130.946 119.768 155.040  1.00  0.00    -0.007 C 
ATOM      9  C   UNL     1     131.916 120.399 154.430  1.00  0.00    -0.033 C 
BRANCH   9  10
ATOM     10  C   UNL     1     133.333 120.430 154.885  1.00  0.00     0.033 C 
ATOM     11  C   UNL     1     133.713 121.848 155.195  1.00  0.00     0.009 C 
ENDBRANCH   9  10
BRANCH   9  12
ATOM     12  C   UNL     1     131.653 121.216 153.231  1.00  0.00    -0.022 A 
ATOM     13  C   UNL     1     131.238 120.660 152.049  1.00  0.00     0.008 A 
ATOM     14  C   UNL     1     131.845 122.562 153.315  1.00  0.00     0.008 A 
ATOM     15  C   UNL     1     131.017 121.464 150.959  1.00  0.00     0.001 A 
ATOM     16  C   UNL     1     131.632 123.418 152.230  1.00  0.00     0.001 A 
ATOM     17  C   UNL     1     131.215 122.831 151.057  1.00  0.00     0.000 A 
ENDBRANCH   9  12
BRANCH   8  18
ATOM     18  C   UNL     1     131.230 119.039 156.260  1.00  0.00    -0.018 A 
ATOM     19  C   UNL     1     130.394 118.051 156.740  1.00  0.00     0.009 A 
ATOM     20  C   UNL     1     132.355 119.369 157.009  1.00  0.00     0.009 A 
ATOM     21  C   UNL     1     130.696 117.434 157.926  1.00  0.00     0.001 A 
ATOM     22  C   UNL     1     132.674 118.759 158.200  1.00  0.00     0.001 A 
ATOM     23  C   UNL     1     131.816 117.766 158.662  1.00  0.00     0.000 A 
ENDBRANCH   8  18
ENDBRANCH   3   8
ENDBRANCH   1   2
BRANCH   1  24
ATOM     24  C   UNL     1     124.443 119.675 153.784  1.00  0.00     0.290 C 
BRANCH  24  25
ATOM     25  C   UNL     1     124.601 119.772 155.279  1.00  0.00     0.303 C 
BRANCH  25  26
ATOM     26  N   UNL     1     124.033 120.967 155.824  1.00  0.00    -0.337 N 
ATOM     27  C   UNL     1     123.649 121.933 154.817  1.00  0.00     0.332 C 
ATOM     28  C   UNL     1     124.923 121.644 156.745  1.00  0.00     0.332 C 
ATOM     29  H   UNL     1     123.153 120.758 156.383  1.00  0.00     0.347 HD
ENDBRANCH  25  26
ENDBRANCH  24  25
ENDBRANCH   1  24
TORSDOF 8
ENDMDL
MODEL 6
REMARK VINA RESULT:      -3.8      0.202      1.111
REMARK SMILES CC/C(=C(\c1ccccc1)c1ccc(OCC[NH+](C)C)cc1)c1ccccc1
REMARK SMILES IDX 15 1 14 2 11 3 12 4 22 5 13 6 21 7 4 8 3 9 2 10 1 11 23 12
REMARK SMILES IDX 24 13 28 14 25 15 27 16 26 17 5 18 6 19 10 20 7 21 9 22 8 23
REMARK SMILES IDX 16 24 17 25 18 26 19 27 20 28
REMARK H PARENT 18 29
ROOT
ATOM      1  O   UNL     1     125.717 119.803 153.037  1.00  0.00    -0.488 OA
ENDROOT
BRANCH   1   2
ATOM      2  C   UNL     1     127.010 119.844 153.524  1.00  0.00     0.119 A 
ATOM      3  C   UNL     1     129.648 120.008 154.608  1.00  0.00    -0.017 A 
ATOM      4  C   UNL     1     129.324 119.102 153.617  1.00  0.00     0.012 A 
ATOM      5  C   UNL     1     128.614 120.831 155.041  1.00  0.00     0.012 A 
ATOM      6  C   UNL     1     128.039 119.035 153.102  1.00  0.00     0.047 A 
ATOM      7  C   UNL     1     127.345 120.763 154.530  1.00  0.00     0.047 A 
BRANCH   3   8
ATOM      8  C   UNL     1     130.991 120.118 155.150  1.00  0.00    -0.007 C 
ATOM      9  C   UNL     1     131.939 120.796 154.557  1.00  0.00    -0.033 C 
BRANCH   9  10
ATOM     10  C   UNL     1     133.342 120.903 155.042  1.00  0.00     0.033 C 
ATOM     11  C   UNL     1     134.081 119.650 154.671  1.00  0.00     0.009 C 
ENDBRANCH   9  10
BRANCH   9  12
ATOM     12  C   UNL     1     131.660 121.593 153.349  1.00  0.00    -0.022 A 
ATOM     13  C   UNL     1     131.907 122.941 153.294  1.00  0.00     0.008 A 
ATOM     14  C   UNL     1     131.131 120.958 152.266  1.00  0.00     0.008 A 
ATOM     15  C   UNL     1     131.619 123.639 152.148  1.00  0.00     0.001 A 
ATOM     16  C   UNL     1     130.823 121.630 151.080  1.00  0.00     0.001 A 
ATOM     17  C   UNL     1     131.082 122.981 151.054  1.00  0.00     0.000 A 
ENDBRANCH   9  12
BRANCH   8  18
ATOM     18  C   UNL     1     131.286 119.410 156.379  1.00  0.00    -0.018 A 
ATOM     19  C   UNL     1     132.281 119.818 157.245  1.00  0.00     0.009 A 
ATOM     20  C   UNL     1     130.581 118.250 156.688  1.00  0.00     0.009 A 
ATOM     21  C   UNL     1     132.541 119.075 158.368  1.00  0.00     0.001 A 
ATOM     22  C   UNL     1     130.827 117.494 157.810  1.00  0.00     0.001 A 
ATOM     23  C   UNL     1     131.836 117.926 158.667  1.00  0.00     0.000 A 
ENDBRANCH   8  18
ENDBRANCH   3   8
ENDBRANCH   1   2
BRANCH   1  24
ATOM     24  C   UNL     1     124.587 119.260 153.625  1.00  0.00     0.290 C 
BRANCH  24  25
ATOM     25  C   UNL     1     124.343 119.651 155.059  1.00  0.00     0.303 C 
BRANCH  25  26
ATOM     26  N   UNL     1     124.461 121.060 155.281  1.00  0.00    -0.337 N 
ATOM     27  C   UNL     1     124.789 121.402 156.648  1.00  0.00     0.332 C 
ATOM     28  C   UNL     1     123.256 121.787 154.938  1.00  0.00     0.332 C 
ATOM     29  H   UNL     1     125.228 121.484 154.678  1.00  0.00     0.347 HD
ENDBRANCH  25  26
ENDBRANCH  24  25
ENDBRANCH   1  24
TORSDOF 8
ENDMDL
MODEL 7
REMARK VINA RESULT:      -2.4      0.724      4.470
REMARK SMILES CC/C(=C(\c1ccccc1)c1ccc(OCC[NH+](C)C)cc1)c1ccccc1
REMARK SMILES IDX 15 1 14 2 11 3 12 4 22 5 13 6 21 7 4 8 3 9 2 10 1 11 23 12
REMARK SMILES IDX 24 13 28 14 25 15 27 16 26 17 5 18 6 19 10 20 7 21 9 22 8 23
REMARK SMILES IDX 16 24 17 25 18 26 19 27 20 28
REMARK H PARENT 18 29
ROOT
ATOM      1  O   UNL     1     125.510 118.889 153.837  1.00  0.00    -0.488 OA
ENDROOT
BRANCH   1   2
ATOM      2  C   UNL     1     126.814 119.348 153.877  1.00  0.00     0.119 A 
ATOM      3  C   UNL     1     129.480 120.357 154.056  1.00  0.00    -0.017 A 
ATOM      4  C   UNL     1     129.114 119.434 153.096  1.00  0.00     0.012 A 
ATOM      5  C   UNL     1     128.472 120.763 154.924  1.00  0.00     0.012 A 
ATOM      6  C   UNL     1     127.816 118.954 153.022  1.00  0.00     0.047 A 
ATOM      7  C   UNL     1     127.190 120.286 154.850  1.00  0.00     0.047 A 
BRANCH   3   8
ATOM      8  C   UNL     1     130.826 120.896 154.142  1.00  0.00    -0.007 C 
ATOM      9  C   UNL     1     131.656 120.574 155.100  1.00  0.00    -0.033 C 
BRANCH   9  10
ATOM     10  C   UNL     1     133.027 121.131 155.262  1.00  0.00     0.033 C 
ATOM     11  C   UNL     1     134.024 120.112 154.793  1.00  0.00     0.009 C 
ENDBRANCH   9  10
BRANCH   9  12
ATOM     12  C   UNL     1     131.306 119.543 156.093  1.00  0.00    -0.022 A 
ATOM     13  C   UNL     1     130.345 118.595 155.850  1.00  0.00     0.008 A 
ATOM     14  C   UNL     1     131.959 119.552 157.288  1.00  0.00     0.008 A 
ATOM     15  C   UNL     1     130.049 117.663 156.812  1.00  0.00     0.001 A 
ATOM     16  C   UNL     1     131.689 118.622 158.297  1.00  0.00     0.001 A 
ATOM     17  C   UNL     1     130.720 117.684 158.023  1.00  0.00     0.000 A 
ENDBRANCH   9  12
BRANCH   8  18
ATOM     18  C   UNL     1     131.237 121.857 153.138  1.00  0.00    -0.018 A 
ATOM     19  C   UNL     1     131.599 123.149 153.459  1.00  0.00     0.009 A 
ATOM     20  C   UNL     1     131.224 121.492 151.795  1.00  0.00     0.009 A 
ATOM     21  C   UNL     1     131.932 124.023 152.456  1.00  0.00     0.001 A 
ATOM     22  C   UNL     1     131.556 122.354 150.776  1.00  0.00     0.001 A 
ATOM     23  C   UNL     1     131.918 123.652 151.126  1.00  0.00     0.000 A 
ENDBRANCH   8  18
ENDBRANCH   3   8
ENDBRANCH   1   2
BRANCH   1  24
ATOM     24  C   UNL     1     124.430 119.283 154.607  1.00  0.00     0.290 C 
BRANCH  24  25
ATOM     25  C   UNL     1     123.760 120.565 154.186  1.00  0.00     0.303 C 
BRANCH  25  26
ATOM     26  N   UNL     1     123.446 121.420 155.291  1.00  0.00    -0.337 N 
ATOM     27  C   UNL     1     123.162 122.784 154.901  1.00  0.00     0.332 C 
ATOM     28  C   UNL     1     124.503 121.471 156.280  1.00  0.00     0.332 C 
ATOM     29  H   UNL     1     122.585 121.077 155.813  1.00  0.00     0.347 HD
ENDBRANCH  25  26
ENDBRANCH  24  25
ENDBRANCH   1  24
TORSDOF 8
ENDMDL
MODEL 8
REMARK VINA RESULT:      -2.2      1.540      2.265
REMARK SMILES CC/C(=C(\c1ccccc1)c1ccc(OCC[NH+](C)C)cc1)c1ccccc1
REMARK SMILES IDX 15 1 14 2 11 3 12 4 22 5 13 6 21 7 4 8 3 9 2 10 1 11 23 12
REMARK SMILES IDX 24 13 28 14 25 15 27 16 26 17 5 18 6 19 10 20 7 21 9 22 8 23
REMARK SMILES IDX 16 24 17 25 18 26 19 27 20 28
REMARK H PARENT 18 29
ROOT
ATOM      1  O   UNL     1     125.198 120.236 153.270  1.00  0.00    -0.488 OA
ENDROOT
BRANCH   1   2
ATOM      2  C   UNL     1     126.503 120.163 153.722  1.00  0.00     0.119 A 
ATOM      3  C   UNL     1     129.220 119.933 154.571  1.00  0.00    -0.017 A 
ATOM      4  C   UNL     1     128.353 120.842 155.145  1.00  0.00     0.012 A 
ATOM      5  C   UNL     1     128.687 119.139 153.560  1.00  0.00     0.012 A 
ATOM      6  C   UNL     1     127.037 120.942 154.721  1.00  0.00     0.047 A 
ATOM      7  C   UNL     1     127.387 119.240 153.143  1.00  0.00     0.047 A 
BRANCH   3   8
ATOM      8  C   UNL     1     130.597 119.789 155.011  1.00  0.00    -0.007 C 
ATOM      9  C   UNL     1     131.607 120.284 154.343  1.00  0.00    -0.033 C 
BRANCH   9  10
ATOM     10  C   UNL     1     133.038 120.126 154.722  1.00  0.00     0.033 C 
ATOM     11  C   UNL     1     133.586 121.465 155.118  1.00  0.00     0.009 C 
ENDBRANCH   9  10
BRANCH   9  12
ATOM     12  C   UNL     1     131.391 121.126 153.153  1.00  0.00    -0.022 A 
ATOM     13  C   UNL     1     130.912 120.611 151.975  1.00  0.00     0.008 A 
ATOM     14  C   UNL     1     131.690 122.451 153.238  1.00  0.00     0.008 A 
ATOM     15  C   UNL     1     130.738 121.436 150.893  1.00  0.00     0.001 A 
ATOM     16  C   UNL     1     131.529 123.327 152.161  1.00  0.00     0.001 A 
ATOM     17  C   UNL     1     131.046 122.782 150.993  1.00  0.00     0.000 A 
ENDBRANCH   9  12
BRANCH   8  18
ATOM     18  C   UNL     1     130.847 119.032 156.220  1.00  0.00    -0.018 A 
ATOM     19  C   UNL     1     130.058 117.963 156.598  1.00  0.00     0.009 A 
ATOM     20  C   UNL     1     131.885 119.413 157.065  1.00  0.00     0.009 A 
ATOM     21  C   UNL     1     130.320 117.319 157.780  1.00  0.00     0.001 A 
ATOM     22  C   UNL     1     132.163 118.778 158.253  1.00  0.00     0.001 A 
ATOM     23  C   UNL     1     131.354 117.704 158.611  1.00  0.00     0.000 A 
ENDBRANCH   8  18
ENDBRANCH   3   8
ENDBRANCH   1   2
BRANCH   1  24
ATOM     24  C   UNL     1     124.269 121.242 153.468  1.00  0.00     0.290 C 
BRANCH  24  25
ATOM     25  C   UNL     1     124.621 122.584 152.879  1.00  0.00     0.303 C 
BRANCH  25  26
ATOM     26  N   UNL     1     123.759 122.965 151.802  1.00  0.00    -0.337 N 
ATOM     27  C   UNL     1     123.204 121.838 151.083  1.00  0.00     0.332 C 
ATOM     28  C   UNL     1     124.416 123.811 150.827  1.00  0.00     0.332 C 
ATOM     29  H   UNL     1     122.928 123.529 152.152  1.00  0.00     0.347 HD
ENDBRANCH  25  26
ENDBRANCH  24  25
ENDBRANCH   1  24
TORSDOF 8
ENDMDL
MODEL 9
REMARK VINA RESULT:      -1.7      0.751      4.600
REMARK SMILES CC/C(=C(\c1ccccc1)c1ccc(OCC[NH+](C)C)cc1)c1ccccc1
REMARK SMILES IDX 15 1 14 2 11 3 12 4 22 5 13 6 21 7 4 8 3 9 2 10 1 11 23 12
REMARK SMILES IDX 24 13 28 14 25 15 27 16 26 17 5 18 6 19 10 20 7 21 9 22 8 23
REMARK SMILES IDX 16 24 17 25 18 26 19 27 20 28
REMARK H PARENT 18 29
ROOT
ATOM      1  O   UNL     1     125.480 118.874 153.900  1.00  0.00    -0.488 OA
ENDROOT
BRANCH   1   2
ATOM      2  C   UNL     1     126.784 119.333 153.903  1.00  0.00     0.119 A 
ATOM      3  C   UNL     1     129.453 120.348 154.001  1.00  0.00    -0.017 A 
ATOM      4  C   UNL     1     129.076 119.379 153.092  1.00  0.00     0.012 A 
ATOM      5  C   UNL     1     128.454 120.797 154.860  1.00  0.00     0.012 A 
ATOM      6  C   UNL     1     127.777 118.896 153.057  1.00  0.00     0.047 A 
ATOM      7  C   UNL     1     127.171 120.318 154.823  1.00  0.00     0.047 A 
BRANCH   3   8
ATOM      8  C   UNL     1     130.799 120.889 154.046  1.00  0.00    -0.007 C 
ATOM      9  C   UNL     1     131.644 120.604 155.002  1.00  0.00    -0.033 C 
BRANCH   9  10
ATOM     10  C   UNL     1     133.017 121.167 155.122  1.00  0.00     0.033 C 
ATOM     11  C   UNL     1     134.013 120.092 154.794  1.00  0.00     0.009 C 
ENDBRANCH   9  10
BRANCH   9  12
ATOM     12  C   UNL     1     131.310 119.612 156.040  1.00  0.00    -0.022 A 
ATOM     13  C   UNL     1     131.933 119.600 157.261  1.00  0.00     0.008 A 
ATOM     14  C   UNL     1     130.358 118.681 155.757  1.00  0.00     0.008 A 
ATOM     15  C   UNL     1     131.592 118.648 158.189  1.00  0.00     0.001 A 
ATOM     16  C   UNL     1     129.980 117.694 156.672  1.00  0.00     0.001 A 
ATOM     17  C   UNL     1     130.622 117.706 157.889  1.00  0.00     0.000 A 
ENDBRANCH   9  12
BRANCH   8  18
ATOM     18  C   UNL     1     131.194 121.810 152.999  1.00  0.00    -0.018 A 
ATOM     19  C   UNL     1     131.290 121.427 151.676  1.00  0.00     0.009 A 
ATOM     20  C   UNL     1     131.538 123.117 153.332  1.00  0.00     0.009 A 
ATOM     21  C   UNL     1     131.716 122.337 150.743  1.00  0.00     0.001 A 
ATOM     22  C   UNL     1     131.966 124.043 152.408  1.00  0.00     0.001 A 
ATOM     23  C   UNL     1     132.054 123.632 151.081  1.00  0.00     0.000 A 
ENDBRANCH   8  18
ENDBRANCH   3   8
ENDBRANCH   1   2
BRANCH   1  24
ATOM     24  C   UNL     1     124.414 119.290 154.679  1.00  0.00     0.290 C 
BRANCH  24  25
ATOM     25  C   UNL     1     123.753 120.574 154.250  1.00  0.00     0.303 C 
BRANCH  25  26
ATOM     26  N   UNL     1     123.432 121.430 155.351  1.00  0.00    -0.337 N 
ATOM     27  C   UNL     1     123.081 122.776 154.951  1.00  0.00     0.332 C 
ATOM     28  C   UNL     1     124.510 121.540 156.313  1.00  0.00     0.332 C 
ATOM     29  H   UNL     1     122.600 121.060 155.900  1.00  0.00     0.347 HD
ENDBRANCH  25  26
ENDBRANCH  24  25
ENDBRANCH   1  24
TORSDOF 8
ENDMDL
