MODEL 1
REMARK VINA RESULT:     -10.2      0.000      0.000
REMARK SMILES O=C(CCC[NH+]1CCC(O)(c2ccc(Cl)cc2)CC1)c1ccc(F)cc1
REMARK SMILES IDX 4 1 3 2 2 3 1 4 20 5 21 6 26 7 22 8 25 9 23 10 24 11 5 12
REMARK SMILES IDX 6 13 7 14 19 15 8 16 18 17 9 18 10 20 11 22 12 23 17 24
REMARK SMILES IDX 13 25 16 26 14 27 15 28
REMARK H PARENT 6 19 10 21
ROOT
ATOM      1  C   UNL     1      -8.721  21.849 -22.071  1.00  0.00     0.070 C 
ENDROOT
BRANCH   1   2
ATOM      2  C   UNL     1      -9.756  21.214 -21.170  1.00  0.00     0.087 C 
BRANCH   2   3
ATOM      3  C   UNL     1     -10.772  22.144 -20.670  1.00  0.00     0.163 C 
ATOM      4  O   UNL     1     -10.668  23.386 -20.843  1.00  0.00    -0.294 OA
BRANCH   3   5
ATOM      5  C   UNL     1     -11.972  21.686 -19.939  1.00  0.00     0.018 A 
ATOM      6  C   UNL     1     -12.828  20.759 -20.504  1.00  0.00     0.015 A 
ATOM      7  C   UNL     1     -12.264  22.169 -18.688  1.00  0.00     0.015 A 
ATOM      8  C   UNL     1     -13.943  20.338 -19.818  1.00  0.00     0.040 A 
ATOM      9  C   UNL     1     -13.372  21.754 -17.999  1.00  0.00     0.040 A 
ATOM     10  C   UNL     1     -14.211  20.836 -18.569  1.00  0.00     0.123 A 
ATOM     11  F   UNL     1     -15.312  20.447 -17.850  1.00  0.00    -0.207 F 
ENDBRANCH   3   5
ENDBRANCH   2   3
ENDBRANCH   1   2
BRANCH   1  12
ATOM     12  C   UNL     1      -9.110  21.596 -23.487  1.00  0.00     0.262 C 
BRANCH  12  13
ATOM     13  N   UNL     1     -10.489  21.973 -23.769  1.00  0.00    -0.335 N 
ATOM     14  C   UNL     1     -10.588  23.252 -24.403  1.00  0.00     0.265 C 
ATOM     15  C   UNL     1     -11.122  20.966 -24.558  1.00  0.00     0.265 C 
ATOM     16  C   UNL     1      -9.850  23.279 -25.713  1.00  0.00     0.102 C 
ATOM     17  C   UNL     1     -11.342  21.270 -25.979  1.00  0.00     0.102 C 
ATOM     18  C   UNL     1     -10.440  22.251 -26.632  1.00  0.00     0.100 C 
ATOM     19  H   UNL     1     -10.938  22.077 -22.811  1.00  0.00     0.348 HD
BRANCH  18  20
ATOM     20  O   UNL     1     -11.221  22.970 -27.569  1.00  0.00    -0.385 OA
ATOM     21  H   UNL     1     -11.365  22.366 -28.340  1.00  0.00     0.211 HD
ENDBRANCH  18  20
BRANCH  18  22
ATOM     22  C   UNL     1      -9.376  21.593 -27.472  1.00  0.00    -0.016 A 
ATOM     23  C   UNL     1      -8.132  21.280 -26.964  1.00  0.00     0.008 A 
ATOM     24  C   UNL     1      -9.576  21.263 -28.794  1.00  0.00     0.008 A 
ATOM     25  C   UNL     1      -7.134  20.680 -27.697  1.00  0.00     0.021 A 
ATOM     26  C   UNL     1      -8.590  20.660 -29.549  1.00  0.00     0.021 A 
ATOM     27  C   UNL     1      -7.370  20.369 -29.000  1.00  0.00     0.041 A 
ATOM     28  Cl  UNL     1      -6.117  19.605 -29.948  1.00  0.00    -0.084 Cl
ENDBRANCH  18  22
ENDBRANCH  12  13
ENDBRANCH   1  12
TORSDOF 7
ENDMDL
MODEL 2
REMARK VINA RESULT:     -10.2      0.062      1.309
REMARK SMILES O=C(CCC[NH+]1CCC(O)(c2ccc(Cl)cc2)CC1)c1ccc(F)cc1
REMARK SMILES IDX 4 1 3 2 2 3 1 4 20 5 21 6 26 7 22 8 25 9 23 10 24 11 5 12
REMARK SMILES IDX 6 13 7 14 19 15 8 16 18 17 9 18 10 20 11 22 12 23 17 24
REMARK SMILES IDX 13 25 16 26 14 27 15 28
REMARK H PARENT 6 19 10 21
ROOT
ATOM      1  C   UNL     1      -8.756  21.879 -22.034  1.00  0.00     0.070 C 
ENDROOT
BRANCH   1   2
ATOM      2  C   UNL     1      -9.792  21.233 -21.142  1.00  0.00     0.087 C 
BRANCH   2   3
ATOM      3  C   UNL     1     -10.811  22.156 -20.635  1.00  0.00     0.163 C 
ATOM      4  O   UNL     1     -10.717  23.398 -20.811  1.00  0.00    -0.294 OA
BRANCH   3   5
ATOM      5  C   UNL     1     -12.002  21.691 -19.894  1.00  0.00     0.018 A 
ATOM      6  C   UNL     1     -12.290  22.197 -18.639  1.00  0.00     0.015 A 
ATOM      7  C   UNL     1     -12.846  20.751 -20.430  1.00  0.00     0.015 A 
ATOM      8  C   UNL     1     -13.400  21.760 -17.955  1.00  0.00     0.040 A 
ATOM      9  C   UNL     1     -13.953  20.312 -19.755  1.00  0.00     0.040 A 
ATOM     10  C   UNL     1     -14.227  20.820 -18.514  1.00  0.00     0.123 A 
ATOM     11  F   UNL     1     -15.343  20.353 -17.868  1.00  0.00    -0.207 F 
ENDBRANCH   3   5
ENDBRANCH   2   3
ENDBRANCH   1   2
BRANCH   1  12
ATOM     12  C   UNL     1      -9.132  21.626 -23.453  1.00  0.00     0.262 C 
BRANCH  12  13
ATOM     13  N   UNL     1     -10.503  22.020 -23.751  1.00  0.00    -0.335 N 
ATOM     14  C   UNL     1     -10.578  23.294 -24.399  1.00  0.00     0.265 C 
ATOM     15  C   UNL     1     -11.144  21.014 -24.536  1.00  0.00     0.265 C 
ATOM     16  C   UNL     1      -9.828  23.296 -25.703  1.00  0.00     0.102 C 
ATOM     17  C   UNL     1     -11.347  21.307 -25.962  1.00  0.00     0.102 C 
ATOM     18  C   UNL     1     -10.425  22.268 -26.617  1.00  0.00     0.100 C 
ATOM     19  H   UNL     1     -10.960  22.140 -22.798  1.00  0.00     0.348 HD
BRANCH  18  20
ATOM     20  O   UNL     1     -11.187  22.988 -27.568  1.00  0.00    -0.385 OA
ATOM     21  H   UNL     1     -12.042  22.501 -27.673  1.00  0.00     0.211 HD
ENDBRANCH  18  20
BRANCH  18  22
ATOM     22  C   UNL     1      -9.364  21.586 -27.440  1.00  0.00    -0.016 A 
ATOM     23  C   UNL     1      -9.554  21.282 -28.772  1.00  0.00     0.008 A 
ATOM     24  C   UNL     1      -8.142  21.223 -26.919  1.00  0.00     0.008 A 
ATOM     25  C   UNL     1      -8.611  20.660 -29.558  1.00  0.00     0.021 A 
ATOM     26  C   UNL     1      -7.181  20.597 -27.688  1.00  0.00     0.021 A 
ATOM     27  C   UNL     1      -7.416  20.317 -29.007  1.00  0.00     0.041 A 
ATOM     28  Cl  UNL     1      -6.205  19.528 -29.988  1.00  0.00    -0.084 Cl
ENDBRANCH  18  22
ENDBRANCH  12  13
ENDBRANCH   1  12
TORSDOF 7
ENDMDL
MODEL 3
REMARK VINA RESULT:     -10.2      1.273      1.486
REMARK SMILES O=C(CCC[NH+]1CCC(O)(c2ccc(Cl)cc2)CC1)c1ccc(F)cc1
REMARK SMILES IDX 4 1 3 2 2 3 1 4 20 5 21 6 26 7 22 8 25 9 23 10 24 11 5 12
REMARK SMILES IDX 6 13 7 14 19 15 8 16 18 17 9 18 10 20 11 22 12 23 17 24
REMARK SMILES IDX 13 25 16 26 14 27 15 28
REMARK H PARENT 6 19 10 21
ROOT
ATOM      1  C   UNL     1      -9.289  21.543 -21.876  1.00  0.00     0.070 C 
ENDROOT
BRANCH   1   2
ATOM      2  C   UNL     1     -10.295  22.398 -21.138  1.00  0.00     0.087 C 
BRANCH   2   3
ATOM      3  C   UNL     1     -11.153  21.657 -20.211  1.00  0.00     0.163 C 
ATOM      4  O   UNL     1     -10.735  20.639 -19.601  1.00  0.00    -0.294 OA
BRANCH   3   5
ATOM      5  C   UNL     1     -12.549  22.054 -19.935  1.00  0.00     0.018 A 
ATOM      6  C   UNL     1     -13.069  21.952 -18.657  1.00  0.00     0.015 A 
ATOM      7  C   UNL     1     -13.360  22.530 -20.934  1.00  0.00     0.015 A 
ATOM      8  C   UNL     1     -14.369  22.322 -18.407  1.00  0.00     0.040 A 
ATOM      9  C   UNL     1     -14.655  22.901 -20.692  1.00  0.00     0.040 A 
ATOM     10  C   UNL     1     -15.157  22.796 -19.424  1.00  0.00     0.123 A 
ATOM     11  F   UNL     1     -16.459  23.175 -19.222  1.00  0.00    -0.207 F 
ENDBRANCH   3   5
ENDBRANCH   2   3
ENDBRANCH   1   2
BRANCH   1  12
ATOM     12  C   UNL     1      -9.463  21.766 -23.339  1.00  0.00     0.262 C 
BRANCH  12  13
ATOM     13  N   UNL     1     -10.842  22.066 -23.703  1.00  0.00    -0.335 N 
ATOM     14  C   UNL     1     -10.971  23.327 -24.368  1.00  0.00     0.265 C 
ATOM     15  C   UNL     1     -11.378  21.013 -24.504  1.00  0.00     0.265 C 
ATOM     16  C   UNL     1     -10.164  23.368 -25.636  1.00  0.00     0.102 C 
ATOM     17  C   UNL     1     -11.534  21.279 -25.941  1.00  0.00     0.102 C 
ATOM     18  C   UNL     1     -10.648  22.294 -26.564  1.00  0.00     0.100 C 
ATOM     19  H   UNL     1     -11.349  22.164 -22.773  1.00  0.00     0.348 HD
BRANCH  18  20
ATOM     20  O   UNL     1     -11.412  22.954 -27.558  1.00  0.00    -0.385 OA
ATOM     21  H   UNL     1     -11.238  22.481 -28.409  1.00  0.00     0.211 HD
ENDBRANCH  18  20
BRANCH  18  22
ATOM     22  C   UNL     1      -9.508  21.677 -27.331  1.00  0.00    -0.016 A 
ATOM     23  C   UNL     1      -8.298  21.387 -26.735  1.00  0.00     0.008 A 
ATOM     24  C   UNL     1      -9.599  21.364 -28.669  1.00  0.00     0.008 A 
ATOM     25  C   UNL     1      -7.232  20.824 -27.400  1.00  0.00     0.021 A 
ATOM     26  C   UNL     1      -8.543  20.800 -29.357  1.00  0.00     0.021 A 
ATOM     27  C   UNL     1      -7.361  20.530 -28.721  1.00  0.00     0.041 A 
ATOM     28  Cl  UNL     1      -6.020  19.813 -29.583  1.00  0.00    -0.084 Cl
ENDBRANCH  18  22
ENDBRANCH  12  13
ENDBRANCH   1  12
TORSDOF 7
ENDMDL
MODEL 4
REMARK VINA RESULT:     -10.2      1.253      1.570
REMARK SMILES O=C(CCC[NH+]1CCC(O)(c2ccc(Cl)cc2)CC1)c1ccc(F)cc1
REMARK SMILES IDX 4 1 3 2 2 3 1 4 20 5 21 6 26 7 22 8 25 9 23 10 24 11 5 12
REMARK SMILES IDX 6 13 7 14 19 15 8 16 18 17 9 18 10 20 11 22 12 23 17 24
REMARK SMILES IDX 13 25 16 26 14 27 15 28
REMARK H PARENT 6 19 10 21
ROOT
ATOM      1  C   UNL     1      -9.402  21.392 -21.874  1.00  0.00     0.070 C 
ENDROOT
BRANCH   1   2
ATOM      2  C   UNL     1     -10.297  22.300 -21.060  1.00  0.00     0.087 C 
BRANCH   2   3
ATOM      3  C   UNL     1     -11.164  21.599 -20.111  1.00  0.00     0.163 C 
ATOM      4  O   UNL     1     -10.750  20.615 -19.446  1.00  0.00    -0.294 OA
BRANCH   3   5
ATOM      5  C   UNL     1     -12.567  22.000 -19.874  1.00  0.00     0.018 A 
ATOM      6  C   UNL     1     -13.395  22.321 -20.936  1.00  0.00     0.015 A 
ATOM      7  C   UNL     1     -13.080  22.063 -18.604  1.00  0.00     0.015 A 
ATOM      8  C   UNL     1     -14.698  22.693 -20.709  1.00  0.00     0.040 A 
ATOM      9  C   UNL     1     -14.377  22.432 -18.370  1.00  0.00     0.040 A 
ATOM     10  C   UNL     1     -15.186  22.747 -19.428  1.00  0.00     0.123 A 
ATOM     11  F   UNL     1     -16.478  23.115 -19.154  1.00  0.00    -0.207 F 
ENDBRANCH   3   5
ENDBRANCH   2   3
ENDBRANCH   1   2
BRANCH   1  12
ATOM     12  C   UNL     1      -9.513  21.783 -23.308  1.00  0.00     0.262 C 
BRANCH  12  13
ATOM     13  N   UNL     1     -10.880  22.099 -23.701  1.00  0.00    -0.335 N 
ATOM     14  C   UNL     1     -10.977  23.358 -24.375  1.00  0.00     0.265 C 
ATOM     15  C   UNL     1     -11.414  21.051 -24.507  1.00  0.00     0.265 C 
ATOM     16  C   UNL     1     -10.144  23.381 -25.627  1.00  0.00     0.102 C 
ATOM     17  C   UNL     1     -11.537  21.311 -25.949  1.00  0.00     0.102 C 
ATOM     18  C   UNL     1     -10.625  22.310 -26.559  1.00  0.00     0.100 C 
ATOM     19  H   UNL     1     -11.404  22.210 -22.782  1.00  0.00     0.348 HD
BRANCH  18  20
ATOM     20  O   UNL     1     -11.359  22.975 -27.571  1.00  0.00    -0.385 OA
ATOM     21  H   UNL     1     -11.342  23.939 -27.345  1.00  0.00     0.211 HD
ENDBRANCH  18  20
BRANCH  18  22
ATOM     22  C   UNL     1      -9.478  21.672 -27.299  1.00  0.00    -0.016 A 
ATOM     23  C   UNL     1      -9.568  21.330 -28.632  1.00  0.00     0.008 A 
ATOM     24  C   UNL     1      -8.272  21.392 -26.696  1.00  0.00     0.008 A 
ATOM     25  C   UNL     1      -8.545  20.746 -29.344  1.00  0.00     0.021 A 
ATOM     26  C   UNL     1      -7.231  20.807 -27.390  1.00  0.00     0.021 A 
ATOM     27  C   UNL     1      -7.369  20.485 -28.713  1.00  0.00     0.041 A 
ATOM     28  Cl  UNL     1      -6.056  19.746 -29.599  1.00  0.00    -0.084 Cl
ENDBRANCH  18  22
ENDBRANCH  12  13
ENDBRANCH   1  12
TORSDOF 7
ENDMDL
MODEL 5
REMARK VINA RESULT:     -10.0      1.383      1.414
REMARK SMILES O=C(CCC[NH+]1CCC(O)(c2ccc(Cl)cc2)CC1)c1ccc(F)cc1
REMARK SMILES IDX 4 1 3 2 2 3 1 4 20 5 21 6 26 7 22 8 25 9 23 10 24 11 5 12
REMARK SMILES IDX 6 13 7 14 19 15 8 16 18 17 9 18 10 20 11 22 12 23 17 24
REMARK SMILES IDX 13 25 16 26 14 27 15 28
REMARK H PARENT 6 19 10 21
ROOT
ATOM      1  C   UNL     1      -9.633  21.568 -21.803  1.00  0.00     0.070 C 
ENDROOT
BRANCH   1   2
ATOM      2  C   UNL     1     -10.860  21.008 -21.117  1.00  0.00     0.087 C 
BRANCH   2   3
ATOM      3  C   UNL     1     -11.384  21.849 -20.038  1.00  0.00     0.163 C 
ATOM      4  O   UNL     1     -10.636  22.292 -19.128  1.00  0.00    -0.294 OA
BRANCH   3   5
ATOM      5  C   UNL     1     -12.810  22.228 -19.951  1.00  0.00     0.018 A 
ATOM      6  C   UNL     1     -13.462  22.765 -21.047  1.00  0.00     0.015 A 
ATOM      7  C   UNL     1     -13.517  22.057 -18.789  1.00  0.00     0.015 A 
ATOM      8  C   UNL     1     -14.788  23.116 -20.959  1.00  0.00     0.040 A 
ATOM      9  C   UNL     1     -14.838  22.404 -18.694  1.00  0.00     0.040 A 
ATOM     10  C   UNL     1     -15.472  22.934 -19.784  1.00  0.00     0.123 A 
ATOM     11  F   UNL     1     -16.794  23.271 -19.650  1.00  0.00    -0.207 F 
ENDBRANCH   3   5
ENDBRANCH   2   3
ENDBRANCH   1   2
BRANCH   1  12
ATOM     12  C   UNL     1      -9.820  21.444 -23.276  1.00  0.00     0.262 C 
BRANCH  12  13
ATOM     13  N   UNL     1     -11.154  21.839 -23.710  1.00  0.00    -0.335 N 
ATOM     14  C   UNL     1     -11.183  23.163 -24.254  1.00  0.00     0.265 C 
ATOM     15  C   UNL     1     -11.665  20.894 -24.649  1.00  0.00     0.265 C 
ATOM     16  C   UNL     1     -10.278  23.289 -25.449  1.00  0.00     0.102 C 
ATOM     17  C   UNL     1     -11.698  21.303 -26.060  1.00  0.00     0.102 C 
ATOM     18  C   UNL     1     -10.728  22.332 -26.513  1.00  0.00     0.100 C 
ATOM     19  H   UNL     1     -11.728  21.870 -22.815  1.00  0.00     0.348 HD
BRANCH  18  20
ATOM     20  O   UNL     1     -11.387  23.118 -27.489  1.00  0.00    -0.385 OA
ATOM     21  H   UNL     1     -12.357  23.041 -27.307  1.00  0.00     0.211 HD
ENDBRANCH  18  20
BRANCH  18  22
ATOM     22  C   UNL     1      -9.556  21.740 -27.250  1.00  0.00    -0.016 A 
ATOM     23  C   UNL     1      -8.349  21.494 -26.628  1.00  0.00     0.008 A 
ATOM     24  C   UNL     1      -9.612  21.409 -28.586  1.00  0.00     0.008 A 
ATOM     25  C   UNL     1      -7.254  20.955 -27.265  1.00  0.00     0.021 A 
ATOM     26  C   UNL     1      -8.526  20.868 -29.246  1.00  0.00     0.021 A 
ATOM     27  C   UNL     1      -7.349  20.642 -28.585  1.00  0.00     0.041 A 
ATOM     28  Cl  UNL     1      -5.971  19.956 -29.412  1.00  0.00    -0.084 Cl
ENDBRANCH  18  22
ENDBRANCH  12  13
ENDBRANCH   1  12
TORSDOF 7
ENDMDL
MODEL 6
REMARK VINA RESULT:      -9.7      4.496      8.978
REMARK SMILES O=C(CCC[NH+]1CCC(O)(c2ccc(Cl)cc2)CC1)c1ccc(F)cc1
REMARK SMILES IDX 4 1 3 2 2 3 1 4 20 5 21 6 26 7 22 8 25 9 23 10 24 11 5 12
REMARK SMILES IDX 6 13 7 14 19 15 8 16 18 17 9 18 10 20 11 22 12 23 17 24
REMARK SMILES IDX 13 25 16 26 14 27 15 28
REMARK H PARENT 6 19 10 21
ROOT
ATOM      1  C   UNL     1     -10.158  21.480 -27.975  1.00  0.00     0.070 C 
ENDROOT
BRANCH   1   2
ATOM      2  C   UNL     1      -8.805  21.613 -28.638  1.00  0.00     0.087 C 
BRANCH   2   3
ATOM      3  C   UNL     1      -8.327  20.389 -29.284  1.00  0.00     0.163 C 
ATOM      4  O   UNL     1      -9.073  19.708 -30.035  1.00  0.00    -0.294 OA
BRANCH   3   5
ATOM      5  C   UNL     1      -6.951  19.882 -29.099  1.00  0.00     0.018 A 
ATOM      6  C   UNL     1      -6.591  19.241 -27.928  1.00  0.00     0.015 A 
ATOM      7  C   UNL     1      -6.005  20.033 -30.080  1.00  0.00     0.015 A 
ATOM      8  C   UNL     1      -5.309  18.771 -27.762  1.00  0.00     0.040 A 
ATOM      9  C   UNL     1      -4.727  19.567 -29.922  1.00  0.00     0.040 A 
ATOM     10  C   UNL     1      -4.382  18.935 -28.759  1.00  0.00     0.123 A 
ATOM     11  F   UNL     1      -3.093  18.486 -28.637  1.00  0.00    -0.207 F 
ENDBRANCH   3   5
ENDBRANCH   2   3
ENDBRANCH   1   2
BRANCH   1  12
ATOM     12  C   UNL     1     -10.036  21.932 -26.560  1.00  0.00     0.262 C 
BRANCH  12  13
ATOM     13  N   UNL     1      -8.652  22.024 -26.115  1.00  0.00    -0.335 N 
ATOM     14  C   UNL     1      -8.350  23.291 -25.523  1.00  0.00     0.265 C 
ATOM     15  C   UNL     1      -8.354  20.959 -25.213  1.00  0.00     0.265 C 
ATOM     16  C   UNL     1      -9.215  23.560 -24.322  1.00  0.00     0.102 C 
ATOM     17  C   UNL     1      -8.244  21.301 -23.788  1.00  0.00     0.102 C 
ATOM     18  C   UNL     1      -8.980  22.492 -23.296  1.00  0.00     0.100 C 
ATOM     19  H   UNL     1      -8.079  21.967 -27.010  1.00  0.00     0.348 HD
BRANCH  18  20
ATOM     20  O   UNL     1      -8.177  23.088 -22.292  1.00  0.00    -0.385 OA
ATOM     21  H   UNL     1      -8.407  24.051 -22.281  1.00  0.00     0.211 HD
ENDBRANCH  18  20
BRANCH  18  22
ATOM     22  C   UNL     1     -10.254  22.132 -22.578  1.00  0.00    -0.016 A 
ATOM     23  C   UNL     1     -11.483  22.604 -22.988  1.00  0.00     0.008 A 
ATOM     24  C   UNL     1     -10.274  21.312 -21.471  1.00  0.00     0.008 A 
ATOM     25  C   UNL     1     -12.670  22.300 -22.360  1.00  0.00     0.021 A 
ATOM     26  C   UNL     1     -11.451  20.993 -20.824  1.00  0.00     0.021 A 
ATOM     27  C   UNL     1     -12.648  21.487 -21.270  1.00  0.00     0.041 A 
ATOM     28  Cl  UNL     1     -14.143  21.086 -20.459  1.00  0.00    -0.084 Cl
ENDBRANCH  18  22
ENDBRANCH  12  13
ENDBRANCH   1  12
TORSDOF 7
ENDMDL
MODEL 7
REMARK VINA RESULT:      -9.7      4.471      8.902
REMARK SMILES O=C(CCC[NH+]1CCC(O)(c2ccc(Cl)cc2)CC1)c1ccc(F)cc1
REMARK SMILES IDX 4 1 3 2 2 3 1 4 20 5 21 6 26 7 22 8 25 9 23 10 24 11 5 12
REMARK SMILES IDX 6 13 7 14 19 15 8 16 18 17 9 18 10 20 11 22 12 23 17 24
REMARK SMILES IDX 13 25 16 26 14 27 15 28
REMARK H PARENT 6 19 10 21
ROOT
ATOM      1  C   UNL     1     -10.262  21.370 -27.995  1.00  0.00     0.070 C 
ENDROOT
BRANCH   1   2
ATOM      2  C   UNL     1      -8.931  21.591 -28.680  1.00  0.00     0.087 C 
BRANCH   2   3
ATOM      3  C   UNL     1      -8.377  20.396 -29.320  1.00  0.00     0.163 C 
ATOM      4  O   UNL     1      -9.069  19.681 -30.089  1.00  0.00    -0.294 OA
BRANCH   3   5
ATOM      5  C   UNL     1      -6.981  19.959 -29.105  1.00  0.00     0.018 A 
ATOM      6  C   UNL     1      -6.012  20.210 -30.060  1.00  0.00     0.015 A 
ATOM      7  C   UNL     1      -6.616  19.297 -27.961  1.00  0.00     0.015 A 
ATOM      8  C   UNL     1      -4.716  19.800 -29.855  1.00  0.00     0.040 A 
ATOM      9  C   UNL     1      -5.327  18.886 -27.750  1.00  0.00     0.040 A 
ATOM     10  C   UNL     1      -4.377  19.140 -28.701  1.00  0.00     0.123 A 
ATOM     11  F   UNL     1      -3.098  18.711 -28.455  1.00  0.00    -0.207 F 
ENDBRANCH   3   5
ENDBRANCH   2   3
ENDBRANCH   1   2
BRANCH   1  12
ATOM     12  C   UNL     1     -10.126  21.763 -26.564  1.00  0.00     0.262 C 
BRANCH  12  13
ATOM     13  N   UNL     1      -8.738  21.936 -26.156  1.00  0.00    -0.335 N 
ATOM     14  C   UNL     1      -8.482  23.242 -25.628  1.00  0.00     0.265 C 
ATOM     15  C   UNL     1      -8.374  20.928 -25.215  1.00  0.00     0.265 C 
ATOM     16  C   UNL     1      -9.332  23.526 -24.421  1.00  0.00     0.102 C 
ATOM     17  C   UNL     1      -8.249  21.339 -23.809  1.00  0.00     0.102 C 
ATOM     18  C   UNL     1      -9.027  22.518 -23.354  1.00  0.00     0.100 C 
ATOM     19  H   UNL     1      -8.183  21.864 -27.060  1.00  0.00     0.348 HD
BRANCH  18  20
ATOM     20  O   UNL     1      -8.230  23.194 -22.397  1.00  0.00    -0.385 OA
ATOM     21  H   UNL     1      -8.856  23.640 -21.773  1.00  0.00     0.211 HD
ENDBRANCH  18  20
BRANCH  18  22
ATOM     22  C   UNL     1     -10.268  22.135 -22.591  1.00  0.00    -0.016 A 
ATOM     23  C   UNL     1     -10.221  21.317 -21.481  1.00  0.00     0.008 A 
ATOM     24  C   UNL     1     -11.523  22.575 -22.950  1.00  0.00     0.008 A 
ATOM     25  C   UNL     1     -11.331  20.944 -20.757  1.00  0.00     0.021 A 
ATOM     26  C   UNL     1     -12.650  22.213 -22.239  1.00  0.00     0.021 A 
ATOM     27  C   UNL     1     -12.553  21.399 -21.144  1.00  0.00     0.041 A 
ATOM     28  Cl  UNL     1     -13.974  20.938 -20.237  1.00  0.00    -0.084 Cl
ENDBRANCH  18  22
ENDBRANCH  12  13
ENDBRANCH   1  12
TORSDOF 7
ENDMDL
MODEL 8
REMARK VINA RESULT:      -9.4      0.450      1.020
REMARK SMILES O=C(CCC[NH+]1CCC(O)(c2ccc(Cl)cc2)CC1)c1ccc(F)cc1
REMARK SMILES IDX 4 1 3 2 2 3 1 4 20 5 21 6 26 7 22 8 25 9 23 10 24 11 5 12
REMARK SMILES IDX 6 13 7 14 19 15 8 16 18 17 9 18 10 20 11 22 12 23 17 24
REMARK SMILES IDX 13 25 16 26 14 27 15 28
REMARK H PARENT 6 19 10 21
ROOT
ATOM      1  C   UNL     1      -9.241  22.080 -22.635  1.00  0.00     0.070 C 
ENDROOT
BRANCH   1   2
ATOM      2  C   UNL     1      -9.575  21.657 -21.222  1.00  0.00     0.087 C 
BRANCH   2   3
ATOM      3  C   UNL     1     -10.612  22.467 -20.580  1.00  0.00     0.163 C 
ATOM      4  O   UNL     1     -10.558  23.724 -20.579  1.00  0.00    -0.294 OA
BRANCH   3   5
ATOM      5  C   UNL     1     -11.778  21.866 -19.899  1.00  0.00     0.018 A 
ATOM      6  C   UNL     1     -12.535  20.894 -20.529  1.00  0.00     0.015 A 
ATOM      7  C   UNL     1     -12.136  22.254 -18.633  1.00  0.00     0.015 A 
ATOM      8  C   UNL     1     -13.619  20.339 -19.890  1.00  0.00     0.040 A 
ATOM      9  C   UNL     1     -13.213  21.706 -17.991  1.00  0.00     0.040 A 
ATOM     10  C   UNL     1     -13.954  20.746 -18.624  1.00  0.00     0.123 A 
ATOM     11  F   UNL     1     -15.027  20.222 -17.950  1.00  0.00    -0.207 F 
ENDBRANCH   3   5
ENDBRANCH   2   3
ENDBRANCH   1   2
BRANCH   1  12
ATOM     12  C   UNL     1      -9.903  21.135 -23.578  1.00  0.00     0.262 C 
BRANCH  12  13
ATOM     13  N   UNL     1     -11.177  21.637 -24.076  1.00  0.00    -0.335 N 
ATOM     14  C   UNL     1     -11.087  22.986 -24.548  1.00  0.00     0.265 C 
ATOM     15  C   UNL     1     -11.680  20.776 -25.097  1.00  0.00     0.265 C 
ATOM     16  C   UNL     1     -10.096  23.113 -25.672  1.00  0.00     0.102 C 
ATOM     17  C   UNL     1     -11.590  21.258 -26.483  1.00  0.00     0.102 C 
ATOM     18  C   UNL     1     -10.531  22.243 -26.814  1.00  0.00     0.100 C 
ATOM     19  H   UNL     1     -11.808  21.661 -23.221  1.00  0.00     0.348 HD
BRANCH  18  20
ATOM     20  O   UNL     1     -11.071  23.119 -27.787  1.00  0.00    -0.385 OA
ATOM     21  H   UNL     1     -12.053  23.000 -27.760  1.00  0.00     0.211 HD
ENDBRANCH  18  20
BRANCH  18  22
ATOM     22  C   UNL     1      -9.349  21.614 -27.504  1.00  0.00    -0.016 A 
ATOM     23  C   UNL     1      -9.388  21.244 -28.832  1.00  0.00     0.008 A 
ATOM     24  C   UNL     1      -8.158  21.370 -26.857  1.00  0.00     0.008 A 
ATOM     25  C   UNL     1      -8.332  20.668 -29.499  1.00  0.00     0.021 A 
ATOM     26  C   UNL     1      -7.084  20.792 -27.505  1.00  0.00     0.021 A 
ATOM     27  C   UNL     1      -7.172  20.442 -28.825  1.00  0.00     0.041 A 
ATOM     28  Cl  UNL     1      -5.818  19.712 -29.654  1.00  0.00    -0.084 Cl
ENDBRANCH  18  22
ENDBRANCH  12  13
ENDBRANCH   1  12
TORSDOF 7
ENDMDL
MODEL 9
REMARK VINA RESULT:      -9.3      4.427      8.749
REMARK SMILES O=C(CCC[NH+]1CCC(O)(c2ccc(Cl)cc2)CC1)c1ccc(F)cc1
REMARK SMILES IDX 4 1 3 2 2 3 1 4 20 5 21 6 26 7 22 8 25 9 23 10 24 11 5 12
REMARK SMILES IDX 6 13 7 14 19 15 8 16 18 17 9 18 10 20 11 22 12 23 17 24
REMARK SMILES IDX 13 25 16 26 14 27 15 28
REMARK H PARENT 6 19 10 21
ROOT
ATOM      1  C   UNL     1     -12.062  22.869 -24.728  1.00  0.00     0.070 C 
ENDROOT
BRANCH   1   2
ATOM      2  C   UNL     1     -11.595  23.013 -26.159  1.00  0.00     0.087 C 
BRANCH   2   3
ATOM      3  C   UNL     1     -11.159  21.761 -26.780  1.00  0.00     0.163 C 
ATOM      4  O   UNL     1     -11.915  20.756 -26.833  1.00  0.00    -0.294 OA
BRANCH   3   5
ATOM      5  C   UNL     1      -9.817  21.598 -27.379  1.00  0.00     0.018 A 
ATOM      6  C   UNL     1      -9.680  21.285 -28.719  1.00  0.00     0.015 A 
ATOM      7  C   UNL     1      -8.683  21.754 -26.624  1.00  0.00     0.015 A 
ATOM      8  C   UNL     1      -8.429  21.135 -29.270  1.00  0.00     0.040 A 
ATOM      9  C   UNL     1      -7.434  21.607 -27.165  1.00  0.00     0.040 A 
ATOM     10  C   UNL     1      -7.311  21.297 -28.492  1.00  0.00     0.123 A 
ATOM     11  F   UNL     1      -6.044  21.155 -28.998  1.00  0.00    -0.207 F 
ENDBRANCH   3   5
ENDBRANCH   2   3
ENDBRANCH   1   2
BRANCH   1  12
ATOM     12  C   UNL     1     -10.982  23.361 -23.827  1.00  0.00     0.262 C 
BRANCH  12  13
ATOM     13  N   UNL     1     -10.127  22.288 -23.335  1.00  0.00    -0.335 N 
ATOM     14  C   UNL     1      -9.441  22.644 -22.130  1.00  0.00     0.265 C 
ATOM     15  C   UNL     1     -10.890  21.097 -23.150  1.00  0.00     0.265 C 
ATOM     16  C   UNL     1     -10.404  22.979 -21.024  1.00  0.00     0.102 C 
ATOM     17  C   UNL     1     -11.209  20.714 -21.768  1.00  0.00     0.102 C 
ATOM     18  C   UNL     1     -11.265  21.785 -20.741  1.00  0.00     0.100 C 
ATOM     19  H   UNL     1      -9.380  22.177 -24.084  1.00  0.00     0.348 HD
BRANCH  18  20
ATOM     20  O   UNL     1     -10.771  21.227 -19.536  1.00  0.00    -0.385 OA
ATOM     21  H   UNL     1     -10.347  21.968 -19.035  1.00  0.00     0.211 HD
ENDBRANCH  18  20
BRANCH  18  22
ATOM     22  C   UNL     1     -12.675  22.193 -20.404  1.00  0.00    -0.016 A 
ATOM     23  C   UNL     1     -13.432  22.976 -21.250  1.00  0.00     0.008 A 
ATOM     24  C   UNL     1     -13.295  21.815 -19.234  1.00  0.00     0.008 A 
ATOM     25  C   UNL     1     -14.722  23.371 -20.980  1.00  0.00     0.021 A 
ATOM     26  C   UNL     1     -14.589  22.199 -18.941  1.00  0.00     0.021 A 
ATOM     27  C   UNL     1     -15.301  22.976 -19.814  1.00  0.00     0.041 A 
ATOM     28  Cl  UNL     1     -16.939  23.466 -19.452  1.00  0.00    -0.084 Cl
ENDBRANCH  18  22
ENDBRANCH  12  13
ENDBRANCH   1  12
TORSDOF 7
ENDMDL
