MODEL 1
REMARK VINA RESULT:      -8.4      0.000      0.000
REMARK SMILES Clc1ccccc1C(c1ccccc1)(c1ccccc1)n1ccnc1
REMARK SMILES IDX 1 1 2 2 3 3 4 4 5 5 6 6 7 7 8 8 9 9 10 10 14 11 11 12 13 13
REMARK SMILES IDX 12 14 15 15 16 16 20 17 17 18 19 19 18 20 21 21 22 22 25 23
REMARK SMILES IDX 23 24 24 25
REMARK H PARENT
ROOT
ATOM      1  Cl  UNL     1     -29.149 -33.250  12.278  1.00  0.00    -0.084 Cl
ATOM      2  C   UNL     1     -28.485 -33.744  10.737  1.00  0.00     0.047 A 
ATOM      3  C   UNL     1     -29.236 -34.442   9.819  1.00  0.00     0.021 A 
ATOM      4  C   UNL     1     -28.727 -34.805   8.591  1.00  0.00     0.002 A 
ATOM      5  C   UNL     1     -27.433 -34.449   8.299  1.00  0.00     0.001 A 
ATOM      6  C   UNL     1     -26.669 -33.739   9.235  1.00  0.00     0.008 A 
ATOM      7  C   UNL     1     -27.179 -33.385  10.446  1.00  0.00     0.006 A 
ENDROOT
BRANCH   7   8
ATOM      8  C   UNL     1     -26.340 -32.653  11.434  1.00  0.00     0.123 C 
BRANCH   8   9
ATOM      9  C   UNL     1     -26.941 -31.304  11.630  1.00  0.00    -0.013 A 
ATOM     10  C   UNL     1     -27.023 -30.636  12.808  1.00  0.00     0.007 A 
ATOM     11  C   UNL     1     -27.439 -30.703  10.458  1.00  0.00     0.007 A 
ATOM     12  C   UNL     1     -27.596 -29.376  12.836  1.00  0.00     0.000 A 
ATOM     13  C   UNL     1     -28.004 -29.455  10.495  1.00  0.00     0.000 A 
ATOM     14  C   UNL     1     -28.093 -28.770  11.683  1.00  0.00     0.000 A 
ENDBRANCH   8   9
BRANCH   8  15
ATOM     15  C   UNL     1     -24.987 -32.366  10.886  1.00  0.00    -0.013 A 
ATOM     16  C   UNL     1     -24.558 -31.106  10.562  1.00  0.00     0.007 A 
ATOM     17  C   UNL     1     -24.114 -33.410  10.718  1.00  0.00     0.007 A 
ATOM     18  C   UNL     1     -23.279 -30.864  10.074  1.00  0.00     0.000 A 
ATOM     19  C   UNL     1     -22.817 -33.190  10.225  1.00  0.00     0.000 A 
ATOM     20  C   UNL     1     -22.417 -31.921   9.910  1.00  0.00     0.000 A 
ENDBRANCH   8  15
BRANCH   8  21
ATOM     21  N   UNL     1     -26.219 -33.417  12.640  1.00  0.00    -0.319 N 
ATOM     22  C   UNL     1     -26.222 -32.915  13.906  1.00  0.00     0.109 A 
ATOM     23  C   UNL     1     -26.106 -34.740  12.749  1.00  0.00     0.200 A 
ATOM     24  C   UNL     1     -26.106 -33.954  14.802  1.00  0.00     0.131 A 
ATOM     25  N   UNL     1     -26.038 -35.060  14.069  1.00  0.00    -0.245 NA
ENDBRANCH   8  21
ENDBRANCH   7   8
TORSDOF 4
ENDMDL
MODEL 2
REMARK VINA RESULT:      -8.3      0.495      1.538
REMARK SMILES Clc1ccccc1C(c1ccccc1)(c1ccccc1)n1ccnc1
REMARK SMILES IDX 1 1 2 2 3 3 4 4 5 5 6 6 7 7 8 8 9 9 10 10 14 11 11 12 13 13
REMARK SMILES IDX 12 14 15 15 16 16 20 17 17 18 19 19 18 20 21 21 22 22 25 23
REMARK SMILES IDX 23 24 24 25
REMARK H PARENT
ROOT
ATOM      1  Cl  UNL     1     -29.077 -33.399  12.440  1.00  0.00    -0.084 Cl
ATOM      2  C   UNL     1     -28.464 -33.836  10.861  1.00  0.00     0.047 A 
ATOM      3  C   UNL     1     -29.233 -34.530   9.956  1.00  0.00     0.021 A 
ATOM      4  C   UNL     1     -28.765 -34.848   8.699  1.00  0.00     0.002 A 
ATOM      5  C   UNL     1     -27.493 -34.451   8.366  1.00  0.00     0.001 A 
ATOM      6  C   UNL     1     -26.711 -33.745   9.289  1.00  0.00     0.008 A 
ATOM      7  C   UNL     1     -27.180 -33.435  10.528  1.00  0.00     0.006 A 
ENDROOT
BRANCH   7   8
ATOM      8  C   UNL     1     -26.321 -32.706  11.501  1.00  0.00     0.123 C 
BRANCH   8   9
ATOM      9  C   UNL     1     -26.927 -31.364  11.727  1.00  0.00    -0.013 A 
ATOM     10  C   UNL     1     -27.753 -30.712  10.872  1.00  0.00     0.007 A 
ATOM     11  C   UNL     1     -26.594 -30.766  12.958  1.00  0.00     0.007 A 
ATOM     12  C   UNL     1     -28.255 -29.471  11.225  1.00  0.00     0.000 A 
ATOM     13  C   UNL     1     -27.096 -29.537  13.300  1.00  0.00     0.000 A 
ATOM     14  C   UNL     1     -27.934 -28.868  12.440  1.00  0.00     0.000 A 
ENDBRANCH   8   9
BRANCH   8  15
ATOM     15  C   UNL     1     -24.986 -32.402  10.920  1.00  0.00    -0.013 A 
ATOM     16  C   UNL     1     -23.996 -33.339  10.775  1.00  0.00     0.007 A 
ATOM     17  C   UNL     1     -24.737 -31.126  10.484  1.00  0.00     0.007 A 
ATOM     18  C   UNL     1     -22.765 -33.031  10.207  1.00  0.00     0.000 A 
ATOM     19  C   UNL     1     -23.500 -30.791   9.907  1.00  0.00     0.000 A 
ATOM     20  C   UNL     1     -22.532 -31.747   9.776  1.00  0.00     0.000 A 
ENDBRANCH   8  15
BRANCH   8  21
ATOM     21  N   UNL     1     -26.162 -33.481  12.696  1.00  0.00    -0.319 N 
ATOM     22  C   UNL     1     -25.844 -34.804  12.753  1.00  0.00     0.109 A 
ATOM     23  C   UNL     1     -26.270 -33.054  13.954  1.00  0.00     0.200 A 
ATOM     24  C   UNL     1     -25.760 -35.189  14.073  1.00  0.00     0.131 A 
ATOM     25  N   UNL     1     -26.025 -34.100  14.786  1.00  0.00    -0.245 NA
ENDBRANCH   8  21
ENDBRANCH   7   8
TORSDOF 4
ENDMDL
MODEL 3
REMARK VINA RESULT:      -8.3      0.520      1.239
REMARK SMILES Clc1ccccc1C(c1ccccc1)(c1ccccc1)n1ccnc1
REMARK SMILES IDX 1 1 2 2 3 3 4 4 5 5 6 6 7 7 8 8 9 9 10 10 14 11 11 12 13 13
REMARK SMILES IDX 12 14 15 15 16 16 20 17 17 18 19 19 18 20 21 21 22 22 25 23
REMARK SMILES IDX 23 24 24 25
REMARK H PARENT
ROOT
ATOM      1  Cl  UNL     1     -29.160 -33.045  12.654  1.00  0.00    -0.084 Cl
ATOM      2  C   UNL     1     -28.584 -33.551  11.082  1.00  0.00     0.047 A 
ATOM      3  C   UNL     1     -29.378 -34.274  10.221  1.00  0.00     0.021 A 
ATOM      4  C   UNL     1     -28.939 -34.646   8.969  1.00  0.00     0.002 A 
ATOM      5  C   UNL     1     -27.671 -34.274   8.594  1.00  0.00     0.001 A 
ATOM      6  C   UNL     1     -26.864 -33.538   9.471  1.00  0.00     0.008 A 
ATOM      7  C   UNL     1     -27.304 -33.175  10.706  1.00  0.00     0.006 A 
ENDROOT
BRANCH   7   8
ATOM      8  C   UNL     1     -26.419 -32.415  11.630  1.00  0.00     0.123 C 
BRANCH   8   9
ATOM      9  C   UNL     1     -27.006 -31.057  11.809  1.00  0.00    -0.013 A 
ATOM     10  C   UNL     1     -27.058 -30.362  12.973  1.00  0.00     0.007 A 
ATOM     11  C   UNL     1     -27.525 -30.479  10.635  1.00  0.00     0.007 A 
ATOM     12  C   UNL     1     -27.621 -29.098  12.985  1.00  0.00     0.000 A 
ATOM     13  C   UNL     1     -28.080 -29.226  10.656  1.00  0.00     0.000 A 
ATOM     14  C   UNL     1     -28.139 -28.514  11.829  1.00  0.00     0.000 A 
ENDBRANCH   8   9
BRANCH   8  15
ATOM     15  C   UNL     1     -25.092 -32.153  11.013  1.00  0.00    -0.013 A 
ATOM     16  C   UNL     1     -24.164 -33.133  10.775  1.00  0.00     0.007 A 
ATOM     17  C   UNL     1     -24.786 -30.869  10.639  1.00  0.00     0.007 A 
ATOM     18  C   UNL     1     -22.940 -32.862  10.175  1.00  0.00     0.000 A 
ATOM     19  C   UNL     1     -23.555 -30.570  10.032  1.00  0.00     0.000 A 
ATOM     20  C   UNL     1     -22.649 -31.570   9.807  1.00  0.00     0.000 A 
ENDBRANCH   8  15
BRANCH   8  21
ATOM     21  N   UNL     1     -26.246 -33.140  12.855  1.00  0.00    -0.319 N 
ATOM     22  C   UNL     1     -26.016 -34.477  12.965  1.00  0.00     0.109 A 
ATOM     23  C   UNL     1     -26.256 -32.645  14.092  1.00  0.00     0.200 A 
ATOM     24  C   UNL     1     -25.885 -34.802  14.297  1.00  0.00     0.131 A 
ATOM     25  N   UNL     1     -26.036 -33.664  14.965  1.00  0.00    -0.245 NA
ENDBRANCH   8  21
ENDBRANCH   7   8
TORSDOF 4
ENDMDL
MODEL 4
REMARK VINA RESULT:      -8.1      1.784      4.439
REMARK SMILES Clc1ccccc1C(c1ccccc1)(c1ccccc1)n1ccnc1
REMARK SMILES IDX 1 1 2 2 3 3 4 4 5 5 6 6 7 7 8 8 9 9 10 10 14 11 11 12 13 13
REMARK SMILES IDX 12 14 15 15 16 16 20 17 17 18 19 19 18 20 21 21 22 22 25 23
REMARK SMILES IDX 23 24 24 25
REMARK H PARENT
ROOT
ATOM      1  Cl  UNL     1     -26.738 -31.339   8.645  1.00  0.00    -0.084 Cl
ATOM      2  C   UNL     1     -27.564 -32.694   9.381  1.00  0.00     0.047 A 
ATOM      3  C   UNL     1     -28.335 -33.558   8.638  1.00  0.00     0.021 A 
ATOM      4  C   UNL     1     -28.961 -34.646   9.208  1.00  0.00     0.002 A 
ATOM      5  C   UNL     1     -28.795 -34.851  10.556  1.00  0.00     0.001 A 
ATOM      6  C   UNL     1     -28.010 -33.970  11.312  1.00  0.00     0.008 A 
ATOM      7  C   UNL     1     -27.396 -32.898  10.741  1.00  0.00     0.006 A 
ENDROOT
BRANCH   7   8
ATOM      8  C   UNL     1     -26.588 -31.962  11.569  1.00  0.00     0.123 C 
BRANCH   8   9
ATOM      9  C   UNL     1     -25.208 -31.930  11.005  1.00  0.00    -0.013 A 
ATOM     10  C   UNL     1     -24.506 -30.813  10.690  1.00  0.00     0.007 A 
ATOM     11  C   UNL     1     -24.619 -33.194  10.815  1.00  0.00     0.007 A 
ATOM     12  C   UNL     1     -23.223 -30.938  10.187  1.00  0.00     0.000 A 
ATOM     13  C   UNL     1     -23.347 -33.308  10.318  1.00  0.00     0.000 A 
ATOM     14  C   UNL     1     -22.627 -32.184   9.994  1.00  0.00     0.000 A 
ENDBRANCH   8   9
BRANCH   8  15
ATOM     15  C   UNL     1     -26.398 -32.487  12.948  1.00  0.00    -0.013 A 
ATOM     16  C   UNL     1     -26.105 -33.797  13.222  1.00  0.00     0.007 A 
ATOM     17  C   UNL     1     -26.496 -31.612  14.000  1.00  0.00     0.007 A 
ATOM     18  C   UNL     1     -25.909 -34.254  14.520  1.00  0.00     0.000 A 
ATOM     19  C   UNL     1     -26.302 -32.052  15.321  1.00  0.00     0.000 A 
ATOM     20  C   UNL     1     -26.012 -33.366  15.563  1.00  0.00     0.000 A 
ENDBRANCH   8  15
BRANCH   8  21
ATOM     21  N   UNL     1     -27.223 -30.679  11.625  1.00  0.00    -0.319 N 
ATOM     22  C   UNL     1     -26.588 -29.474  11.620  1.00  0.00     0.109 A 
ATOM     23  C   UNL     1     -28.531 -30.427  11.669  1.00  0.00     0.200 A 
ATOM     24  C   UNL     1     -27.531 -28.470  11.664  1.00  0.00     0.131 A 
ATOM     25  N   UNL     1     -28.710 -29.080  11.693  1.00  0.00    -0.245 NA
ENDBRANCH   8  21
ENDBRANCH   7   8
TORSDOF 4
ENDMDL
MODEL 5
REMARK VINA RESULT:      -7.9      1.745      4.445
REMARK SMILES Clc1ccccc1C(c1ccccc1)(c1ccccc1)n1ccnc1
REMARK SMILES IDX 1 1 2 2 3 3 4 4 5 5 6 6 7 7 8 8 9 9 10 10 14 11 11 12 13 13
REMARK SMILES IDX 12 14 15 15 16 16 20 17 17 18 19 19 18 20 21 21 22 22 25 23
REMARK SMILES IDX 23 24 24 25
REMARK H PARENT
ROOT
ATOM      1  Cl  UNL     1     -26.670 -31.460   8.647  1.00  0.00    -0.084 Cl
ATOM      2  C   UNL     1     -27.550 -32.771   9.401  1.00  0.00     0.047 A 
ATOM      3  C   UNL     1     -28.365 -33.606   8.672  1.00  0.00     0.021 A 
ATOM      4  C   UNL     1     -29.034 -34.659   9.257  1.00  0.00     0.002 A 
ATOM      5  C   UNL     1     -28.866 -34.860  10.605  1.00  0.00     0.001 A 
ATOM      6  C   UNL     1     -28.036 -34.009  11.346  1.00  0.00     0.008 A 
ATOM      7  C   UNL     1     -27.380 -32.970  10.762  1.00  0.00     0.006 A 
ENDROOT
BRANCH   7   8
ATOM      8  C   UNL     1     -26.523 -32.065  11.574  1.00  0.00     0.123 C 
BRANCH   8   9
ATOM      9  C   UNL     1     -25.143 -32.116  11.013  1.00  0.00    -0.013 A 
ATOM     10  C   UNL     1     -24.451 -33.243  10.713  1.00  0.00     0.007 A 
ATOM     11  C   UNL     1     -24.555 -30.859  10.778  1.00  0.00     0.007 A 
ATOM     12  C   UNL     1     -23.178 -33.137  10.181  1.00  0.00     0.000 A 
ATOM     13  C   UNL     1     -23.294 -30.763  10.249  1.00  0.00     0.000 A 
ATOM     14  C   UNL     1     -22.583 -31.898   9.941  1.00  0.00     0.000 A 
ENDBRANCH   8   9
BRANCH   8  15
ATOM     15  C   UNL     1     -26.363 -32.574  12.963  1.00  0.00    -0.013 A 
ATOM     16  C   UNL     1     -25.975 -33.855  13.255  1.00  0.00     0.007 A 
ATOM     17  C   UNL     1     -26.591 -31.713  14.006  1.00  0.00     0.007 A 
ATOM     18  C   UNL     1     -25.812 -34.297  14.562  1.00  0.00     0.000 A 
ATOM     19  C   UNL     1     -26.433 -32.138  15.336  1.00  0.00     0.000 A 
ATOM     20  C   UNL     1     -26.045 -33.423  15.596  1.00  0.00     0.000 A 
ENDBRANCH   8  15
BRANCH   8  21
ATOM     21  N   UNL     1     -27.088 -30.748  11.606  1.00  0.00    -0.319 N 
ATOM     22  C   UNL     1     -28.416 -30.448  11.563  1.00  0.00     0.109 A 
ATOM     23  C   UNL     1     -26.434 -29.592  11.704  1.00  0.00     0.200 A 
ATOM     24  C   UNL     1     -28.570 -29.082  11.635  1.00  0.00     0.131 A 
ATOM     25  N   UNL     1     -27.343 -28.582  11.721  1.00  0.00    -0.245 NA
ENDBRANCH   8  21
ENDBRANCH   7   8
TORSDOF 4
ENDMDL
MODEL 6
REMARK VINA RESULT:      -7.9      1.307      4.265
REMARK SMILES Clc1ccccc1C(c1ccccc1)(c1ccccc1)n1ccnc1
REMARK SMILES IDX 1 1 2 2 3 3 4 4 5 5 6 6 7 7 8 8 9 9 10 10 14 11 11 12 13 13
REMARK SMILES IDX 12 14 15 15 16 16 20 17 17 18 19 19 18 20 21 21 22 22 25 23
REMARK SMILES IDX 23 24 24 25
REMARK H PARENT
ROOT
ATOM      1  Cl  UNL     1     -29.106 -32.809  12.035  1.00  0.00    -0.084 Cl
ATOM      2  C   UNL     1     -28.382 -33.508  10.604  1.00  0.00     0.047 A 
ATOM      3  C   UNL     1     -29.096 -34.330   9.764  1.00  0.00     0.021 A 
ATOM      4  C   UNL     1     -28.539 -34.857   8.618  1.00  0.00     0.002 A 
ATOM      5  C   UNL     1     -27.235 -34.537   8.331  1.00  0.00     0.001 A 
ATOM      6  C   UNL     1     -26.509 -33.700   9.187  1.00  0.00     0.008 A 
ATOM      7  C   UNL     1     -27.066 -33.185  10.317  1.00  0.00     0.006 A 
ENDROOT
BRANCH   7   8
ATOM      8  C   UNL     1     -26.267 -32.318  11.226  1.00  0.00     0.123 C 
BRANCH   8   9
ATOM      9  C   UNL     1     -24.844 -32.385  10.785  1.00  0.00    -0.013 A 
ATOM     10  C   UNL     1     -24.109 -31.345  10.318  1.00  0.00     0.007 A 
ATOM     11  C   UNL     1     -24.251 -33.657  10.897  1.00  0.00     0.007 A 
ATOM     12  C   UNL     1     -22.789 -31.554   9.960  1.00  0.00     0.000 A 
ATOM     13  C   UNL     1     -22.942 -33.854  10.541  1.00  0.00     0.000 A 
ATOM     14  C   UNL     1     -22.188 -32.808  10.066  1.00  0.00     0.000 A 
ENDBRANCH   8   9
BRANCH   8  15
ATOM     15  C   UNL     1     -26.238 -32.866  12.608  1.00  0.00    -0.013 A 
ATOM     16  C   UNL     1     -26.302 -32.082  13.730  1.00  0.00     0.007 A 
ATOM     17  C   UNL     1     -26.170 -34.226  12.772  1.00  0.00     0.007 A 
ATOM     18  C   UNL     1     -26.297 -32.623  15.011  1.00  0.00     0.000 A 
ATOM     19  C   UNL     1     -26.163 -34.796  14.057  1.00  0.00     0.000 A 
ATOM     20  C   UNL     1     -26.227 -33.988  15.158  1.00  0.00     0.000 A 
ENDBRANCH   8  15
BRANCH   8  21
ATOM     21  N   UNL     1     -26.808 -30.991  11.244  1.00  0.00    -0.319 N 
ATOM     22  C   UNL     1     -27.499 -30.397  10.232  1.00  0.00     0.109 A 
ATOM     23  C   UNL     1     -26.756 -30.113  12.245  1.00  0.00     0.200 A 
ATOM     24  C   UNL     1     -27.874 -29.132  10.626  1.00  0.00     0.131 A 
ATOM     25  N   UNL     1     -27.407 -28.984  11.861  1.00  0.00    -0.245 NA
ENDBRANCH   8  21
ENDBRANCH   7   8
TORSDOF 4
ENDMDL
MODEL 7
REMARK VINA RESULT:      -7.9      1.676      4.904
REMARK SMILES Clc1ccccc1C(c1ccccc1)(c1ccccc1)n1ccnc1
REMARK SMILES IDX 1 1 2 2 3 3 4 4 5 5 6 6 7 7 8 8 9 9 10 10 14 11 11 12 13 13
REMARK SMILES IDX 12 14 15 15 16 16 20 17 17 18 19 19 18 20 21 21 22 22 25 23
REMARK SMILES IDX 23 24 24 25
REMARK H PARENT
ROOT
ATOM      1  Cl  UNL     1     -27.108 -30.770   8.749  1.00  0.00    -0.084 Cl
ATOM      2  C   UNL     1     -27.554 -29.973  10.241  1.00  0.00     0.047 A 
ATOM      3  C   UNL     1     -28.252 -28.787  10.244  1.00  0.00     0.021 A 
ATOM      4  C   UNL     1     -28.633 -28.172  11.417  1.00  0.00     0.002 A 
ATOM      5  C   UNL     1     -28.295 -28.779  12.602  1.00  0.00     0.001 A 
ATOM      6  C   UNL     1     -27.584 -29.986  12.598  1.00  0.00     0.008 A 
ATOM      7  C   UNL     1     -27.210 -30.587  11.435  1.00  0.00     0.006 A 
ENDROOT
BRANCH   7   8
ATOM      8  C   UNL     1     -26.433 -31.856  11.456  1.00  0.00     0.123 C 
BRANCH   8   9
ATOM      9  C   UNL     1     -27.220 -32.884  10.717  1.00  0.00    -0.013 A 
ATOM     10  C   UNL     1     -26.803 -33.566   9.621  1.00  0.00     0.007 A 
ATOM     11  C   UNL     1     -28.496 -33.146  11.251  1.00  0.00     0.007 A 
ATOM     12  C   UNL     1     -27.639 -34.507   9.048  1.00  0.00     0.000 A 
ATOM     13  C   UNL     1     -29.318 -34.081  10.677  1.00  0.00     0.000 A 
ATOM     14  C   UNL     1     -28.906 -34.777   9.566  1.00  0.00     0.000 A 
ENDBRANCH   8   9
BRANCH   8  15
ATOM     15  C   UNL     1     -26.333 -32.405  12.835  1.00  0.00    -0.013 A 
ATOM     16  C   UNL     1     -26.424 -31.632  13.962  1.00  0.00     0.007 A 
ATOM     17  C   UNL     1     -26.167 -33.758  12.990  1.00  0.00     0.007 A 
ATOM     18  C   UNL     1     -26.350 -32.176  15.239  1.00  0.00     0.000 A 
ATOM     19  C   UNL     1     -26.089 -34.331  14.270  1.00  0.00     0.000 A 
ATOM     20  C   UNL     1     -26.182 -33.533  15.377  1.00  0.00     0.000 A 
ENDBRANCH   8  15
BRANCH   8  21
ATOM     21  N   UNL     1     -25.119 -31.639  10.927  1.00  0.00    -0.319 N 
ATOM     22  C   UNL     1     -24.438 -30.460  10.941  1.00  0.00     0.109 A 
ATOM     23  C   UNL     1     -24.322 -32.539  10.353  1.00  0.00     0.200 A 
ATOM     24  C   UNL     1     -23.203 -30.648  10.362  1.00  0.00     0.131 A 
ATOM     25  N   UNL     1     -23.158 -31.928  10.012  1.00  0.00    -0.245 NA
ENDBRANCH   8  21
ENDBRANCH   7   8
TORSDOF 4
ENDMDL
MODEL 8
REMARK VINA RESULT:      -7.9      1.417      4.665
REMARK SMILES Clc1ccccc1C(c1ccccc1)(c1ccccc1)n1ccnc1
REMARK SMILES IDX 1 1 2 2 3 3 4 4 5 5 6 6 7 7 8 8 9 9 10 10 14 11 11 12 13 13
REMARK SMILES IDX 12 14 15 15 16 16 20 17 17 18 19 19 18 20 21 21 22 22 25 23
REMARK SMILES IDX 23 24 24 25
REMARK H PARENT
ROOT
ATOM      1  Cl  UNL     1     -25.085 -34.567  11.444  1.00  0.00    -0.084 Cl
ATOM      2  C   UNL     1     -24.299 -33.152  10.781  1.00  0.00     0.047 A 
ATOM      3  C   UNL     1     -22.950 -33.138  10.509  1.00  0.00     0.021 A 
ATOM      4  C   UNL     1     -22.333 -32.036   9.957  1.00  0.00     0.002 A 
ATOM      5  C   UNL     1     -23.107 -30.936   9.680  1.00  0.00     0.001 A 
ATOM      6  C   UNL     1     -24.480 -30.952   9.957  1.00  0.00     0.008 A 
ATOM      7  C   UNL     1     -25.082 -32.043  10.504  1.00  0.00     0.006 A 
ENDROOT
BRANCH   7   8
ATOM      8  C   UNL     1     -26.537 -32.027  10.814  1.00  0.00     0.123 C 
BRANCH   8   9
ATOM      9  C   UNL     1     -27.192 -33.074   9.980  1.00  0.00    -0.013 A 
ATOM     10  C   UNL     1     -26.669 -33.643   8.865  1.00  0.00     0.007 A 
ATOM     11  C   UNL     1     -28.457 -33.488  10.439  1.00  0.00     0.007 A 
ATOM     12  C   UNL     1     -27.389 -34.619   8.199  1.00  0.00     0.000 A 
ATOM     13  C   UNL     1     -29.163 -34.457   9.774  1.00  0.00     0.000 A 
ATOM     14  C   UNL     1     -28.643 -35.039   8.643  1.00  0.00     0.000 A 
ENDBRANCH   8   9
BRANCH   8  15
ATOM     15  C   UNL     1     -27.172 -30.761  10.360  1.00  0.00    -0.013 A 
ATOM     16  C   UNL     1     -27.381 -30.453   9.041  1.00  0.00     0.007 A 
ATOM     17  C   UNL     1     -27.594 -29.863  11.308  1.00  0.00     0.007 A 
ATOM     18  C   UNL     1     -27.999 -29.272   8.647  1.00  0.00     0.000 A 
ATOM     19  C   UNL     1     -28.220 -28.663  10.933  1.00  0.00     0.000 A 
ATOM     20  C   UNL     1     -28.414 -28.383   9.609  1.00  0.00     0.000 A 
ENDBRANCH   8  15
BRANCH   8  21
ATOM     21  N   UNL     1     -26.744 -32.192  12.222  1.00  0.00    -0.319 N 
ATOM     22  C   UNL     1     -27.564 -33.109  12.806  1.00  0.00     0.109 A 
ATOM     23  C   UNL     1     -26.166 -31.506  13.208  1.00  0.00     0.200 A 
ATOM     24  C   UNL     1     -27.483 -32.976  14.175  1.00  0.00     0.131 A 
ATOM     25  N   UNL     1     -26.621 -31.989  14.393  1.00  0.00    -0.245 NA
ENDBRANCH   8  21
ENDBRANCH   7   8
TORSDOF 4
ENDMDL
MODEL 9
REMARK VINA RESULT:      -7.9      1.556      4.117
REMARK SMILES Clc1ccccc1C(c1ccccc1)(c1ccccc1)n1ccnc1
REMARK SMILES IDX 1 1 2 2 3 3 4 4 5 5 6 6 7 7 8 8 9 9 10 10 14 11 11 12 13 13
REMARK SMILES IDX 12 14 15 15 16 16 20 17 17 18 19 19 18 20 21 21 22 22 25 23
REMARK SMILES IDX 23 24 24 25
REMARK H PARENT
ROOT
ATOM      1  Cl  UNL     1     -27.140 -30.856   8.821  1.00  0.00    -0.084 Cl
ATOM      2  C   UNL     1     -27.616 -29.991  10.265  1.00  0.00     0.047 A 
ATOM      3  C   UNL     1     -28.184 -28.739  10.202  1.00  0.00     0.021 A 
ATOM      4  C   UNL     1     -28.590 -28.069  11.336  1.00  0.00     0.002 A 
ATOM      5  C   UNL     1     -28.411 -28.687  12.549  1.00  0.00     0.001 A 
ATOM      6  C   UNL     1     -27.832 -29.962  12.612  1.00  0.00     0.008 A 
ATOM      7  C   UNL     1     -27.433 -30.617  11.488  1.00  0.00     0.006 A 
ENDROOT
BRANCH   7   8
ATOM      8  C   UNL     1     -26.797 -31.959  11.582  1.00  0.00     0.123 C 
BRANCH   8   9
ATOM      9  C   UNL     1     -26.610 -32.275  13.026  1.00  0.00    -0.013 A 
ATOM     10  C   UNL     1     -26.209 -31.402  13.984  1.00  0.00     0.007 A 
ATOM     11  C   UNL     1     -26.902 -33.606  13.382  1.00  0.00     0.007 A 
ATOM     12  C   UNL     1     -26.094 -31.836  15.293  1.00  0.00     0.000 A 
ATOM     13  C   UNL     1     -26.786 -34.027  14.681  1.00  0.00     0.000 A 
ATOM     14  C   UNL     1     -26.380 -33.151  15.659  1.00  0.00     0.000 A 
ENDBRANCH   8   9
BRANCH   8  15
ATOM     15  C   UNL     1     -25.413 -31.941  11.038  1.00  0.00    -0.013 A 
ATOM     16  C   UNL     1     -24.738 -30.787  10.734  1.00  0.00     0.007 A 
ATOM     17  C   UNL     1     -24.766 -33.136  10.853  1.00  0.00     0.007 A 
ATOM     18  C   UNL     1     -23.436 -30.799  10.249  1.00  0.00     0.000 A 
ATOM     19  C   UNL     1     -23.450 -33.173  10.364  1.00  0.00     0.000 A 
ATOM     20  C   UNL     1     -22.803 -32.005  10.068  1.00  0.00     0.000 A 
ENDBRANCH   8  15
BRANCH   8  21
ATOM     21  N   UNL     1     -27.581 -32.927  10.872  1.00  0.00    -0.319 N 
ATOM     22  C   UNL     1     -27.152 -33.693   9.831  1.00  0.00     0.109 A 
ATOM     23  C   UNL     1     -28.847 -33.268  11.108  1.00  0.00     0.200 A 
ATOM     24  C   UNL     1     -28.179 -34.515   9.426  1.00  0.00     0.131 A 
ATOM     25  N   UNL     1     -29.204 -34.236  10.223  1.00  0.00    -0.245 NA
ENDBRANCH   8  21
ENDBRANCH   7   8
TORSDOF 4
ENDMDL
