MODEL 1
REMARK VINA RESULT:      -5.0      0.000      0.000
REMARK SMILES CC(C)C[C@@H](C=O)NC(=O)[C@H](CC(C)C)NC(=O)[C@H](CC(C)C)NC(=O)OCc1ccccc1
REMARK SMILES IDX 16 1 17 2 18 3 11 5 9 6 8 7 10 8 5 10 4 11 2 12 1 13 3 14
REMARK SMILES IDX 6 15 7 16 12 17 13 18 14 19 15 20 19 21 20 22 21 23 22 24
REMARK SMILES IDX 23 25 24 26 25 27 26 28 27 30 28 31 29 32 30 33 34 34 31 35
REMARK SMILES IDX 33 36 32 37
REMARK H PARENT 16 4 8 9 24 29
ROOT
ATOM      1  N   UNL     1      72.864  17.449  43.787  1.00  0.00    -0.343 N 
ATOM      2  C   UNL     1      72.389  18.138  42.621  1.00  0.00     0.243 C 
ATOM      3  O   UNL     1      73.261  18.509  41.776  1.00  0.00    -0.273 OA
ATOM      4  H   UNL     1      72.125  17.141  44.464  1.00  0.00     0.164 HD
ENDROOT
BRANCH   1   5
ATOM      5  C   UNL     1      74.290  17.182  44.000  1.00  0.00     0.171 C 
BRANCH   5   6
ATOM      6  C   UNL     1      74.581  15.842  43.321  1.00  0.00     0.243 C 
ATOM      7  N   UNL     1      75.637  15.697  42.404  1.00  0.00    -0.345 N 
ATOM      8  O   UNL     1      73.857  14.865  43.595  1.00  0.00    -0.273 OA
ATOM      9  H   UNL     1      76.222  16.534  42.198  1.00  0.00     0.164 HD
BRANCH   7  10
ATOM     10  C   UNL     1      75.932  14.421  41.744  1.00  0.00     0.146 C 
BRANCH  10  11
ATOM     11  C   UNL     1      76.049  14.675  40.260  1.00  0.00     0.035 C 
BRANCH  11  12
ATOM     12  C   UNL     1      75.388  13.616  39.418  1.00  0.00    -0.015 C 
ATOM     13  C   UNL     1      74.496  12.722  40.256  1.00  0.00     0.007 C 
ATOM     14  C   UNL     1      76.449  12.743  38.787  1.00  0.00     0.007 C 
ENDBRANCH  11  12
ENDBRANCH  10  11
BRANCH  10  15
ATOM     15  C   UNL     1      77.151  13.860  42.361  1.00  0.00     0.248 C 
ATOM     16  O   UNL     1      77.542  14.180  43.467  1.00  0.00    -0.301 OA
ENDBRANCH  10  15
ENDBRANCH   7  10
ENDBRANCH   5   6
BRANCH   5  17
ATOM     17  C   UNL     1      74.703  17.111  45.424  1.00  0.00     0.038 C 
BRANCH  17  18
ATOM     18  C   UNL     1      74.540  18.371  46.206  1.00  0.00    -0.015 C 
ATOM     19  C   UNL     1      75.910  18.846  46.728  1.00  0.00     0.007 C 
ATOM     20  C   UNL     1      73.628  18.275  47.376  1.00  0.00     0.007 C 
ENDBRANCH  17  18
ENDBRANCH   5  17
ENDBRANCH   1   5
BRANCH   2  21
ATOM     21  C   UNL     1      70.937  18.412  42.403  1.00  0.00     0.175 C 
BRANCH  21  22
ATOM     22  C   UNL     1      70.657  18.730  40.962  1.00  0.00     0.038 C 
BRANCH  22  23
ATOM     23  C   UNL     1      69.461  19.588  40.742  1.00  0.00    -0.015 C 
ATOM     24  C   UNL     1      69.711  20.786  39.874  1.00  0.00     0.007 C 
ATOM     25  C   UNL     1      68.224  18.810  40.313  1.00  0.00     0.007 C 
ENDBRANCH  22  23
ENDBRANCH  21  22
BRANCH  21  26
ATOM     26  N   UNL     1      70.543  19.425  43.317  1.00  0.00    -0.310 N 
ATOM     27  C   UNL     1      69.439  19.213  44.184  1.00  0.00     0.408 C 
ATOM     28  O   UNL     1      68.807  18.105  44.137  1.00  0.00    -0.225 OA
ATOM     29  H   UNL     1      71.045  20.319  43.365  1.00  0.00     0.167 HD
BRANCH  27  30
ATOM     30  O   UNL     1      68.989  20.123  45.088  1.00  0.00    -0.445 OA
BRANCH  30  31
ATOM     31  C   UNL     1      67.918  21.006  45.023  1.00  0.00     0.270 C 
BRANCH  31  32
ATOM     32  C   UNL     1      68.282  22.272  44.341  1.00  0.00    -0.011 A 
ATOM     33  C   UNL     1      68.761  23.368  45.031  1.00  0.00     0.007 A 
ATOM     34  C   UNL     1      68.173  22.406  42.966  1.00  0.00     0.007 A 
ATOM     35  C   UNL     1      69.121  24.543  44.418  1.00  0.00     0.000 A 
ATOM     36  C   UNL     1      68.533  23.589  42.339  1.00  0.00     0.000 A 
ATOM     37  C   UNL     1      69.009  24.667  43.046  1.00  0.00     0.000 A 
ENDBRANCH  31  32
ENDBRANCH  30  31
ENDBRANCH  27  30
ENDBRANCH  21  26
ENDBRANCH   2  21
TORSDOF 15
ENDMDL
MODEL 2
REMARK VINA RESULT:      -4.8      2.207      5.209
REMARK SMILES CC(C)C[C@@H](C=O)NC(=O)[C@H](CC(C)C)NC(=O)[C@H](CC(C)C)NC(=O)OCc1ccccc1
REMARK SMILES IDX 16 1 17 2 18 3 11 5 9 6 8 7 10 8 5 10 4 11 2 12 1 13 3 14
REMARK SMILES IDX 6 15 7 16 12 17 13 18 14 19 15 20 19 21 20 22 21 23 22 24
REMARK SMILES IDX 23 25 24 26 25 27 26 28 27 30 28 31 29 32 30 33 34 34 31 35
REMARK SMILES IDX 33 36 32 37
REMARK H PARENT 16 4 8 9 24 29
ROOT
ATOM      1  N   UNL     1      74.075  16.197  42.071  1.00  0.00    -0.343 N 
ATOM      2  C   UNL     1      72.831  15.863  42.702  1.00  0.00     0.243 C 
ATOM      3  O   UNL     1      72.563  14.628  42.833  1.00  0.00    -0.273 OA
ATOM      4  H   UNL     1      74.280  17.222  41.986  1.00  0.00     0.164 HD
ENDROOT
BRANCH   1   5
ATOM      5  C   UNL     1      75.003  15.165  41.596  1.00  0.00     0.171 C 
BRANCH   5   6
ATOM      6  C   UNL     1      76.030  14.965  42.712  1.00  0.00     0.243 C 
ATOM      7  N   UNL     1      76.171  15.897  43.756  1.00  0.00    -0.345 N 
ATOM      8  O   UNL     1      76.752  13.949  42.683  1.00  0.00    -0.273 OA
ATOM      9  H   UNL     1      75.551  16.734  43.749  1.00  0.00     0.164 HD
BRANCH   7  10
ATOM     10  C   UNL     1      77.149  15.722  44.835  1.00  0.00     0.146 C 
BRANCH  10  11
ATOM     11  C   UNL     1      77.570  17.090  45.314  1.00  0.00     0.035 C 
BRANCH  11  12
ATOM     12  C   UNL     1      79.030  17.381  45.083  1.00  0.00    -0.015 C 
ATOM     13  C   UNL     1      79.909  16.565  46.010  1.00  0.00     0.007 C 
ATOM     14  C   UNL     1      79.301  18.842  45.363  1.00  0.00     0.007 C 
ENDBRANCH  11  12
ENDBRANCH  10  11
BRANCH  10  15
ATOM     15  C   UNL     1      76.531  14.879  45.878  1.00  0.00     0.248 C 
ATOM     16  O   UNL     1      76.530  15.177  47.058  1.00  0.00    -0.301 OA
ENDBRANCH  10  15
ENDBRANCH   7  10
ENDBRANCH   5   6
BRANCH   5  17
ATOM     17  C   UNL     1      75.708  15.497  40.332  1.00  0.00     0.038 C 
BRANCH  17  18
ATOM     18  C   UNL     1      75.897  14.363  39.382  1.00  0.00    -0.015 C 
ATOM     19  C   UNL     1      75.043  13.159  39.825  1.00  0.00     0.007 C 
ATOM     20  C   UNL     1      77.298  13.886  39.239  1.00  0.00     0.007 C 
ENDBRANCH  17  18
ENDBRANCH   5  17
ENDBRANCH   1   5
BRANCH   2  21
ATOM     21  C   UNL     1      71.885  16.913  43.186  1.00  0.00     0.175 C 
BRANCH  21  22
ATOM     22  C   UNL     1      71.253  16.513  44.488  1.00  0.00     0.038 C 
BRANCH  22  23
ATOM     23  C   UNL     1      71.523  17.447  45.615  1.00  0.00    -0.015 C 
ATOM     24  C   UNL     1      72.852  17.243  46.282  1.00  0.00     0.007 C 
ATOM     25  C   UNL     1      71.266  18.909  45.272  1.00  0.00     0.007 C 
ENDBRANCH  22  23
ENDBRANCH  21  22
BRANCH  21  26
ATOM     26  N   UNL     1      70.961  17.181  42.141  1.00  0.00    -0.310 N 
ATOM     27  C   UNL     1      71.062  18.380  41.389  1.00  0.00     0.408 C 
ATOM     28  O   UNL     1      71.991  19.214  41.658  1.00  0.00    -0.225 OA
ATOM     29  H   UNL     1      70.211  16.517  41.914  1.00  0.00     0.167 HD
BRANCH  27  30
ATOM     30  O   UNL     1      70.224  18.723  40.375  1.00  0.00    -0.445 OA
BRANCH  30  31
ATOM     31  C   UNL     1      68.884  19.088  40.396  1.00  0.00     0.270 C 
BRANCH  31  32
ATOM     32  C   UNL     1      68.642  20.267  41.263  1.00  0.00    -0.011 A 
ATOM     33  C   UNL     1      68.253  20.144  42.582  1.00  0.00     0.007 A 
ATOM     34  C   UNL     1      68.815  21.558  40.787  1.00  0.00     0.007 A 
ATOM     35  C   UNL     1      68.041  21.221  43.406  1.00  0.00     0.000 A 
ATOM     36  C   UNL     1      68.603  22.651  41.613  1.00  0.00     0.000 A 
ATOM     37  C   UNL     1      68.216  22.504  42.924  1.00  0.00     0.000 A 
ENDBRANCH  31  32
ENDBRANCH  30  31
ENDBRANCH  27  30
ENDBRANCH  21  26
ENDBRANCH   2  21
TORSDOF 15
ENDMDL
MODEL 3
REMARK VINA RESULT:      -4.7      3.189      9.028
REMARK SMILES CC(C)C[C@@H](C=O)NC(=O)[C@H](CC(C)C)NC(=O)[C@H](CC(C)C)NC(=O)OCc1ccccc1
REMARK SMILES IDX 16 1 17 2 18 3 11 5 9 6 8 7 10 8 5 10 4 11 2 12 1 13 3 14
REMARK SMILES IDX 6 15 7 16 12 17 13 18 14 19 15 20 19 21 20 22 21 23 22 24
REMARK SMILES IDX 23 25 24 26 25 27 26 28 27 30 28 31 29 32 30 33 34 34 31 35
REMARK SMILES IDX 33 36 32 37
REMARK H PARENT 16 4 8 9 24 29
ROOT
ATOM      1  N   UNL     1      70.435  18.030  42.547  1.00  0.00    -0.343 N 
ATOM      2  C   UNL     1      71.833  17.997  42.227  1.00  0.00     0.243 C 
ATOM      3  O   UNL     1      72.316  19.018  41.646  1.00  0.00    -0.273 OA
ATOM      4  H   UNL     1      70.062  17.181  43.038  1.00  0.00     0.164 HD
ENDROOT
BRANCH   1   5
ATOM      5  C   UNL     1      69.594  19.187  42.223  1.00  0.00     0.171 C 
BRANCH   5   6
ATOM      6  C   UNL     1      68.761  19.475  43.474  1.00  0.00     0.243 C 
ATOM      7  N   UNL     1      67.355  19.443  43.445  1.00  0.00    -0.345 N 
ATOM      8  O   UNL     1      69.355  19.745  44.536  1.00  0.00    -0.273 OA
ATOM      9  H   UNL     1      66.892  19.214  42.540  1.00  0.00     0.164 HD
BRANCH   7  10
ATOM     10  C   UNL     1      66.541  19.715  44.633  1.00  0.00     0.146 C 
BRANCH  10  11
ATOM     11  C   UNL     1      65.552  20.803  44.286  1.00  0.00     0.035 C 
BRANCH  11  12
ATOM     12  C   UNL     1      65.904  22.141  44.879  1.00  0.00    -0.015 C 
ATOM     13  C   UNL     1      67.062  22.785  44.142  1.00  0.00     0.007 C 
ATOM     14  C   UNL     1      66.323  21.957  46.320  1.00  0.00     0.007 C 
ENDBRANCH  11  12
ENDBRANCH  10  11
BRANCH  10  15
ATOM     15  C   UNL     1      65.920  18.446  45.061  1.00  0.00     0.248 C 
ATOM     16  O   UNL     1      65.914  17.444  44.370  1.00  0.00    -0.301 OA
ENDBRANCH  10  15
ENDBRANCH   7  10
ENDBRANCH   5   6
BRANCH   5  17
ATOM     17  C   UNL     1      68.688  18.990  41.063  1.00  0.00     0.038 C 
BRANCH  17  18
ATOM     18  C   UNL     1      68.574  20.149  40.131  1.00  0.00    -0.015 C 
ATOM     19  C   UNL     1      69.976  20.696  39.799  1.00  0.00     0.007 C 
ATOM     20  C   UNL     1      67.760  21.287  40.634  1.00  0.00     0.007 C 
ENDBRANCH  17  18
ENDBRANCH   5  17
ENDBRANCH   1   5
BRANCH   2  21
ATOM     21  C   UNL     1      72.691  16.819  42.556  1.00  0.00     0.175 C 
BRANCH  21  22
ATOM     22  C   UNL     1      74.114  17.053  42.137  1.00  0.00     0.038 C 
BRANCH  22  23
ATOM     23  C   UNL     1      74.923  15.813  41.985  1.00  0.00    -0.015 C 
ATOM     24  C   UNL     1      75.488  15.608  40.611  1.00  0.00     0.007 C 
ATOM     25  C   UNL     1      75.971  15.631  43.076  1.00  0.00     0.007 C 
ENDBRANCH  22  23
ENDBRANCH  21  22
BRANCH  21  26
ATOM     26  N   UNL     1      72.089  15.668  41.982  1.00  0.00    -0.310 N 
ATOM     27  C   UNL     1      71.665  14.597  42.810  1.00  0.00     0.408 C 
ATOM     28  O   UNL     1      71.826  14.678  44.074  1.00  0.00    -0.225 OA
ATOM     29  H   UNL     1      71.952  15.593  40.967  1.00  0.00     0.167 HD
BRANCH  27  30
ATOM     30  O   UNL     1      71.083  13.457  42.352  1.00  0.00    -0.445 OA
BRANCH  30  31
ATOM     31  C   UNL     1      70.198  12.583  42.970  1.00  0.00     0.270 C 
BRANCH  31  32
ATOM     32  C   UNL     1      68.784  12.983  42.762  1.00  0.00    -0.011 A 
ATOM     33  C   UNL     1      68.102  13.771  43.667  1.00  0.00     0.007 A 
ATOM     34  C   UNL     1      68.086  12.594  41.630  1.00  0.00     0.007 A 
ATOM     35  C   UNL     1      66.800  14.168  43.486  1.00  0.00     0.000 A 
ATOM     36  C   UNL     1      66.771  12.990  41.439  1.00  0.00     0.000 A 
ATOM     37  C   UNL     1      66.111  13.776  42.354  1.00  0.00     0.000 A 
ENDBRANCH  31  32
ENDBRANCH  30  31
ENDBRANCH  27  30
ENDBRANCH  21  26
ENDBRANCH   2  21
TORSDOF 15
ENDMDL
MODEL 4
REMARK VINA RESULT:      -4.6      2.281      9.371
REMARK SMILES CC(C)C[C@@H](C=O)NC(=O)[C@H](CC(C)C)NC(=O)[C@H](CC(C)C)NC(=O)OCc1ccccc1
REMARK SMILES IDX 16 1 17 2 18 3 11 5 9 6 8 7 10 8 5 10 4 11 2 12 1 13 3 14
REMARK SMILES IDX 6 15 7 16 12 17 13 18 14 19 15 20 19 21 20 22 21 23 22 24
REMARK SMILES IDX 23 25 24 26 25 27 26 28 27 30 28 31 29 32 30 33 34 34 31 35
REMARK SMILES IDX 33 36 32 37
REMARK H PARENT 16 4 8 9 24 29
ROOT
ATOM      1  N   UNL     1      69.551  20.491  44.719  1.00  0.00    -0.343 N 
ATOM      2  C   UNL     1      69.510  19.319  43.892  1.00  0.00     0.243 C 
ATOM      3  O   UNL     1      68.753  18.372  44.270  1.00  0.00    -0.273 OA
ATOM      4  H   UNL     1      70.174  21.264  44.379  1.00  0.00     0.164 HD
ENDROOT
BRANCH   1   5
ATOM      5  C   UNL     1      68.757  20.599  45.947  1.00  0.00     0.171 C 
BRANCH   5   6
ATOM      6  C   UNL     1      68.364  22.073  46.074  1.00  0.00     0.243 C 
ATOM      7  N   UNL     1      69.267  23.104  45.760  1.00  0.00    -0.345 N 
ATOM      8  O   UNL     1      67.214  22.351  46.467  1.00  0.00    -0.273 OA
ATOM      9  H   UNL     1      70.220  22.835  45.434  1.00  0.00     0.164 HD
BRANCH   7  10
ATOM     10  C   UNL     1      68.909  24.521  45.874  1.00  0.00     0.146 C 
BRANCH  10  11
ATOM     11  C   UNL     1      69.792  25.146  46.928  1.00  0.00     0.035 C 
BRANCH  11  12
ATOM     12  C   UNL     1      71.145  25.555  46.408  1.00  0.00    -0.015 C 
ATOM     13  C   UNL     1      72.257  24.798  47.106  1.00  0.00     0.007 C 
ATOM     14  C   UNL     1      71.358  27.029  46.671  1.00  0.00     0.007 C 
ENDBRANCH  11  12
ENDBRANCH  10  11
BRANCH  10  15
ATOM     15  C   UNL     1      69.035  25.133  44.537  1.00  0.00     0.248 C 
ATOM     16  O   UNL     1      68.115  25.187  43.742  1.00  0.00    -0.301 OA
ENDBRANCH  10  15
ENDBRANCH   7  10
ENDBRANCH   5   6
BRANCH   5  17
ATOM     17  C   UNL     1      69.459  20.169  47.182  1.00  0.00     0.038 C 
BRANCH  17  18
ATOM     18  C   UNL     1      70.946  20.089  47.083  1.00  0.00    -0.015 C 
ATOM     19  C   UNL     1      71.437  18.739  47.639  1.00  0.00     0.007 C 
ATOM     20  C   UNL     1      71.685  21.161  47.801  1.00  0.00     0.007 C 
ENDBRANCH  17  18
ENDBRANCH   5  17
ENDBRANCH   1   5
BRANCH   2  21
ATOM     21  C   UNL     1      70.320  19.207  42.641  1.00  0.00     0.175 C 
BRANCH  21  22
ATOM     22  C   UNL     1      69.469  19.430  41.424  1.00  0.00     0.038 C 
BRANCH  22  23
ATOM     23  C   UNL     1      69.584  20.791  40.834  1.00  0.00    -0.015 C 
ATOM     24  C   UNL     1      69.692  20.808  39.337  1.00  0.00     0.007 C 
ATOM     25  C   UNL     1      68.538  21.771  41.350  1.00  0.00     0.007 C 
ENDBRANCH  22  23
ENDBRANCH  21  22
BRANCH  21  26
ATOM     26  N   UNL     1      70.991  17.956  42.669  1.00  0.00    -0.310 N 
ATOM     27  C   UNL     1      72.296  17.835  42.123  1.00  0.00     0.408 C 
ATOM     28  O   UNL     1      72.860  18.858  41.610  1.00  0.00    -0.225 OA
ATOM     29  H   UNL     1      70.549  17.126  43.080  1.00  0.00     0.167 HD
BRANCH  27  30
ATOM     30  O   UNL     1      73.014  16.681  42.101  1.00  0.00    -0.445 OA
BRANCH  30  31
ATOM     31  C   UNL     1      74.368  16.456  42.314  1.00  0.00     0.270 C 
BRANCH  31  32
ATOM     32  C   UNL     1      74.871  15.303  41.528  1.00  0.00    -0.011 A 
ATOM     33  C   UNL     1      74.582  13.997  41.869  1.00  0.00     0.007 A 
ATOM     34  C   UNL     1      75.646  15.489  40.394  1.00  0.00     0.007 A 
ATOM     35  C   UNL     1      75.021  12.916  41.146  1.00  0.00     0.000 A 
ATOM     36  C   UNL     1      76.095  14.403  39.658  1.00  0.00     0.000 A 
ATOM     37  C   UNL     1      75.794  13.111  40.016  1.00  0.00     0.000 A 
ENDBRANCH  31  32
ENDBRANCH  30  31
ENDBRANCH  27  30
ENDBRANCH  21  26
ENDBRANCH   2  21
TORSDOF 15
ENDMDL
MODEL 5
REMARK VINA RESULT:      -4.6      3.048      5.057
REMARK SMILES CC(C)C[C@@H](C=O)NC(=O)[C@H](CC(C)C)NC(=O)[C@H](CC(C)C)NC(=O)OCc1ccccc1
REMARK SMILES IDX 16 1 17 2 18 3 11 5 9 6 8 7 10 8 5 10 4 11 2 12 1 13 3 14
REMARK SMILES IDX 6 15 7 16 12 17 13 18 14 19 15 20 19 21 20 22 21 23 22 24
REMARK SMILES IDX 23 25 24 26 25 27 26 28 27 30 28 31 29 32 30 33 34 34 31 35
REMARK SMILES IDX 33 36 32 37
REMARK H PARENT 16 4 8 9 24 29
ROOT
ATOM      1  N   UNL     1      72.280  16.681  42.363  1.00  0.00    -0.343 N 
ATOM      2  C   UNL     1      72.157  18.052  41.958  1.00  0.00     0.243 C 
ATOM      3  O   UNL     1      73.218  18.637  41.575  1.00  0.00    -0.273 OA
ATOM      4  H   UNL     1      71.388  16.216  42.663  1.00  0.00     0.164 HD
ENDROOT
BRANCH   1   5
ATOM      5  C   UNL     1      73.566  15.979  42.338  1.00  0.00     0.171 C 
BRANCH   5   6
ATOM      6  C   UNL     1      73.239  14.484  42.354  1.00  0.00     0.243 C 
ATOM      7  N   UNL     1      71.964  14.007  42.002  1.00  0.00    -0.345 N 
ATOM      8  O   UNL     1      74.132  13.682  42.690  1.00  0.00    -0.273 OA
ATOM      9  H   UNL     1      71.241  14.706  41.726  1.00  0.00     0.164 HD
BRANCH   7  10
ATOM     10  C   UNL     1      71.632  12.579  42.010  1.00  0.00     0.146 C 
BRANCH  10  11
ATOM     11  C   UNL     1      70.377  12.393  42.830  1.00  0.00     0.035 C 
BRANCH  11  12
ATOM     12  C   UNL     1      69.406  13.536  42.704  1.00  0.00    -0.015 C 
ATOM     13  C   UNL     1      69.047  14.108  44.061  1.00  0.00     0.007 C 
ATOM     14  C   UNL     1      68.129  13.042  42.062  1.00  0.00     0.007 C 
ENDBRANCH  11  12
ENDBRANCH  10  11
BRANCH  10  15
ATOM     15  C   UNL     1      71.513  12.130  40.609  1.00  0.00     0.248 C 
ATOM     16  O   UNL     1      72.470  12.010  39.867  1.00  0.00    -0.301 OA
ENDBRANCH  10  15
ENDBRANCH   7  10
ENDBRANCH   5   6
BRANCH   5  17
ATOM     17  C   UNL     1      74.471  16.297  43.471  1.00  0.00     0.038 C 
BRANCH  17  18
ATOM     18  C   UNL     1      73.814  16.416  44.806  1.00  0.00    -0.015 C 
ATOM     19  C   UNL     1      73.954  17.857  45.333  1.00  0.00     0.007 C 
ATOM     20  C   UNL     1      74.345  15.505  45.854  1.00  0.00     0.007 C 
ENDBRANCH  17  18
ENDBRANCH   5  17
ENDBRANCH   1   5
BRANCH   2  21
ATOM     21  C   UNL     1      70.848  18.770  41.985  1.00  0.00     0.175 C 
BRANCH  21  22
ATOM     22  C   UNL     1      70.796  19.840  40.932  1.00  0.00     0.038 C 
BRANCH  22  23
ATOM     23  C   UNL     1      69.429  20.143  40.429  1.00  0.00    -0.015 C 
ATOM     24  C   UNL     1      68.491  18.972  40.442  1.00  0.00     0.007 C 
ATOM     25  C   UNL     1      68.810  21.387  41.054  1.00  0.00     0.007 C 
ENDBRANCH  22  23
ENDBRANCH  21  22
BRANCH  21  26
ATOM     26  N   UNL     1      70.633  19.236  43.309  1.00  0.00    -0.310 N 
ATOM     27  C   UNL     1      69.642  18.630  44.126  1.00  0.00     0.408 C 
ATOM     28  O   UNL     1      68.949  17.664  43.661  1.00  0.00    -0.225 OA
ATOM     29  H   UNL     1      71.185  20.011  43.694  1.00  0.00     0.167 HD
BRANCH  27  30
ATOM     30  O   UNL     1      69.364  19.009  45.401  1.00  0.00    -0.445 OA
BRANCH  30  31
ATOM     31  C   UNL     1      70.018  18.719  46.592  1.00  0.00     0.270 C 
BRANCH  31  32
ATOM     32  C   UNL     1      69.868  17.295  46.977  1.00  0.00    -0.011 A 
ATOM     33  C   UNL     1      70.953  16.453  47.119  1.00  0.00     0.007 A 
ATOM     34  C   UNL     1      68.621  16.746  47.231  1.00  0.00     0.007 A 
ATOM     35  C   UNL     1      70.838  15.136  47.492  1.00  0.00     0.000 A 
ATOM     36  C   UNL     1      68.496  15.417  47.608  1.00  0.00     0.000 A 
ATOM     37  C   UNL     1      69.591  14.597  47.744  1.00  0.00     0.000 A 
ENDBRANCH  31  32
ENDBRANCH  30  31
ENDBRANCH  27  30
ENDBRANCH  21  26
ENDBRANCH   2  21
TORSDOF 15
ENDMDL
MODEL 6
REMARK VINA RESULT:      -4.6      3.778      7.201
REMARK SMILES CC(C)C[C@@H](C=O)NC(=O)[C@H](CC(C)C)NC(=O)[C@H](CC(C)C)NC(=O)OCc1ccccc1
REMARK SMILES IDX 16 1 17 2 18 3 11 5 9 6 8 7 10 8 5 10 4 11 2 12 1 13 3 14
REMARK SMILES IDX 6 15 7 16 12 17 13 18 14 19 15 20 19 21 20 22 21 23 22 24
REMARK SMILES IDX 23 25 24 26 25 27 26 28 27 30 28 31 29 32 30 33 34 34 31 35
REMARK SMILES IDX 33 36 32 37
REMARK H PARENT 16 4 8 9 24 29
ROOT
ATOM      1  N   UNL     1      68.908  21.515  44.388  1.00  0.00    -0.343 N 
ATOM      2  C   UNL     1      68.242  22.614  45.024  1.00  0.00     0.243 C 
ATOM      3  O   UNL     1      66.972  22.624  44.978  1.00  0.00    -0.273 OA
ATOM      4  H   UNL     1      69.955  21.522  44.451  1.00  0.00     0.164 HD
ENDROOT
BRANCH   1   5
ATOM      5  C   UNL     1      68.166  20.446  43.713  1.00  0.00     0.171 C 
BRANCH   5   6
ATOM      6  C   UNL     1      69.042  19.194  43.801  1.00  0.00     0.243 C 
ATOM      7  N   UNL     1      70.322  19.233  44.382  1.00  0.00    -0.345 N 
ATOM      8  O   UNL     1      68.600  18.123  43.341  1.00  0.00    -0.273 OA
ATOM      9  H   UNL     1      70.660  20.145  44.756  1.00  0.00     0.164 HD
BRANCH   7  10
ATOM     10  C   UNL     1      71.176  18.044  44.477  1.00  0.00     0.146 C 
BRANCH  10  11
ATOM     11  C   UNL     1      72.413  18.287  43.647  1.00  0.00     0.035 C 
BRANCH  11  12
ATOM     12  C   UNL     1      72.442  17.491  42.369  1.00  0.00    -0.015 C 
ATOM     13  C   UNL     1      71.521  16.290  42.445  1.00  0.00     0.007 C 
ATOM     14  C   UNL     1      73.844  16.979  42.128  1.00  0.00     0.007 C 
ENDBRANCH  11  12
ENDBRANCH  10  11
BRANCH  10  15
ATOM     15  C   UNL     1      71.445  17.788  45.905  1.00  0.00     0.248 C 
ATOM     16  O   UNL     1      70.753  18.234  46.801  1.00  0.00    -0.301 OA
ENDBRANCH  10  15
ENDBRANCH   7  10
ENDBRANCH   5   6
BRANCH   5  17
ATOM     17  C   UNL     1      67.838  20.718  42.291  1.00  0.00     0.038 C 
BRANCH  17  18
ATOM     18  C   UNL     1      68.887  21.442  41.515  1.00  0.00    -0.015 C 
ATOM     19  C   UNL     1      68.460  22.907  41.296  1.00  0.00     0.007 C 
ATOM     20  C   UNL     1      69.197  20.865  40.181  1.00  0.00     0.007 C 
ENDBRANCH  17  18
ENDBRANCH   5  17
ENDBRANCH   1   5
BRANCH   2  21
ATOM     21  C   UNL     1      68.996  23.705  45.711  1.00  0.00     0.175 C 
BRANCH  21  22
ATOM     22  C   UNL     1      69.464  23.267  47.069  1.00  0.00     0.038 C 
BRANCH  22  23
ATOM     23  C   UNL     1      70.941  23.139  47.201  1.00  0.00    -0.015 C 
ATOM     24  C   UNL     1      71.567  24.131  48.136  1.00  0.00     0.007 C 
ATOM     25  C   UNL     1      71.407  21.714  47.470  1.00  0.00     0.007 C 
ENDBRANCH  22  23
ENDBRANCH  21  22
BRANCH  21  26
ATOM     26  N   UNL     1      68.177  24.865  45.716  1.00  0.00    -0.310 N 
ATOM     27  C   UNL     1      68.232  25.782  44.634  1.00  0.00     0.408 C 
ATOM     28  O   UNL     1      69.021  25.554  43.657  1.00  0.00    -0.225 OA
ATOM     29  H   UNL     1      67.537  25.058  46.496  1.00  0.00     0.167 HD
BRANCH  27  30
ATOM     30  O   UNL     1      67.489  26.917  44.552  1.00  0.00    -0.445 OA
BRANCH  30  31
ATOM     31  C   UNL     1      66.769  27.597  45.526  1.00  0.00     0.270 C 
BRANCH  31  32
ATOM     32  C   UNL     1      65.336  27.730  45.167  1.00  0.00    -0.011 A 
ATOM     33  C   UNL     1      64.876  28.726  44.330  1.00  0.00     0.007 A 
ATOM     34  C   UNL     1      64.389  26.839  45.648  1.00  0.00     0.007 A 
ATOM     35  C   UNL     1      63.557  28.856  43.971  1.00  0.00     0.000 A 
ATOM     36  C   UNL     1      63.055  26.964  45.291  1.00  0.00     0.000 A 
ATOM     37  C   UNL     1      62.619  27.964  44.454  1.00  0.00     0.000 A 
ENDBRANCH  31  32
ENDBRANCH  30  31
ENDBRANCH  27  30
ENDBRANCH  21  26
ENDBRANCH   2  21
TORSDOF 15
ENDMDL
MODEL 7
REMARK VINA RESULT:      -4.5      4.440      8.873
REMARK SMILES CC(C)C[C@@H](C=O)NC(=O)[C@H](CC(C)C)NC(=O)[C@H](CC(C)C)NC(=O)OCc1ccccc1
REMARK SMILES IDX 16 1 17 2 18 3 11 5 9 6 8 7 10 8 5 10 4 11 2 12 1 13 3 14
REMARK SMILES IDX 6 15 7 16 12 17 13 18 14 19 15 20 19 21 20 22 21 23 22 24
REMARK SMILES IDX 23 25 24 26 25 27 26 28 27 30 28 31 29 32 30 33 34 34 31 35
REMARK SMILES IDX 33 36 32 37
REMARK H PARENT 16 4 8 9 24 29
ROOT
ATOM      1  N   UNL     1      69.297  20.574  44.979  1.00  0.00    -0.343 N 
ATOM      2  C   UNL     1      68.322  19.965  44.121  1.00  0.00     0.243 C 
ATOM      3  O   UNL     1      67.121  19.945  44.535  1.00  0.00    -0.273 OA
ATOM      4  H   UNL     1      70.278  20.590  44.610  1.00  0.00     0.164 HD
ENDROOT
BRANCH   1   5
ATOM      5  C   UNL     1      68.933  21.152  46.276  1.00  0.00     0.171 C 
BRANCH   5   6
ATOM      6  C   UNL     1      68.744  22.652  46.040  1.00  0.00     0.243 C 
ATOM      7  N   UNL     1      69.786  23.454  45.541  1.00  0.00    -0.345 N 
ATOM      8  O   UNL     1      67.636  23.162  46.299  1.00  0.00    -0.273 OA
ATOM      9  H   UNL     1      70.698  22.995  45.334  1.00  0.00     0.164 HD
BRANCH   7  10
ATOM     10  C   UNL     1      69.624  24.893  45.306  1.00  0.00     0.146 C 
BRANCH  10  11
ATOM     11  C   UNL     1      70.889  25.587  45.749  1.00  0.00     0.035 C 
BRANCH  11  12
ATOM     12  C   UNL     1      71.325  25.206  47.139  1.00  0.00    -0.015 C 
ATOM     13  C   UNL     1      71.111  26.345  48.116  1.00  0.00     0.007 C 
ATOM     14  C   UNL     1      72.801  24.881  47.131  1.00  0.00     0.007 C 
ENDBRANCH  11  12
ENDBRANCH  10  11
BRANCH  10  15
ATOM     15  C   UNL     1      69.293  25.088  43.881  1.00  0.00     0.248 C 
ATOM     16  O   UNL     1      70.119  25.007  42.990  1.00  0.00    -0.301 OA
ENDBRANCH  10  15
ENDBRANCH   7  10
ENDBRANCH   5   6
BRANCH   5  17
ATOM     17  C   UNL     1      69.935  20.947  47.352  1.00  0.00     0.038 C 
BRANCH  17  18
ATOM     18  C   UNL     1      71.211  20.300  46.928  1.00  0.00    -0.015 C 
ATOM     19  C   UNL     1      71.284  18.866  47.487  1.00  0.00     0.007 C 
ATOM     20  C   UNL     1      72.448  21.007  47.354  1.00  0.00     0.007 C 
ENDBRANCH  17  18
ENDBRANCH   5  17
ENDBRANCH   1   5
BRANCH   2  21
ATOM     21  C   UNL     1      68.691  19.374  42.800  1.00  0.00     0.175 C 
BRANCH  21  22
ATOM     22  C   UNL     1      67.927  20.026  41.683  1.00  0.00     0.038 C 
BRANCH  22  23
ATOM     23  C   UNL     1      68.738  20.935  40.829  1.00  0.00    -0.015 C 
ATOM     24  C   UNL     1      68.673  22.380  41.228  1.00  0.00     0.007 C 
ATOM     25  C   UNL     1      70.169  20.456  40.617  1.00  0.00     0.007 C 
ENDBRANCH  22  23
ENDBRANCH  21  22
BRANCH  21  26
ATOM     26  N   UNL     1      68.519  17.968  42.888  1.00  0.00    -0.310 N 
ATOM     27  C   UNL     1      69.635  17.102  42.740  1.00  0.00     0.408 C 
ATOM     28  O   UNL     1      70.792  17.599  42.529  1.00  0.00    -0.225 OA
ATOM     29  H   UNL     1      67.594  17.556  43.059  1.00  0.00     0.167 HD
BRANCH  27  30
ATOM     30  O   UNL     1      69.568  15.746  42.806  1.00  0.00    -0.445 OA
BRANCH  30  31
ATOM     31  C   UNL     1      68.910  14.918  43.706  1.00  0.00     0.270 C 
BRANCH  31  32
ATOM     32  C   UNL     1      67.699  14.301  43.111  1.00  0.00    -0.011 A 
ATOM     33  C   UNL     1      66.424  14.632  43.527  1.00  0.00     0.007 A 
ATOM     34  C   UNL     1      67.794  13.370  42.088  1.00  0.00     0.007 A 
ATOM     35  C   UNL     1      65.290  14.087  42.978  1.00  0.00     0.000 A 
ATOM     36  C   UNL     1      66.653  12.815  41.528  1.00  0.00     0.000 A 
ATOM     37  C   UNL     1      65.394  13.160  41.958  1.00  0.00     0.000 A 
ENDBRANCH  31  32
ENDBRANCH  30  31
ENDBRANCH  27  30
ENDBRANCH  21  26
ENDBRANCH   2  21
TORSDOF 15
ENDMDL
MODEL 8
REMARK VINA RESULT:      -4.5      3.684      6.673
REMARK SMILES CC(C)C[C@@H](C=O)NC(=O)[C@H](CC(C)C)NC(=O)[C@H](CC(C)C)NC(=O)OCc1ccccc1
REMARK SMILES IDX 16 1 17 2 18 3 11 5 9 6 8 7 10 8 5 10 4 11 2 12 1 13 3 14
REMARK SMILES IDX 6 15 7 16 12 17 13 18 14 19 15 20 19 21 20 22 21 23 22 24
REMARK SMILES IDX 23 25 24 26 25 27 26 28 27 30 28 31 29 32 30 33 34 34 31 35
REMARK SMILES IDX 33 36 32 37
REMARK H PARENT 16 4 8 9 24 29
ROOT
ATOM      1  N   UNL     1      68.304  19.325  43.134  1.00  0.00    -0.343 N 
ATOM      2  C   UNL     1      67.176  20.149  43.459  1.00  0.00     0.243 C 
ATOM      3  O   UNL     1      66.136  20.011  42.744  1.00  0.00    -0.273 OA
ATOM      4  H   UNL     1      69.147  19.447  43.746  1.00  0.00     0.164 HD
ENDROOT
BRANCH   1   5
ATOM      5  C   UNL     1      68.266  18.362  42.028  1.00  0.00     0.171 C 
BRANCH   5   6
ATOM      6  C   UNL     1      68.916  17.080  42.553  1.00  0.00     0.243 C 
ATOM      7  N   UNL     1      68.226  16.204  43.409  1.00  0.00    -0.345 N 
ATOM      8  O   UNL     1      70.085  16.819  42.207  1.00  0.00    -0.273 OA
ATOM      9  H   UNL     1      67.250  16.453  43.678  1.00  0.00     0.164 HD
BRANCH   7  10
ATOM     10  C   UNL     1      68.831  14.970  43.921  1.00  0.00     0.146 C 
BRANCH  10  11
ATOM     11  C   UNL     1      69.375  15.251  45.301  1.00  0.00     0.035 C 
BRANCH  11  12
ATOM     12  C   UNL     1      70.753  14.688  45.527  1.00  0.00    -0.015 C 
ATOM     13  C   UNL     1      71.432  14.347  44.215  1.00  0.00     0.007 C 
ATOM     14  C   UNL     1      70.648  13.414  46.334  1.00  0.00     0.007 C 
ENDBRANCH  11  12
ENDBRANCH  10  11
BRANCH  10  15
ATOM     15  C   UNL     1      67.806  13.908  43.878  1.00  0.00     0.248 C 
ATOM     16  O   UNL     1      66.615  14.138  43.781  1.00  0.00    -0.301 OA
ENDBRANCH  10  15
ENDBRANCH   7  10
ENDBRANCH   5   6
BRANCH   5  17
ATOM     17  C   UNL     1      68.970  18.802  40.797  1.00  0.00     0.038 C 
BRANCH  17  18
ATOM     18  C   UNL     1      69.736  20.078  40.913  1.00  0.00    -0.015 C 
ATOM     19  C   UNL     1      69.573  20.906  39.624  1.00  0.00     0.007 C 
ATOM     20  C   UNL     1      71.194  19.919  41.159  1.00  0.00     0.007 C 
ENDBRANCH  17  18
ENDBRANCH   5  17
ENDBRANCH   1   5
BRANCH   2  21
ATOM     21  C   UNL     1      67.213  21.131  44.585  1.00  0.00     0.175 C 
BRANCH  21  22
ATOM     22  C   UNL     1      66.958  22.527  44.093  1.00  0.00     0.038 C 
BRANCH  22  23
ATOM     23  C   UNL     1      68.185  23.287  43.732  1.00  0.00    -0.015 C 
ATOM     24  C   UNL     1      68.462  23.348  42.258  1.00  0.00     0.007 C 
ATOM     25  C   UNL     1      68.273  24.655  44.395  1.00  0.00     0.007 C 
ENDBRANCH  22  23
ENDBRANCH  21  22
BRANCH  21  26
ATOM     26  N   UNL     1      68.447  20.963  45.268  1.00  0.00    -0.310 N 
ATOM     27  C   UNL     1      68.483  20.300  46.522  1.00  0.00     0.408 C 
ATOM     28  O   UNL     1      67.399  19.854  47.029  1.00  0.00    -0.225 OA
ATOM     29  H   UNL     1      69.325  21.316  44.869  1.00  0.00     0.167 HD
BRANCH  27  30
ATOM     30  O   UNL     1      69.613  20.096  47.249  1.00  0.00    -0.445 OA
BRANCH  30  31
ATOM     31  C   UNL     1      70.904  20.576  47.067  1.00  0.00     0.270 C 
BRANCH  31  32
ATOM     32  C   UNL     1      71.788  19.569  46.432  1.00  0.00    -0.011 A 
ATOM     33  C   UNL     1      73.025  19.243  46.951  1.00  0.00     0.007 A 
ATOM     34  C   UNL     1      71.399  18.889  45.288  1.00  0.00     0.007 A 
ATOM     35  C   UNL     1      73.852  18.302  46.391  1.00  0.00     0.000 A 
ATOM     36  C   UNL     1      72.228  17.936  44.715  1.00  0.00     0.000 A 
ATOM     37  C   UNL     1      73.456  17.629  45.250  1.00  0.00     0.000 A 
ENDBRANCH  31  32
ENDBRANCH  30  31
ENDBRANCH  27  30
ENDBRANCH  21  26
ENDBRANCH   2  21
TORSDOF 15
ENDMDL
MODEL 9
REMARK VINA RESULT:      -4.5      5.183      8.080
REMARK SMILES CC(C)C[C@@H](C=O)NC(=O)[C@H](CC(C)C)NC(=O)[C@H](CC(C)C)NC(=O)OCc1ccccc1
REMARK SMILES IDX 16 1 17 2 18 3 11 5 9 6 8 7 10 8 5 10 4 11 2 12 1 13 3 14
REMARK SMILES IDX 6 15 7 16 12 17 13 18 14 19 15 20 19 21 20 22 21 23 22 24
REMARK SMILES IDX 23 25 24 26 25 27 26 28 27 30 28 31 29 32 30 33 34 34 31 35
REMARK SMILES IDX 33 36 32 37
REMARK H PARENT 16 4 8 9 24 29
ROOT
ATOM      1  N   UNL     1      68.540  22.865  44.503  1.00  0.00    -0.343 N 
ATOM      2  C   UNL     1      68.382  22.792  43.078  1.00  0.00     0.243 C 
ATOM      3  O   UNL     1      68.271  23.892  42.453  1.00  0.00    -0.273 OA
ATOM      4  H   UNL     1      68.643  21.945  44.995  1.00  0.00     0.164 HD
ENDROOT
BRANCH   1   5
ATOM      5  C   UNL     1      68.573  24.148  45.212  1.00  0.00     0.171 C 
BRANCH   5   6
ATOM      6  C   UNL     1      69.450  23.932  46.447  1.00  0.00     0.243 C 
ATOM      7  N   UNL     1      70.303  22.820  46.557  1.00  0.00    -0.345 N 
ATOM      8  O   UNL     1      69.397  24.769  47.370  1.00  0.00    -0.273 OA
ATOM      9  H   UNL     1      70.323  22.140  45.767  1.00  0.00     0.164 HD
BRANCH   7  10
ATOM     10  C   UNL     1      71.153  22.596  47.731  1.00  0.00     0.146 C 
BRANCH  10  11
ATOM     11  C   UNL     1      71.221  21.110  47.987  1.00  0.00     0.035 C 
BRANCH  11  12
ATOM     12  C   UNL     1      72.131  20.381  47.034  1.00  0.00    -0.015 C 
ATOM     13  C   UNL     1      71.362  19.390  46.184  1.00  0.00     0.007 C 
ATOM     14  C   UNL     1      73.162  19.605  47.822  1.00  0.00     0.007 C 
ENDBRANCH  11  12
ENDBRANCH  10  11
BRANCH  10  15
ATOM     15  C   UNL     1      72.462  23.228  47.474  1.00  0.00     0.248 C 
ATOM     16  O   UNL     1      72.777  24.311  47.930  1.00  0.00    -0.301 OA
ENDBRANCH  10  15
ENDBRANCH   7  10
ENDBRANCH   5   6
BRANCH   5  17
ATOM     17  C   UNL     1      67.244  24.658  45.636  1.00  0.00     0.038 C 
BRANCH  17  18
ATOM     18  C   UNL     1      66.335  23.651  46.257  1.00  0.00    -0.015 C 
ATOM     19  C   UNL     1      65.149  23.364  45.316  1.00  0.00     0.007 C 
ATOM     20  C   UNL     1      65.772  24.039  47.577  1.00  0.00     0.007 C 
ENDBRANCH  17  18
ENDBRANCH   5  17
ENDBRANCH   1   5
BRANCH   2  21
ATOM     21  C   UNL     1      68.348  21.486  42.354  1.00  0.00     0.175 C 
BRANCH  21  22
ATOM     22  C   UNL     1      68.776  21.650  40.924  1.00  0.00     0.038 C 
BRANCH  22  23
ATOM     23  C   UNL     1      69.562  20.508  40.382  1.00  0.00    -0.015 C 
ATOM     24  C   UNL     1      70.833  20.223  41.128  1.00  0.00     0.007 C 
ATOM     25  C   UNL     1      68.732  19.252  40.150  1.00  0.00     0.007 C 
ENDBRANCH  22  23
ENDBRANCH  21  22
BRANCH  21  26
ATOM     26  N   UNL     1      67.052  20.930  42.520  1.00  0.00    -0.310 N 
ATOM     27  C   UNL     1      66.889  19.687  43.186  1.00  0.00     0.408 C 
ATOM     28  O   UNL     1      67.915  19.076  43.635  1.00  0.00    -0.225 OA
ATOM     29  H   UNL     1      66.218  21.414  42.165  1.00  0.00     0.167 HD
BRANCH  27  30
ATOM     30  O   UNL     1      65.691  19.077  43.390  1.00  0.00    -0.445 OA
BRANCH  30  31
ATOM     31  C   UNL     1      64.958  18.894  44.555  1.00  0.00     0.270 C 
BRANCH  31  32
ATOM     32  C   UNL     1      63.848  19.870  44.674  1.00  0.00    -0.011 A 
ATOM     33  C   UNL     1      63.274  20.189  45.888  1.00  0.00     0.007 A 
ATOM     34  C   UNL     1      63.345  20.526  43.561  1.00  0.00     0.007 A 
ATOM     35  C   UNL     1      62.258  21.103  46.023  1.00  0.00     0.000 A 
ATOM     36  C   UNL     1      62.319  21.450  43.688  1.00  0.00     0.000 A 
ATOM     37  C   UNL     1      61.763  21.752  44.908  1.00  0.00     0.000 A 
ENDBRANCH  31  32
ENDBRANCH  30  31
ENDBRANCH  27  30
ENDBRANCH  21  26
ENDBRANCH   2  21
TORSDOF 15
ENDMDL
