MODEL 1
REMARK VINA RESULT:      -5.5      0.000      0.000
REMARK SMILES CCOC(=O)C1=C(C)NC(C)=C(C(=O)OC)C1c1cccc(Cl)c1Cl
REMARK SMILES IDX 6 1 7 2 8 3 9 4 10 5 11 6 12 7 17 8 4 10 5 11 3 12 2 13 1 14
REMARK SMILES IDX 18 15 19 16 24 17 20 18 22 19 21 20 25 21 23 22 13 23 14 24
REMARK SMILES IDX 15 25 16 26
REMARK H PARENT 9 9
ROOT
ATOM      1  C   UNL     1      70.682 112.779 121.702  1.00  0.00     0.068 C 
ATOM      2  C   UNL     1      70.850 111.934 122.693  1.00  0.00     0.023 C 
ATOM      3  C   UNL     1      72.078 112.037 123.559  1.00  0.00     0.065 C 
ATOM      4  N   UNL     1      70.046 110.745 122.821  1.00  0.00    -0.362 N 
ATOM      5  C   UNL     1      69.045 110.529 121.802  1.00  0.00     0.023 C 
ATOM      6  C   UNL     1      68.230 109.298 121.858  1.00  0.00     0.065 C 
ATOM      7  C   UNL     1      68.829 111.385 120.823  1.00  0.00     0.068 C 
ATOM      8  C   UNL     1      69.312 112.774 121.037  1.00  0.00     0.099 C 
ATOM      9  H   UNL     1      70.171 110.073 123.602  1.00  0.00     0.166 HD
ENDROOT
BRANCH   1  10
ATOM     10  C   UNL     1      71.627 113.823 121.343  1.00  0.00     0.336 C 
ATOM     11  O   UNL     1      72.243 113.772 120.259  1.00  0.00    -0.246 OA
BRANCH  10  12
ATOM     12  O   UNL     1      71.844 114.873 122.200  1.00  0.00    -0.463 OA
BRANCH  12  13
ATOM     13  C   UNL     1      73.127 115.279 122.639  1.00  0.00     0.230 C 
ATOM     14  C   UNL     1      73.447 116.605 121.954  1.00  0.00     0.049 C 
ENDBRANCH  12  13
ENDBRANCH  10  12
ENDBRANCH   1  10
BRANCH   8  15
ATOM     15  C   UNL     1      68.465 113.576 122.005  1.00  0.00    -0.015 A 
ATOM     16  C   UNL     1      68.504 113.221 123.377  1.00  0.00     0.006 A 
ATOM     17  C   UNL     1      67.659 114.607 121.710  1.00  0.00     0.063 A 
ATOM     18  C   UNL     1      67.779 113.869 124.358  1.00  0.00     0.002 A 
ATOM     19  C   UNL     1      66.903 115.292 122.698  1.00  0.00     0.059 A 
ATOM     20  C   UNL     1      66.985 114.900 124.001  1.00  0.00     0.022 A 
ATOM     21  Cl  UNL     1      67.414 115.251 120.124  1.00  0.00    -0.082 Cl
ATOM     22  Cl  UNL     1      65.882 116.624 122.208  1.00  0.00    -0.083 Cl
ENDBRANCH   8  15
BRANCH   7  23
ATOM     23  C   UNL     1      67.855 111.060 119.795  1.00  0.00     0.336 C 
ATOM     24  O   UNL     1      66.611 111.169 119.930  1.00  0.00    -0.246 OA
BRANCH  23  25
ATOM     25  O   UNL     1      68.252 110.562 118.529  1.00  0.00    -0.466 OA
ATOM     26  C   UNL     1      68.228 111.377 117.372  1.00  0.00     0.282 C 
ENDBRANCH  23  25
ENDBRANCH   7  23
TORSDOF 6
ENDMDL
MODEL 2
REMARK VINA RESULT:      -5.0      1.653      2.030
REMARK SMILES CCOC(=O)C1=C(C)NC(C)=C(C(=O)OC)C1c1cccc(Cl)c1Cl
REMARK SMILES IDX 6 1 7 2 8 3 9 4 10 5 11 6 12 7 17 8 4 10 5 11 3 12 2 13 1 14
REMARK SMILES IDX 18 15 19 16 24 17 20 18 22 19 21 20 25 21 23 22 13 23 14 24
REMARK SMILES IDX 15 25 16 26
REMARK H PARENT 9 9
ROOT
ATOM      1  C   UNL     1      70.931 113.193 122.101  1.00  0.00     0.068 C 
ATOM      2  C   UNL     1      71.407 113.089 123.321  1.00  0.00     0.023 C 
ATOM      3  C   UNL     1      72.580 113.937 123.735  1.00  0.00     0.065 C 
ATOM      4  N   UNL     1      71.029 112.006 124.193  1.00  0.00    -0.362 N 
ATOM      5  C   UNL     1      70.099 111.039 123.658  1.00  0.00     0.023 C 
ATOM      6  C   UNL     1      69.720 109.881 124.493  1.00  0.00     0.065 C 
ATOM      7  C   UNL     1      69.574 111.148 122.453  1.00  0.00     0.068 C 
ATOM      8  C   UNL     1      69.601 112.499 121.836  1.00  0.00     0.099 C 
ATOM      9  H   UNL     1      71.400 111.918 125.158  1.00  0.00     0.166 HD
ENDROOT
BRANCH   1  10
ATOM     10  C   UNL     1      71.475 114.067 121.077  1.00  0.00     0.336 C 
ATOM     11  O   UNL     1      71.482 113.713 119.881  1.00  0.00    -0.246 OA
BRANCH  10  12
ATOM     12  O   UNL     1      71.988 115.293 121.426  1.00  0.00    -0.463 OA
BRANCH  12  13
ATOM     13  C   UNL     1      73.092 115.898 120.780  1.00  0.00     0.230 C 
ATOM     14  C   UNL     1      73.102 117.373 121.173  1.00  0.00     0.049 C 
ENDBRANCH  12  13
ENDBRANCH  10  12
ENDBRANCH   1  10
BRANCH   8  15
ATOM     15  C   UNL     1      68.593 113.464 122.427  1.00  0.00    -0.015 A 
ATOM     16  C   UNL     1      68.292 113.352 123.807  1.00  0.00     0.006 A 
ATOM     17  C   UNL     1      67.932 114.437 121.781  1.00  0.00     0.063 A 
ATOM     18  C   UNL     1      67.392 114.167 124.466  1.00  0.00     0.002 A 
ATOM     19  C   UNL     1      67.002 115.289 122.433  1.00  0.00     0.059 A 
ATOM     20  C   UNL     1      66.757 115.128 123.764  1.00  0.00     0.022 A 
ATOM     21  Cl  UNL     1      68.097 114.799 120.099  1.00  0.00    -0.082 Cl
ATOM     22  Cl  UNL     1      66.192 116.526 121.499  1.00  0.00    -0.083 Cl
ENDBRANCH   8  15
BRANCH   7  23
ATOM     23  C   UNL     1      68.703 110.094 121.960  1.00  0.00     0.336 C 
ATOM     24  O   UNL     1      69.046 109.214 121.131  1.00  0.00    -0.246 OA
BRANCH  23  25
ATOM     25  O   UNL     1      67.354 109.991 122.379  1.00  0.00    -0.466 OA
ATOM     26  C   UNL     1      66.569 108.852 122.074  1.00  0.00     0.282 C 
ENDBRANCH  23  25
ENDBRANCH   7  23
TORSDOF 6
ENDMDL
MODEL 3
REMARK VINA RESULT:      -4.9     19.922     21.542
REMARK SMILES CCOC(=O)C1=C(C)NC(C)=C(C(=O)OC)C1c1cccc(Cl)c1Cl
REMARK SMILES IDX 6 1 7 2 8 3 9 4 10 5 11 6 12 7 17 8 4 10 5 11 3 12 2 13 1 14
REMARK SMILES IDX 18 15 19 16 24 17 20 18 22 19 21 20 25 21 23 22 13 23 14 24
REMARK SMILES IDX 15 25 16 26
REMARK H PARENT 9 9
ROOT
ATOM      1  C   UNL     1      84.425 107.821 107.250  1.00  0.00     0.068 C 
ATOM      2  C   UNL     1      85.396 107.921 106.371  1.00  0.00     0.023 C 
ATOM      3  C   UNL     1      86.071 106.676 105.862  1.00  0.00     0.065 C 
ATOM      4  N   UNL     1      86.024 109.184 106.077  1.00  0.00    -0.362 N 
ATOM      5  C   UNL     1      85.531 110.335 106.798  1.00  0.00     0.023 C 
ATOM      6  C   UNL     1      86.177 111.645 106.571  1.00  0.00     0.065 C 
ATOM      7  C   UNL     1      84.529 110.265 107.651  1.00  0.00     0.068 C 
ATOM      8  C   UNL     1      83.628 109.090 107.523  1.00  0.00     0.099 C 
ATOM      9  H   UNL     1      86.790 109.273 105.383  1.00  0.00     0.166 HD
ENDROOT
BRANCH   1  10
ATOM     10  C   UNL     1      83.950 106.567 107.810  1.00  0.00     0.336 C 
ATOM     11  O   UNL     1      83.143 105.856 107.177  1.00  0.00    -0.246 OA
BRANCH  10  12
ATOM     12  O   UNL     1      84.391 106.160 109.045  1.00  0.00    -0.463 OA
BRANCH  12  13
ATOM     13  C   UNL     1      84.862 104.854 109.323  1.00  0.00     0.230 C 
ATOM     14  C   UNL     1      86.006 104.982 110.324  1.00  0.00     0.049 C 
ENDBRANCH  12  13
ENDBRANCH  10  12
ENDBRANCH   1  10
BRANCH   8  15
ATOM     15  C   UNL     1      82.690 109.162 106.335  1.00  0.00    -0.015 A 
ATOM     16  C   UNL     1      83.174 109.747 105.138  1.00  0.00     0.006 A 
ATOM     17  C   UNL     1      81.422 108.729 106.281  1.00  0.00     0.063 A 
ATOM     18  C   UNL     1      82.420 109.875 103.987  1.00  0.00     0.002 A 
ATOM     19  C   UNL     1      80.625 108.847 105.112  1.00  0.00     0.059 A 
ATOM     20  C   UNL     1      81.151 109.421 103.992  1.00  0.00     0.022 A 
ATOM     21  Cl  UNL     1      80.573 107.980 107.588  1.00  0.00    -0.082 Cl
ATOM     22  Cl  UNL     1      78.981 108.251 105.146  1.00  0.00    -0.083 Cl
ENDBRANCH   8  15
BRANCH   7  23
ATOM     23  C   UNL     1      84.141 111.453 108.393  1.00  0.00     0.336 C 
ATOM     24  O   UNL     1      83.323 112.315 107.984  1.00  0.00    -0.246 OA
BRANCH  23  25
ATOM     25  O   UNL     1      84.690 111.744 109.666  1.00  0.00    -0.466 OA
ATOM     26  C   UNL     1      85.325 110.746 110.445  1.00  0.00     0.282 C 
ENDBRANCH  23  25
ENDBRANCH   7  23
TORSDOF 6
ENDMDL
MODEL 4
REMARK VINA RESULT:      -4.7     19.156     21.222
REMARK SMILES CCOC(=O)C1=C(C)NC(C)=C(C(=O)OC)C1c1cccc(Cl)c1Cl
REMARK SMILES IDX 6 1 7 2 8 3 9 4 10 5 11 6 12 7 17 8 4 10 5 11 3 12 2 13 1 14
REMARK SMILES IDX 18 15 19 16 24 17 20 18 22 19 21 20 25 21 23 22 13 23 14 24
REMARK SMILES IDX 15 25 16 26
REMARK H PARENT 9 9
ROOT
ATOM      1  C   UNL     1      84.472 110.029 108.579  1.00  0.00     0.068 C 
ATOM      2  C   UNL     1      84.722 110.719 107.490  1.00  0.00     0.023 C 
ATOM      3  C   UNL     1      85.688 111.872 107.545  1.00  0.00     0.065 C 
ATOM      4  N   UNL     1      83.908 110.590 106.308  1.00  0.00    -0.362 N 
ATOM      5  C   UNL     1      82.801 109.664 106.382  1.00  0.00     0.023 C 
ATOM      6  C   UNL     1      81.905 109.535 105.214  1.00  0.00     0.065 C 
ATOM      7  C   UNL     1      82.559 108.929 107.449  1.00  0.00     0.068 C 
ATOM      8  C   UNL     1      83.689 108.735 108.393  1.00  0.00     0.099 C 
ATOM      9  H   UNL     1      84.099 111.130 105.443  1.00  0.00     0.166 HD
ENDROOT
BRANCH   1  10
ATOM     10  C   UNL     1      85.049 110.312 109.882  1.00  0.00     0.336 C 
ATOM     11  O   UNL     1      84.467 111.073 110.680  1.00  0.00    -0.246 OA
BRANCH  10  12
ATOM     12  O   UNL     1      86.245 109.738 110.239  1.00  0.00    -0.463 OA
BRANCH  12  13
ATOM     13  C   UNL     1      86.364 108.679 111.171  1.00  0.00     0.230 C 
ATOM     14  C   UNL     1      87.436 109.077 112.182  1.00  0.00     0.049 C 
ENDBRANCH  12  13
ENDBRANCH  10  12
ENDBRANCH   1  10
BRANCH   8  15
ATOM     15  C   UNL     1      84.746 107.770 107.895  1.00  0.00    -0.015 A 
ATOM     16  C   UNL     1      85.849 108.300 107.181  1.00  0.00     0.006 A 
ATOM     17  C   UNL     1      84.761 106.438 108.053  1.00  0.00     0.063 A 
ATOM     18  C   UNL     1      86.877 107.528 106.673  1.00  0.00     0.002 A 
ATOM     19  C   UNL     1      85.804 105.621 107.542  1.00  0.00     0.059 A 
ATOM     20  C   UNL     1      86.838 106.194 106.863  1.00  0.00     0.022 A 
ATOM     21  Cl  UNL     1      83.547 105.524 108.877  1.00  0.00    -0.082 Cl
ATOM     22  Cl  UNL     1      85.728 103.893 107.802  1.00  0.00    -0.083 Cl
ENDBRANCH   8  15
BRANCH   7  23
ATOM     23  C   UNL     1      81.383 108.076 107.472  1.00  0.00     0.336 C 
ATOM     24  O   UNL     1      81.326 106.924 106.974  1.00  0.00    -0.246 OA
BRANCH  23  25
ATOM     25  O   UNL     1      80.168 108.504 108.063  1.00  0.00    -0.466 OA
ATOM     26  C   UNL     1      78.928 108.358 107.396  1.00  0.00     0.282 C 
ENDBRANCH  23  25
ENDBRANCH   7  23
TORSDOF 6
ENDMDL
MODEL 5
REMARK VINA RESULT:      -4.7      1.056      1.459
REMARK SMILES CCOC(=O)C1=C(C)NC(C)=C(C(=O)OC)C1c1cccc(Cl)c1Cl
REMARK SMILES IDX 6 1 7 2 8 3 9 4 10 5 11 6 12 7 17 8 4 10 5 11 3 12 2 13 1 14
REMARK SMILES IDX 18 15 19 16 24 17 20 18 22 19 21 20 25 21 23 22 13 23 14 24
REMARK SMILES IDX 15 25 16 26
REMARK H PARENT 9 9
ROOT
ATOM      1  C   UNL     1      70.790 113.481 121.661  1.00  0.00     0.068 C 
ATOM      2  C   UNL     1      71.204 112.814 122.714  1.00  0.00     0.023 C 
ATOM      3  C   UNL     1      72.452 113.255 123.430  1.00  0.00     0.065 C 
ATOM      4  N   UNL     1      70.666 111.522 123.053  1.00  0.00    -0.362 N 
ATOM      5  C   UNL     1      69.648 110.994 122.174  1.00  0.00     0.023 C 
ATOM      6  C   UNL     1      69.102 109.649 122.447  1.00  0.00     0.065 C 
ATOM      7  C   UNL     1      69.187 111.664 121.136  1.00  0.00     0.068 C 
ATOM      8  C   UNL     1      69.398 113.135 121.148  1.00  0.00     0.099 C 
ATOM      9  H   UNL     1      70.986 110.989 123.884  1.00  0.00     0.166 HD
ENDROOT
BRANCH   1  10
ATOM     10  C   UNL     1      71.475 114.630 121.094  1.00  0.00     0.336 C 
ATOM     11  O   UNL     1      70.842 115.486 120.444  1.00  0.00    -0.246 OA
BRANCH  10  12
ATOM     12  O   UNL     1      72.828 114.777 121.274  1.00  0.00    -0.463 OA
BRANCH  12  13
ATOM     13  C   UNL     1      73.542 115.957 120.956  1.00  0.00     0.230 C 
ATOM     14  C   UNL     1      74.977 115.552 120.630  1.00  0.00     0.049 C 
ENDBRANCH  12  13
ENDBRANCH  10  12
ENDBRANCH   1  10
BRANCH   8  15
ATOM     15  C   UNL     1      68.491 113.878 122.108  1.00  0.00    -0.015 A 
ATOM     16  C   UNL     1      68.453 113.449 123.457  1.00  0.00     0.006 A 
ATOM     17  C   UNL     1      67.696 114.921 121.822  1.00  0.00     0.063 A 
ATOM     18  C   UNL     1      67.667 114.039 124.429  1.00  0.00     0.002 A 
ATOM     19  C   UNL     1      66.879 115.546 122.801  1.00  0.00     0.059 A 
ATOM     20  C   UNL     1      66.888 115.084 124.084  1.00  0.00     0.022 A 
ATOM     21  Cl  UNL     1      67.538 115.650 120.263  1.00  0.00    -0.082 Cl
ATOM     22  Cl  UNL     1      65.878 116.900 122.326  1.00  0.00    -0.083 Cl
ENDBRANCH   8  15
BRANCH   7  23
ATOM     23  C   UNL     1      68.216 111.034 120.257  1.00  0.00     0.336 C 
ATOM     24  O   UNL     1      68.488 110.141 119.416  1.00  0.00    -0.246 OA
BRANCH  23  25
ATOM     25  O   UNL     1      66.849 111.408 120.273  1.00  0.00    -0.466 OA
ATOM     26  C   UNL     1      65.878 110.634 120.955  1.00  0.00     0.282 C 
ENDBRANCH  23  25
ENDBRANCH   7  23
TORSDOF 6
ENDMDL
MODEL 6
REMARK VINA RESULT:      -4.6     19.705     21.367
REMARK SMILES CCOC(=O)C1=C(C)NC(C)=C(C(=O)OC)C1c1cccc(Cl)c1Cl
REMARK SMILES IDX 6 1 7 2 8 3 9 4 10 5 11 6 12 7 17 8 4 10 5 11 3 12 2 13 1 14
REMARK SMILES IDX 18 15 19 16 24 17 20 18 22 19 21 20 25 21 23 22 13 23 14 24
REMARK SMILES IDX 15 25 16 26
REMARK H PARENT 9 9
ROOT
ATOM      1  C   UNL     1      83.695 107.505 107.217  1.00  0.00     0.068 C 
ATOM      2  C   UNL     1      84.640 107.465 106.306  1.00  0.00     0.023 C 
ATOM      3  C   UNL     1      85.185 106.136 105.857  1.00  0.00     0.065 C 
ATOM      4  N   UNL     1      85.366 108.647 105.915  1.00  0.00    -0.362 N 
ATOM      5  C   UNL     1      85.003 109.878 106.576  1.00  0.00     0.023 C 
ATOM      6  C   UNL     1      85.754 111.108 106.249  1.00  0.00     0.065 C 
ATOM      7  C   UNL     1      84.029 109.950 107.461  1.00  0.00     0.068 C 
ATOM      8  C   UNL     1      83.024 108.856 107.434  1.00  0.00     0.099 C 
ATOM      9  H   UNL     1      86.113 108.624 105.194  1.00  0.00     0.166 HD
ENDROOT
BRANCH   1  10
ATOM     10  C   UNL     1      83.132 106.336 107.869  1.00  0.00     0.336 C 
ATOM     11  O   UNL     1      83.450 106.049 109.040  1.00  0.00    -0.246 OA
BRANCH  10  12
ATOM     12  O   UNL     1      82.242 105.538 107.192  1.00  0.00    -0.463 OA
BRANCH  12  13
ATOM     13  C   UNL     1      82.313 104.124 107.167  1.00  0.00     0.230 C 
ATOM     14  C   UNL     1      82.361 103.694 105.703  1.00  0.00     0.049 C 
ENDBRANCH  12  13
ENDBRANCH  10  12
ENDBRANCH   1  10
BRANCH   8  15
ATOM     15  C   UNL     1      82.055 108.941 106.271  1.00  0.00    -0.015 A 
ATOM     16  C   UNL     1      82.528 109.474 105.047  1.00  0.00     0.006 A 
ATOM     17  C   UNL     1      80.768 108.563 106.265  1.00  0.00     0.063 A 
ATOM     18  C   UNL     1      81.747 109.608 103.915  1.00  0.00     0.002 A 
ATOM     19  C   UNL     1      79.942 108.689 105.116  1.00  0.00     0.059 A 
ATOM     20  C   UNL     1      80.459 109.211 103.968  1.00  0.00     0.022 A 
ATOM     21  Cl  UNL     1      79.927 107.885 107.615  1.00  0.00    -0.082 Cl
ATOM     22  Cl  UNL     1      78.276 108.167 105.213  1.00  0.00    -0.083 Cl
ENDBRANCH   8  15
BRANCH   7  23
ATOM     23  C   UNL     1      83.774 111.211 108.137  1.00  0.00     0.336 C 
ATOM     24  O   UNL     1      82.976 112.091 107.730  1.00  0.00    -0.246 OA
BRANCH  23  25
ATOM     25  O   UNL     1      84.443 111.557 109.338  1.00  0.00    -0.466 OA
ATOM     26  C   UNL     1      84.902 110.568 110.241  1.00  0.00     0.282 C 
ENDBRANCH  23  25
ENDBRANCH   7  23
TORSDOF 6
ENDMDL
MODEL 7
REMARK VINA RESULT:      -4.6      2.143      3.007
REMARK SMILES CCOC(=O)C1=C(C)NC(C)=C(C(=O)OC)C1c1cccc(Cl)c1Cl
REMARK SMILES IDX 6 1 7 2 8 3 9 4 10 5 11 6 12 7 17 8 4 10 5 11 3 12 2 13 1 14
REMARK SMILES IDX 18 15 19 16 24 17 20 18 22 19 21 20 25 21 23 22 13 23 14 24
REMARK SMILES IDX 15 25 16 26
REMARK H PARENT 9 9
ROOT
ATOM      1  C   UNL     1      69.884 112.455 122.167  1.00  0.00     0.068 C 
ATOM      2  C   UNL     1      69.175 112.712 123.242  1.00  0.00     0.023 C 
ATOM      3  C   UNL     1      69.705 113.678 124.268  1.00  0.00     0.065 C 
ATOM      4  N   UNL     1      68.039 111.907 123.612  1.00  0.00    -0.362 N 
ATOM      5  C   UNL     1      67.719 110.801 122.741  1.00  0.00     0.023 C 
ATOM      6  C   UNL     1      66.595 109.913 123.104  1.00  0.00     0.065 C 
ATOM      7  C   UNL     1      68.389 110.550 121.634  1.00  0.00     0.068 C 
ATOM      8  C   UNL     1      69.179 111.673 121.066  1.00  0.00     0.099 C 
ATOM      9  H   UNL     1      67.473 112.105 124.459  1.00  0.00     0.166 HD
ENDROOT
BRANCH   1  10
ATOM     10  C   UNL     1      71.192 113.022 121.889  1.00  0.00     0.336 C 
ATOM     11  O   UNL     1      72.210 112.302 121.902  1.00  0.00    -0.246 OA
BRANCH  10  12
ATOM     12  O   UNL     1      71.311 114.362 121.611  1.00  0.00    -0.463 OA
BRANCH  12  13
ATOM     13  C   UNL     1      72.539 114.998 121.308  1.00  0.00     0.230 C 
ATOM     14  C   UNL     1      72.263 116.034 120.223  1.00  0.00     0.049 C 
ENDBRANCH  12  13
ENDBRANCH  10  12
ENDBRANCH   1  10
BRANCH   8  15
ATOM     15  C   UNL     1      68.336 112.734 120.387  1.00  0.00    -0.015 A 
ATOM     16  C   UNL     1      67.934 113.857 121.151  1.00  0.00     0.006 A 
ATOM     17  C   UNL     1      67.913 112.735 119.113  1.00  0.00     0.063 A 
ATOM     18  C   UNL     1      67.164 114.890 120.652  1.00  0.00     0.002 A 
ATOM     19  C   UNL     1      67.121 113.783 118.574  1.00  0.00     0.059 A 
ATOM     20  C   UNL     1      66.768 114.837 119.364  1.00  0.00     0.022 A 
ATOM     21  Cl  UNL     1      68.249 111.496 117.956  1.00  0.00    -0.082 Cl
ATOM     22  Cl  UNL     1      66.620 113.689 116.901  1.00  0.00    -0.083 Cl
ENDBRANCH   8  15
BRANCH   7  23
ATOM     23  C   UNL     1      68.053 109.374 120.849  1.00  0.00     0.336 C 
ATOM     24  O   UNL     1      67.048 109.278 120.101  1.00  0.00    -0.246 OA
BRANCH  23  25
ATOM     25  O   UNL     1      68.852 108.204 120.887  1.00  0.00    -0.466 OA
ATOM     26  C   UNL     1      68.287 106.916 120.726  1.00  0.00     0.282 C 
ENDBRANCH  23  25
ENDBRANCH   7  23
TORSDOF 6
ENDMDL
MODEL 8
REMARK VINA RESULT:      -4.5     20.212     21.880
REMARK SMILES CCOC(=O)C1=C(C)NC(C)=C(C(=O)OC)C1c1cccc(Cl)c1Cl
REMARK SMILES IDX 6 1 7 2 8 3 9 4 10 5 11 6 12 7 17 8 4 10 5 11 3 12 2 13 1 14
REMARK SMILES IDX 18 15 19 16 24 17 20 18 22 19 21 20 25 21 23 22 13 23 14 24
REMARK SMILES IDX 15 25 16 26
REMARK H PARENT 9 9
ROOT
ATOM      1  C   UNL     1      85.504 109.840 108.918  1.00  0.00     0.068 C 
ATOM      2  C   UNL     1      86.540 110.271 108.236  1.00  0.00     0.023 C 
ATOM      3  C   UNL     1      87.632 111.029 108.942  1.00  0.00     0.065 C 
ATOM      4  N   UNL     1      86.545 110.285 106.795  1.00  0.00    -0.362 N 
ATOM      5  C   UNL     1      85.353 109.802 106.139  1.00  0.00     0.023 C 
ATOM      6  C   UNL     1      85.288 109.845 104.663  1.00  0.00     0.065 C 
ATOM      7  C   UNL     1      84.319 109.324 106.803  1.00  0.00     0.068 C 
ATOM      8  C   UNL     1      84.574 108.874 108.195  1.00  0.00     0.099 C 
ATOM      9  H   UNL     1      87.360 110.623 106.248  1.00  0.00     0.166 HD
ENDROOT
BRANCH   1  10
ATOM     10  C   UNL     1      85.305 110.064 110.340  1.00  0.00     0.336 C 
ATOM     11  O   UNL     1      84.823 111.139 110.750  1.00  0.00    -0.246 OA
BRANCH  10  12
ATOM     12  O   UNL     1      85.650 109.086 111.241  1.00  0.00    -0.463 OA
BRANCH  12  13
ATOM     13  C   UNL     1      86.844 109.101 112.001  1.00  0.00     0.230 C 
ATOM     14  C   UNL     1      87.347 107.664 112.093  1.00  0.00     0.049 C 
ENDBRANCH  12  13
ENDBRANCH  10  12
ENDBRANCH   1  10
BRANCH   8  15
ATOM     15  C   UNL     1      85.319 107.557 108.288  1.00  0.00    -0.015 A 
ATOM     16  C   UNL     1      86.735 107.591 108.296  1.00  0.00     0.006 A 
ATOM     17  C   UNL     1      84.781 106.330 108.363  1.00  0.00     0.063 A 
ATOM     18  C   UNL     1      87.530 106.463 108.374  1.00  0.00     0.002 A 
ATOM     19  C   UNL     1      85.574 105.154 108.444  1.00  0.00     0.059 A 
ATOM     20  C   UNL     1      86.933 105.256 108.447  1.00  0.00     0.022 A 
ATOM     21  Cl  UNL     1      83.087 105.988 108.369  1.00  0.00    -0.082 Cl
ATOM     22  Cl  UNL     1      84.775 103.601 108.538  1.00  0.00    -0.083 Cl
ENDBRANCH   8  15
BRANCH   7  23
ATOM     23  C   UNL     1      83.127 108.926 106.073  1.00  0.00     0.336 C 
ATOM     24  O   UNL     1      82.107 109.645 105.925  1.00  0.00    -0.246 OA
BRANCH  23  25
ATOM     25  O   UNL     1      83.019 107.649 105.469  1.00  0.00    -0.466 OA
ATOM     26  C   UNL     1      82.099 107.399 104.422  1.00  0.00     0.282 C 
ENDBRANCH  23  25
ENDBRANCH   7  23
TORSDOF 6
ENDMDL
MODEL 9
REMARK VINA RESULT:      -4.5     17.071     19.955
REMARK SMILES CCOC(=O)C1=C(C)NC(C)=C(C(=O)OC)C1c1cccc(Cl)c1Cl
REMARK SMILES IDX 6 1 7 2 8 3 9 4 10 5 11 6 12 7 17 8 4 10 5 11 3 12 2 13 1 14
REMARK SMILES IDX 18 15 19 16 24 17 20 18 22 19 21 20 25 21 23 22 13 23 14 24
REMARK SMILES IDX 15 25 16 26
REMARK H PARENT 9 9
ROOT
ATOM      1  C   UNL     1      77.540 107.254 105.678  1.00  0.00     0.068 C 
ATOM      2  C   UNL     1      77.520 106.492 104.609  1.00  0.00     0.023 C 
ATOM      3  C   UNL     1      76.486 106.734 103.542  1.00  0.00     0.065 C 
ATOM      4  N   UNL     1      78.272 105.265 104.538  1.00  0.00    -0.362 N 
ATOM      5  C   UNL     1      79.050 104.914 105.704  1.00  0.00     0.023 C 
ATOM      6  C   UNL     1      79.797 103.640 105.703  1.00  0.00     0.065 C 
ATOM      7  C   UNL     1      79.119 105.686 106.771  1.00  0.00     0.068 C 
ATOM      8  C   UNL     1      78.757 107.114 106.583  1.00  0.00     0.099 C 
ATOM      9  H   UNL     1      78.264 104.658 103.697  1.00  0.00     0.166 HD
ENDROOT
BRANCH   1  10
ATOM     10  C   UNL     1      76.599 108.329 105.938  1.00  0.00     0.336 C 
ATOM     11  O   UNL     1      76.941 109.520 105.787  1.00  0.00    -0.246 OA
BRANCH  10  12
ATOM     12  O   UNL     1      75.324 108.036 106.355  1.00  0.00    -0.463 OA
BRANCH  12  13
ATOM     13  C   UNL     1      75.014 107.510 107.633  1.00  0.00     0.230 C 
ATOM     14  C   UNL     1      74.630 106.045 107.443  1.00  0.00     0.049 C 
ENDBRANCH  12  13
ENDBRANCH  10  12
ENDBRANCH   1  10
BRANCH   8  15
ATOM     15  C   UNL     1      79.812 107.924 105.856  1.00  0.00    -0.015 A 
ATOM     16  C   UNL     1      79.765 107.962 104.440  1.00  0.00     0.006 A 
ATOM     17  C   UNL     1      80.814 108.625 106.408  1.00  0.00     0.063 A 
ATOM     18  C   UNL     1      80.667 108.660 103.661  1.00  0.00     0.002 A 
ATOM     19  C   UNL     1      81.755 109.351 105.631  1.00  0.00     0.059 A 
ATOM     20  C   UNL     1      81.654 109.347 104.272  1.00  0.00     0.022 A 
ATOM     21  Cl  UNL     1      81.116 108.754 108.106  1.00  0.00    -0.082 Cl
ATOM     22  Cl  UNL     1      83.025 110.233 106.449  1.00  0.00    -0.083 Cl
ENDBRANCH   8  15
BRANCH   7  23
ATOM     23  C   UNL     1      79.862 105.227 107.933  1.00  0.00     0.336 C 
ATOM     24  O   UNL     1      79.353 104.643 108.922  1.00  0.00    -0.246 OA
BRANCH  23  25
ATOM     25  O   UNL     1      81.260 105.430 108.045  1.00  0.00    -0.466 OA
ATOM     26  C   UNL     1      82.020 104.802 109.062  1.00  0.00     0.282 C 
ENDBRANCH  23  25
ENDBRANCH   7  23
TORSDOF 6
ENDMDL
