MODEL 1
REMARK VINA RESULT:      -7.6      0.000      0.000
REMARK SMILES O=C1Nc2ccc(I)cc2/C1=C/c1cc(Br)c(O)c(Br)c1
REMARK SMILES IDX 13 1 14 2 15 3 16 4 17 5 19 6 20 7 21 8 12 9 1 10 2 11 3 12
REMARK SMILES IDX 11 13 4 14 10 15 5 16 9 17 6 18 7 19 8 21 18 22
REMARK H PARENT 3 20 18 23
ROOT
ATOM      1  C   UNL     1      31.873 -13.752  70.458  1.00  0.00    -0.022 A 
ATOM      2  C   UNL     1      32.410 -12.905  69.540  1.00  0.00     0.027 A 
ATOM      3  C   UNL     1      33.420 -13.369  68.715  1.00  0.00     0.061 A 
ATOM      4  Br  UNL     1      34.174 -12.175  67.422  1.00  0.00    -0.047 Br
ATOM      5  C   UNL     1      33.893 -14.667  68.803  1.00  0.00     0.143 A 
ATOM      6  C   UNL     1      33.329 -15.489  69.740  1.00  0.00     0.061 A 
ATOM      7  Br  UNL     1      33.932 -17.296  69.922  1.00  0.00    -0.047 Br
ATOM      8  C   UNL     1      32.328 -15.050  70.565  1.00  0.00     0.027 A 
ENDROOT
BRANCH   1   9
ATOM      9  C   UNL     1      30.785 -13.375  71.346  1.00  0.00     0.022 C 
ATOM     10  O   UNL     1      33.382 -12.521  72.649  1.00  0.00    -0.269 OA
ATOM     11  C   UNL     1      32.229 -12.389  73.125  1.00  0.00     0.256 C 
ATOM     12  N   UNL     1      31.901 -11.807  74.399  1.00  0.00    -0.321 N 
ATOM     13  C   UNL     1      30.973 -12.782  72.509  1.00  0.00     0.050 C 
ATOM     14  C   UNL     1      30.475 -11.833  74.580  1.00  0.00     0.049 A 
ATOM     15  C   UNL     1      29.912 -12.415  73.452  1.00  0.00     0.012 A 
ATOM     16  C   UNL     1      29.703 -11.388  75.638  1.00  0.00     0.028 A 
ATOM     17  C   UNL     1      28.526 -12.527  73.444  1.00  0.00     0.025 A 
ATOM     18  C   UNL     1      28.327 -11.526  75.571  1.00  0.00     0.017 A 
ATOM     19  C   UNL     1      27.721 -12.098  74.473  1.00  0.00     0.014 A 
ATOM     20  H   UNL     1      32.611 -11.442  75.047  1.00  0.00     0.170 HD
ATOM     21  I   UNL     1      25.616 -12.301  74.386  1.00  0.00    -0.044 I 
ENDBRANCH   1   9
BRANCH   5  22
ATOM     22  O   UNL     1      34.908 -15.122  67.968  1.00  0.00    -0.506 OA
ATOM     23  H   UNL     1      35.216 -16.086  68.028  1.00  0.00     0.293 HD
ENDBRANCH   5  22
TORSDOF 2
ENDMDL
MODEL 2
REMARK VINA RESULT:      -7.4      0.160      2.044
REMARK SMILES O=C1Nc2ccc(I)cc2/C1=C/c1cc(Br)c(O)c(Br)c1
REMARK SMILES IDX 13 1 14 2 15 3 16 4 17 5 19 6 20 7 21 8 12 9 1 10 2 11 3 12
REMARK SMILES IDX 11 13 4 14 10 15 5 16 9 17 6 18 7 19 8 21 18 22
REMARK H PARENT 3 20 18 23
ROOT
ATOM      1  C   UNL     1      31.822 -13.886  70.459  1.00  0.00    -0.022 A 
ATOM      2  C   UNL     1      32.352 -15.137  70.522  1.00  0.00     0.027 A 
ATOM      3  C   UNL     1      33.401 -15.460  69.679  1.00  0.00     0.061 A 
ATOM      4  Br  UNL     1      34.146 -17.221  69.771  1.00  0.00    -0.047 Br
ATOM      5  C   UNL     1      33.919 -14.546  68.778  1.00  0.00     0.143 A 
ATOM      6  C   UNL     1      33.360 -13.298  68.743  1.00  0.00     0.061 A 
ATOM      7  Br  UNL     1      34.021 -11.981  67.523  1.00  0.00    -0.047 Br
ATOM      8  C   UNL     1      32.322 -12.957  69.569  1.00  0.00     0.027 A 
ENDROOT
BRANCH   1   9
ATOM      9  C   UNL     1      30.746 -13.435  71.325  1.00  0.00     0.022 C 
ATOM     10  O   UNL     1      33.368 -12.704  72.651  1.00  0.00    -0.269 OA
ATOM     11  C   UNL     1      32.219 -12.499  73.108  1.00  0.00     0.256 C 
ATOM     12  N   UNL     1      31.907 -11.878  74.367  1.00  0.00    -0.321 N 
ATOM     13  C   UNL     1      30.951 -12.832  72.480  1.00  0.00     0.050 C 
ATOM     14  C   UNL     1      30.479 -11.821  74.528  1.00  0.00     0.049 A 
ATOM     15  C   UNL     1      29.899 -12.391  73.401  1.00  0.00     0.012 A 
ATOM     16  C   UNL     1      29.719 -11.315  75.568  1.00  0.00     0.028 A 
ATOM     17  C   UNL     1      28.510 -12.425  73.375  1.00  0.00     0.025 A 
ATOM     18  C   UNL     1      28.338 -11.378  75.483  1.00  0.00     0.017 A 
ATOM     19  C   UNL     1      27.716 -11.934  74.385  1.00  0.00     0.014 A 
ATOM     20  H   UNL     1      32.626 -11.543  75.019  1.00  0.00     0.170 HD
ATOM     21  I   UNL     1      25.604 -12.020  74.271  1.00  0.00    -0.044 I 
ENDBRANCH   1   9
BRANCH   5  22
ATOM     22  O   UNL     1      34.974 -14.882  67.936  1.00  0.00    -0.506 OA
ATOM     23  H   UNL     1      35.135 -14.347  67.091  1.00  0.00     0.293 HD
ENDBRANCH   5  22
TORSDOF 2
ENDMDL
MODEL 3
REMARK VINA RESULT:      -6.8      1.043      2.340
REMARK SMILES O=C1Nc2ccc(I)cc2/C1=C/c1cc(Br)c(O)c(Br)c1
REMARK SMILES IDX 13 1 14 2 15 3 16 4 17 5 19 6 20 7 21 8 12 9 1 10 2 11 3 12
REMARK SMILES IDX 11 13 4 14 10 15 5 16 9 17 6 18 7 19 8 21 18 22
REMARK H PARENT 3 20 18 23
ROOT
ATOM      1  C   UNL     1      31.181 -14.291  70.500  1.00  0.00    -0.022 A 
ATOM      2  C   UNL     1      31.719 -15.483  70.875  1.00  0.00     0.027 A 
ATOM      3  C   UNL     1      32.874 -15.920  70.251  1.00  0.00     0.061 A 
ATOM      4  Br  UNL     1      33.629 -17.597  70.783  1.00  0.00    -0.047 Br
ATOM      5  C   UNL     1      33.491 -15.177  69.258  1.00  0.00     0.143 A 
ATOM      6  C   UNL     1      32.920 -13.985  68.907  1.00  0.00     0.061 A 
ATOM      7  Br  UNL     1      33.714 -12.904  67.542  1.00  0.00    -0.047 Br
ATOM      8  C   UNL     1      31.778 -13.533  69.512  1.00  0.00     0.027 A 
ENDROOT
BRANCH   1   9
ATOM      9  C   UNL     1      29.994 -13.725  71.117  1.00  0.00     0.022 C 
ATOM     10  O   UNL     1      32.394 -12.816  72.723  1.00  0.00    -0.269 OA
ATOM     11  C   UNL     1      31.193 -12.551  72.963  1.00  0.00     0.256 C 
ATOM     12  N   UNL     1      30.703 -11.762  74.061  1.00  0.00    -0.321 N 
ATOM     13  C   UNL     1      30.030 -12.969  72.196  1.00  0.00     0.050 C 
ATOM     14  C   UNL     1      29.269 -11.684  73.988  1.00  0.00     0.049 A 
ATOM     15  C   UNL     1      28.858 -12.405  72.874  1.00  0.00     0.012 A 
ATOM     16  C   UNL     1      28.368 -11.040  74.818  1.00  0.00     0.028 A 
ATOM     17  C   UNL     1      27.489 -12.443  72.636  1.00  0.00     0.025 A 
ATOM     18  C   UNL     1      27.016 -11.115  74.528  1.00  0.00     0.017 A 
ATOM     19  C   UNL     1      26.560 -11.819  73.433  1.00  0.00     0.014 A 
ATOM     20  H   UNL     1      31.320 -11.339  74.765  1.00  0.00     0.170 HD
ATOM     21  I   UNL     1      24.489 -11.921  73.004  1.00  0.00    -0.044 I 
ENDBRANCH   1   9
BRANCH   5  22
ATOM     22  O   UNL     1      34.652 -15.627  68.639  1.00  0.00    -0.506 OA
ATOM     23  H   UNL     1      35.306 -14.959  68.247  1.00  0.00     0.293 HD
ENDBRANCH   5  22
TORSDOF 2
ENDMDL
MODEL 4
REMARK VINA RESULT:      -6.6      1.699      2.089
REMARK SMILES O=C1Nc2ccc(I)cc2/C1=C/c1cc(Br)c(O)c(Br)c1
REMARK SMILES IDX 13 1 14 2 15 3 16 4 17 5 19 6 20 7 21 8 12 9 1 10 2 11 3 12
REMARK SMILES IDX 11 13 4 14 10 15 5 16 9 17 6 18 7 19 8 21 18 22
REMARK H PARENT 3 20 18 23
ROOT
ATOM      1  C   UNL     1      30.577 -14.289  70.858  1.00  0.00    -0.022 A 
ATOM      2  C   UNL     1      31.295 -13.704  69.862  1.00  0.00     0.027 A 
ATOM      3  C   UNL     1      32.484 -14.289  69.464  1.00  0.00     0.061 A 
ATOM      4  Br  UNL     1      33.492 -13.464  68.061  1.00  0.00    -0.047 Br
ATOM      5  C   UNL     1      32.958 -15.449  70.054  1.00  0.00     0.143 A 
ATOM      6  C   UNL     1      32.209 -16.008  71.053  1.00  0.00     0.061 A 
ATOM      7  Br  UNL     1      32.800 -17.609  71.917  1.00  0.00    -0.047 Br
ATOM      8  C   UNL     1      31.029 -15.446  71.461  1.00  0.00     0.027 A 
ENDROOT
BRANCH   1   9
ATOM      9  C   UNL     1      29.300 -13.776  71.324  1.00  0.00     0.022 C 
ATOM     10  O   UNL     1      31.483 -12.392  72.900  1.00  0.00    -0.269 OA
ATOM     11  C   UNL     1      30.248 -12.230  73.037  1.00  0.00     0.256 C 
ATOM     12  N   UNL     1      29.608 -11.353  73.981  1.00  0.00    -0.321 N 
ATOM     13  C   UNL     1      29.187 -12.877  72.282  1.00  0.00     0.050 C 
ATOM     14  C   UNL     1      28.182 -11.446  73.825  1.00  0.00     0.049 A 
ATOM     15  C   UNL     1      27.921 -12.356  72.808  1.00  0.00     0.012 A 
ATOM     16  C   UNL     1      27.167 -10.795  74.504  1.00  0.00     0.028 A 
ATOM     17  C   UNL     1      26.582 -12.578  72.509  1.00  0.00     0.025 A 
ATOM     18  C   UNL     1      25.852 -11.058  74.160  1.00  0.00     0.017 A 
ATOM     19  C   UNL     1      25.543 -11.954  73.158  1.00  0.00     0.014 A 
ATOM     20  H   UNL     1      30.131 -10.771  74.646  1.00  0.00     0.170 HD
ATOM     21  I   UNL     1      23.527 -12.343  72.644  1.00  0.00    -0.044 I 
ENDBRANCH   1   9
BRANCH   5  22
ATOM     22  O   UNL     1      34.154 -16.028  69.645  1.00  0.00    -0.506 OA
ATOM     23  H   UNL     1      34.922 -15.440  69.343  1.00  0.00     0.293 HD
ENDBRANCH   5  22
TORSDOF 2
ENDMDL
MODEL 5
REMARK VINA RESULT:      -6.5      4.368      7.200
REMARK SMILES O=C1Nc2ccc(I)cc2/C1=C/c1cc(Br)c(O)c(Br)c1
REMARK SMILES IDX 13 1 14 2 15 3 16 4 17 5 19 6 20 7 21 8 12 9 1 10 2 11 3 12
REMARK SMILES IDX 11 13 4 14 10 15 5 16 9 17 6 18 7 19 8 21 18 22
REMARK H PARENT 3 20 18 23
ROOT
ATOM      1  C   UNL     1      30.513 -13.084  72.040  1.00  0.00    -0.022 A 
ATOM      2  C   UNL     1      31.056 -12.680  73.220  1.00  0.00     0.027 A 
ATOM      3  C   UNL     1      30.222 -12.160  74.195  1.00  0.00     0.061 A 
ATOM      4  Br  UNL     1      30.988 -11.594  75.855  1.00  0.00    -0.047 Br
ATOM      5  C   UNL     1      28.857 -12.042  73.997  1.00  0.00     0.143 A 
ATOM      6  C   UNL     1      28.348 -12.457  72.798  1.00  0.00     0.061 A 
ATOM      7  Br  UNL     1      26.471 -12.323  72.451  1.00  0.00    -0.047 Br
ATOM      8  C   UNL     1      29.155 -12.976  71.820  1.00  0.00     0.027 A 
ENDROOT
BRANCH   1   9
ATOM      9  C   UNL     1      31.294 -13.676  70.968  1.00  0.00     0.022 C 
ATOM     10  O   UNL     1      32.305 -10.855  71.399  1.00  0.00    -0.269 OA
ATOM     11  C   UNL     1      32.716 -11.671  70.541  1.00  0.00     0.256 C 
ATOM     12  N   UNL     1      33.754 -11.432  69.574  1.00  0.00    -0.321 N 
ATOM     13  C   UNL     1      32.251 -13.032  70.328  1.00  0.00     0.050 C 
ATOM     14  C   UNL     1      33.938 -12.612  68.773  1.00  0.00     0.049 A 
ATOM     15  C   UNL     1      33.041 -13.575  69.219  1.00  0.00     0.012 A 
ATOM     16  C   UNL     1      34.814 -12.853  67.730  1.00  0.00     0.028 A 
ATOM     17  C   UNL     1      33.073 -14.798  68.558  1.00  0.00     0.025 A 
ATOM     18  C   UNL     1      34.797 -14.092  67.111  1.00  0.00     0.017 A 
ATOM     19  C   UNL     1      33.926 -15.080  67.518  1.00  0.00     0.014 A 
ATOM     20  H   UNL     1      34.258 -10.540  69.504  1.00  0.00     0.170 HD
ATOM     21  I   UNL     1      33.916 -16.969  66.562  1.00  0.00    -0.044 I 
ENDBRANCH   1   9
BRANCH   5  22
ATOM     22  O   UNL     1      28.029 -11.519  74.985  1.00  0.00    -0.506 OA
ATOM     23  H   UNL     1      27.030 -11.686  74.946  1.00  0.00     0.293 HD
ENDBRANCH   5  22
TORSDOF 2
ENDMDL
MODEL 6
REMARK VINA RESULT:      -6.4      5.384      7.759
REMARK SMILES O=C1Nc2ccc(I)cc2/C1=C/c1cc(Br)c(O)c(Br)c1
REMARK SMILES IDX 13 1 14 2 15 3 16 4 17 5 19 6 20 7 21 8 12 9 1 10 2 11 3 12
REMARK SMILES IDX 11 13 4 14 10 15 5 16 9 17 6 18 7 19 8 21 18 22
REMARK H PARENT 3 20 18 23
ROOT
ATOM      1  C   UNL     1      26.296 -12.949  72.298  1.00  0.00    -0.022 A 
ATOM      2  C   UNL     1      25.565 -13.700  73.165  1.00  0.00     0.027 A 
ATOM      3  C   UNL     1      24.244 -13.359  73.393  1.00  0.00     0.061 A 
ATOM      4  Br  UNL     1      23.217 -14.418  74.613  1.00  0.00    -0.047 Br
ATOM      5  C   UNL     1      23.652 -12.277  72.763  1.00  0.00     0.143 A 
ATOM      6  C   UNL     1      24.419 -11.546  71.898  1.00  0.00     0.061 A 
ATOM      7  Br  UNL     1      23.671 -10.036  70.991  1.00  0.00    -0.047 Br
ATOM      8  C   UNL     1      25.728 -11.866  71.657  1.00  0.00     0.027 A 
ENDROOT
BRANCH   1   9
ATOM      9  C   UNL     1      27.679 -13.244  71.961  1.00  0.00     0.022 C 
ATOM     10  O   UNL     1      27.685 -11.229  74.221  1.00  0.00    -0.269 OA
ATOM     11  C   UNL     1      28.691 -11.705  73.644  1.00  0.00     0.256 C 
ATOM     12  N   UNL     1      30.063 -11.386  73.933  1.00  0.00    -0.321 N 
ATOM     13  C   UNL     1      28.706 -12.681  72.567  1.00  0.00     0.050 C 
ATOM     14  C   UNL     1      30.921 -12.141  73.061  1.00  0.00     0.049 A 
ATOM     15  C   UNL     1      30.115 -12.920  72.239  1.00  0.00     0.012 A 
ATOM     16  C   UNL     1      32.301 -12.167  72.971  1.00  0.00     0.028 A 
ATOM     17  C   UNL     1      30.774 -13.728  71.320  1.00  0.00     0.025 A 
ATOM     18  C   UNL     1      32.899 -12.993  72.035  1.00  0.00     0.017 A 
ATOM     19  C   UNL     1      32.142 -13.785  71.197  1.00  0.00     0.014 A 
ATOM     20  H   UNL     1      30.340 -10.715  74.660  1.00  0.00     0.170 HD
ATOM     21  I   UNL     1      33.072 -15.044  69.772  1.00  0.00    -0.044 I 
ENDBRANCH   1   9
BRANCH   5  22
ATOM     22  O   UNL     1      22.322 -11.945  72.999  1.00  0.00    -0.506 OA
ATOM     23  H   UNL     1      21.957 -11.968  73.944  1.00  0.00     0.293 HD
ENDBRANCH   5  22
TORSDOF 2
ENDMDL
MODEL 7
REMARK VINA RESULT:      -6.3      5.086      7.481
REMARK SMILES O=C1Nc2ccc(I)cc2/C1=C/c1cc(Br)c(O)c(Br)c1
REMARK SMILES IDX 13 1 14 2 15 3 16 4 17 5 19 6 20 7 21 8 12 9 1 10 2 11 3 12
REMARK SMILES IDX 11 13 4 14 10 15 5 16 9 17 6 18 7 19 8 21 18 22
REMARK H PARENT 3 20 18 23
ROOT
ATOM      1  C   UNL     1      27.113 -13.581  72.404  1.00  0.00    -0.022 A 
ATOM      2  C   UNL     1      26.745 -14.391  73.433  1.00  0.00     0.027 A 
ATOM      3  C   UNL     1      25.456 -14.296  73.928  1.00  0.00     0.061 A 
ATOM      4  Br  UNL     1      24.941 -15.439  75.375  1.00  0.00    -0.047 Br
ATOM      5  C   UNL     1      24.538 -13.402  73.404  1.00  0.00     0.143 A 
ATOM      6  C   UNL     1      24.945 -12.603  72.371  1.00  0.00     0.061 A 
ATOM      7  Br  UNL     1      23.734 -11.340  71.597  1.00  0.00    -0.047 Br
ATOM      8  C   UNL     1      26.215 -12.681  71.865  1.00  0.00     0.027 A 
ENDROOT
BRANCH   1   9
ATOM      9  C   UNL     1      28.428 -13.626  71.788  1.00  0.00     0.022 C 
ATOM     10  O   UNL     1      28.587 -11.768  74.174  1.00  0.00    -0.269 OA
ATOM     11  C   UNL     1      29.516 -12.041  73.377  1.00  0.00     0.256 C 
ATOM     12  N   UNL     1      30.855 -11.519  73.429  1.00  0.00    -0.321 N 
ATOM     13  C   UNL     1      29.460 -12.939  72.235  1.00  0.00     0.050 C 
ATOM     14  C   UNL     1      31.624 -12.074  72.347  1.00  0.00     0.049 A 
ATOM     15  C   UNL     1      30.795 -12.925  71.628  1.00  0.00     0.012 A 
ATOM     16  C   UNL     1      32.946 -11.868  71.996  1.00  0.00     0.028 A 
ATOM     17  C   UNL     1      31.368 -13.562  70.533  1.00  0.00     0.025 A 
ATOM     18  C   UNL     1      33.460 -12.531  70.895  1.00  0.00     0.017 A 
ATOM     19  C   UNL     1      32.677 -13.387  70.149  1.00  0.00     0.014 A 
ATOM     20  H   UNL     1      31.169 -10.854  74.146  1.00  0.00     0.170 HD
ATOM     21  I   UNL     1      33.480 -14.395  68.470  1.00  0.00    -0.044 I 
ENDBRANCH   1   9
BRANCH   5  22
ATOM     22  O   UNL     1      23.246 -13.317  73.910  1.00  0.00    -0.506 OA
ATOM     23  H   UNL     1      22.459 -13.586  73.331  1.00  0.00     0.293 HD
ENDBRANCH   5  22
TORSDOF 2
ENDMDL
MODEL 8
REMARK VINA RESULT:      -6.2      4.591      7.267
REMARK SMILES O=C1Nc2ccc(I)cc2/C1=C/c1cc(Br)c(O)c(Br)c1
REMARK SMILES IDX 13 1 14 2 15 3 16 4 17 5 19 6 20 7 21 8 12 9 1 10 2 11 3 12
REMARK SMILES IDX 11 13 4 14 10 15 5 16 9 17 6 18 7 19 8 21 18 22
REMARK H PARENT 3 20 18 23
ROOT
ATOM      1  C   UNL     1      29.634 -12.655  72.607  1.00  0.00    -0.022 A 
ATOM      2  C   UNL     1      28.281 -12.683  72.474  1.00  0.00     0.027 A 
ATOM      3  C   UNL     1      27.498 -12.206  73.511  1.00  0.00     0.061 A 
ATOM      4  Br  UNL     1      25.594 -12.245  73.321  1.00  0.00    -0.047 Br
ATOM      5  C   UNL     1      28.058 -11.705  74.675  1.00  0.00     0.143 A 
ATOM      6  C   UNL     1      29.422 -11.694  74.772  1.00  0.00     0.061 A 
ATOM      7  Br  UNL     1      30.268 -11.019  76.350  1.00  0.00    -0.047 Br
ATOM      8  C   UNL     1      30.215 -12.161  73.758  1.00  0.00     0.027 A 
ENDROOT
BRANCH   1   9
ATOM      9  C   UNL     1      30.544 -13.097  71.565  1.00  0.00     0.022 C 
ATOM     10  O   UNL     1      30.466 -15.246  73.697  1.00  0.00    -0.269 OA
ATOM     11  C   UNL     1      31.159 -15.257  72.653  1.00  0.00     0.256 C 
ATOM     12  N   UNL     1      32.070 -16.295  72.253  1.00  0.00    -0.321 N 
ATOM     13  C   UNL     1      31.200 -14.241  71.614  1.00  0.00     0.050 C 
ATOM     14  C   UNL     1      32.670 -15.942  70.994  1.00  0.00     0.049 A 
ATOM     15  C   UNL     1      32.153 -14.713  70.605  1.00  0.00     0.012 A 
ATOM     16  C   UNL     1      33.597 -16.624  70.227  1.00  0.00     0.028 A 
ATOM     17  C   UNL     1      32.619 -14.204  69.398  1.00  0.00     0.025 A 
ATOM     18  C   UNL     1      34.023 -16.066  69.034  1.00  0.00     0.017 A 
ATOM     19  C   UNL     1      33.539 -14.848  68.604  1.00  0.00     0.014 A 
ATOM     20  H   UNL     1      32.236 -17.140  72.813  1.00  0.00     0.170 HD
ATOM     21  I   UNL     1      34.200 -14.009  66.776  1.00  0.00    -0.044 I 
ENDBRANCH   1   9
BRANCH   5  22
ATOM     22  O   UNL     1      27.261 -11.227  75.710  1.00  0.00    -0.506 OA
ATOM     23  H   UNL     1      26.838 -10.309  75.638  1.00  0.00     0.293 HD
ENDBRANCH   5  22
TORSDOF 2
ENDMDL
MODEL 9
REMARK VINA RESULT:      -6.2      7.227      9.722
REMARK SMILES O=C1Nc2ccc(I)cc2/C1=C/c1cc(Br)c(O)c(Br)c1
REMARK SMILES IDX 13 1 14 2 15 3 16 4 17 5 19 6 20 7 21 8 12 9 1 10 2 11 3 12
REMARK SMILES IDX 11 13 4 14 10 15 5 16 9 17 6 18 7 19 8 21 18 22
REMARK H PARENT 3 20 18 23
ROOT
ATOM      1  C   UNL     1      25.987 -13.031  78.467  1.00  0.00    -0.022 A 
ATOM      2  C   UNL     1      26.589 -14.158  78.931  1.00  0.00     0.027 A 
ATOM      3  C   UNL     1      27.003 -14.200  80.251  1.00  0.00     0.061 A 
ATOM      4  Br  UNL     1      27.850 -15.789  80.900  1.00  0.00    -0.047 Br
ATOM      5  C   UNL     1      26.820 -13.126  81.105  1.00  0.00     0.143 A 
ATOM      6  C   UNL     1      26.211 -12.008  80.603  1.00  0.00     0.061 A 
ATOM      7  Br  UNL     1      25.925 -10.483  81.723  1.00  0.00    -0.047 Br
ATOM      8  C   UNL     1      25.793 -11.947  79.301  1.00  0.00     0.027 A 
ENDROOT
BRANCH   1   9
ATOM      9  C   UNL     1      25.483 -12.898  77.111  1.00  0.00     0.022 C 
ATOM     10  O   UNL     1      28.275 -11.727  77.180  1.00  0.00    -0.269 OA
ATOM     11  C   UNL     1      27.509 -11.771  76.189  1.00  0.00     0.256 C 
ATOM     12  N   UNL     1      27.797 -11.266  74.873  1.00  0.00    -0.321 N 
ATOM     13  C   UNL     1      26.172 -12.340  76.135  1.00  0.00     0.050 C 
ATOM     14  C   UNL     1      26.671 -11.510  74.013  1.00  0.00     0.049 A 
ATOM     15  C   UNL     1      25.693 -12.153  74.761  1.00  0.00     0.012 A 
ATOM     16  C   UNL     1      26.489 -11.205  72.676  1.00  0.00     0.028 A 
ATOM     17  C   UNL     1      24.519 -12.475  74.092  1.00  0.00     0.025 A 
ATOM     18  C   UNL     1      25.296 -11.551  72.064  1.00  0.00     0.017 A 
ATOM     19  C   UNL     1      24.295 -12.191  72.765  1.00  0.00     0.014 A 
ATOM     20  H   UNL     1      28.685 -10.808  74.632  1.00  0.00     0.170 HD
ATOM     21  I   UNL     1      22.478 -12.715  71.814  1.00  0.00    -0.044 I 
ENDBRANCH   1   9
BRANCH   5  22
ATOM     22  O   UNL     1      27.239 -13.179  82.430  1.00  0.00    -0.506 OA
ATOM     23  H   UNL     1      28.010 -13.783  82.691  1.00  0.00     0.293 HD
ENDBRANCH   5  22
TORSDOF 2
ENDMDL
