MODEL 1
REMARK VINA RESULT:      -5.8      0.000      0.000
REMARK SMILES Clc1ccccc1C(c1ccccc1)(c1ccccc1)n1ccnc1
REMARK SMILES IDX 1 1 2 2 3 3 4 4 5 5 6 6 7 7 8 8 9 9 10 10 14 11 11 12 13 13
REMARK SMILES IDX 12 14 15 15 16 16 20 17 17 18 19 19 18 20 21 21 22 22 25 23
REMARK SMILES IDX 23 24 24 25
REMARK H PARENT
ROOT
ATOM      1  Cl  UNL     1       1.946  30.792  -2.839  1.00  0.00    -0.084 Cl
ATOM      2  C   UNL     1       2.025  31.624  -1.301  1.00  0.00     0.047 A 
ATOM      3  C   UNL     1       2.686  31.082  -0.222  1.00  0.00     0.021 A 
ATOM      4  C   UNL     1       2.778  31.749   0.980  1.00  0.00     0.002 A 
ATOM      5  C   UNL     1       2.187  32.984   1.079  1.00  0.00     0.001 A 
ATOM      6  C   UNL     1       1.515  33.534  -0.020  1.00  0.00     0.008 A 
ATOM      7  C   UNL     1       1.427  32.870  -1.204  1.00  0.00     0.006 A 
ENDROOT
BRANCH   7   8
ATOM      8  C   UNL     1       0.686  33.463  -2.350  1.00  0.00     0.123 C 
BRANCH   8   9
ATOM      9  C   UNL     1       1.645  33.623  -3.480  1.00  0.00    -0.013 A 
ATOM     10  C   UNL     1       1.394  33.333  -4.781  1.00  0.00     0.007 A 
ATOM     11  C   UNL     1       2.904  34.137  -3.116  1.00  0.00     0.007 A 
ATOM     12  C   UNL     1       2.380  33.548  -5.727  1.00  0.00     0.000 A 
ATOM     13  C   UNL     1       3.875  34.347  -4.060  1.00  0.00     0.000 A 
ATOM     14  C   UNL     1       3.632  34.057  -5.381  1.00  0.00     0.000 A 
ENDBRANCH   8   9
BRANCH   8  15
ATOM     15  C   UNL     1       0.252  34.854  -2.051  1.00  0.00    -0.013 A 
ATOM     16  C   UNL     1       0.604  35.934  -2.816  1.00  0.00     0.007 A 
ATOM     17  C   UNL     1      -0.562  35.067  -0.967  1.00  0.00     0.007 A 
ATOM     18  C   UNL     1       0.165  37.220  -2.526  1.00  0.00     0.000 A 
ATOM     19  C   UNL     1      -1.019  36.358  -0.654  1.00  0.00     0.000 A 
ATOM     20  C   UNL     1      -0.649  37.417  -1.437  1.00  0.00     0.000 A 
ENDBRANCH   8  15
BRANCH   8  21
ATOM     21  N   UNL     1      -0.457  32.660  -2.667  1.00  0.00    -0.319 N 
ATOM     22  C   UNL     1      -1.160  32.697  -3.833  1.00  0.00     0.109 A 
ATOM     23  C   UNL     1      -1.024  31.726  -1.904  1.00  0.00     0.200 A 
ATOM     24  C   UNL     1      -2.175  31.768  -3.775  1.00  0.00     0.131 A 
ATOM     25  N   UNL     1      -2.069  31.188  -2.586  1.00  0.00    -0.245 NA
ENDBRANCH   8  21
ENDBRANCH   7   8
TORSDOF 4
ENDMDL
MODEL 2
REMARK VINA RESULT:      -5.7      0.436      1.210
REMARK SMILES Clc1ccccc1C(c1ccccc1)(c1ccccc1)n1ccnc1
REMARK SMILES IDX 1 1 2 2 3 3 4 4 5 5 6 6 7 7 8 8 9 9 10 10 14 11 11 12 13 13
REMARK SMILES IDX 12 14 15 15 16 16 20 17 17 18 19 19 18 20 21 21 22 22 25 23
REMARK SMILES IDX 23 24 24 25
REMARK H PARENT
ROOT
ATOM      1  Cl  UNL     1       2.109  30.802  -2.918  1.00  0.00    -0.084 Cl
ATOM      2  C   UNL     1       2.143  31.626  -1.376  1.00  0.00     0.047 A 
ATOM      3  C   UNL     1       2.766  31.077  -0.279  1.00  0.00     0.021 A 
ATOM      4  C   UNL     1       2.823  31.737   0.929  1.00  0.00     0.002 A 
ATOM      5  C   UNL     1       2.235  32.975   1.015  1.00  0.00     0.001 A 
ATOM      6  C   UNL     1       1.601  33.533  -0.102  1.00  0.00     0.008 A 
ATOM      7  C   UNL     1       1.547  32.874  -1.292  1.00  0.00     0.006 A 
ENDROOT
BRANCH   7   8
ATOM      8  C   UNL     1       0.846  33.476  -2.458  1.00  0.00     0.123 C 
BRANCH   8   9
ATOM      9  C   UNL     1       1.850  33.673  -3.542  1.00  0.00    -0.013 A 
ATOM     10  C   UNL     1       3.126  34.099  -3.373  1.00  0.00     0.007 A 
ATOM     11  C   UNL     1       1.390  33.363  -4.836  1.00  0.00     0.007 A 
ATOM     12  C   UNL     1       3.953  34.221  -4.476  1.00  0.00     0.000 A 
ATOM     13  C   UNL     1       2.216  33.485  -5.922  1.00  0.00     0.000 A 
ATOM     14  C   UNL     1       3.511  33.916  -5.763  1.00  0.00     0.000 A 
ENDBRANCH   8   9
BRANCH   8  15
ATOM     15  C   UNL     1       0.375  34.854  -2.153  1.00  0.00    -0.013 A 
ATOM     16  C   UNL     1       0.759  35.957  -2.869  1.00  0.00     0.007 A 
ATOM     17  C   UNL     1      -0.509  35.029  -1.118  1.00  0.00     0.007 A 
ATOM     18  C   UNL     1       0.284  37.230  -2.575  1.00  0.00     0.000 A 
ATOM     19  C   UNL     1      -1.002  36.306  -0.803  1.00  0.00     0.000 A 
ATOM     20  C   UNL     1      -0.600  37.389  -1.535  1.00  0.00     0.000 A 
ENDBRANCH   8  15
BRANCH   8  21
ATOM     21  N   UNL     1      -0.268  32.659  -2.839  1.00  0.00    -0.319 N 
ATOM     22  C   UNL     1      -0.826  31.670  -2.088  1.00  0.00     0.109 A 
ATOM     23  C   UNL     1      -0.968  32.728  -3.971  1.00  0.00     0.200 A 
ATOM     24  C   UNL     1      -1.886  31.126  -2.779  1.00  0.00     0.131 A 
ATOM     25  N   UNL     1      -1.952  31.791  -3.926  1.00  0.00    -0.245 NA
ENDBRANCH   8  21
ENDBRANCH   7   8
TORSDOF 4
ENDMDL
MODEL 3
REMARK VINA RESULT:      -5.6      1.657      2.573
REMARK SMILES Clc1ccccc1C(c1ccccc1)(c1ccccc1)n1ccnc1
REMARK SMILES IDX 1 1 2 2 3 3 4 4 5 5 6 6 7 7 8 8 9 9 10 10 14 11 11 12 13 13
REMARK SMILES IDX 12 14 15 15 16 16 20 17 17 18 19 19 18 20 21 21 22 22 25 23
REMARK SMILES IDX 23 24 24 25
REMARK H PARENT
ROOT
ATOM      1  Cl  UNL     1       1.043  32.137  -2.427  1.00  0.00    -0.084 Cl
ATOM      2  C   UNL     1       0.360  33.272  -1.285  1.00  0.00     0.047 A 
ATOM      3  C   UNL     1       0.275  32.981   0.057  1.00  0.00     0.021 A 
ATOM      4  C   UNL     1      -0.233  33.885   0.965  1.00  0.00     0.002 A 
ATOM      5  C   UNL     1      -0.659  35.102   0.492  1.00  0.00     0.001 A 
ATOM      6  C   UNL     1      -0.572  35.397  -0.875  1.00  0.00     0.008 A 
ATOM      7  C   UNL     1      -0.070  34.499  -1.765  1.00  0.00     0.006 A 
ENDROOT
BRANCH   7   8
ATOM      8  C   UNL     1      -0.012  34.825  -3.216  1.00  0.00     0.123 C 
BRANCH   8   9
ATOM      9  C   UNL     1       1.406  34.691  -3.656  1.00  0.00    -0.013 A 
ATOM     10  C   UNL     1       2.500  34.993  -2.913  1.00  0.00     0.007 A 
ATOM     11  C   UNL     1       1.574  34.188  -4.961  1.00  0.00     0.007 A 
ATOM     12  C   UNL     1       3.760  34.801  -3.450  1.00  0.00     0.000 A 
ATOM     13  C   UNL     1       2.826  34.001  -5.485  1.00  0.00     0.000 A 
ATOM     14  C   UNL     1       3.941  34.304  -4.741  1.00  0.00     0.000 A 
ENDBRANCH   8   9
BRANCH   8  15
ATOM     15  C   UNL     1      -0.327  36.258  -3.460  1.00  0.00    -0.013 A 
ATOM     16  C   UNL     1      -1.206  36.682  -4.422  1.00  0.00     0.007 A 
ATOM     17  C   UNL     1       0.271  37.204  -2.669  1.00  0.00     0.007 A 
ATOM     18  C   UNL     1      -1.500  38.026  -4.613  1.00  0.00     0.000 A 
ATOM     19  C   UNL     1      -0.010  38.570  -2.843  1.00  0.00     0.000 A 
ATOM     20  C   UNL     1      -0.891  38.962  -3.812  1.00  0.00     0.000 A 
ENDBRANCH   8  15
BRANCH   8  21
ATOM     21  N   UNL     1      -0.927  33.998  -3.945  1.00  0.00    -0.319 N 
ATOM     22  C   UNL     1      -2.144  33.574  -3.505  1.00  0.00     0.109 A 
ATOM     23  C   UNL     1      -0.772  33.516  -5.177  1.00  0.00     0.200 A 
ATOM     24  C   UNL     1      -2.739  32.818  -4.490  1.00  0.00     0.131 A 
ATOM     25  N   UNL     1      -1.880  32.798  -5.502  1.00  0.00    -0.245 NA
ENDBRANCH   8  21
ENDBRANCH   7   8
TORSDOF 4
ENDMDL
MODEL 4
REMARK VINA RESULT:      -5.5      0.195      1.353
REMARK SMILES Clc1ccccc1C(c1ccccc1)(c1ccccc1)n1ccnc1
REMARK SMILES IDX 1 1 2 2 3 3 4 4 5 5 6 6 7 7 8 8 9 9 10 10 14 11 11 12 13 13
REMARK SMILES IDX 12 14 15 15 16 16 20 17 17 18 19 19 18 20 21 21 22 22 25 23
REMARK SMILES IDX 23 24 24 25
REMARK H PARENT
ROOT
ATOM      1  Cl  UNL     1       2.115  30.800  -2.829  1.00  0.00    -0.084 Cl
ATOM      2  C   UNL     1       2.148  31.634  -1.291  1.00  0.00     0.047 A 
ATOM      3  C   UNL     1       2.792  31.103  -0.197  1.00  0.00     0.021 A 
ATOM      4  C   UNL     1       2.848  31.771   1.007  1.00  0.00     0.002 A 
ATOM      5  C   UNL     1       2.236  32.998   1.092  1.00  0.00     0.001 A 
ATOM      6  C   UNL     1       1.580  33.537  -0.023  1.00  0.00     0.008 A 
ATOM      7  C   UNL     1       1.528  32.870  -1.208  1.00  0.00     0.006 A 
ENDROOT
BRANCH   7   8
ATOM      8  C   UNL     1       0.804  33.452  -2.370  1.00  0.00     0.123 C 
BRANCH   8   9
ATOM      9  C   UNL     1       1.795  33.673  -3.461  1.00  0.00    -0.013 A 
ATOM     10  C   UNL     1       3.062  34.131  -3.301  1.00  0.00     0.007 A 
ATOM     11  C   UNL     1       1.334  33.349  -4.752  1.00  0.00     0.007 A 
ATOM     12  C   UNL     1       3.878  34.272  -4.410  1.00  0.00     0.000 A 
ATOM     13  C   UNL     1       2.150  33.491  -5.844  1.00  0.00     0.000 A 
ATOM     14  C   UNL     1       3.435  33.955  -5.694  1.00  0.00     0.000 A 
ENDBRANCH   8   9
BRANCH   8  15
ATOM     15  C   UNL     1       0.299  34.817  -2.064  1.00  0.00    -0.013 A 
ATOM     16  C   UNL     1      -0.558  35.089  -1.031  1.00  0.00     0.007 A 
ATOM     17  C   UNL     1       0.731  35.863  -2.839  1.00  0.00     0.007 A 
ATOM     18  C   UNL     1      -0.996  36.379  -0.754  1.00  0.00     0.000 A 
ATOM     19  C   UNL     1       0.302  37.176  -2.579  1.00  0.00     0.000 A 
ATOM     20  C   UNL     1      -0.555  37.416  -1.540  1.00  0.00     0.000 A 
ENDBRANCH   8  15
BRANCH   8  21
ATOM     21  N   UNL     1      -0.291  32.605  -2.743  1.00  0.00    -0.319 N 
ATOM     22  C   UNL     1      -0.958  32.639  -3.930  1.00  0.00     0.109 A 
ATOM     23  C   UNL     1      -0.837  31.629  -2.019  1.00  0.00     0.200 A 
ATOM     24  C   UNL     1      -1.930  31.664  -3.926  1.00  0.00     0.131 A 
ATOM     25  N   UNL     1      -1.835  31.061  -2.747  1.00  0.00    -0.245 NA
ENDBRANCH   8  21
ENDBRANCH   7   8
TORSDOF 4
ENDMDL
MODEL 5
REMARK VINA RESULT:      -5.5      1.714      2.344
REMARK SMILES Clc1ccccc1C(c1ccccc1)(c1ccccc1)n1ccnc1
REMARK SMILES IDX 1 1 2 2 3 3 4 4 5 5 6 6 7 7 8 8 9 9 10 10 14 11 11 12 13 13
REMARK SMILES IDX 12 14 15 15 16 16 20 17 17 18 19 19 18 20 21 21 22 22 25 23
REMARK SMILES IDX 23 24 24 25
REMARK H PARENT
ROOT
ATOM      1  Cl  UNL     1      -1.804  35.135  -0.796  1.00  0.00    -0.084 Cl
ATOM      2  C   UNL     1      -0.268  34.383  -0.426  1.00  0.00     0.047 A 
ATOM      3  C   UNL     1       0.087  34.065   0.865  1.00  0.00     0.021 A 
ATOM      4  C   UNL     1       1.281  33.443   1.157  1.00  0.00     0.002 A 
ATOM      5  C   UNL     1       2.123  33.144   0.115  1.00  0.00     0.001 A 
ATOM      6  C   UNL     1       1.762  33.469  -1.200  1.00  0.00     0.008 A 
ATOM      7  C   UNL     1       0.581  34.084  -1.480  1.00  0.00     0.006 A 
ENDROOT
BRANCH   7   8
ATOM      8  C   UNL     1       0.229  34.442  -2.881  1.00  0.00     0.123 C 
BRANCH   8   9
ATOM      9  C   UNL     1       1.441  34.231  -3.723  1.00  0.00    -0.013 A 
ATOM     10  C   UNL     1       1.504  33.477  -4.848  1.00  0.00     0.007 A 
ATOM     11  C   UNL     1       2.593  34.908  -3.279  1.00  0.00     0.007 A 
ATOM     12  C   UNL     1       2.699  33.386  -5.539  1.00  0.00     0.000 A 
ATOM     13  C   UNL     1       3.773  34.813  -3.970  1.00  0.00     0.000 A 
ATOM     14  C   UNL     1       3.848  34.051  -5.111  1.00  0.00     0.000 A 
ENDBRANCH   8   9
BRANCH   8  15
ATOM     15  C   UNL     1      -0.049  35.897  -3.013  1.00  0.00    -0.013 A 
ATOM     16  C   UNL     1       0.410  36.835  -2.126  1.00  0.00     0.007 A 
ATOM     17  C   UNL     1      -0.782  36.329  -4.089  1.00  0.00     0.007 A 
ATOM     18  C   UNL     1       0.154  38.192  -2.287  1.00  0.00     0.000 A 
ATOM     19  C   UNL     1      -1.053  37.695  -4.273  1.00  0.00     0.000 A 
ATOM     20  C   UNL     1      -0.582  38.608  -3.370  1.00  0.00     0.000 A 
ENDBRANCH   8  15
BRANCH   8  21
ATOM     21  N   UNL     1      -0.914  33.692  -3.310  1.00  0.00    -0.319 N 
ATOM     22  C   UNL     1      -1.204  32.409  -2.958  1.00  0.00     0.109 A 
ATOM     23  C   UNL     1      -1.902  34.109  -4.101  1.00  0.00     0.200 A 
ATOM     24  C   UNL     1      -2.392  32.039  -3.550  1.00  0.00     0.131 A 
ATOM     25  N   UNL     1      -2.797  33.097  -4.243  1.00  0.00    -0.245 NA
ENDBRANCH   8  21
ENDBRANCH   7   8
TORSDOF 4
ENDMDL
MODEL 6
REMARK VINA RESULT:      -5.4      1.123      4.513
REMARK SMILES Clc1ccccc1C(c1ccccc1)(c1ccccc1)n1ccnc1
REMARK SMILES IDX 1 1 2 2 3 3 4 4 5 5 6 6 7 7 8 8 9 9 10 10 14 11 11 12 13 13
REMARK SMILES IDX 12 14 15 15 16 16 20 17 17 18 19 19 18 20 21 21 22 22 25 23
REMARK SMILES IDX 23 24 24 25
REMARK H PARENT
ROOT
ATOM      1  Cl  UNL     1      -1.334  33.513  -0.092  1.00  0.00    -0.084 Cl
ATOM      2  C   UNL     1      -0.863  34.991  -0.901  1.00  0.00     0.047 A 
ATOM      3  C   UNL     1      -1.400  36.208  -0.548  1.00  0.00     0.021 A 
ATOM      4  C   UNL     1      -1.008  37.379  -1.161  1.00  0.00     0.002 A 
ATOM      5  C   UNL     1      -0.055  37.303  -2.146  1.00  0.00     0.001 A 
ATOM      6  C   UNL     1       0.492  36.063  -2.504  1.00  0.00     0.008 A 
ATOM      7  C   UNL     1       0.098  34.911  -1.895  1.00  0.00     0.006 A 
ENDROOT
BRANCH   7   8
ATOM      8  C   UNL     1       0.674  33.603  -2.310  1.00  0.00     0.123 C 
BRANCH   8   9
ATOM      9  C   UNL     1       1.425  33.047  -1.148  1.00  0.00    -0.013 A 
ATOM     10  C   UNL     1       1.653  33.683   0.028  1.00  0.00     0.007 A 
ATOM     11  C   UNL     1       1.906  31.736  -1.331  1.00  0.00     0.007 A 
ATOM     12  C   UNL     1       2.355  33.032   1.027  1.00  0.00     0.000 A 
ATOM     13  C   UNL     1       2.600  31.099  -0.335  1.00  0.00     0.000 A 
ATOM     14  C   UNL     1       2.837  31.734   0.860  1.00  0.00     0.000 A 
ENDBRANCH   8   9
BRANCH   8  15
ATOM     15  C   UNL     1       1.717  33.780  -3.356  1.00  0.00    -0.013 A 
ATOM     16  C   UNL     1       2.950  34.322  -3.108  1.00  0.00     0.007 A 
ATOM     17  C   UNL     1       1.442  33.356  -4.632  1.00  0.00     0.007 A 
ATOM     18  C   UNL     1       3.913  34.453  -4.101  1.00  0.00     0.000 A 
ATOM     19  C   UNL     1       2.400  33.478  -5.652  1.00  0.00     0.000 A 
ATOM     20  C   UNL     1       3.622  34.025  -5.374  1.00  0.00     0.000 A 
ENDBRANCH   8  15
BRANCH   8  21
ATOM     21  N   UNL     1      -0.360  32.742  -2.800  1.00  0.00    -0.319 N 
ATOM     22  C   UNL     1      -0.460  31.403  -2.570  1.00  0.00     0.109 A 
ATOM     23  C   UNL     1      -1.412  33.086  -3.543  1.00  0.00     0.200 A 
ATOM     24  C   UNL     1      -1.595  30.925  -3.186  1.00  0.00     0.131 A 
ATOM     25  N   UNL     1      -2.159  31.975  -3.773  1.00  0.00    -0.245 NA
ENDBRANCH   8  21
ENDBRANCH   7   8
TORSDOF 4
ENDMDL
MODEL 7
REMARK VINA RESULT:      -5.4      2.006      2.925
REMARK SMILES Clc1ccccc1C(c1ccccc1)(c1ccccc1)n1ccnc1
REMARK SMILES IDX 1 1 2 2 3 3 4 4 5 5 6 6 7 7 8 8 9 9 10 10 14 11 11 12 13 13
REMARK SMILES IDX 12 14 15 15 16 16 20 17 17 18 19 19 18 20 21 21 22 22 25 23
REMARK SMILES IDX 23 24 24 25
REMARK H PARENT
ROOT
ATOM      1  Cl  UNL     1      -2.340  35.913  -1.483  1.00  0.00    -0.084 Cl
ATOM      2  C   UNL     1      -0.989  35.017  -0.826  1.00  0.00     0.047 A 
ATOM      3  C   UNL     1      -0.922  34.687   0.508  1.00  0.00     0.021 A 
ATOM      4  C   UNL     1       0.124  33.953   1.023  1.00  0.00     0.002 A 
ATOM      5  C   UNL     1       1.115  33.552   0.161  1.00  0.00     0.001 A 
ATOM      6  C   UNL     1       1.047  33.888  -1.197  1.00  0.00     0.008 A 
ATOM      7  C   UNL     1       0.010  34.614  -1.698  1.00  0.00     0.006 A 
ENDROOT
BRANCH   7   8
ATOM      8  C   UNL     1      -0.028  34.980  -3.140  1.00  0.00     0.123 C 
BRANCH   8   9
ATOM      9  C   UNL     1       1.329  34.742  -3.707  1.00  0.00    -0.013 A 
ATOM     10  C   UNL     1       2.505  35.085  -3.123  1.00  0.00     0.007 A 
ATOM     11  C   UNL     1       1.341  34.088  -4.954  1.00  0.00     0.007 A 
ATOM     12  C   UNL     1       3.694  34.785  -3.764  1.00  0.00     0.000 A 
ATOM     13  C   UNL     1       2.524  33.794  -5.581  1.00  0.00     0.000 A 
ATOM     14  C   UNL     1       3.721  34.136  -4.998  1.00  0.00     0.000 A 
ENDBRANCH   8   9
BRANCH   8  15
ATOM     15  C   UNL     1      -0.239  36.442  -3.321  1.00  0.00    -0.013 A 
ATOM     16  C   UNL     1      -0.991  36.975  -4.334  1.00  0.00     0.007 A 
ATOM     17  C   UNL     1       0.326  37.302  -2.414  1.00  0.00     0.007 A 
ATOM     18  C   UNL     1      -1.190  38.344  -4.465  1.00  0.00     0.000 A 
ATOM     19  C   UNL     1       0.139  38.690  -2.526  1.00  0.00     0.000 A 
ATOM     20  C   UNL     1      -0.616  39.192  -3.549  1.00  0.00     0.000 A 
ENDBRANCH   8  15
BRANCH   8  21
ATOM     21  N   UNL     1      -1.071  34.257  -3.805  1.00  0.00    -0.319 N 
ATOM     22  C   UNL     1      -1.839  34.724  -4.828  1.00  0.00     0.109 A 
ATOM     23  C   UNL     1      -1.463  33.006  -3.567  1.00  0.00     0.200 A 
ATOM     24  C   UNL     1      -2.717  33.737  -5.218  1.00  0.00     0.131 A 
ATOM     25  N   UNL     1      -2.466  32.697  -4.431  1.00  0.00    -0.245 NA
ENDBRANCH   8  21
ENDBRANCH   7   8
TORSDOF 4
ENDMDL
MODEL 8
REMARK VINA RESULT:      -5.4      1.500      2.193
REMARK SMILES Clc1ccccc1C(c1ccccc1)(c1ccccc1)n1ccnc1
REMARK SMILES IDX 1 1 2 2 3 3 4 4 5 5 6 6 7 7 8 8 9 9 10 10 14 11 11 12 13 13
REMARK SMILES IDX 12 14 15 15 16 16 20 17 17 18 19 19 18 20 21 21 22 22 25 23
REMARK SMILES IDX 23 24 24 25
REMARK H PARENT
ROOT
ATOM      1  Cl  UNL     1       1.260  32.029  -2.626  1.00  0.00    -0.084 Cl
ATOM      2  C   UNL     1       0.590  33.120  -1.433  1.00  0.00     0.047 A 
ATOM      3  C   UNL     1       0.614  32.821  -0.090  1.00  0.00     0.021 A 
ATOM      4  C   UNL     1       0.117  33.692   0.855  1.00  0.00     0.002 A 
ATOM      5  C   UNL     1      -0.411  34.883   0.420  1.00  0.00     0.001 A 
ATOM      6  C   UNL     1      -0.434  35.186  -0.948  1.00  0.00     0.008 A 
ATOM      7  C   UNL     1       0.058  34.320  -1.875  1.00  0.00     0.006 A 
ENDROOT
BRANCH   7   8
ATOM      8  C   UNL     1      -0.001  34.653  -3.325  1.00  0.00     0.123 C 
BRANCH   8   9
ATOM      9  C   UNL     1       1.379  34.533  -3.876  1.00  0.00    -0.013 A 
ATOM     10  C   UNL     1       1.701  34.098  -5.120  1.00  0.00     0.007 A 
ATOM     11  C   UNL     1       2.403  34.932  -2.996  1.00  0.00     0.007 A 
ATOM     12  C   UNL     1       3.030  34.054  -5.501  1.00  0.00     0.000 A 
ATOM     13  C   UNL     1       3.717  34.886  -3.382  1.00  0.00     0.000 A 
ATOM     14  C   UNL     1       4.055  34.447  -4.640  1.00  0.00     0.000 A 
ENDBRANCH   8   9
BRANCH   8  15
ATOM     15  C   UNL     1      -0.347  36.084  -3.537  1.00  0.00    -0.013 A 
ATOM     16  C   UNL     1      -1.206  36.514  -4.513  1.00  0.00     0.007 A 
ATOM     17  C   UNL     1       0.202  37.021  -2.699  1.00  0.00     0.007 A 
ATOM     18  C   UNL     1      -1.530  37.856  -4.674  1.00  0.00     0.000 A 
ATOM     19  C   UNL     1      -0.110  38.384  -2.842  1.00  0.00     0.000 A 
ATOM     20  C   UNL     1      -0.971  38.783  -3.827  1.00  0.00     0.000 A 
ENDBRANCH   8  15
BRANCH   8  21
ATOM     21  N   UNL     1      -0.964  33.821  -3.983  1.00  0.00    -0.319 N 
ATOM     22  C   UNL     1      -0.843  33.296  -5.233  1.00  0.00     0.109 A 
ATOM     23  C   UNL     1      -2.129  33.395  -3.495  1.00  0.00     0.200 A 
ATOM     24  C   UNL     1      -1.958  32.536  -5.511  1.00  0.00     0.131 A 
ATOM     25  N   UNL     1      -2.728  32.614  -4.432  1.00  0.00    -0.245 NA
ENDBRANCH   8  21
ENDBRANCH   7   8
TORSDOF 4
ENDMDL
MODEL 9
REMARK VINA RESULT:      -5.3      1.640      4.723
REMARK SMILES Clc1ccccc1C(c1ccccc1)(c1ccccc1)n1ccnc1
REMARK SMILES IDX 1 1 2 2 3 3 4 4 5 5 6 6 7 7 8 8 9 9 10 10 14 11 11 12 13 13
REMARK SMILES IDX 12 14 15 15 16 16 20 17 17 18 19 19 18 20 21 21 22 22 25 23
REMARK SMILES IDX 23 24 24 25
REMARK H PARENT
ROOT
ATOM      1  Cl  UNL     1      -2.169  34.369  -1.001  1.00  0.00    -0.084 Cl
ATOM      2  C   UNL     1      -1.239  35.764  -1.499  1.00  0.00     0.047 A 
ATOM      3  C   UNL     1      -1.544  37.030  -1.054  1.00  0.00     0.021 A 
ATOM      4  C   UNL     1      -0.794  38.127  -1.418  1.00  0.00     0.002 A 
ATOM      5  C   UNL     1       0.281  37.926  -2.249  1.00  0.00     0.001 A 
ATOM      6  C   UNL     1       0.590  36.637  -2.702  1.00  0.00     0.008 A 
ATOM      7  C   UNL     1      -0.156  35.559  -2.339  1.00  0.00     0.006 A 
ENDROOT
BRANCH   7   8
ATOM      8  C   UNL     1       0.177  34.202  -2.853  1.00  0.00     0.123 C 
BRANCH   8   9
ATOM      9  C   UNL     1       0.464  33.328  -1.681  1.00  0.00    -0.013 A 
ATOM     10  C   UNL     1       0.346  31.977  -1.651  1.00  0.00     0.007 A 
ATOM     11  C   UNL     1       0.908  34.009  -0.532  1.00  0.00     0.007 A 
ATOM     12  C   UNL     1       0.665  31.293  -0.492  1.00  0.00     0.000 A 
ATOM     13  C   UNL     1       1.222  33.323   0.613  1.00  0.00     0.000 A 
ATOM     14  C   UNL     1       1.106  31.955   0.654  1.00  0.00     0.000 A 
ENDBRANCH   8   9
BRANCH   8  15
ATOM     15  C   UNL     1       1.455  34.212  -3.614  1.00  0.00    -0.013 A 
ATOM     16  C   UNL     1       2.659  34.560  -3.060  1.00  0.00     0.007 A 
ATOM     17  C   UNL     1       1.436  33.829  -4.931  1.00  0.00     0.007 A 
ATOM     18  C   UNL     1       3.842  34.537  -3.788  1.00  0.00     0.000 A 
ATOM     19  C   UNL     1       2.619  33.798  -5.688  1.00  0.00     0.000 A 
ATOM     20  C   UNL     1       3.806  34.152  -5.107  1.00  0.00     0.000 A 
ENDBRANCH   8  15
BRANCH   8  21
ATOM     21  N   UNL     1      -0.880  33.720  -3.693  1.00  0.00    -0.319 N 
ATOM     22  C   UNL     1      -1.330  32.437  -3.751  1.00  0.00     0.109 A 
ATOM     23  C   UNL     1      -1.622  34.430  -4.542  1.00  0.00     0.200 A 
ATOM     24  C   UNL     1      -2.366  32.365  -4.657  1.00  0.00     0.131 A 
ATOM     25  N   UNL     1      -2.524  33.597  -5.125  1.00  0.00    -0.245 NA
ENDBRANCH   8  21
ENDBRANCH   7   8
TORSDOF 4
ENDMDL
