MODEL 1
REMARK VINA RESULT:      -7.8      0.000      0.000
REMARK SMILES O=C1NCN(c2ccccc2)C12CC[NH+](CCCC(c1ccc(F)cc1)c1ccc(F)cc1)CC2
REMARK SMILES IDX 17 1 16 2 15 3 1 4 2 5 3 6 12 7 4 8 5 9 13 10 35 11 14 12
REMARK SMILES IDX 34 13 6 16 7 17 11 18 8 19 10 20 9 21 18 22 19 23 20 24
REMARK SMILES IDX 21 25 26 26 22 27 25 28 23 29 24 30 27 31 28 32 33 33 29 34
REMARK SMILES IDX 32 35 30 36 31 37
REMARK H PARENT 3 14 15 15
ROOT
ATOM      1  C   UNL     1      -6.155  16.608  31.744  1.00  0.00     0.062 C 
ENDROOT
BRANCH   1   2
ATOM      2  C   UNL     1      -5.031  15.762  31.222  1.00  0.00     0.262 C 
BRANCH   2   3
ATOM      3  N   UNL     1      -4.400  16.412  30.079  1.00  0.00    -0.335 N 
ATOM      4  O   UNL     1      -1.796  16.611  28.179  1.00  0.00    -0.272 OA
ATOM      5  C   UNL     1      -2.259  17.683  27.736  1.00  0.00     0.247 C 
ATOM      6  N   UNL     1      -1.627  18.477  26.763  1.00  0.00    -0.336 N 
ATOM      7  C   UNL     1      -3.566  18.315  28.159  1.00  0.00     0.131 C 
ATOM      8  C   UNL     1      -2.644  19.314  26.210  1.00  0.00     0.238 C 
ATOM      9  N   UNL     1      -3.588  19.511  27.321  1.00  0.00    -0.339 N 
ATOM     10  C   UNL     1      -3.488  18.649  29.635  1.00  0.00     0.100 C 
ATOM     11  C   UNL     1      -4.654  17.346  27.861  1.00  0.00     0.100 C 
ATOM     12  C   UNL     1      -3.419  17.398  30.480  1.00  0.00     0.265 C 
ATOM     13  C   UNL     1      -5.340  16.937  29.124  1.00  0.00     0.265 C 
ATOM     14  H   UNL     1      -0.603  18.441  26.511  1.00  0.00     0.165 HD
ATOM     15  H   UNL     1      -3.879  15.643  29.606  1.00  0.00     0.348 HD
BRANCH   9  16
ATOM     16  C   UNL     1      -4.322  20.717  27.454  1.00  0.00     0.039 A 
ATOM     17  C   UNL     1      -3.729  21.860  27.933  1.00  0.00     0.026 A 
ATOM     18  C   UNL     1      -5.631  20.753  27.082  1.00  0.00     0.026 A 
ATOM     19  C   UNL     1      -4.439  23.060  28.049  1.00  0.00     0.002 A 
ATOM     20  C   UNL     1      -6.344  21.916  27.188  1.00  0.00     0.002 A 
ATOM     21  C   UNL     1      -5.762  23.062  27.664  1.00  0.00     0.000 A 
ENDBRANCH   9  16
ENDBRANCH   2   3
ENDBRANCH   1   2
BRANCH   1  22
ATOM     22  C   UNL     1      -6.117  16.966  33.166  1.00  0.00     0.019 C 
BRANCH  22  23
ATOM     23  C   UNL     1      -6.353  18.321  33.645  1.00  0.00     0.049 C 
BRANCH  23  24
ATOM     24  C   UNL     1      -6.418  18.481  35.142  1.00  0.00    -0.040 A 
ATOM     25  C   UNL     1      -5.836  17.484  35.894  1.00  0.00     0.007 A 
ATOM     26  C   UNL     1      -7.040  19.540  35.745  1.00  0.00     0.007 A 
ATOM     27  C   UNL     1      -5.874  17.544  37.264  1.00  0.00     0.039 A 
ATOM     28  C   UNL     1      -7.075  19.597  37.113  1.00  0.00     0.039 A 
ATOM     29  C   UNL     1      -6.490  18.598  37.900  1.00  0.00     0.123 A 
ATOM     30  F   UNL     1      -6.522  18.646  39.256  1.00  0.00    -0.207 F 
ENDBRANCH  23  24
BRANCH  23  31
ATOM     31  C   UNL     1      -5.676  19.455  33.037  1.00  0.00    -0.040 A 
ATOM     32  C   UNL     1      -6.228  20.385  32.201  1.00  0.00     0.007 A 
ATOM     33  C   UNL     1      -4.314  19.574  33.343  1.00  0.00     0.007 A 
ATOM     34  C   UNL     1      -5.414  21.404  31.691  1.00  0.00     0.039 A 
ATOM     35  C   UNL     1      -3.516  20.558  32.856  1.00  0.00     0.039 A 
ATOM     36  C   UNL     1      -4.083  21.486  32.014  1.00  0.00     0.123 A 
ATOM     37  F   UNL     1      -3.272  22.467  31.534  1.00  0.00    -0.207 F 
ENDBRANCH  23  31
ENDBRANCH  22  23
ENDBRANCH   1  22
TORSDOF 7
ENDMDL
MODEL 2
REMARK VINA RESULT:      -7.7      1.183      1.440
REMARK SMILES O=C1NCN(c2ccccc2)C12CC[NH+](CCCC(c1ccc(F)cc1)c1ccc(F)cc1)CC2
REMARK SMILES IDX 17 1 16 2 15 3 1 4 2 5 3 6 12 7 4 8 5 9 13 10 35 11 14 12
REMARK SMILES IDX 34 13 6 16 7 17 11 18 8 19 10 20 9 21 18 22 19 23 20 24
REMARK SMILES IDX 21 25 26 26 22 27 25 28 23 29 24 30 27 31 28 32 33 33 29 34
REMARK SMILES IDX 32 35 30 36 31 37
REMARK H PARENT 3 14 15 15
ROOT
ATOM      1  C   UNL     1      -5.920  16.512  31.833  1.00  0.00     0.062 C 
ENDROOT
BRANCH   1   2
ATOM      2  C   UNL     1      -4.896  15.644  31.163  1.00  0.00     0.262 C 
BRANCH   2   3
ATOM      3  N   UNL     1      -4.338  16.329  30.002  1.00  0.00    -0.335 N 
ATOM      4  O   UNL     1      -1.833  16.629  27.987  1.00  0.00    -0.272 OA
ATOM      5  C   UNL     1      -2.345  17.694  27.584  1.00  0.00     0.247 C 
ATOM      6  N   UNL     1      -1.781  18.520  26.595  1.00  0.00    -0.336 N 
ATOM      7  C   UNL     1      -3.647  18.282  28.076  1.00  0.00     0.131 C 
ATOM      8  C   UNL     1      -2.846  19.336  26.103  1.00  0.00     0.238 C 
ATOM      9  N   UNL     1      -3.741  19.490  27.260  1.00  0.00    -0.339 N 
ATOM     10  C   UNL     1      -3.510  18.597  29.552  1.00  0.00     0.100 C 
ATOM     11  C   UNL     1      -4.721  17.287  27.814  1.00  0.00     0.100 C 
ATOM     12  C   UNL     1      -3.366  17.336  30.373  1.00  0.00     0.265 C 
ATOM     13  C   UNL     1      -5.336  16.841  29.100  1.00  0.00     0.265 C 
ATOM     14  H   UNL     1      -0.769  18.517  26.296  1.00  0.00     0.165 HD
ATOM     15  H   UNL     1      -3.818  15.581  29.493  1.00  0.00     0.348 HD
BRANCH   9  16
ATOM     16  C   UNL     1      -4.502  20.672  27.446  1.00  0.00     0.039 A 
ATOM     17  C   UNL     1      -4.475  21.686  26.519  1.00  0.00     0.026 A 
ATOM     18  C   UNL     1      -5.291  20.800  28.548  1.00  0.00     0.026 A 
ATOM     19  C   UNL     1      -5.238  22.847  26.682  1.00  0.00     0.002 A 
ATOM     20  C   UNL     1      -6.044  21.927  28.727  1.00  0.00     0.002 A 
ATOM     21  C   UNL     1      -6.025  22.945  27.810  1.00  0.00     0.000 A 
ENDBRANCH   9  16
ENDBRANCH   2   3
ENDBRANCH   1   2
BRANCH   1  22
ATOM     22  C   UNL     1      -5.511  17.201  33.062  1.00  0.00     0.019 C 
BRANCH  22  23
ATOM     23  C   UNL     1      -6.422  18.024  33.846  1.00  0.00     0.049 C 
BRANCH  23  24
ATOM     24  C   UNL     1      -6.337  17.846  35.340  1.00  0.00    -0.040 A 
ATOM     25  C   UNL     1      -5.139  18.176  35.933  1.00  0.00     0.007 A 
ATOM     26  C   UNL     1      -7.378  17.360  36.085  1.00  0.00     0.007 A 
ATOM     27  C   UNL     1      -4.975  18.019  37.286  1.00  0.00     0.039 A 
ATOM     28  C   UNL     1      -7.210  17.206  37.435  1.00  0.00     0.039 A 
ATOM     29  C   UNL     1      -6.002  17.534  38.063  1.00  0.00     0.123 A 
ATOM     30  F   UNL     1      -5.828  17.383  39.400  1.00  0.00    -0.207 F 
ENDBRANCH  23  24
BRANCH  23  31
ATOM     31  C   UNL     1      -6.644  19.420  33.507  1.00  0.00    -0.040 A 
ATOM     32  C   UNL     1      -7.698  20.198  33.894  1.00  0.00     0.007 A 
ATOM     33  C   UNL     1      -5.669  19.999  32.683  1.00  0.00     0.007 A 
ATOM     34  C   UNL     1      -7.758  21.526  33.453  1.00  0.00     0.039 A 
ATOM     35  C   UNL     1      -5.715  21.285  32.251  1.00  0.00     0.039 A 
ATOM     36  C   UNL     1      -6.783  22.056  32.647  1.00  0.00     0.123 A 
ATOM     37  F   UNL     1      -6.816  23.343  32.206  1.00  0.00    -0.207 F 
ENDBRANCH  23  31
ENDBRANCH  22  23
ENDBRANCH   1  22
TORSDOF 7
ENDMDL
MODEL 3
REMARK VINA RESULT:      -7.7      1.224      1.735
REMARK SMILES O=C1NCN(c2ccccc2)C12CC[NH+](CCCC(c1ccc(F)cc1)c1ccc(F)cc1)CC2
REMARK SMILES IDX 17 1 16 2 15 3 1 4 2 5 3 6 12 7 4 8 5 9 13 10 35 11 14 12
REMARK SMILES IDX 34 13 6 16 7 17 11 18 8 19 10 20 9 21 18 22 19 23 20 24
REMARK SMILES IDX 21 25 26 26 22 27 25 28 23 29 24 30 27 31 28 32 33 33 29 34
REMARK SMILES IDX 32 35 30 36 31 37
REMARK H PARENT 3 14 15 15
ROOT
ATOM      1  C   UNL     1      -5.299  16.579  32.224  1.00  0.00     0.062 C 
ENDROOT
BRANCH   1   2
ATOM      2  C   UNL     1      -5.053  15.607  31.108  1.00  0.00     0.262 C 
BRANCH   2   3
ATOM      3  N   UNL     1      -4.417  16.283  29.983  1.00  0.00    -0.335 N 
ATOM      4  O   UNL     1      -1.807  16.518  28.096  1.00  0.00    -0.272 OA
ATOM      5  C   UNL     1      -2.263  17.603  27.680  1.00  0.00     0.247 C 
ATOM      6  N   UNL     1      -1.625  18.419  26.729  1.00  0.00    -0.336 N 
ATOM      7  C   UNL     1      -3.568  18.230  28.115  1.00  0.00     0.131 C 
ATOM      8  C   UNL     1      -2.636  19.275  26.195  1.00  0.00     0.238 C 
ATOM      9  N   UNL     1      -3.581  19.448  27.308  1.00  0.00    -0.339 N 
ATOM     10  C   UNL     1      -3.492  18.526  29.599  1.00  0.00     0.100 C 
ATOM     11  C   UNL     1      -4.660  17.275  27.790  1.00  0.00     0.100 C 
ATOM     12  C   UNL     1      -3.431  17.254  30.412  1.00  0.00     0.265 C 
ATOM     13  C   UNL     1      -5.352  16.838  29.039  1.00  0.00     0.265 C 
ATOM     14  H   UNL     1      -0.599  18.384  26.479  1.00  0.00     0.165 HD
ATOM     15  H   UNL     1      -3.898  15.524  29.492  1.00  0.00     0.348 HD
BRANCH   9  16
ATOM     16  C   UNL     1      -4.311  20.653  27.470  1.00  0.00     0.039 A 
ATOM     17  C   UNL     1      -5.636  20.734  27.115  1.00  0.00     0.026 A 
ATOM     18  C   UNL     1      -3.699  21.745  28.006  1.00  0.00     0.026 A 
ATOM     19  C   UNL     1      -6.371  21.911  27.289  1.00  0.00     0.002 A 
ATOM     20  C   UNL     1      -4.399  22.906  28.185  1.00  0.00     0.002 A 
ATOM     21  C   UNL     1      -5.721  22.998  27.834  1.00  0.00     0.000 A 
ENDBRANCH   9  16
ENDBRANCH   2   3
ENDBRANCH   1   2
BRANCH   1  22
ATOM     22  C   UNL     1      -6.546  17.352  32.174  1.00  0.00     0.019 C 
BRANCH  22  23
ATOM     23  C   UNL     1      -6.871  18.388  33.145  1.00  0.00     0.049 C 
BRANCH  23  24
ATOM     24  C   UNL     1      -6.403  18.131  34.553  1.00  0.00    -0.040 A 
ATOM     25  C   UNL     1      -5.130  18.553  34.867  1.00  0.00     0.007 A 
ATOM     26  C   UNL     1      -7.177  17.489  35.483  1.00  0.00     0.007 A 
ATOM     27  C   UNL     1      -4.622  18.334  36.123  1.00  0.00     0.039 A 
ATOM     28  C   UNL     1      -6.666  17.273  36.735  1.00  0.00     0.039 A 
ATOM     29  C   UNL     1      -5.376  17.693  37.079  1.00  0.00     0.123 A 
ATOM     30  F   UNL     1      -4.862  17.482  38.317  1.00  0.00    -0.207 F 
ENDBRANCH  23  24
BRANCH  23  31
ATOM     31  C   UNL     1      -6.733  19.795  32.807  1.00  0.00    -0.040 A 
ATOM     32  C   UNL     1      -5.850  20.339  31.917  1.00  0.00     0.007 A 
ATOM     33  C   UNL     1      -7.595  20.663  33.490  1.00  0.00     0.007 A 
ATOM     34  C   UNL     1      -5.845  21.727  31.732  1.00  0.00     0.039 A 
ATOM     35  C   UNL     1      -7.600  22.009  33.318  1.00  0.00     0.039 A 
ATOM     36  C   UNL     1      -6.706  22.545  32.420  1.00  0.00     0.123 A 
ATOM     37  F   UNL     1      -6.722  23.895  32.257  1.00  0.00    -0.207 F 
ENDBRANCH  23  31
ENDBRANCH  22  23
ENDBRANCH   1  22
TORSDOF 7
ENDMDL
MODEL 4
REMARK VINA RESULT:      -7.6      1.698      4.456
REMARK SMILES O=C1NCN(c2ccccc2)C12CC[NH+](CCCC(c1ccc(F)cc1)c1ccc(F)cc1)CC2
REMARK SMILES IDX 17 1 16 2 15 3 1 4 2 5 3 6 12 7 4 8 5 9 13 10 35 11 14 12
REMARK SMILES IDX 34 13 6 16 7 17 11 18 8 19 10 20 9 21 18 22 19 23 20 24
REMARK SMILES IDX 21 25 26 26 22 27 25 28 23 29 24 30 27 31 28 32 33 33 29 34
REMARK SMILES IDX 32 35 30 36 31 37
REMARK H PARENT 3 14 15 15
ROOT
ATOM      1  C   UNL     1      -6.517  17.056  31.635  1.00  0.00     0.062 C 
ENDROOT
BRANCH   1   2
ATOM      2  C   UNL     1      -5.564  16.071  31.025  1.00  0.00     0.262 C 
BRANCH   2   3
ATOM      3  N   UNL     1      -4.797  16.707  29.959  1.00  0.00    -0.335 N 
ATOM      4  O   UNL     1      -3.376  16.368  27.079  1.00  0.00    -0.272 OA
ATOM      5  C   UNL     1      -2.801  17.456  27.287  1.00  0.00     0.247 C 
ATOM      6  N   UNL     1      -1.897  18.058  26.394  1.00  0.00    -0.336 N 
ATOM      7  C   UNL     1      -2.969  18.315  28.519  1.00  0.00     0.131 C 
ATOM      8  C   UNL     1      -1.837  19.439  26.757  1.00  0.00     0.238 C 
ATOM      9  N   UNL     1      -2.086  19.436  28.207  1.00  0.00    -0.339 N 
ATOM     10  C   UNL     1      -2.494  17.530  29.726  1.00  0.00     0.100 C 
ATOM     11  C   UNL     1      -4.405  18.684  28.622  1.00  0.00     0.100 C 
ATOM     12  C   UNL     1      -3.395  16.348  30.002  1.00  0.00     0.265 C 
ATOM     13  C   UNL     1      -4.992  18.131  29.879  1.00  0.00     0.265 C 
ATOM     14  H   UNL     1      -1.380  17.564  25.617  1.00  0.00     0.165 HD
ATOM     15  H   UNL     1      -5.188  16.293  29.085  1.00  0.00     0.348 HD
BRANCH   9  16
ATOM     16  C   UNL     1      -1.492  20.406  29.054  1.00  0.00     0.039 A 
ATOM     17  C   UNL     1      -1.874  21.726  28.999  1.00  0.00     0.026 A 
ATOM     18  C   UNL     1      -0.544  20.026  29.954  1.00  0.00     0.026 A 
ATOM     19  C   UNL     1      -1.310  22.687  29.844  1.00  0.00     0.002 A 
ATOM     20  C   UNL     1       0.020  20.950  30.790  1.00  0.00     0.002 A 
ATOM     21  C   UNL     1      -0.353  22.269  30.743  1.00  0.00     0.000 A 
ENDBRANCH   9  16
ENDBRANCH   2   3
ENDBRANCH   1   2
BRANCH   1  22
ATOM     22  C   UNL     1      -6.565  17.120  33.100  1.00  0.00     0.019 C 
BRANCH  22  23
ATOM     23  C   UNL     1      -5.513  17.733  33.898  1.00  0.00     0.049 C 
BRANCH  23  24
ATOM     24  C   UNL     1      -5.000  19.057  33.394  1.00  0.00    -0.040 A 
ATOM     25  C   UNL     1      -5.889  20.108  33.405  1.00  0.00     0.007 A 
ATOM     26  C   UNL     1      -3.726  19.222  32.920  1.00  0.00     0.007 A 
ATOM     27  C   UNL     1      -5.505  21.340  32.939  1.00  0.00     0.039 A 
ATOM     28  C   UNL     1      -3.347  20.453  32.457  1.00  0.00     0.039 A 
ATOM     29  C   UNL     1      -4.231  21.538  32.458  1.00  0.00     0.123 A 
ATOM     30  F   UNL     1      -3.863  22.762  32.000  1.00  0.00    -0.207 F 
ENDBRANCH  23  24
BRANCH  23  31
ATOM     31  C   UNL     1      -5.582  17.729  35.350  1.00  0.00    -0.040 A 
ATOM     32  C   UNL     1      -4.546  17.924  36.220  1.00  0.00     0.007 A 
ATOM     33  C   UNL     1      -6.852  17.483  35.889  1.00  0.00     0.007 A 
ATOM     34  C   UNL     1      -4.796  17.866  37.596  1.00  0.00     0.039 A 
ATOM     35  C   UNL     1      -7.108  17.426  37.221  1.00  0.00     0.039 A 
ATOM     36  C   UNL     1      -6.055  17.622  38.085  1.00  0.00     0.123 A 
ATOM     37  F   UNL     1      -6.326  17.562  39.417  1.00  0.00    -0.207 F 
ENDBRANCH  23  31
ENDBRANCH  22  23
ENDBRANCH   1  22
TORSDOF 7
ENDMDL
MODEL 5
REMARK VINA RESULT:      -7.6      2.514      5.074
REMARK SMILES O=C1NCN(c2ccccc2)C12CC[NH+](CCCC(c1ccc(F)cc1)c1ccc(F)cc1)CC2
REMARK SMILES IDX 17 1 16 2 15 3 1 4 2 5 3 6 12 7 4 8 5 9 13 10 35 11 14 12
REMARK SMILES IDX 34 13 6 16 7 17 11 18 8 19 10 20 9 21 18 22 19 23 20 24
REMARK SMILES IDX 21 25 26 26 22 27 25 28 23 29 24 30 27 31 28 32 33 33 29 34
REMARK SMILES IDX 32 35 30 36 31 37
REMARK H PARENT 3 14 15 15
ROOT
ATOM      1  C   UNL     1      -6.801  17.425  34.461  1.00  0.00     0.062 C 
ENDROOT
BRANCH   1   2
ATOM      2  C   UNL     1      -6.754  18.657  33.607  1.00  0.00     0.262 C 
BRANCH   2   3
ATOM      3  N   UNL     1      -5.552  18.650  32.780  1.00  0.00    -0.335 N 
ATOM      4  O   UNL     1      -2.390  19.282  32.602  1.00  0.00    -0.272 OA
ATOM      5  C   UNL     1      -2.485  19.169  31.362  1.00  0.00     0.247 C 
ATOM      6  N   UNL     1      -1.413  19.330  30.467  1.00  0.00    -0.336 N 
ATOM      7  C   UNL     1      -3.752  18.842  30.606  1.00  0.00     0.131 C 
ATOM      8  C   UNL     1      -1.804  18.683  29.255  1.00  0.00     0.238 C 
ATOM      9  N   UNL     1      -3.267  18.831  29.229  1.00  0.00    -0.339 N 
ATOM     10  C   UNL     1      -4.761  19.947  30.850  1.00  0.00     0.100 C 
ATOM     11  C   UNL     1      -4.240  17.523  31.089  1.00  0.00     0.100 C 
ATOM     12  C   UNL     1      -5.214  19.971  32.291  1.00  0.00     0.265 C 
ATOM     13  C   UNL     1      -5.583  17.671  31.726  1.00  0.00     0.265 C 
ATOM     14  H   UNL     1      -0.509  19.834  30.676  1.00  0.00     0.165 HD
ATOM     15  H   UNL     1      -4.794  18.369  33.439  1.00  0.00     0.348 HD
BRANCH   9  16
ATOM     16  C   UNL     1      -3.969  18.951  28.002  1.00  0.00     0.039 A 
ATOM     17  C   UNL     1      -4.004  20.143  27.318  1.00  0.00     0.026 A 
ATOM     18  C   UNL     1      -4.603  17.866  27.479  1.00  0.00     0.026 A 
ATOM     19  C   UNL     1      -4.676  20.267  26.099  1.00  0.00     0.002 A 
ATOM     20  C   UNL     1      -5.266  17.966  26.287  1.00  0.00     0.002 A 
ATOM     21  C   UNL     1      -5.308  19.150  25.596  1.00  0.00     0.000 A 
ENDBRANCH   9  16
ENDBRANCH   2   3
ENDBRANCH   1   2
BRANCH   1  22
ATOM     22  C   UNL     1      -7.465  17.540  35.764  1.00  0.00     0.019 C 
BRANCH  22  23
ATOM     23  C   UNL     1      -6.735  17.751  37.006  1.00  0.00     0.049 C 
BRANCH  23  24
ATOM     24  C   UNL     1      -5.584  18.720  36.928  1.00  0.00    -0.040 A 
ATOM     25  C   UNL     1      -4.324  18.173  36.828  1.00  0.00     0.007 A 
ATOM     26  C   UNL     1      -5.757  20.077  36.978  1.00  0.00     0.007 A 
ATOM     27  C   UNL     1      -3.222  18.989  36.777  1.00  0.00     0.039 A 
ATOM     28  C   UNL     1      -4.654  20.887  36.926  1.00  0.00     0.039 A 
ATOM     29  C   UNL     1      -3.363  20.357  36.824  1.00  0.00     0.123 A 
ATOM     30  F   UNL     1      -2.265  21.154  36.773  1.00  0.00    -0.207 F 
ENDBRANCH  23  24
BRANCH  23  31
ATOM     31  C   UNL     1      -7.441  17.893  38.269  1.00  0.00    -0.040 A 
ATOM     32  C   UNL     1      -6.900  17.812  39.522  1.00  0.00     0.007 A 
ATOM     33  C   UNL     1      -8.819  18.121  38.164  1.00  0.00     0.007 A 
ATOM     34  C   UNL     1      -7.740  17.956  40.633  1.00  0.00     0.039 A 
ATOM     35  C   UNL     1      -9.643  18.263  39.233  1.00  0.00     0.039 A 
ATOM     36  C   UNL     1      -9.086  18.177  40.488  1.00  0.00     0.123 A 
ATOM     37  F   UNL     1      -9.924  18.322  41.550  1.00  0.00    -0.207 F 
ENDBRANCH  23  31
ENDBRANCH  22  23
ENDBRANCH   1  22
TORSDOF 7
ENDMDL
MODEL 6
REMARK VINA RESULT:      -7.6      1.384      1.651
REMARK SMILES O=C1NCN(c2ccccc2)C12CC[NH+](CCCC(c1ccc(F)cc1)c1ccc(F)cc1)CC2
REMARK SMILES IDX 17 1 16 2 15 3 1 4 2 5 3 6 12 7 4 8 5 9 13 10 35 11 14 12
REMARK SMILES IDX 34 13 6 16 7 17 11 18 8 19 10 20 9 21 18 22 19 23 20 24
REMARK SMILES IDX 21 25 26 26 22 27 25 28 23 29 24 30 27 31 28 32 33 33 29 34
REMARK SMILES IDX 32 35 30 36 31 37
REMARK H PARENT 3 14 15 15
ROOT
ATOM      1  C   UNL     1      -6.204  16.918  32.257  1.00  0.00     0.062 C 
ENDROOT
BRANCH   1   2
ATOM      2  C   UNL     1      -5.014  16.252  31.632  1.00  0.00     0.262 C 
BRANCH   2   3
ATOM      3  N   UNL     1      -4.324  17.183  30.747  1.00  0.00    -0.335 N 
ATOM      4  O   UNL     1      -1.488  18.337  29.719  1.00  0.00    -0.272 OA
ATOM      5  C   UNL     1      -2.116  19.276  29.187  1.00  0.00     0.247 C 
ATOM      6  N   UNL     1      -1.515  20.325  28.469  1.00  0.00    -0.336 N 
ATOM      7  C   UNL     1      -3.616  19.455  29.216  1.00  0.00     0.131 C 
ATOM      8  C   UNL     1      -2.545  20.895  27.660  1.00  0.00     0.238 C 
ATOM      9  N   UNL     1      -3.772  20.684  28.443  1.00  0.00    -0.339 N 
ATOM     10  C   UNL     1      -4.056  19.623  30.657  1.00  0.00     0.100 C 
ATOM     11  C   UNL     1      -4.228  18.257  28.581  1.00  0.00     0.100 C 
ATOM     12  C   UNL     1      -3.843  18.355  31.450  1.00  0.00     0.265 C 
ATOM     13  C   UNL     1      -5.077  17.526  29.569  1.00  0.00     0.265 C 
ATOM     14  H   UNL     1      -0.501  20.612  28.534  1.00  0.00     0.165 HD
ATOM     15  H   UNL     1      -3.482  16.655  30.431  1.00  0.00     0.348 HD
BRANCH   9  16
ATOM     16  C   UNL     1      -4.848  21.606  28.383  1.00  0.00     0.039 A 
ATOM     17  C   UNL     1      -5.875  21.439  27.485  1.00  0.00     0.026 A 
ATOM     18  C   UNL     1      -4.880  22.663  29.239  1.00  0.00     0.026 A 
ATOM     19  C   UNL     1      -6.952  22.330  27.431  1.00  0.00     0.002 A 
ATOM     20  C   UNL     1      -5.923  23.546  29.203  1.00  0.00     0.002 A 
ATOM     21  C   UNL     1      -6.953  23.390  28.312  1.00  0.00     0.000 A 
ENDBRANCH   9  16
ENDBRANCH   2   3
ENDBRANCH   1   2
BRANCH   1  22
ATOM     22  C   UNL     1      -6.181  17.098  33.713  1.00  0.00     0.019 C 
BRANCH  22  23
ATOM     23  C   UNL     1      -6.759  18.260  34.374  1.00  0.00     0.049 C 
BRANCH  23  24
ATOM     24  C   UNL     1      -6.742  18.228  35.880  1.00  0.00    -0.040 A 
ATOM     25  C   UNL     1      -5.930  17.284  36.468  1.00  0.00     0.007 A 
ATOM     26  C   UNL     1      -7.507  19.067  36.645  1.00  0.00     0.007 A 
ATOM     27  C   UNL     1      -5.878  17.175  37.835  1.00  0.00     0.039 A 
ATOM     28  C   UNL     1      -7.452  18.955  38.008  1.00  0.00     0.039 A 
ATOM     29  C   UNL     1      -6.634  18.005  38.631  1.00  0.00     0.123 A 
ATOM     30  F   UNL     1      -6.575  17.887  39.981  1.00  0.00    -0.207 F 
ENDBRANCH  23  24
BRANCH  23  31
ATOM     31  C   UNL     1      -6.492  19.603  33.887  1.00  0.00    -0.040 A 
ATOM     32  C   UNL     1      -7.330  20.385  33.143  1.00  0.00     0.007 A 
ATOM     33  C   UNL     1      -5.231  20.121  34.214  1.00  0.00     0.007 A 
ATOM     34  C   UNL     1      -6.895  21.655  32.743  1.00  0.00     0.039 A 
ATOM     35  C   UNL     1      -4.799  21.350  33.834  1.00  0.00     0.039 A 
ATOM     36  C   UNL     1      -5.652  22.126  33.084  1.00  0.00     0.123 A 
ATOM     37  F   UNL     1      -5.206  23.355  32.710  1.00  0.00    -0.207 F 
ENDBRANCH  23  31
ENDBRANCH  22  23
ENDBRANCH   1  22
TORSDOF 7
ENDMDL
MODEL 7
REMARK VINA RESULT:      -7.6      1.297      4.018
REMARK SMILES O=C1NCN(c2ccccc2)C12CC[NH+](CCCC(c1ccc(F)cc1)c1ccc(F)cc1)CC2
REMARK SMILES IDX 17 1 16 2 15 3 1 4 2 5 3 6 12 7 4 8 5 9 13 10 35 11 14 12
REMARK SMILES IDX 34 13 6 16 7 17 11 18 8 19 10 20 9 21 18 22 19 23 20 24
REMARK SMILES IDX 21 25 26 26 22 27 25 28 23 29 24 30 27 31 28 32 33 33 29 34
REMARK SMILES IDX 32 35 30 36 31 37
REMARK H PARENT 3 14 15 15
ROOT
ATOM      1  C   UNL     1      -6.688  17.469  32.541  1.00  0.00     0.062 C 
ENDROOT
BRANCH   1   2
ATOM      2  C   UNL     1      -5.589  16.448  32.509  1.00  0.00     0.262 C 
BRANCH   2   3
ATOM      3  N   UNL     1      -4.808  16.588  31.285  1.00  0.00    -0.335 N 
ATOM      4  O   UNL     1      -2.093  15.830  29.709  1.00  0.00    -0.272 OA
ATOM      5  C   UNL     1      -2.376  16.725  28.886  1.00  0.00     0.247 C 
ATOM      6  N   UNL     1      -1.584  17.058  27.773  1.00  0.00    -0.336 N 
ATOM      7  C   UNL     1      -3.606  17.602  28.933  1.00  0.00     0.131 C 
ATOM      8  C   UNL     1      -2.441  17.756  26.868  1.00  0.00     0.238 C 
ATOM      9  N   UNL     1      -3.413  18.428  27.744  1.00  0.00    -0.339 N 
ATOM     10  C   UNL     1      -3.571  18.418  30.210  1.00  0.00     0.100 C 
ATOM     11  C   UNL     1      -4.798  16.715  28.869  1.00  0.00     0.100 C 
ATOM     12  C   UNL     1      -3.725  17.539  31.429  1.00  0.00     0.265 C 
ATOM     13  C   UNL     1      -5.608  16.848  30.117  1.00  0.00     0.265 C 
ATOM     14  H   UNL     1      -0.561  16.825  27.656  1.00  0.00     0.165 HD
ATOM     15  H   UNL     1      -4.370  15.650  31.155  1.00  0.00     0.348 HD
BRANCH   9  16
ATOM     16  C   UNL     1      -3.981  19.677  27.386  1.00  0.00     0.039 A 
ATOM     17  C   UNL     1      -3.338  20.858  27.674  1.00  0.00     0.026 A 
ATOM     18  C   UNL     1      -5.172  19.713  26.728  1.00  0.00     0.026 A 
ATOM     19  C   UNL     1      -3.880  22.094  27.308  1.00  0.00     0.002 A 
ATOM     20  C   UNL     1      -5.719  20.911  26.361  1.00  0.00     0.002 A 
ATOM     21  C   UNL     1      -5.087  22.095  26.643  1.00  0.00     0.000 A 
ENDBRANCH   9  16
ENDBRANCH   2   3
ENDBRANCH   1   2
BRANCH   1  22
ATOM     22  C   UNL     1      -6.586  18.530  33.549  1.00  0.00     0.019 C 
BRANCH  22  23
ATOM     23  C   UNL     1      -5.561  18.539  34.585  1.00  0.00     0.049 C 
BRANCH  23  24
ATOM     24  C   UNL     1      -4.423  19.501  34.366  1.00  0.00    -0.040 A 
ATOM     25  C   UNL     1      -4.677  20.583  33.552  1.00  0.00     0.007 A 
ATOM     26  C   UNL     1      -3.184  19.317  34.919  1.00  0.00     0.007 A 
ATOM     27  C   UNL     1      -3.685  21.492  33.285  1.00  0.00     0.039 A 
ATOM     28  C   UNL     1      -2.197  20.226  34.650  1.00  0.00     0.039 A 
ATOM     29  C   UNL     1      -2.430  21.334  33.826  1.00  0.00     0.123 A 
ATOM     30  F   UNL     1      -1.456  22.240  33.555  1.00  0.00    -0.207 F 
ENDBRANCH  23  24
BRANCH  23  31
ATOM     31  C   UNL     1      -5.924  18.483  35.991  1.00  0.00    -0.040 A 
ATOM     32  C   UNL     1      -6.188  19.545  36.810  1.00  0.00     0.007 A 
ATOM     33  C   UNL     1      -5.986  17.197  36.544  1.00  0.00     0.007 A 
ATOM     34  C   UNL     1      -6.504  19.302  38.153  1.00  0.00     0.039 A 
ATOM     35  C   UNL     1      -6.293  16.949  37.843  1.00  0.00     0.039 A 
ATOM     36  C   UNL     1      -6.555  18.027  38.657  1.00  0.00     0.123 A 
ATOM     37  F   UNL     1      -6.861  17.764  39.956  1.00  0.00    -0.207 F 
ENDBRANCH  23  31
ENDBRANCH  22  23
ENDBRANCH   1  22
TORSDOF 7
ENDMDL
MODEL 8
REMARK VINA RESULT:      -7.6      1.476      1.910
REMARK SMILES O=C1NCN(c2ccccc2)C12CC[NH+](CCCC(c1ccc(F)cc1)c1ccc(F)cc1)CC2
REMARK SMILES IDX 17 1 16 2 15 3 1 4 2 5 3 6 12 7 4 8 5 9 13 10 35 11 14 12
REMARK SMILES IDX 34 13 6 16 7 17 11 18 8 19 10 20 9 21 18 22 19 23 20 24
REMARK SMILES IDX 21 25 26 26 22 27 25 28 23 29 24 30 27 31 28 32 33 33 29 34
REMARK SMILES IDX 32 35 30 36 31 37
REMARK H PARENT 3 14 15 15
ROOT
ATOM      1  C   UNL     1      -5.513  16.679  32.654  1.00  0.00     0.062 C 
ENDROOT
BRANCH   1   2
ATOM      2  C   UNL     1      -5.163  15.884  31.430  1.00  0.00     0.262 C 
BRANCH   2   3
ATOM      3  N   UNL     1      -4.450  16.723  30.474  1.00  0.00    -0.335 N 
ATOM      4  O   UNL     1      -1.601  17.527  29.182  1.00  0.00    -0.272 OA
ATOM      5  C   UNL     1      -2.159  18.530  28.692  1.00  0.00     0.247 C 
ATOM      6  N   UNL     1      -1.506  19.497  27.907  1.00  0.00    -0.336 N 
ATOM      7  C   UNL     1      -3.620  18.885  28.850  1.00  0.00     0.131 C 
ATOM      8  C   UNL     1      -2.530  20.180  27.182  1.00  0.00     0.238 C 
ATOM      9  N   UNL     1      -3.698  20.120  28.073  1.00  0.00    -0.339 N 
ATOM     10  C   UNL     1      -3.907  19.113  30.320  1.00  0.00     0.100 C 
ATOM     11  C   UNL     1      -4.421  17.765  28.291  1.00  0.00     0.100 C 
ATOM     12  C   UNL     1      -3.774  17.833  31.112  1.00  0.00     0.265 C 
ATOM     13  C   UNL     1      -5.259  17.145  29.361  1.00  0.00     0.265 C 
ATOM     14  H   UNL     1      -0.463  19.662  27.879  1.00  0.00     0.165 HD
ATOM     15  H   UNL     1      -3.707  16.097  30.093  1.00  0.00     0.348 HD
BRANCH   9  16
ATOM     16  C   UNL     1      -4.660  21.162  28.093  1.00  0.00     0.039 A 
ATOM     17  C   UNL     1      -5.783  21.106  27.301  1.00  0.00     0.026 A 
ATOM     18  C   UNL     1      -4.484  22.227  28.922  1.00  0.00     0.026 A 
ATOM     19  C   UNL     1      -6.748  22.118  27.328  1.00  0.00     0.002 A 
ATOM     20  C   UNL     1      -5.416  23.228  28.962  1.00  0.00     0.002 A 
ATOM     21  C   UNL     1      -6.539  23.182  28.178  1.00  0.00     0.000 A 
ENDBRANCH   9  16
ENDBRANCH   2   3
ENDBRANCH   1   2
BRANCH   1  22
ATOM     22  C   UNL     1      -6.682  17.561  32.566  1.00  0.00     0.019 C 
BRANCH  22  23
ATOM     23  C   UNL     1      -7.098  18.433  33.656  1.00  0.00     0.049 C 
BRANCH  23  24
ATOM     24  C   UNL     1      -6.505  18.117  35.004  1.00  0.00    -0.040 A 
ATOM     25  C   UNL     1      -7.289  17.380  35.865  1.00  0.00     0.007 A 
ATOM     26  C   UNL     1      -5.264  18.551  35.386  1.00  0.00     0.007 A 
ATOM     27  C   UNL     1      -6.831  17.072  37.121  1.00  0.00     0.039 A 
ATOM     28  C   UNL     1      -4.811  18.241  36.640  1.00  0.00     0.039 A 
ATOM     29  C   UNL     1      -5.587  17.493  37.533  1.00  0.00     0.123 A 
ATOM     30  F   UNL     1      -5.144  17.182  38.778  1.00  0.00    -0.207 F 
ENDBRANCH  23  24
BRANCH  23  31
ATOM     31  C   UNL     1      -7.196  19.871  33.463  1.00  0.00    -0.040 A 
ATOM     32  C   UNL     1      -8.022  20.731  34.131  1.00  0.00     0.007 A 
ATOM     33  C   UNL     1      -6.360  20.402  32.473  1.00  0.00     0.007 A 
ATOM     34  C   UNL     1      -7.996  22.090  33.798  1.00  0.00     0.039 A 
ATOM     35  C   UNL     1      -6.324  21.718  32.142  1.00  0.00     0.039 A 
ATOM     36  C   UNL     1      -7.162  22.572  32.821  1.00  0.00     0.123 A 
ATOM     37  F   UNL     1      -7.116  23.888  32.479  1.00  0.00    -0.207 F 
ENDBRANCH  23  31
ENDBRANCH  22  23
ENDBRANCH   1  22
TORSDOF 7
ENDMDL
MODEL 9
REMARK VINA RESULT:      -7.6      2.691      5.683
REMARK SMILES O=C1NCN(c2ccccc2)C12CC[NH+](CCCC(c1ccc(F)cc1)c1ccc(F)cc1)CC2
REMARK SMILES IDX 17 1 16 2 15 3 1 4 2 5 3 6 12 7 4 8 5 9 13 10 35 11 14 12
REMARK SMILES IDX 34 13 6 16 7 17 11 18 8 19 10 20 9 21 18 22 19 23 20 24
REMARK SMILES IDX 21 25 26 26 22 27 25 28 23 29 24 30 27 31 28 32 33 33 29 34
REMARK SMILES IDX 32 35 30 36 31 37
REMARK H PARENT 3 14 15 15
ROOT
ATOM      1  C   UNL     1      -3.530  21.668  33.487  1.00  0.00     0.062 C 
ENDROOT
BRANCH   1   2
ATOM      2  C   UNL     1      -4.860  22.297  33.191  1.00  0.00     0.262 C 
BRANCH   2   3
ATOM      3  N   UNL     1      -4.967  22.602  31.769  1.00  0.00    -0.335 N 
ATOM      4  O   UNL     1      -6.579  24.179  29.457  1.00  0.00    -0.272 OA
ATOM      5  C   UNL     1      -5.965  23.484  28.621  1.00  0.00     0.247 C 
ATOM      6  N   UNL     1      -6.142  23.579  27.229  1.00  0.00    -0.336 N 
ATOM      7  C   UNL     1      -4.934  22.427  28.946  1.00  0.00     0.131 C 
ATOM      8  C   UNL     1      -4.979  22.994  26.639  1.00  0.00     0.238 C 
ATOM      9  N   UNL     1      -4.563  21.970  27.609  1.00  0.00    -0.339 N 
ATOM     10  C   UNL     1      -5.599  21.336  29.761  1.00  0.00     0.100 C 
ATOM     11  C   UNL     1      -3.829  23.087  29.690  1.00  0.00     0.100 C 
ATOM     12  C   UNL     1      -6.017  21.843  31.122  1.00  0.00     0.265 C 
ATOM     13  C   UNL     1      -3.716  22.511  31.064  1.00  0.00     0.265 C 
ATOM     14  H   UNL     1      -6.978  24.003  26.743  1.00  0.00     0.165 HD
ATOM     15  H   UNL     1      -5.261  23.603  31.746  1.00  0.00     0.348 HD
BRANCH   9  16
ATOM     16  C   UNL     1      -3.932  20.773  27.186  1.00  0.00     0.039 A 
ATOM     17  C   UNL     1      -2.588  20.569  27.389  1.00  0.00     0.026 A 
ATOM     18  C   UNL     1      -4.669  19.797  26.588  1.00  0.00     0.026 A 
ATOM     19  C   UNL     1      -1.960  19.384  26.995  1.00  0.00     0.002 A 
ATOM     20  C   UNL     1      -4.074  18.630  26.194  1.00  0.00     0.002 A 
ATOM     21  C   UNL     1      -2.734  18.416  26.392  1.00  0.00     0.000 A 
ENDBRANCH   9  16
ENDBRANCH   2   3
ENDBRANCH   1   2
BRANCH   1  22
ATOM     22  C   UNL     1      -3.488  20.204  33.576  1.00  0.00     0.019 C 
BRANCH  22  23
ATOM     23  C   UNL     1      -4.654  19.365  33.334  1.00  0.00     0.049 C 
BRANCH  23  24
ATOM     24  C   UNL     1      -4.600  18.518  32.089  1.00  0.00    -0.040 A 
ATOM     25  C   UNL     1      -3.512  18.701  31.266  1.00  0.00     0.007 A 
ATOM     26  C   UNL     1      -5.584  17.624  31.761  1.00  0.00     0.007 A 
ATOM     27  C   UNL     1      -3.401  17.985  30.100  1.00  0.00     0.039 A 
ATOM     28  C   UNL     1      -5.469  16.911  30.598  1.00  0.00     0.039 A 
ATOM     29  C   UNL     1      -4.373  17.078  29.744  1.00  0.00     0.123 A 
ATOM     30  F   UNL     1      -4.253  16.376  28.589  1.00  0.00    -0.207 F 
ENDBRANCH  23  24
BRANCH  23  31
ATOM     31  C   UNL     1      -5.287  18.638  34.422  1.00  0.00    -0.040 A 
ATOM     32  C   UNL     1      -6.600  18.268  34.504  1.00  0.00     0.007 A 
ATOM     33  C   UNL     1      -4.445  18.308  35.493  1.00  0.00     0.007 A 
ATOM     34  C   UNL     1      -7.040  17.585  35.644  1.00  0.00     0.039 A 
ATOM     35  C   UNL     1      -4.860  17.645  36.602  1.00  0.00     0.039 A 
ATOM     36  C   UNL     1      -6.184  17.280  36.672  1.00  0.00     0.123 A 
ATOM     37  F   UNL     1      -6.586  16.616  37.789  1.00  0.00    -0.207 F 
ENDBRANCH  23  31
ENDBRANCH  22  23
ENDBRANCH   1  22
TORSDOF 7
ENDMDL
