MODEL 1
REMARK VINA RESULT:      -8.2      0.000      0.000
REMARK SMILES O=c1cc(-c2ccccc2)oc2cc(O)cc(O)c12
REMARK SMILES IDX 1 1 2 2 3 3 4 4 11 5 12 6 13 7 14 8 16 9 17 10 19 11 5 12
REMARK SMILES IDX 6 13 10 14 7 15 9 16 8 17 18 18 15 20
REMARK H PARENT 18 19 15 21
ROOT
ATOM      1  O   UNL     1      25.636  10.164 -45.085  1.00  0.00    -0.289 OA
ATOM      2  C   UNL     1      25.693   8.908 -45.101  1.00  0.00     0.197 A 
ATOM      3  C   UNL     1      26.045   8.183 -46.249  1.00  0.00     0.100 A 
ATOM      4  C   UNL     1      26.102   6.810 -46.243  1.00  0.00     0.138 A 
ATOM      5  O   UNL     1      25.808   6.214 -45.112  1.00  0.00    -0.456 OA
ATOM      6  C   UNL     1      25.473   6.835 -44.009  1.00  0.00     0.146 A 
ATOM      7  C   UNL     1      25.173   6.145 -42.841  1.00  0.00     0.094 A 
ATOM      8  C   UNL     1      24.818   6.765 -41.667  1.00  0.00     0.123 A 
ATOM      9  C   UNL     1      24.750   8.139 -41.630  1.00  0.00     0.093 A 
ATOM     10  C   UNL     1      25.039   8.861 -42.768  1.00  0.00     0.134 A 
ATOM     11  C   UNL     1      25.399   8.210 -43.954  1.00  0.00     0.107 A 
ENDROOT
BRANCH   4  12
ATOM     12  C   UNL     1      26.469   6.043 -47.437  1.00  0.00     0.017 A 
ATOM     13  C   UNL     1      26.961   6.603 -48.586  1.00  0.00     0.012 A 
ATOM     14  C   UNL     1      26.318   4.668 -47.426  1.00  0.00     0.012 A 
ATOM     15  C   UNL     1      27.299   5.831 -49.701  1.00  0.00     0.001 A 
ATOM     16  C   UNL     1      26.643   3.875 -48.516  1.00  0.00     0.001 A 
ATOM     17  C   UNL     1      27.142   4.462 -49.672  1.00  0.00     0.000 A 
ENDBRANCH   4  12
BRANCH  10  18
ATOM     18  O   UNL     1      24.971  10.233 -42.729  1.00  0.00    -0.507 OA
ATOM     19  H   UNL     1      24.085  10.696 -42.636  1.00  0.00     0.293 HD
ENDBRANCH  10  18
BRANCH   8  20
ATOM     20  O   UNL     1      24.525   6.028 -40.517  1.00  0.00    -0.508 OA
ATOM     21  H   UNL     1      23.582   5.811 -40.229  1.00  0.00     0.293 HD
ENDBRANCH   8  20
TORSDOF 3
ENDMDL
MODEL 2
REMARK VINA RESULT:      -7.9      1.269      2.568
REMARK SMILES O=c1cc(-c2ccccc2)oc2cc(O)cc(O)c12
REMARK SMILES IDX 1 1 2 2 3 3 4 4 11 5 12 6 13 7 14 8 16 9 17 10 19 11 5 12
REMARK SMILES IDX 6 13 10 14 7 15 9 16 8 17 18 18 15 20
REMARK H PARENT 18 19 15 21
ROOT
ATOM      1  O   UNL     1      27.193   5.637 -42.669  1.00  0.00    -0.289 OA
ATOM      2  C   UNL     1      26.763   6.250 -43.678  1.00  0.00     0.197 A 
ATOM      3  C   UNL     1      26.966   5.788 -44.987  1.00  0.00     0.100 A 
ATOM      4  C   UNL     1      26.486   6.475 -46.076  1.00  0.00     0.138 A 
ATOM      5  O   UNL     1      25.831   7.585 -45.829  1.00  0.00    -0.456 OA
ATOM      6  C   UNL     1      25.610   8.067 -44.631  1.00  0.00     0.146 A 
ATOM      7  C   UNL     1      24.908   9.251 -44.436  1.00  0.00     0.094 A 
ATOM      8  C   UNL     1      24.658   9.784 -43.195  1.00  0.00     0.123 A 
ATOM      9  C   UNL     1      25.121   9.126 -42.078  1.00  0.00     0.093 A 
ATOM     10  C   UNL     1      25.822   7.950 -42.229  1.00  0.00     0.134 A 
ATOM     11  C   UNL     1      26.066   7.422 -43.502  1.00  0.00     0.107 A 
ENDROOT
BRANCH   4  12
ATOM     12  C   UNL     1      26.693   6.000 -47.447  1.00  0.00     0.017 A 
ATOM     13  C   UNL     1      26.974   6.819 -48.508  1.00  0.00     0.012 A 
ATOM     14  C   UNL     1      26.604   4.644 -47.709  1.00  0.00     0.012 A 
ATOM     15  C   UNL     1      27.164   6.320 -49.799  1.00  0.00     0.001 A 
ATOM     16  C   UNL     1      26.788   4.119 -48.978  1.00  0.00     0.001 A 
ATOM     17  C   UNL     1      27.072   4.966 -50.042  1.00  0.00     0.000 A 
ENDBRANCH   4  12
BRANCH  10  18
ATOM     18  O   UNL     1      26.284   7.294 -41.113  1.00  0.00    -0.507 OA
ATOM     19  H   UNL     1      27.198   6.879 -41.108  1.00  0.00     0.293 HD
ENDBRANCH  10  18
BRANCH   8  20
ATOM     20  O   UNL     1      23.947  10.977 -43.047  1.00  0.00    -0.508 OA
ATOM     21  H   UNL     1      23.460  11.225 -42.198  1.00  0.00     0.293 HD
ENDBRANCH   8  20
TORSDOF 3
ENDMDL
MODEL 3
REMARK VINA RESULT:      -7.9      2.112      6.606
REMARK SMILES O=c1cc(-c2ccccc2)oc2cc(O)cc(O)c12
REMARK SMILES IDX 1 1 2 2 3 3 4 4 11 5 12 6 13 7 14 8 16 9 17 10 19 11 5 12
REMARK SMILES IDX 6 13 10 14 7 15 9 16 8 17 18 18 15 20
REMARK H PARENT 18 19 15 21
ROOT
ATOM      1  O   UNL     1      24.322   3.697 -46.551  1.00  0.00    -0.289 OA
ATOM      2  C   UNL     1      24.885   4.743 -46.142  1.00  0.00     0.197 A 
ATOM      3  C   UNL     1      24.359   5.527 -45.105  1.00  0.00     0.100 A 
ATOM      4  C   UNL     1      24.992   6.668 -44.672  1.00  0.00     0.138 A 
ATOM      5  O   UNL     1      26.110   6.986 -45.279  1.00  0.00    -0.456 OA
ATOM      6  C   UNL     1      26.651   6.295 -46.252  1.00  0.00     0.146 A 
ATOM      7  C   UNL     1      27.842   6.685 -46.854  1.00  0.00     0.094 A 
ATOM      8  C   UNL     1      28.436   5.984 -47.875  1.00  0.00     0.123 A 
ATOM      9  C   UNL     1      27.834   4.835 -48.338  1.00  0.00     0.093 A 
ATOM     10  C   UNL     1      26.653   4.415 -47.767  1.00  0.00     0.134 A 
ATOM     11  C   UNL     1      26.063   5.143 -46.727  1.00  0.00     0.107 A 
ENDROOT
BRANCH   4  12
ATOM     12  C   UNL     1      24.449   7.494 -43.590  1.00  0.00     0.017 A 
ATOM     13  C   UNL     1      23.940   6.990 -42.423  1.00  0.00     0.012 A 
ATOM     14  C   UNL     1      24.442   8.870 -43.734  1.00  0.00     0.012 A 
ATOM     15  C   UNL     1      23.434   7.817 -41.417  1.00  0.00     0.001 A 
ATOM     16  C   UNL     1      23.946   9.717 -42.754  1.00  0.00     0.001 A 
ATOM     17  C   UNL     1      23.434   9.187 -41.577  1.00  0.00     0.000 A 
ENDBRANCH   4  12
BRANCH  10  18
ATOM     18  O   UNL     1      26.053   3.268 -48.230  1.00  0.00    -0.507 OA
ATOM     19  H   UNL     1      25.830   2.520 -47.598  1.00  0.00     0.293 HD
ENDBRANCH  10  18
BRANCH   8  20
ATOM     20  O   UNL     1      29.633   6.415 -48.451  1.00  0.00    -0.508 OA
ATOM     21  H   UNL     1      29.671   6.935 -49.316  1.00  0.00     0.293 HD
ENDBRANCH   8  20
TORSDOF 3
ENDMDL
MODEL 4
REMARK VINA RESULT:      -7.9      0.741      1.088
REMARK SMILES O=c1cc(-c2ccccc2)oc2cc(O)cc(O)c12
REMARK SMILES IDX 1 1 2 2 3 3 4 4 11 5 12 6 13 7 14 8 16 9 17 10 19 11 5 12
REMARK SMILES IDX 6 13 10 14 7 15 9 16 8 17 18 18 15 20
REMARK H PARENT 18 19 15 21
ROOT
ATOM      1  O   UNL     1      25.674  10.158 -45.164  1.00  0.00    -0.289 OA
ATOM      2  C   UNL     1      25.852   8.914 -45.141  1.00  0.00     0.197 A 
ATOM      3  C   UNL     1      26.364   8.205 -46.238  1.00  0.00     0.100 A 
ATOM      4  C   UNL     1      26.551   6.844 -46.191  1.00  0.00     0.138 A 
ATOM      5  O   UNL     1      26.225   6.244 -45.071  1.00  0.00    -0.456 OA
ATOM      6  C   UNL     1      25.743   6.851 -44.015  1.00  0.00     0.146 A 
ATOM      7  C   UNL     1      25.417   6.156 -42.856  1.00  0.00     0.094 A 
ATOM      8  C   UNL     1      24.910   6.761 -41.731  1.00  0.00     0.123 A 
ATOM      9  C   UNL     1      24.707   8.123 -41.737  1.00  0.00     0.093 A 
ATOM     10  C   UNL     1      25.018   8.847 -42.867  1.00  0.00     0.134 A 
ATOM     11  C   UNL     1      25.534   8.212 -44.003  1.00  0.00     0.107 A 
ENDROOT
BRANCH   4  12
ATOM     12  C   UNL     1      27.086   6.095 -47.331  1.00  0.00     0.017 A 
ATOM     13  C   UNL     1      26.347   5.231 -48.095  1.00  0.00     0.012 A 
ATOM     14  C   UNL     1      28.416   6.254 -47.676  1.00  0.00     0.012 A 
ATOM     15  C   UNL     1      26.900   4.537 -49.174  1.00  0.00     0.001 A 
ATOM     16  C   UNL     1      28.994   5.580 -48.741  1.00  0.00     0.001 A 
ATOM     17  C   UNL     1      28.228   4.709 -49.504  1.00  0.00     0.000 A 
ENDBRANCH   4  12
BRANCH  10  18
ATOM     18  O   UNL     1      24.816  10.207 -42.870  1.00  0.00    -0.507 OA
ATOM     19  H   UNL     1      25.369  10.802 -43.460  1.00  0.00     0.293 HD
ENDBRANCH  10  18
BRANCH   8  20
ATOM     20  O   UNL     1      24.596   6.022 -40.588  1.00  0.00    -0.508 OA
ATOM     21  H   UNL     1      25.142   6.063 -39.740  1.00  0.00     0.293 HD
ENDBRANCH   8  20
TORSDOF 3
ENDMDL
MODEL 5
REMARK VINA RESULT:      -7.9      1.583      2.878
REMARK SMILES O=c1cc(-c2ccccc2)oc2cc(O)cc(O)c12
REMARK SMILES IDX 1 1 2 2 3 3 4 4 11 5 12 6 13 7 14 8 16 9 17 10 19 11 5 12
REMARK SMILES IDX 6 13 10 14 7 15 9 16 8 17 18 18 15 20
REMARK H PARENT 18 19 15 21
ROOT
ATOM      1  O   UNL     1      27.499   5.536 -42.894  1.00  0.00    -0.289 OA
ATOM      2  C   UNL     1      27.200   6.242 -43.890  1.00  0.00     0.197 A 
ATOM      3  C   UNL     1      27.616   5.927 -45.192  1.00  0.00     0.100 A 
ATOM      4  C   UNL     1      27.277   6.715 -46.266  1.00  0.00     0.138 A 
ATOM      5  O   UNL     1      26.547   7.775 -46.011  1.00  0.00    -0.456 OA
ATOM      6  C   UNL     1      26.129   8.121 -44.819  1.00  0.00     0.146 A 
ATOM      7  C   UNL     1      25.356   9.258 -44.615  1.00  0.00     0.094 A 
ATOM      8  C   UNL     1      24.901   9.649 -43.379  1.00  0.00     0.123 A 
ATOM      9  C   UNL     1      25.218   8.888 -42.277  1.00  0.00     0.093 A 
ATOM     10  C   UNL     1      25.982   7.753 -42.437  1.00  0.00     0.134 A 
ATOM     11  C   UNL     1      26.437   7.371 -43.705  1.00  0.00     0.107 A 
ENDROOT
BRANCH   4  12
ATOM     12  C   UNL     1      27.707   6.394 -47.630  1.00  0.00     0.017 A 
ATOM     13  C   UNL     1      26.912   6.531 -48.737  1.00  0.00     0.012 A 
ATOM     14  C   UNL     1      28.992   5.924 -47.836  1.00  0.00     0.012 A 
ATOM     15  C   UNL     1      27.366   6.213 -50.019  1.00  0.00     0.001 A 
ATOM     16  C   UNL     1      29.471   5.599 -49.096  1.00  0.00     0.001 A 
ATOM     17  C   UNL     1      28.649   5.745 -50.206  1.00  0.00     0.000 A 
ENDBRANCH   4  12
BRANCH  10  18
ATOM     18  O   UNL     1      26.298   6.994 -41.336  1.00  0.00    -0.507 OA
ATOM     19  H   UNL     1      26.202   7.374 -40.411  1.00  0.00     0.293 HD
ENDBRANCH  10  18
BRANCH   8  20
ATOM     20  O   UNL     1      24.127  10.801 -43.222  1.00  0.00    -0.508 OA
ATOM     21  H   UNL     1      24.336  11.672 -43.689  1.00  0.00     0.293 HD
ENDBRANCH   8  20
TORSDOF 3
ENDMDL
MODEL 6
REMARK VINA RESULT:      -7.9      1.041      1.076
REMARK SMILES O=c1cc(-c2ccccc2)oc2cc(O)cc(O)c12
REMARK SMILES IDX 1 1 2 2 3 3 4 4 11 5 12 6 13 7 14 8 16 9 17 10 19 11 5 12
REMARK SMILES IDX 6 13 10 14 7 15 9 16 8 17 18 18 15 20
REMARK H PARENT 18 19 15 21
ROOT
ATOM      1  O   UNL     1      24.488   9.874 -44.646  1.00  0.00    -0.289 OA
ATOM      2  C   UNL     1      24.893   8.687 -44.569  1.00  0.00     0.197 A 
ATOM      3  C   UNL     1      25.553   8.045 -45.627  1.00  0.00     0.100 A 
ATOM      4  C   UNL     1      25.988   6.745 -45.520  1.00  0.00     0.138 A 
ATOM      5  O   UNL     1      25.754   6.138 -44.382  1.00  0.00    -0.456 OA
ATOM      6  C   UNL     1      25.144   6.685 -43.359  1.00  0.00     0.146 A 
ATOM      7  C   UNL     1      24.927   5.987 -42.177  1.00  0.00     0.094 A 
ATOM      8  C   UNL     1      24.291   6.529 -41.086  1.00  0.00     0.123 A 
ATOM      9  C   UNL     1      23.840   7.828 -41.151  1.00  0.00     0.093 A 
ATOM     10  C   UNL     1      24.036   8.554 -42.306  1.00  0.00     0.134 A 
ATOM     11  C   UNL     1      24.686   7.983 -43.407  1.00  0.00     0.107 A 
ENDROOT
BRANCH   4  12
ATOM     12  C   UNL     1      26.678   6.065 -46.620  1.00  0.00     0.017 A 
ATOM     13  C   UNL     1      27.916   6.422 -47.086  1.00  0.00     0.012 A 
ATOM     14  C   UNL     1      26.061   4.993 -47.240  1.00  0.00     0.012 A 
ATOM     15  C   UNL     1      28.535   5.743 -48.138  1.00  0.00     0.001 A 
ATOM     16  C   UNL     1      26.650   4.300 -48.286  1.00  0.00     0.001 A 
ATOM     17  C   UNL     1      27.906   4.677 -48.745  1.00  0.00     0.000 A 
ENDBRANCH   4  12
BRANCH  10  18
ATOM     18  O   UNL     1      23.585   9.851 -42.369  1.00  0.00    -0.507 OA
ATOM     19  H   UNL     1      23.335  10.344 -41.531  1.00  0.00     0.293 HD
ENDBRANCH  10  18
BRANCH   8  20
ATOM     20  O   UNL     1      24.095   5.789 -39.918  1.00  0.00    -0.508 OA
ATOM     21  H   UNL     1      23.189   5.672 -39.488  1.00  0.00     0.293 HD
ENDBRANCH   8  20
TORSDOF 3
ENDMDL
MODEL 7
REMARK VINA RESULT:      -7.8      0.792      1.335
REMARK SMILES O=c1cc(-c2ccccc2)oc2cc(O)cc(O)c12
REMARK SMILES IDX 1 1 2 2 3 3 4 4 11 5 12 6 13 7 14 8 16 9 17 10 19 11 5 12
REMARK SMILES IDX 6 13 10 14 7 15 9 16 8 17 18 18 15 20
REMARK H PARENT 18 19 15 21
ROOT
ATOM      1  O   UNL     1      25.310  10.092 -44.389  1.00  0.00    -0.289 OA
ATOM      2  C   UNL     1      25.282   8.839 -44.477  1.00  0.00     0.197 A 
ATOM      3  C   UNL     1      25.704   8.152 -45.625  1.00  0.00     0.100 A 
ATOM      4  C   UNL     1      25.664   6.780 -45.698  1.00  0.00     0.138 A 
ATOM      5  O   UNL     1      25.211   6.147 -44.643  1.00  0.00    -0.456 OA
ATOM      6  C   UNL     1      24.803   6.732 -43.543  1.00  0.00     0.146 A 
ATOM      7  C   UNL     1      24.334   6.003 -42.456  1.00  0.00     0.094 A 
ATOM      8  C   UNL     1      23.899   6.584 -41.290  1.00  0.00     0.123 A 
ATOM      9  C   UNL     1      23.923   7.956 -41.175  1.00  0.00     0.093 A 
ATOM     10  C   UNL     1      24.381   8.714 -42.230  1.00  0.00     0.134 A 
ATOM     11  C   UNL     1      24.820   8.103 -43.411  1.00  0.00     0.107 A 
ENDROOT
BRANCH   4  12
ATOM     12  C   UNL     1      26.103   6.054 -46.893  1.00  0.00     0.017 A 
ATOM     13  C   UNL     1      25.897   4.715 -47.096  1.00  0.00     0.012 A 
ATOM     14  C   UNL     1      26.766   6.743 -47.893  1.00  0.00     0.012 A 
ATOM     15  C   UNL     1      26.333   4.065 -48.253  1.00  0.00     0.001 A 
ATOM     16  C   UNL     1      27.211   6.126 -49.052  1.00  0.00     0.001 A 
ATOM     17  C   UNL     1      26.993   4.767 -49.238  1.00  0.00     0.000 A 
ENDBRANCH   4  12
BRANCH  10  18
ATOM     18  O   UNL     1      24.404  10.083 -42.114  1.00  0.00    -0.507 OA
ATOM     19  H   UNL     1      25.258  10.560 -41.884  1.00  0.00     0.293 HD
ENDBRANCH  10  18
BRANCH   8  20
ATOM     20  O   UNL     1      23.435   5.811 -40.223  1.00  0.00    -0.508 OA
ATOM     21  H   UNL     1      22.755   6.147 -39.556  1.00  0.00     0.293 HD
ENDBRANCH   8  20
TORSDOF 3
ENDMDL
MODEL 8
REMARK VINA RESULT:      -7.7      1.698      2.872
REMARK SMILES O=c1cc(-c2ccccc2)oc2cc(O)cc(O)c12
REMARK SMILES IDX 1 1 2 2 3 3 4 4 11 5 12 6 13 7 14 8 16 9 17 10 19 11 5 12
REMARK SMILES IDX 6 13 10 14 7 15 9 16 8 17 18 18 15 20
REMARK H PARENT 18 19 15 21
ROOT
ATOM      1  O   UNL     1      27.772   5.477 -43.125  1.00  0.00    -0.289 OA
ATOM      2  C   UNL     1      27.371   6.029 -44.180  1.00  0.00     0.197 A 
ATOM      3  C   UNL     1      27.849   5.669 -45.449  1.00  0.00     0.100 A 
ATOM      4  C   UNL     1      27.395   6.286 -46.590  1.00  0.00     0.138 A 
ATOM      5  O   UNL     1      26.496   7.227 -46.432  1.00  0.00    -0.456 OA
ATOM      6  C   UNL     1      26.012   7.607 -45.275  1.00  0.00     0.146 A 
ATOM      7  C   UNL     1      25.058   8.613 -45.174  1.00  0.00     0.094 A 
ATOM      8  C   UNL     1      24.529   9.035 -43.979  1.00  0.00     0.123 A 
ATOM      9  C   UNL     1      24.957   8.442 -42.812  1.00  0.00     0.093 A 
ATOM     10  C   UNL     1      25.902   7.441 -42.869  1.00  0.00     0.134 A 
ATOM     11  C   UNL     1      26.428   7.025 -44.098  1.00  0.00     0.107 A 
ENDROOT
BRANCH   4  12
ATOM     12  C   UNL     1      27.888   5.917 -47.920  1.00  0.00     0.017 A 
ATOM     13  C   UNL     1      29.197   6.026 -48.310  1.00  0.00     0.012 A 
ATOM     14  C   UNL     1      26.995   5.426 -48.856  1.00  0.00     0.012 A 
ATOM     15  C   UNL     1      29.621   5.661 -49.590  1.00  0.00     0.001 A 
ATOM     16  C   UNL     1      27.386   5.056 -50.133  1.00  0.00     0.001 A 
ATOM     17  C   UNL     1      28.718   5.173 -50.510  1.00  0.00     0.000 A 
ENDBRANCH   4  12
BRANCH  10  18
ATOM     18  O   UNL     1      26.327   6.851 -41.703  1.00  0.00    -0.507 OA
ATOM     19  H   UNL     1      26.725   7.406 -40.967  1.00  0.00     0.293 HD
ENDBRANCH  10  18
BRANCH   8  20
ATOM     20  O   UNL     1      23.572  10.051 -43.926  1.00  0.00    -0.508 OA
ATOM     21  H   UNL     1      22.619   9.924 -44.234  1.00  0.00     0.293 HD
ENDBRANCH   8  20
TORSDOF 3
ENDMDL
MODEL 9
REMARK VINA RESULT:      -7.7      2.113      6.544
REMARK SMILES O=c1cc(-c2ccccc2)oc2cc(O)cc(O)c12
REMARK SMILES IDX 1 1 2 2 3 3 4 4 11 5 12 6 13 7 14 8 16 9 17 10 19 11 5 12
REMARK SMILES IDX 6 13 10 14 7 15 9 16 8 17 18 18 15 20
REMARK H PARENT 18 19 15 21
ROOT
ATOM      1  O   UNL     1      24.251   3.847 -46.673  1.00  0.00    -0.289 OA
ATOM      2  C   UNL     1      24.899   4.851 -46.286  1.00  0.00     0.197 A 
ATOM      3  C   UNL     1      24.479   5.653 -45.214  1.00  0.00     0.100 A 
ATOM      4  C   UNL     1      25.205   6.748 -44.807  1.00  0.00     0.138 A 
ATOM      5  O   UNL     1      26.306   7.003 -45.472  1.00  0.00    -0.456 OA
ATOM      6  C   UNL     1      26.750   6.292 -46.479  1.00  0.00     0.146 A 
ATOM      7  C   UNL     1      27.927   6.616 -47.143  1.00  0.00     0.094 A 
ATOM      8  C   UNL     1      28.420   5.893 -48.201  1.00  0.00     0.123 A 
ATOM      9  C   UNL     1      27.724   4.789 -48.641  1.00  0.00     0.093 A 
ATOM     10  C   UNL     1      26.552   4.435 -48.009  1.00  0.00     0.134 A 
ATOM     11  C   UNL     1      26.066   5.185 -46.932  1.00  0.00     0.107 A 
ENDROOT
BRANCH   4  12
ATOM     12  C   UNL     1      24.774   7.592 -43.689  1.00  0.00     0.017 A 
ATOM     13  C   UNL     1      25.197   8.880 -43.494  1.00  0.00     0.012 A 
ATOM     14  C   UNL     1      23.886   7.077 -42.761  1.00  0.00     0.012 A 
ATOM     15  C   UNL     1      24.759   9.647 -42.412  1.00  0.00     0.001 A 
ATOM     16  C   UNL     1      23.433   7.814 -41.678  1.00  0.00     0.001 A 
ATOM     17  C   UNL     1      23.873   9.118 -41.497  1.00  0.00     0.000 A 
ENDBRANCH   4  12
BRANCH  10  18
ATOM     18  O   UNL     1      25.858   3.333 -48.449  1.00  0.00    -0.507 OA
ATOM     19  H   UNL     1      26.317   2.628 -48.996  1.00  0.00     0.293 HD
ENDBRANCH  10  18
BRANCH   8  20
ATOM     20  O   UNL     1      29.609   6.256 -48.839  1.00  0.00    -0.508 OA
ATOM     21  H   UNL     1      29.650   6.951 -49.571  1.00  0.00     0.293 HD
ENDBRANCH   8  20
TORSDOF 3
ENDMDL
