MODEL 1
REMARK VINA RESULT:      -4.7      0.000      0.000
REMARK SMILES O=C1c2c([O-])ccc(O)c2C(=O)c2c(NCC[NH2+]CCO)ccc(NCCNCCO)c21
REMARK SMILES IDX 1 1 2 2 3 3 4 4 5 5 6 6 7 7 8 8 10 9 11 10 12 11 13 12 14 13
REMARK SMILES IDX 22 14 23 15 24 16 32 17 25 18 26 20 27 21 28 22 29 24 30 25
REMARK SMILES IDX 31 26 9 28 15 30 16 32 17 33 18 34 19 37 20 38 21 39
REMARK H PARENT 25 19 28 23 31 27 9 29 15 31 18 35 18 36 21 40
ROOT
ATOM      1  O   UNL     1      26.246  50.454  18.370  1.00  0.00    -0.288 OA
ATOM      2  C   UNL     1      27.128  51.250  18.777  1.00  0.00     0.196 C 
ATOM      3  C   UNL     1      27.336  52.507  18.021  1.00  0.00     0.030 A 
ATOM      4  C   UNL     1      26.543  52.727  16.911  1.00  0.00    -0.097 A 
ATOM      5  O   UNL     1      25.591  51.778  16.548  1.00  0.00    -0.872 OA
ATOM      6  C   UNL     1      26.716  53.889  16.192  1.00  0.00    -0.004 A 
ATOM      7  C   UNL     1      27.658  54.805  16.572  1.00  0.00     0.046 A 
ATOM      8  C   UNL     1      28.460  54.605  17.674  1.00  0.00     0.127 A 
ATOM      9  C   UNL     1      28.273  53.425  18.394  1.00  0.00     0.075 A 
ATOM     10  C   UNL     1      29.103  53.167  19.576  1.00  0.00     0.200 C 
ATOM     11  O   UNL     1      29.938  54.064  19.845  1.00  0.00    -0.288 OA
ATOM     12  C   UNL     1      28.918  51.939  20.336  1.00  0.00     0.059 A 
ATOM     13  C   UNL     1      29.721  51.749  21.426  1.00  0.00     0.046 A 
ATOM     14  C   UNL     1      29.514  50.548  22.135  1.00  0.00     0.028 A 
ATOM     15  C   UNL     1      28.575  49.640  21.755  1.00  0.00     0.028 A 
ATOM     16  C   UNL     1      27.751  49.833  20.634  1.00  0.00     0.046 A 
ATOM     17  C   UNL     1      27.939  50.996  19.934  1.00  0.00     0.059 A 
ENDROOT
BRANCH  16  18
ATOM     18  N   UNL     1      26.776  48.832  20.350  1.00  0.00    -0.383 N 
ATOM     19  H   UNL     1      26.447  48.659  19.411  1.00  0.00     0.160 HD
BRANCH  18  20
ATOM     20  C   UNL     1      26.197  48.006  21.393  1.00  0.00     0.128 C 
BRANCH  20  21
ATOM     21  C   UNL     1      24.944  47.304  21.009  1.00  0.00     0.102 C 
BRANCH  21  22
ATOM     22  N   UNL     1      24.972  45.889  21.400  1.00  0.00    -0.313 NA
ATOM     23  H   UNL     1      23.971  45.600  21.525  1.00  0.00     0.122 HD
BRANCH  22  24
ATOM     24  C   UNL     1      25.580  45.833  22.722  1.00  0.00     0.109 C 
BRANCH  24  25
ATOM     25  C   UNL     1      25.239  44.542  23.426  1.00  0.00     0.171 C 
BRANCH  25  26
ATOM     26  O   UNL     1      24.873  44.762  24.752  1.00  0.00    -0.395 OA
ATOM     27  H   UNL     1      24.126  44.137  24.963  1.00  0.00     0.210 HD
ENDBRANCH  25  26
ENDBRANCH  24  25
ENDBRANCH  22  24
ENDBRANCH  21  22
ENDBRANCH  20  21
ENDBRANCH  18  20
ENDBRANCH  16  18
BRANCH   8  28
ATOM     28  O   UNL     1      29.423  55.545  18.060  1.00  0.00    -0.507 OA
ATOM     29  H   UNL     1      29.920  55.467  18.949  1.00  0.00     0.293 HD
ENDBRANCH   8  28
BRANCH  13  30
ATOM     30  N   UNL     1      30.715  52.634  21.893  1.00  0.00    -0.379 N 
ATOM     31  H   UNL     1      30.811  53.604  21.633  1.00  0.00     0.160 HD
BRANCH  30  32
ATOM     32  C   UNL     1      31.741  52.164  22.847  1.00  0.00     0.174 C 
BRANCH  32  33
ATOM     33  C   UNL     1      32.926  53.057  22.895  1.00  0.00     0.281 C 
BRANCH  33  34
ATOM     34  N   UNL     1      32.724  54.356  22.331  1.00  0.00    -0.343 N 
ATOM     35  H   UNL     1      33.455  54.630  21.637  1.00  0.00     0.346 HD
ATOM     36  H   UNL     1      31.819  54.334  21.798  1.00  0.00     0.346 HD
BRANCH  34  37
ATOM     37  C   UNL     1      32.599  55.406  23.312  1.00  0.00     0.289 C 
BRANCH  37  38
ATOM     38  C   UNL     1      31.157  55.775  23.576  1.00  0.00     0.217 C 
BRANCH  38  39
ATOM     39  O   UNL     1      30.423  55.549  22.425  1.00  0.00    -0.391 OA
ATOM     40  H   UNL     1      30.809  54.735  21.988  1.00  0.00     0.210 HD
ENDBRANCH  38  39
ENDBRANCH  37  38
ENDBRANCH  34  37
ENDBRANCH  33  34
ENDBRANCH  32  33
ENDBRANCH  30  32
ENDBRANCH  13  30
TORSDOF 15
ENDMDL
MODEL 2
REMARK VINA RESULT:      -4.6      7.619     12.196
REMARK SMILES O=C1c2c([O-])ccc(O)c2C(=O)c2c(NCC[NH2+]CCO)ccc(NCCNCCO)c21
REMARK SMILES IDX 1 1 2 2 3 3 4 4 5 5 6 6 7 7 8 8 10 9 11 10 12 11 13 12 14 13
REMARK SMILES IDX 22 14 23 15 24 16 32 17 25 18 26 20 27 21 28 22 29 24 30 25
REMARK SMILES IDX 31 26 9 28 15 30 16 32 17 33 18 34 19 37 20 38 21 39
REMARK H PARENT 25 19 28 23 31 27 9 29 15 31 18 35 18 36 21 40
ROOT
ATOM      1  O   UNL     1      21.913  55.654  13.600  1.00  0.00    -0.288 OA
ATOM      2  C   UNL     1      20.932  54.871  13.623  1.00  0.00     0.196 C 
ATOM      3  C   UNL     1      20.054  54.816  12.430  1.00  0.00     0.030 A 
ATOM      4  C   UNL     1      20.372  55.632  11.362  1.00  0.00    -0.097 A 
ATOM      5  O   UNL     1      21.486  56.463  11.439  1.00  0.00    -0.872 OA
ATOM      6  C   UNL     1      19.572  55.598  10.241  1.00  0.00    -0.004 A 
ATOM      7  C   UNL     1      18.484  54.772  10.191  1.00  0.00     0.046 A 
ATOM      8  C   UNL     1      18.149  53.951  11.245  1.00  0.00     0.127 A 
ATOM      9  C   UNL     1      18.967  53.995  12.374  1.00  0.00     0.075 A 
ATOM     10  C   UNL     1      18.651  53.138  13.523  1.00  0.00     0.200 C 
ATOM     11  O   UNL     1      17.635  52.415  13.383  1.00  0.00    -0.288 OA
ATOM     12  C   UNL     1      19.498  53.174  14.707  1.00  0.00     0.059 A 
ATOM     13  C   UNL     1      19.154  52.357  15.748  1.00  0.00     0.046 A 
ATOM     14  C   UNL     1      19.997  52.422  16.876  1.00  0.00     0.028 A 
ATOM     15  C   UNL     1      21.079  53.243  16.922  1.00  0.00     0.028 A 
ATOM     16  C   UNL     1      21.432  54.084  15.853  1.00  0.00     0.046 A 
ATOM     17  C   UNL     1      20.624  54.034  14.747  1.00  0.00     0.059 A 
ENDROOT
BRANCH  16  18
ATOM     18  N   UNL     1      22.608  54.877  15.996  1.00  0.00    -0.383 N 
ATOM     19  H   UNL     1      23.004  55.390  15.221  1.00  0.00     0.160 HD
BRANCH  18  20
ATOM     20  C   UNL     1      23.308  54.991  17.263  1.00  0.00     0.128 C 
BRANCH  20  21
ATOM     21  C   UNL     1      24.733  54.569  17.227  1.00  0.00     0.102 C 
BRANCH  21  22
ATOM     22  N   UNL     1      25.595  55.616  16.662  1.00  0.00    -0.313 NA
ATOM     23  H   UNL     1      25.020  56.104  15.932  1.00  0.00     0.122 HD
BRANCH  22  24
ATOM     24  C   UNL     1      26.665  54.935  15.949  1.00  0.00     0.109 C 
BRANCH  24  25
ATOM     25  C   UNL     1      26.592  55.205  14.465  1.00  0.00     0.171 C 
BRANCH  25  26
ATOM     26  O   UNL     1      25.458  55.942  14.133  1.00  0.00    -0.395 OA
ATOM     27  H   UNL     1      25.223  55.719  13.190  1.00  0.00     0.210 HD
ENDBRANCH  25  26
ENDBRANCH  24  25
ENDBRANCH  22  24
ENDBRANCH  21  22
ENDBRANCH  20  21
ENDBRANCH  18  20
ENDBRANCH  16  18
BRANCH   8  28
ATOM     28  O   UNL     1      17.033  53.106  11.190  1.00  0.00    -0.507 OA
ATOM     29  H   UNL     1      16.988  52.322  10.537  1.00  0.00     0.293 HD
ENDBRANCH   8  28
BRANCH  13  30
ATOM     30  N   UNL     1      18.055  51.475  15.787  1.00  0.00    -0.379 N 
ATOM     31  H   UNL     1      17.083  51.744  15.806  1.00  0.00     0.160 HD
BRANCH  30  32
ATOM     32  C   UNL     1      18.274  50.014  15.809  1.00  0.00     0.174 C 
BRANCH  32  33
ATOM     33  C   UNL     1      19.236  49.566  14.770  1.00  0.00     0.281 C 
BRANCH  33  34
ATOM     34  N   UNL     1      18.657  49.301  13.489  1.00  0.00    -0.343 N 
ATOM     35  H   UNL     1      18.312  48.321  13.379  1.00  0.00     0.346 HD
ATOM     36  H   UNL     1      17.811  49.914  13.389  1.00  0.00     0.346 HD
BRANCH  34  37
ATOM     37  C   UNL     1      19.526  49.614  12.380  1.00  0.00     0.289 C 
BRANCH  37  38
ATOM     38  C   UNL     1      20.938  49.917  12.827  1.00  0.00     0.217 C 
BRANCH  38  39
ATOM     39  O   UNL     1      21.789  48.971  12.281  1.00  0.00    -0.391 OA
ATOM     40  H   UNL     1      22.683  49.099  12.714  1.00  0.00     0.210 HD
ENDBRANCH  38  39
ENDBRANCH  37  38
ENDBRANCH  34  37
ENDBRANCH  33  34
ENDBRANCH  32  33
ENDBRANCH  30  32
ENDBRANCH  13  30
TORSDOF 15
ENDMDL
MODEL 3
REMARK VINA RESULT:      -4.6      2.686      6.575
REMARK SMILES O=C1c2c([O-])ccc(O)c2C(=O)c2c(NCC[NH2+]CCO)ccc(NCCNCCO)c21
REMARK SMILES IDX 1 1 2 2 3 3 4 4 5 5 6 6 7 7 8 8 10 9 11 10 12 11 13 12 14 13
REMARK SMILES IDX 22 14 23 15 24 16 32 17 25 18 26 20 27 21 28 22 29 24 30 25
REMARK SMILES IDX 31 26 9 28 15 30 16 32 17 33 18 34 19 37 20 38 21 39
REMARK H PARENT 25 19 28 23 31 27 9 29 15 31 18 35 18 36 21 40
ROOT
ATOM      1  O   UNL     1      25.992  49.362  19.517  1.00  0.00    -0.288 OA
ATOM      2  C   UNL     1      26.973  49.739  20.203  1.00  0.00     0.196 C 
ATOM      3  C   UNL     1      27.215  49.067  21.501  1.00  0.00     0.030 A 
ATOM      4  C   UNL     1      26.344  48.063  21.877  1.00  0.00    -0.097 A 
ATOM      5  O   UNL     1      25.287  47.722  21.039  1.00  0.00    -0.872 OA
ATOM      6  C   UNL     1      26.549  47.423  23.080  1.00  0.00    -0.004 A 
ATOM      7  C   UNL     1      27.596  47.777  23.884  1.00  0.00     0.046 A 
ATOM      8  C   UNL     1      28.476  48.775  23.529  1.00  0.00     0.127 A 
ATOM      9  C   UNL     1      28.258  49.415  22.309  1.00  0.00     0.075 A 
ATOM     10  C   UNL     1      29.170  50.485  21.887  1.00  0.00     0.200 C 
ATOM     11  O   UNL     1      30.099  50.739  22.690  1.00  0.00    -0.288 OA
ATOM     12  C   UNL     1      28.953  51.161  20.615  1.00  0.00     0.059 A 
ATOM     13  C   UNL     1      29.831  52.151  20.274  1.00  0.00     0.046 A 
ATOM     14  C   UNL     1      29.586  52.783  19.037  1.00  0.00     0.028 A 
ATOM     15  C   UNL     1      28.545  52.428  18.239  1.00  0.00     0.028 A 
ATOM     16  C   UNL     1      27.642  51.410  18.590  1.00  0.00     0.046 A 
ATOM     17  C   UNL     1      27.864  50.785  19.789  1.00  0.00     0.059 A 
ENDROOT
BRANCH  16  18
ATOM     18  N   UNL     1      26.607  51.096  17.660  1.00  0.00    -0.383 N 
ATOM     19  H   UNL     1      26.063  50.248  17.733  1.00  0.00     0.160 HD
BRANCH  18  20
ATOM     20  C   UNL     1      26.278  51.973  16.551  1.00  0.00     0.128 C 
BRANCH  20  21
ATOM     21  C   UNL     1      25.311  53.054  16.878  1.00  0.00     0.102 C 
BRANCH  21  22
ATOM     22  N   UNL     1      25.310  54.109  15.856  1.00  0.00    -0.313 NA
ATOM     23  H   UNL     1      24.816  53.707  15.022  1.00  0.00     0.122 HD
BRANCH  22  24
ATOM     24  C   UNL     1      26.696  54.301  15.453  1.00  0.00     0.109 C 
BRANCH  24  25
ATOM     25  C   UNL     1      26.875  55.605  14.714  1.00  0.00     0.171 C 
BRANCH  25  26
ATOM     26  O   UNL     1      25.818  55.848  13.839  1.00  0.00    -0.395 OA
ATOM     27  H   UNL     1      26.197  56.298  13.033  1.00  0.00     0.210 HD
ENDBRANCH  25  26
ENDBRANCH  24  25
ENDBRANCH  22  24
ENDBRANCH  21  22
ENDBRANCH  20  21
ENDBRANCH  18  20
ENDBRANCH  16  18
BRANCH   8  28
ATOM     28  O   UNL     1      29.548  49.136  24.355  1.00  0.00    -0.507 OA
ATOM     29  H   UNL     1      29.876  50.102  24.415  1.00  0.00     0.293 HD
ENDBRANCH   8  28
BRANCH  13  30
ATOM     30  N   UNL     1      30.936  52.585  21.035  1.00  0.00    -0.379 N 
ATOM     31  H   UNL     1      31.532  51.996  21.598  1.00  0.00     0.160 HD
BRANCH  30  32
ATOM     32  C   UNL     1      31.309  54.014  21.059  1.00  0.00     0.174 C 
BRANCH  32  33
ATOM     33  C   UNL     1      31.569  54.512  22.433  1.00  0.00     0.281 C 
BRANCH  33  34
ATOM     34  N   UNL     1      32.940  54.806  22.718  1.00  0.00    -0.343 N 
ATOM     35  H   UNL     1      33.439  55.280  21.931  1.00  0.00     0.346 HD
ATOM     36  H   UNL     1      32.960  55.485  23.518  1.00  0.00     0.346 HD
BRANCH  34  37
ATOM     37  C   UNL     1      33.709  53.658  23.131  1.00  0.00     0.289 C 
BRANCH  37  38
ATOM     38  C   UNL     1      32.945  52.770  24.088  1.00  0.00     0.217 C 
BRANCH  38  39
ATOM     39  O   UNL     1      32.729  51.546  23.481  1.00  0.00    -0.391 OA
ATOM     40  H   UNL     1      31.749  51.489  23.281  1.00  0.00     0.210 HD
ENDBRANCH  38  39
ENDBRANCH  37  38
ENDBRANCH  34  37
ENDBRANCH  33  34
ENDBRANCH  32  33
ENDBRANCH  30  32
ENDBRANCH  13  30
TORSDOF 15
ENDMDL
MODEL 4
REMARK VINA RESULT:      -4.5      2.867      7.364
REMARK SMILES O=C1c2c([O-])ccc(O)c2C(=O)c2c(NCC[NH2+]CCO)ccc(NCCNCCO)c21
REMARK SMILES IDX 1 1 2 2 3 3 4 4 5 5 6 6 7 7 8 8 10 9 11 10 12 11 13 12 14 13
REMARK SMILES IDX 22 14 23 15 24 16 32 17 25 18 26 20 27 21 28 22 29 24 30 25
REMARK SMILES IDX 31 26 9 28 15 30 16 32 17 33 18 34 19 37 20 38 21 39
REMARK H PARENT 25 19 28 23 31 27 9 29 15 31 18 35 18 36 21 40
ROOT
ATOM      1  O   UNL     1      28.911  53.431  18.885  1.00  0.00    -0.288 OA
ATOM      2  C   UNL     1      29.004  52.480  19.699  1.00  0.00     0.196 C 
ATOM      3  C   UNL     1      30.156  52.468  20.630  1.00  0.00     0.030 A 
ATOM      4  C   UNL     1      31.060  53.510  20.545  1.00  0.00    -0.097 A 
ATOM      5  O   UNL     1      30.861  54.517  19.606  1.00  0.00    -0.872 OA
ATOM      6  C   UNL     1      32.140  53.522  21.402  1.00  0.00    -0.004 A 
ATOM      7  C   UNL     1      32.310  52.519  22.315  1.00  0.00     0.046 A 
ATOM      8  C   UNL     1      31.422  51.472  22.416  1.00  0.00     0.127 A 
ATOM      9  C   UNL     1      30.333  51.472  21.544  1.00  0.00     0.075 A 
ATOM     10  C   UNL     1      29.359  50.377  21.613  1.00  0.00     0.200 C 
ATOM     11  O   UNL     1      29.599  49.505  22.482  1.00  0.00    -0.288 OA
ATOM     12  C   UNL     1      28.218  50.365  20.708  1.00  0.00     0.059 A 
ATOM     13  C   UNL     1      27.344  49.319  20.815  1.00  0.00     0.046 A 
ATOM     14  C   UNL     1      26.254  49.342  19.921  1.00  0.00     0.028 A 
ATOM     15  C   UNL     1      26.086  50.341  19.014  1.00  0.00     0.028 A 
ATOM     16  C   UNL     1      26.984  51.416  18.903  1.00  0.00     0.046 A 
ATOM     17  C   UNL     1      28.050  51.410  19.765  1.00  0.00     0.059 A 
ENDROOT
BRANCH  16  18
ATOM     18  N   UNL     1      26.691  52.427  17.941  1.00  0.00    -0.383 N 
ATOM     19  H   UNL     1      26.466  53.373  18.212  1.00  0.00     0.160 HD
BRANCH  18  20
ATOM     20  C   UNL     1      26.693  52.153  16.515  1.00  0.00     0.128 C 
BRANCH  20  21
ATOM     21  C   UNL     1      26.685  53.361  15.649  1.00  0.00     0.102 C 
BRANCH  21  22
ATOM     22  N   UNL     1      27.636  54.375  16.122  1.00  0.00    -0.313 NA
ATOM     23  H   UNL     1      27.534  54.406  17.166  1.00  0.00     0.122 HD
BRANCH  22  24
ATOM     24  C   UNL     1      27.159  55.658  15.628  1.00  0.00     0.109 C 
BRANCH  24  25
ATOM     25  C   UNL     1      26.728  55.562  14.185  1.00  0.00     0.171 C 
BRANCH  25  26
ATOM     26  O   UNL     1      25.455  56.094  13.993  1.00  0.00    -0.395 OA
ATOM     27  H   UNL     1      24.824  55.328  13.900  1.00  0.00     0.210 HD
ENDBRANCH  25  26
ENDBRANCH  24  25
ENDBRANCH  22  24
ENDBRANCH  21  22
ENDBRANCH  20  21
ENDBRANCH  18  20
ENDBRANCH  16  18
BRANCH   8  28
ATOM     28  O   UNL     1      31.600  50.447  23.354  1.00  0.00    -0.507 OA
ATOM     29  H   UNL     1      32.109  50.602  24.225  1.00  0.00     0.293 HD
ENDBRANCH   8  28
BRANCH  13  30
ATOM     30  N   UNL     1      27.437  48.245  21.723  1.00  0.00    -0.379 N 
ATOM     31  H   UNL     1      28.291  47.872  22.111  1.00  0.00     0.160 HD
BRANCH  30  32
ATOM     32  C   UNL     1      26.216  47.555  22.188  1.00  0.00     0.174 C 
BRANCH  32  33
ATOM     33  C   UNL     1      25.894  47.857  23.605  1.00  0.00     0.281 C 
BRANCH  33  34
ATOM     34  N   UNL     1      25.692  49.244  23.893  1.00  0.00    -0.343 N 
ATOM     35  H   UNL     1      25.994  49.520  24.855  1.00  0.00     0.346 HD
ATOM     36  H   UNL     1      26.295  49.797  23.235  1.00  0.00     0.346 HD
BRANCH  34  37
ATOM     37  C   UNL     1      24.337  49.692  23.686  1.00  0.00     0.289 C 
BRANCH  37  38
ATOM     38  C   UNL     1      24.258  51.179  23.428  1.00  0.00     0.217 C 
BRANCH  38  39
ATOM     39  O   UNL     1      24.884  51.455  22.224  1.00  0.00    -0.391 OA
ATOM     40  H   UNL     1      24.219  51.264  21.500  1.00  0.00     0.210 HD
ENDBRANCH  38  39
ENDBRANCH  37  38
ENDBRANCH  34  37
ENDBRANCH  33  34
ENDBRANCH  32  33
ENDBRANCH  30  32
ENDBRANCH  13  30
TORSDOF 15
ENDMDL
MODEL 5
REMARK VINA RESULT:      -4.5      2.805      5.473
REMARK SMILES O=C1c2c([O-])ccc(O)c2C(=O)c2c(NCC[NH2+]CCO)ccc(NCCNCCO)c21
REMARK SMILES IDX 1 1 2 2 3 3 4 4 5 5 6 6 7 7 8 8 10 9 11 10 12 11 13 12 14 13
REMARK SMILES IDX 22 14 23 15 24 16 32 17 25 18 26 20 27 21 28 22 29 24 30 25
REMARK SMILES IDX 31 26 9 28 15 30 16 32 17 33 18 34 19 37 20 38 21 39
REMARK H PARENT 25 19 28 23 31 27 9 29 15 31 18 35 18 36 21 40
ROOT
ATOM      1  O   UNL     1      29.833  49.430  22.435  1.00  0.00    -0.288 OA
ATOM      2  C   UNL     1      29.441  50.337  21.661  1.00  0.00     0.196 C 
ATOM      3  C   UNL     1      30.349  51.481  21.411  1.00  0.00     0.030 A 
ATOM      4  C   UNL     1      31.576  51.477  22.047  1.00  0.00    -0.097 A 
ATOM      5  O   UNL     1      31.912  50.419  22.886  1.00  0.00    -0.872 OA
ATOM      6  C   UNL     1      32.438  52.530  21.830  1.00  0.00    -0.004 A 
ATOM      7  C   UNL     1      32.083  53.557  21.000  1.00  0.00     0.046 A 
ATOM      8  C   UNL     1      30.865  53.580  20.357  1.00  0.00     0.127 A 
ATOM      9  C   UNL     1      30.002  52.509  20.585  1.00  0.00     0.075 A 
ATOM     10  C   UNL     1      28.693  52.488  19.921  1.00  0.00     0.200 C 
ATOM     11  O   UNL     1      28.457  53.473  19.180  1.00  0.00    -0.288 OA
ATOM     12  C   UNL     1      27.782  51.376  20.151  1.00  0.00     0.059 A 
ATOM     13  C   UNL     1      26.576  51.410  19.510  1.00  0.00     0.046 A 
ATOM     14  C   UNL     1      25.721  50.317  19.759  1.00  0.00     0.028 A 
ATOM     15  C   UNL     1      26.078  49.296  20.583  1.00  0.00     0.028 A 
ATOM     16  C   UNL     1      27.317  49.260  21.243  1.00  0.00     0.046 A 
ATOM     17  C   UNL     1      28.161  50.315  21.013  1.00  0.00     0.059 A 
ENDROOT
BRANCH  16  18
ATOM     18  N   UNL     1      27.601  48.124  22.056  1.00  0.00    -0.383 N 
ATOM     19  H   UNL     1      28.507  47.676  22.052  1.00  0.00     0.160 HD
BRANCH  18  20
ATOM     20  C   UNL     1      26.603  47.539  22.934  1.00  0.00     0.128 C 
BRANCH  20  21
ATOM     21  C   UNL     1      26.965  47.537  24.375  1.00  0.00     0.102 C 
BRANCH  21  22
ATOM     22  N   UNL     1      27.626  46.285  24.767  1.00  0.00    -0.313 NA
ATOM     23  H   UNL     1      27.123  45.944  25.623  1.00  0.00     0.122 HD
BRANCH  22  24
ATOM     24  C   UNL     1      28.969  46.640  25.200  1.00  0.00     0.109 C 
BRANCH  24  25
ATOM     25  C   UNL     1      30.013  46.054  24.281  1.00  0.00     0.171 C 
BRANCH  25  26
ATOM     26  O   UNL     1      30.211  46.850  23.155  1.00  0.00    -0.395 OA
ATOM     27  H   UNL     1      29.828  47.749  23.355  1.00  0.00     0.210 HD
ENDBRANCH  25  26
ENDBRANCH  24  25
ENDBRANCH  22  24
ENDBRANCH  21  22
ENDBRANCH  20  21
ENDBRANCH  18  20
ENDBRANCH  16  18
BRANCH   8  28
ATOM     28  O   UNL     1      30.505  54.634  19.508  1.00  0.00    -0.507 OA
ATOM     29  H   UNL     1      31.206  55.252  19.095  1.00  0.00     0.293 HD
ENDBRANCH   8  28
BRANCH  13  30
ATOM     30  N   UNL     1      26.123  52.423  18.639  1.00  0.00    -0.379 N 
ATOM     31  H   UNL     1      26.215  53.416  18.791  1.00  0.00     0.160 HD
BRANCH  30  32
ATOM     32  C   UNL     1      25.444  52.070  17.375  1.00  0.00     0.174 C 
BRANCH  32  33
ATOM     33  C   UNL     1      26.394  51.888  16.249  1.00  0.00     0.281 C 
BRANCH  33  34
ATOM     34  N   UNL     1      27.383  52.914  16.124  1.00  0.00    -0.343 N 
ATOM     35  H   UNL     1      27.921  53.087  17.003  1.00  0.00     0.346 HD
ATOM     36  H   UNL     1      28.089  52.592  15.417  1.00  0.00     0.346 HD
BRANCH  34  37
ATOM     37  C   UNL     1      26.863  54.171  15.644  1.00  0.00     0.289 C 
BRANCH  37  38
ATOM     38  C   UNL     1      27.398  55.349  16.427  1.00  0.00     0.217 C 
BRANCH  38  39
ATOM     39  O   UNL     1      26.810  55.353  17.680  1.00  0.00    -0.391 OA
ATOM     40  H   UNL     1      27.394  54.801  18.277  1.00  0.00     0.210 HD
ENDBRANCH  38  39
ENDBRANCH  37  38
ENDBRANCH  34  37
ENDBRANCH  33  34
ENDBRANCH  32  33
ENDBRANCH  30  32
ENDBRANCH  13  30
TORSDOF 15
ENDMDL
MODEL 6
REMARK VINA RESULT:      -4.5      2.496      7.266
REMARK SMILES O=C1c2c([O-])ccc(O)c2C(=O)c2c(NCC[NH2+]CCO)ccc(NCCNCCO)c21
REMARK SMILES IDX 1 1 2 2 3 3 4 4 5 5 6 6 7 7 8 8 10 9 11 10 12 11 13 12 14 13
REMARK SMILES IDX 22 14 23 15 24 16 32 17 25 18 26 20 27 21 28 22 29 24 30 25
REMARK SMILES IDX 31 26 9 28 15 30 16 32 17 33 18 34 19 37 20 38 21 39
REMARK H PARENT 25 19 28 23 31 27 9 29 15 31 18 35 18 36 21 40
ROOT
ATOM      1  O   UNL     1      28.359  52.576  18.478  1.00  0.00    -0.288 OA
ATOM      2  C   UNL     1      28.656  51.913  19.501  1.00  0.00     0.196 C 
ATOM      3  C   UNL     1      29.783  52.389  20.338  1.00  0.00     0.030 A 
ATOM      4  C   UNL     1      30.439  53.537  19.938  1.00  0.00    -0.097 A 
ATOM      5  O   UNL     1      30.026  54.198  18.785  1.00  0.00    -0.872 OA
ATOM      6  C   UNL     1      31.489  54.000  20.700  1.00  0.00    -0.004 A 
ATOM      7  C   UNL     1      31.873  53.332  21.829  1.00  0.00     0.046 A 
ATOM      8  C   UNL     1      31.234  52.185  22.245  1.00  0.00     0.127 A 
ATOM      9  C   UNL     1      30.172  51.727  21.465  1.00  0.00     0.075 A 
ATOM     10  C   UNL     1      29.459  50.509  21.868  1.00  0.00     0.200 C 
ATOM     11  O   UNL     1      29.883  49.967  22.917  1.00  0.00    -0.288 OA
ATOM     12  C   UNL     1      28.348  50.021  21.062  1.00  0.00     0.059 A 
ATOM     13  C   UNL     1      27.723  48.881  21.483  1.00  0.00     0.046 A 
ATOM     14  C   UNL     1      26.654  48.439  20.676  1.00  0.00     0.028 A 
ATOM     15  C   UNL     1      26.274  49.106  19.555  1.00  0.00     0.028 A 
ATOM     16  C   UNL     1      26.917  50.278  19.121  1.00  0.00     0.046 A 
ATOM     17  C   UNL     1      27.958  50.722  19.894  1.00  0.00     0.059 A 
ENDROOT
BRANCH  16  18
ATOM     18  N   UNL     1      26.411  50.915  17.950  1.00  0.00    -0.383 N 
ATOM     19  H   UNL     1      26.970  51.021  17.116  1.00  0.00     0.160 HD
BRANCH  18  20
ATOM     20  C   UNL     1      25.064  51.454  17.890  1.00  0.00     0.128 C 
BRANCH  20  21
ATOM     21  C   UNL     1      24.904  52.800  18.501  1.00  0.00     0.102 C 
BRANCH  21  22
ATOM     22  N   UNL     1      24.541  53.811  17.500  1.00  0.00    -0.313 NA
ATOM     23  H   UNL     1      24.272  53.282  16.634  1.00  0.00     0.122 HD
BRANCH  22  24
ATOM     24  C   UNL     1      25.762  54.532  17.173  1.00  0.00     0.109 C 
BRANCH  24  25
ATOM     25  C   UNL     1      26.283  54.136  15.812  1.00  0.00     0.171 C 
BRANCH  25  26
ATOM     26  O   UNL     1      27.303  53.192  15.908  1.00  0.00    -0.395 OA
ATOM     27  H   UNL     1      27.535  53.101  16.874  1.00  0.00     0.210 HD
ENDBRANCH  25  26
ENDBRANCH  24  25
ENDBRANCH  22  24
ENDBRANCH  21  22
ENDBRANCH  20  21
ENDBRANCH  18  20
ENDBRANCH  16  18
BRANCH   8  28
ATOM     28  O   UNL     1      31.630  51.503  23.403  1.00  0.00    -0.507 OA
ATOM     29  H   UNL     1      31.525  50.491  23.489  1.00  0.00     0.293 HD
ENDBRANCH   8  28
BRANCH  13  30
ATOM     30  N   UNL     1      28.047  48.127  22.630  1.00  0.00    -0.379 N 
ATOM     31  H   UNL     1      28.926  47.661  22.801  1.00  0.00     0.160 HD
BRANCH  30  32
ATOM     32  C   UNL     1      27.059  47.960  23.715  1.00  0.00     0.174 C 
BRANCH  32  33
ATOM     33  C   UNL     1      26.741  46.535  23.983  1.00  0.00     0.281 C 
BRANCH  33  34
ATOM     34  N   UNL     1      25.344  46.233  24.053  1.00  0.00    -0.343 N 
ATOM     35  H   UNL     1      24.802  46.895  24.653  1.00  0.00     0.346 HD
ATOM     36  H   UNL     1      24.947  46.335  23.087  1.00  0.00     0.346 HD
BRANCH  34  37
ATOM     37  C   UNL     1      25.059  44.884  24.476  1.00  0.00     0.289 C 
BRANCH  37  38
ATOM     38  C   UNL     1      25.526  43.857  23.469  1.00  0.00     0.217 C 
BRANCH  38  39
ATOM     39  O   UNL     1      25.107  44.248  22.209  1.00  0.00    -0.391 OA
ATOM     40  H   UNL     1      25.859  44.766  21.800  1.00  0.00     0.210 HD
ENDBRANCH  38  39
ENDBRANCH  37  38
ENDBRANCH  34  37
ENDBRANCH  33  34
ENDBRANCH  32  33
ENDBRANCH  30  32
ENDBRANCH  13  30
TORSDOF 15
ENDMDL
MODEL 7
REMARK VINA RESULT:      -4.5      2.969      6.358
REMARK SMILES O=C1c2c([O-])ccc(O)c2C(=O)c2c(NCC[NH2+]CCO)ccc(NCCNCCO)c21
REMARK SMILES IDX 1 1 2 2 3 3 4 4 5 5 6 6 7 7 8 8 10 9 11 10 12 11 13 12 14 13
REMARK SMILES IDX 22 14 23 15 24 16 32 17 25 18 26 20 27 21 28 22 29 24 30 25
REMARK SMILES IDX 31 26 9 28 15 30 16 32 17 33 18 34 19 37 20 38 21 39
REMARK H PARENT 25 19 28 23 31 27 9 29 15 31 18 35 18 36 21 40
ROOT
ATOM      1  O   UNL     1      29.861  50.095  22.749  1.00  0.00    -0.288 OA
ATOM      2  C   UNL     1      29.416  50.619  21.698  1.00  0.00     0.196 C 
ATOM      3  C   UNL     1      28.260  49.973  21.033  1.00  0.00     0.030 A 
ATOM      4  C   UNL     1      27.740  48.832  21.613  1.00  0.00    -0.097 A 
ATOM      5  O   UNL     1      28.309  48.336  22.782  1.00  0.00    -0.872 OA
ATOM      6  C   UNL     1      26.664  48.215  21.013  1.00  0.00    -0.004 A 
ATOM      7  C   UNL     1      26.125  48.725  19.865  1.00  0.00     0.046 A 
ATOM      8  C   UNL     1      26.628  49.861  19.270  1.00  0.00     0.127 A 
ATOM      9  C   UNL     1      27.717  50.476  19.887  1.00  0.00     0.075 A 
ATOM     10  C   UNL     1      28.287  51.690  19.291  1.00  0.00     0.200 C 
ATOM     11  O   UNL     1      27.725  52.081  18.240  1.00  0.00    -0.288 OA
ATOM     12  C   UNL     1      29.424  52.342  19.926  1.00  0.00     0.059 A 
ATOM     13  C   UNL     1      29.917  53.467  19.326  1.00  0.00     0.046 A 
ATOM     14  C   UNL     1      31.018  54.068  19.969  1.00  0.00     0.028 A 
ATOM     15  C   UNL     1      31.552  53.560  21.111  1.00  0.00     0.028 A 
ATOM     16  C   UNL     1      31.047  52.403  21.728  1.00  0.00     0.046 A 
ATOM     17  C   UNL     1      29.976  51.805  21.117  1.00  0.00     0.059 A 
ENDROOT
BRANCH  16  18
ATOM     18  N   UNL     1      31.661  51.980  22.943  1.00  0.00    -0.383 N 
ATOM     19  H   UNL     1      31.934  51.019  23.097  1.00  0.00     0.160 HD
BRANCH  18  20
ATOM     20  C   UNL     1      31.928  52.903  24.031  1.00  0.00     0.128 C 
BRANCH  20  21
ATOM     21  C   UNL     1      30.864  52.967  25.067  1.00  0.00     0.102 C 
BRANCH  21  22
ATOM     22  N   UNL     1      30.090  51.720  25.130  1.00  0.00    -0.313 NA
ATOM     23  H   UNL     1      30.058  51.347  24.150  1.00  0.00     0.122 HD
BRANCH  22  24
ATOM     24  C   UNL     1      28.725  52.093  25.468  1.00  0.00     0.109 C 
BRANCH  24  25
ATOM     25  C   UNL     1      27.841  50.875  25.597  1.00  0.00     0.171 C 
BRANCH  25  26
ATOM     26  O   UNL     1      27.527  50.608  26.928  1.00  0.00    -0.395 OA
ATOM     27  H   UNL     1      27.148  49.687  26.965  1.00  0.00     0.210 HD
ENDBRANCH  25  26
ENDBRANCH  24  25
ENDBRANCH  22  24
ENDBRANCH  21  22
ENDBRANCH  20  21
ENDBRANCH  18  20
ENDBRANCH  16  18
BRANCH   8  28
ATOM     28  O   UNL     1      26.072  50.380  18.094  1.00  0.00    -0.507 OA
ATOM     29  H   UNL     1      26.595  50.394  17.216  1.00  0.00     0.293 HD
ENDBRANCH   8  28
BRANCH  13  30
ATOM     30  N   UNL     1      29.428  54.064  18.146  1.00  0.00    -0.379 N 
ATOM     31  H   UNL     1      29.502  53.680  17.215  1.00  0.00     0.160 HD
BRANCH  30  32
ATOM     32  C   UNL     1      28.738  55.369  18.202  1.00  0.00     0.174 C 
BRANCH  32  33
ATOM     33  C   UNL     1      27.811  55.574  17.061  1.00  0.00     0.281 C 
BRANCH  33  34
ATOM     34  N   UNL     1      27.769  54.498  16.119  1.00  0.00    -0.343 N 
ATOM     35  H   UNL     1      28.490  54.571  15.366  1.00  0.00     0.346 HD
ATOM     36  H   UNL     1      27.989  53.612  16.638  1.00  0.00     0.346 HD
BRANCH  34  37
ATOM     37  C   UNL     1      26.477  54.307  15.507  1.00  0.00     0.289 C 
BRANCH  37  38
ATOM     38  C   UNL     1      25.399  54.015  16.526  1.00  0.00     0.217 C 
BRANCH  38  39
ATOM     39  O   UNL     1      25.220  52.644  16.603  1.00  0.00    -0.391 OA
ATOM     40  H   UNL     1      25.861  52.305  17.293  1.00  0.00     0.210 HD
ENDBRANCH  38  39
ENDBRANCH  37  38
ENDBRANCH  34  37
ENDBRANCH  33  34
ENDBRANCH  32  33
ENDBRANCH  30  32
ENDBRANCH  13  30
TORSDOF 15
ENDMDL
MODEL 8
REMARK VINA RESULT:      -4.5      7.728     11.645
REMARK SMILES O=C1c2c([O-])ccc(O)c2C(=O)c2c(NCC[NH2+]CCO)ccc(NCCNCCO)c21
REMARK SMILES IDX 1 1 2 2 3 3 4 4 5 5 6 6 7 7 8 8 10 9 11 10 12 11 13 12 14 13
REMARK SMILES IDX 22 14 23 15 24 16 32 17 25 18 26 20 27 21 28 22 29 24 30 25
REMARK SMILES IDX 31 26 9 28 15 30 16 32 17 33 18 34 19 37 20 38 21 39
REMARK H PARENT 25 19 28 23 31 27 9 29 15 31 18 35 18 36 21 40
ROOT
ATOM      1  O   UNL     1      33.977  44.344  22.110  1.00  0.00    -0.288 OA
ATOM      2  C   UNL     1      32.964  44.099  22.809  1.00  0.00     0.196 C 
ATOM      3  C   UNL     1      32.707  42.692  23.196  1.00  0.00     0.030 A 
ATOM      4  C   UNL     1      33.603  41.734  22.764  1.00  0.00    -0.097 A 
ATOM      5  O   UNL     1      34.697  42.115  21.994  1.00  0.00    -0.872 OA
ATOM      6  C   UNL     1      33.386  40.419  23.113  1.00  0.00    -0.004 A 
ATOM      7  C   UNL     1      32.303  40.072  23.871  1.00  0.00     0.046 A 
ATOM      8  C   UNL     1      31.397  41.012  24.312  1.00  0.00     0.127 A 
ATOM      9  C   UNL     1      31.628  42.339  23.953  1.00  0.00     0.075 A 
ATOM     10  C   UNL     1      30.691  43.377  24.399  1.00  0.00     0.200 C 
ATOM     11  O   UNL     1      29.729  42.963  25.090  1.00  0.00    -0.288 OA
ATOM     12  C   UNL     1      30.921  44.767  24.031  1.00  0.00     0.059 A 
ATOM     13  C   UNL     1      30.015  45.690  24.472  1.00  0.00     0.046 A 
ATOM     14  C   UNL     1      30.270  47.024  24.094  1.00  0.00     0.028 A 
ATOM     15  C   UNL     1      31.349  47.365  23.341  1.00  0.00     0.028 A 
ATOM     16  C   UNL     1      32.281  46.417  22.886  1.00  0.00     0.046 A 
ATOM     17  C   UNL     1      32.048  45.115  23.245  1.00  0.00     0.059 A 
ENDROOT
BRANCH  16  18
ATOM     18  N   UNL     1      33.394  46.892  22.133  1.00  0.00    -0.383 N 
ATOM     19  H   UNL     1      33.567  46.588  21.185  1.00  0.00     0.160 HD
BRANCH  18  20
ATOM     20  C   UNL     1      34.349  47.836  22.686  1.00  0.00     0.128 C 
BRANCH  20  21
ATOM     21  C   UNL     1      35.763  47.592  22.299  1.00  0.00     0.102 C 
BRANCH  21  22
ATOM     22  N   UNL     1      36.155  46.195  22.530  1.00  0.00    -0.313 NA
ATOM     23  H   UNL     1      35.262  45.647  22.590  1.00  0.00     0.122 HD
BRANCH  22  24
ATOM     24  C   UNL     1      36.754  46.144  23.855  1.00  0.00     0.109 C 
BRANCH  24  25
ATOM     25  C   UNL     1      36.324  44.904  24.602  1.00  0.00     0.171 C 
BRANCH  25  26
ATOM     26  O   UNL     1      36.364  43.774  23.788  1.00  0.00    -0.395 OA
ATOM     27  H   UNL     1      36.016  44.041  22.892  1.00  0.00     0.210 HD
ENDBRANCH  25  26
ENDBRANCH  24  25
ENDBRANCH  22  24
ENDBRANCH  21  22
ENDBRANCH  20  21
ENDBRANCH  18  20
ENDBRANCH  16  18
BRANCH   8  28
ATOM     28  O   UNL     1      30.288  40.653  25.089  1.00  0.00    -0.507 OA
ATOM     29  H   UNL     1      30.226  40.902  26.078  1.00  0.00     0.293 HD
ENDBRANCH   8  28
BRANCH  13  30
ATOM     30  N   UNL     1      28.872  45.428  25.256  1.00  0.00    -0.379 N 
ATOM     31  H   UNL     1      28.850  44.877  26.101  1.00  0.00     0.160 HD
BRANCH  30  32
ATOM     32  C   UNL     1      27.558  45.977  24.863  1.00  0.00     0.174 C 
BRANCH  32  33
ATOM     33  C   UNL     1      26.614  44.925  24.409  1.00  0.00     0.281 C 
BRANCH  33  34
ATOM     34  N   UNL     1      26.875  43.618  24.928  1.00  0.00    -0.343 N 
ATOM     35  H   UNL     1      27.878  43.331  24.858  1.00  0.00     0.346 HD
ATOM     36  H   UNL     1      26.655  43.633  25.955  1.00  0.00     0.346 HD
BRANCH  34  37
ATOM     37  C   UNL     1      26.055  42.583  24.346  1.00  0.00     0.289 C 
BRANCH  37  38
ATOM     38  C   UNL     1      26.769  41.252  24.288  1.00  0.00     0.217 C 
BRANCH  38  39
ATOM     39  O   UNL     1      27.557  41.121  25.418  1.00  0.00    -0.391 OA
ATOM     40  H   UNL     1      26.956  41.243  26.209  1.00  0.00     0.210 HD
ENDBRANCH  38  39
ENDBRANCH  37  38
ENDBRANCH  34  37
ENDBRANCH  33  34
ENDBRANCH  32  33
ENDBRANCH  30  32
ENDBRANCH  13  30
TORSDOF 15
ENDMDL
MODEL 9
REMARK VINA RESULT:      -4.4      2.274      2.987
REMARK SMILES O=C1c2c([O-])ccc(O)c2C(=O)c2c(NCC[NH2+]CCO)ccc(NCCNCCO)c21
REMARK SMILES IDX 1 1 2 2 3 3 4 4 5 5 6 6 7 7 8 8 10 9 11 10 12 11 13 12 14 13
REMARK SMILES IDX 22 14 23 15 24 16 32 17 25 18 26 20 27 21 28 22 29 24 30 25
REMARK SMILES IDX 31 26 9 28 15 30 16 32 17 33 18 34 19 37 20 38 21 39
REMARK H PARENT 25 19 28 23 31 27 9 29 15 31 18 35 18 36 21 40
ROOT
ATOM      1  O   UNL     1      25.197  51.666  19.924  1.00  0.00    -0.288 OA
ATOM      2  C   UNL     1      26.259  52.327  19.826  1.00  0.00     0.196 C 
ATOM      3  C   UNL     1      26.541  53.009  18.541  1.00  0.00     0.030 A 
ATOM      4  C   UNL     1      25.612  52.876  17.527  1.00  0.00    -0.097 A 
ATOM      5  O   UNL     1      24.464  52.121  17.743  1.00  0.00    -0.872 OA
ATOM      6  C   UNL     1      25.851  53.503  16.324  1.00  0.00    -0.004 A 
ATOM      7  C   UNL     1      26.987  54.240  16.139  1.00  0.00     0.046 A 
ATOM      8  C   UNL     1      27.926  54.385  17.137  1.00  0.00     0.127 A 
ATOM      9  C   UNL     1      27.672  53.746  18.350  1.00  0.00     0.075 A 
ATOM     10  C   UNL     1      28.644  53.871  19.444  1.00  0.00     0.200 C 
ATOM     11  O   UNL     1      29.654  54.567  19.180  1.00  0.00    -0.288 OA
ATOM     12  C   UNL     1      28.390  53.209  20.716  1.00  0.00     0.059 A 
ATOM     13  C   UNL     1      29.330  53.358  21.697  1.00  0.00     0.046 A 
ATOM     14  C   UNL     1      29.050  52.701  22.913  1.00  0.00     0.028 A 
ATOM     15  C   UNL     1      27.919  51.969  23.094  1.00  0.00     0.028 A 
ATOM     16  C   UNL     1      26.953  51.816  22.085  1.00  0.00     0.046 A 
ATOM     17  C   UNL     1      27.208  52.448  20.896  1.00  0.00     0.059 A 
ENDROOT
BRANCH  16  18
ATOM     18  N   UNL     1      25.787  51.056  22.396  1.00  0.00    -0.383 N 
ATOM     19  H   UNL     1      24.877  51.301  22.032  1.00  0.00     0.160 HD
BRANCH  18  20
ATOM     20  C   UNL     1      25.838  49.890  23.259  1.00  0.00     0.128 C 
BRANCH  20  21
ATOM     21  C   UNL     1      25.573  48.597  22.575  1.00  0.00     0.102 C 
BRANCH  21  22
ATOM     22  N   UNL     1      25.171  48.795  21.177  1.00  0.00    -0.313 NA
ATOM     23  H   UNL     1      24.191  48.427  21.100  1.00  0.00     0.122 HD
BRANCH  22  24
ATOM     24  C   UNL     1      26.001  47.910  20.374  1.00  0.00     0.109 C 
BRANCH  24  25
ATOM     25  C   UNL     1      27.198  48.640  19.814  1.00  0.00     0.171 C 
BRANCH  25  26
ATOM     26  O   UNL     1      26.880  49.326  18.644  1.00  0.00    -0.395 OA
ATOM     27  H   UNL     1      26.098  48.864  18.232  1.00  0.00     0.210 HD
ENDBRANCH  25  26
ENDBRANCH  24  25
ENDBRANCH  22  24
ENDBRANCH  21  22
ENDBRANCH  20  21
ENDBRANCH  18  20
ENDBRANCH  16  18
BRANCH   8  28
ATOM     28  O   UNL     1      29.089  55.141  16.944  1.00  0.00    -0.507 OA
ATOM     29  H   UNL     1      29.208  56.058  17.377  1.00  0.00     0.293 HD
ENDBRANCH   8  28
BRANCH  13  30
ATOM     30  N   UNL     1      30.528  54.095  21.600  1.00  0.00    -0.379 N 
ATOM     31  H   UNL     1      31.000  54.344  20.744  1.00  0.00     0.160 HD
BRANCH  30  32
ATOM     32  C   UNL     1      31.207  54.577  22.821  1.00  0.00     0.174 C 
BRANCH  32  33
ATOM     33  C   UNL     1      32.654  54.248  22.835  1.00  0.00     0.281 C 
BRANCH  33  34
ATOM     34  N   UNL     1      33.119  53.527  21.691  1.00  0.00    -0.343 N 
ATOM     35  H   UNL     1      32.350  53.173  21.078  1.00  0.00     0.346 HD
ATOM     36  H   UNL     1      33.672  54.193  21.097  1.00  0.00     0.346 HD
BRANCH  34  37
ATOM     37  C   UNL     1      34.000  52.430  22.010  1.00  0.00     0.289 C 
BRANCH  37  38
ATOM     38  C   UNL     1      35.237  52.418  21.141  1.00  0.00     0.217 C 
BRANCH  38  39
ATOM     39  O   UNL     1      35.143  51.363  20.249  1.00  0.00    -0.391 OA
ATOM     40  H   UNL     1      36.051  51.240  19.847  1.00  0.00     0.210 HD
ENDBRANCH  38  39
ENDBRANCH  37  38
ENDBRANCH  34  37
ENDBRANCH  33  34
ENDBRANCH  32  33
ENDBRANCH  30  32
ENDBRANCH  13  30
TORSDOF 15
ENDMDL
