MODEL 1
REMARK VINA RESULT:      -7.5      0.000      0.000
REMARK SMILES CC1=[NH+]c2ccc(Cl)cc2S(=O)(=O)N1
REMARK SMILES IDX 1 1 2 2 3 3 4 4 5 5 6 6 7 7 8 8 9 9 10 10 11 11 12 12 13 13
REMARK SMILES IDX 14 14
REMARK H PARENT 3 15 14 16
ROOT
ATOM      1  C   UNL     1     -27.648   4.056  -9.028  1.00  0.00     0.146 C 
ATOM      2  C   UNL     1     -27.729   3.740  -7.553  1.00  0.00     0.259 C 
ATOM      3  N   UNL     1     -28.178   4.639  -6.788  1.00  0.00    -0.243 N 
ATOM      4  C   UNL     1     -28.325   4.519  -5.385  1.00  0.00     0.147 A 
ATOM      5  C   UNL     1     -28.839   5.601  -4.666  1.00  0.00     0.055 A 
ATOM      6  C   UNL     1     -29.008   5.555  -3.301  1.00  0.00     0.025 A 
ATOM      7  C   UNL     1     -28.675   4.434  -2.586  1.00  0.00     0.042 A 
ATOM      8  Cl  UNL     1     -28.887   4.377  -0.870  1.00  0.00    -0.084 Cl
ATOM      9  C   UNL     1     -28.169   3.369  -3.293  1.00  0.00     0.049 A 
ATOM     10  C   UNL     1     -27.998   3.405  -4.643  1.00  0.00     0.156 A 
ATOM     11  S   UNL     1     -27.348   2.019  -5.505  1.00  0.00     0.332 S 
ATOM     12  O   UNL     1     -28.156   0.783  -5.261  1.00  0.00    -0.179 OA
ATOM     13  O   UNL     1     -25.912   1.828  -5.052  1.00  0.00    -0.179 OA
ATOM     14  N   UNL     1     -27.291   2.461  -7.163  1.00  0.00    -0.166 N 
ATOM     15  H   UNL     1     -28.469   5.549  -7.220  1.00  0.00     0.312 HD
ATOM     16  H   UNL     1     -26.947   1.831  -7.905  1.00  0.00     0.327 HD
ENDROOT
TORSDOF 0
ENDMDL
MODEL 2
REMARK VINA RESULT:      -5.7      3.921      5.091
REMARK SMILES CC1=[NH+]c2ccc(Cl)cc2S(=O)(=O)N1
REMARK SMILES IDX 1 1 2 2 3 3 4 4 5 5 6 6 7 7 8 8 9 9 10 10 11 11 12 12 13 13
REMARK SMILES IDX 14 14
REMARK H PARENT 3 15 14 16
ROOT
ATOM      1  C   UNL     1     -31.427   1.094  -1.886  1.00  0.00     0.146 C 
ATOM      2  C   UNL     1     -30.685   2.076  -2.761  1.00  0.00     0.259 C 
ATOM      3  N   UNL     1     -29.809   1.612  -3.545  1.00  0.00    -0.243 N 
ATOM      4  C   UNL     1     -29.019   2.380  -4.434  1.00  0.00     0.147 A 
ATOM      5  C   UNL     1     -28.088   1.726  -5.245  1.00  0.00     0.055 A 
ATOM      6  C   UNL     1     -27.286   2.410  -6.131  1.00  0.00     0.025 A 
ATOM      7  C   UNL     1     -27.372   3.772  -6.255  1.00  0.00     0.042 A 
ATOM      8  Cl  UNL     1     -26.365   4.630  -7.368  1.00  0.00    -0.084 Cl
ATOM      9  C   UNL     1     -28.289   4.416  -5.457  1.00  0.00     0.049 A 
ATOM     10  C   UNL     1     -29.086   3.749  -4.577  1.00  0.00     0.156 A 
ATOM     11  S   UNL     1     -30.243   4.614  -3.578  1.00  0.00     0.332 S 
ATOM     12  O   UNL     1     -31.192   5.427  -4.402  1.00  0.00    -0.179 OA
ATOM     13  O   UNL     1     -29.459   5.495  -2.623  1.00  0.00    -0.179 OA
ATOM     14  N   UNL     1     -31.038   3.430  -2.622  1.00  0.00    -0.166 N 
ATOM     15  H   UNL     1     -29.650   0.575  -3.543  1.00  0.00     0.312 HD
ATOM     16  H   UNL     1     -31.776   3.659  -1.936  1.00  0.00     0.327 HD
ENDROOT
TORSDOF 0
ENDMDL
MODEL 3
REMARK VINA RESULT:      -5.3      4.047      5.419
REMARK SMILES CC1=[NH+]c2ccc(Cl)cc2S(=O)(=O)N1
REMARK SMILES IDX 1 1 2 2 3 3 4 4 5 5 6 6 7 7 8 8 9 9 10 10 11 11 12 12 13 13
REMARK SMILES IDX 14 14
REMARK H PARENT 3 15 14 16
ROOT
ATOM      1  C   UNL     1     -32.629   5.515  -0.133  1.00  0.00     0.146 C 
ATOM      2  C   UNL     1     -31.877   4.683  -1.144  1.00  0.00     0.259 C 
ATOM      3  N   UNL     1     -30.985   5.261  -1.827  1.00  0.00    -0.243 N 
ATOM      4  C   UNL     1     -30.184   4.641  -2.816  1.00  0.00     0.147 A 
ATOM      5  C   UNL     1     -29.234   5.410  -3.493  1.00  0.00     0.055 A 
ATOM      6  C   UNL     1     -28.422   4.874  -4.467  1.00  0.00     0.025 A 
ATOM      7  C   UNL     1     -28.513   3.551  -4.813  1.00  0.00     0.042 A 
ATOM      8  Cl  UNL     1     -27.492   2.878  -6.036  1.00  0.00    -0.084 Cl
ATOM      9  C   UNL     1     -29.449   2.794  -4.147  1.00  0.00     0.049 A 
ATOM     10  C   UNL     1     -30.257   3.315  -3.183  1.00  0.00     0.156 A 
ATOM     11  S   UNL     1     -31.437   2.309  -2.358  1.00  0.00     0.332 S 
ATOM     12  O   UNL     1     -30.800   1.120  -1.711  1.00  0.00    -0.179 OA
ATOM     13  O   UNL     1     -32.473   1.881  -3.383  1.00  0.00    -0.179 OA
ATOM     14  N   UNL     1     -32.241   3.327  -1.234  1.00  0.00    -0.166 N 
ATOM     15  H   UNL     1     -30.820   6.281  -1.652  1.00  0.00     0.312 HD
ATOM     16  H   UNL     1     -32.993   2.996  -0.608  1.00  0.00     0.327 HD
ENDROOT
TORSDOF 0
ENDMDL
MODEL 4
REMARK VINA RESULT:      -5.1      4.314      5.755
REMARK SMILES CC1=[NH+]c2ccc(Cl)cc2S(=O)(=O)N1
REMARK SMILES IDX 1 1 2 2 3 3 4 4 5 5 6 6 7 7 8 8 9 9 10 10 11 11 12 12 13 13
REMARK SMILES IDX 14 14
REMARK H PARENT 3 15 14 16
ROOT
ATOM      1  C   UNL     1     -32.449   1.997   1.125  1.00  0.00     0.146 C 
ATOM      2  C   UNL     1     -31.834   2.228  -0.235  1.00  0.00     0.259 C 
ATOM      3  N   UNL     1     -31.110   3.253  -0.381  1.00  0.00    -0.243 N 
ATOM      4  C   UNL     1     -30.456   3.627  -1.580  1.00  0.00     0.147 A 
ATOM      5  C   UNL     1     -29.684   4.792  -1.591  1.00  0.00     0.055 A 
ATOM      6  C   UNL     1     -29.022   5.216  -2.721  1.00  0.00     0.025 A 
ATOM      7  C   UNL     1     -29.093   4.505  -3.890  1.00  0.00     0.042 A 
ATOM      8  Cl  UNL     1     -28.261   5.039  -5.309  1.00  0.00    -0.084 Cl
ATOM      9  C   UNL     1     -29.853   3.359  -3.879  1.00  0.00     0.049 A 
ATOM     10  C   UNL     1     -30.512   2.931  -2.767  1.00  0.00     0.156 A 
ATOM     11  S   UNL     1     -31.470   1.459  -2.800  1.00  0.00     0.332 S 
ATOM     12  O   UNL     1     -30.662   0.278  -3.235  1.00  0.00    -0.179 OA
ATOM     13  O   UNL     1     -32.640   1.693  -3.739  1.00  0.00    -0.179 OA
ATOM     14  N   UNL     1     -32.127   1.273  -1.225  1.00  0.00    -0.166 N 
ATOM     15  H   UNL     1     -30.977   3.881   0.448  1.00  0.00     0.312 HD
ATOM     16  H   UNL     1     -32.739   0.485  -0.957  1.00  0.00     0.327 HD
ENDROOT
TORSDOF 0
ENDMDL
MODEL 5
REMARK VINA RESULT:      -5.1      2.685      3.434
REMARK SMILES CC1=[NH+]c2ccc(Cl)cc2S(=O)(=O)N1
REMARK SMILES IDX 1 1 2 2 3 3 4 4 5 5 6 6 7 7 8 8 9 9 10 10 11 11 12 12 13 13
REMARK SMILES IDX 14 14
REMARK H PARENT 3 15 14 16
ROOT
ATOM      1  C   UNL     1     -25.058   0.527  -5.068  1.00  0.00     0.146 C 
ATOM      2  C   UNL     1     -25.996   1.668  -5.386  1.00  0.00     0.259 C 
ATOM      3  N   UNL     1     -26.931   1.899  -4.568  1.00  0.00    -0.243 N 
ATOM      4  C   UNL     1     -27.899   2.923  -4.703  1.00  0.00     0.147 A 
ATOM      5  C   UNL     1     -28.877   3.060  -3.714  1.00  0.00     0.055 A 
ATOM      6  C   UNL     1     -29.850   4.031  -3.780  1.00  0.00     0.025 A 
ATOM      7  C   UNL     1     -29.897   4.912  -4.829  1.00  0.00     0.042 A 
ATOM      8  Cl  UNL     1     -31.120   6.133  -4.913  1.00  0.00    -0.084 Cl
ATOM      9  C   UNL     1     -28.936   4.777  -5.803  1.00  0.00     0.049 A 
ATOM     10  C   UNL     1     -27.970   3.819  -5.746  1.00  0.00     0.156 A 
ATOM     11  S   UNL     1     -26.760   3.685  -7.013  1.00  0.00     0.332 S 
ATOM     12  O   UNL     1     -26.009   4.965  -7.204  1.00  0.00    -0.179 OA
ATOM     13  O   UNL     1     -27.475   3.278  -8.290  1.00  0.00    -0.179 OA
ATOM     14  N   UNL     1     -25.742   2.374  -6.576  1.00  0.00    -0.166 N 
ATOM     15  H   UNL     1     -27.000   1.288  -3.718  1.00  0.00     0.312 HD
ATOM     16  H   UNL     1     -24.938   2.067  -7.146  1.00  0.00     0.327 HD
ENDROOT
TORSDOF 0
ENDMDL
MODEL 6
REMARK VINA RESULT:      -5.0      3.678      4.301
REMARK SMILES CC1=[NH+]c2ccc(Cl)cc2S(=O)(=O)N1
REMARK SMILES IDX 1 1 2 2 3 3 4 4 5 5 6 6 7 7 8 8 9 9 10 10 11 11 12 12 13 13
REMARK SMILES IDX 14 14
REMARK H PARENT 3 15 14 16
ROOT
ATOM      1  C   UNL     1     -26.672   2.366  -5.477  1.00  0.00     0.146 C 
ATOM      2  C   UNL     1     -27.926   2.830  -4.773  1.00  0.00     0.259 C 
ATOM      3  N   UNL     1     -28.740   1.944  -4.388  1.00  0.00    -0.243 N 
ATOM      4  C   UNL     1     -29.960   2.194  -3.715  1.00  0.00     0.147 A 
ATOM      5  C   UNL     1     -30.761   1.110  -3.348  1.00  0.00     0.055 A 
ATOM      6  C   UNL     1     -31.960   1.278  -2.693  1.00  0.00     0.025 A 
ATOM      7  C   UNL     1     -32.419   2.529  -2.370  1.00  0.00     0.042 A 
ATOM      8  Cl  UNL     1     -33.925   2.740  -1.547  1.00  0.00    -0.084 Cl
ATOM      9  C   UNL     1     -31.631   3.596  -2.732  1.00  0.00     0.049 A 
ATOM     10  C   UNL     1     -30.444   3.440  -3.381  1.00  0.00     0.156 A 
ATOM     11  S   UNL     1     -29.470   4.833  -3.822  1.00  0.00     0.332 S 
ATOM     12  O   UNL     1     -29.139   5.681  -2.633  1.00  0.00    -0.179 OA
ATOM     13  O   UNL     1     -30.246   5.628  -4.857  1.00  0.00    -0.179 OA
ATOM     14  N   UNL     1     -28.074   4.220  -4.610  1.00  0.00    -0.166 N 
ATOM     15  H   UNL     1     -28.498   0.942  -4.578  1.00  0.00     0.312 HD
ATOM     16  H   UNL     1     -27.321   4.823  -4.980  1.00  0.00     0.327 HD
ENDROOT
TORSDOF 0
ENDMDL
MODEL 7
REMARK VINA RESULT:      -5.0      4.603      5.439
REMARK SMILES CC1=[NH+]c2ccc(Cl)cc2S(=O)(=O)N1
REMARK SMILES IDX 1 1 2 2 3 3 4 4 5 5 6 6 7 7 8 8 9 9 10 10 11 11 12 12 13 13
REMARK SMILES IDX 14 14
REMARK H PARENT 3 15 14 16
ROOT
ATOM      1  C   UNL     1     -28.830   5.610  -4.564  1.00  0.00     0.146 C 
ATOM      2  C   UNL     1     -29.537   4.789  -3.511  1.00  0.00     0.259 C 
ATOM      3  N   UNL     1     -29.814   3.590  -3.795  1.00  0.00    -0.243 N 
ATOM      4  C   UNL     1     -30.471   2.678  -2.935  1.00  0.00     0.147 A 
ATOM      5  C   UNL     1     -30.711   1.378  -3.388  1.00  0.00     0.055 A 
ATOM      6  C   UNL     1     -31.345   0.439  -2.606  1.00  0.00     0.025 A 
ATOM      7  C   UNL     1     -31.770   0.746  -1.339  1.00  0.00     0.042 A 
ATOM      8  Cl  UNL     1     -32.568  -0.434  -0.357  1.00  0.00    -0.084 Cl
ATOM      9  C   UNL     1     -31.535   2.026  -0.894  1.00  0.00     0.049 A 
ATOM     10  C   UNL     1     -30.909   2.961  -1.660  1.00  0.00     0.156 A 
ATOM     11  S   UNL     1     -30.629   4.584  -1.048  1.00  0.00     0.332 S 
ATOM     12  O   UNL     1     -29.858   4.570   0.234  1.00  0.00    -0.179 OA
ATOM     13  O   UNL     1     -31.983   5.245  -0.861  1.00  0.00    -0.179 OA
ATOM     14  N   UNL     1     -29.826   5.442  -2.299  1.00  0.00    -0.166 N 
ATOM     15  H   UNL     1     -29.537   3.235  -4.742  1.00  0.00     0.312 HD
ATOM     16  H   UNL     1     -29.538   6.430  -2.213  1.00  0.00     0.327 HD
ENDROOT
TORSDOF 0
ENDMDL
MODEL 8
REMARK VINA RESULT:      -4.9      3.830      5.189
REMARK SMILES CC1=[NH+]c2ccc(Cl)cc2S(=O)(=O)N1
REMARK SMILES IDX 1 1 2 2 3 3 4 4 5 5 6 6 7 7 8 8 9 9 10 10 11 11 12 12 13 13
REMARK SMILES IDX 14 14
REMARK H PARENT 3 15 14 16
ROOT
ATOM      1  C   UNL     1     -28.576   4.786  -0.251  1.00  0.00     0.146 C 
ATOM      2  C   UNL     1     -28.596   4.709  -1.760  1.00  0.00     0.259 C 
ATOM      3  N   UNL     1     -27.780   3.921  -2.314  1.00  0.00    -0.243 N 
ATOM      4  C   UNL     1     -27.658   3.721  -3.711  1.00  0.00     0.147 A 
ATOM      5  C   UNL     1     -26.706   2.811  -4.180  1.00  0.00     0.055 A 
ATOM      6  C   UNL     1     -26.532   2.568  -5.523  1.00  0.00     0.025 A 
ATOM      7  C   UNL     1     -27.294   3.213  -6.463  1.00  0.00     0.042 A 
ATOM      8  Cl  UNL     1     -27.074   2.906  -8.151  1.00  0.00    -0.084 Cl
ATOM      9  C   UNL     1     -28.230   4.108  -6.001  1.00  0.00     0.049 A 
ATOM     10  C   UNL     1     -28.409   4.356  -4.674  1.00  0.00     0.156 A 
ATOM     11  S   UNL     1     -29.619   5.507  -4.130  1.00  0.00     0.332 S 
ATOM     12  O   UNL     1     -30.984   5.161  -4.636  1.00  0.00    -0.179 OA
ATOM     13  O   UNL     1     -29.194   6.883  -4.612  1.00  0.00    -0.179 OA
ATOM     14  N   UNL     1     -29.530   5.532  -2.416  1.00  0.00    -0.166 N 
ATOM     15  H   UNL     1     -27.139   3.367  -1.697  1.00  0.00     0.312 HD
ATOM     16  H   UNL     1     -30.134   6.127  -1.826  1.00  0.00     0.327 HD
ENDROOT
TORSDOF 0
ENDMDL
MODEL 9
REMARK VINA RESULT:      -4.8      4.019      5.026
REMARK SMILES CC1=[NH+]c2ccc(Cl)cc2S(=O)(=O)N1
REMARK SMILES IDX 1 1 2 2 3 3 4 4 5 5 6 6 7 7 8 8 9 9 10 10 11 11 12 12 13 13
REMARK SMILES IDX 14 14
REMARK H PARENT 3 15 14 16
ROOT
ATOM      1  C   UNL     1     -28.609   5.451  -4.988  1.00  0.00     0.146 C 
ATOM      2  C   UNL     1     -29.472   5.134  -3.790  1.00  0.00     0.259 C 
ATOM      3  N   UNL     1     -28.920   5.144  -2.655  1.00  0.00    -0.243 N 
ATOM      4  C   UNL     1     -29.571   4.872  -1.427  1.00  0.00     0.147 A 
ATOM      5  C   UNL     1     -28.828   4.922  -0.245  1.00  0.00     0.055 A 
ATOM      6  C   UNL     1     -29.395   4.668   0.984  1.00  0.00     0.025 A 
ATOM      7  C   UNL     1     -30.724   4.354   1.096  1.00  0.00     0.042 A 
ATOM      8  Cl  UNL     1     -31.436   4.035   2.640  1.00  0.00    -0.084 Cl
ATOM      9  C   UNL     1     -31.455   4.304  -0.067  1.00  0.00     0.049 A 
ATOM     10  C   UNL     1     -30.903   4.553  -1.287  1.00  0.00     0.156 A 
ATOM     11  S   UNL     1     -31.878   4.480  -2.747  1.00  0.00     0.332 S 
ATOM     12  O   UNL     1     -33.059   5.395  -2.675  1.00  0.00    -0.179 OA
ATOM     13  O   UNL     1     -32.317   3.038  -2.934  1.00  0.00    -0.179 OA
ATOM     14  N   UNL     1     -30.826   4.852  -4.051  1.00  0.00    -0.166 N 
ATOM     15  H   UNL     1     -27.897   5.373  -2.610  1.00  0.00     0.312 HD
ATOM     16  H   UNL     1     -31.134   4.881  -5.037  1.00  0.00     0.327 HD
ENDROOT
TORSDOF 0
ENDMDL
