MODEL 1
REMARK VINA RESULT:      -8.0      0.000      0.000
REMARK SMILES O=C1NCN(c2ccccc2)C12CC[NH+](CCCC(c1ccc(F)cc1)c1ccc(F)cc1)CC2
REMARK SMILES IDX 17 1 16 2 15 3 1 4 2 5 3 6 12 7 4 8 5 9 13 10 35 11 14 12
REMARK SMILES IDX 34 13 6 16 7 17 11 18 8 19 10 20 9 21 18 22 19 23 20 24
REMARK SMILES IDX 21 25 26 26 22 27 25 28 23 29 24 30 27 31 28 32 33 33 29 34
REMARK SMILES IDX 32 35 30 36 31 37
REMARK H PARENT 3 14 15 15
ROOT
ATOM      1  C   UNL     1     -35.925   5.816  -6.756  1.00  0.00     0.062 C 
ENDROOT
BRANCH   1   2
ATOM      2  C   UNL     1     -36.110   4.627  -5.861  1.00  0.00     0.262 C 
BRANCH   2   3
ATOM      3  N   UNL     1     -35.171   4.686  -4.746  1.00  0.00    -0.335 N 
ATOM      4  O   UNL     1     -34.553   5.831  -1.791  1.00  0.00    -0.272 OA
ATOM      5  C   UNL     1     -33.366   5.480  -1.954  1.00  0.00     0.247 C 
ATOM      6  N   UNL     1     -32.346   5.666  -1.004  1.00  0.00    -0.336 N 
ATOM      7  C   UNL     1     -32.815   4.800  -3.186  1.00  0.00     0.131 C 
ATOM      8  C   UNL     1     -31.306   4.750  -1.350  1.00  0.00     0.238 C 
ATOM      9  N   UNL     1     -31.413   4.626  -2.812  1.00  0.00    -0.339 N 
ATOM     10  C   UNL     1     -32.981   5.732  -4.370  1.00  0.00     0.100 C 
ATOM     11  C   UNL     1     -33.556   3.525  -3.369  1.00  0.00     0.100 C 
ATOM     12  C   UNL     1     -34.439   5.935  -4.710  1.00  0.00     0.265 C 
ATOM     13  C   UNL     1     -34.301   3.542  -4.664  1.00  0.00     0.265 C 
ATOM     14  H   UNL     1     -32.371   6.354  -0.203  1.00  0.00     0.165 HD
ATOM     15  H   UNL     1     -35.782   4.669  -3.900  1.00  0.00     0.348 HD
BRANCH   9  16
ATOM     16  C   UNL     1     -30.267   4.394  -3.614  1.00  0.00     0.039 A 
ATOM     17  C   UNL     1     -29.581   5.437  -4.190  1.00  0.00     0.026 A 
ATOM     18  C   UNL     1     -29.822   3.122  -3.803  1.00  0.00     0.026 A 
ATOM     19  C   UNL     1     -28.437   5.222  -4.965  1.00  0.00     0.002 A 
ATOM     20  C   UNL     1     -28.706   2.889  -4.558  1.00  0.00     0.002 A 
ATOM     21  C   UNL     1     -28.013   3.921  -5.137  1.00  0.00     0.000 A 
ENDBRANCH   9  16
ENDBRANCH   2   3
ENDBRANCH   1   2
BRANCH   1  22
ATOM     22  C   UNL     1     -35.040   5.650  -7.914  1.00  0.00     0.019 C 
BRANCH  22  23
ATOM     23  C   UNL     1     -33.983   6.597  -8.242  1.00  0.00     0.049 C 
BRANCH  23  24
ATOM     24  C   UNL     1     -33.351   6.424  -9.599  1.00  0.00    -0.040 A 
ATOM     25  C   UNL     1     -33.996   5.580 -10.476  1.00  0.00     0.007 A 
ATOM     26  C   UNL     1     -32.183   7.043  -9.953  1.00  0.00     0.007 A 
ATOM     27  C   UNL     1     -33.470   5.351 -11.723  1.00  0.00     0.039 A 
ATOM     28  C   UNL     1     -31.662   6.812 -11.198  1.00  0.00     0.039 A 
ATOM     29  C   UNL     1     -32.298   5.960 -12.109  1.00  0.00     0.123 A 
ATOM     30  F   UNL     1     -31.788   5.725 -13.345  1.00  0.00    -0.207 F 
ENDBRANCH  23  24
BRANCH  23  31
ATOM     31  C   UNL     1     -34.119   8.007  -7.916  1.00  0.00    -0.040 A 
ATOM     32  C   UNL     1     -33.373   8.714  -7.015  1.00  0.00     0.007 A 
ATOM     33  C   UNL     1     -35.138   8.684  -8.598  1.00  0.00     0.007 A 
ATOM     34  C   UNL     1     -33.660  10.069  -6.814  1.00  0.00     0.039 A 
ATOM     35  C   UNL     1     -35.424   9.998  -8.414  1.00  0.00     0.039 A 
ATOM     36  C   UNL     1     -34.667  10.698  -7.502  1.00  0.00     0.123 A 
ATOM     37  F   UNL     1     -34.965  12.013  -7.328  1.00  0.00    -0.207 F 
ENDBRANCH  23  31
ENDBRANCH  22  23
ENDBRANCH   1  22
TORSDOF 7
ENDMDL
MODEL 2
REMARK VINA RESULT:      -7.7      5.423      8.148
REMARK SMILES O=C1NCN(c2ccccc2)C12CC[NH+](CCCC(c1ccc(F)cc1)c1ccc(F)cc1)CC2
REMARK SMILES IDX 17 1 16 2 15 3 1 4 2 5 3 6 12 7 4 8 5 9 13 10 35 11 14 12
REMARK SMILES IDX 34 13 6 16 7 17 11 18 8 19 10 20 9 21 18 22 19 23 20 24
REMARK SMILES IDX 21 25 26 26 22 27 25 28 23 29 24 30 27 31 28 32 33 33 29 34
REMARK SMILES IDX 32 35 30 36 31 37
REMARK H PARENT 3 14 15 15
ROOT
ATOM      1  C   UNL     1     -29.672   5.414  -1.095  1.00  0.00     0.062 C 
ENDROOT
BRANCH   1   2
ATOM      2  C   UNL     1     -29.466   4.280  -0.134  1.00  0.00     0.262 C 
BRANCH   2   3
ATOM      3  N   UNL     1     -30.666   4.077   0.669  1.00  0.00    -0.335 N 
ATOM      4  O   UNL     1     -33.237   2.216   1.264  1.00  0.00    -0.272 OA
ATOM      5  C   UNL     1     -33.701   3.155   1.943  1.00  0.00     0.247 C 
ATOM      6  N   UNL     1     -34.942   3.118   2.604  1.00  0.00    -0.336 N 
ATOM      7  C   UNL     1     -33.024   4.486   2.176  1.00  0.00     0.131 C 
ATOM      8  C   UNL     1     -34.892   4.137   3.604  1.00  0.00     0.238 C 
ATOM      9  N   UNL     1     -34.003   5.158   3.029  1.00  0.00    -0.339 N 
ATOM     10  C   UNL     1     -32.852   5.183   0.842  1.00  0.00     0.100 C 
ATOM     11  C   UNL     1     -31.721   4.221   2.841  1.00  0.00     0.100 C 
ATOM     12  C   UNL     1     -31.872   4.446  -0.042  1.00  0.00     0.265 C 
ATOM     13  C   UNL     1     -30.596   4.682   1.974  1.00  0.00     0.265 C 
ATOM     14  H   UNL     1     -35.735   2.457   2.384  1.00  0.00     0.165 HD
ATOM     15  H   UNL     1     -30.704   3.044   0.811  1.00  0.00     0.348 HD
BRANCH   9  16
ATOM     16  C   UNL     1     -34.183   6.534   3.318  1.00  0.00     0.039 A 
ATOM     17  C   UNL     1     -33.234   7.242   4.017  1.00  0.00     0.026 A 
ATOM     18  C   UNL     1     -35.301   7.175   2.880  1.00  0.00     0.026 A 
ATOM     19  C   UNL     1     -33.392   8.605   4.289  1.00  0.00     0.002 A 
ATOM     20  C   UNL     1     -35.475   8.507   3.137  1.00  0.00     0.002 A 
ATOM     21  C   UNL     1     -34.536   9.223   3.832  1.00  0.00     0.000 A 
ENDBRANCH   9  16
ENDBRANCH   2   3
ENDBRANCH   1   2
BRANCH   1  22
ATOM     22  C   UNL     1     -28.934   5.360  -2.361  1.00  0.00     0.019 C 
BRANCH  22  23
ATOM     23  C   UNL     1     -29.443   4.681  -3.545  1.00  0.00     0.049 C 
BRANCH  23  24
ATOM     24  C   UNL     1     -28.400   4.178  -4.508  1.00  0.00    -0.040 A 
ATOM     25  C   UNL     1     -28.573   4.509  -5.833  1.00  0.00     0.007 A 
ATOM     26  C   UNL     1     -27.339   3.409  -4.111  1.00  0.00     0.007 A 
ATOM     27  C   UNL     1     -27.679   4.069  -6.776  1.00  0.00     0.039 A 
ATOM     28  C   UNL     1     -26.448   2.973  -5.055  1.00  0.00     0.039 A 
ATOM     29  C   UNL     1     -26.601   3.295  -6.408  1.00  0.00     0.123 A 
ATOM     30  F   UNL     1     -25.723   2.866  -7.350  1.00  0.00    -0.207 F 
ENDBRANCH  23  24
BRANCH  23  31
ATOM     31  C   UNL     1     -30.546   3.738  -3.445  1.00  0.00    -0.040 A 
ATOM     32  C   UNL     1     -30.452   2.388  -3.254  1.00  0.00     0.007 A 
ATOM     33  C   UNL     1     -31.825   4.295  -3.577  1.00  0.00     0.007 A 
ATOM     34  C   UNL     1     -31.628   1.629  -3.202  1.00  0.00     0.039 A 
ATOM     35  C   UNL     1     -32.971   3.570  -3.527  1.00  0.00     0.039 A 
ATOM     36  C   UNL     1     -32.863   2.212  -3.337  1.00  0.00     0.123 A 
ATOM     37  F   UNL     1     -34.020   1.498  -3.289  1.00  0.00    -0.207 F 
ENDBRANCH  23  31
ENDBRANCH  22  23
ENDBRANCH   1  22
TORSDOF 7
ENDMDL
MODEL 3
REMARK VINA RESULT:      -7.6      5.124      8.073
REMARK SMILES O=C1NCN(c2ccccc2)C12CC[NH+](CCCC(c1ccc(F)cc1)c1ccc(F)cc1)CC2
REMARK SMILES IDX 17 1 16 2 15 3 1 4 2 5 3 6 12 7 4 8 5 9 13 10 35 11 14 12
REMARK SMILES IDX 34 13 6 16 7 17 11 18 8 19 10 20 9 21 18 22 19 23 20 24
REMARK SMILES IDX 21 25 26 26 22 27 25 28 23 29 24 30 27 31 28 32 33 33 29 34
REMARK SMILES IDX 32 35 30 36 31 37
REMARK H PARENT 3 14 15 15
ROOT
ATOM      1  C   UNL     1     -29.481   5.323  -0.652  1.00  0.00     0.062 C 
ENDROOT
BRANCH   1   2
ATOM      2  C   UNL     1     -29.604   4.324   0.461  1.00  0.00     0.262 C 
BRANCH   2   3
ATOM      3  N   UNL     1     -30.986   4.254   0.922  1.00  0.00    -0.335 N 
ATOM      4  O   UNL     1     -33.841   2.764   0.687  1.00  0.00    -0.272 OA
ATOM      5  C   UNL     1     -34.339   3.719   1.319  1.00  0.00     0.247 C 
ATOM      6  N   UNL     1     -35.702   3.827   1.648  1.00  0.00    -0.336 N 
ATOM      7  C   UNL     1     -33.579   4.918   1.838  1.00  0.00     0.131 C 
ATOM      8  C   UNL     1     -35.779   4.765   2.724  1.00  0.00     0.238 C 
ATOM      9  N   UNL     1     -34.648   5.674   2.485  1.00  0.00    -0.339 N 
ATOM     10  C   UNL     1     -32.982   5.661   0.660  1.00  0.00     0.100 C 
ATOM     11  C   UNL     1     -32.535   4.421   2.773  1.00  0.00     0.100 C 
ATOM     12  C   UNL     1     -31.912   4.841  -0.023  1.00  0.00     0.265 C 
ATOM     13  C   UNL     1     -31.175   4.760   2.256  1.00  0.00     0.265 C 
ATOM     14  H   UNL     1     -36.491   3.307   1.178  1.00  0.00     0.165 HD
ATOM     15  H   UNL     1     -31.192   3.231   0.950  1.00  0.00     0.348 HD
BRANCH   9  16
ATOM     16  C   UNL     1     -34.717   7.042   2.853  1.00  0.00     0.039 A 
ATOM     17  C   UNL     1     -33.727   7.625   3.609  1.00  0.00     0.026 A 
ATOM     18  C   UNL     1     -35.767   7.801   2.435  1.00  0.00     0.026 A 
ATOM     19  C   UNL     1     -33.775   8.977   3.960  1.00  0.00     0.002 A 
ATOM     20  C   UNL     1     -35.833   9.126   2.768  1.00  0.00     0.002 A 
ATOM     21  C   UNL     1     -34.852   9.717   3.521  1.00  0.00     0.000 A 
ENDBRANCH   9  16
ENDBRANCH   2   3
ENDBRANCH   1   2
BRANCH   1  22
ATOM     22  C   UNL     1     -28.752   4.899  -1.853  1.00  0.00     0.019 C 
BRANCH  22  23
ATOM     23  C   UNL     1     -29.373   4.819  -3.167  1.00  0.00     0.049 C 
BRANCH  23  24
ATOM     24  C   UNL     1     -28.479   4.348  -4.284  1.00  0.00    -0.040 A 
ATOM     25  C   UNL     1     -27.479   3.465  -3.942  1.00  0.00     0.007 A 
ATOM     26  C   UNL     1     -28.618   4.782  -5.575  1.00  0.00     0.007 A 
ATOM     27  C   UNL     1     -26.607   3.007  -4.897  1.00  0.00     0.039 A 
ATOM     28  C   UNL     1     -27.747   4.322  -6.525  1.00  0.00     0.039 A 
ATOM     29  C   UNL     1     -26.722   3.424  -6.204  1.00  0.00     0.123 A 
ATOM     30  F   UNL     1     -25.854   2.965  -7.140  1.00  0.00    -0.207 F 
ENDBRANCH  23  24
BRANCH  23  31
ATOM     31  C   UNL     1     -30.716   4.284  -3.325  1.00  0.00    -0.040 A 
ATOM     32  C   UNL     1     -31.828   4.969  -3.725  1.00  0.00     0.007 A 
ATOM     33  C   UNL     1     -30.860   2.926  -3.011  1.00  0.00     0.007 A 
ATOM     34  C   UNL     1     -33.050   4.290  -3.802  1.00  0.00     0.039 A 
ATOM     35  C   UNL     1     -32.039   2.257  -3.083  1.00  0.00     0.039 A 
ATOM     36  C   UNL     1     -33.151   2.959  -3.486  1.00  0.00     0.123 A 
ATOM     37  F   UNL     1     -34.326   2.276  -3.553  1.00  0.00    -0.207 F 
ENDBRANCH  23  31
ENDBRANCH  22  23
ENDBRANCH   1  22
TORSDOF 7
ENDMDL
MODEL 4
REMARK VINA RESULT:      -7.6      2.181      2.888
REMARK SMILES O=C1NCN(c2ccccc2)C12CC[NH+](CCCC(c1ccc(F)cc1)c1ccc(F)cc1)CC2
REMARK SMILES IDX 17 1 16 2 15 3 1 4 2 5 3 6 12 7 4 8 5 9 13 10 35 11 14 12
REMARK SMILES IDX 34 13 6 16 7 17 11 18 8 19 10 20 9 21 18 22 19 23 20 24
REMARK SMILES IDX 21 25 26 26 22 27 25 28 23 29 24 30 27 31 28 32 33 33 29 34
REMARK SMILES IDX 32 35 30 36 31 37
REMARK H PARENT 3 14 15 15
ROOT
ATOM      1  C   UNL     1     -34.823   3.430  -5.050  1.00  0.00     0.062 C 
ENDROOT
BRANCH   1   2
ATOM      2  C   UNL     1     -34.856   3.632  -3.564  1.00  0.00     0.262 C 
BRANCH   2   3
ATOM      3  N   UNL     1     -33.503   3.812  -3.051  1.00  0.00    -0.335 N 
ATOM      4  O   UNL     1     -31.620   5.193  -0.821  1.00  0.00    -0.272 OA
ATOM      5  C   UNL     1     -30.637   4.883  -1.526  1.00  0.00     0.247 C 
ATOM      6  N   UNL     1     -29.302   5.181  -1.201  1.00  0.00    -0.336 N 
ATOM      7  C   UNL     1     -30.701   4.141  -2.841  1.00  0.00     0.131 C 
ATOM      8  C   UNL     1     -28.495   4.289  -1.971  1.00  0.00     0.238 C 
ATOM      9  N   UNL     1     -29.285   4.055  -3.189  1.00  0.00    -0.339 N 
ATOM     10  C   UNL     1     -31.486   4.976  -3.832  1.00  0.00     0.100 C 
ATOM     11  C   UNL     1     -31.344   2.824  -2.586  1.00  0.00     0.100 C 
ATOM     12  C   UNL     1     -32.938   5.091  -3.427  1.00  0.00     0.265 C 
ATOM     13  C   UNL     1     -32.621   2.716  -3.354  1.00  0.00     0.265 C 
ATOM     14  H   UNL     1     -28.987   5.923  -0.518  1.00  0.00     0.165 HD
ATOM     15  H   UNL     1     -33.626   3.830  -2.015  1.00  0.00     0.348 HD
BRANCH   9  16
ATOM     16  C   UNL     1     -28.655   3.816  -4.437  1.00  0.00     0.039 A 
ATOM     17  C   UNL     1     -28.329   4.854  -5.278  1.00  0.00     0.026 A 
ATOM     18  C   UNL     1     -28.346   2.542  -4.804  1.00  0.00     0.026 A 
ATOM     19  C   UNL     1     -27.689   4.631  -6.501  1.00  0.00     0.002 A 
ATOM     20  C   UNL     1     -27.721   2.302  -5.996  1.00  0.00     0.002 A 
ATOM     21  C   UNL     1     -27.391   3.329  -6.842  1.00  0.00     0.000 A 
ENDBRANCH   9  16
ENDBRANCH   2   3
ENDBRANCH   1   2
BRANCH   1  22
ATOM     22  C   UNL     1     -35.532   4.416  -5.875  1.00  0.00     0.019 C 
BRANCH  22  23
ATOM     23  C   UNL     1     -34.888   5.150  -6.956  1.00  0.00     0.049 C 
BRANCH  23  24
ATOM     24  C   UNL     1     -35.476   4.937  -8.327  1.00  0.00    -0.040 A 
ATOM     25  C   UNL     1     -36.636   5.621  -8.613  1.00  0.00     0.007 A 
ATOM     26  C   UNL     1     -34.915   4.093  -9.247  1.00  0.00     0.007 A 
ATOM     27  C   UNL     1     -37.246   5.463  -9.832  1.00  0.00     0.039 A 
ATOM     28  C   UNL     1     -35.527   3.938 -10.462  1.00  0.00     0.039 A 
ATOM     29  C   UNL     1     -36.707   4.622 -10.779  1.00  0.00     0.123 A 
ATOM     30  F   UNL     1     -37.319   4.473 -11.981  1.00  0.00    -0.207 F 
ENDBRANCH  23  24
BRANCH  23  31
ATOM     31  C   UNL     1     -34.486   6.535  -6.779  1.00  0.00    -0.040 A 
ATOM     32  C   UNL     1     -34.904   7.389  -5.797  1.00  0.00     0.007 A 
ATOM     33  C   UNL     1     -33.589   7.026  -7.737  1.00  0.00     0.007 A 
ATOM     34  C   UNL     1     -34.423   8.704  -5.794  1.00  0.00     0.039 A 
ATOM     35  C   UNL     1     -33.115   8.298  -7.743  1.00  0.00     0.039 A 
ATOM     36  C   UNL     1     -33.545   9.148  -6.751  1.00  0.00     0.123 A 
ATOM     37  F   UNL     1     -33.061  10.419  -6.769  1.00  0.00    -0.207 F 
ENDBRANCH  23  31
ENDBRANCH  22  23
ENDBRANCH   1  22
TORSDOF 7
ENDMDL
MODEL 5
REMARK VINA RESULT:      -7.6      5.583      8.300
REMARK SMILES O=C1NCN(c2ccccc2)C12CC[NH+](CCCC(c1ccc(F)cc1)c1ccc(F)cc1)CC2
REMARK SMILES IDX 17 1 16 2 15 3 1 4 2 5 3 6 12 7 4 8 5 9 13 10 35 11 14 12
REMARK SMILES IDX 34 13 6 16 7 17 11 18 8 19 10 20 9 21 18 22 19 23 20 24
REMARK SMILES IDX 21 25 26 26 22 27 25 28 23 29 24 30 27 31 28 32 33 33 29 34
REMARK SMILES IDX 32 35 30 36 31 37
REMARK H PARENT 3 14 15 15
ROOT
ATOM      1  C   UNL     1     -28.546   4.468  -1.247  1.00  0.00     0.062 C 
ENDROOT
BRANCH   1   2
ATOM      2  C   UNL     1     -29.048   5.040   0.046  1.00  0.00     0.262 C 
BRANCH   2   3
ATOM      3  N   UNL     1     -30.150   4.233   0.558  1.00  0.00    -0.335 N 
ATOM      4  O   UNL     1     -32.073   1.680   0.097  1.00  0.00    -0.272 OA
ATOM      5  C   UNL     1     -32.804   2.125   1.005  1.00  0.00     0.247 C 
ATOM      6  N   UNL     1     -33.991   1.510   1.440  1.00  0.00    -0.336 N 
ATOM      7  C   UNL     1     -32.552   3.391   1.792  1.00  0.00     0.131 C 
ATOM      8  C   UNL     1     -34.261   2.038   2.741  1.00  0.00     0.238 C 
ATOM      9  N   UNL     1     -33.700   3.397   2.696  1.00  0.00    -0.339 N 
ATOM     10  C   UNL     1     -32.568   4.567   0.837  1.00  0.00     0.100 C 
ATOM     11  C   UNL     1     -31.241   3.244   2.478  1.00  0.00     0.100 C 
ATOM     12  C   UNL     1     -31.399   4.516  -0.119  1.00  0.00     0.265 C 
ATOM     13  C   UNL     1     -30.284   4.283   1.991  1.00  0.00     0.265 C 
ATOM     14  H   UNL     1     -34.552   0.801   0.894  1.00  0.00     0.165 HD
ATOM     15  H   UNL     1     -29.886   3.256   0.308  1.00  0.00     0.348 HD
BRANCH   9  16
ATOM     16  C   UNL     1     -34.281   4.455   3.441  1.00  0.00     0.039 A 
ATOM     17  C   UNL     1     -33.624   5.013   4.512  1.00  0.00     0.026 A 
ATOM     18  C   UNL     1     -35.500   4.943   3.082  1.00  0.00     0.026 A 
ATOM     19  C   UNL     1     -34.178   6.070   5.240  1.00  0.00     0.002 A 
ATOM     20  C   UNL     1     -36.060   5.976   3.781  1.00  0.00     0.002 A 
ATOM     21  C   UNL     1     -35.414   6.541   4.850  1.00  0.00     0.000 A 
ENDBRANCH   9  16
ENDBRANCH   2   3
ENDBRANCH   1   2
BRANCH   1  22
ATOM     22  C   UNL     1     -28.915   5.175  -2.478  1.00  0.00     0.019 C 
BRANCH  22  23
ATOM     23  C   UNL     1     -29.455   4.495  -3.647  1.00  0.00     0.049 C 
BRANCH  23  24
ATOM     24  C   UNL     1     -28.445   4.085  -4.687  1.00  0.00    -0.040 A 
ATOM     25  C   UNL     1     -27.374   3.340  -4.246  1.00  0.00     0.007 A 
ATOM     26  C   UNL     1     -28.553   4.444  -6.004  1.00  0.00     0.007 A 
ATOM     27  C   UNL     1     -26.398   2.948  -5.128  1.00  0.00     0.039 A 
ATOM     28  C   UNL     1     -27.578   4.051  -6.880  1.00  0.00     0.039 A 
ATOM     29  C   UNL     1     -26.479   3.293  -6.458  1.00  0.00     0.123 A 
ATOM     30  F   UNL     1     -25.508   2.900  -7.320  1.00  0.00    -0.207 F 
ENDBRANCH  23  24
BRANCH  23  31
ATOM     31  C   UNL     1     -30.488   3.482  -3.508  1.00  0.00    -0.040 A 
ATOM     32  C   UNL     1     -30.307   2.128  -3.475  1.00  0.00     0.007 A 
ATOM     33  C   UNL     1     -31.798   3.971  -3.416  1.00  0.00     0.007 A 
ATOM     34  C   UNL     1     -31.428   1.298  -3.355  1.00  0.00     0.039 A 
ATOM     35  C   UNL     1     -32.893   3.176  -3.298  1.00  0.00     0.039 A 
ATOM     36  C   UNL     1     -32.696   1.815  -3.267  1.00  0.00     0.123 A 
ATOM     37  F   UNL     1     -33.801   1.031  -3.148  1.00  0.00    -0.207 F 
ENDBRANCH  23  31
ENDBRANCH  22  23
ENDBRANCH   1  22
TORSDOF 7
ENDMDL
MODEL 6
REMARK VINA RESULT:      -7.5      2.221      4.441
REMARK SMILES O=C1NCN(c2ccccc2)C12CC[NH+](CCCC(c1ccc(F)cc1)c1ccc(F)cc1)CC2
REMARK SMILES IDX 17 1 16 2 15 3 1 4 2 5 3 6 12 7 4 8 5 9 13 10 35 11 14 12
REMARK SMILES IDX 34 13 6 16 7 17 11 18 8 19 10 20 9 21 18 22 19 23 20 24
REMARK SMILES IDX 21 25 26 26 22 27 25 28 23 29 24 30 27 31 28 32 33 33 29 34
REMARK SMILES IDX 32 35 30 36 31 37
REMARK H PARENT 3 14 15 15
ROOT
ATOM      1  C   UNL     1     -35.206   4.587  -4.389  1.00  0.00     0.062 C 
ENDROOT
BRANCH   1   2
ATOM      2  C   UNL     1     -34.832   3.482  -3.446  1.00  0.00     0.262 C 
BRANCH   2   3
ATOM      3  N   UNL     1     -33.482   3.691  -2.936  1.00  0.00    -0.335 N 
ATOM      4  O   UNL     1     -31.625   5.095  -0.697  1.00  0.00    -0.272 OA
ATOM      5  C   UNL     1     -30.638   4.820  -1.410  1.00  0.00     0.247 C 
ATOM      6  N   UNL     1     -29.310   5.149  -1.087  1.00  0.00    -0.336 N 
ATOM      7  C   UNL     1     -30.689   4.092  -2.734  1.00  0.00     0.131 C 
ATOM      8  C   UNL     1     -28.483   4.288  -1.871  1.00  0.00     0.238 C 
ATOM      9  N   UNL     1     -29.272   4.048  -3.089  1.00  0.00    -0.339 N 
ATOM     10  C   UNL     1     -31.500   4.918  -3.711  1.00  0.00     0.100 C 
ATOM     11  C   UNL     1     -31.295   2.756  -2.493  1.00  0.00     0.100 C 
ATOM     12  C   UNL     1     -32.952   4.989  -3.299  1.00  0.00     0.265 C 
ATOM     13  C   UNL     1     -32.572   2.623  -3.257  1.00  0.00     0.265 C 
ATOM     14  H   UNL     1     -29.012   5.890  -0.397  1.00  0.00     0.165 HD
ATOM     15  H   UNL     1     -33.600   3.693  -1.900  1.00  0.00     0.348 HD
BRANCH   9  16
ATOM     16  C   UNL     1     -28.642   3.841  -4.342  1.00  0.00     0.039 A 
ATOM     17  C   UNL     1     -28.371   2.573  -4.799  1.00  0.00     0.026 A 
ATOM     18  C   UNL     1     -28.317   4.910  -5.119  1.00  0.00     0.026 A 
ATOM     19  C   UNL     1     -27.768   2.357  -6.042  1.00  0.00     0.002 A 
ATOM     20  C   UNL     1     -27.727   4.721  -6.338  1.00  0.00     0.002 A 
ATOM     21  C   UNL     1     -27.452   3.461  -6.804  1.00  0.00     0.000 A 
ENDBRANCH   9  16
ENDBRANCH   2   3
ENDBRANCH   1   2
BRANCH   1  22
ATOM     22  C   UNL     1     -35.120   4.298  -5.825  1.00  0.00     0.019 C 
BRANCH  22  23
ATOM     23  C   UNL     1     -35.523   5.253  -6.848  1.00  0.00     0.049 C 
BRANCH  23  24
ATOM     24  C   UNL     1     -34.877   6.611  -6.762  1.00  0.00    -0.040 A 
ATOM     25  C   UNL     1     -35.685   7.655  -6.371  1.00  0.00     0.007 A 
ATOM     26  C   UNL     1     -33.561   6.824  -7.075  1.00  0.00     0.007 A 
ATOM     27  C   UNL     1     -35.178   8.928  -6.291  1.00  0.00     0.039 A 
ATOM     28  C   UNL     1     -33.058   8.095  -6.994  1.00  0.00     0.039 A 
ATOM     29  C   UNL     1     -33.859   9.173  -6.599  1.00  0.00     0.123 A 
ATOM     30  F   UNL     1     -33.368  10.436  -6.516  1.00  0.00    -0.207 F 
ENDBRANCH  23  24
BRANCH  23  31
ATOM     31  C   UNL     1     -35.668   4.842  -8.235  1.00  0.00    -0.040 A 
ATOM     32  C   UNL     1     -36.368   5.492  -9.212  1.00  0.00     0.007 A 
ATOM     33  C   UNL     1     -35.028   3.643  -8.575  1.00  0.00     0.007 A 
ATOM     34  C   UNL     1     -36.416   4.935 -10.496  1.00  0.00     0.039 A 
ATOM     35  C   UNL     1     -35.065   3.094  -9.816  1.00  0.00     0.039 A 
ATOM     36  C   UNL     1     -35.775   3.758 -10.790  1.00  0.00     0.123 A 
ATOM     37  F   UNL     1     -35.803   3.196 -12.028  1.00  0.00    -0.207 F 
ENDBRANCH  23  31
ENDBRANCH  22  23
ENDBRANCH   1  22
TORSDOF 7
ENDMDL
MODEL 7
REMARK VINA RESULT:      -7.5      5.581      8.351
REMARK SMILES O=C1NCN(c2ccccc2)C12CC[NH+](CCCC(c1ccc(F)cc1)c1ccc(F)cc1)CC2
REMARK SMILES IDX 17 1 16 2 15 3 1 4 2 5 3 6 12 7 4 8 5 9 13 10 35 11 14 12
REMARK SMILES IDX 34 13 6 16 7 17 11 18 8 19 10 20 9 21 18 22 19 23 20 24
REMARK SMILES IDX 21 25 26 26 22 27 25 28 23 29 24 30 27 31 28 32 33 33 29 34
REMARK SMILES IDX 32 35 30 36 31 37
REMARK H PARENT 3 14 15 15
ROOT
ATOM      1  C   UNL     1     -28.641   4.460  -1.084  1.00  0.00     0.062 C 
ENDROOT
BRANCH   1   2
ATOM      2  C   UNL     1     -29.196   5.054   0.176  1.00  0.00     0.262 C 
BRANCH   2   3
ATOM      3  N   UNL     1     -30.304   4.243   0.669  1.00  0.00    -0.335 N 
ATOM      4  O   UNL     1     -32.310   1.777   0.099  1.00  0.00    -0.272 OA
ATOM      5  C   UNL     1     -33.001   2.178   1.059  1.00  0.00     0.247 C 
ATOM      6  N   UNL     1     -34.190   1.565   1.490  1.00  0.00    -0.336 N 
ATOM      7  C   UNL     1     -32.689   3.379   1.921  1.00  0.00     0.131 C 
ATOM      8  C   UNL     1     -34.404   2.009   2.831  1.00  0.00     0.238 C 
ATOM      9  N   UNL     1     -33.807   3.353   2.861  1.00  0.00    -0.339 N 
ATOM     10  C   UNL     1     -32.701   4.619   1.050  1.00  0.00     0.100 C 
ATOM     11  C   UNL     1     -31.361   3.151   2.551  1.00  0.00     0.100 C 
ATOM     12  C   UNL     1     -31.565   4.603   0.054  1.00  0.00     0.265 C 
ATOM     13  C   UNL     1     -30.392   4.197   2.105  1.00  0.00     0.265 C 
ATOM     14  H   UNL     1     -34.787   0.910   0.916  1.00  0.00     0.165 HD
ATOM     15  H   UNL     1     -30.075   3.278   0.344  1.00  0.00     0.348 HD
BRANCH   9  16
ATOM     16  C   UNL     1     -34.335   4.371   3.695  1.00  0.00     0.039 A 
ATOM     17  C   UNL     1     -35.449   5.086   3.323  1.00  0.00     0.026 A 
ATOM     18  C   UNL     1     -33.746   4.635   4.893  1.00  0.00     0.026 A 
ATOM     19  C   UNL     1     -35.990   6.078   4.146  1.00  0.00     0.002 A 
ATOM     20  C   UNL     1     -34.259   5.602   5.713  1.00  0.00     0.002 A 
ATOM     21  C   UNL     1     -35.370   6.320   5.353  1.00  0.00     0.000 A 
ENDBRANCH   9  16
ENDBRANCH   2   3
ENDBRANCH   1   2
BRANCH   1  22
ATOM     22  C   UNL     1     -28.894   5.187  -2.333  1.00  0.00     0.019 C 
BRANCH  22  23
ATOM     23  C   UNL     1     -29.396   4.538  -3.537  1.00  0.00     0.049 C 
BRANCH  23  24
ATOM     24  C   UNL     1     -28.354   4.165  -4.559  1.00  0.00    -0.040 A 
ATOM     25  C   UNL     1     -28.561   4.616  -5.844  1.00  0.00     0.007 A 
ATOM     26  C   UNL     1     -27.263   3.397  -4.254  1.00  0.00     0.007 A 
ATOM     27  C   UNL     1     -27.670   4.298  -6.837  1.00  0.00     0.039 A 
ATOM     28  C   UNL     1     -26.376   3.082  -5.248  1.00  0.00     0.039 A 
ATOM     29  C   UNL     1     -26.563   3.528  -6.562  1.00  0.00     0.123 A 
ATOM     30  F   UNL     1     -25.689   3.220  -7.553  1.00  0.00    -0.207 F 
ENDBRANCH  23  24
BRANCH  23  31
ATOM     31  C   UNL     1     -30.426   3.515  -3.457  1.00  0.00    -0.040 A 
ATOM     32  C   UNL     1     -30.239   2.162  -3.496  1.00  0.00     0.007 A 
ATOM     33  C   UNL     1     -31.738   3.993  -3.343  1.00  0.00     0.007 A 
ATOM     34  C   UNL     1     -31.357   1.322  -3.425  1.00  0.00     0.039 A 
ATOM     35  C   UNL     1     -32.829   3.189  -3.272  1.00  0.00     0.039 A 
ATOM     36  C   UNL     1     -32.627   1.828  -3.315  1.00  0.00     0.123 A 
ATOM     37  F   UNL     1     -33.729   1.035  -3.242  1.00  0.00    -0.207 F 
ENDBRANCH  23  31
ENDBRANCH  22  23
ENDBRANCH   1  22
TORSDOF 7
ENDMDL
MODEL 8
REMARK VINA RESULT:      -7.4      3.284      7.611
REMARK SMILES O=C1NCN(c2ccccc2)C12CC[NH+](CCCC(c1ccc(F)cc1)c1ccc(F)cc1)CC2
REMARK SMILES IDX 17 1 16 2 15 3 1 4 2 5 3 6 12 7 4 8 5 9 13 10 35 11 14 12
REMARK SMILES IDX 34 13 6 16 7 17 11 18 8 19 10 20 9 21 18 22 19 23 20 24
REMARK SMILES IDX 21 25 26 26 22 27 25 28 23 29 24 30 27 31 28 32 33 33 29 34
REMARK SMILES IDX 32 35 30 36 31 37
REMARK H PARENT 3 14 15 15
ROOT
ATOM      1  C   UNL     1     -32.354   5.218  -3.815  1.00  0.00     0.062 C 
ENDROOT
BRANCH   1   2
ATOM      2  C   UNL     1     -33.852   5.288  -3.769  1.00  0.00     0.262 C 
BRANCH   2   3
ATOM      3  N   UNL     1     -34.355   6.055  -4.903  1.00  0.00    -0.335 N 
ATOM      4  O   UNL     1     -36.866   7.596  -6.224  1.00  0.00    -0.272 OA
ATOM      5  C   UNL     1     -36.234   7.607  -7.300  1.00  0.00     0.247 C 
ATOM      6  N   UNL     1     -36.718   8.161  -8.499  1.00  0.00    -0.336 N 
ATOM      7  C   UNL     1     -34.850   7.036  -7.510  1.00  0.00     0.131 C 
ATOM      8  C   UNL     1     -35.573   8.392  -9.322  1.00  0.00     0.238 C 
ATOM      9  N   UNL     1     -34.627   7.340  -8.921  1.00  0.00    -0.339 N 
ATOM     10  C   UNL     1     -34.896   5.545  -7.244  1.00  0.00     0.100 C 
ATOM     11  C   UNL     1     -33.924   7.741  -6.584  1.00  0.00     0.100 C 
ATOM     12  C   UNL     1     -35.175   5.253  -5.788  1.00  0.00     0.265 C 
ATOM     13  C   UNL     1     -33.330   6.773  -5.613  1.00  0.00     0.265 C 
ATOM     14  H   UNL     1     -37.732   8.356  -8.720  1.00  0.00     0.165 HD
ATOM     15  H   UNL     1     -34.985   6.765  -4.470  1.00  0.00     0.348 HD
BRANCH   9  16
ATOM     16  C   UNL     1     -33.713   6.782  -9.851  1.00  0.00     0.039 A 
ATOM     17  C   UNL     1     -32.380   7.118  -9.824  1.00  0.00     0.026 A 
ATOM     18  C   UNL     1     -34.153   5.884 -10.774  1.00  0.00     0.026 A 
ATOM     19  C   UNL     1     -31.466   6.559 -10.723  1.00  0.00     0.002 A 
ATOM     20  C   UNL     1     -33.276   5.326 -11.662  1.00  0.00     0.002 A 
ATOM     21  C   UNL     1     -31.945   5.653 -11.645  1.00  0.00     0.000 A 
ENDBRANCH   9  16
ENDBRANCH   2   3
ENDBRANCH   1   2
BRANCH   1  22
ATOM     22  C   UNL     1     -31.750   3.883  -3.891  1.00  0.00     0.019 C 
BRANCH  22  23
ATOM     23  C   UNL     1     -30.410   3.594  -3.399  1.00  0.00     0.049 C 
BRANCH  23  24
ATOM     24  C   UNL     1     -29.296   3.784  -4.395  1.00  0.00    -0.040 A 
ATOM     25  C   UNL     1     -28.528   2.677  -4.680  1.00  0.00     0.007 A 
ATOM     26  C   UNL     1     -29.026   4.993  -4.979  1.00  0.00     0.007 A 
ATOM     27  C   UNL     1     -27.478   2.775  -5.559  1.00  0.00     0.039 A 
ATOM     28  C   UNL     1     -27.979   5.086  -5.855  1.00  0.00     0.039 A 
ATOM     29  C   UNL     1     -27.183   3.976  -6.163  1.00  0.00     0.123 A 
ATOM     30  F   UNL     1     -26.142   4.060  -7.030  1.00  0.00    -0.207 F 
ENDBRANCH  23  24
BRANCH  23  31
ATOM     31  C   UNL     1     -29.994   4.025  -2.075  1.00  0.00    -0.040 A 
ATOM     32  C   UNL     1     -28.812   4.625  -1.744  1.00  0.00     0.007 A 
ATOM     33  C   UNL     1     -30.911   3.772  -1.046  1.00  0.00     0.007 A 
ATOM     34  C   UNL     1     -28.572   4.956  -0.405  1.00  0.00     0.039 A 
ATOM     35  C   UNL     1     -30.690   4.089   0.255  1.00  0.00     0.039 A 
ATOM     36  C   UNL     1     -29.496   4.691   0.575  1.00  0.00     0.123 A 
ATOM     37  F   UNL     1     -29.288   5.004   1.882  1.00  0.00    -0.207 F 
ENDBRANCH  23  31
ENDBRANCH  22  23
ENDBRANCH   1  22
TORSDOF 7
ENDMDL
MODEL 9
REMARK VINA RESULT:      -7.4      5.202      7.563
REMARK SMILES O=C1NCN(c2ccccc2)C12CC[NH+](CCCC(c1ccc(F)cc1)c1ccc(F)cc1)CC2
REMARK SMILES IDX 17 1 16 2 15 3 1 4 2 5 3 6 12 7 4 8 5 9 13 10 35 11 14 12
REMARK SMILES IDX 34 13 6 16 7 17 11 18 8 19 10 20 9 21 18 22 19 23 20 24
REMARK SMILES IDX 21 25 26 26 22 27 25 28 23 29 24 30 27 31 28 32 33 33 29 34
REMARK SMILES IDX 32 35 30 36 31 37
REMARK H PARENT 3 14 15 15
ROOT
ATOM      1  C   UNL     1     -29.548   5.356  -0.821  1.00  0.00     0.062 C 
ENDROOT
BRANCH   1   2
ATOM      2  C   UNL     1     -29.817   4.348   0.257  1.00  0.00     0.262 C 
BRANCH   2   3
ATOM      3  N   UNL     1     -31.229   4.366   0.621  1.00  0.00    -0.335 N 
ATOM      4  O   UNL     1     -33.430   3.892   2.936  1.00  0.00    -0.272 OA
ATOM      5  C   UNL     1     -34.305   3.922   2.046  1.00  0.00     0.247 C 
ATOM      6  N   UNL     1     -35.682   3.761   2.281  1.00  0.00    -0.336 N 
ATOM      7  C   UNL     1     -34.048   4.133   0.571  1.00  0.00     0.131 C 
ATOM      8  C   UNL     1     -36.348   4.310   1.143  1.00  0.00     0.238 C 
ATOM      9  N   UNL     1     -35.406   4.084   0.036  1.00  0.00    -0.339 N 
ATOM     10  C   UNL     1     -33.188   2.995   0.060  1.00  0.00     0.100 C 
ATOM     11  C   UNL     1     -33.381   5.453   0.413  1.00  0.00     0.100 C 
ATOM     12  C   UNL     1     -31.803   3.038   0.663  1.00  0.00     0.265 C 
ATOM     13  C   UNL     1     -32.017   5.275  -0.170  1.00  0.00     0.265 C 
ATOM     14  H   UNL     1     -36.111   3.320   3.139  1.00  0.00     0.165 HD
ATOM     15  H   UNL     1     -31.234   4.728   1.599  1.00  0.00     0.348 HD
BRANCH   9  16
ATOM     16  C   UNL     1     -35.869   3.851  -1.284  1.00  0.00     0.039 A 
ATOM     17  C   UNL     1     -36.254   2.595  -1.690  1.00  0.00     0.026 A 
ATOM     18  C   UNL     1     -35.957   4.887  -2.162  1.00  0.00     0.026 A 
ATOM     19  C   UNL     1     -36.731   2.357  -2.982  1.00  0.00     0.002 A 
ATOM     20  C   UNL     1     -36.421   4.677  -3.431  1.00  0.00     0.002 A 
ATOM     21  C   UNL     1     -36.807   3.429  -3.846  1.00  0.00     0.000 A 
ENDBRANCH   9  16
ENDBRANCH   2   3
ENDBRANCH   1   2
BRANCH   1  22
ATOM     22  C   UNL     1     -28.795   4.897  -1.993  1.00  0.00     0.019 C 
BRANCH  22  23
ATOM     23  C   UNL     1     -29.427   4.599  -3.271  1.00  0.00     0.049 C 
BRANCH  23  24
ATOM     24  C   UNL     1     -28.489   4.239  -4.394  1.00  0.00    -0.040 A 
ATOM     25  C   UNL     1     -27.436   3.411  -4.076  1.00  0.00     0.007 A 
ATOM     26  C   UNL     1     -28.642   4.720  -5.667  1.00  0.00     0.007 A 
ATOM     27  C   UNL     1     -26.524   3.056  -5.038  1.00  0.00     0.039 A 
ATOM     28  C   UNL     1     -27.731   4.364  -6.623  1.00  0.00     0.039 A 
ATOM     29  C   UNL     1     -26.652   3.523  -6.327  1.00  0.00     0.123 A 
ATOM     30  F   UNL     1     -25.743   3.165  -7.270  1.00  0.00    -0.207 F 
ENDBRANCH  23  24
BRANCH  23  31
ATOM     31  C   UNL     1     -30.635   3.794  -3.334  1.00  0.00    -0.040 A 
ATOM     32  C   UNL     1     -31.910   4.245  -3.535  1.00  0.00     0.007 A 
ATOM     33  C   UNL     1     -30.449   2.417  -3.151  1.00  0.00     0.007 A 
ATOM     34  C   UNL     1     -32.961   3.321  -3.546  1.00  0.00     0.039 A 
ATOM     35  C   UNL     1     -31.460   1.511  -3.161  1.00  0.00     0.039 A 
ATOM     36  C   UNL     1     -32.738   1.980  -3.363  1.00  0.00     0.123 A 
ATOM     37  F   UNL     1     -33.741   1.061  -3.371  1.00  0.00    -0.207 F 
ENDBRANCH  23  31
ENDBRANCH  22  23
ENDBRANCH   1  22
TORSDOF 7
ENDMDL
