MODEL 1
REMARK VINA RESULT:      -6.8      0.000      0.000
REMARK SMILES Clc1ccccc1C(c1ccccc1)(c1ccccc1)n1ccnc1
REMARK SMILES IDX 1 1 2 2 3 3 4 4 5 5 6 6 7 7 8 8 9 9 10 10 14 11 11 12 13 13
REMARK SMILES IDX 12 14 15 15 16 16 20 17 17 18 19 19 18 20 21 21 22 22 25 23
REMARK SMILES IDX 23 24 24 25
REMARK H PARENT
ROOT
ATOM      1  Cl  UNL     1     -32.651   3.168  -0.150  1.00  0.00    -0.084 Cl
ATOM      2  C   UNL     1     -31.080   3.928  -0.033  1.00  0.00     0.047 A 
ATOM      3  C   UNL     1     -30.522   4.246   1.184  1.00  0.00     0.021 A 
ATOM      4  C   UNL     1     -29.270   4.816   1.282  1.00  0.00     0.002 A 
ATOM      5  C   UNL     1     -28.583   5.063   0.119  1.00  0.00     0.001 A 
ATOM      6  C   UNL     1     -29.152   4.739  -1.119  1.00  0.00     0.008 A 
ATOM      7  C   UNL     1     -30.388   4.178  -1.208  1.00  0.00     0.006 A 
ENDROOT
BRANCH   7   8
ATOM      8  C   UNL     1     -30.983   3.866  -2.536  1.00  0.00     0.123 C 
BRANCH   8   9
ATOM      9  C   UNL     1     -29.962   4.175  -3.577  1.00  0.00    -0.013 A 
ATOM     10  C   UNL     1     -29.615   5.415  -4.004  1.00  0.00     0.007 A 
ATOM     11  C   UNL     1     -29.318   3.049  -4.125  1.00  0.00     0.007 A 
ATOM     12  C   UNL     1     -28.634   5.550  -4.970  1.00  0.00     0.000 A 
ATOM     13  C   UNL     1     -28.347   3.192  -5.081  1.00  0.00     0.000 A 
ATOM     14  C   UNL     1     -27.988   4.444  -5.521  1.00  0.00     0.000 A 
ENDBRANCH   8   9
BRANCH   8  15
ATOM     15  C   UNL     1     -32.107   4.786  -2.854  1.00  0.00    -0.013 A 
ATOM     16  C   UNL     1     -32.474   5.113  -4.133  1.00  0.00     0.007 A 
ATOM     17  C   UNL     1     -32.832   5.318  -1.817  1.00  0.00     0.007 A 
ATOM     18  C   UNL     1     -33.545   5.958  -4.401  1.00  0.00     0.000 A 
ATOM     19  C   UNL     1     -33.917   6.174  -2.064  1.00  0.00     0.000 A 
ATOM     20  C   UNL     1     -34.259   6.483  -3.351  1.00  0.00     0.000 A 
ENDBRANCH   8  15
BRANCH   8  21
ATOM     21  N   UNL     1     -31.447   2.510  -2.562  1.00  0.00    -0.319 N 
ATOM     22  C   UNL     1     -30.796   1.433  -2.043  1.00  0.00     0.109 A 
ATOM     23  C   UNL     1     -32.594   2.061  -3.071  1.00  0.00     0.200 A 
ATOM     24  C   UNL     1     -31.562   0.306  -2.242  1.00  0.00     0.131 A 
ATOM     25  N   UNL     1     -32.656   0.718  -2.872  1.00  0.00    -0.245 NA
ENDBRANCH   8  21
ENDBRANCH   7   8
TORSDOF 4
ENDMDL
MODEL 2
REMARK VINA RESULT:      -6.7      0.406      1.201
REMARK SMILES Clc1ccccc1C(c1ccccc1)(c1ccccc1)n1ccnc1
REMARK SMILES IDX 1 1 2 2 3 3 4 4 5 5 6 6 7 7 8 8 9 9 10 10 14 11 11 12 13 13
REMARK SMILES IDX 12 14 15 15 16 16 20 17 17 18 19 19 18 20 21 21 22 22 25 23
REMARK SMILES IDX 23 24 24 25
REMARK H PARENT
ROOT
ATOM      1  Cl  UNL     1     -32.857   3.233  -0.062  1.00  0.00    -0.084 Cl
ATOM      2  C   UNL     1     -31.261   3.936   0.076  1.00  0.00     0.047 A 
ATOM      3  C   UNL     1     -30.715   4.247   1.300  1.00  0.00     0.021 A 
ATOM      4  C   UNL     1     -29.445   4.770   1.416  1.00  0.00     0.002 A 
ATOM      5  C   UNL     1     -28.726   4.977   0.264  1.00  0.00     0.001 A 
ATOM      6  C   UNL     1     -29.284   4.659  -0.982  1.00  0.00     0.008 A 
ATOM      7  C   UNL     1     -30.539   4.144  -1.087  1.00  0.00     0.006 A 
ENDROOT
BRANCH   7   8
ATOM      8  C   UNL     1     -31.119   3.838  -2.423  1.00  0.00     0.123 C 
BRANCH   8   9
ATOM      9  C   UNL     1     -30.081   4.135  -3.450  1.00  0.00    -0.013 A 
ATOM     10  C   UNL     1     -29.695   5.372  -3.854  1.00  0.00     0.007 A 
ATOM     11  C   UNL     1     -29.466   3.001  -4.013  1.00  0.00     0.007 A 
ATOM     12  C   UNL     1     -28.703   5.495  -4.810  1.00  0.00     0.000 A 
ATOM     13  C   UNL     1     -28.483   3.132  -4.959  1.00  0.00     0.000 A 
ATOM     14  C   UNL     1     -28.084   4.379  -5.375  1.00  0.00     0.000 A 
ENDBRANCH   8   9
BRANCH   8  15
ATOM     15  C   UNL     1     -32.229   4.772  -2.756  1.00  0.00    -0.013 A 
ATOM     16  C   UNL     1     -32.985   5.412  -1.810  1.00  0.00     0.007 A 
ATOM     17  C   UNL     1     -32.496   5.026  -4.078  1.00  0.00     0.007 A 
ATOM     18  C   UNL     1     -34.001   6.297  -2.150  1.00  0.00     0.000 A 
ATOM     19  C   UNL     1     -33.518   5.917  -4.446  1.00  0.00     0.000 A 
ATOM     20  C   UNL     1     -34.256   6.540  -3.478  1.00  0.00     0.000 A 
ENDBRANCH   8  15
BRANCH   8  21
ATOM     21  N   UNL     1     -31.599   2.489  -2.455  1.00  0.00    -0.319 N 
ATOM     22  C   UNL     1     -32.769   2.070  -3.013  1.00  0.00     0.109 A 
ATOM     23  C   UNL     1     -30.991   1.405  -1.973  1.00  0.00     0.200 A 
ATOM     24  C   UNL     1     -32.874   0.705  -2.865  1.00  0.00     0.131 A 
ATOM     25  N   UNL     1     -31.774   0.323  -2.227  1.00  0.00    -0.245 NA
ENDBRANCH   8  21
ENDBRANCH   7   8
TORSDOF 4
ENDMDL
MODEL 3
REMARK VINA RESULT:      -6.5      0.943      1.559
REMARK SMILES Clc1ccccc1C(c1ccccc1)(c1ccccc1)n1ccnc1
REMARK SMILES IDX 1 1 2 2 3 3 4 4 5 5 6 6 7 7 8 8 9 9 10 10 14 11 11 12 13 13
REMARK SMILES IDX 12 14 15 15 16 16 20 17 17 18 19 19 18 20 21 21 22 22 25 23
REMARK SMILES IDX 23 24 24 25
REMARK H PARENT
ROOT
ATOM      1  Cl  UNL     1     -32.772   3.233  -0.389  1.00  0.00    -0.084 Cl
ATOM      2  C   UNL     1     -31.168   3.905  -0.200  1.00  0.00     0.047 A 
ATOM      3  C   UNL     1     -30.752   4.453   0.992  1.00  0.00     0.021 A 
ATOM      4  C   UNL     1     -29.478   4.954   1.154  1.00  0.00     0.002 A 
ATOM      5  C   UNL     1     -28.621   4.893   0.084  1.00  0.00     0.001 A 
ATOM      6  C   UNL     1     -29.046   4.335  -1.129  1.00  0.00     0.008 A 
ATOM      7  C   UNL     1     -30.306   3.844  -1.282  1.00  0.00     0.006 A 
ENDROOT
BRANCH   7   8
ATOM      8  C   UNL     1     -30.742   3.279  -2.588  1.00  0.00     0.123 C 
BRANCH   8   9
ATOM      9  C   UNL     1     -29.789   3.752  -3.631  1.00  0.00    -0.013 A 
ATOM     10  C   UNL     1     -28.975   2.964  -4.378  1.00  0.00     0.007 A 
ATOM     11  C   UNL     1     -29.780   5.145  -3.834  1.00  0.00     0.007 A 
ATOM     12  C   UNL     1     -28.150   3.545  -5.325  1.00  0.00     0.000 A 
ATOM     13  C   UNL     1     -28.960   5.712  -4.775  1.00  0.00     0.000 A 
ATOM     14  C   UNL     1     -28.131   4.924  -5.537  1.00  0.00     0.000 A 
ENDBRANCH   8   9
BRANCH   8  15
ATOM     15  C   UNL     1     -32.049   3.849  -3.013  1.00  0.00    -0.013 A 
ATOM     16  C   UNL     1     -32.361   5.179  -2.907  1.00  0.00     0.007 A 
ATOM     17  C   UNL     1     -32.982   3.008  -3.563  1.00  0.00     0.007 A 
ATOM     18  C   UNL     1     -33.582   5.688  -3.334  1.00  0.00     0.000 A 
ATOM     19  C   UNL     1     -34.224   3.499  -4.001  1.00  0.00     0.000 A 
ATOM     20  C   UNL     1     -34.506   4.831  -3.881  1.00  0.00     0.000 A 
ENDBRANCH   8  15
BRANCH   8  21
ATOM     21  N   UNL     1     -30.845   1.852  -2.499  1.00  0.00    -0.319 N 
ATOM     22  C   UNL     1     -31.032   1.135  -1.356  1.00  0.00     0.109 A 
ATOM     23  C   UNL     1     -30.801   0.976  -3.502  1.00  0.00     0.200 A 
ATOM     24  C   UNL     1     -31.101  -0.203  -1.672  1.00  0.00     0.131 A 
ATOM     25  N   UNL     1     -30.957  -0.273  -2.990  1.00  0.00    -0.245 NA
ENDBRANCH   8  21
ENDBRANCH   7   8
TORSDOF 4
ENDMDL
MODEL 4
REMARK VINA RESULT:      -6.2      2.114      4.487
REMARK SMILES Clc1ccccc1C(c1ccccc1)(c1ccccc1)n1ccnc1
REMARK SMILES IDX 1 1 2 2 3 3 4 4 5 5 6 6 7 7 8 8 9 9 10 10 14 11 11 12 13 13
REMARK SMILES IDX 12 14 15 15 16 16 20 17 17 18 19 19 18 20 21 21 22 22 25 23
REMARK SMILES IDX 23 24 24 25
REMARK H PARENT
ROOT
ATOM      1  Cl  UNL     1     -30.480   4.161   0.027  1.00  0.00    -0.084 Cl
ATOM      2  C   UNL     1     -30.311   4.563  -1.668  1.00  0.00     0.047 A 
ATOM      3  C   UNL     1     -29.175   5.168  -2.155  1.00  0.00     0.021 A 
ATOM      4  C   UNL     1     -29.025   5.456  -3.494  1.00  0.00     0.002 A 
ATOM      5  C   UNL     1     -30.051   5.123  -4.344  1.00  0.00     0.001 A 
ATOM      6  C   UNL     1     -31.207   4.507  -3.847  1.00  0.00     0.008 A 
ATOM      7  C   UNL     1     -31.348   4.226  -2.523  1.00  0.00     0.006 A 
ENDROOT
BRANCH   7   8
ATOM      8  C   UNL     1     -32.596   3.595  -2.014  1.00  0.00     0.123 C 
BRANCH   8   9
ATOM      9  C   UNL     1     -32.234   2.271  -1.435  1.00  0.00    -0.013 A 
ATOM     10  C   UNL     1     -32.717   1.751  -0.279  1.00  0.00     0.007 A 
ATOM     11  C   UNL     1     -31.317   1.524  -2.199  1.00  0.00     0.007 A 
ATOM     12  C   UNL     1     -32.301   0.496   0.128  1.00  0.00     0.000 A 
ATOM     13  C   UNL     1     -30.910   0.281  -1.789  1.00  0.00     0.000 A 
ATOM     14  C   UNL     1     -31.393  -0.255  -0.619  1.00  0.00     0.000 A 
ENDBRANCH   8   9
BRANCH   8  15
ATOM     15  C   UNL     1     -33.523   3.257  -3.126  1.00  0.00    -0.013 A 
ATOM     16  C   UNL     1     -33.900   1.975  -3.430  1.00  0.00     0.007 A 
ATOM     17  C   UNL     1     -34.050   4.280  -3.873  1.00  0.00     0.007 A 
ATOM     18  C   UNL     1     -34.787   1.691  -4.462  1.00  0.00     0.000 A 
ATOM     19  C   UNL     1     -34.948   4.017  -4.921  1.00  0.00     0.000 A 
ATOM     20  C   UNL     1     -35.304   2.727  -5.201  1.00  0.00     0.000 A 
ENDBRANCH   8  15
BRANCH   8  21
ATOM     21  N   UNL     1     -33.252   4.473  -1.090  1.00  0.00    -0.319 N 
ATOM     22  C   UNL     1     -33.155   5.832  -1.074  1.00  0.00     0.109 A 
ATOM     23  C   UNL     1     -34.082   4.133  -0.105  1.00  0.00     0.200 A 
ATOM     24  C   UNL     1     -33.941   6.326  -0.057  1.00  0.00     0.131 A 
ATOM     25  N   UNL     1     -34.497   5.267   0.519  1.00  0.00    -0.245 NA
ENDBRANCH   8  21
ENDBRANCH   7   8
TORSDOF 4
ENDMDL
MODEL 5
REMARK VINA RESULT:      -6.2      0.849      1.687
REMARK SMILES Clc1ccccc1C(c1ccccc1)(c1ccccc1)n1ccnc1
REMARK SMILES IDX 1 1 2 2 3 3 4 4 5 5 6 6 7 7 8 8 9 9 10 10 14 11 11 12 13 13
REMARK SMILES IDX 12 14 15 15 16 16 20 17 17 18 19 19 18 20 21 21 22 22 25 23
REMARK SMILES IDX 23 24 24 25
REMARK H PARENT
ROOT
ATOM      1  Cl  UNL     1     -33.384   3.093   0.163  1.00  0.00    -0.084 Cl
ATOM      2  C   UNL     1     -31.783   3.775   0.342  1.00  0.00     0.047 A 
ATOM      3  C   UNL     1     -31.300   4.169   1.568  1.00  0.00     0.021 A 
ATOM      4  C   UNL     1     -30.028   4.677   1.718  1.00  0.00     0.002 A 
ATOM      5  C   UNL     1     -29.241   4.783   0.598  1.00  0.00     0.001 A 
ATOM      6  C   UNL     1     -29.734   4.381  -0.651  1.00  0.00     0.008 A 
ATOM      7  C   UNL     1     -30.992   3.882  -0.790  1.00  0.00     0.006 A 
ENDROOT
BRANCH   7   8
ATOM      8  C   UNL     1     -31.503   3.486  -2.131  1.00  0.00     0.123 C 
BRANCH   8   9
ATOM      9  C   UNL     1     -30.411   3.711  -3.120  1.00  0.00    -0.013 A 
ATOM     10  C   UNL     1     -29.726   2.743  -3.780  1.00  0.00     0.007 A 
ATOM     11  C   UNL     1     -30.109   5.063  -3.368  1.00  0.00     0.007 A 
ATOM     12  C   UNL     1     -28.744   3.104  -4.685  1.00  0.00     0.000 A 
ATOM     13  C   UNL     1     -29.135   5.411  -4.268  1.00  0.00     0.000 A 
ATOM     14  C   UNL     1     -28.435   4.439  -4.942  1.00  0.00     0.000 A 
ENDBRANCH   8   9
BRANCH   8  15
ATOM     15  C   UNL     1     -32.589   4.396  -2.585  1.00  0.00    -0.013 A 
ATOM     16  C   UNL     1     -33.129   5.377  -1.796  1.00  0.00     0.007 A 
ATOM     17  C   UNL     1     -33.058   4.265  -3.868  1.00  0.00     0.007 A 
ATOM     18  C   UNL     1     -34.127   6.228  -2.256  1.00  0.00     0.000 A 
ATOM     19  C   UNL     1     -34.067   5.113  -4.354  1.00  0.00     0.000 A 
ATOM     20  C   UNL     1     -34.588   6.082  -3.542  1.00  0.00     0.000 A 
ENDBRANCH   8  15
BRANCH   8  21
ATOM     21  N   UNL     1     -31.987   2.138  -2.096  1.00  0.00    -0.319 N 
ATOM     22  C   UNL     1     -33.193   1.710  -2.561  1.00  0.00     0.109 A 
ATOM     23  C   UNL     1     -31.349   1.064  -1.631  1.00  0.00     0.200 A 
ATOM     24  C   UNL     1     -33.290   0.350  -2.372  1.00  0.00     0.131 A 
ATOM     25  N   UNL     1     -32.150  -0.020  -1.802  1.00  0.00    -0.245 NA
ENDBRANCH   8  21
ENDBRANCH   7   8
TORSDOF 4
ENDMDL
MODEL 6
REMARK VINA RESULT:      -6.2      1.123      4.169
REMARK SMILES Clc1ccccc1C(c1ccccc1)(c1ccccc1)n1ccnc1
REMARK SMILES IDX 1 1 2 2 3 3 4 4 5 5 6 6 7 7 8 8 9 9 10 10 14 11 11 12 13 13
REMARK SMILES IDX 12 14 15 15 16 16 20 17 17 18 19 19 18 20 21 21 22 22 25 23
REMARK SMILES IDX 23 24 24 25
REMARK H PARENT
ROOT
ATOM      1  Cl  UNL     1     -32.697   3.265   0.068  1.00  0.00    -0.084 Cl
ATOM      2  C   UNL     1     -31.110   3.996   0.144  1.00  0.00     0.047 A 
ATOM      3  C   UNL     1     -30.519   4.314   1.345  1.00  0.00     0.021 A 
ATOM      4  C   UNL     1     -29.255   4.860   1.410  1.00  0.00     0.002 A 
ATOM      5  C   UNL     1     -28.588   5.083   0.231  1.00  0.00     0.001 A 
ATOM      6  C   UNL     1     -29.191   4.759  -0.992  1.00  0.00     0.008 A 
ATOM      7  C   UNL     1     -30.440   4.221  -1.048  1.00  0.00     0.006 A 
ENDROOT
BRANCH   7   8
ATOM      8  C   UNL     1     -31.069   3.909  -2.360  1.00  0.00     0.123 C 
BRANCH   8   9
ATOM      9  C   UNL     1     -31.454   2.469  -2.349  1.00  0.00    -0.013 A 
ATOM     10  C   UNL     1     -30.703   1.451  -1.861  1.00  0.00     0.007 A 
ATOM     11  C   UNL     1     -32.724   2.194  -2.891  1.00  0.00     0.007 A 
ATOM     12  C   UNL     1     -31.199   0.160  -1.905  1.00  0.00     0.000 A 
ATOM     13  C   UNL     1     -33.208   0.912  -2.930  1.00  0.00     0.000 A 
ATOM     14  C   UNL     1     -32.455  -0.128  -2.438  1.00  0.00     0.000 A 
ENDBRANCH   8   9
BRANCH   8  15
ATOM     15  C   UNL     1     -30.084   4.007  -3.469  1.00  0.00    -0.013 A 
ATOM     16  C   UNL     1     -29.693   5.196  -4.027  1.00  0.00     0.007 A 
ATOM     17  C   UNL     1     -29.515   2.852  -3.944  1.00  0.00     0.007 A 
ATOM     18  C   UNL     1     -28.752   5.259  -5.048  1.00  0.00     0.000 A 
ATOM     19  C   UNL     1     -28.562   2.892  -4.976  1.00  0.00     0.000 A 
ATOM     20  C   UNL     1     -28.194   4.094  -5.513  1.00  0.00     0.000 A 
ENDBRANCH   8  15
BRANCH   8  21
ATOM     21  N   UNL     1     -32.163   4.801  -2.607  1.00  0.00    -0.319 N 
ATOM     22  C   UNL     1     -32.722   5.062  -3.821  1.00  0.00     0.109 A 
ATOM     23  C   UNL     1     -32.842   5.513  -1.708  1.00  0.00     0.200 A 
ATOM     24  C   UNL     1     -33.760   5.952  -3.656  1.00  0.00     0.131 A 
ATOM     25  N   UNL     1     -33.812   6.211  -2.354  1.00  0.00    -0.245 NA
ENDBRANCH   8  21
ENDBRANCH   7   8
TORSDOF 4
ENDMDL
MODEL 7
REMARK VINA RESULT:      -6.1      1.646      2.721
REMARK SMILES Clc1ccccc1C(c1ccccc1)(c1ccccc1)n1ccnc1
REMARK SMILES IDX 1 1 2 2 3 3 4 4 5 5 6 6 7 7 8 8 9 9 10 10 14 11 11 12 13 13
REMARK SMILES IDX 12 14 15 15 16 16 20 17 17 18 19 19 18 20 21 21 22 22 25 23
REMARK SMILES IDX 23 24 24 25
REMARK H PARENT
ROOT
ATOM      1  Cl  UNL     1     -31.470   3.067   0.362  1.00  0.00    -0.084 Cl
ATOM      2  C   UNL     1     -32.532   4.445   0.180  1.00  0.00     0.047 A 
ATOM      3  C   UNL     1     -32.892   5.225   1.255  1.00  0.00     0.021 A 
ATOM      4  C   UNL     1     -33.702   6.330   1.111  1.00  0.00     0.002 A 
ATOM      5  C   UNL     1     -34.150   6.641  -0.149  1.00  0.00     0.001 A 
ATOM      6  C   UNL     1     -33.783   5.846  -1.244  1.00  0.00     0.008 A 
ATOM      7  C   UNL     1     -32.984   4.755  -1.093  1.00  0.00     0.006 A 
ENDROOT
BRANCH   7   8
ATOM      8  C   UNL     1     -32.628   3.912  -2.266  1.00  0.00     0.123 C 
BRANCH   8   9
ATOM      9  C   UNL     1     -31.173   4.093  -2.534  1.00  0.00    -0.013 A 
ATOM     10  C   UNL     1     -30.359   4.988  -1.921  1.00  0.00     0.007 A 
ATOM     11  C   UNL     1     -30.640   3.226  -3.507  1.00  0.00     0.007 A 
ATOM     12  C   UNL     1     -29.019   5.032  -2.263  1.00  0.00     0.000 A 
ATOM     13  C   UNL     1     -29.311   3.276  -3.839  1.00  0.00     0.000 A 
ATOM     14  C   UNL     1     -28.477   4.179  -3.224  1.00  0.00     0.000 A 
ENDBRANCH   8   9
BRANCH   8  15
ATOM     15  C   UNL     1     -33.284   4.406  -3.506  1.00  0.00    -0.013 A 
ATOM     16  C   UNL     1     -34.383   3.810  -4.066  1.00  0.00     0.007 A 
ATOM     17  C   UNL     1     -32.781   5.531  -4.109  1.00  0.00     0.007 A 
ATOM     18  C   UNL     1     -34.990   4.309  -5.213  1.00  0.00     0.000 A 
ATOM     19  C   UNL     1     -33.377   6.053  -5.269  1.00  0.00     0.000 A 
ATOM     20  C   UNL     1     -34.472   5.435  -5.805  1.00  0.00     0.000 A 
ENDBRANCH   8  15
BRANCH   8  21
ATOM     21  N   UNL     1     -33.010   2.551  -2.029  1.00  0.00    -0.319 N 
ATOM     22  C   UNL     1     -34.183   2.136  -1.475  1.00  0.00     0.109 A 
ATOM     23  C   UNL     1     -32.311   1.455  -2.321  1.00  0.00     0.200 A 
ATOM     24  C   UNL     1     -34.195   0.760  -1.428  1.00  0.00     0.131 A 
ATOM     25  N   UNL     1     -33.040   0.368  -1.952  1.00  0.00    -0.245 NA
ENDBRANCH   8  21
ENDBRANCH   7   8
TORSDOF 4
ENDMDL
MODEL 8
REMARK VINA RESULT:      -6.0      1.907      4.793
REMARK SMILES Clc1ccccc1C(c1ccccc1)(c1ccccc1)n1ccnc1
REMARK SMILES IDX 1 1 2 2 3 3 4 4 5 5 6 6 7 7 8 8 9 9 10 10 14 11 11 12 13 13
REMARK SMILES IDX 12 14 15 15 16 16 20 17 17 18 19 19 18 20 21 21 22 22 25 23
REMARK SMILES IDX 23 24 24 25
REMARK H PARENT
ROOT
ATOM      1  Cl  UNL     1     -34.478   2.191  -0.208  1.00  0.00    -0.084 Cl
ATOM      2  C   UNL     1     -33.118   1.376  -0.948  1.00  0.00     0.047 A 
ATOM      3  C   UNL     1     -33.016   0.003  -0.953  1.00  0.00     0.021 A 
ATOM      4  C   UNL     1     -31.963  -0.643  -1.563  1.00  0.00     0.002 A 
ATOM      5  C   UNL     1     -31.003   0.125  -2.176  1.00  0.00     0.001 A 
ATOM      6  C   UNL     1     -31.108   1.522  -2.170  1.00  0.00     0.008 A 
ATOM      7  C   UNL     1     -32.150   2.153  -1.564  1.00  0.00     0.006 A 
ENDROOT
BRANCH   7   8
ATOM      8  C   UNL     1     -32.228   3.639  -1.549  1.00  0.00     0.123 C 
BRANCH   8   9
ATOM      9  C   UNL     1     -33.416   4.042  -2.354  1.00  0.00    -0.013 A 
ATOM     10  C   UNL     1     -34.141   5.176  -2.184  1.00  0.00     0.007 A 
ATOM     11  C   UNL     1     -33.768   3.142  -3.377  1.00  0.00     0.007 A 
ATOM     12  C   UNL     1     -35.215   5.426  -3.021  1.00  0.00     0.000 A 
ATOM     13  C   UNL     1     -34.832   3.399  -4.202  1.00  0.00     0.000 A 
ATOM     14  C   UNL     1     -35.575   4.544  -4.039  1.00  0.00     0.000 A 
ENDBRANCH   8   9
BRANCH   8  15
ATOM     15  C   UNL     1     -31.081   4.247  -2.276  1.00  0.00    -0.013 A 
ATOM     16  C   UNL     1     -29.874   4.518  -1.687  1.00  0.00     0.007 A 
ATOM     17  C   UNL     1     -31.228   4.530  -3.610  1.00  0.00     0.007 A 
ATOM     18  C   UNL     1     -28.812   5.065  -2.398  1.00  0.00     0.000 A 
ATOM     19  C   UNL     1     -30.169   5.083  -4.349  1.00  0.00     0.000 A 
ATOM     20  C   UNL     1     -28.976   5.344  -3.733  1.00  0.00     0.000 A 
ENDBRANCH   8  15
BRANCH   8  21
ATOM     21  N   UNL     1     -32.251   4.118  -0.199  1.00  0.00    -0.319 N 
ATOM     22  C   UNL     1     -31.570   3.580   0.851  1.00  0.00     0.109 A 
ATOM     23  C   UNL     1     -32.913   5.175   0.271  1.00  0.00     0.200 A 
ATOM     24  C   UNL     1     -31.826   4.324   1.981  1.00  0.00     0.131 A 
ATOM     25  N   UNL     1     -32.649   5.293   1.599  1.00  0.00    -0.245 NA
ENDBRANCH   8  21
ENDBRANCH   7   8
TORSDOF 4
ENDMDL
MODEL 9
REMARK VINA RESULT:      -6.0      1.947      4.708
REMARK SMILES Clc1ccccc1C(c1ccccc1)(c1ccccc1)n1ccnc1
REMARK SMILES IDX 1 1 2 2 3 3 4 4 5 5 6 6 7 7 8 8 9 9 10 10 14 11 11 12 13 13
REMARK SMILES IDX 12 14 15 15 16 16 20 17 17 18 19 19 18 20 21 21 22 22 25 23
REMARK SMILES IDX 23 24 24 25
REMARK H PARENT
ROOT
ATOM      1  Cl  UNL     1     -34.831   2.402  -0.621  1.00  0.00    -0.084 Cl
ATOM      2  C   UNL     1     -33.389   1.546  -1.117  1.00  0.00     0.047 A 
ATOM      3  C   UNL     1     -33.284   0.180  -0.995  1.00  0.00     0.021 A 
ATOM      4  C   UNL     1     -32.162  -0.502  -1.414  1.00  0.00     0.002 A 
ATOM      5  C   UNL     1     -31.135   0.224  -1.964  1.00  0.00     0.001 A 
ATOM      6  C   UNL     1     -31.243   1.616  -2.088  1.00  0.00     0.008 A 
ATOM      7  C   UNL     1     -32.353   2.282  -1.671  1.00  0.00     0.006 A 
ENDROOT
BRANCH   7   8
ATOM      8  C   UNL     1     -32.435   3.763  -1.789  1.00  0.00     0.123 C 
BRANCH   8   9
ATOM      9  C   UNL     1     -33.548   4.085  -2.725  1.00  0.00    -0.013 A 
ATOM     10  C   UNL     1     -34.251   5.245  -2.753  1.00  0.00     0.007 A 
ATOM     11  C   UNL     1     -33.851   3.071  -3.654  1.00  0.00     0.007 A 
ATOM     12  C   UNL     1     -35.253   5.410  -3.694  1.00  0.00     0.000 A 
ATOM     13  C   UNL     1     -34.844   3.243  -4.583  1.00  0.00     0.000 A 
ATOM     14  C   UNL     1     -35.562   4.414  -4.619  1.00  0.00     0.000 A 
ENDBRANCH   8   9
BRANCH   8  15
ATOM     15  C   UNL     1     -31.230   4.318  -2.462  1.00  0.00    -0.013 A 
ATOM     16  C   UNL     1     -31.178   4.597  -3.802  1.00  0.00     0.007 A 
ATOM     17  C   UNL     1     -30.121   4.589  -1.701  1.00  0.00     0.007 A 
ATOM     18  C   UNL     1     -30.046   5.138  -4.401  1.00  0.00     0.000 A 
ATOM     19  C   UNL     1     -28.965   5.135  -2.284  1.00  0.00     0.000 A 
ATOM     20  C   UNL     1     -28.943   5.402  -3.625  1.00  0.00     0.000 A 
ENDBRANCH   8  15
BRANCH   8  21
ATOM     21  N   UNL     1     -32.577   4.354  -0.491  1.00  0.00    -0.319 N 
ATOM     22  C   UNL     1     -32.061   3.865   0.670  1.00  0.00     0.109 A 
ATOM     23  C   UNL     1     -33.210   5.486  -0.186  1.00  0.00     0.200 A 
ATOM     24  C   UNL     1     -32.390   4.716   1.701  1.00  0.00     0.131 A 
ATOM     25  N   UNL     1     -33.092   5.699   1.151  1.00  0.00    -0.245 NA
ENDBRANCH   8  21
ENDBRANCH   7   8
TORSDOF 4
ENDMDL
