MODEL 1
REMARK VINA RESULT:      -9.9      0.000      0.000
REMARK SMILES COc1ccc(-c2cc3ccc(O)cc3oc2=O)cc1
REMARK SMILES IDX 7 1 8 2 9 3 10 4 11 5 12 6 14 7 15 8 16 9 17 10 18 11 6 12
REMARK SMILES IDX 3 13 4 14 20 15 5 16 19 17 2 18 1 19 13 20
REMARK H PARENT 13 21
ROOT
ATOM      1  C   UNL     1      18.438  34.914  18.068  1.00  0.00     0.068 A 
ATOM      2  C   UNL     1      18.103  35.330  19.350  1.00  0.00     0.028 A 
ATOM      3  C   UNL     1      18.522  34.579  20.425  1.00  0.00     0.018 A 
ATOM      4  C   UNL     1      18.198  34.976  21.722  1.00  0.00     0.016 A 
ATOM      5  C   UNL     1      18.614  34.227  22.799  1.00  0.00     0.047 A 
ATOM      6  C   UNL     1      19.358  33.068  22.631  1.00  0.00     0.119 A 
ATOM      7  C   UNL     1      19.666  32.694  21.340  1.00  0.00     0.094 A 
ATOM      8  C   UNL     1      19.265  33.421  20.251  1.00  0.00     0.142 A 
ATOM      9  O   UNL     1      19.560  33.062  19.023  1.00  0.00    -0.422 OA
ATOM     10  C   UNL     1      19.180  33.752  17.974  1.00  0.00     0.344 A 
ATOM     11  O   UNL     1      19.497  33.354  16.824  1.00  0.00    -0.246 OA
ENDROOT
BRANCH   1  12
ATOM     12  C   UNL     1      18.022  35.671  16.895  1.00  0.00    -0.011 A 
ATOM     13  C   UNL     1      17.242  37.123  14.648  1.00  0.00     0.118 A 
ATOM     14  C   UNL     1      18.569  37.021  14.985  1.00  0.00     0.047 A 
ATOM     15  C   UNL     1      16.300  36.501  15.430  1.00  0.00     0.047 A 
ATOM     16  C   UNL     1      18.966  36.295  16.110  1.00  0.00     0.013 A 
ATOM     17  C   UNL     1      16.696  35.779  16.548  1.00  0.00     0.013 A 
BRANCH  13  18
ATOM     18  O   UNL     1      16.902  37.855  13.521  1.00  0.00    -0.497 OA
ATOM     19  C   UNL     1      17.847  38.136  12.510  1.00  0.00     0.278 C 
ENDBRANCH  13  18
ENDBRANCH   1  12
BRANCH   6  20
ATOM     20  O   UNL     1      19.783  32.304  23.708  1.00  0.00    -0.508 OA
ATOM     21  H   UNL     1      20.585  31.689  23.565  1.00  0.00     0.293 HD
ENDBRANCH   6  20
TORSDOF 3
ENDMDL
MODEL 2
REMARK VINA RESULT:      -9.9      0.055      1.061
REMARK SMILES COc1ccc(-c2cc3ccc(O)cc3oc2=O)cc1
REMARK SMILES IDX 7 1 8 2 9 3 10 4 11 5 12 6 14 7 15 8 16 9 17 10 18 11 6 12
REMARK SMILES IDX 3 13 4 14 20 15 5 16 19 17 2 18 1 19 13 20
REMARK H PARENT 13 21
ROOT
ATOM      1  C   UNL     1      18.455  34.909  18.061  1.00  0.00     0.068 A 
ATOM      2  C   UNL     1      18.119  35.328  19.342  1.00  0.00     0.028 A 
ATOM      3  C   UNL     1      18.533  34.577  20.419  1.00  0.00     0.018 A 
ATOM      4  C   UNL     1      18.208  34.978  21.714  1.00  0.00     0.016 A 
ATOM      5  C   UNL     1      18.620  34.230  22.793  1.00  0.00     0.047 A 
ATOM      6  C   UNL     1      19.360  33.068  22.629  1.00  0.00     0.119 A 
ATOM      7  C   UNL     1      19.669  32.691  21.340  1.00  0.00     0.094 A 
ATOM      8  C   UNL     1      19.272  33.417  20.249  1.00  0.00     0.142 A 
ATOM      9  O   UNL     1      19.569  33.055  19.022  1.00  0.00    -0.422 OA
ATOM     10  C   UNL     1      19.193  33.744  17.971  1.00  0.00     0.344 A 
ATOM     11  O   UNL     1      19.511  33.343  16.822  1.00  0.00    -0.246 OA
ENDROOT
BRANCH   1  12
ATOM     12  C   UNL     1      18.044  35.665  16.886  1.00  0.00    -0.011 A 
ATOM     13  C   UNL     1      17.242  37.108  14.641  1.00  0.00     0.118 A 
ATOM     14  C   UNL     1      16.312  36.487  15.437  1.00  0.00     0.047 A 
ATOM     15  C   UNL     1      18.574  37.013  14.961  1.00  0.00     0.047 A 
ATOM     16  C   UNL     1      16.708  35.761  16.564  1.00  0.00     0.013 A 
ATOM     17  C   UNL     1      18.966  36.292  16.082  1.00  0.00     0.013 A 
BRANCH  13  18
ATOM     18  O   UNL     1      16.795  37.816  13.535  1.00  0.00    -0.497 OA
ATOM     19  C   UNL     1      17.687  38.258  12.533  1.00  0.00     0.278 C 
ENDBRANCH  13  18
ENDBRANCH   1  12
BRANCH   6  20
ATOM     20  O   UNL     1      19.781  32.305  23.709  1.00  0.00    -0.508 OA
ATOM     21  H   UNL     1      19.781  31.290  23.600  1.00  0.00     0.293 HD
ENDBRANCH   6  20
TORSDOF 3
ENDMDL
MODEL 3
REMARK VINA RESULT:      -7.9      1.644      7.610
REMARK SMILES COc1ccc(-c2cc3ccc(O)cc3oc2=O)cc1
REMARK SMILES IDX 7 1 8 2 9 3 10 4 11 5 12 6 14 7 15 8 16 9 17 10 18 11 6 12
REMARK SMILES IDX 3 13 4 14 20 15 5 16 19 17 2 18 1 19 13 20
REMARK H PARENT 13 21
ROOT
ATOM      1  C   UNL     1      17.786  36.044  16.400  1.00  0.00     0.068 A 
ATOM      2  C   UNL     1      16.459  36.144  16.005  1.00  0.00     0.028 A 
ATOM      3  C   UNL     1      16.159  36.805  14.835  1.00  0.00     0.018 A 
ATOM      4  C   UNL     1      14.834  36.919  14.417  1.00  0.00     0.016 A 
ATOM      5  C   UNL     1      14.531  37.579  13.248  1.00  0.00     0.047 A 
ATOM      6  C   UNL     1      15.522  38.146  12.459  1.00  0.00     0.119 A 
ATOM      7  C   UNL     1      16.825  38.022  12.892  1.00  0.00     0.094 A 
ATOM      8  C   UNL     1      17.153  37.370  14.050  1.00  0.00     0.142 A 
ATOM      9  O   UNL     1      18.396  37.254  14.459  1.00  0.00    -0.422 OA
ATOM     10  C   UNL     1      18.720  36.631  15.567  1.00  0.00     0.344 A 
ATOM     11  O   UNL     1      19.929  36.554  15.903  1.00  0.00    -0.246 OA
ENDROOT
BRANCH   1  12
ATOM     12  C   UNL     1      18.159  35.356  17.629  1.00  0.00    -0.011 A 
ATOM     13  C   UNL     1      18.866  34.051  19.987  1.00  0.00     0.118 A 
ATOM     14  C   UNL     1      18.177  35.238  20.028  1.00  0.00     0.047 A 
ATOM     15  C   UNL     1      19.204  33.511  18.771  1.00  0.00     0.047 A 
ATOM     16  C   UNL     1      17.820  35.897  18.849  1.00  0.00     0.013 A 
ATOM     17  C   UNL     1      18.848  34.166  17.600  1.00  0.00     0.013 A 
BRANCH  13  18
ATOM     18  O   UNL     1      19.195  33.438  21.187  1.00  0.00    -0.497 OA
ATOM     19  C   UNL     1      18.891  32.080  21.429  1.00  0.00     0.278 C 
ENDBRANCH  13  18
ENDBRANCH   1  12
BRANCH   6  20
ATOM     20  O   UNL     1      15.230  38.814  11.279  1.00  0.00    -0.508 OA
ATOM     21  H   UNL     1      15.165  38.260  10.425  1.00  0.00     0.293 HD
ENDBRANCH   6  20
TORSDOF 3
ENDMDL
MODEL 4
REMARK VINA RESULT:      -7.8      1.649      7.619
REMARK SMILES COc1ccc(-c2cc3ccc(O)cc3oc2=O)cc1
REMARK SMILES IDX 7 1 8 2 9 3 10 4 11 5 12 6 14 7 15 8 16 9 17 10 18 11 6 12
REMARK SMILES IDX 3 13 4 14 20 15 5 16 19 17 2 18 1 19 13 20
REMARK H PARENT 13 21
ROOT
ATOM      1  C   UNL     1      17.844  36.215  16.307  1.00  0.00     0.068 A 
ATOM      2  C   UNL     1      16.525  36.452  15.941  1.00  0.00     0.028 A 
ATOM      3  C   UNL     1      16.270  37.134  14.772  1.00  0.00     0.018 A 
ATOM      4  C   UNL     1      14.955  37.385  14.384  1.00  0.00     0.016 A 
ATOM      5  C   UNL     1      14.696  38.066  13.217  1.00  0.00     0.047 A 
ATOM      6  C   UNL     1      15.722  38.522  12.402  1.00  0.00     0.119 A 
ATOM      7  C   UNL     1      17.015  38.263  12.806  1.00  0.00     0.094 A 
ATOM      8  C   UNL     1      17.300  37.587  13.962  1.00  0.00     0.142 A 
ATOM      9  O   UNL     1      18.532  37.342  14.343  1.00  0.00    -0.422 OA
ATOM     10  C   UNL     1      18.814  36.695  15.449  1.00  0.00     0.344 A 
ATOM     11  O   UNL     1      20.016  36.493  15.758  1.00  0.00    -0.246 OA
ENDROOT
BRANCH   1  12
ATOM     12  C   UNL     1      18.171  35.497  17.532  1.00  0.00    -0.011 A 
ATOM     13  C   UNL     1      18.802  34.114  19.867  1.00  0.00     0.118 A 
ATOM     14  C   UNL     1      19.133  33.595  18.639  1.00  0.00     0.047 A 
ATOM     15  C   UNL     1      18.157  35.324  19.934  1.00  0.00     0.047 A 
ATOM     16  C   UNL     1      18.819  34.284  17.465  1.00  0.00     0.013 A 
ATOM     17  C   UNL     1      17.845  36.008  18.767  1.00  0.00     0.013 A 
BRANCH  13  18
ATOM     18  O   UNL     1      19.138  33.390  21.001  1.00  0.00    -0.497 OA
ATOM     19  C   UNL     1      18.730  32.048  21.168  1.00  0.00     0.278 C 
ENDBRANCH  13  18
ENDBRANCH   1  12
BRANCH   6  20
ATOM     20  O   UNL     1      15.475  39.210  11.223  1.00  0.00    -0.508 OA
ATOM     21  H   UNL     1      14.803  38.806  10.570  1.00  0.00     0.293 HD
ENDBRANCH   6  20
TORSDOF 3
ENDMDL
MODEL 5
REMARK VINA RESULT:      -7.5      1.705      7.832
REMARK SMILES COc1ccc(-c2cc3ccc(O)cc3oc2=O)cc1
REMARK SMILES IDX 7 1 8 2 9 3 10 4 11 5 12 6 14 7 15 8 16 9 17 10 18 11 6 12
REMARK SMILES IDX 3 13 4 14 20 15 5 16 19 17 2 18 1 19 13 20
REMARK H PARENT 13 21
ROOT
ATOM      1  C   UNL     1      17.406  35.927  15.922  1.00  0.00     0.068 A 
ATOM      2  C   UNL     1      18.203  36.723  15.109  1.00  0.00     0.028 A 
ATOM      3  C   UNL     1      17.684  37.198  13.925  1.00  0.00     0.018 A 
ATOM      4  C   UNL     1      18.464  37.999  13.093  1.00  0.00     0.016 A 
ATOM      5  C   UNL     1      17.948  38.475  11.909  1.00  0.00     0.047 A 
ATOM      6  C   UNL     1      16.653  38.177  11.512  1.00  0.00     0.119 A 
ATOM      7  C   UNL     1      15.899  37.383  12.350  1.00  0.00     0.094 A 
ATOM      8  C   UNL     1      16.388  36.897  13.533  1.00  0.00     0.142 A 
ATOM      9  O   UNL     1      15.668  36.141  14.329  1.00  0.00    -0.422 OA
ATOM     10  C   UNL     1      16.127  35.670  15.464  1.00  0.00     0.344 A 
ATOM     11  O   UNL     1      15.386  34.952  16.182  1.00  0.00    -0.246 OA
ENDROOT
BRANCH   1  12
ATOM     12  C   UNL     1      17.905  35.398  17.184  1.00  0.00    -0.011 A 
ATOM     13  C   UNL     1      18.866  34.374  19.590  1.00  0.00     0.118 A 
ATOM     14  C   UNL     1      19.166  33.756  18.402  1.00  0.00     0.047 A 
ATOM     15  C   UNL     1      18.086  35.505  19.583  1.00  0.00     0.047 A 
ATOM     16  C   UNL     1      18.687  34.265  17.192  1.00  0.00     0.013 A 
ATOM     17  C   UNL     1      17.611  36.009  18.380  1.00  0.00     0.013 A 
BRANCH  13  18
ATOM     18  O   UNL     1      19.368  33.829  20.763  1.00  0.00    -0.497 OA
ATOM     19  C   UNL     1      19.023  32.523  21.176  1.00  0.00     0.278 C 
ENDBRANCH  13  18
ENDBRANCH   1  12
BRANCH   6  20
ATOM     20  O   UNL     1      16.121  38.650  10.321  1.00  0.00    -0.508 OA
ATOM     21  H   UNL     1      15.137  38.920  10.316  1.00  0.00     0.293 HD
ENDBRANCH   6  20
TORSDOF 3
ENDMDL
MODEL 6
REMARK VINA RESULT:      -7.4      1.723      7.909
REMARK SMILES COc1ccc(-c2cc3ccc(O)cc3oc2=O)cc1
REMARK SMILES IDX 7 1 8 2 9 3 10 4 11 5 12 6 14 7 15 8 16 9 17 10 18 11 6 12
REMARK SMILES IDX 3 13 4 14 20 15 5 16 19 17 2 18 1 19 13 20
REMARK H PARENT 13 21
ROOT
ATOM      1  C   UNL     1      17.398  35.984  15.791  1.00  0.00     0.068 A 
ATOM      2  C   UNL     1      18.177  36.782  14.963  1.00  0.00     0.028 A 
ATOM      3  C   UNL     1      17.629  37.270  13.797  1.00  0.00     0.018 A 
ATOM      4  C   UNL     1      18.392  38.072  12.950  1.00  0.00     0.016 A 
ATOM      5  C   UNL     1      17.848  38.561  11.785  1.00  0.00     0.047 A 
ATOM      6  C   UNL     1      16.540  38.273  11.420  1.00  0.00     0.119 A 
ATOM      7  C   UNL     1      15.805  37.478  12.273  1.00  0.00     0.094 A 
ATOM      8  C   UNL     1      16.322  36.979  13.438  1.00  0.00     0.142 A 
ATOM      9  O   UNL     1      15.619  36.222  14.248  1.00  0.00    -0.422 OA
ATOM     10  C   UNL     1      16.106  35.739  15.366  1.00  0.00     0.344 A 
ATOM     11  O   UNL     1      15.379  35.020  16.098  1.00  0.00    -0.246 OA
ENDROOT
BRANCH   1  12
ATOM     12  C   UNL     1      17.927  35.443  17.035  1.00  0.00    -0.011 A 
ATOM     13  C   UNL     1      18.933  34.419  19.424  1.00  0.00     0.118 A 
ATOM     14  C   UNL     1      18.208  35.585  19.416  1.00  0.00     0.047 A 
ATOM     15  C   UNL     1      19.158  33.760  18.240  1.00  0.00     0.047 A 
ATOM     16  C   UNL     1      17.701  36.104  18.222  1.00  0.00     0.013 A 
ATOM     17  C   UNL     1      18.654  34.275  17.054  1.00  0.00     0.013 A 
BRANCH  13  18
ATOM     18  O   UNL     1      19.412  33.948  20.637  1.00  0.00    -0.497 OA
ATOM     19  C   UNL     1      19.087  32.656  21.106  1.00  0.00     0.278 C 
ENDBRANCH  13  18
ENDBRANCH   1  12
BRANCH   6  20
ATOM     20  O   UNL     1      15.980  38.760  10.248  1.00  0.00    -0.508 OA
ATOM     21  H   UNL     1      15.052  38.420   9.990  1.00  0.00     0.293 HD
ENDBRANCH   6  20
TORSDOF 3
ENDMDL
