MODEL 1
REMARK VINA RESULT:      -5.8      0.000      0.000
REMARK SMILES O=c1cc(-c2ccccc2)oc2cc(O)cc(O)c12
REMARK SMILES IDX 1 1 2 2 3 3 4 4 11 5 12 6 13 7 14 8 16 9 17 10 19 11 5 12
REMARK SMILES IDX 6 13 10 14 7 15 9 16 8 17 18 18 15 20
REMARK H PARENT 18 19 15 21
ROOT
ATOM      1  O   UNL     1      -5.363  -8.580  37.067  1.00  0.00    -0.289 OA
ATOM      2  C   UNL     1      -4.909  -7.414  37.176  1.00  0.00     0.197 A 
ATOM      3  C   UNL     1      -4.693  -6.800  38.418  1.00  0.00     0.100 A 
ATOM      4  C   UNL     1      -4.196  -5.522  38.513  1.00  0.00     0.138 A 
ATOM      5  O   UNL     1      -3.934  -4.907  37.384  1.00  0.00    -0.456 OA
ATOM      6  C   UNL     1      -4.114  -5.428  36.195  1.00  0.00     0.146 A 
ATOM      7  C   UNL     1      -3.816  -4.724  35.034  1.00  0.00     0.094 A 
ATOM      8  C   UNL     1      -3.992  -5.239  33.773  1.00  0.00     0.123 A 
ATOM      9  C   UNL     1      -4.488  -6.515  33.634  1.00  0.00     0.093 A 
ATOM     10  C   UNL     1      -4.796  -7.246  34.760  1.00  0.00     0.134 A 
ATOM     11  C   UNL     1      -4.609  -6.704  36.037  1.00  0.00     0.107 A 
ENDROOT
BRANCH   4  12
ATOM     12  C   UNL     1      -3.967  -4.872  39.806  1.00  0.00     0.017 A 
ATOM     13  C   UNL     1      -3.770  -3.525  39.963  1.00  0.00     0.012 A 
ATOM     14  C   UNL     1      -3.947  -5.645  40.953  1.00  0.00     0.012 A 
ATOM     15  C   UNL     1      -3.557  -2.949  41.218  1.00  0.00     0.001 A 
ATOM     16  C   UNL     1      -3.737  -5.103  42.212  1.00  0.00     0.001 A 
ATOM     17  C   UNL     1      -3.539  -3.735  42.350  1.00  0.00     0.000 A 
ENDBRANCH   4  12
BRANCH  10  18
ATOM     18  O   UNL     1      -5.291  -8.521  34.620  1.00  0.00    -0.507 OA
ATOM     19  H   UNL     1      -5.811  -8.950  35.364  1.00  0.00     0.293 HD
ENDBRANCH  10  18
BRANCH   8  20
ATOM     20  O   UNL     1      -3.679  -4.493  32.634  1.00  0.00    -0.508 OA
ATOM     21  H   UNL     1      -3.203  -4.885  31.834  1.00  0.00     0.293 HD
ENDBRANCH   8  20
TORSDOF 3
ENDMDL
MODEL 2
REMARK VINA RESULT:      -5.6      1.313      2.919
REMARK SMILES O=c1cc(-c2ccccc2)oc2cc(O)cc(O)c12
REMARK SMILES IDX 1 1 2 2 3 3 4 4 11 5 12 6 13 7 14 8 16 9 17 10 19 11 5 12
REMARK SMILES IDX 6 13 10 14 7 15 9 16 8 17 18 18 15 20
REMARK H PARENT 18 19 15 21
ROOT
ATOM      1  O   UNL     1      -3.778  -5.046  34.529  1.00  0.00    -0.289 OA
ATOM      2  C   UNL     1      -4.036  -5.506  35.670  1.00  0.00     0.197 A 
ATOM      3  C   UNL     1      -3.787  -4.786  36.848  1.00  0.00     0.100 A 
ATOM      4  C   UNL     1      -4.077  -5.309  38.086  1.00  0.00     0.138 A 
ATOM      5  O   UNL     1      -4.596  -6.514  38.108  1.00  0.00    -0.456 OA
ATOM      6  C   UNL     1      -4.851  -7.234  37.044  1.00  0.00     0.146 A 
ATOM      7  C   UNL     1      -5.404  -8.506  37.135  1.00  0.00     0.094 A 
ATOM      8  C   UNL     1      -5.684  -9.287  36.041  1.00  0.00     0.123 A 
ATOM      9  C   UNL     1      -5.408  -8.801  34.783  1.00  0.00     0.093 A 
ATOM     10  C   UNL     1      -4.860  -7.544  34.650  1.00  0.00     0.134 A 
ATOM     11  C   UNL     1      -4.582  -6.763  35.778  1.00  0.00     0.107 A 
ENDROOT
BRANCH   4  12
ATOM     12  C   UNL     1      -3.821  -4.565  39.322  1.00  0.00     0.017 A 
ATOM     13  C   UNL     1      -4.222  -3.273  39.537  1.00  0.00     0.012 A 
ATOM     14  C   UNL     1      -3.134  -5.186  40.350  1.00  0.00     0.012 A 
ATOM     15  C   UNL     1      -3.955  -2.604  40.733  1.00  0.00     0.001 A 
ATOM     16  C   UNL     1      -2.854  -4.548  41.549  1.00  0.00     0.001 A 
ATOM     17  C   UNL     1      -3.269  -3.238  41.747  1.00  0.00     0.000 A 
ENDBRANCH   4  12
BRANCH  10  18
ATOM     18  O   UNL     1      -4.586  -7.060  33.393  1.00  0.00    -0.507 OA
ATOM     19  H   UNL     1      -5.309  -7.012  32.697  1.00  0.00     0.293 HD
ENDBRANCH  10  18
BRANCH   8  20
ATOM     20  O   UNL     1      -6.239 -10.562  36.181  1.00  0.00    -0.508 OA
ATOM     21  H   UNL     1      -6.115 -11.127  37.008  1.00  0.00     0.293 HD
ENDBRANCH   8  20
TORSDOF 3
ENDMDL
MODEL 3
REMARK VINA RESULT:      -5.5      1.399      2.890
REMARK SMILES O=c1cc(-c2ccccc2)oc2cc(O)cc(O)c12
REMARK SMILES IDX 1 1 2 2 3 3 4 4 11 5 12 6 13 7 14 8 16 9 17 10 19 11 5 12
REMARK SMILES IDX 6 13 10 14 7 15 9 16 8 17 18 18 15 20
REMARK H PARENT 18 19 15 21
ROOT
ATOM      1  O   UNL     1      -3.829  -4.857  34.522  1.00  0.00    -0.289 OA
ATOM      2  C   UNL     1      -4.119  -5.562  35.521  1.00  0.00     0.197 A 
ATOM      3  C   UNL     1      -3.861  -5.150  36.837  1.00  0.00     0.100 A 
ATOM      4  C   UNL     1      -4.188  -5.938  37.915  1.00  0.00     0.138 A 
ATOM      5  O   UNL     1      -4.750  -7.093  37.650  1.00  0.00    -0.456 OA
ATOM      6  C   UNL     1      -5.016  -7.532  36.445  1.00  0.00     0.146 A 
ATOM      7  C   UNL     1      -5.615  -8.768  36.230  1.00  0.00     0.094 A 
ATOM      8  C   UNL     1      -5.908  -9.258  34.981  1.00  0.00     0.123 A 
ATOM      9  C   UNL     1      -5.597  -8.500  33.874  1.00  0.00     0.093 A 
ATOM     10  C   UNL     1      -5.002  -7.269  34.044  1.00  0.00     0.134 A 
ATOM     11  C   UNL     1      -4.712  -6.787  35.326  1.00  0.00     0.107 A 
ENDROOT
BRANCH   4  12
ATOM     12  C   UNL     1      -3.922  -5.516  39.293  1.00  0.00     0.017 A 
ATOM     13  C   UNL     1      -3.170  -4.422  39.628  1.00  0.00     0.012 A 
ATOM     14  C   UNL     1      -4.455  -6.253  40.336  1.00  0.00     0.012 A 
ATOM     15  C   UNL     1      -2.944  -4.058  40.958  1.00  0.00     0.001 A 
ATOM     16  C   UNL     1      -4.248  -5.917  41.665  1.00  0.00     0.001 A 
ATOM     17  C   UNL     1      -3.483  -4.804  41.985  1.00  0.00     0.000 A 
ENDBRANCH   4  12
BRANCH  10  18
ATOM     18  O   UNL     1      -4.693  -6.514  32.939  1.00  0.00    -0.507 OA
ATOM     19  H   UNL     1      -3.841  -5.983  32.907  1.00  0.00     0.293 HD
ENDBRANCH  10  18
BRANCH   8  20
ATOM     20  O   UNL     1      -6.511 -10.507  34.814  1.00  0.00    -0.508 OA
ATOM     21  H   UNL     1      -6.589 -11.184  35.559  1.00  0.00     0.293 HD
ENDBRANCH   8  20
TORSDOF 3
ENDMDL
MODEL 4
REMARK VINA RESULT:      -5.5      1.370      3.144
REMARK SMILES O=c1cc(-c2ccccc2)oc2cc(O)cc(O)c12
REMARK SMILES IDX 1 1 2 2 3 3 4 4 11 5 12 6 13 7 14 8 16 9 17 10 19 11 5 12
REMARK SMILES IDX 6 13 10 14 7 15 9 16 8 17 18 18 15 20
REMARK H PARENT 18 19 15 21
ROOT
ATOM      1  O   UNL     1      -3.792  -5.322  34.593  1.00  0.00    -0.289 OA
ATOM      2  C   UNL     1      -4.068  -5.732  35.749  1.00  0.00     0.197 A 
ATOM      3  C   UNL     1      -3.805  -4.977  36.901  1.00  0.00     0.100 A 
ATOM      4  C   UNL     1      -4.114  -5.446  38.155  1.00  0.00     0.138 A 
ATOM      5  O   UNL     1      -4.666  -6.634  38.219  1.00  0.00    -0.456 OA
ATOM      6  C   UNL     1      -4.936  -7.386  37.180  1.00  0.00     0.146 A 
ATOM      7  C   UNL     1      -5.523  -8.639  37.315  1.00  0.00     0.094 A 
ATOM      8  C   UNL     1      -5.819  -9.452  36.248  1.00  0.00     0.123 A 
ATOM      9  C   UNL     1      -5.525  -9.020  34.975  1.00  0.00     0.093 A 
ATOM     10  C   UNL     1      -4.942  -7.784  34.799  1.00  0.00     0.134 A 
ATOM     11  C   UNL     1      -4.648  -6.969  35.899  1.00  0.00     0.107 A 
ENDROOT
BRANCH   4  12
ATOM     12  C   UNL     1      -3.844  -4.665  39.365  1.00  0.00     0.017 A 
ATOM     13  C   UNL     1      -3.042  -5.092  40.390  1.00  0.00     0.012 A 
ATOM     14  C   UNL     1      -4.421  -3.415  39.501  1.00  0.00     0.012 A 
ATOM     15  C   UNL     1      -2.812  -4.311  41.525  1.00  0.00     0.001 A 
ATOM     16  C   UNL     1      -4.212  -2.617  40.615  1.00  0.00     0.001 A 
ATOM     17  C   UNL     1      -3.396  -3.067  41.644  1.00  0.00     0.000 A 
ENDBRANCH   4  12
BRANCH  10  18
ATOM     18  O   UNL     1      -4.649  -7.353  33.527  1.00  0.00    -0.507 OA
ATOM     19  H   UNL     1      -3.890  -6.716  33.367  1.00  0.00     0.293 HD
ENDBRANCH  10  18
BRANCH   8  20
ATOM     20  O   UNL     1      -6.409 -10.705  36.432  1.00  0.00    -0.508 OA
ATOM     21  H   UNL     1      -6.083 -11.539  35.965  1.00  0.00     0.293 HD
ENDBRANCH   8  20
TORSDOF 3
ENDMDL
MODEL 5
REMARK VINA RESULT:      -5.4      2.013      6.340
REMARK SMILES O=c1cc(-c2ccccc2)oc2cc(O)cc(O)c12
REMARK SMILES IDX 1 1 2 2 3 3 4 4 11 5 12 6 13 7 14 8 16 9 17 10 19 11 5 12
REMARK SMILES IDX 6 13 10 14 7 15 9 16 8 17 18 18 15 20
REMARK H PARENT 18 19 15 21
ROOT
ATOM      1  O   UNL     1      -4.887  -9.314  39.327  1.00  0.00    -0.289 OA
ATOM      2  C   UNL     1      -4.789  -8.414  38.455  1.00  0.00     0.197 A 
ATOM      3  C   UNL     1      -5.102  -8.633  37.105  1.00  0.00     0.100 A 
ATOM      4  C   UNL     1      -4.987  -7.634  36.169  1.00  0.00     0.138 A 
ATOM      5  O   UNL     1      -4.569  -6.468  36.600  1.00  0.00    -0.456 OA
ATOM      6  C   UNL     1      -4.261  -6.202  37.846  1.00  0.00     0.146 A 
ATOM      7  C   UNL     1      -3.824  -4.944  38.241  1.00  0.00     0.094 A 
ATOM      8  C   UNL     1      -3.494  -4.632  39.538  1.00  0.00     0.123 A 
ATOM      9  C   UNL     1      -3.595  -5.604  40.507  1.00  0.00     0.093 A 
ATOM     10  C   UNL     1      -4.025  -6.865  40.156  1.00  0.00     0.134 A 
ATOM     11  C   UNL     1      -4.357  -7.164  38.829  1.00  0.00     0.107 A 
ENDROOT
BRANCH   4  12
ATOM     12  C   UNL     1      -5.311  -7.853  34.756  1.00  0.00     0.017 A 
ATOM     13  C   UNL     1      -5.417  -9.089  34.177  1.00  0.00     0.012 A 
ATOM     14  C   UNL     1      -5.530  -6.758  33.939  1.00  0.00     0.012 A 
ATOM     15  C   UNL     1      -5.729  -9.249  32.825  1.00  0.00     0.001 A 
ATOM     16  C   UNL     1      -5.841  -6.884  32.594  1.00  0.00     0.001 A 
ATOM     17  C   UNL     1      -5.944  -8.147  32.025  1.00  0.00     0.000 A 
ENDBRANCH   4  12
BRANCH  10  18
ATOM     18  O   UNL     1      -4.126  -7.835  41.125  1.00  0.00    -0.507 OA
ATOM     19  H   UNL     1      -4.835  -8.544  41.064  1.00  0.00     0.293 HD
ENDBRANCH  10  18
BRANCH   8  20
ATOM     20  O   UNL     1      -3.058  -3.352  39.888  1.00  0.00    -0.508 OA
ATOM     21  H   UNL     1      -3.596  -2.730  40.474  1.00  0.00     0.293 HD
ENDBRANCH   8  20
TORSDOF 3
ENDMDL
MODEL 6
REMARK VINA RESULT:      -5.4      2.586      6.513
REMARK SMILES O=c1cc(-c2ccccc2)oc2cc(O)cc(O)c12
REMARK SMILES IDX 1 1 2 2 3 3 4 4 11 5 12 6 13 7 14 8 16 9 17 10 19 11 5 12
REMARK SMILES IDX 6 13 10 14 7 15 9 16 8 17 18 18 15 20
REMARK H PARENT 18 19 15 21
ROOT
ATOM      1  O   UNL     1      -2.951  -5.296  40.472  1.00  0.00    -0.289 OA
ATOM      2  C   UNL     1      -3.566  -4.670  39.572  1.00  0.00     0.197 A 
ATOM      3  C   UNL     1      -3.798  -5.212  38.300  1.00  0.00     0.100 A 
ATOM      4  C   UNL     1      -4.473  -4.510  37.330  1.00  0.00     0.138 A 
ATOM      5  O   UNL     1      -4.886  -3.308  37.655  1.00  0.00    -0.456 OA
ATOM      6  C   UNL     1      -4.699  -2.748  38.824  1.00  0.00     0.146 A 
ATOM      7  C   UNL     1      -5.163  -1.468  39.107  1.00  0.00     0.094 A 
ATOM      8  C   UNL     1      -4.985  -0.852  40.322  1.00  0.00     0.123 A 
ATOM      9  C   UNL     1      -4.314  -1.522  41.320  1.00  0.00     0.093 A 
ATOM     10  C   UNL     1      -3.839  -2.792  41.080  1.00  0.00     0.134 A 
ATOM     11  C   UNL     1      -4.030  -3.403  39.835  1.00  0.00     0.107 A 
ENDROOT
BRANCH   4  12
ATOM     12  C   UNL     1      -4.721  -5.068  35.998  1.00  0.00     0.017 A 
ATOM     13  C   UNL     1      -5.946  -5.496  35.562  1.00  0.00     0.012 A 
ATOM     14  C   UNL     1      -3.667  -5.177  35.108  1.00  0.00     0.012 A 
ATOM     15  C   UNL     1      -6.135  -6.022  34.282  1.00  0.00     0.001 A 
ATOM     16  C   UNL     1      -3.823  -5.694  33.831  1.00  0.00     0.001 A 
ATOM     17  C   UNL     1      -5.074  -6.123  33.408  1.00  0.00     0.000 A 
ENDBRANCH   4  12
BRANCH  10  18
ATOM     18  O   UNL     1      -3.170  -3.460  42.078  1.00  0.00    -0.507 OA
ATOM     19  H   UNL     1      -3.676  -3.882  42.836  1.00  0.00     0.293 HD
ENDBRANCH  10  18
BRANCH   8  20
ATOM     20  O   UNL     1      -5.468   0.437  40.560  1.00  0.00    -0.508 OA
ATOM     21  H   UNL     1      -5.505   0.848  41.482  1.00  0.00     0.293 HD
ENDBRANCH   8  20
TORSDOF 3
ENDMDL
MODEL 7
REMARK VINA RESULT:      -5.3      1.423      3.120
REMARK SMILES O=c1cc(-c2ccccc2)oc2cc(O)cc(O)c12
REMARK SMILES IDX 1 1 2 2 3 3 4 4 11 5 12 6 13 7 14 8 16 9 17 10 19 11 5 12
REMARK SMILES IDX 6 13 10 14 7 15 9 16 8 17 18 18 15 20
REMARK H PARENT 18 19 15 21
ROOT
ATOM      1  O   UNL     1      -4.282  -4.640  34.302  1.00  0.00    -0.289 OA
ATOM      2  C   UNL     1      -4.446  -5.428  35.267  1.00  0.00     0.197 A 
ATOM      3  C   UNL     1      -4.142  -5.074  36.590  1.00  0.00     0.100 A 
ATOM      4  C   UNL     1      -4.330  -5.953  37.630  1.00  0.00     0.138 A 
ATOM      5  O   UNL     1      -4.805  -7.136  37.323  1.00  0.00    -0.456 OA
ATOM      6  C   UNL     1      -5.107  -7.524  36.109  1.00  0.00     0.146 A 
ATOM      7  C   UNL     1      -5.608  -8.794  35.848  1.00  0.00     0.094 A 
ATOM      8  C   UNL     1      -5.936  -9.232  34.588  1.00  0.00     0.123 A 
ATOM      9  C   UNL     1      -5.763  -8.383  33.518  1.00  0.00     0.093 A 
ATOM     10  C   UNL     1      -5.268  -7.116  33.734  1.00  0.00     0.134 A 
ATOM     11  C   UNL     1      -4.941  -6.688  35.026  1.00  0.00     0.107 A 
ENDROOT
BRANCH   4  12
ATOM     12  C   UNL     1      -4.015  -5.593  39.016  1.00  0.00     0.017 A 
ATOM     13  C   UNL     1      -4.339  -6.364  40.101  1.00  0.00     0.012 A 
ATOM     14  C   UNL     1      -3.350  -4.406  39.268  1.00  0.00     0.012 A 
ATOM     15  C   UNL     1      -4.018  -5.980  41.405  1.00  0.00     0.001 A 
ATOM     16  C   UNL     1      -3.018  -3.998  40.550  1.00  0.00     0.001 A 
ATOM     17  C   UNL     1      -3.355  -4.794  41.637  1.00  0.00     0.000 A 
ENDBRANCH   4  12
BRANCH  10  18
ATOM     18  O   UNL     1      -5.097  -6.270  32.665  1.00  0.00    -0.507 OA
ATOM     19  H   UNL     1      -4.422  -5.527  32.707  1.00  0.00     0.293 HD
ENDBRANCH  10  18
BRANCH   8  20
ATOM     20  O   UNL     1      -6.436 -10.519  34.374  1.00  0.00    -0.508 OA
ATOM     21  H   UNL     1      -6.782 -11.105  35.120  1.00  0.00     0.293 HD
ENDBRANCH   8  20
TORSDOF 3
ENDMDL
MODEL 8
REMARK VINA RESULT:      -5.3      2.561      6.471
REMARK SMILES O=c1cc(-c2ccccc2)oc2cc(O)cc(O)c12
REMARK SMILES IDX 1 1 2 2 3 3 4 4 11 5 12 6 13 7 14 8 16 9 17 10 19 11 5 12
REMARK SMILES IDX 6 13 10 14 7 15 9 16 8 17 18 18 15 20
REMARK H PARENT 18 19 15 21
ROOT
ATOM      1  O   UNL     1      -3.038  -5.371  40.493  1.00  0.00    -0.289 OA
ATOM      2  C   UNL     1      -3.608  -4.728  39.576  1.00  0.00     0.197 A 
ATOM      3  C   UNL     1      -3.799  -5.255  38.291  1.00  0.00     0.100 A 
ATOM      4  C   UNL     1      -4.425  -4.533  37.302  1.00  0.00     0.138 A 
ATOM      5  O   UNL     1      -4.833  -3.329  37.623  1.00  0.00    -0.456 OA
ATOM      6  C   UNL     1      -4.684  -2.782  38.804  1.00  0.00     0.146 A 
ATOM      7  C   UNL     1      -5.140  -1.499  39.081  1.00  0.00     0.094 A 
ATOM      8  C   UNL     1      -5.001  -0.897  40.308  1.00  0.00     0.123 A 
ATOM      9  C   UNL     1      -4.379  -1.585  41.325  1.00  0.00     0.093 A 
ATOM     10  C   UNL     1      -3.912  -2.860  41.091  1.00  0.00     0.134 A 
ATOM     11  C   UNL     1      -4.064  -3.457  39.833  1.00  0.00     0.107 A 
ENDROOT
BRANCH   4  12
ATOM     12  C   UNL     1      -4.629  -5.075  35.956  1.00  0.00     0.017 A 
ATOM     13  C   UNL     1      -3.637  -5.192  35.018  1.00  0.00     0.012 A 
ATOM     14  C   UNL     1      -5.892  -5.504  35.588  1.00  0.00     0.012 A 
ATOM     15  C   UNL     1      -3.879  -5.716  33.746  1.00  0.00     0.001 A 
ATOM     16  C   UNL     1      -6.163  -6.028  34.334  1.00  0.00     0.001 A 
ATOM     17  C   UNL     1      -5.144  -6.137  33.396  1.00  0.00     0.000 A 
ENDBRANCH   4  12
BRANCH  10  18
ATOM     18  O   UNL     1      -3.292  -3.547  42.108  1.00  0.00    -0.507 OA
ATOM     19  H   UNL     1      -3.812  -3.837  42.916  1.00  0.00     0.293 HD
ENDBRANCH  10  18
BRANCH   8  20
ATOM     20  O   UNL     1      -5.475   0.397  40.540  1.00  0.00    -0.508 OA
ATOM     21  H   UNL     1      -6.455   0.637  40.506  1.00  0.00     0.293 HD
ENDBRANCH   8  20
TORSDOF 3
ENDMDL
MODEL 9
REMARK VINA RESULT:      -5.3      1.335      1.888
REMARK SMILES O=c1cc(-c2ccccc2)oc2cc(O)cc(O)c12
REMARK SMILES IDX 1 1 2 2 3 3 4 4 11 5 12 6 13 7 14 8 16 9 17 10 19 11 5 12
REMARK SMILES IDX 6 13 10 14 7 15 9 16 8 17 18 18 15 20
REMARK H PARENT 18 19 15 21
ROOT
ATOM      1  O   UNL     1      -5.888  -9.907  37.992  1.00  0.00    -0.289 OA
ATOM      2  C   UNL     1      -5.395  -8.757  37.877  1.00  0.00     0.197 A 
ATOM      3  C   UNL     1      -5.002  -7.991  38.984  1.00  0.00     0.100 A 
ATOM      4  C   UNL     1      -4.465  -6.734  38.835  1.00  0.00     0.138 A 
ATOM      5  O   UNL     1      -4.341  -6.289  37.608  1.00  0.00    -0.456 OA
ATOM      6  C   UNL     1      -4.690  -6.957  36.536  1.00  0.00     0.146 A 
ATOM      7  C   UNL     1      -4.532  -6.429  35.260  1.00  0.00     0.094 A 
ATOM      8  C   UNL     1      -4.886  -7.101  34.116  1.00  0.00     0.123 A 
ATOM      9  C   UNL     1      -5.428  -8.363  34.221  1.00  0.00     0.093 A 
ATOM     10  C   UNL     1      -5.601  -8.921  35.468  1.00  0.00     0.134 A 
ATOM     11  C   UNL     1      -5.233  -8.220  36.622  1.00  0.00     0.107 A 
ENDROOT
BRANCH   4  12
ATOM     12  C   UNL     1      -4.051  -5.926  39.986  1.00  0.00     0.017 A 
ATOM     13  C   UNL     1      -4.436  -6.175  41.276  1.00  0.00     0.012 A 
ATOM     14  C   UNL     1      -3.219  -4.840  39.779  1.00  0.00     0.012 A 
ATOM     15  C   UNL     1      -4.015  -5.376  42.342  1.00  0.00     0.001 A 
ATOM     16  C   UNL     1      -2.784  -4.029  40.817  1.00  0.00     0.001 A 
ATOM     17  C   UNL     1      -3.186  -4.298  42.118  1.00  0.00     0.000 A 
ENDBRANCH   4  12
BRANCH  10  18
ATOM     18  O   UNL     1      -6.141 -10.181  35.571  1.00  0.00    -0.507 OA
ATOM     19  H   UNL     1      -7.007 -10.325  36.058  1.00  0.00     0.293 HD
ENDBRANCH  10  18
BRANCH   8  20
ATOM     20  O   UNL     1      -4.710  -6.530  32.853  1.00  0.00    -0.508 OA
ATOM     21  H   UNL     1      -5.094  -6.931  32.010  1.00  0.00     0.293 HD
ENDBRANCH   8  20
TORSDOF 3
ENDMDL
