MODEL 1
REMARK VINA RESULT:      -8.3      0.000      0.000
REMARK SMILES O=C(CCC[NH+]1CCC(O)(c2ccc(Cl)cc2)CC1)c1ccc(F)cc1
REMARK SMILES IDX 4 1 3 2 2 3 1 4 20 5 21 6 26 7 22 8 25 9 23 10 24 11 5 12
REMARK SMILES IDX 6 13 7 14 19 15 8 16 18 17 9 18 10 20 11 22 12 23 17 24
REMARK SMILES IDX 13 25 16 26 14 27 15 28
REMARK H PARENT 6 19 10 21
ROOT
ATOM      1  C   UNL     1     -15.044  19.849 -17.363  1.00  0.00     0.070 C 
ENDROOT
BRANCH   1   2
ATOM      2  C   UNL     1     -13.963  20.116 -16.339  1.00  0.00     0.087 C 
BRANCH   2   3
ATOM      3  C   UNL     1     -12.812  20.858 -16.858  1.00  0.00     0.163 C 
ATOM      4  O   UNL     1     -12.644  21.031 -18.093  1.00  0.00    -0.294 OA
BRANCH   3   5
ATOM      5  C   UNL     1     -11.786  21.448 -15.973  1.00  0.00     0.018 A 
ATOM      6  C   UNL     1     -11.170  20.679 -15.002  1.00  0.00     0.015 A 
ATOM      7  C   UNL     1     -11.421  22.764 -16.093  1.00  0.00     0.015 A 
ATOM      8  C   UNL     1     -10.217  21.233 -14.182  1.00  0.00     0.040 A 
ATOM      9  C   UNL     1     -10.472  23.324 -15.280  1.00  0.00     0.040 A 
ATOM     10  C   UNL     1      -9.870  22.553 -14.323  1.00  0.00     0.123 A 
ATOM     11  F   UNL     1      -8.926  23.148 -13.526  1.00  0.00    -0.207 F 
ENDBRANCH   3   5
ENDBRANCH   2   3
ENDBRANCH   1   2
BRANCH   1  12
ATOM     12  C   UNL     1     -15.209  18.374 -17.499  1.00  0.00     0.262 C 
BRANCH  12  13
ATOM     13  N   UNL     1     -16.602  17.953 -17.413  1.00  0.00    -0.335 N 
ATOM     14  C   UNL     1     -16.806  16.631 -17.924  1.00  0.00     0.265 C 
ATOM     15  C   UNL     1     -17.062  18.052 -16.066  1.00  0.00     0.265 C 
ATOM     16  C   UNL     1     -15.993  15.615 -17.169  1.00  0.00     0.102 C 
ATOM     17  C   UNL     1     -17.224  16.796 -15.320  1.00  0.00     0.102 C 
ATOM     18  C   UNL     1     -16.400  15.631 -15.726  1.00  0.00     0.100 C 
ATOM     19  H   UNL     1     -17.121  18.610 -18.067  1.00  0.00     0.348 HD
BRANCH  18  20
ATOM     20  O   UNL     1     -17.197  14.475 -15.535  1.00  0.00    -0.385 OA
ATOM     21  H   UNL     1     -16.812  13.992 -14.761  1.00  0.00     0.211 HD
ENDBRANCH  18  20
BRANCH  18  22
ATOM     22  C   UNL     1     -15.216  15.412 -14.821  1.00  0.00    -0.016 A 
ATOM     23  C   UNL     1     -15.128  14.320 -13.982  1.00  0.00     0.008 A 
ATOM     24  C   UNL     1     -14.151  16.284 -14.772  1.00  0.00     0.008 A 
ATOM     25  C   UNL     1     -14.065  14.084 -13.140  1.00  0.00     0.021 A 
ATOM     26  C   UNL     1     -13.074  16.068 -13.935  1.00  0.00     0.021 A 
ATOM     27  C   UNL     1     -13.032  14.969 -13.120  1.00  0.00     0.041 A 
ATOM     28  Cl  UNL     1     -11.672  14.687 -12.060  1.00  0.00    -0.084 Cl
ENDBRANCH  18  22
ENDBRANCH  12  13
ENDBRANCH   1  12
TORSDOF 7
ENDMDL
MODEL 2
REMARK VINA RESULT:      -8.1      1.107      1.494
REMARK SMILES O=C(CCC[NH+]1CCC(O)(c2ccc(Cl)cc2)CC1)c1ccc(F)cc1
REMARK SMILES IDX 4 1 3 2 2 3 1 4 20 5 21 6 26 7 22 8 25 9 23 10 24 11 5 12
REMARK SMILES IDX 6 13 7 14 19 15 8 16 18 17 9 18 10 20 11 22 12 23 17 24
REMARK SMILES IDX 13 25 16 26 14 27 15 28
REMARK H PARENT 6 19 10 21
ROOT
ATOM      1  C   UNL     1     -14.445  19.794 -16.207  1.00  0.00     0.070 C 
ENDROOT
BRANCH   1   2
ATOM      2  C   UNL     1     -13.353  20.810 -16.459  1.00  0.00     0.087 C 
BRANCH   2   3
ATOM      3  C   UNL     1     -12.222  20.721 -15.533  1.00  0.00     0.163 C 
ATOM      4  O   UNL     1     -12.052  19.714 -14.798  1.00  0.00    -0.294 OA
BRANCH   3   5
ATOM      5  C   UNL     1     -11.217  21.798 -15.405  1.00  0.00     0.018 A 
ATOM      6  C   UNL     1     -11.058  22.733 -16.412  1.00  0.00     0.015 A 
ATOM      7  C   UNL     1     -10.423  21.894 -14.291  1.00  0.00     0.015 A 
ATOM      8  C   UNL     1     -10.122  23.732 -16.286  1.00  0.00     0.040 A 
ATOM      9  C   UNL     1      -9.488  22.886 -14.159  1.00  0.00     0.040 A 
ATOM     10  C   UNL     1      -9.340  23.806 -15.161  1.00  0.00     0.123 A 
ATOM     11  F   UNL     1      -8.393  24.782 -14.994  1.00  0.00    -0.207 F 
ENDBRANCH   3   5
ENDBRANCH   2   3
ENDBRANCH   1   2
BRANCH   1  12
ATOM     12  C   UNL     1     -14.759  19.111 -17.494  1.00  0.00     0.262 C 
BRANCH  12  13
ATOM     13  N   UNL     1     -16.164  18.742 -17.608  1.00  0.00    -0.335 N 
ATOM     14  C   UNL     1     -16.348  17.486 -18.269  1.00  0.00     0.265 C 
ATOM     15  C   UNL     1     -16.775  18.731 -16.319  1.00  0.00     0.265 C 
ATOM     16  C   UNL     1     -15.661  16.369 -17.535  1.00  0.00     0.102 C 
ATOM     17  C   UNL     1     -17.061  17.417 -15.726  1.00  0.00     0.102 C 
ATOM     18  C   UNL     1     -16.232  16.262 -16.152  1.00  0.00     0.100 C 
ATOM     19  H   UNL     1     -16.583  19.482 -18.247  1.00  0.00     0.348 HD
BRANCH  18  20
ATOM     20  O   UNL     1     -17.081  15.128 -16.169  1.00  0.00    -0.385 OA
ATOM     21  H   UNL     1     -17.925  15.414 -16.602  1.00  0.00     0.211 HD
ENDBRANCH  18  20
BRANCH  18  22
ATOM     22  C   UNL     1     -15.169  15.907 -15.146  1.00  0.00    -0.016 A 
ATOM     23  C   UNL     1     -15.202  14.727 -14.433  1.00  0.00     0.008 A 
ATOM     24  C   UNL     1     -14.102  16.733 -14.874  1.00  0.00     0.008 A 
ATOM     25  C   UNL     1     -14.252  14.365 -13.505  1.00  0.00     0.021 A 
ATOM     26  C   UNL     1     -13.136  16.392 -13.947  1.00  0.00     0.021 A 
ATOM     27  C   UNL     1     -13.212  15.209 -13.264  1.00  0.00     0.041 A 
ATOM     28  Cl  UNL     1     -11.994  14.768 -12.092  1.00  0.00    -0.084 Cl
ENDBRANCH  18  22
ENDBRANCH  12  13
ENDBRANCH   1  12
TORSDOF 7
ENDMDL
MODEL 3
REMARK VINA RESULT:      -7.9      1.058      1.815
REMARK SMILES O=C(CCC[NH+]1CCC(O)(c2ccc(Cl)cc2)CC1)c1ccc(F)cc1
REMARK SMILES IDX 4 1 3 2 2 3 1 4 20 5 21 6 26 7 22 8 25 9 23 10 24 11 5 12
REMARK SMILES IDX 6 13 7 14 19 15 8 16 18 17 9 18 10 20 11 22 12 23 17 24
REMARK SMILES IDX 13 25 16 26 14 27 15 28
REMARK H PARENT 6 19 10 21
ROOT
ATOM      1  C   UNL     1     -13.983  20.477 -16.744  1.00  0.00     0.070 C 
ENDROOT
BRANCH   1   2
ATOM      2  C   UNL     1     -12.598  20.682 -16.173  1.00  0.00     0.087 C 
BRANCH   2   3
ATOM      3  C   UNL     1     -11.905  21.866 -16.683  1.00  0.00     0.163 C 
ATOM      4  O   UNL     1     -12.102  22.291 -17.851  1.00  0.00    -0.294 OA
BRANCH   3   5
ATOM      5  C   UNL     1     -10.939  22.632 -15.867  1.00  0.00     0.018 A 
ATOM      6  C   UNL     1     -10.273  23.719 -16.403  1.00  0.00     0.015 A 
ATOM      7  C   UNL     1     -10.683  22.285 -14.565  1.00  0.00     0.015 A 
ATOM      8  C   UNL     1      -9.376  24.427 -15.638  1.00  0.00     0.040 A 
ATOM      9  C   UNL     1      -9.791  22.985 -13.797  1.00  0.00     0.040 A 
ATOM     10  C   UNL     1      -9.139  24.058 -14.338  1.00  0.00     0.123 A 
ATOM     11  F   UNL     1      -8.252  24.733 -13.539  1.00  0.00    -0.207 F 
ENDBRANCH   3   5
ENDBRANCH   2   3
ENDBRANCH   1   2
BRANCH   1  12
ATOM     12  C   UNL     1     -14.553  19.228 -16.163  1.00  0.00     0.262 C 
BRANCH  12  13
ATOM     13  N   UNL     1     -15.835  18.866 -16.753  1.00  0.00    -0.335 N 
ATOM     14  C   UNL     1     -15.699  17.923 -17.821  1.00  0.00     0.265 C 
ATOM     15  C   UNL     1     -16.715  18.368 -15.746  1.00  0.00     0.265 C 
ATOM     16  C   UNL     1     -15.056  16.647 -17.354  1.00  0.00     0.102 C 
ATOM     17  C   UNL     1     -16.954  16.917 -15.724  1.00  0.00     0.102 C 
ATOM     18  C   UNL     1     -15.906  16.028 -16.285  1.00  0.00     0.100 C 
ATOM     19  H   UNL     1     -16.192  19.767 -17.191  1.00  0.00     0.348 HD
BRANCH  18  20
ATOM     20  O   UNL     1     -16.574  14.941 -16.900  1.00  0.00    -0.385 OA
ATOM     21  H   UNL     1     -16.072  14.733 -17.728  1.00  0.00     0.211 HD
ENDBRANCH  18  20
BRANCH  18  22
ATOM     22  C   UNL     1     -15.061  15.382 -15.219  1.00  0.00    -0.016 A 
ATOM     23  C   UNL     1     -13.876  15.939 -14.786  1.00  0.00     0.008 A 
ATOM     24  C   UNL     1     -15.416  14.198 -14.610  1.00  0.00     0.008 A 
ATOM     25  C   UNL     1     -13.075  15.381 -13.816  1.00  0.00     0.021 A 
ATOM     26  C   UNL     1     -14.629  13.619 -13.634  1.00  0.00     0.021 A 
ATOM     27  C   UNL     1     -13.460  14.211 -13.238  1.00  0.00     0.041 A 
ATOM     28  Cl  UNL     1     -12.459  13.486 -12.003  1.00  0.00    -0.084 Cl
ENDBRANCH  18  22
ENDBRANCH  12  13
ENDBRANCH   1  12
TORSDOF 7
ENDMDL
MODEL 4
REMARK VINA RESULT:      -7.9      0.646      1.189
REMARK SMILES O=C(CCC[NH+]1CCC(O)(c2ccc(Cl)cc2)CC1)c1ccc(F)cc1
REMARK SMILES IDX 4 1 3 2 2 3 1 4 20 5 21 6 26 7 22 8 25 9 23 10 24 11 5 12
REMARK SMILES IDX 6 13 7 14 19 15 8 16 18 17 9 18 10 20 11 22 12 23 17 24
REMARK SMILES IDX 13 25 16 26 14 27 15 28
REMARK H PARENT 6 19 10 21
ROOT
ATOM      1  C   UNL     1     -15.280  19.259 -16.991  1.00  0.00     0.070 C 
ENDROOT
BRANCH   1   2
ATOM      2  C   UNL     1     -13.976  19.515 -16.267  1.00  0.00     0.087 C 
BRANCH   2   3
ATOM      3  C   UNL     1     -13.140  20.550 -16.879  1.00  0.00     0.163 C 
ATOM      4  O   UNL     1     -13.300  20.901 -18.077  1.00  0.00    -0.294 OA
BRANCH   3   5
ATOM      5  C   UNL     1     -12.067  21.243 -16.136  1.00  0.00     0.018 A 
ATOM      6  C   UNL     1     -11.817  22.586 -16.352  1.00  0.00     0.015 A 
ATOM      7  C   UNL     1     -11.298  20.574 -15.218  1.00  0.00     0.015 A 
ATOM      8  C   UNL     1     -10.817  23.224 -15.657  1.00  0.00     0.040 A 
ATOM      9  C   UNL     1     -10.300  21.202 -14.522  1.00  0.00     0.040 A 
ATOM     10  C   UNL     1     -10.062  22.531 -14.745  1.00  0.00     0.123 A 
ATOM     11  F   UNL     1      -9.054  23.125 -14.031  1.00  0.00    -0.207 F 
ENDBRANCH   3   5
ENDBRANCH   2   3
ENDBRANCH   1   2
BRANCH   1  12
ATOM     12  C   UNL     1     -16.313  18.887 -15.983  1.00  0.00     0.262 C 
BRANCH  12  13
ATOM     13  N   UNL     1     -17.338  18.006 -16.526  1.00  0.00    -0.335 N 
ATOM     14  C   UNL     1     -16.836  17.155 -17.562  1.00  0.00     0.265 C 
ATOM     15  C   UNL     1     -17.928  17.235 -15.480  1.00  0.00     0.265 C 
ATOM     16  C   UNL     1     -15.721  16.276 -17.064  1.00  0.00     0.102 C 
ATOM     17  C   UNL     1     -17.550  15.817 -15.398  1.00  0.00     0.102 C 
ATOM     18  C   UNL     1     -16.234  15.411 -15.952  1.00  0.00     0.100 C 
ATOM     19  H   UNL     1     -18.036  18.661 -16.988  1.00  0.00     0.348 HD
BRANCH  18  20
ATOM     20  O   UNL     1     -16.402  14.120 -16.510  1.00  0.00    -0.385 OA
ATOM     21  H   UNL     1     -17.188  14.171 -17.110  1.00  0.00     0.211 HD
ENDBRANCH  18  20
BRANCH  18  22
ATOM     22  C   UNL     1     -15.190  15.215 -14.884  1.00  0.00    -0.016 A 
ATOM     23  C   UNL     1     -15.209  14.130 -14.033  1.00  0.00     0.008 A 
ATOM     24  C   UNL     1     -14.155  16.102 -14.690  1.00  0.00     0.008 A 
ATOM     25  C   UNL     1     -14.275  13.914 -13.045  1.00  0.00     0.021 A 
ATOM     26  C   UNL     1     -13.207  15.907 -13.705  1.00  0.00     0.021 A 
ATOM     27  C   UNL     1     -13.268  14.814 -12.884  1.00  0.00     0.041 A 
ATOM     28  Cl  UNL     1     -12.071  14.558 -11.637  1.00  0.00    -0.084 Cl
ENDBRANCH  18  22
ENDBRANCH  12  13
ENDBRANCH   1  12
TORSDOF 7
ENDMDL
MODEL 5
REMARK VINA RESULT:      -7.8      1.172      1.670
REMARK SMILES O=C(CCC[NH+]1CCC(O)(c2ccc(Cl)cc2)CC1)c1ccc(F)cc1
REMARK SMILES IDX 4 1 3 2 2 3 1 4 20 5 21 6 26 7 22 8 25 9 23 10 24 11 5 12
REMARK SMILES IDX 6 13 7 14 19 15 8 16 18 17 9 18 10 20 11 22 12 23 17 24
REMARK SMILES IDX 13 25 16 26 14 27 15 28
REMARK H PARENT 6 19 10 21
ROOT
ATOM      1  C   UNL     1     -14.151  20.657 -16.638  1.00  0.00     0.070 C 
ENDROOT
BRANCH   1   2
ATOM      2  C   UNL     1     -12.704  21.015 -16.895  1.00  0.00     0.087 C 
BRANCH   2   3
ATOM      3  C   UNL     1     -11.855  20.988 -15.701  1.00  0.00     0.163 C 
ATOM      4  O   UNL     1     -11.894  20.028 -14.889  1.00  0.00    -0.294 OA
BRANCH   3   5
ATOM      5  C   UNL     1     -10.907  22.075 -15.379  1.00  0.00     0.018 A 
ATOM      6  C   UNL     1     -10.304  22.135 -14.135  1.00  0.00     0.015 A 
ATOM      7  C   UNL     1     -10.603  23.044 -16.300  1.00  0.00     0.015 A 
ATOM      8  C   UNL     1      -9.424  23.149 -13.842  1.00  0.00     0.040 A 
ATOM      9  C   UNL     1      -9.726  24.057 -16.015  1.00  0.00     0.040 A 
ATOM     10  C   UNL     1      -9.137  24.106 -14.782  1.00  0.00     0.123 A 
ATOM     11  F   UNL     1      -8.267  25.136 -14.533  1.00  0.00    -0.207 F 
ENDBRANCH   3   5
ENDBRANCH   2   3
ENDBRANCH   1   2
BRANCH   1  12
ATOM     12  C   UNL     1     -14.348  19.221 -16.982  1.00  0.00     0.262 C 
BRANCH  12  13
ATOM     13  N   UNL     1     -15.734  18.903 -17.301  1.00  0.00    -0.335 N 
ATOM     14  C   UNL     1     -15.853  17.737 -18.121  1.00  0.00     0.265 C 
ATOM     15  C   UNL     1     -16.494  18.759 -16.101  1.00  0.00     0.265 C 
ATOM     16  C   UNL     1     -15.270  16.525 -17.448  1.00  0.00     0.102 C 
ATOM     17  C   UNL     1     -16.863  17.393 -15.703  1.00  0.00     0.102 C 
ATOM     18  C   UNL     1     -16.002  16.274 -16.163  1.00  0.00     0.100 C 
ATOM     19  H   UNL     1     -16.066  19.722 -17.893  1.00  0.00     0.348 HD
BRANCH  18  20
ATOM     20  O   UNL     1     -16.856  15.172 -16.411  1.00  0.00    -0.385 OA
ATOM     21  H   UNL     1     -17.433  15.076 -15.613  1.00  0.00     0.211 HD
ENDBRANCH  18  20
BRANCH  18  22
ATOM     22  C   UNL     1     -15.070  15.779 -15.089  1.00  0.00    -0.016 A 
ATOM     23  C   UNL     1     -13.923  16.463 -14.743  1.00  0.00     0.008 A 
ATOM     24  C   UNL     1     -15.301  14.618 -14.385  1.00  0.00     0.008 A 
ATOM     25  C   UNL     1     -13.045  16.045 -13.769  1.00  0.00     0.021 A 
ATOM     26  C   UNL     1     -14.435  14.179 -13.404  1.00  0.00     0.021 A 
ATOM     27  C   UNL     1     -13.309  14.893 -13.096  1.00  0.00     0.041 A 
ATOM     28  Cl  UNL     1     -12.208  14.345 -11.854  1.00  0.00    -0.084 Cl
ENDBRANCH  18  22
ENDBRANCH  12  13
ENDBRANCH   1  12
TORSDOF 7
ENDMDL
MODEL 6
REMARK VINA RESULT:      -7.5      1.429      1.796
REMARK SMILES O=C(CCC[NH+]1CCC(O)(c2ccc(Cl)cc2)CC1)c1ccc(F)cc1
REMARK SMILES IDX 4 1 3 2 2 3 1 4 20 5 21 6 26 7 22 8 25 9 23 10 24 11 5 12
REMARK SMILES IDX 6 13 7 14 19 15 8 16 18 17 9 18 10 20 11 22 12 23 17 24
REMARK SMILES IDX 13 25 16 26 14 27 15 28
REMARK H PARENT 6 19 10 21
ROOT
ATOM      1  C   UNL     1     -13.790  20.006 -17.031  1.00  0.00     0.070 C 
ENDROOT
BRANCH   1   2
ATOM      2  C   UNL     1     -13.269  21.255 -16.356  1.00  0.00     0.087 C 
BRANCH   2   3
ATOM      3  C   UNL     1     -12.047  21.054 -15.576  1.00  0.00     0.163 C 
ATOM      4  O   UNL     1     -11.795  19.953 -15.021  1.00  0.00    -0.294 OA
BRANCH   3   5
ATOM      5  C   UNL     1     -11.039  22.120 -15.393  1.00  0.00     0.018 A 
ATOM      6  C   UNL     1     -10.375  22.259 -14.188  1.00  0.00     0.015 A 
ATOM      7  C   UNL     1     -10.741  22.992 -16.408  1.00  0.00     0.015 A 
ATOM      8  C   UNL     1      -9.440  23.253 -14.024  1.00  0.00     0.040 A 
ATOM      9  C   UNL     1      -9.810  23.984 -16.253  1.00  0.00     0.040 A 
ATOM     10  C   UNL     1      -9.160  24.111 -15.056  1.00  0.00     0.123 A 
ATOM     11  F   UNL     1      -8.237  25.118 -14.938  1.00  0.00    -0.207 F 
ENDBRANCH   3   5
ENDBRANCH   2   3
ENDBRANCH   1   2
BRANCH   1  12
ATOM     12  C   UNL     1     -14.985  19.528 -16.281  1.00  0.00     0.262 C 
BRANCH  12  13
ATOM     13  N   UNL     1     -16.123  19.254 -17.148  1.00  0.00    -0.335 N 
ATOM     14  C   UNL     1     -15.772  18.436 -18.269  1.00  0.00     0.265 C 
ATOM     15  C   UNL     1     -17.181  18.658 -16.398  1.00  0.00     0.265 C 
ATOM     16  C   UNL     1     -15.223  17.105 -17.832  1.00  0.00     0.102 C 
ATOM     17  C   UNL     1     -17.408  17.218 -16.588  1.00  0.00     0.102 C 
ATOM     18  C   UNL     1     -16.263  16.382 -17.029  1.00  0.00     0.100 C 
ATOM     19  H   UNL     1     -16.393  20.203 -17.543  1.00  0.00     0.348 HD
BRANCH  18  20
ATOM     20  O   UNL     1     -16.788  15.382 -17.883  1.00  0.00    -0.385 OA
ATOM     21  H   UNL     1     -16.565  15.654 -18.808  1.00  0.00     0.211 HD
ENDBRANCH  18  20
BRANCH  18  22
ATOM     22  C   UNL     1     -15.641  15.607 -15.898  1.00  0.00    -0.016 A 
ATOM     23  C   UNL     1     -16.133  14.385 -15.490  1.00  0.00     0.008 A 
ATOM     24  C   UNL     1     -14.545  16.067 -15.200  1.00  0.00     0.008 A 
ATOM     25  C   UNL     1     -15.594  13.646 -14.461  1.00  0.00     0.021 A 
ATOM     26  C   UNL     1     -13.988  15.343 -14.165  1.00  0.00     0.021 A 
ATOM     27  C   UNL     1     -14.512  14.133 -13.797  1.00  0.00     0.041 A 
ATOM     28  Cl  UNL     1     -13.812  13.210 -12.489  1.00  0.00    -0.084 Cl
ENDBRANCH  18  22
ENDBRANCH  12  13
ENDBRANCH   1  12
TORSDOF 7
ENDMDL
MODEL 7
REMARK VINA RESULT:      -7.5      0.904      1.590
REMARK SMILES O=C(CCC[NH+]1CCC(O)(c2ccc(Cl)cc2)CC1)c1ccc(F)cc1
REMARK SMILES IDX 4 1 3 2 2 3 1 4 20 5 21 6 26 7 22 8 25 9 23 10 24 11 5 12
REMARK SMILES IDX 6 13 7 14 19 15 8 16 18 17 9 18 10 20 11 22 12 23 17 24
REMARK SMILES IDX 13 25 16 26 14 27 15 28
REMARK H PARENT 6 19 10 21
ROOT
ATOM      1  C   UNL     1     -14.931  19.336 -17.881  1.00  0.00     0.070 C 
ENDROOT
BRANCH   1   2
ATOM      2  C   UNL     1     -14.051  20.503 -17.493  1.00  0.00     0.087 C 
BRANCH   2   3
ATOM      3  C   UNL     1     -13.390  20.355 -16.194  1.00  0.00     0.163 C 
ATOM      4  O   UNL     1     -13.804  19.532 -15.336  1.00  0.00    -0.294 OA
BRANCH   3   5
ATOM      5  C   UNL     1     -12.206  21.152 -15.812  1.00  0.00     0.018 A 
ATOM      6  C   UNL     1     -12.012  22.417 -16.337  1.00  0.00     0.015 A 
ATOM      7  C   UNL     1     -11.276  20.660 -14.933  1.00  0.00     0.015 A 
ATOM      8  C   UNL     1     -10.908  23.154 -15.978  1.00  0.00     0.040 A 
ATOM      9  C   UNL     1     -10.174  21.387 -14.570  1.00  0.00     0.040 A 
ATOM     10  C   UNL     1      -9.993  22.637 -15.096  1.00  0.00     0.123 A 
ATOM     11  F   UNL     1      -8.877  23.334 -14.712  1.00  0.00    -0.207 F 
ENDBRANCH   3   5
ENDBRANCH   2   3
ENDBRANCH   1   2
BRANCH   1  12
ATOM     12  C   UNL     1     -15.703  18.909 -16.680  1.00  0.00     0.262 C 
BRANCH  12  13
ATOM     13  N   UNL     1     -16.900  18.149 -17.020  1.00  0.00    -0.335 N 
ATOM     14  C   UNL     1     -16.620  17.051 -17.894  1.00  0.00     0.265 C 
ATOM     15  C   UNL     1     -17.550  17.699 -15.833  1.00  0.00     0.265 C 
ATOM     16  C   UNL     1     -15.649  16.084 -17.274  1.00  0.00     0.102 C 
ATOM     17  C   UNL     1     -17.424  16.273 -15.500  1.00  0.00     0.102 C 
ATOM     18  C   UNL     1     -16.237  15.540 -16.006  1.00  0.00     0.100 C 
ATOM     19  H   UNL     1     -17.499  18.830 -17.576  1.00  0.00     0.348 HD
BRANCH  18  20
ATOM     20  O   UNL     1     -16.664  14.224 -16.309  1.00  0.00    -0.385 OA
ATOM     21  H   UNL     1     -15.844  13.685 -16.442  1.00  0.00     0.211 HD
ENDBRANCH  18  20
BRANCH  18  22
ATOM     22  C   UNL     1     -15.180  15.347 -14.951  1.00  0.00    -0.016 A 
ATOM     23  C   UNL     1     -14.094  16.191 -14.840  1.00  0.00     0.008 A 
ATOM     24  C   UNL     1     -15.229  14.322 -14.032  1.00  0.00     0.008 A 
ATOM     25  C   UNL     1     -13.107  16.049 -13.892  1.00  0.00     0.021 A 
ATOM     26  C   UNL     1     -14.250  14.160 -13.072  1.00  0.00     0.021 A 
ATOM     27  C   UNL     1     -13.191  15.024 -13.002  1.00  0.00     0.041 A 
ATOM     28  Cl  UNL     1     -11.949  14.827 -11.789  1.00  0.00    -0.084 Cl
ENDBRANCH  18  22
ENDBRANCH  12  13
ENDBRANCH   1  12
TORSDOF 7
ENDMDL
MODEL 8
REMARK VINA RESULT:      -7.5      1.146      1.581
REMARK SMILES O=C(CCC[NH+]1CCC(O)(c2ccc(Cl)cc2)CC1)c1ccc(F)cc1
REMARK SMILES IDX 4 1 3 2 2 3 1 4 20 5 21 6 26 7 22 8 25 9 23 10 24 11 5 12
REMARK SMILES IDX 6 13 7 14 19 15 8 16 18 17 9 18 10 20 11 22 12 23 17 24
REMARK SMILES IDX 13 25 16 26 14 27 15 28
REMARK H PARENT 6 19 10 21
ROOT
ATOM      1  C   UNL     1     -15.177  18.725 -17.149  1.00  0.00     0.070 C 
ENDROOT
BRANCH   1   2
ATOM      2  C   UNL     1     -14.509  20.076 -17.022  1.00  0.00     0.087 C 
BRANCH   2   3
ATOM      3  C   UNL     1     -13.454  20.134 -16.008  1.00  0.00     0.163 C 
ATOM      4  O   UNL     1     -13.414  19.314 -15.054  1.00  0.00    -0.294 OA
BRANCH   3   5
ATOM      5  C   UNL     1     -12.380  21.148 -16.039  1.00  0.00     0.018 A 
ATOM      6  C   UNL     1     -12.448  22.216 -16.916  1.00  0.00     0.015 A 
ATOM      7  C   UNL     1     -11.296  21.056 -15.205  1.00  0.00     0.015 A 
ATOM      8  C   UNL     1     -11.446  23.156 -16.941  1.00  0.00     0.040 A 
ATOM      9  C   UNL     1     -10.293  21.988 -15.223  1.00  0.00     0.040 A 
ATOM     10  C   UNL     1     -10.372  23.040 -16.095  1.00  0.00     0.123 A 
ATOM     11  F   UNL     1      -9.348  23.952 -16.086  1.00  0.00    -0.207 F 
ENDBRANCH   3   5
ENDBRANCH   2   3
ENDBRANCH   1   2
BRANCH   1  12
ATOM     12  C   UNL     1     -16.249  18.631 -16.117  1.00  0.00     0.262 C 
BRANCH  12  13
ATOM     13  N   UNL     1     -17.341  17.753 -16.518  1.00  0.00    -0.335 N 
ATOM     14  C   UNL     1     -16.937  16.788 -17.495  1.00  0.00     0.265 C 
ATOM     15  C   UNL     1     -17.900  17.111 -15.372  1.00  0.00     0.265 C 
ATOM     16  C   UNL     1     -15.833  15.907 -16.979  1.00  0.00     0.102 C 
ATOM     17  C   UNL     1     -17.578  15.690 -15.178  1.00  0.00     0.102 C 
ATOM     18  C   UNL     1     -16.316  15.173 -15.763  1.00  0.00     0.100 C 
ATOM     19  H   UNL     1     -18.037  18.396 -17.000  1.00  0.00     0.348 HD
BRANCH  18  20
ATOM     20  O   UNL     1     -16.570  13.845 -16.187  1.00  0.00    -0.385 OA
ATOM     21  H   UNL     1     -17.282  13.492 -15.596  1.00  0.00     0.211 HD
ENDBRANCH  18  20
BRANCH  18  22
ATOM     22  C   UNL     1     -15.219  15.026 -14.741  1.00  0.00    -0.016 A 
ATOM     23  C   UNL     1     -15.085  13.891 -13.969  1.00  0.00     0.008 A 
ATOM     24  C   UNL     1     -14.284  16.011 -14.512  1.00  0.00     0.008 A 
ATOM     25  C   UNL     1     -14.099  13.717 -13.025  1.00  0.00     0.021 A 
ATOM     26  C   UNL     1     -13.286  15.860 -13.570  1.00  0.00     0.021 A 
ATOM     27  C   UNL     1     -13.194  14.714 -12.828  1.00  0.00     0.041 A 
ATOM     28  Cl  UNL     1     -11.933  14.513 -11.635  1.00  0.00    -0.084 Cl
ENDBRANCH  18  22
ENDBRANCH  12  13
ENDBRANCH   1  12
TORSDOF 7
ENDMDL
MODEL 9
REMARK VINA RESULT:      -6.9      1.741      1.867
REMARK SMILES O=C(CCC[NH+]1CCC(O)(c2ccc(Cl)cc2)CC1)c1ccc(F)cc1
REMARK SMILES IDX 4 1 3 2 2 3 1 4 20 5 21 6 26 7 22 8 25 9 23 10 24 11 5 12
REMARK SMILES IDX 6 13 7 14 19 15 8 16 18 17 9 18 10 20 11 22 12 23 17 24
REMARK SMILES IDX 13 25 16 26 14 27 15 28
REMARK H PARENT 6 19 10 21
ROOT
ATOM      1  C   UNL     1     -15.118  19.879 -18.137  1.00  0.00     0.070 C 
ENDROOT
BRANCH   1   2
ATOM      2  C   UNL     1     -13.682  20.342 -18.031  1.00  0.00     0.087 C 
BRANCH   2   3
ATOM      3  C   UNL     1     -13.372  21.069 -16.797  1.00  0.00     0.163 C 
ATOM      4  O   UNL     1     -13.668  20.601 -15.667  1.00  0.00    -0.294 OA
BRANCH   3   5
ATOM      5  C   UNL     1     -12.699  22.385 -16.802  1.00  0.00     0.018 A 
ATOM      6  C   UNL     1     -13.028  23.345 -15.862  1.00  0.00     0.015 A 
ATOM      7  C   UNL     1     -11.736  22.683 -17.732  1.00  0.00     0.015 A 
ATOM      8  C   UNL     1     -12.398  24.567 -15.872  1.00  0.00     0.040 A 
ATOM      9  C   UNL     1     -11.104  23.897 -17.747  1.00  0.00     0.040 A 
ATOM     10  C   UNL     1     -11.438  24.839 -16.813  1.00  0.00     0.123 A 
ATOM     11  F   UNL     1     -10.785  26.044 -16.862  1.00  0.00    -0.207 F 
ENDBRANCH   3   5
ENDBRANCH   2   3
ENDBRANCH   1   2
BRANCH   1  12
ATOM     12  C   UNL     1     -15.289  18.674 -17.277  1.00  0.00     0.262 C 
BRANCH  12  13
ATOM     13  N   UNL     1     -16.641  18.131 -17.331  1.00  0.00    -0.335 N 
ATOM     14  C   UNL     1     -16.694  16.859 -17.983  1.00  0.00     0.265 C 
ATOM     15  C   UNL     1     -17.189  18.050 -16.016  1.00  0.00     0.265 C 
ATOM     16  C   UNL     1     -15.840  15.840 -17.278  1.00  0.00     0.102 C 
ATOM     17  C   UNL     1     -17.282  16.714 -15.411  1.00  0.00     0.102 C 
ATOM     18  C   UNL     1     -16.334  15.670 -15.873  1.00  0.00     0.100 C 
ATOM     19  H   UNL     1     -17.176  18.809 -17.951  1.00  0.00     0.348 HD
BRANCH  18  20
ATOM     20  O   UNL     1     -17.034  14.439 -15.853  1.00  0.00    -0.385 OA
ATOM     21  H   UNL     1     -16.375  13.744 -15.603  1.00  0.00     0.211 HD
ENDBRANCH  18  20
BRANCH  18  22
ATOM     22  C   UNL     1     -15.193  15.457 -14.913  1.00  0.00    -0.016 A 
ATOM     23  C   UNL     1     -15.104  14.333 -14.119  1.00  0.00     0.008 A 
ATOM     24  C   UNL     1     -14.169  16.367 -14.767  1.00  0.00     0.008 A 
ATOM     25  C   UNL     1     -14.079  14.100 -13.230  1.00  0.00     0.021 A 
ATOM     26  C   UNL     1     -13.130  16.156 -13.881  1.00  0.00     0.021 A 
ATOM     27  C   UNL     1     -13.086  15.023 -13.115  1.00  0.00     0.041 A 
ATOM     28  Cl  UNL     1     -11.775  14.747 -11.993  1.00  0.00    -0.084 Cl
ENDBRANCH  18  22
ENDBRANCH  12  13
ENDBRANCH   1  12
TORSDOF 7
ENDMDL
