MODEL 1
REMARK VINA RESULT:      -7.4      0.000      0.000
REMARK SMILES Nc1nc(N)c(C(=O)NC(=[NH2+])Nc2ccccc2)nc1Cl
REMARK SMILES IDX 2 1 3 2 4 3 6 4 19 5 20 6 21 7 1 8 5 11 7 14 8 15 9 16 10 17
REMARK SMILES IDX 11 18 12 19 13 24 14 25 18 26 15 27 17 28 16 29
REMARK H PARENT 1 9 1 10 5 12 5 13 9 20 11 21 11 22 12 23
ROOT
ATOM      1  C   UNL     1     147.001 167.191 160.977  1.00  0.00     0.163 A 
ATOM      2  N   UNL     1     146.820 166.054 161.668  1.00  0.00    -0.209 NA
ATOM      3  C   UNL     1     147.817 165.595 162.478  1.00  0.00     0.159 A 
ATOM      4  C   UNL     1     149.001 166.279 162.599  1.00  0.00     0.188 A 
ATOM      5  N   UNL     1     149.182 167.425 161.903  1.00  0.00    -0.222 NA
ATOM      6  C   UNL     1     148.191 167.875 161.101  1.00  0.00     0.172 A 
ATOM      7  Cl  UNL     1     148.451 169.371 160.205  1.00  0.00    -0.058 Cl
ENDROOT
BRANCH   1   8
ATOM      8  N   UNL     1     146.003 167.727 160.112  1.00  0.00    -0.381 N 
ATOM      9  H   UNL     1     145.308 168.449 160.408  1.00  0.00     0.158 HD
ATOM     10  H   UNL     1     145.923 167.410 159.111  1.00  0.00     0.158 HD
ENDBRANCH   1   8
BRANCH   3  11
ATOM     11  N   UNL     1     147.681 164.407 163.227  1.00  0.00    -0.382 N 
ATOM     12  H   UNL     1     146.751 163.978 163.337  1.00  0.00     0.158 HD
ATOM     13  H   UNL     1     148.513 163.978 163.656  1.00  0.00     0.158 HD
ENDBRANCH   3  11
BRANCH   4  14
ATOM     14  C   UNL     1     150.075 165.784 163.472  1.00  0.00     0.336 C 
ATOM     15  O   UNL     1     149.994 166.040 164.687  1.00  0.00    -0.248 OA
ATOM     16  N   UNL     1     151.164 165.049 162.975  1.00  0.00    -0.209 N 
ATOM     17  C   UNL     1     152.229 164.544 163.754  1.00  0.00     0.353 C 
ATOM     18  N   UNL     1     152.279 164.729 165.014  1.00  0.00    -0.290 N 
ATOM     19  N   UNL     1     153.299 163.795 163.160  1.00  0.00    -0.245 N 
ATOM     20  H   UNL     1     151.164 164.880 161.939  1.00  0.00     0.270 HD
ATOM     21  H   UNL     1     151.607 165.231 165.608  1.00  0.00     0.256 HD
ATOM     22  H   UNL     1     153.103 164.348 165.586  1.00  0.00     0.256 HD
ATOM     23  H   UNL     1     153.644 164.165 162.229  1.00  0.00     0.267 HD
BRANCH  19  24
ATOM     24  C   UNL     1     153.863 162.632 163.731  1.00  0.00     0.099 A 
ATOM     25  C   UNL     1     153.247 161.449 163.943  1.00  0.00     0.043 A 
ATOM     26  C   UNL     1     155.201 162.722 164.137  1.00  0.00     0.043 A 
ATOM     27  C   UNL     1     153.929 160.379 164.538  1.00  0.00     0.004 A 
ATOM     28  C   UNL     1     155.880 161.683 164.720  1.00  0.00     0.004 A 
ATOM     29  C   UNL     1     155.245 160.482 164.933  1.00  0.00     0.000 A 
ENDBRANCH  19  24
ENDBRANCH   4  14
TORSDOF 4
ENDMDL
MODEL 2
REMARK VINA RESULT:      -7.4      3.586      8.376
REMARK SMILES Nc1nc(N)c(C(=O)NC(=[NH2+])Nc2ccccc2)nc1Cl
REMARK SMILES IDX 2 1 3 2 4 3 6 4 19 5 20 6 21 7 1 8 5 11 7 14 8 15 9 16 10 17
REMARK SMILES IDX 11 18 12 19 13 24 14 25 18 26 15 27 17 28 16 29
REMARK H PARENT 1 9 1 10 5 12 5 13 9 20 11 21 11 22 12 23
ROOT
ATOM      1  C   UNL     1     155.636 161.283 164.660  1.00  0.00     0.163 A 
ATOM      2  N   UNL     1     155.507 162.573 164.312  1.00  0.00    -0.209 NA
ATOM      3  C   UNL     1     154.286 163.045 163.925  1.00  0.00     0.159 A 
ATOM      4  C   UNL     1     153.189 162.221 163.887  1.00  0.00     0.188 A 
ATOM      5  N   UNL     1     153.320 160.921 164.238  1.00  0.00    -0.222 NA
ATOM      6  C   UNL     1     154.532 160.458 164.620  1.00  0.00     0.172 A 
ATOM      7  Cl  UNL     1     154.677 158.760 165.072  1.00  0.00    -0.058 Cl
ENDROOT
BRANCH   1   8
ATOM      8  N   UNL     1     156.880 160.723 165.072  1.00  0.00    -0.381 N 
ATOM      9  H   UNL     1     157.141 160.569 166.072  1.00  0.00     0.158 HD
ATOM     10  H   UNL     1     157.606 160.432 164.368  1.00  0.00     0.158 HD
ENDBRANCH   1   8
BRANCH   3  11
ATOM     11  N   UNL     1     154.093 164.392 163.550  1.00  0.00    -0.382 N 
ATOM     12  H   UNL     1     153.874 164.620 162.569  1.00  0.00     0.158 HD
ATOM     13  H   UNL     1     154.171 165.134 164.259  1.00  0.00     0.158 HD
ENDBRANCH   3  11
BRANCH   4  14
ATOM     14  C   UNL     1     151.875 162.730 163.470  1.00  0.00     0.336 C 
ATOM     15  O   UNL     1     150.871 162.279 164.049  1.00  0.00    -0.248 OA
ATOM     16  N   UNL     1     151.733 163.690 162.454  1.00  0.00    -0.209 N 
ATOM     17  C   UNL     1     150.504 164.222 162.002  1.00  0.00     0.353 C 
ATOM     18  N   UNL     1     149.393 163.853 162.505  1.00  0.00    -0.290 N 
ATOM     19  N   UNL     1     150.455 165.208 160.960  1.00  0.00    -0.245 N 
ATOM     20  H   UNL     1     152.626 164.017 162.008  1.00  0.00     0.270 HD
ATOM     21  H   UNL     1     149.234 163.168 163.255  1.00  0.00     0.256 HD
ATOM     22  H   UNL     1     148.470 164.260 162.139  1.00  0.00     0.256 HD
ATOM     23  H   UNL     1     151.124 165.045 160.155  1.00  0.00     0.267 HD
BRANCH  19  24
ATOM     24  C   UNL     1     149.609 166.339 160.981  1.00  0.00     0.099 A 
ATOM     25  C   UNL     1     149.328 167.126 162.042  1.00  0.00     0.043 A 
ATOM     26  C   UNL     1     148.980 166.670 159.774  1.00  0.00     0.043 A 
ATOM     27  C   UNL     1     148.451 168.212 161.921  1.00  0.00     0.004 A 
ATOM     28  C   UNL     1     148.120 167.731 159.641  1.00  0.00     0.004 A 
ATOM     29  C   UNL     1     147.839 168.526 160.726  1.00  0.00     0.000 A 
ENDBRANCH  19  24
ENDBRANCH   4  14
TORSDOF 4
ENDMDL
MODEL 3
REMARK VINA RESULT:      -7.3     14.795     16.707
REMARK SMILES Nc1nc(N)c(C(=O)NC(=[NH2+])Nc2ccccc2)nc1Cl
REMARK SMILES IDX 2 1 3 2 4 3 6 4 19 5 20 6 21 7 1 8 5 11 7 14 8 15 9 16 10 17
REMARK SMILES IDX 11 18 12 19 13 24 14 25 18 26 15 27 17 28 16 29
REMARK H PARENT 1 9 1 10 5 12 5 13 9 20 11 21 11 22 12 23
ROOT
ATOM      1  C   UNL     1     139.829 160.705 152.109  1.00  0.00     0.163 A 
ATOM      2  N   UNL     1     140.929 161.474 152.158  1.00  0.00    -0.209 NA
ATOM      3  C   UNL     1     140.854 162.719 152.710  1.00  0.00     0.159 A 
ATOM      4  C   UNL     1     139.671 163.197 153.218  1.00  0.00     0.188 A 
ATOM      5  N   UNL     1     138.564 162.422 153.168  1.00  0.00    -0.222 NA
ATOM      6  C   UNL     1     138.644 161.189 152.620  1.00  0.00     0.172 A 
ATOM      7  Cl  UNL     1     137.186 160.198 152.568  1.00  0.00    -0.058 Cl
ENDROOT
BRANCH   1   8
ATOM      8  N   UNL     1     139.836 159.396 151.546  1.00  0.00    -0.381 N 
ATOM      9  H   UNL     1     140.432 159.118 150.735  1.00  0.00     0.158 HD
ATOM     10  H   UNL     1     139.225 158.632 151.937  1.00  0.00     0.158 HD
ENDBRANCH   1   8
BRANCH   3  11
ATOM     11  N   UNL     1     141.978 163.569 152.788  1.00  0.00    -0.382 N 
ATOM     12  H   UNL     1     142.641 163.608 152.001  1.00  0.00     0.158 HD
ATOM     13  H   UNL     1     142.125 164.143 153.630  1.00  0.00     0.158 HD
ENDBRANCH   3  11
BRANCH   4  14
ATOM     14  C   UNL     1     139.591 164.539 153.812  1.00  0.00     0.336 C 
ATOM     15  O   UNL     1     139.953 164.668 154.995  1.00  0.00    -0.248 OA
ATOM     16  N   UNL     1     139.123 165.649 153.090  1.00  0.00    -0.209 N 
ATOM     17  C   UNL     1     139.019 166.965 153.598  1.00  0.00     0.353 C 
ATOM     18  N   UNL     1     139.354 167.246 154.794  1.00  0.00    -0.290 N 
ATOM     19  N   UNL     1     138.535 168.043 152.783  1.00  0.00    -0.245 N 
ATOM     20  H   UNL     1     138.830 165.459 152.101  1.00  0.00     0.270 HD
ATOM     21  H   UNL     1     139.722 166.612 155.514  1.00  0.00     0.256 HD
ATOM     22  H   UNL     1     139.255 168.249 155.164  1.00  0.00     0.256 HD
ATOM     23  H   UNL     1     137.711 167.802 152.162  1.00  0.00     0.267 HD
BRANCH  19  24
ATOM     24  C   UNL     1     139.102 169.337 152.765  1.00  0.00     0.099 A 
ATOM     25  C   UNL     1     138.608 170.450 153.348  1.00  0.00     0.043 A 
ATOM     26  C   UNL     1     140.298 169.483 152.051  1.00  0.00     0.043 A 
ATOM     27  C   UNL     1     139.273 171.679 153.232  1.00  0.00     0.004 A 
ATOM     28  C   UNL     1     140.960 170.679 151.931  1.00  0.00     0.004 A 
ATOM     29  C   UNL     1     140.449 171.807 152.526  1.00  0.00     0.000 A 
ENDBRANCH  19  24
ENDBRANCH   4  14
TORSDOF 4
ENDMDL
MODEL 4
REMARK VINA RESULT:      -7.2     14.808     16.816
REMARK SMILES Nc1nc(N)c(C(=O)NC(=[NH2+])Nc2ccccc2)nc1Cl
REMARK SMILES IDX 2 1 3 2 4 3 6 4 19 5 20 6 21 7 1 8 5 11 7 14 8 15 9 16 10 17
REMARK SMILES IDX 11 18 12 19 13 24 14 25 18 26 15 27 17 28 16 29
REMARK H PARENT 1 9 1 10 5 12 5 13 9 20 11 21 11 22 12 23
ROOT
ATOM      1  C   UNL     1     139.818 160.698 152.113  1.00  0.00     0.163 A 
ATOM      2  N   UNL     1     140.926 161.453 152.180  1.00  0.00    -0.209 NA
ATOM      3  C   UNL     1     140.853 162.707 152.713  1.00  0.00     0.159 A 
ATOM      4  C   UNL     1     139.664 163.207 153.183  1.00  0.00     0.188 A 
ATOM      5  N   UNL     1     138.549 162.445 153.115  1.00  0.00    -0.222 NA
ATOM      6  C   UNL     1     138.626 161.204 152.586  1.00  0.00     0.172 A 
ATOM      7  Cl  UNL     1     137.157 160.231 152.509  1.00  0.00    -0.058 Cl
ENDROOT
BRANCH   1   8
ATOM      8  N   UNL     1     139.822 159.381 151.569  1.00  0.00    -0.381 N 
ATOM      9  H   UNL     1     138.961 158.802 151.448  1.00  0.00     0.158 HD
ATOM     10  H   UNL     1     140.717 158.924 151.256  1.00  0.00     0.158 HD
ENDBRANCH   1   8
BRANCH   3  11
ATOM     11  N   UNL     1     141.986 163.543 152.808  1.00  0.00    -0.382 N 
ATOM     12  H   UNL     1     142.626 163.626 152.006  1.00  0.00     0.158 HD
ATOM     13  H   UNL     1     142.162 164.064 153.679  1.00  0.00     0.158 HD
ENDBRANCH   3  11
BRANCH   4  14
ATOM     14  C   UNL     1     139.586 164.558 153.756  1.00  0.00     0.336 C 
ATOM     15  O   UNL     1     139.946 164.705 154.937  1.00  0.00    -0.248 OA
ATOM     16  N   UNL     1     139.122 165.659 153.016  1.00  0.00    -0.209 N 
ATOM     17  C   UNL     1     139.020 166.982 153.503  1.00  0.00     0.353 C 
ATOM     18  N   UNL     1     139.354 167.281 154.696  1.00  0.00    -0.290 N 
ATOM     19  N   UNL     1     138.540 168.048 152.671  1.00  0.00    -0.245 N 
ATOM     20  H   UNL     1     138.830 165.454 152.029  1.00  0.00     0.270 HD
ATOM     21  H   UNL     1     139.720 166.657 155.426  1.00  0.00     0.256 HD
ATOM     22  H   UNL     1     139.257 168.289 155.050  1.00  0.00     0.256 HD
ATOM     23  H   UNL     1     137.717 167.800 152.052  1.00  0.00     0.267 HD
BRANCH  19  24
ATOM     24  C   UNL     1     139.111 169.340 152.634  1.00  0.00     0.099 A 
ATOM     25  C   UNL     1     140.378 169.660 152.293  1.00  0.00     0.043 A 
ATOM     26  C   UNL     1     138.277 170.402 153.007  1.00  0.00     0.043 A 
ATOM     27  C   UNL     1     140.815 170.992 152.318  1.00  0.00     0.004 A 
ATOM     28  C   UNL     1     138.692 171.709 153.035  1.00  0.00     0.004 A 
ATOM     29  C   UNL     1     139.983 172.026 152.688  1.00  0.00     0.000 A 
ENDBRANCH  19  24
ENDBRANCH   4  14
TORSDOF 4
ENDMDL
MODEL 5
REMARK VINA RESULT:      -7.1     14.444     16.034
REMARK SMILES Nc1nc(N)c(C(=O)NC(=[NH2+])Nc2ccccc2)nc1Cl
REMARK SMILES IDX 2 1 3 2 4 3 6 4 19 5 20 6 21 7 1 8 5 11 7 14 8 15 9 16 10 17
REMARK SMILES IDX 11 18 12 19 13 24 14 25 18 26 15 27 17 28 16 29
REMARK H PARENT 1 9 1 10 5 12 5 13 9 20 11 21 11 22 12 23
ROOT
ATOM      1  C   UNL     1     139.687 160.434 152.118  1.00  0.00     0.163 A 
ATOM      2  N   UNL     1     140.719 161.289 152.021  1.00  0.00    -0.209 NA
ATOM      3  C   UNL     1     140.700 162.448 152.741  1.00  0.00     0.159 A 
ATOM      4  C   UNL     1     139.643 162.753 153.562  1.00  0.00     0.188 A 
ATOM      5  N   UNL     1     138.605 161.891 153.659  1.00  0.00    -0.222 NA
ATOM      6  C   UNL     1     138.628 160.744 152.944  1.00  0.00     0.172 A 
ATOM      7  Cl  UNL     1     137.263 159.638 153.088  1.00  0.00    -0.058 Cl
ENDROOT
BRANCH   1   8
ATOM      8  N   UNL     1     139.641 159.207 151.395  1.00  0.00    -0.381 N 
ATOM      9  H   UNL     1     139.818 159.133 150.368  1.00  0.00     0.158 HD
ATOM     10  H   UNL     1     139.423 158.298 151.879  1.00  0.00     0.158 HD
ENDBRANCH   1   8
BRANCH   3  11
ATOM     11  N   UNL     1     141.756 163.381 152.677  1.00  0.00    -0.382 N 
ATOM     12  H   UNL     1     142.485 163.276 151.957  1.00  0.00     0.158 HD
ATOM     13  H   UNL     1     141.789 164.159 153.351  1.00  0.00     0.158 HD
ENDBRANCH   3  11
BRANCH   4  14
ATOM     14  C   UNL     1     139.624 164.002 154.337  1.00  0.00     0.336 C 
ATOM     15  O   UNL     1     139.806 163.922 155.564  1.00  0.00    -0.248 OA
ATOM     16  N   UNL     1     139.406 165.252 153.734  1.00  0.00    -0.209 N 
ATOM     17  C   UNL     1     139.374 166.490 154.415  1.00  0.00     0.353 C 
ATOM     18  N   UNL     1     139.545 166.561 155.676  1.00  0.00    -0.290 N 
ATOM     19  N   UNL     1     139.152 167.722 153.714  1.00  0.00    -0.245 N 
ATOM     20  H   UNL     1     139.254 165.237 152.695  1.00  0.00     0.270 HD
ATOM     21  H   UNL     1     139.719 165.793 156.336  1.00  0.00     0.256 HD
ATOM     22  H   UNL     1     139.504 167.510 156.176  1.00  0.00     0.256 HD
ATOM     23  H   UNL     1     138.415 167.681 152.954  1.00  0.00     0.267 HD
BRANCH  19  24
ATOM     24  C   UNL     1     139.859 168.918 153.973  1.00  0.00     0.099 A 
ATOM     25  C   UNL     1     140.249 169.388 155.177  1.00  0.00     0.043 A 
ATOM     26  C   UNL     1     140.176 169.708 152.861  1.00  0.00     0.043 A 
ATOM     27  C   UNL     1     140.934 170.606 155.287  1.00  0.00     0.004 A 
ATOM     28  C   UNL     1     140.846 170.902 152.954  1.00  0.00     0.004 A 
ATOM     29  C   UNL     1     141.238 171.374 154.183  1.00  0.00     0.000 A 
ENDBRANCH  19  24
ENDBRANCH   4  14
TORSDOF 4
ENDMDL
MODEL 6
REMARK VINA RESULT:      -7.0     14.904     16.110
REMARK SMILES Nc1nc(N)c(C(=O)NC(=[NH2+])Nc2ccccc2)nc1Cl
REMARK SMILES IDX 2 1 3 2 4 3 6 4 19 5 20 6 21 7 1 8 5 11 7 14 8 15 9 16 10 17
REMARK SMILES IDX 11 18 12 19 13 24 14 25 18 26 15 27 17 28 16 29
REMARK H PARENT 1 9 1 10 5 12 5 13 9 20 11 21 11 22 12 23
ROOT
ATOM      1  C   UNL     1     138.589 170.447 152.705  1.00  0.00     0.163 A 
ATOM      2  N   UNL     1     139.382 170.167 153.752  1.00  0.00    -0.209 NA
ATOM      3  C   UNL     1     139.620 168.865 154.085  1.00  0.00     0.159 A 
ATOM      4  C   UNL     1     139.063 167.838 153.365  1.00  0.00     0.188 A 
ATOM      5  N   UNL     1     138.265 168.121 152.311  1.00  0.00    -0.222 NA
ATOM      6  C   UNL     1     138.031 169.412 151.985  1.00  0.00     0.172 A 
ATOM      7  Cl  UNL     1     136.987 169.754 150.606  1.00  0.00    -0.058 Cl
ENDROOT
BRANCH   1   8
ATOM      8  N   UNL     1     138.297 171.782 152.302  1.00  0.00    -0.381 N 
ATOM      9  H   UNL     1     138.420 172.613 152.922  1.00  0.00     0.158 HD
ATOM     10  H   UNL     1     137.937 171.993 151.335  1.00  0.00     0.158 HD
ENDBRANCH   1   8
BRANCH   3  11
ATOM     11  N   UNL     1     140.446 168.515 155.174  1.00  0.00    -0.382 N 
ATOM     12  H   UNL     1     140.548 169.166 155.965  1.00  0.00     0.158 HD
ATOM     13  H   UNL     1     140.937 167.610 155.170  1.00  0.00     0.158 HD
ENDBRANCH   3  11
BRANCH   4  14
ATOM     14  C   UNL     1     139.320 166.437 153.725  1.00  0.00     0.336 C 
ATOM     15  O   UNL     1     139.317 166.142 154.933  1.00  0.00    -0.248 OA
ATOM     16  N   UNL     1     139.566 165.449 152.756  1.00  0.00    -0.209 N 
ATOM     17  C   UNL     1     139.820 164.086 153.029  1.00  0.00     0.353 C 
ATOM     18  N   UNL     1     139.848 163.640 154.222  1.00  0.00    -0.290 N 
ATOM     19  N   UNL     1     140.054 163.144 151.972  1.00  0.00    -0.245 N 
ATOM     20  H   UNL     1     139.558 165.777 151.759  1.00  0.00     0.270 HD
ATOM     21  H   UNL     1     139.700 164.159 155.097  1.00  0.00     0.256 HD
ATOM     22  H   UNL     1     140.056 162.603 154.409  1.00  0.00     0.256 HD
ATOM     23  H   UNL     1     140.660 163.498 151.179  1.00  0.00     0.267 HD
BRANCH  19  24
ATOM     24  C   UNL     1     139.513 161.838 151.943  1.00  0.00     0.099 A 
ATOM     25  C   UNL     1     140.150 160.702 151.585  1.00  0.00     0.043 A 
ATOM     26  C   UNL     1     138.167 161.712 152.308  1.00  0.00     0.043 A 
ATOM     27  C   UNL     1     139.480 159.471 151.586  1.00  0.00     0.004 A 
ATOM     28  C   UNL     1     137.499 160.514 152.314  1.00  0.00     0.004 A 
ATOM     29  C   UNL     1     138.154 159.363 151.948  1.00  0.00     0.000 A 
ENDBRANCH  19  24
ENDBRANCH   4  14
TORSDOF 4
ENDMDL
MODEL 7
REMARK VINA RESULT:      -6.9     14.439     16.074
REMARK SMILES Nc1nc(N)c(C(=O)NC(=[NH2+])Nc2ccccc2)nc1Cl
REMARK SMILES IDX 2 1 3 2 4 3 6 4 19 5 20 6 21 7 1 8 5 11 7 14 8 15 9 16 10 17
REMARK SMILES IDX 11 18 12 19 13 24 14 25 18 26 15 27 17 28 16 29
REMARK H PARENT 1 9 1 10 5 12 5 13 9 20 11 21 11 22 12 23
ROOT
ATOM      1  C   UNL     1     139.719 160.488 152.062  1.00  0.00     0.163 A 
ATOM      2  N   UNL     1     140.801 161.283 152.020  1.00  0.00    -0.209 NA
ATOM      3  C   UNL     1     140.797 162.458 152.713  1.00  0.00     0.159 A 
ATOM      4  C   UNL     1     139.706 162.839 153.454  1.00  0.00     0.188 A 
ATOM      5  N   UNL     1     138.617 162.038 153.495  1.00  0.00    -0.222 NA
ATOM      6  C   UNL     1     138.625 160.875 152.806  1.00  0.00     0.172 A 
ATOM      7  Cl  UNL     1     137.193 159.848 152.876  1.00  0.00    -0.058 Cl
ENDROOT
BRANCH   1   8
ATOM      8  N   UNL     1     139.653 159.249 151.361  1.00  0.00    -0.381 N 
ATOM      9  H   UNL     1     140.262 158.428 151.579  1.00  0.00     0.158 HD
ATOM     10  H   UNL     1     138.969 159.103 150.575  1.00  0.00     0.158 HD
ENDBRANCH   1   8
BRANCH   3  11
ATOM     11  N   UNL     1     141.906 163.331 152.705  1.00  0.00    -0.382 N 
ATOM     12  H   UNL     1     142.055 163.971 153.498  1.00  0.00     0.158 HD
ATOM     13  H   UNL     1     142.557 163.319 151.908  1.00  0.00     0.158 HD
ENDBRANCH   3  11
BRANCH   4  14
ATOM     14  C   UNL     1     139.703 164.105 154.200  1.00  0.00     0.336 C 
ATOM     15  O   UNL     1     139.964 164.059 155.415  1.00  0.00    -0.248 OA
ATOM     16  N   UNL     1     139.416 165.335 153.585  1.00  0.00    -0.209 N 
ATOM     17  C   UNL     1     139.395 166.587 154.239  1.00  0.00     0.353 C 
ATOM     18  N   UNL     1     139.644 166.693 155.485  1.00  0.00    -0.290 N 
ATOM     19  N   UNL     1     139.099 167.798 153.527  1.00  0.00    -0.245 N 
ATOM     20  H   UNL     1     139.200 165.292 152.559  1.00  0.00     0.270 HD
ATOM     21  H   UNL     1     139.879 165.945 156.149  1.00  0.00     0.256 HD
ATOM     22  H   UNL     1     139.610 167.652 155.966  1.00  0.00     0.256 HD
ATOM     23  H   UNL     1     138.317 167.721 152.816  1.00  0.00     0.267 HD
BRANCH  19  24
ATOM     24  C   UNL     1     139.790 169.016 153.714  1.00  0.00     0.099 A 
ATOM     25  C   UNL     1     140.228 169.858 152.754  1.00  0.00     0.043 A 
ATOM     26  C   UNL     1     140.066 169.379 155.038  1.00  0.00     0.043 A 
ATOM     27  C   UNL     1     140.920 171.031 153.086  1.00  0.00     0.004 A 
ATOM     28  C   UNL     1     140.742 170.524 155.378  1.00  0.00     0.004 A 
ATOM     29  C   UNL     1     141.185 171.375 154.394  1.00  0.00     0.000 A 
ENDBRANCH  19  24
ENDBRANCH   4  14
TORSDOF 4
ENDMDL
MODEL 8
REMARK VINA RESULT:      -6.8      3.077      7.896
REMARK SMILES Nc1nc(N)c(C(=O)NC(=[NH2+])Nc2ccccc2)nc1Cl
REMARK SMILES IDX 2 1 3 2 4 3 6 4 19 5 20 6 21 7 1 8 5 11 7 14 8 15 9 16 10 17
REMARK SMILES IDX 11 18 12 19 13 24 14 25 18 26 15 27 17 28 16 29
REMARK H PARENT 1 9 1 10 5 12 5 13 9 20 11 21 11 22 12 23
ROOT
ATOM      1  C   UNL     1     153.619 160.917 164.471  1.00  0.00     0.163 A 
ATOM      2  N   UNL     1     152.281 160.810 164.526  1.00  0.00    -0.209 NA
ATOM      3  C   UNL     1     151.512 161.930 164.402  1.00  0.00     0.159 A 
ATOM      4  C   UNL     1     152.086 163.165 164.221  1.00  0.00     0.188 A 
ATOM      5  N   UNL     1     153.433 163.271 164.166  1.00  0.00    -0.222 NA
ATOM      6  C   UNL     1     154.190 162.158 164.290  1.00  0.00     0.172 A 
ATOM      7  Cl  UNL     1     155.944 162.324 164.215  1.00  0.00    -0.058 Cl
ENDROOT
BRANCH   1   8
ATOM      8  N   UNL     1     154.482 159.790 164.594  1.00  0.00    -0.381 N 
ATOM      9  H   UNL     1     154.209 158.902 165.071  1.00  0.00     0.158 HD
ATOM     10  H   UNL     1     155.457 159.804 164.196  1.00  0.00     0.158 HD
ENDBRANCH   1   8
BRANCH   3  11
ATOM     11  N   UNL     1     150.103 161.876 164.451  1.00  0.00    -0.382 N 
ATOM     12  H   UNL     1     149.558 162.025 163.590  1.00  0.00     0.158 HD
ATOM     13  H   UNL     1     149.632 161.687 165.346  1.00  0.00     0.158 HD
ENDBRANCH   3  11
BRANCH   4  14
ATOM     14  C   UNL     1     151.257 164.371 164.088  1.00  0.00     0.336 C 
ATOM     15  O   UNL     1     151.538 165.346 164.807  1.00  0.00    -0.248 OA
ATOM     16  N   UNL     1     150.179 164.442 163.190  1.00  0.00    -0.209 N 
ATOM     17  C   UNL     1     149.341 165.566 163.010  1.00  0.00     0.353 C 
ATOM     18  N   UNL     1     149.511 166.637 163.679  1.00  0.00    -0.290 N 
ATOM     19  N   UNL     1     148.264 165.551 162.062  1.00  0.00    -0.245 N 
ATOM     20  H   UNL     1     150.000 163.577 162.623  1.00  0.00     0.270 HD
ATOM     21  H   UNL     1     150.225 166.832 164.392  1.00  0.00     0.256 HD
ATOM     22  H   UNL     1     148.856 167.475 163.537  1.00  0.00     0.256 HD
ATOM     23  H   UNL     1     147.712 164.648 162.022  1.00  0.00     0.267 HD
BRANCH  19  24
ATOM     24  C   UNL     1     147.948 166.632 161.208  1.00  0.00     0.099 A 
ATOM     25  C   UNL     1     146.741 167.217 161.050  1.00  0.00     0.043 A 
ATOM     26  C   UNL     1     148.996 167.140 160.429  1.00  0.00     0.043 A 
ATOM     27  C   UNL     1     146.567 168.276 160.148  1.00  0.00     0.004 A 
ATOM     28  C   UNL     1     148.840 168.176 159.544  1.00  0.00     0.004 A 
ATOM     29  C   UNL     1     147.609 168.765 159.388  1.00  0.00     0.000 A 
ENDBRANCH  19  24
ENDBRANCH   4  14
TORSDOF 4
ENDMDL
MODEL 9
REMARK VINA RESULT:      -6.8     10.902     14.371
REMARK SMILES Nc1nc(N)c(C(=O)NC(=[NH2+])Nc2ccccc2)nc1Cl
REMARK SMILES IDX 2 1 3 2 4 3 6 4 19 5 20 6 21 7 1 8 5 11 7 14 8 15 9 16 10 17
REMARK SMILES IDX 11 18 12 19 13 24 14 25 18 26 15 27 17 28 16 29
REMARK H PARENT 1 9 1 10 5 12 5 13 9 20 11 21 11 22 12 23
ROOT
ATOM      1  C   UNL     1     150.954 173.273 157.461  1.00  0.00     0.163 A 
ATOM      2  N   UNL     1     149.774 173.384 158.091  1.00  0.00    -0.209 NA
ATOM      3  C   UNL     1     148.624 173.443 157.357  1.00  0.00     0.159 A 
ATOM      4  C   UNL     1     148.657 173.389 155.986  1.00  0.00     0.188 A 
ATOM      5  N   UNL     1     149.847 173.277 155.353  1.00  0.00    -0.222 NA
ATOM      6  C   UNL     1     150.983 173.219 156.084  1.00  0.00     0.172 A 
ATOM      7  Cl  UNL     1     152.521 173.074 155.234  1.00  0.00    -0.058 Cl
ENDROOT
BRANCH   1   8
ATOM      8  N   UNL     1     152.192 173.207 158.163  1.00  0.00    -0.381 N 
ATOM      9  H   UNL     1     152.484 172.390 158.745  1.00  0.00     0.158 HD
ATOM     10  H   UNL     1     152.884 173.999 158.122  1.00  0.00     0.158 HD
ENDBRANCH   1   8
BRANCH   3  11
ATOM     11  N   UNL     1     147.357 173.559 157.967  1.00  0.00    -0.382 N 
ATOM     12  H   UNL     1     147.175 173.077 158.859  1.00  0.00     0.158 HD
ATOM     13  H   UNL     1     146.625 174.125 157.516  1.00  0.00     0.158 HD
ENDBRANCH   3  11
BRANCH   4  14
ATOM     14  C   UNL     1     147.419 173.453 155.198  1.00  0.00     0.336 C 
ATOM     15  O   UNL     1     147.470 173.081 154.012  1.00  0.00    -0.248 OA
ATOM     16  N   UNL     1     146.209 173.917 155.741  1.00  0.00    -0.209 N 
ATOM     17  C   UNL     1     144.984 174.005 155.043  1.00  0.00     0.353 C 
ATOM     18  N   UNL     1     144.887 173.659 153.820  1.00  0.00    -0.290 N 
ATOM     19  N   UNL     1     143.792 174.486 155.683  1.00  0.00    -0.245 N 
ATOM     20  H   UNL     1     146.247 174.218 156.746  1.00  0.00     0.270 HD
ATOM     21  H   UNL     1     145.624 173.291 153.206  1.00  0.00     0.256 HD
ATOM     22  H   UNL     1     143.950 173.746 153.304  1.00  0.00     0.256 HD
ATOM     23  H   UNL     1     143.931 175.316 156.327  1.00  0.00     0.267 HD
BRANCH  19  24
ATOM     24  C   UNL     1     142.514 173.907 155.513  1.00  0.00     0.099 A 
ATOM     25  C   UNL     1     142.221 172.590 155.442  1.00  0.00     0.043 A 
ATOM     26  C   UNL     1     141.439 174.795 155.387  1.00  0.00     0.043 A 
ATOM     27  C   UNL     1     140.901 172.157 155.253  1.00  0.00     0.004 A 
ATOM     28  C   UNL     1     140.143 174.384 155.202  1.00  0.00     0.004 A 
ATOM     29  C   UNL     1     139.853 173.043 155.131  1.00  0.00     0.000 A 
ENDBRANCH  19  24
ENDBRANCH   4  14
TORSDOF 4
ENDMDL
