MODEL 1
REMARK VINA RESULT:      -6.4      0.000      0.000
REMARK SMILES CC/C(=C(\c1ccccc1)c1ccc(OCC[NH+](C)C)cc1)c1ccccc1
REMARK SMILES IDX 15 1 14 2 11 3 12 4 22 5 13 6 21 7 4 8 3 9 2 10 1 11 23 12
REMARK SMILES IDX 24 13 28 14 25 15 27 16 26 17 5 18 6 19 10 20 7 21 9 22 8 23
REMARK SMILES IDX 16 24 17 25 18 26 19 27 20 28
REMARK H PARENT 18 29
ROOT
ATOM      1  O   UNL     1     -24.084  27.448   2.341  1.00  0.00    -0.488 OA
ENDROOT
BRANCH   1   2
ATOM      2  C   UNL     1     -24.893  27.289   3.451  1.00  0.00     0.119 A 
ATOM      3  C   UNL     1     -26.491  27.029   5.804  1.00  0.00    -0.017 A 
ATOM      4  C   UNL     1     -26.879  26.482   4.597  1.00  0.00     0.012 A 
ATOM      5  C   UNL     1     -25.277  27.709   5.801  1.00  0.00     0.012 A 
ATOM      6  C   UNL     1     -26.093  26.617   3.464  1.00  0.00     0.047 A 
ATOM      7  C   UNL     1     -24.502  27.842   4.680  1.00  0.00     0.047 A 
BRANCH   3   8
ATOM      8  C   UNL     1     -27.282  26.883   7.013  1.00  0.00    -0.007 C 
ATOM      9  C   UNL     1     -27.129  25.883   7.842  1.00  0.00    -0.033 C 
BRANCH   9  10
ATOM     10  C   UNL     1     -27.943  25.659   9.068  1.00  0.00     0.033 C 
ATOM     11  C   UNL     1     -28.926  24.557   8.803  1.00  0.00     0.009 C 
ENDBRANCH   9  10
BRANCH   9  12
ATOM     12  C   UNL     1     -26.049  24.897   7.650  1.00  0.00    -0.022 A 
ATOM     13  C   UNL     1     -24.853  24.992   8.314  1.00  0.00     0.008 A 
ATOM     14  C   UNL     1     -26.259  23.874   6.776  1.00  0.00     0.008 A 
ATOM     15  C   UNL     1     -23.876  24.054   8.092  1.00  0.00     0.001 A 
ATOM     16  C   UNL     1     -25.292  22.898   6.520  1.00  0.00     0.001 A 
ATOM     17  C   UNL     1     -24.102  23.018   7.201  1.00  0.00     0.000 A 
ENDBRANCH   9  12
BRANCH   8  18
ATOM     18  C   UNL     1     -28.305  27.875   7.278  1.00  0.00    -0.018 A 
ATOM     19  C   UNL     1     -28.021  29.084   7.881  1.00  0.00     0.009 A 
ATOM     20  C   UNL     1     -29.631  27.593   6.963  1.00  0.00     0.009 A 
ATOM     21  C   UNL     1     -29.043  29.959   8.146  1.00  0.00     0.001 A 
ATOM     22  C   UNL     1     -30.668  28.458   7.221  1.00  0.00     0.001 A 
ATOM     23  C   UNL     1     -30.356  29.671   7.828  1.00  0.00     0.000 A 
ENDBRANCH   8  18
ENDBRANCH   3   8
ENDBRANCH   1   2
BRANCH   1  24
ATOM     24  C   UNL     1     -23.848  26.559   1.307  1.00  0.00     0.290 C 
BRANCH  24  25
ATOM     25  C   UNL     1     -24.107  27.085  -0.080  1.00  0.00     0.303 C 
BRANCH  25  26
ATOM     26  N   UNL     1     -22.912  27.500  -0.751  1.00  0.00    -0.337 N 
ATOM     27  C   UNL     1     -22.758  28.937  -0.815  1.00  0.00     0.332 C 
ATOM     28  C   UNL     1     -22.827  27.002  -2.109  1.00  0.00     0.332 C 
ATOM     29  H   UNL     1     -22.044  27.132  -0.260  1.00  0.00     0.347 HD
ENDBRANCH  25  26
ENDBRANCH  24  25
ENDBRANCH   1  24
TORSDOF 8
ENDMDL
MODEL 2
REMARK VINA RESULT:      -6.3      0.306      1.137
REMARK SMILES CC/C(=C(\c1ccccc1)c1ccc(OCC[NH+](C)C)cc1)c1ccccc1
REMARK SMILES IDX 15 1 14 2 11 3 12 4 22 5 13 6 21 7 4 8 3 9 2 10 1 11 23 12
REMARK SMILES IDX 24 13 28 14 25 15 27 16 26 17 5 18 6 19 10 20 7 21 9 22 8 23
REMARK SMILES IDX 16 24 17 25 18 26 19 27 20 28
REMARK H PARENT 18 29
ROOT
ATOM      1  O   UNL     1     -24.045  27.489   2.394  1.00  0.00    -0.488 OA
ENDROOT
BRANCH   1   2
ATOM      2  C   UNL     1     -24.878  27.308   3.483  1.00  0.00     0.119 A 
ATOM      3  C   UNL     1     -26.527  27.002   5.795  1.00  0.00    -0.017 A 
ATOM      4  C   UNL     1     -26.877  26.459   4.575  1.00  0.00     0.012 A 
ATOM      5  C   UNL     1     -25.325  27.703   5.826  1.00  0.00     0.012 A 
ATOM      6  C   UNL     1     -26.066  26.616   3.462  1.00  0.00     0.047 A 
ATOM      7  C   UNL     1     -24.526  27.857   4.725  1.00  0.00     0.047 A 
BRANCH   3   8
ATOM      8  C   UNL     1     -27.344  26.834   6.984  1.00  0.00    -0.007 C 
ATOM      9  C   UNL     1     -27.205  25.821   7.799  1.00  0.00    -0.033 C 
BRANCH   9  10
ATOM     10  C   UNL     1     -28.045  25.574   9.003  1.00  0.00     0.033 C 
ATOM     11  C   UNL     1     -29.006  24.460   8.705  1.00  0.00     0.009 C 
ENDBRANCH   9  10
BRANCH   9  12
ATOM     12  C   UNL     1     -26.118  24.842   7.616  1.00  0.00    -0.022 A 
ATOM     13  C   UNL     1     -26.236  23.775   6.763  1.00  0.00     0.008 A 
ATOM     14  C   UNL     1     -24.971  25.013   8.330  1.00  0.00     0.008 A 
ATOM     15  C   UNL     1     -25.198  22.887   6.636  1.00  0.00     0.001 A 
ATOM     16  C   UNL     1     -23.889  24.133   8.232  1.00  0.00     0.001 A 
ATOM     17  C   UNL     1     -24.037  23.072   7.368  1.00  0.00     0.000 A 
ENDBRANCH   9  12
BRANCH   8  18
ATOM     18  C   UNL     1     -28.376  27.817   7.242  1.00  0.00    -0.018 A 
ATOM     19  C   UNL     1     -28.099  29.047   7.805  1.00  0.00     0.009 A 
ATOM     20  C   UNL     1     -29.704  27.507   6.961  1.00  0.00     0.009 A 
ATOM     21  C   UNL     1     -29.129  29.913   8.068  1.00  0.00     0.001 A 
ATOM     22  C   UNL     1     -30.749  28.364   7.216  1.00  0.00     0.001 A 
ATOM     23  C   UNL     1     -30.443  29.598   7.784  1.00  0.00     0.000 A 
ENDBRANCH   8  18
ENDBRANCH   3   8
ENDBRANCH   1   2
BRANCH   1  24
ATOM     24  C   UNL     1     -24.112  26.896   1.145  1.00  0.00     0.290 C 
BRANCH  24  25
ATOM     25  C   UNL     1     -22.958  27.185   0.221  1.00  0.00     0.303 C 
BRANCH  25  26
ATOM     26  N   UNL     1     -23.337  27.964  -0.918  1.00  0.00    -0.337 N 
ATOM     27  C   UNL     1     -22.978  27.352  -2.179  1.00  0.00     0.332 C 
ATOM     28  C   UNL     1     -22.761  29.292  -0.910  1.00  0.00     0.332 C 
ATOM     29  H   UNL     1     -24.390  28.112  -0.953  1.00  0.00     0.347 HD
ENDBRANCH  25  26
ENDBRANCH  24  25
ENDBRANCH   1  24
TORSDOF 8
ENDMDL
MODEL 3
REMARK VINA RESULT:      -6.3      2.882      6.179
REMARK SMILES CC/C(=C(\c1ccccc1)c1ccc(OCC[NH+](C)C)cc1)c1ccccc1
REMARK SMILES IDX 15 1 14 2 11 3 12 4 22 5 13 6 21 7 4 8 3 9 2 10 1 11 23 12
REMARK SMILES IDX 24 13 28 14 25 15 27 16 26 17 5 18 6 19 10 20 7 21 9 22 8 23
REMARK SMILES IDX 16 24 17 25 18 26 19 27 20 28
REMARK H PARENT 18 29
ROOT
ATOM      1  O   UNL     1     -24.798  24.745   7.490  1.00  0.00    -0.488 OA
ENDROOT
BRANCH   1   2
ATOM      2  C   UNL     1     -26.151  24.703   7.774  1.00  0.00     0.119 A 
ATOM      3  C   UNL     1     -28.924  24.672   8.460  1.00  0.00    -0.017 A 
ATOM      4  C   UNL     1     -28.469  24.196   7.245  1.00  0.00     0.012 A 
ATOM      5  C   UNL     1     -27.949  25.163   9.323  1.00  0.00     0.012 A 
ATOM      6  C   UNL     1     -27.121  24.218   6.927  1.00  0.00     0.047 A 
ATOM      7  C   UNL     1     -26.617  25.184   9.006  1.00  0.00     0.047 A 
BRANCH   3   8
ATOM      8  C   UNL     1     -30.327  24.640   8.830  1.00  0.00    -0.007 C 
ATOM      9  C   UNL     1     -31.045  25.723   8.976  1.00  0.00    -0.033 C 
BRANCH   9  10
ATOM     10  C   UNL     1     -32.472  25.750   9.399  1.00  0.00     0.033 C 
ATOM     11  C   UNL     1     -32.533  25.875  10.894  1.00  0.00     0.009 C 
ENDBRANCH   9  10
BRANCH   9  12
ATOM     12  C   UNL     1     -30.490  27.050   8.654  1.00  0.00    -0.022 A 
ATOM     13  C   UNL     1     -30.356  27.488   7.361  1.00  0.00     0.008 A 
ATOM     14  C   UNL     1     -30.093  27.849   9.683  1.00  0.00     0.008 A 
ATOM     15  C   UNL     1     -29.824  28.729   7.115  1.00  0.00     0.001 A 
ATOM     16  C   UNL     1     -29.545  29.119   9.477  1.00  0.00     0.001 A 
ATOM     17  C   UNL     1     -29.424  29.531   8.170  1.00  0.00     0.000 A 
ENDBRANCH   9  12
BRANCH   8  18
ATOM     18  C   UNL     1     -30.932  23.347   9.082  1.00  0.00    -0.018 A 
ATOM     19  C   UNL     1     -31.706  22.699   8.139  1.00  0.00     0.009 A 
ATOM     20  C   UNL     1     -30.777  22.749  10.328  1.00  0.00     0.009 A 
ATOM     21  C   UNL     1     -32.289  21.500   8.459  1.00  0.00     0.001 A 
ATOM     22  C   UNL     1     -31.353  21.546  10.665  1.00  0.00     0.001 A 
ATOM     23  C   UNL     1     -32.128  20.913   9.698  1.00  0.00     0.000 A 
ENDBRANCH   8  18
ENDBRANCH   3   8
ENDBRANCH   1   2
BRANCH   1  24
ATOM     24  C   UNL     1     -24.093  25.697   6.776  1.00  0.00     0.290 C 
BRANCH  24  25
ATOM     25  C   UNL     1     -24.019  25.477   5.287  1.00  0.00     0.303 C 
BRANCH  25  26
ATOM     26  N   UNL     1     -25.042  26.173   4.568  1.00  0.00    -0.337 N 
ATOM     27  C   UNL     1     -24.758  26.315   3.157  1.00  0.00     0.332 C 
ATOM     28  C   UNL     1     -25.290  27.502   5.089  1.00  0.00     0.332 C 
ATOM     29  H   UNL     1     -25.974  25.665   4.632  1.00  0.00     0.347 HD
ENDBRANCH  25  26
ENDBRANCH  24  25
ENDBRANCH   1  24
TORSDOF 8
ENDMDL
MODEL 4
REMARK VINA RESULT:      -6.3      0.113      1.270
REMARK SMILES CC/C(=C(\c1ccccc1)c1ccc(OCC[NH+](C)C)cc1)c1ccccc1
REMARK SMILES IDX 15 1 14 2 11 3 12 4 22 5 13 6 21 7 4 8 3 9 2 10 1 11 23 12
REMARK SMILES IDX 24 13 28 14 25 15 27 16 26 17 5 18 6 19 10 20 7 21 9 22 8 23
REMARK SMILES IDX 16 24 17 25 18 26 19 27 20 28
REMARK H PARENT 18 29
ROOT
ATOM      1  O   UNL     1     -24.107  27.478   2.299  1.00  0.00    -0.488 OA
ENDROOT
BRANCH   1   2
ATOM      2  C   UNL     1     -24.836  27.339   3.466  1.00  0.00     0.119 A 
ATOM      3  C   UNL     1     -26.416  26.980   5.818  1.00  0.00    -0.017 A 
ATOM      4  C   UNL     1     -25.242  27.707   5.834  1.00  0.00     0.012 A 
ATOM      5  C   UNL     1     -26.778  26.438   4.589  1.00  0.00     0.012 A 
ATOM      6  C   UNL     1     -24.486  27.872   4.684  1.00  0.00     0.047 A 
ATOM      7  C   UNL     1     -26.029  26.602   3.454  1.00  0.00     0.047 A 
BRANCH   3   8
ATOM      8  C   UNL     1     -27.240  26.811   7.002  1.00  0.00    -0.007 C 
ATOM      9  C   UNL     1     -27.098  25.803   7.823  1.00  0.00    -0.033 C 
BRANCH   9  10
ATOM     10  C   UNL     1     -27.945  25.555   9.022  1.00  0.00     0.033 C 
ATOM     11  C   UNL     1     -28.994  24.540   8.675  1.00  0.00     0.009 C 
ENDBRANCH   9  10
BRANCH   9  12
ATOM     12  C   UNL     1     -26.001  24.833   7.653  1.00  0.00    -0.022 A 
ATOM     13  C   UNL     1     -24.809  24.960   8.318  1.00  0.00     0.008 A 
ATOM     14  C   UNL     1     -26.191  23.791   6.797  1.00  0.00     0.008 A 
ATOM     15  C   UNL     1     -23.816  24.035   8.116  1.00  0.00     0.001 A 
ATOM     16  C   UNL     1     -25.206  22.826   6.562  1.00  0.00     0.001 A 
ATOM     17  C   UNL     1     -24.021  22.979   7.244  1.00  0.00     0.000 A 
ENDBRANCH   9  12
BRANCH   8  18
ATOM     18  C   UNL     1     -28.282  27.787   7.247  1.00  0.00    -0.018 A 
ATOM     19  C   UNL     1     -29.584  27.597   6.829  1.00  0.00     0.009 A 
ATOM     20  C   UNL     1     -27.964  28.983   7.883  1.00  0.00     0.009 A 
ATOM     21  C   UNL     1     -30.511  28.582   7.051  1.00  0.00     0.001 A 
ATOM     22  C   UNL     1     -28.881  29.981   8.116  1.00  0.00     0.001 A 
ATOM     23  C   UNL     1     -30.187  29.766   7.685  1.00  0.00     0.000 A 
ENDBRANCH   8  18
ENDBRANCH   3   8
ENDBRANCH   1   2
BRANCH   1  24
ATOM     24  C   UNL     1     -23.911  26.557   1.285  1.00  0.00     0.290 C 
BRANCH  24  25
ATOM     25  C   UNL     1     -24.138  27.066  -0.114  1.00  0.00     0.303 C 
BRANCH  25  26
ATOM     26  N   UNL     1     -22.925  27.449  -0.772  1.00  0.00    -0.337 N 
ATOM     27  C   UNL     1     -22.697  28.878  -0.769  1.00  0.00     0.332 C 
ATOM     28  C   UNL     1     -22.871  27.011  -2.152  1.00  0.00     0.332 C 
ATOM     29  H   UNL     1     -22.076  27.014  -0.303  1.00  0.00     0.347 HD
ENDBRANCH  25  26
ENDBRANCH  24  25
ENDBRANCH   1  24
TORSDOF 8
ENDMDL
MODEL 5
REMARK VINA RESULT:      -6.2      0.896      1.669
REMARK SMILES CC/C(=C(\c1ccccc1)c1ccc(OCC[NH+](C)C)cc1)c1ccccc1
REMARK SMILES IDX 15 1 14 2 11 3 12 4 22 5 13 6 21 7 4 8 3 9 2 10 1 11 23 12
REMARK SMILES IDX 24 13 28 14 25 15 27 16 26 17 5 18 6 19 10 20 7 21 9 22 8 23
REMARK SMILES IDX 16 24 17 25 18 26 19 27 20 28
REMARK H PARENT 18 29
ROOT
ATOM      1  O   UNL     1     -25.030  26.361   1.755  1.00  0.00    -0.488 OA
ENDROOT
BRANCH   1   2
ATOM      2  C   UNL     1     -25.541  26.585   3.021  1.00  0.00     0.119 A 
ATOM      3  C   UNL     1     -26.505  27.120   5.655  1.00  0.00    -0.017 A 
ATOM      4  C   UNL     1     -27.213  26.334   4.767  1.00  0.00     0.012 A 
ATOM      5  C   UNL     1     -25.298  27.630   5.187  1.00  0.00     0.012 A 
ATOM      6  C   UNL     1     -26.732  26.084   3.492  1.00  0.00     0.047 A 
ATOM      7  C   UNL     1     -24.825  27.381   3.926  1.00  0.00     0.047 A 
BRANCH   3   8
ATOM      8  C   UNL     1     -26.973  27.379   7.006  1.00  0.00    -0.007 C 
ATOM      9  C   UNL     1     -26.577  26.680   8.037  1.00  0.00    -0.033 C 
BRANCH   9  10
ATOM     10  C   UNL     1     -27.058  26.871   9.433  1.00  0.00     0.033 C 
ATOM     11  C   UNL     1     -27.863  25.671   9.838  1.00  0.00     0.009 C 
ENDBRANCH   9  10
BRANCH   9  12
ATOM     12  C   UNL     1     -25.531  25.650   7.900  1.00  0.00    -0.022 A 
ATOM     13  C   UNL     1     -25.805  24.395   7.418  1.00  0.00     0.008 A 
ATOM     14  C   UNL     1     -24.261  25.967   8.277  1.00  0.00     0.008 A 
ATOM     15  C   UNL     1     -24.797  23.470   7.319  1.00  0.00     0.001 A 
ATOM     16  C   UNL     1     -23.205  25.055   8.193  1.00  0.00     0.001 A 
ATOM     17  C   UNL     1     -23.510  23.805   7.706  1.00  0.00     0.000 A 
ENDBRANCH   9  12
BRANCH   8  18
ATOM     18  C   UNL     1     -27.945  28.436   7.195  1.00  0.00    -0.018 A 
ATOM     19  C   UNL     1     -29.294  28.180   7.339  1.00  0.00     0.009 A 
ATOM     20  C   UNL     1     -27.526  29.763   7.185  1.00  0.00     0.009 A 
ATOM     21  C   UNL     1     -30.168  29.229   7.466  1.00  0.00     0.001 A 
ATOM     22  C   UNL     1     -28.387  30.828   7.313  1.00  0.00     0.001 A 
ATOM     23  C   UNL     1     -29.742  30.543   7.457  1.00  0.00     0.000 A 
ENDBRANCH   8  18
ENDBRANCH   3   8
ENDBRANCH   1   2
BRANCH   1  24
ATOM     24  C   UNL     1     -23.901  26.905   1.168  1.00  0.00     0.290 C 
BRANCH  24  25
ATOM     25  C   UNL     1     -23.849  26.838  -0.336  1.00  0.00     0.303 C 
BRANCH  25  26
ATOM     26  N   UNL     1     -23.110  27.918  -0.917  1.00  0.00    -0.337 N 
ATOM     27  C   UNL     1     -22.831  27.732  -2.325  1.00  0.00     0.332 C 
ATOM     28  C   UNL     1     -21.841  28.150  -0.258  1.00  0.00     0.332 C 
ATOM     29  H   UNL     1     -23.641  28.836  -0.840  1.00  0.00     0.347 HD
ENDBRANCH  25  26
ENDBRANCH  24  25
ENDBRANCH   1  24
TORSDOF 8
ENDMDL
MODEL 6
REMARK VINA RESULT:      -6.2      2.932      6.363
REMARK SMILES CC/C(=C(\c1ccccc1)c1ccc(OCC[NH+](C)C)cc1)c1ccccc1
REMARK SMILES IDX 15 1 14 2 11 3 12 4 22 5 13 6 21 7 4 8 3 9 2 10 1 11 23 12
REMARK SMILES IDX 24 13 28 14 25 15 27 16 26 17 5 18 6 19 10 20 7 21 9 22 8 23
REMARK SMILES IDX 16 24 17 25 18 26 19 27 20 28
REMARK H PARENT 18 29
ROOT
ATOM      1  O   UNL     1     -24.784  25.027   7.878  1.00  0.00    -0.488 OA
ENDROOT
BRANCH   1   2
ATOM      2  C   UNL     1     -26.134  24.955   8.168  1.00  0.00     0.119 A 
ATOM      3  C   UNL     1     -28.940  24.754   8.666  1.00  0.00    -0.017 A 
ATOM      4  C   UNL     1     -28.068  25.259   9.610  1.00  0.00     0.012 A 
ATOM      5  C   UNL     1     -28.367  24.353   7.463  1.00  0.00     0.012 A 
ATOM      6  C   UNL     1     -26.709  25.350   9.354  1.00  0.00     0.047 A 
ATOM      7  C   UNL     1     -27.024  24.443   7.212  1.00  0.00     0.047 A 
BRANCH   3   8
ATOM      8  C   UNL     1     -30.371  24.669   8.897  1.00  0.00    -0.007 C 
ATOM      9  C   UNL     1     -31.139  25.725   8.965  1.00  0.00    -0.033 C 
BRANCH   9  10
ATOM     10  C   UNL     1     -32.601  25.699   9.247  1.00  0.00     0.033 C 
ATOM     11  C   UNL     1     -32.813  25.825  10.727  1.00  0.00     0.009 C 
ENDBRANCH   9  10
BRANCH   9  12
ATOM     12  C   UNL     1     -30.605  27.071   8.692  1.00  0.00    -0.022 A 
ATOM     13  C   UNL     1     -30.377  27.517   7.415  1.00  0.00     0.008 A 
ATOM     14  C   UNL     1     -30.326  27.881   9.751  1.00  0.00     0.008 A 
ATOM     15  C   UNL     1     -29.869  28.776   7.215  1.00  0.00     0.001 A 
ATOM     16  C   UNL     1     -29.807  29.169   9.593  1.00  0.00     0.001 A 
ATOM     17  C   UNL     1     -29.589  29.589   8.301  1.00  0.00     0.000 A 
ENDBRANCH   9  12
BRANCH   8  18
ATOM     18  C   UNL     1     -30.949  23.355   9.095  1.00  0.00    -0.018 A 
ATOM     19  C   UNL     1     -31.695  22.723   8.121  1.00  0.00     0.009 A 
ATOM     20  C   UNL     1     -30.795  22.717  10.322  1.00  0.00     0.009 A 
ATOM     21  C   UNL     1     -32.254  21.501   8.390  1.00  0.00     0.001 A 
ATOM     22  C   UNL     1     -31.347  21.491  10.609  1.00  0.00     0.001 A 
ATOM     23  C   UNL     1     -32.095  20.874   9.610  1.00  0.00     0.000 A 
ENDBRANCH   8  18
ENDBRANCH   3   8
ENDBRANCH   1   2
BRANCH   1  24
ATOM     24  C   UNL     1     -24.155  25.709   6.852  1.00  0.00     0.290 C 
BRANCH  24  25
ATOM     25  C   UNL     1     -24.838  26.968   6.387  1.00  0.00     0.303 C 
BRANCH  25  26
ATOM     26  N   UNL     1     -25.379  26.854   5.066  1.00  0.00    -0.337 N 
ATOM     27  C   UNL     1     -24.868  25.718   4.331  1.00  0.00     0.332 C 
ATOM     28  C   UNL     1     -25.138  28.030   4.256  1.00  0.00     0.332 C 
ATOM     29  H   UNL     1     -26.436  26.739   5.090  1.00  0.00     0.347 HD
ENDBRANCH  25  26
ENDBRANCH  24  25
ENDBRANCH   1  24
TORSDOF 8
ENDMDL
MODEL 7
REMARK VINA RESULT:      -6.2      3.013      6.352
REMARK SMILES CC/C(=C(\c1ccccc1)c1ccc(OCC[NH+](C)C)cc1)c1ccccc1
REMARK SMILES IDX 15 1 14 2 11 3 12 4 22 5 13 6 21 7 4 8 3 9 2 10 1 11 23 12
REMARK SMILES IDX 24 13 28 14 25 15 27 16 26 17 5 18 6 19 10 20 7 21 9 22 8 23
REMARK SMILES IDX 16 24 17 25 18 26 19 27 20 28
REMARK H PARENT 18 29
ROOT
ATOM      1  O   UNL     1     -25.131  25.029   7.475  1.00  0.00    -0.488 OA
ENDROOT
BRANCH   1   2
ATOM      2  C   UNL     1     -26.430  24.942   7.941  1.00  0.00     0.119 A 
ATOM      3  C   UNL     1     -29.145  24.713   8.801  1.00  0.00    -0.017 A 
ATOM      4  C   UNL     1     -28.152  25.178   9.641  1.00  0.00     0.012 A 
ATOM      5  C   UNL     1     -28.740  24.366   7.516  1.00  0.00     0.012 A 
ATOM      6  C   UNL     1     -26.839  25.284   9.209  1.00  0.00     0.047 A 
ATOM      7  C   UNL     1     -27.442  24.471   7.091  1.00  0.00     0.047 A 
BRANCH   3   8
ATOM      8  C   UNL     1     -30.532  24.614   9.218  1.00  0.00    -0.007 C 
ATOM      9  C   UNL     1     -31.280  25.665   9.439  1.00  0.00    -0.033 C 
BRANCH   9  10
ATOM     10  C   UNL     1     -32.690  25.623   9.913  1.00  0.00     0.033 C 
ATOM     11  C   UNL     1     -32.703  25.739  11.409  1.00  0.00     0.009 C 
ENDBRANCH   9  10
BRANCH   9  12
ATOM     12  C   UNL     1     -30.781  27.024   9.159  1.00  0.00    -0.022 A 
ATOM     13  C   UNL     1     -30.263  27.825  10.145  1.00  0.00     0.008 A 
ATOM     14  C   UNL     1     -30.853  27.486   7.880  1.00  0.00     0.008 A 
ATOM     15  C   UNL     1     -29.822  29.086   9.833  1.00  0.00     0.001 A 
ATOM     16  C   UNL     1     -30.416  28.763   7.520  1.00  0.00     0.001 A 
ATOM     17  C   UNL     1     -29.901  29.544   8.529  1.00  0.00     0.000 A 
ENDBRANCH   9  12
BRANCH   8  18
ATOM     18  C   UNL     1     -31.084  23.292   9.430  1.00  0.00    -0.018 A 
ATOM     19  C   UNL     1     -30.879  22.586  10.599  1.00  0.00     0.009 A 
ATOM     20  C   UNL     1     -31.808  22.680   8.411  1.00  0.00     0.009 A 
ATOM     21  C   UNL     1     -31.389  21.319  10.716  1.00  0.00     0.001 A 
ATOM     22  C   UNL     1     -32.328  21.411   8.512  1.00  0.00     0.001 A 
ATOM     23  C   UNL     1     -32.108  20.720   9.700  1.00  0.00     0.000 A 
ENDBRANCH   8  18
ENDBRANCH   3   8
ENDBRANCH   1   2
BRANCH   1  24
ATOM     24  C   UNL     1     -24.602  24.548   6.290  1.00  0.00     0.290 C 
BRANCH  24  25
ATOM     25  C   UNL     1     -24.161  25.593   5.299  1.00  0.00     0.303 C 
BRANCH  25  26
ATOM     26  N   UNL     1     -25.233  26.434   4.860  1.00  0.00    -0.337 N 
ATOM     27  C   UNL     1     -26.112  25.794   3.906  1.00  0.00     0.332 C 
ATOM     28  C   UNL     1     -24.770  27.666   4.253  1.00  0.00     0.332 C 
ATOM     29  H   UNL     1     -25.848  26.734   5.674  1.00  0.00     0.347 HD
ENDBRANCH  25  26
ENDBRANCH  24  25
ENDBRANCH   1  24
TORSDOF 8
ENDMDL
MODEL 8
REMARK VINA RESULT:      -6.2      2.974      6.230
REMARK SMILES CC/C(=C(\c1ccccc1)c1ccc(OCC[NH+](C)C)cc1)c1ccccc1
REMARK SMILES IDX 15 1 14 2 11 3 12 4 22 5 13 6 21 7 4 8 3 9 2 10 1 11 23 12
REMARK SMILES IDX 24 13 28 14 25 15 27 16 26 17 5 18 6 19 10 20 7 21 9 22 8 23
REMARK SMILES IDX 16 24 17 25 18 26 19 27 20 28
REMARK H PARENT 18 29
ROOT
ATOM      1  O   UNL     1     -25.173  25.163   7.038  1.00  0.00    -0.488 OA
ENDROOT
BRANCH   1   2
ATOM      2  C   UNL     1     -26.397  25.039   7.670  1.00  0.00     0.119 A 
ATOM      3  C   UNL     1     -28.971  24.748   8.873  1.00  0.00    -0.017 A 
ATOM      4  C   UNL     1     -27.858  25.099   9.612  1.00  0.00     0.012 A 
ATOM      5  C   UNL     1     -28.759  24.548   7.513  1.00  0.00     0.012 A 
ATOM      6  C   UNL     1     -26.615  25.237   9.013  1.00  0.00     0.047 A 
ATOM      7  C   UNL     1     -27.530  24.684   6.924  1.00  0.00     0.047 A 
BRANCH   3   8
ATOM      8  C   UNL     1     -30.289  24.621   9.469  1.00  0.00    -0.007 C 
ATOM      9  C   UNL     1     -30.912  25.626  10.028  1.00  0.00    -0.033 C 
BRANCH   9  10
ATOM     10  C   UNL     1     -32.241  25.541  10.694  1.00  0.00     0.033 C 
ATOM     11  C   UNL     1     -33.276  26.143   9.790  1.00  0.00     0.009 C 
ENDBRANCH   9  10
BRANCH   9  12
ATOM     12  C   UNL     1     -30.351  26.988   9.980  1.00  0.00    -0.022 A 
ATOM     13  C   UNL     1     -30.276  27.703   8.813  1.00  0.00     0.008 A 
ATOM     14  C   UNL     1     -29.887  27.534  11.138  1.00  0.00     0.008 A 
ATOM     15  C   UNL     1     -29.735  28.964   8.821  1.00  0.00     0.001 A 
ATOM     16  C   UNL     1     -29.328  28.814  11.192  1.00  0.00     0.001 A 
ATOM     17  C   UNL     1     -29.268  29.508  10.005  1.00  0.00     0.000 A 
ENDBRANCH   9  12
BRANCH   8  18
ATOM     18  C   UNL     1     -30.909  23.311   9.468  1.00  0.00    -0.018 A 
ATOM     19  C   UNL     1     -31.688  22.865   8.419  1.00  0.00     0.009 A 
ATOM     20  C   UNL     1     -30.763  22.483  10.577  1.00  0.00     0.009 A 
ATOM     21  C   UNL     1     -32.286  21.634   8.503  1.00  0.00     0.001 A 
ATOM     22  C   UNL     1     -31.354  21.245  10.677  1.00  0.00     0.001 A 
ATOM     23  C   UNL     1     -32.134  20.818   9.607  1.00  0.00     0.000 A 
ENDBRANCH   8  18
ENDBRANCH   3   8
ENDBRANCH   1   2
BRANCH   1  24
ATOM     24  C   UNL     1     -24.794  24.706   5.788  1.00  0.00     0.290 C 
BRANCH  24  25
ATOM     25  C   UNL     1     -24.409  25.768   4.792  1.00  0.00     0.303 C 
BRANCH  25  26
ATOM     26  N   UNL     1     -25.132  25.666   3.560  1.00  0.00    -0.337 N 
ATOM     27  C   UNL     1     -24.567  26.465   2.494  1.00  0.00     0.332 C 
ATOM     28  C   UNL     1     -26.523  26.049   3.690  1.00  0.00     0.332 C 
ATOM     29  H   UNL     1     -25.146  24.665   3.202  1.00  0.00     0.347 HD
ENDBRANCH  25  26
ENDBRANCH  24  25
ENDBRANCH   1  24
TORSDOF 8
ENDMDL
MODEL 9
REMARK VINA RESULT:      -6.2      0.865      1.315
REMARK SMILES CC/C(=C(\c1ccccc1)c1ccc(OCC[NH+](C)C)cc1)c1ccccc1
REMARK SMILES IDX 15 1 14 2 11 3 12 4 22 5 13 6 21 7 4 8 3 9 2 10 1 11 23 12
REMARK SMILES IDX 24 13 28 14 25 15 27 16 26 17 5 18 6 19 10 20 7 21 9 22 8 23
REMARK SMILES IDX 16 24 17 25 18 26 19 27 20 28
REMARK H PARENT 18 29
ROOT
ATOM      1  O   UNL     1     -25.389  26.364   1.806  1.00  0.00    -0.488 OA
ENDROOT
BRANCH   1   2
ATOM      2  C   UNL     1     -25.839  26.589   3.094  1.00  0.00     0.119 A 
ATOM      3  C   UNL     1     -26.681  27.128   5.770  1.00  0.00    -0.017 A 
ATOM      4  C   UNL     1     -27.412  26.314   4.928  1.00  0.00     0.012 A 
ATOM      5  C   UNL     1     -25.514  27.664   5.235  1.00  0.00     0.012 A 
ATOM      6  C   UNL     1     -26.990  26.062   3.632  1.00  0.00     0.047 A 
ATOM      7  C   UNL     1     -25.099  27.414   3.954  1.00  0.00     0.047 A 
BRANCH   3   8
ATOM      8  C   UNL     1     -27.085  27.390   7.140  1.00  0.00    -0.007 C 
ATOM      9  C   UNL     1     -26.614  26.716   8.157  1.00  0.00    -0.033 C 
BRANCH   9  10
ATOM     10  C   UNL     1     -27.028  26.910   9.574  1.00  0.00     0.033 C 
ATOM     11  C   UNL     1     -27.906  25.765   9.985  1.00  0.00     0.009 C 
ENDBRANCH   9  10
BRANCH   9  12
ATOM     12  C   UNL     1     -25.545  25.716   7.976  1.00  0.00    -0.022 A 
ATOM     13  C   UNL     1     -24.234  25.995   8.264  1.00  0.00     0.008 A 
ATOM     14  C   UNL     1     -25.887  24.488   7.498  1.00  0.00     0.008 A 
ATOM     15  C   UNL     1     -23.276  25.032   8.069  1.00  0.00     0.001 A 
ATOM     16  C   UNL     1     -24.943  23.479   7.283  1.00  0.00     0.001 A 
ATOM     17  C   UNL     1     -23.636  23.787   7.581  1.00  0.00     0.000 A 
ENDBRANCH   9  12
BRANCH   8  18
ATOM     18  C   UNL     1     -28.079  28.419   7.369  1.00  0.00    -0.018 A 
ATOM     19  C   UNL     1     -29.424  28.131   7.488  1.00  0.00     0.009 A 
ATOM     20  C   UNL     1     -27.684  29.752   7.424  1.00  0.00     0.009 A 
ATOM     21  C   UNL     1     -30.318  29.157   7.655  1.00  0.00     0.001 A 
ATOM     22  C   UNL     1     -28.567  30.794   7.592  1.00  0.00     0.001 A 
ATOM     23  C   UNL     1     -29.917  30.478   7.711  1.00  0.00     0.000 A 
ENDBRANCH   8  18
ENDBRANCH   3   8
ENDBRANCH   1   2
BRANCH   1  24
ATOM     24  C   UNL     1     -24.153  26.657   1.258  1.00  0.00     0.290 C 
BRANCH  24  25
ATOM     25  C   UNL     1     -24.118  26.796  -0.241  1.00  0.00     0.303 C 
BRANCH  25  26
ATOM     26  N   UNL     1     -22.876  27.319  -0.725  1.00  0.00    -0.337 N 
ATOM     27  C   UNL     1     -22.669  28.711  -0.391  1.00  0.00     0.332 C 
ATOM     28  C   UNL     1     -22.737  27.200  -2.162  1.00  0.00     0.332 C 
ATOM     29  H   UNL     1     -22.048  26.791  -0.316  1.00  0.00     0.347 HD
ENDBRANCH  25  26
ENDBRANCH  24  25
ENDBRANCH   1  24
TORSDOF 8
ENDMDL
