MODEL 1
REMARK VINA RESULT:      -5.8      0.000      0.000
REMARK SMILES CCCCC/C=C\C/C=C\C/C=C\C/C=C\CCCC(=O)NCC(=O)[O-]
REMARK SMILES IDX 12 1 13 2 11 3 10 4 9 5 8 6 7 7 6 8 5 9 4 10 3 11 2 12 1 13
REMARK SMILES IDX 14 14 15 15 16 16 17 17 18 18 19 19 20 20 21 21 22 22 23 24
REMARK SMILES IDX 24 25 25 26 26 27
REMARK H PARENT 22 23
ROOT
ATOM      1  C   UNL     1       8.154  -7.915 -13.178  1.00  0.00    -0.027 C 
ATOM      2  C   UNL     1       7.096  -8.388 -12.602  1.00  0.00    -0.027 C 
ENDROOT
BRANCH   1   3
ATOM      3  C   UNL     1       8.336  -7.926 -14.638  1.00  0.00     0.054 C 
BRANCH   3   4
ATOM      4  C   UNL     1       8.219  -6.531 -15.147  1.00  0.00    -0.027 C 
ATOM      5  C   UNL     1       8.559  -6.108 -16.324  1.00  0.00    -0.027 C 
BRANCH   5   6
ATOM      6  C   UNL     1       9.130  -7.078 -17.308  1.00  0.00     0.054 C 
BRANCH   6   7
ATOM      7  C   UNL     1      10.267  -6.449 -18.017  1.00  0.00    -0.027 C 
ATOM      8  C   UNL     1      11.450  -7.019 -18.042  1.00  0.00    -0.031 C 
BRANCH   8   9
ATOM      9  C   UNL     1      11.816  -8.288 -17.410  1.00  0.00     0.027 C 
BRANCH   9  10
ATOM     10  C   UNL     1      12.624  -9.182 -18.334  1.00  0.00     0.004 C 
BRANCH  10  11
ATOM     11  C   UNL     1      13.241  -8.415 -19.469  1.00  0.00     0.000 C 
BRANCH  11  12
ATOM     12  C   UNL     1      13.359  -9.231 -20.732  1.00  0.00    -0.003 C 
ATOM     13  C   UNL     1      13.095 -10.685 -20.511  1.00  0.00     0.004 C 
ENDBRANCH  11  12
ENDBRANCH  10  11
ENDBRANCH   9  10
ENDBRANCH   8   9
ENDBRANCH   6   7
ENDBRANCH   5   6
ENDBRANCH   3   4
ENDBRANCH   1   3
BRANCH   2  14
ATOM     14  C   UNL     1       5.917  -9.001 -13.257  1.00  0.00     0.054 C 
BRANCH  14  15
ATOM     15  C   UNL     1       5.019  -9.525 -12.247  1.00  0.00    -0.027 C 
ATOM     16  C   UNL     1       4.446 -10.671 -12.295  1.00  0.00    -0.031 C 
BRANCH  16  17
ATOM     17  C   UNL     1       4.575 -11.633 -13.326  1.00  0.00     0.027 C 
BRANCH  17  18
ATOM     18  C   UNL     1       5.178 -12.938 -12.932  1.00  0.00     0.014 C 
BRANCH  18  19
ATOM     19  C   UNL     1       4.844 -14.065 -13.802  1.00  0.00     0.100 C 
BRANCH  19  20
ATOM     20  C   UNL     1       4.840 -15.429 -13.275  1.00  0.00     0.220 C 
ATOM     21  O   UNL     1       5.525 -16.400 -13.662  1.00  0.00    -0.275 OA
ATOM     22  N   UNL     1       3.950 -15.744 -12.170  1.00  0.00    -0.351 N 
ATOM     23  H   UNL     1       3.368 -14.958 -11.825  1.00  0.00     0.163 HD
BRANCH  22  24
ATOM     24  C   UNL     1       3.890 -17.051 -11.602  1.00  0.00     0.168 C 
BRANCH  24  25
ATOM     25  C   UNL     1       4.631 -17.094 -10.326  1.00  0.00     0.061 C 
ATOM     26  O   UNL     1       5.869 -16.908 -10.271  1.00  0.00    -0.548 OA
ATOM     27  O   UNL     1       3.938 -17.347  -9.157  1.00  0.00    -0.548 OA
ENDBRANCH  24  25
ENDBRANCH  22  24
ENDBRANCH  19  20
ENDBRANCH  18  19
ENDBRANCH  17  18
ENDBRANCH  16  17
ENDBRANCH  14  15
ENDBRANCH   2  14
TORSDOF 16
ENDMDL
MODEL 2
REMARK VINA RESULT:      -5.7      3.863      7.526
REMARK SMILES CCCCC/C=C\C/C=C\C/C=C\C/C=C\CCCC(=O)NCC(=O)[O-]
REMARK SMILES IDX 12 1 13 2 11 3 10 4 9 5 8 6 7 7 6 8 5 9 4 10 3 11 2 12 1 13
REMARK SMILES IDX 14 14 15 15 16 16 17 17 18 18 19 19 20 20 21 21 22 22 23 24
REMARK SMILES IDX 24 25 25 26 26 27
REMARK H PARENT 22 23
ROOT
ATOM      1  C   UNL     1      12.489  -7.928 -19.730  1.00  0.00    -0.027 C 
ATOM      2  C   UNL     1      12.011  -7.571 -18.581  1.00  0.00    -0.027 C 
ENDROOT
BRANCH   1   3
ATOM      3  C   UNL     1      13.439  -9.041 -19.883  1.00  0.00     0.054 C 
BRANCH   3   4
ATOM      4  C   UNL     1      13.794  -9.174 -21.324  1.00  0.00    -0.027 C 
ATOM      5  C   UNL     1      13.437 -10.131 -22.121  1.00  0.00    -0.027 C 
BRANCH   5   6
ATOM      6  C   UNL     1      12.581 -11.236 -21.592  1.00  0.00     0.054 C 
BRANCH   6   7
ATOM      7  C   UNL     1      11.256 -11.192 -22.253  1.00  0.00    -0.027 C 
ATOM      8  C   UNL     1      10.734 -12.265 -22.799  1.00  0.00    -0.031 C 
BRANCH   8   9
ATOM      9  C   UNL     1      11.339 -13.598 -22.845  1.00  0.00     0.027 C 
BRANCH   9  10
ATOM     10  C   UNL     1      10.559 -14.615 -22.031  1.00  0.00     0.004 C 
BRANCH  10  11
ATOM     11  C   UNL     1       9.902 -13.997 -20.829  1.00  0.00     0.000 C 
BRANCH  11  12
ATOM     12  C   UNL     1       8.455 -14.396 -20.683  1.00  0.00    -0.003 C 
ATOM     13  C   UNL     1       7.696 -14.312 -21.967  1.00  0.00     0.004 C 
ENDBRANCH  11  12
ENDBRANCH  10  11
ENDBRANCH   9  10
ENDBRANCH   8   9
ENDBRANCH   6   7
ENDBRANCH   5   6
ENDBRANCH   3   4
ENDBRANCH   1   3
BRANCH   2  14
ATOM     14  C   UNL     1      12.305  -8.176 -17.261  1.00  0.00     0.054 C 
BRANCH  14  15
ATOM     15  C   UNL     1      11.216  -9.053 -16.877  1.00  0.00    -0.027 C 
ATOM     16  C   UNL     1      10.028  -8.668 -16.587  1.00  0.00    -0.031 C 
BRANCH  16  17
ATOM     17  C   UNL     1       9.555  -7.333 -16.583  1.00  0.00     0.027 C 
BRANCH  17  18
ATOM     18  C   UNL     1       8.266  -7.098 -15.872  1.00  0.00     0.014 C 
BRANCH  18  19
ATOM     19  C   UNL     1       8.199  -7.631 -14.513  1.00  0.00     0.100 C 
BRANCH  19  20
ATOM     20  C   UNL     1       6.905  -7.824 -13.857  1.00  0.00     0.220 C 
ATOM     21  O   UNL     1       5.819  -7.272 -14.134  1.00  0.00    -0.275 OA
ATOM     22  N   UNL     1       6.822  -8.757 -12.747  1.00  0.00    -0.351 N 
ATOM     23  H   UNL     1       7.709  -9.232 -12.493  1.00  0.00     0.163 HD
BRANCH  22  24
ATOM     24  C   UNL     1       5.597  -8.999 -12.058  1.00  0.00     0.168 C 
BRANCH  24  25
ATOM     25  C   UNL     1       4.982 -10.257 -12.525  1.00  0.00     0.061 C 
ATOM     26  O   UNL     1       3.822 -10.593 -12.191  1.00  0.00    -0.548 OA
ATOM     27  O   UNL     1       5.709 -11.089 -13.355  1.00  0.00    -0.548 OA
ENDBRANCH  24  25
ENDBRANCH  22  24
ENDBRANCH  19  20
ENDBRANCH  18  19
ENDBRANCH  17  18
ENDBRANCH  16  17
ENDBRANCH  14  15
ENDBRANCH   2  14
TORSDOF 16
ENDMDL
MODEL 3
REMARK VINA RESULT:      -5.5      5.335     10.399
REMARK SMILES CCCCC/C=C\C/C=C\C/C=C\C/C=C\CCCC(=O)NCC(=O)[O-]
REMARK SMILES IDX 12 1 13 2 11 3 10 4 9 5 8 6 7 7 6 8 5 9 4 10 3 11 2 12 1 13
REMARK SMILES IDX 14 14 15 15 16 16 17 17 18 18 19 19 20 20 21 21 22 22 23 24
REMARK SMILES IDX 24 25 25 26 26 27
REMARK H PARENT 22 23
ROOT
ATOM      1  C   UNL     1       7.641  -6.769 -13.998  1.00  0.00    -0.027 C 
ATOM      2  C   UNL     1       8.034  -6.688 -15.229  1.00  0.00    -0.027 C 
ENDROOT
BRANCH   1   3
ATOM      3  C   UNL     1       7.757  -8.005 -13.208  1.00  0.00     0.054 C 
BRANCH   3   4
ATOM      4  C   UNL     1       6.817  -7.928 -12.055  1.00  0.00    -0.027 C 
ATOM      5  C   UNL     1       5.823  -8.725 -11.815  1.00  0.00    -0.027 C 
BRANCH   5   6
ATOM      6  C   UNL     1       5.552  -9.853 -12.758  1.00  0.00     0.054 C 
BRANCH   6   7
ATOM      7  C   UNL     1       4.277 -10.508 -12.388  1.00  0.00    -0.027 C 
ATOM      8  C   UNL     1       4.081 -11.787 -12.615  1.00  0.00    -0.031 C 
BRANCH   8   9
ATOM      9  C   UNL     1       5.029 -12.714 -13.236  1.00  0.00     0.027 C 
BRANCH   9  10
ATOM     10  C   UNL     1       4.728 -14.163 -12.895  1.00  0.00     0.004 C 
BRANCH  10  11
ATOM     11  C   UNL     1       5.567 -15.120 -13.693  1.00  0.00     0.000 C 
BRANCH  11  12
ATOM     12  C   UNL     1       6.668 -15.753 -12.880  1.00  0.00    -0.003 C 
ATOM     13  C   UNL     1       6.152 -16.565 -11.736  1.00  0.00     0.004 C 
ENDBRANCH  11  12
ENDBRANCH  10  11
ENDBRANCH   9  10
ENDBRANCH   8   9
ENDBRANCH   6   7
ENDBRANCH   5   6
ENDBRANCH   3   4
ENDBRANCH   1   3
BRANCH   2  14
ATOM     14  C   UNL     1       8.648  -7.759 -16.046  1.00  0.00     0.054 C 
BRANCH  14  15
ATOM     15  C   UNL     1       9.564  -7.173 -17.005  1.00  0.00    -0.027 C 
ATOM     16  C   UNL     1      10.670  -7.700 -17.385  1.00  0.00    -0.031 C 
BRANCH  16  17
ATOM     17  C   UNL     1      11.205  -8.935 -16.948  1.00  0.00     0.027 C 
BRANCH  17  18
ATOM     18  C   UNL     1      12.443  -9.394 -17.640  1.00  0.00     0.014 C 
BRANCH  18  19
ATOM     19  C   UNL     1      12.937  -8.500 -18.687  1.00  0.00     0.100 C 
BRANCH  19  20
ATOM     20  C   UNL     1      13.088  -8.983 -20.059  1.00  0.00     0.220 C 
ATOM     21  O   UNL     1      13.158  -8.303 -21.105  1.00  0.00    -0.275 OA
ATOM     22  N   UNL     1      13.173 -10.416 -20.286  1.00  0.00    -0.351 N 
ATOM     23  H   UNL     1      13.119 -11.008 -19.435  1.00  0.00     0.163 HD
BRANCH  22  24
ATOM     24  C   UNL     1      13.322 -10.963 -21.594  1.00  0.00     0.168 C 
BRANCH  24  25
ATOM     25  C   UNL     1      12.000 -11.228 -22.196  1.00  0.00     0.061 C 
ATOM     26  O   UNL     1      11.158 -11.975 -21.645  1.00  0.00    -0.548 OA
ATOM     27  O   UNL     1      11.683 -10.634 -23.403  1.00  0.00    -0.548 OA
ENDBRANCH  24  25
ENDBRANCH  22  24
ENDBRANCH  19  20
ENDBRANCH  18  19
ENDBRANCH  17  18
ENDBRANCH  16  17
ENDBRANCH  14  15
ENDBRANCH   2  14
TORSDOF 16
ENDMDL
MODEL 4
REMARK VINA RESULT:      -5.4      6.634     11.920
REMARK SMILES CCCCC/C=C\C/C=C\C/C=C\C/C=C\CCCC(=O)NCC(=O)[O-]
REMARK SMILES IDX 12 1 13 2 11 3 10 4 9 5 8 6 7 7 6 8 5 9 4 10 3 11 2 12 1 13
REMARK SMILES IDX 14 14 15 15 16 16 17 17 18 18 19 19 20 20 21 21 22 22 23 24
REMARK SMILES IDX 24 25 25 26 26 27
REMARK H PARENT 22 23
ROOT
ATOM      1  C   UNL     1       8.625  -7.418 -15.930  1.00  0.00    -0.027 C 
ATOM      2  C   UNL     1       9.475  -7.636 -16.882  1.00  0.00    -0.027 C 
ENDROOT
BRANCH   1   3
ATOM      3  C   UNL     1       8.614  -8.196 -14.681  1.00  0.00     0.054 C 
BRANCH   3   4
ATOM      4  C   UNL     1       7.844  -7.443 -13.652  1.00  0.00    -0.027 C 
ATOM      5  C   UNL     1       6.720  -7.800 -13.116  1.00  0.00    -0.027 C 
BRANCH   5   6
ATOM      6  C   UNL     1       6.091  -9.090 -13.535  1.00  0.00     0.054 C 
BRANCH   6   7
ATOM      7  C   UNL     1       5.188  -9.569 -12.465  1.00  0.00    -0.027 C 
ATOM      8  C   UNL     1       4.798 -10.822 -12.416  1.00  0.00    -0.031 C 
BRANCH   8   9
ATOM      9  C   UNL     1       5.168 -11.883 -13.355  1.00  0.00     0.027 C 
BRANCH   9  10
ATOM     10  C   UNL     1       4.515 -13.211 -13.012  1.00  0.00     0.004 C 
BRANCH  10  11
ATOM     11  C   UNL     1       5.455 -14.369 -13.193  1.00  0.00     0.000 C 
BRANCH  11  12
ATOM     12  C   UNL     1       4.738 -15.677 -13.412  1.00  0.00    -0.003 C 
ATOM     13  C   UNL     1       5.352 -16.503 -14.496  1.00  0.00     0.004 C 
ENDBRANCH  11  12
ENDBRANCH  10  11
ENDBRANCH   9  10
ENDBRANCH   8   9
ENDBRANCH   6   7
ENDBRANCH   5   6
ENDBRANCH   3   4
ENDBRANCH   1   3
BRANCH   2  14
ATOM     14  C   UNL     1      10.552  -8.653 -16.905  1.00  0.00     0.054 C 
BRANCH  14  15
ATOM     15  C   UNL     1      11.841  -7.993 -16.983  1.00  0.00    -0.027 C 
ATOM     16  C   UNL     1      12.762  -8.274 -17.829  1.00  0.00    -0.031 C 
BRANCH  16  17
ATOM     17  C   UNL     1      12.704  -9.269 -18.835  1.00  0.00     0.027 C 
BRANCH  17  18
ATOM     18  C   UNL     1      13.458  -8.978 -20.088  1.00  0.00     0.014 C 
BRANCH  18  19
ATOM     19  C   UNL     1      13.538 -10.087 -21.037  1.00  0.00     0.100 C 
BRANCH  19  20
ATOM     20  C   UNL     1      14.461 -10.024 -22.170  1.00  0.00     0.220 C 
ATOM     21  O   UNL     1      14.484 -10.762 -23.179  1.00  0.00    -0.275 OA
ATOM     22  N   UNL     1      15.493  -9.001 -22.170  1.00  0.00    -0.351 N 
ATOM     23  H   UNL     1      15.500  -8.373 -21.344  1.00  0.00     0.163 HD
BRANCH  22  24
ATOM     24  C   UNL     1      16.429  -8.877 -23.238  1.00  0.00     0.168 C 
BRANCH  24  25
ATOM     25  C   UNL     1      17.742  -9.423 -22.839  1.00  0.00     0.061 C 
ATOM     26  O   UNL     1      17.989 -10.651 -22.878  1.00  0.00    -0.548 OA
ATOM     27  O   UNL     1      18.727  -8.554 -22.411  1.00  0.00    -0.548 OA
ENDBRANCH  24  25
ENDBRANCH  22  24
ENDBRANCH  19  20
ENDBRANCH  18  19
ENDBRANCH  17  18
ENDBRANCH  16  17
ENDBRANCH  14  15
ENDBRANCH   2  14
TORSDOF 16
ENDMDL
MODEL 5
REMARK VINA RESULT:      -5.4      5.463     10.319
REMARK SMILES CCCCC/C=C\C/C=C\C/C=C\C/C=C\CCCC(=O)NCC(=O)[O-]
REMARK SMILES IDX 12 1 13 2 11 3 10 4 9 5 8 6 7 7 6 8 5 9 4 10 3 11 2 12 1 13
REMARK SMILES IDX 14 14 15 15 16 16 17 17 18 18 19 19 20 20 21 21 22 22 23 24
REMARK SMILES IDX 24 25 25 26 26 27
REMARK H PARENT 22 23
ROOT
ATOM      1  C   UNL     1       8.184  -5.998 -15.080  1.00  0.00    -0.027 C 
ATOM      2  C   UNL     1       8.613  -6.287 -16.267  1.00  0.00    -0.027 C 
ENDROOT
BRANCH   1   3
ATOM      3  C   UNL     1       7.724  -7.024 -14.131  1.00  0.00     0.054 C 
BRANCH   3   4
ATOM      4  C   UNL     1       6.430  -7.579 -14.614  1.00  0.00    -0.027 C 
ATOM      5  C   UNL     1       5.684  -8.444 -14.000  1.00  0.00    -0.027 C 
BRANCH   5   6
ATOM      6  C   UNL     1       6.121  -8.965 -12.669  1.00  0.00     0.054 C 
BRANCH   6   7
ATOM      7  C   UNL     1       4.970  -9.597 -11.985  1.00  0.00    -0.027 C 
ATOM      8  C   UNL     1       4.555 -10.797 -12.323  1.00  0.00    -0.031 C 
BRANCH   8   9
ATOM      9  C   UNL     1       5.126 -11.651 -13.367  1.00  0.00     0.027 C 
BRANCH   9  10
ATOM     10  C   UNL     1       4.825 -13.122 -13.138  1.00  0.00     0.004 C 
BRANCH  10  11
ATOM     11  C   UNL     1       6.076 -13.942 -12.998  1.00  0.00     0.000 C 
BRANCH  11  12
ATOM     12  C   UNL     1       5.797 -15.419 -12.869  1.00  0.00    -0.003 C 
ATOM     13  C   UNL     1       4.377 -15.770 -13.174  1.00  0.00     0.004 C 
ENDBRANCH  11  12
ENDBRANCH  10  11
ENDBRANCH   9  10
ENDBRANCH   8   9
ENDBRANCH   6   7
ENDBRANCH   5   6
ENDBRANCH   3   4
ENDBRANCH   1   3
BRANCH   2  14
ATOM     14  C   UNL     1       8.725  -7.632 -16.877  1.00  0.00     0.054 C 
BRANCH  14  15
ATOM     15  C   UNL     1       9.718  -8.408 -16.159  1.00  0.00    -0.027 C 
ATOM     16  C   UNL     1      10.900  -8.664 -16.583  1.00  0.00    -0.031 C 
BRANCH  16  17
ATOM     17  C   UNL     1      11.459  -8.249 -17.816  1.00  0.00     0.027 C 
BRANCH  17  18
ATOM     18  C   UNL     1      12.673  -8.987 -18.267  1.00  0.00     0.014 C 
BRANCH  18  19
ATOM     19  C   UNL     1      13.254  -8.519 -19.524  1.00  0.00     0.100 C 
BRANCH  19  20
ATOM     20  C   UNL     1      13.480  -9.453 -20.626  1.00  0.00     0.220 C 
ATOM     21  O   UNL     1      14.029  -9.220 -21.725  1.00  0.00    -0.275 OA
ATOM     22  N   UNL     1      13.032 -10.827 -20.475  1.00  0.00    -0.351 N 
ATOM     23  H   UNL     1      12.572 -11.051 -19.573  1.00  0.00     0.163 HD
BRANCH  22  24
ATOM     24  C   UNL     1      13.217 -11.796 -21.505  1.00  0.00     0.168 C 
BRANCH  24  25
ATOM     25  C   UNL     1      14.281 -12.748 -21.132  1.00  0.00     0.061 C 
ATOM     26  O   UNL     1      14.037 -13.950 -20.877  1.00  0.00    -0.548 OA
ATOM     27  O   UNL     1      15.586 -12.299 -21.061  1.00  0.00    -0.548 OA
ENDBRANCH  24  25
ENDBRANCH  22  24
ENDBRANCH  19  20
ENDBRANCH  18  19
ENDBRANCH  17  18
ENDBRANCH  16  17
ENDBRANCH  14  15
ENDBRANCH   2  14
TORSDOF 16
ENDMDL
MODEL 6
REMARK VINA RESULT:      -5.4      4.325      7.542
REMARK SMILES CCCCC/C=C\C/C=C\C/C=C\C/C=C\CCCC(=O)NCC(=O)[O-]
REMARK SMILES IDX 12 1 13 2 11 3 10 4 9 5 8 6 7 7 6 8 5 9 4 10 3 11 2 12 1 13
REMARK SMILES IDX 14 14 15 15 16 16 17 17 18 18 19 19 20 20 21 21 22 22 23 24
REMARK SMILES IDX 24 25 25 26 26 27
REMARK H PARENT 22 23
ROOT
ATOM      1  C   UNL     1      12.194  -7.319 -19.870  1.00  0.00    -0.027 C 
ATOM      2  C   UNL     1      11.882  -7.160 -18.623  1.00  0.00    -0.027 C 
ENDROOT
BRANCH   1   3
ATOM      3  C   UNL     1      13.081  -8.397 -20.335  1.00  0.00     0.054 C 
BRANCH   3   4
ATOM      4  C   UNL     1      12.866  -8.598 -21.795  1.00  0.00    -0.027 C 
ATOM      5  C   UNL     1      13.767  -8.922 -22.670  1.00  0.00    -0.027 C 
BRANCH   5   6
ATOM      6  C   UNL     1      15.176  -9.130 -22.218  1.00  0.00     0.054 C 
BRANCH   6   7
ATOM      7  C   UNL     1      15.776 -10.252 -22.975  1.00  0.00    -0.027 C 
ATOM      8  C   UNL     1      15.756 -11.477 -22.501  1.00  0.00    -0.031 C 
BRANCH   8   9
ATOM      9  C   UNL     1      15.178 -11.905 -21.226  1.00  0.00     0.027 C 
BRANCH   9  10
ATOM     10  C   UNL     1      13.839 -12.600 -21.404  1.00  0.00     0.004 C 
BRANCH  10  11
ATOM     11  C   UNL     1      13.557 -12.930 -22.843  1.00  0.00     0.000 C 
BRANCH  11  12
ATOM     12  C   UNL     1      12.274 -12.314 -23.344  1.00  0.00    -0.003 C 
ATOM     13  C   UNL     1      12.421 -11.679 -24.689  1.00  0.00     0.004 C 
ENDBRANCH  11  12
ENDBRANCH  10  11
ENDBRANCH   9  10
ENDBRANCH   8   9
ENDBRANCH   6   7
ENDBRANCH   5   6
ENDBRANCH   3   4
ENDBRANCH   1   3
BRANCH   2  14
ATOM     14  C   UNL     1      12.327  -7.986 -17.476  1.00  0.00     0.054 C 
BRANCH  14  15
ATOM     15  C   UNL     1      11.236  -8.837 -17.040  1.00  0.00    -0.027 C 
ATOM     16  C   UNL     1      10.041  -8.438 -16.802  1.00  0.00    -0.031 C 
BRANCH  16  17
ATOM     17  C   UNL     1       9.560  -7.111 -16.915  1.00  0.00     0.027 C 
BRANCH  17  18
ATOM     18  C   UNL     1       8.656  -6.647 -15.824  1.00  0.00     0.014 C 
BRANCH  18  19
ATOM     19  C   UNL     1       7.768  -7.671 -15.276  1.00  0.00     0.100 C 
BRANCH  19  20
ATOM     20  C   UNL     1       7.775  -7.966 -13.844  1.00  0.00     0.220 C 
ATOM     21  O   UNL     1       8.765  -8.190 -13.114  1.00  0.00    -0.275 OA
ATOM     22  N   UNL     1       6.505  -8.014 -13.138  1.00  0.00    -0.351 N 
ATOM     23  H   UNL     1       5.664  -7.832 -13.717  1.00  0.00     0.163 HD
BRANCH  22  24
ATOM     24  C   UNL     1       6.430  -8.295 -11.742  1.00  0.00     0.168 C 
BRANCH  24  25
ATOM     25  C   UNL     1       5.227  -9.094 -11.440  1.00  0.00     0.061 C 
ATOM     26  O   UNL     1       4.774  -9.941 -12.244  1.00  0.00    -0.548 OA
ATOM     27  O   UNL     1       4.579  -8.900 -10.235  1.00  0.00    -0.548 OA
ENDBRANCH  24  25
ENDBRANCH  22  24
ENDBRANCH  19  20
ENDBRANCH  18  19
ENDBRANCH  17  18
ENDBRANCH  16  17
ENDBRANCH  14  15
ENDBRANCH   2  14
TORSDOF 16
ENDMDL
MODEL 7
REMARK VINA RESULT:      -5.3      7.021     11.966
REMARK SMILES CCCCC/C=C\C/C=C\C/C=C\C/C=C\CCCC(=O)NCC(=O)[O-]
REMARK SMILES IDX 12 1 13 2 11 3 10 4 9 5 8 6 7 7 6 8 5 9 4 10 3 11 2 12 1 13
REMARK SMILES IDX 14 14 15 15 16 16 17 17 18 18 19 19 20 20 21 21 22 22 23 24
REMARK SMILES IDX 24 25 25 26 26 27
REMARK H PARENT 22 23
ROOT
ATOM      1  C   UNL     1      11.228  -7.542 -17.115  1.00  0.00    -0.027 C 
ATOM      2  C   UNL     1      12.309  -7.941 -17.705  1.00  0.00    -0.027 C 
ENDROOT
BRANCH   1   3
ATOM      3  C   UNL     1       9.959  -8.281 -17.197  1.00  0.00     0.054 C 
BRANCH   3   4
ATOM      4  C   UNL     1       8.851  -7.384 -16.764  1.00  0.00    -0.027 C 
ATOM      5  C   UNL     1       8.203  -7.445 -15.643  1.00  0.00    -0.027 C 
BRANCH   5   6
ATOM      6  C   UNL     1       8.567  -8.501 -14.650  1.00  0.00     0.054 C 
BRANCH   6   7
ATOM      7  C   UNL     1       8.549  -7.923 -13.287  1.00  0.00    -0.027 C 
ATOM      8  C   UNL     1       7.420  -7.749 -12.639  1.00  0.00    -0.031 C 
BRANCH   8   9
ATOM      9  C   UNL     1       6.079  -8.075 -13.127  1.00  0.00     0.027 C 
BRANCH   9  10
ATOM     10  C   UNL     1       5.537  -9.356 -12.518  1.00  0.00     0.004 C 
BRANCH  10  11
ATOM     11  C   UNL     1       5.745 -10.543 -13.415  1.00  0.00     0.000 C 
BRANCH  11  12
ATOM     12  C   UNL     1       4.950 -11.750 -12.982  1.00  0.00    -0.003 C 
ATOM     13  C   UNL     1       3.645 -11.390 -12.349  1.00  0.00     0.004 C 
ENDBRANCH  11  12
ENDBRANCH  10  11
ENDBRANCH   9  10
ENDBRANCH   8   9
ENDBRANCH   6   7
ENDBRANCH   5   6
ENDBRANCH   3   4
ENDBRANCH   1   3
BRANCH   2  14
ATOM     14  C   UNL     1      12.480  -9.157 -18.534  1.00  0.00     0.054 C 
BRANCH  14  15
ATOM     15  C   UNL     1      13.162  -8.811 -19.767  1.00  0.00    -0.027 C 
ATOM     16  C   UNL     1      13.375  -9.616 -20.741  1.00  0.00    -0.031 C 
BRANCH  16  17
ATOM     17  C   UNL     1      12.993 -10.978 -20.805  1.00  0.00     0.027 C 
BRANCH  17  18
ATOM     18  C   UNL     1      13.720 -11.816 -21.800  1.00  0.00     0.014 C 
BRANCH  18  19
ATOM     19  C   UNL     1      14.956 -12.427 -21.314  1.00  0.00     0.100 C 
BRANCH  19  20
ATOM     20  C   UNL     1      16.254 -11.887 -21.716  1.00  0.00     0.220 C 
ATOM     21  O   UNL     1      16.525 -11.235 -22.747  1.00  0.00    -0.275 OA
ATOM     22  N   UNL     1      17.398 -12.107 -20.846  1.00  0.00    -0.351 N 
ATOM     23  H   UNL     1      17.204 -12.646 -19.980  1.00  0.00     0.163 HD
BRANCH  22  24
ATOM     24  C   UNL     1      18.695 -11.612 -21.169  1.00  0.00     0.168 C 
BRANCH  24  25
ATOM     25  C   UNL     1      19.473 -12.638 -21.892  1.00  0.00     0.061 C 
ATOM     26  O   UNL     1      19.435 -13.848 -21.571  1.00  0.00    -0.548 OA
ATOM     27  O   UNL     1      20.267 -12.250 -22.955  1.00  0.00    -0.548 OA
ENDBRANCH  24  25
ENDBRANCH  22  24
ENDBRANCH  19  20
ENDBRANCH  18  19
ENDBRANCH  17  18
ENDBRANCH  16  17
ENDBRANCH  14  15
ENDBRANCH   2  14
TORSDOF 16
ENDMDL
MODEL 8
REMARK VINA RESULT:      -5.3      2.326      3.537
REMARK SMILES CCCCC/C=C\C/C=C\C/C=C\C/C=C\CCCC(=O)NCC(=O)[O-]
REMARK SMILES IDX 12 1 13 2 11 3 10 4 9 5 8 6 7 7 6 8 5 9 4 10 3 11 2 12 1 13
REMARK SMILES IDX 14 14 15 15 16 16 17 17 18 18 19 19 20 20 21 21 22 22 23 24
REMARK SMILES IDX 24 25 25 26 26 27
REMARK H PARENT 22 23
ROOT
ATOM      1  C   UNL     1       6.689  -8.204 -11.800  1.00  0.00    -0.027 C 
ATOM      2  C   UNL     1       5.608  -8.916 -11.805  1.00  0.00    -0.027 C 
ENDROOT
BRANCH   1   3
ATOM      3  C   UNL     1       7.650  -8.210 -12.914  1.00  0.00     0.054 C 
BRANCH   3   4
ATOM      4  C   UNL     1       7.765  -6.828 -13.457  1.00  0.00    -0.027 C 
ATOM      5  C   UNL     1       7.847  -6.495 -14.707  1.00  0.00    -0.027 C 
BRANCH   5   6
ATOM      6  C   UNL     1       7.826  -7.567 -15.748  1.00  0.00     0.054 C 
BRANCH   6   7
ATOM      7  C   UNL     1       9.195  -8.096 -15.939  1.00  0.00    -0.027 C 
ATOM      8  C   UNL     1       9.990  -7.605 -16.862  1.00  0.00    -0.031 C 
BRANCH   8   9
ATOM      9  C   UNL     1       9.670  -6.524 -17.797  1.00  0.00     0.027 C 
BRANCH   9  10
ATOM     10  C   UNL     1      10.897  -6.012 -18.530  1.00  0.00     0.004 C 
BRANCH  10  11
ATOM     11  C   UNL     1      12.043  -6.982 -18.465  1.00  0.00     0.000 C 
BRANCH  11  12
ATOM     12  C   UNL     1      12.361  -7.605 -19.801  1.00  0.00    -0.003 C 
ATOM     13  C   UNL     1      13.233  -8.813 -19.687  1.00  0.00     0.004 C 
ENDBRANCH  11  12
ENDBRANCH  10  11
ENDBRANCH   9  10
ENDBRANCH   8   9
ENDBRANCH   6   7
ENDBRANCH   5   6
ENDBRANCH   3   4
ENDBRANCH   1   3
BRANCH   2  14
ATOM     14  C   UNL     1       5.143  -9.830 -12.874  1.00  0.00     0.054 C 
BRANCH  14  15
ATOM     15  C   UNL     1       4.156 -10.745 -12.335  1.00  0.00    -0.027 C 
ATOM     16  C   UNL     1       4.141 -12.012 -12.532  1.00  0.00    -0.031 C 
BRANCH  16  17
ATOM     17  C   UNL     1       5.068 -12.753 -13.304  1.00  0.00     0.027 C 
BRANCH  17  18
ATOM     18  C   UNL     1       4.872 -14.230 -13.322  1.00  0.00     0.014 C 
BRANCH  18  19
ATOM     19  C   UNL     1       6.022 -15.016 -12.878  1.00  0.00     0.100 C 
BRANCH  19  20
ATOM     20  C   UNL     1       6.627 -16.008 -13.767  1.00  0.00     0.220 C 
ATOM     21  O   UNL     1       6.056 -16.708 -14.630  1.00  0.00    -0.275 OA
ATOM     22  N   UNL     1       8.058 -16.244 -13.674  1.00  0.00    -0.351 N 
ATOM     23  H   UNL     1       8.560 -15.676 -12.965  1.00  0.00     0.163 HD
BRANCH  22  24
ATOM     24  C   UNL     1       8.719 -17.194 -14.506  1.00  0.00     0.168 C 
BRANCH  24  25
ATOM     25  C   UNL     1       9.504 -16.507 -15.551  1.00  0.00     0.061 C 
ATOM     26  O   UNL     1       8.989 -16.136 -16.631  1.00  0.00    -0.548 OA
ATOM     27  O   UNL     1      10.847 -16.266 -15.330  1.00  0.00    -0.548 OA
ENDBRANCH  24  25
ENDBRANCH  22  24
ENDBRANCH  19  20
ENDBRANCH  18  19
ENDBRANCH  17  18
ENDBRANCH  16  17
ENDBRANCH  14  15
ENDBRANCH   2  14
TORSDOF 16
ENDMDL
MODEL 9
REMARK VINA RESULT:      -5.2      1.355      1.863
REMARK SMILES CCCCC/C=C\C/C=C\C/C=C\C/C=C\CCCC(=O)NCC(=O)[O-]
REMARK SMILES IDX 12 1 13 2 11 3 10 4 9 5 8 6 7 7 6 8 5 9 4 10 3 11 2 12 1 13
REMARK SMILES IDX 14 14 15 15 16 16 17 17 18 18 19 19 20 20 21 21 22 22 23 24
REMARK SMILES IDX 24 25 25 26 26 27
REMARK H PARENT 22 23
ROOT
ATOM      1  C   UNL     1       6.448  -7.700 -14.038  1.00  0.00    -0.027 C 
ATOM      2  C   UNL     1       6.103  -7.553 -12.798  1.00  0.00    -0.027 C 
ENDROOT
BRANCH   1   3
ATOM      3  C   UNL     1       7.074  -8.931 -14.546  1.00  0.00     0.054 C 
BRANCH   3   4
ATOM      4  C   UNL     1       8.554  -8.783 -14.470  1.00  0.00    -0.027 C 
ATOM      5  C   UNL     1       9.333  -8.324 -15.400  1.00  0.00    -0.027 C 
BRANCH   5   6
ATOM      6  C   UNL     1       8.734  -7.883 -16.696  1.00  0.00     0.054 C 
BRANCH   6   7
ATOM      7  C   UNL     1       8.774  -6.405 -16.779  1.00  0.00    -0.027 C 
ATOM      8  C   UNL     1       9.558  -5.795 -17.638  1.00  0.00    -0.031 C 
BRANCH   8   9
ATOM      9  C   UNL     1      10.466  -6.435 -18.592  1.00  0.00     0.027 C 
BRANCH   9  10
ATOM     10  C   UNL     1      11.703  -7.004 -17.919  1.00  0.00     0.004 C 
BRANCH  10  11
ATOM     11  C   UNL     1      12.545  -7.809 -18.868  1.00  0.00     0.000 C 
BRANCH  11  12
ATOM     12  C   UNL     1      12.771  -9.223 -18.395  1.00  0.00    -0.003 C 
ATOM     13  C   UNL     1      11.793  -9.650 -17.349  1.00  0.00     0.004 C 
ENDBRANCH  11  12
ENDBRANCH  10  11
ENDBRANCH   9  10
ENDBRANCH   8   9
ENDBRANCH   6   7
ENDBRANCH   5   6
ENDBRANCH   3   4
ENDBRANCH   1   3
BRANCH   2  14
ATOM     14  C   UNL     1       6.257  -8.537 -11.702  1.00  0.00     0.054 C 
BRANCH  14  15
ATOM     15  C   UNL     1       4.955  -9.065 -11.339  1.00  0.00    -0.027 C 
ATOM     16  C   UNL     1       4.442 -10.143 -11.807  1.00  0.00    -0.031 C 
BRANCH  16  17
ATOM     17  C   UNL     1       5.033 -11.013 -12.754  1.00  0.00     0.027 C 
BRANCH  17  18
ATOM     18  C   UNL     1       4.301 -12.284 -13.021  1.00  0.00     0.014 C 
BRANCH  18  19
ATOM     19  C   UNL     1       5.091 -13.332 -13.665  1.00  0.00     0.100 C 
BRANCH  19  20
ATOM     20  C   UNL     1       5.383 -14.578 -12.956  1.00  0.00     0.220 C 
ATOM     21  O   UNL     1       6.503 -15.025 -12.628  1.00  0.00    -0.275 OA
ATOM     22  N   UNL     1       4.274 -15.432 -12.565  1.00  0.00    -0.351 N 
ATOM     23  H   UNL     1       3.331 -15.087 -12.824  1.00  0.00     0.163 HD
BRANCH  22  24
ATOM     24  C   UNL     1       4.480 -16.661 -11.871  1.00  0.00     0.168 C 
BRANCH  24  25
ATOM     25  C   UNL     1       3.461 -16.833 -10.816  1.00  0.00     0.061 C 
ATOM     26  O   UNL     1       2.661 -15.920 -10.511  1.00  0.00    -0.548 OA
ATOM     27  O   UNL     1       3.390 -18.040 -10.146  1.00  0.00    -0.548 OA
ENDBRANCH  24  25
ENDBRANCH  22  24
ENDBRANCH  19  20
ENDBRANCH  18  19
ENDBRANCH  17  18
ENDBRANCH  16  17
ENDBRANCH  14  15
ENDBRANCH   2  14
TORSDOF 16
ENDMDL
