MODEL 1
REMARK VINA RESULT:      -5.7      0.000      0.000
REMARK SMILES O=c1cc(-c2ccccc2)oc2cc([O-])c(O)c([O-])c12
REMARK SMILES IDX 1 1 2 2 3 3 4 4 11 5 12 6 13 7 14 8 15 9 16 10 18 11 19 12
REMARK SMILES IDX 20 13 5 14 6 15 10 16 7 17 9 18 8 19 17 20
REMARK H PARENT 17 21
ROOT
ATOM      1  O   UNL     1     136.691 112.700 137.861  1.00  0.00    -0.289 OA
ATOM      2  C   UNL     1     136.802 113.614 137.008  1.00  0.00     0.192 A 
ATOM      3  C   UNL     1     137.867 114.520 137.020  1.00  0.00     0.100 A 
ATOM      4  C   UNL     1     138.004 115.523 136.099  1.00  0.00     0.138 A 
ATOM      5  O   UNL     1     137.062 115.596 135.179  1.00  0.00    -0.456 OA
ATOM      6  C   UNL     1     136.040 114.782 135.111  1.00  0.00     0.137 A 
ATOM      7  C   UNL     1     135.074 114.915 134.106  1.00  0.00     0.043 A 
ATOM      8  C   UNL     1     134.013 114.058 134.047  1.00  0.00    -0.063 A 
ATOM      9  O   UNL     1     133.084 114.241 133.026  1.00  0.00    -0.870 OA
ATOM     10  C   UNL     1     133.836 113.034 134.954  1.00  0.00     0.100 A 
ATOM     11  C   UNL     1     134.769 112.890 135.940  1.00  0.00    -0.051 A 
ATOM     12  O   UNL     1     134.606 111.870 136.855  1.00  0.00    -0.869 OA
ATOM     13  C   UNL     1     135.860 113.757 136.015  1.00  0.00     0.060 A 
ENDROOT
BRANCH   4  14
ATOM     14  C   UNL     1     139.119 116.451 136.133  1.00  0.00     0.017 A 
ATOM     15  C   UNL     1     139.957 116.626 137.199  1.00  0.00     0.012 A 
ATOM     16  C   UNL     1     139.371 117.233 135.002  1.00  0.00     0.012 A 
ATOM     17  C   UNL     1     141.016 117.544 137.156  1.00  0.00     0.001 A 
ATOM     18  C   UNL     1     140.411 118.137 134.954  1.00  0.00     0.001 A 
ATOM     19  C   UNL     1     141.248 118.305 136.033  1.00  0.00     0.000 A 
ENDBRANCH   4  14
BRANCH  10  20
ATOM     20  O   UNL     1     132.730 112.184 134.847  1.00  0.00    -0.509 OA
ATOM     21  H   UNL     1     132.180 111.993 135.687  1.00  0.00     0.293 HD
ENDBRANCH  10  20
TORSDOF 2
ENDMDL
MODEL 2
REMARK VINA RESULT:      -5.5      1.045      2.582
REMARK SMILES O=c1cc(-c2ccccc2)oc2cc([O-])c(O)c([O-])c12
REMARK SMILES IDX 1 1 2 2 3 3 4 4 11 5 12 6 13 7 14 8 15 9 16 10 18 11 19 12
REMARK SMILES IDX 20 13 5 14 6 15 10 16 7 17 9 18 8 19 17 20
REMARK H PARENT 17 21
ROOT
ATOM      1  O   UNL     1     135.319 116.482 133.719  1.00  0.00    -0.289 OA
ATOM      2  C   UNL     1     136.002 115.874 134.579  1.00  0.00     0.192 A 
ATOM      3  C   UNL     1     137.230 116.363 135.036  1.00  0.00     0.100 A 
ATOM      4  C   UNL     1     137.989 115.715 135.973  1.00  0.00     0.138 A 
ATOM      5  O   UNL     1     137.495 114.582 136.434  1.00  0.00    -0.456 OA
ATOM      6  C   UNL     1     136.354 114.070 136.050  1.00  0.00     0.137 A 
ATOM      7  C   UNL     1     135.887 112.863 136.582  1.00  0.00     0.043 A 
ATOM      8  C   UNL     1     134.694 112.339 136.172  1.00  0.00    -0.063 A 
ATOM      9  O   UNL     1     134.283 111.135 136.736  1.00  0.00    -0.870 OA
ATOM     10  C   UNL     1     133.899 112.959 135.231  1.00  0.00     0.100 A 
ATOM     11  C   UNL     1     134.339 114.138 134.702  1.00  0.00    -0.051 A 
ATOM     12  O   UNL     1     133.554 114.770 133.759  1.00  0.00    -0.869 OA
ATOM     13  C   UNL     1     135.556 114.686 135.110  1.00  0.00     0.060 A 
ENDROOT
BRANCH   4  14
ATOM     14  C   UNL     1     139.261 116.242 136.431  1.00  0.00     0.017 A 
ATOM     15  C   UNL     1     140.000 115.718 137.454  1.00  0.00     0.012 A 
ATOM     16  C   UNL     1     139.787 117.368 135.790  1.00  0.00     0.012 A 
ATOM     17  C   UNL     1     141.223 116.284 137.841  1.00  0.00     0.001 A 
ATOM     18  C   UNL     1     140.989 117.929 136.165  1.00  0.00     0.001 A 
ATOM     19  C   UNL     1     141.724 117.393 137.198  1.00  0.00     0.000 A 
ENDBRANCH   4  14
BRANCH  10  20
ATOM     20  O   UNL     1     132.685 112.379 134.846  1.00  0.00    -0.509 OA
ATOM     21  H   UNL     1     132.375 112.495 133.879  1.00  0.00     0.293 HD
ENDBRANCH  10  20
TORSDOF 2
ENDMDL
MODEL 3
REMARK VINA RESULT:      -5.5      0.751      1.336
REMARK SMILES O=c1cc(-c2ccccc2)oc2cc([O-])c(O)c([O-])c12
REMARK SMILES IDX 1 1 2 2 3 3 4 4 11 5 12 6 13 7 14 8 15 9 16 10 18 11 19 12
REMARK SMILES IDX 20 13 5 14 6 15 10 16 7 17 9 18 8 19 17 20
REMARK H PARENT 17 21
ROOT
ATOM      1  O   UNL     1     137.311 113.520 137.803  1.00  0.00    -0.289 OA
ATOM      2  C   UNL     1     137.319 114.352 136.863  1.00  0.00     0.192 A 
ATOM      3  C   UNL     1     138.347 115.287 136.704  1.00  0.00     0.100 A 
ATOM      4  C   UNL     1     138.373 116.202 135.687  1.00  0.00     0.138 A 
ATOM      5  O   UNL     1     137.359 116.159 134.845  1.00  0.00    -0.456 OA
ATOM      6  C   UNL     1     136.367 115.311 134.936  1.00  0.00     0.137 A 
ATOM      7  C   UNL     1     135.320 115.319 134.006  1.00  0.00     0.043 A 
ATOM      8  C   UNL     1     134.290 114.429 134.113  1.00  0.00    -0.063 A 
ATOM      9  O   UNL     1     133.278 114.485 133.159  1.00  0.00    -0.870 OA
ATOM     10  C   UNL     1     134.225 113.491 135.122  1.00  0.00     0.100 A 
ATOM     11  C   UNL     1     135.238 113.468 136.038  1.00  0.00    -0.051 A 
ATOM     12  O   UNL     1     135.186 112.535 137.053  1.00  0.00    -0.869 OA
ATOM     13  C   UNL     1     136.297 114.372 135.942  1.00  0.00     0.060 A 
ENDROOT
BRANCH   4  14
ATOM     14  C   UNL     1     139.451 117.163 135.544  1.00  0.00     0.017 A 
ATOM     15  C   UNL     1     139.792 117.784 134.375  1.00  0.00     0.012 A 
ATOM     16  C   UNL     1     140.207 117.490 136.673  1.00  0.00     0.012 A 
ATOM     17  C   UNL     1     140.849 118.703 134.315  1.00  0.00     0.001 A 
ATOM     18  C   UNL     1     141.248 118.394 136.620  1.00  0.00     0.001 A 
ATOM     19  C   UNL     1     141.583 119.013 135.437  1.00  0.00     0.000 A 
ENDBRANCH   4  14
BRANCH  10  20
ATOM     20  O   UNL     1     133.147 112.601 135.185  1.00  0.00    -0.509 OA
ATOM     21  H   UNL     1     132.510 112.664 135.982  1.00  0.00     0.293 HD
ENDBRANCH  10  20
TORSDOF 2
ENDMDL
MODEL 4
REMARK VINA RESULT:      -5.4      1.052      2.787
REMARK SMILES O=c1cc(-c2ccccc2)oc2cc([O-])c(O)c([O-])c12
REMARK SMILES IDX 1 1 2 2 3 3 4 4 11 5 12 6 13 7 14 8 15 9 16 10 18 11 19 12
REMARK SMILES IDX 20 13 5 14 6 15 10 16 7 17 9 18 8 19 17 20
REMARK H PARENT 17 21
ROOT
ATOM      1  O   UNL     1     135.260 116.666 133.670  1.00  0.00    -0.289 OA
ATOM      2  C   UNL     1     135.968 116.068 134.517  1.00  0.00     0.192 A 
ATOM      3  C   UNL     1     137.196 116.575 134.953  1.00  0.00     0.100 A 
ATOM      4  C   UNL     1     137.982 115.938 135.875  1.00  0.00     0.138 A 
ATOM      5  O   UNL     1     137.514 114.797 136.343  1.00  0.00    -0.456 OA
ATOM      6  C   UNL     1     136.375 114.267 135.977  1.00  0.00     0.137 A 
ATOM      7  C   UNL     1     135.937 113.051 136.515  1.00  0.00     0.043 A 
ATOM      8  C   UNL     1     134.745 112.510 136.124  1.00  0.00    -0.063 A 
ATOM      9  O   UNL     1     134.363 111.298 136.693  1.00  0.00    -0.870 OA
ATOM     10  C   UNL     1     133.924 113.118 135.199  1.00  0.00     0.100 A 
ATOM     11  C   UNL     1     134.335 114.305 134.665  1.00  0.00    -0.051 A 
ATOM     12  O   UNL     1     133.524 114.926 133.738  1.00  0.00    -0.869 OA
ATOM     13  C   UNL     1     135.550 114.872 135.053  1.00  0.00     0.060 A 
ENDROOT
BRANCH   4  14
ATOM     14  C   UNL     1     139.253 116.484 136.312  1.00  0.00     0.017 A 
ATOM     15  C   UNL     1     139.923 117.498 135.686  1.00  0.00     0.012 A 
ATOM     16  C   UNL     1     139.852 115.949 137.455  1.00  0.00     0.012 A 
ATOM     17  C   UNL     1     141.150 117.974 136.169  1.00  0.00     0.001 A 
ATOM     18  C   UNL     1     141.058 116.413 137.936  1.00  0.00     0.001 A 
ATOM     19  C   UNL     1     141.725 117.434 137.297  1.00  0.00     0.000 A 
ENDBRANCH   4  14
BRANCH  10  20
ATOM     20  O   UNL     1     132.712 112.520 134.834  1.00  0.00    -0.509 OA
ATOM     21  H   UNL     1     132.682 111.964 133.978  1.00  0.00     0.293 HD
ENDBRANCH  10  20
TORSDOF 2
ENDMDL
MODEL 5
REMARK VINA RESULT:      -5.3      2.965      6.374
REMARK SMILES O=c1cc(-c2ccccc2)oc2cc([O-])c(O)c([O-])c12
REMARK SMILES IDX 1 1 2 2 3 3 4 4 11 5 12 6 13 7 14 8 15 9 16 10 18 11 19 12
REMARK SMILES IDX 20 13 5 14 6 15 10 16 7 17 9 18 8 19 17 20
REMARK H PARENT 17 21
ROOT
ATOM      1  O   UNL     1     133.631 116.666 135.207  1.00  0.00    -0.289 OA
ATOM      2  C   UNL     1     134.447 115.716 135.134  1.00  0.00     0.192 A 
ATOM      3  C   UNL     1     134.195 114.470 135.718  1.00  0.00     0.100 A 
ATOM      4  C   UNL     1     135.073 113.423 135.649  1.00  0.00     0.138 A 
ATOM      5  O   UNL     1     136.194 113.649 134.991  1.00  0.00    -0.456 OA
ATOM      6  C   UNL     1     136.491 114.789 134.422  1.00  0.00     0.137 A 
ATOM      7  C   UNL     1     137.699 114.963 133.738  1.00  0.00     0.043 A 
ATOM      8  C   UNL     1     137.998 116.159 133.149  1.00  0.00    -0.063 A 
ATOM      9  O   UNL     1     139.215 116.271 132.482  1.00  0.00    -0.870 OA
ATOM     10  C   UNL     1     137.142 117.239 133.194  1.00  0.00     0.100 A 
ATOM     11  C   UNL     1     135.959 117.087 133.857  1.00  0.00    -0.051 A 
ATOM     12  O   UNL     1     135.092 118.160 133.911  1.00  0.00    -0.869 OA
ATOM     13  C   UNL     1     135.639 115.872 134.464  1.00  0.00     0.060 A 
ENDROOT
BRANCH   4  14
ATOM     14  C   UNL     1     134.789 112.139 136.263  1.00  0.00     0.017 A 
ATOM     15  C   UNL     1     134.060 111.140 135.682  1.00  0.00     0.012 A 
ATOM     16  C   UNL     1     135.290 111.887 137.544  1.00  0.00     0.012 A 
ATOM     17  C   UNL     1     133.827 109.924 136.340  1.00  0.00     0.001 A 
ATOM     18  C   UNL     1     135.065 110.693 138.196  1.00  0.00     0.001 A 
ATOM     19  C   UNL     1     134.328 109.694 137.601  1.00  0.00     0.000 A 
ENDBRANCH   4  14
BRANCH  10  20
ATOM     20  O   UNL     1     137.497 118.442 132.573  1.00  0.00    -0.509 OA
ATOM     21  H   UNL     1     138.467 118.756 132.638  1.00  0.00     0.293 HD
ENDBRANCH  10  20
TORSDOF 2
ENDMDL
MODEL 6
REMARK VINA RESULT:      -5.2      3.066      6.308
REMARK SMILES O=c1cc(-c2ccccc2)oc2cc([O-])c(O)c([O-])c12
REMARK SMILES IDX 1 1 2 2 3 3 4 4 11 5 12 6 13 7 14 8 15 9 16 10 18 11 19 12
REMARK SMILES IDX 20 13 5 14 6 15 10 16 7 17 9 18 8 19 17 20
REMARK H PARENT 17 21
ROOT
ATOM      1  O   UNL     1     133.758 116.757 135.247  1.00  0.00    -0.289 OA
ATOM      2  C   UNL     1     134.537 115.779 135.136  1.00  0.00     0.192 A 
ATOM      3  C   UNL     1     134.282 114.549 135.750  1.00  0.00     0.100 A 
ATOM      4  C   UNL     1     135.119 113.473 135.641  1.00  0.00     0.138 A 
ATOM      5  O   UNL     1     136.204 113.655 134.912  1.00  0.00    -0.456 OA
ATOM      6  C   UNL     1     136.502 114.779 134.312  1.00  0.00     0.137 A 
ATOM      7  C   UNL     1     137.671 114.905 133.553  1.00  0.00     0.043 A 
ATOM      8  C   UNL     1     137.971 116.083 132.932  1.00  0.00    -0.063 A 
ATOM      9  O   UNL     1     139.148 116.149 132.190  1.00  0.00    -0.870 OA
ATOM     10  C   UNL     1     137.155 117.192 133.015  1.00  0.00     0.100 A 
ATOM     11  C   UNL     1     136.010 117.087 133.752  1.00  0.00    -0.051 A 
ATOM     12  O   UNL     1     135.184 118.188 133.845  1.00  0.00    -0.869 OA
ATOM     13  C   UNL     1     135.690 115.889 134.393  1.00  0.00     0.060 A 
ENDROOT
BRANCH   4  14
ATOM     14  C   UNL     1     134.832 112.206 136.288  1.00  0.00     0.017 A 
ATOM     15  C   UNL     1     135.259 111.853 137.537  1.00  0.00     0.012 A 
ATOM     16  C   UNL     1     134.063 111.264 135.599  1.00  0.00     0.012 A 
ATOM     17  C   UNL     1     134.940 110.608 138.097  1.00  0.00     0.001 A 
ATOM     18  C   UNL     1     133.745 110.038 136.144  1.00  0.00     0.001 A 
ATOM     19  C   UNL     1     134.181 109.693 137.403  1.00  0.00     0.000 A 
ENDBRANCH   4  14
BRANCH  10  20
ATOM     20  O   UNL     1     137.509 118.376 132.358  1.00  0.00    -0.509 OA
ATOM     21  H   UNL     1     138.501 118.600 132.259  1.00  0.00     0.293 HD
ENDBRANCH  10  20
TORSDOF 2
ENDMDL
MODEL 7
REMARK VINA RESULT:      -5.1      1.206      2.914
REMARK SMILES O=c1cc(-c2ccccc2)oc2cc([O-])c(O)c([O-])c12
REMARK SMILES IDX 1 1 2 2 3 3 4 4 11 5 12 6 13 7 14 8 15 9 16 10 18 11 19 12
REMARK SMILES IDX 20 13 5 14 6 15 10 16 7 17 9 18 8 19 17 20
REMARK H PARENT 17 21
ROOT
ATOM      1  O   UNL     1     135.779 114.949 133.266  1.00  0.00    -0.289 OA
ATOM      2  C   UNL     1     136.465 115.000 134.316  1.00  0.00     0.192 A 
ATOM      3  C   UNL     1     137.506 115.919 134.482  1.00  0.00     0.100 A 
ATOM      4  C   UNL     1     138.265 115.990 135.619  1.00  0.00     0.138 A 
ATOM      5  O   UNL     1     137.960 115.130 136.572  1.00  0.00    -0.456 OA
ATOM      6  C   UNL     1     137.000 114.246 136.481  1.00  0.00     0.137 A 
ATOM      7  C   UNL     1     136.729 113.362 137.532  1.00  0.00     0.043 A 
ATOM      8  C   UNL     1     135.724 112.443 137.423  1.00  0.00    -0.063 A 
ATOM      9  O   UNL     1     135.502 111.590 138.501  1.00  0.00    -0.870 OA
ATOM     10  C   UNL     1     134.936 112.338 136.296  1.00  0.00     0.100 A 
ATOM     11  C   UNL     1     135.186 113.193 135.262  1.00  0.00    -0.051 A 
ATOM     12  O   UNL     1     134.406 113.099 134.128  1.00  0.00    -0.869 OA
ATOM     13  C   UNL     1     136.210 114.137 135.357  1.00  0.00     0.060 A 
ENDROOT
BRANCH   4  14
ATOM     14  C   UNL     1     139.340 116.953 135.768  1.00  0.00     0.017 A 
ATOM     15  C   UNL     1     139.846 117.720 134.756  1.00  0.00     0.012 A 
ATOM     16  C   UNL     1     139.913 117.124 137.031  1.00  0.00     0.012 A 
ATOM     17  C   UNL     1     140.889 118.631 134.977  1.00  0.00     0.001 A 
ATOM     18  C   UNL     1     140.937 118.018 137.256  1.00  0.00     0.001 A 
ATOM     19  C   UNL     1     141.440 118.785 136.229  1.00  0.00     0.000 A 
ENDBRANCH   4  14
BRANCH  10  20
ATOM     20  O   UNL     1     133.919 111.378 136.238  1.00  0.00    -0.509 OA
ATOM     21  H   UNL     1     133.012 111.604 136.652  1.00  0.00     0.293 HD
ENDBRANCH  10  20
TORSDOF 2
ENDMDL
MODEL 8
REMARK VINA RESULT:      -5.0      2.554      6.598
REMARK SMILES O=c1cc(-c2ccccc2)oc2cc([O-])c(O)c([O-])c12
REMARK SMILES IDX 1 1 2 2 3 3 4 4 11 5 12 6 13 7 14 8 15 9 16 10 18 11 19 12
REMARK SMILES IDX 20 13 5 14 6 15 10 16 7 17 9 18 8 19 17 20
REMARK H PARENT 17 21
ROOT
ATOM      1  O   UNL     1     138.163 114.953 137.343  1.00  0.00    -0.289 OA
ATOM      2  C   UNL     1     137.973 115.369 136.174  1.00  0.00     0.192 A 
ATOM      3  C   UNL     1     136.985 114.832 135.342  1.00  0.00     0.100 A 
ATOM      4  C   UNL     1     136.764 115.272 134.066  1.00  0.00     0.138 A 
ATOM      5  O   UNL     1     137.544 116.250 133.648  1.00  0.00    -0.456 OA
ATOM      6  C   UNL     1     138.486 116.796 134.373  1.00  0.00     0.137 A 
ATOM      7  C   UNL     1     139.280 117.832 133.867  1.00  0.00     0.043 A 
ATOM      8  C   UNL     1     140.260 118.394 134.635  1.00  0.00    -0.063 A 
ATOM      9  O   UNL     1     141.017 119.420 134.077  1.00  0.00    -0.870 OA
ATOM     10  C   UNL     1     140.516 117.980 135.926  1.00  0.00     0.100 A 
ATOM     11  C   UNL     1     139.751 116.971 136.435  1.00  0.00    -0.051 A 
ATOM     12  O   UNL     1     139.996 116.547 137.725  1.00  0.00    -0.869 OA
ATOM     13  C   UNL     1     138.746 116.387 135.663  1.00  0.00     0.060 A 
ENDROOT
BRANCH   4  14
ATOM     14  C   UNL     1     135.732 114.699 133.222  1.00  0.00     0.017 A 
ATOM     15  C   UNL     1     135.965 113.894 132.142  1.00  0.00     0.012 A 
ATOM     16  C   UNL     1     134.395 114.977 133.521  1.00  0.00     0.012 A 
ATOM     17  C   UNL     1     134.913 113.376 131.373  1.00  0.00     0.001 A 
ATOM     18  C   UNL     1     133.356 114.470 132.769  1.00  0.00     0.001 A 
ATOM     19  C   UNL     1     133.602 113.661 131.683  1.00  0.00     0.000 A 
ENDBRANCH   4  14
BRANCH  10  20
ATOM     20  O   UNL     1     141.533 118.590 136.669  1.00  0.00    -0.509 OA
ATOM     21  H   UNL     1     141.273 119.294 137.363  1.00  0.00     0.293 HD
ENDBRANCH  10  20
TORSDOF 2
ENDMDL
MODEL 9
REMARK VINA RESULT:      -5.0      2.370      3.964
REMARK SMILES O=c1cc(-c2ccccc2)oc2cc([O-])c(O)c([O-])c12
REMARK SMILES IDX 1 1 2 2 3 3 4 4 11 5 12 6 13 7 14 8 15 9 16 10 18 11 19 12
REMARK SMILES IDX 20 13 5 14 6 15 10 16 7 17 9 18 8 19 17 20
REMARK H PARENT 17 21
ROOT
ATOM      1  O   UNL     1     133.293 113.627 133.344  1.00  0.00    -0.289 OA
ATOM      2  C   UNL     1     134.293 114.164 133.879  1.00  0.00     0.192 A 
ATOM      3  C   UNL     1     134.898 115.308 133.350  1.00  0.00     0.100 A 
ATOM      4  C   UNL     1     135.989 115.907 133.919  1.00  0.00     0.138 A 
ATOM      5  O   UNL     1     136.454 115.339 135.015  1.00  0.00    -0.456 OA
ATOM      6  C   UNL     1     135.936 114.269 135.562  1.00  0.00     0.137 A 
ATOM      7  C   UNL     1     136.479 113.718 136.728  1.00  0.00     0.043 A 
ATOM      8  C   UNL     1     135.930 112.600 137.288  1.00  0.00    -0.063 A 
ATOM      9  O   UNL     1     136.514 112.097 138.448  1.00  0.00    -0.870 OA
ATOM     10  C   UNL     1     134.831 111.966 136.748  1.00  0.00     0.100 A 
ATOM     11  C   UNL     1     134.288 112.491 135.610  1.00  0.00    -0.051 A 
ATOM     12  O   UNL     1     133.188 111.867 135.058  1.00  0.00    -0.869 OA
ATOM     13  C   UNL     1     134.838 113.632 135.026  1.00  0.00     0.060 A 
ENDROOT
BRANCH   4  14
ATOM     14  C   UNL     1     136.598 117.095 133.351  1.00  0.00     0.017 A 
ATOM     15  C   UNL     1     137.915 117.204 132.999  1.00  0.00     0.012 A 
ATOM     16  C   UNL     1     135.797 118.220 133.139  1.00  0.00     0.012 A 
ATOM     17  C   UNL     1     138.432 118.388 132.454  1.00  0.00     0.001 A 
ATOM     18  C   UNL     1     136.299 119.386 132.603  1.00  0.00     0.001 A 
ATOM     19  C   UNL     1     137.627 119.486 132.253  1.00  0.00     0.000 A 
ENDBRANCH   4  14
BRANCH  10  20
ATOM     20  O   UNL     1     134.307 110.823 137.362  1.00  0.00    -0.509 OA
ATOM     21  H   UNL     1     134.767 110.468 138.203  1.00  0.00     0.293 HD
ENDBRANCH  10  20
TORSDOF 2
ENDMDL
