MODEL 1
REMARK VINA RESULT:      -5.7      0.000      0.000
REMARK SMILES O=C1Nc2ccc(I)cc2/C1=C/c1cc(Br)c(O)c(Br)c1
REMARK SMILES IDX 13 1 14 2 15 3 16 4 17 5 19 6 20 7 21 8 12 9 1 10 2 11 3 12
REMARK SMILES IDX 11 13 4 14 10 15 5 16 9 17 6 18 7 19 8 21 18 22
REMARK H PARENT 3 20 18 23
ROOT
ATOM      1  C   UNL     1     -33.679  -6.942 -11.967  1.00  0.00    -0.022 A 
ATOM      2  C   UNL     1     -32.963  -6.825 -13.117  1.00  0.00     0.027 A 
ATOM      3  C   UNL     1     -31.692  -6.280 -13.060  1.00  0.00     0.061 A 
ATOM      4  Br  UNL     1     -30.687  -6.117 -14.680  1.00  0.00    -0.047 Br
ATOM      5  C   UNL     1     -31.136  -5.854 -11.865  1.00  0.00     0.143 A 
ATOM      6  C   UNL     1     -31.887  -5.987 -10.729  1.00  0.00     0.061 A 
ATOM      7  Br  UNL     1     -31.187  -5.418  -9.042  1.00  0.00    -0.047 Br
ATOM      8  C   UNL     1     -33.146  -6.524 -10.764  1.00  0.00     0.027 A 
ENDROOT
BRANCH   1   9
ATOM      9  C   UNL     1     -35.006  -7.533 -11.913  1.00  0.00     0.022 C 
ATOM     10  O   UNL     1     -35.321  -4.529 -11.704  1.00  0.00    -0.269 OA
ATOM     11  C   UNL     1     -36.241  -5.379 -11.668  1.00  0.00     0.256 C 
ATOM     12  N   UNL     1     -37.644  -5.103 -11.513  1.00  0.00    -0.321 N 
ATOM     13  C   UNL     1     -36.109  -6.823 -11.779  1.00  0.00     0.050 C 
ATOM     14  C   UNL     1     -38.377  -6.340 -11.526  1.00  0.00     0.049 A 
ATOM     15  C   UNL     1     -37.464  -7.376 -11.685  1.00  0.00     0.012 A 
ATOM     16  C   UNL     1     -39.736  -6.573 -11.410  1.00  0.00     0.028 A 
ATOM     17  C   UNL     1     -37.992  -8.661 -11.722  1.00  0.00     0.025 A 
ATOM     18  C   UNL     1     -40.201  -7.876 -11.455  1.00  0.00     0.017 A 
ATOM     19  C   UNL     1     -39.334  -8.937 -11.611  1.00  0.00     0.014 A 
ATOM     20  H   UNL     1     -38.019  -4.152 -11.412  1.00  0.00     0.170 HD
ATOM     21  I   UNL     1     -40.063 -10.923 -11.679  1.00  0.00    -0.044 I 
ENDBRANCH   1   9
BRANCH   5  22
ATOM     22  O   UNL     1     -29.858  -5.309 -11.820  1.00  0.00    -0.506 OA
ATOM     23  H   UNL     1     -29.128  -5.686 -12.413  1.00  0.00     0.293 HD
ENDBRANCH   5  22
TORSDOF 2
ENDMDL
MODEL 2
REMARK VINA RESULT:      -5.7      0.370      2.070
REMARK SMILES O=C1Nc2ccc(I)cc2/C1=C/c1cc(Br)c(O)c(Br)c1
REMARK SMILES IDX 13 1 14 2 15 3 16 4 17 5 19 6 20 7 21 8 12 9 1 10 2 11 3 12
REMARK SMILES IDX 11 13 4 14 10 15 5 16 9 17 6 18 7 19 8 21 18 22
REMARK H PARENT 3 20 18 23
ROOT
ATOM      1  C   UNL     1     -33.505  -6.729 -11.714  1.00  0.00    -0.022 A 
ATOM      2  C   UNL     1     -32.913  -6.251 -10.587  1.00  0.00     0.027 A 
ATOM      3  C   UNL     1     -31.643  -5.710 -10.678  1.00  0.00     0.061 A 
ATOM      4  Br  UNL     1     -30.813  -5.037  -9.090  1.00  0.00    -0.047 Br
ATOM      5  C   UNL     1     -30.964  -5.645 -11.883  1.00  0.00     0.143 A 
ATOM      6  C   UNL     1     -31.591  -6.137 -12.995  1.00  0.00     0.061 A 
ATOM      7  Br  UNL     1     -30.715  -6.083 -14.695  1.00  0.00    -0.047 Br
ATOM      8  C   UNL     1     -32.848  -6.675 -12.927  1.00  0.00     0.027 A 
ENDROOT
BRANCH   1   9
ATOM      9  C   UNL     1     -34.849  -7.282 -11.734  1.00  0.00     0.022 C 
ATOM     10  O   UNL     1     -35.088  -4.280 -11.418  1.00  0.00    -0.269 OA
ATOM     11  C   UNL     1     -36.032  -5.104 -11.451  1.00  0.00     0.256 C 
ATOM     12  N   UNL     1     -37.432  -4.793 -11.338  1.00  0.00    -0.321 N 
ATOM     13  C   UNL     1     -35.936  -6.546 -11.614  1.00  0.00     0.050 C 
ATOM     14  C   UNL     1     -38.198  -6.007 -11.427  1.00  0.00     0.049 A 
ATOM     15  C   UNL     1     -37.309  -7.061 -11.593  1.00  0.00     0.012 A 
ATOM     16  C   UNL     1     -39.566  -6.203 -11.372  1.00  0.00     0.028 A 
ATOM     17  C   UNL     1     -37.870  -8.328 -11.701  1.00  0.00     0.025 A 
ATOM     18  C   UNL     1     -40.065  -7.490 -11.486  1.00  0.00     0.017 A 
ATOM     19  C   UNL     1     -39.223  -8.569 -11.652  1.00  0.00     0.014 A 
ATOM     20  H   UNL     1     -37.784  -3.836 -11.213  1.00  0.00     0.170 HD
ATOM     21  I   UNL     1     -40.003 -10.529 -11.826  1.00  0.00    -0.044 I 
ENDBRANCH   1   9
BRANCH   5  22
ATOM     22  O   UNL     1     -29.688  -5.098 -11.962  1.00  0.00    -0.506 OA
ATOM     23  H   UNL     1     -29.136  -5.225 -12.803  1.00  0.00     0.293 HD
ENDBRANCH   5  22
TORSDOF 2
ENDMDL
MODEL 3
REMARK VINA RESULT:      -5.6      8.517     10.668
REMARK SMILES O=C1Nc2ccc(I)cc2/C1=C/c1cc(Br)c(O)c(Br)c1
REMARK SMILES IDX 13 1 14 2 15 3 16 4 17 5 19 6 20 7 21 8 12 9 1 10 2 11 3 12
REMARK SMILES IDX 11 13 4 14 10 15 5 16 9 17 6 18 7 19 8 21 18 22
REMARK H PARENT 3 20 18 23
ROOT
ATOM      1  C   UNL     1     -35.990  -0.788  -4.442  1.00  0.00    -0.022 A 
ATOM      2  C   UNL     1     -36.682   0.105  -5.199  1.00  0.00     0.027 A 
ATOM      3  C   UNL     1     -37.920   0.538  -4.757  1.00  0.00     0.061 A 
ATOM      4  Br  UNL     1     -38.891   1.795  -5.824  1.00  0.00    -0.047 Br
ATOM      5  C   UNL     1     -38.467   0.085  -3.568  1.00  0.00     0.143 A 
ATOM      6  C   UNL     1     -37.742  -0.813  -2.834  1.00  0.00     0.061 A 
ATOM      7  Br  UNL     1     -38.433  -1.486  -1.182  1.00  0.00    -0.047 Br
ATOM      8  C   UNL     1     -36.515  -1.254  -3.253  1.00  0.00     0.027 A 
ENDROOT
BRANCH   1   9
ATOM      9  C   UNL     1     -34.669  -1.276  -4.798  1.00  0.00     0.022 C 
ATOM     10  O   UNL     1     -36.681  -3.405  -5.565  1.00  0.00    -0.269 OA
ATOM     11  C   UNL     1     -35.435  -3.475  -5.694  1.00  0.00     0.256 C 
ATOM     12  N   UNL     1     -34.701  -4.589  -6.230  1.00  0.00    -0.321 N 
ATOM     13  C   UNL     1     -34.457  -2.458  -5.343  1.00  0.00     0.050 C 
ATOM     14  C   UNL     1     -33.296  -4.283  -6.217  1.00  0.00     0.049 A 
ATOM     15  C   UNL     1     -33.142  -3.008  -5.687  1.00  0.00     0.012 A 
ATOM     16  C   UNL     1     -32.214  -5.040  -6.630  1.00  0.00     0.028 A 
ATOM     17  C   UNL     1     -31.839  -2.533  -5.595  1.00  0.00     0.025 A 
ATOM     18  C   UNL     1     -30.940  -4.512  -6.513  1.00  0.00     0.017 A 
ATOM     19  C   UNL     1     -30.736  -3.251  -5.993  1.00  0.00     0.014 A 
ATOM     20  H   UNL     1     -35.153  -5.451  -6.559  1.00  0.00     0.170 HD
ATOM     21  I   UNL     1     -28.781  -2.458  -5.824  1.00  0.00    -0.044 I 
ENDBRANCH   1   9
BRANCH   5  22
ATOM     22  O   UNL     1     -39.712   0.528  -3.133  1.00  0.00    -0.506 OA
ATOM     23  H   UNL     1     -39.815   1.471  -2.779  1.00  0.00     0.293 HD
ENDBRANCH   5  22
TORSDOF 2
ENDMDL
MODEL 4
REMARK VINA RESULT:      -5.5      4.689      7.211
REMARK SMILES O=C1Nc2ccc(I)cc2/C1=C/c1cc(Br)c(O)c(Br)c1
REMARK SMILES IDX 13 1 14 2 15 3 16 4 17 5 19 6 20 7 21 8 12 9 1 10 2 11 3 12
REMARK SMILES IDX 11 13 4 14 10 15 5 16 9 17 6 18 7 19 8 21 18 22
REMARK H PARENT 3 20 18 23
ROOT
ATOM      1  C   UNL     1     -37.884  -7.713 -12.586  1.00  0.00    -0.022 A 
ATOM      2  C   UNL     1     -38.495  -8.685 -11.856  1.00  0.00     0.027 A 
ATOM      3  C   UNL     1     -39.135  -9.716 -12.520  1.00  0.00     0.061 A 
ATOM      4  Br  UNL     1     -39.992 -11.082 -11.489  1.00  0.00    -0.047 Br
ATOM      5  C   UNL     1     -39.169  -9.781 -13.903  1.00  0.00     0.143 A 
ATOM      6  C   UNL     1     -38.545  -8.786 -14.603  1.00  0.00     0.061 A 
ATOM      7  Br  UNL     1     -38.552  -8.807 -16.517  1.00  0.00    -0.047 Br
ATOM      8  C   UNL     1     -37.905  -7.757 -13.966  1.00  0.00     0.027 A 
ENDROOT
BRANCH   1   9
ATOM      9  C   UNL     1     -37.154  -6.609 -11.988  1.00  0.00     0.022 C 
ATOM     10  O   UNL     1     -35.172  -8.825 -12.565  1.00  0.00    -0.269 OA
ATOM     11  C   UNL     1     -34.921  -7.721 -12.025  1.00  0.00     0.256 C 
ATOM     12  N   UNL     1     -33.633  -7.280 -11.560  1.00  0.00    -0.321 N 
ATOM     13  C   UNL     1     -35.857  -6.643 -11.752  1.00  0.00     0.050 C 
ATOM     14  C   UNL     1     -33.755  -5.958 -11.008  1.00  0.00     0.049 A 
ATOM     15  C   UNL     1     -35.084  -5.569 -11.120  1.00  0.00     0.012 A 
ATOM     16  C   UNL     1     -32.795  -5.135 -10.447  1.00  0.00     0.028 A 
ATOM     17  C   UNL     1     -35.398  -4.304 -10.635  1.00  0.00     0.025 A 
ATOM     18  C   UNL     1     -33.169  -3.885  -9.982  1.00  0.00     0.017 A 
ATOM     19  C   UNL     1     -34.476  -3.455 -10.070  1.00  0.00     0.014 A 
ATOM     20  H   UNL     1     -32.786  -7.855 -11.632  1.00  0.00     0.170 HD
ATOM     21  I   UNL     1     -35.031  -1.540  -9.356  1.00  0.00    -0.044 I 
ENDBRANCH   1   9
BRANCH   5  22
ATOM     22  O   UNL     1     -39.815 -10.823 -14.559  1.00  0.00    -0.506 OA
ATOM     23  H   UNL     1     -40.791 -11.014 -14.365  1.00  0.00     0.293 HD
ENDBRANCH   5  22
TORSDOF 2
ENDMDL
MODEL 5
REMARK VINA RESULT:      -5.4      8.274     10.662
REMARK SMILES O=C1Nc2ccc(I)cc2/C1=C/c1cc(Br)c(O)c(Br)c1
REMARK SMILES IDX 13 1 14 2 15 3 16 4 17 5 19 6 20 7 21 8 12 9 1 10 2 11 3 12
REMARK SMILES IDX 11 13 4 14 10 15 5 16 9 17 6 18 7 19 8 21 18 22
REMARK H PARENT 3 20 18 23
ROOT
ATOM      1  C   UNL     1     -35.940  -0.997  -4.623  1.00  0.00    -0.022 A 
ATOM      2  C   UNL     1     -36.595  -1.381  -3.495  1.00  0.00     0.027 A 
ATOM      3  C   UNL     1     -37.900  -0.962  -3.306  1.00  0.00     0.061 A 
ATOM      4  Br  UNL     1     -38.820  -1.505  -1.718  1.00  0.00    -0.047 Br
ATOM      5  C   UNL     1     -38.551  -0.166  -4.233  1.00  0.00     0.143 A 
ATOM      6  C   UNL     1     -37.859   0.201  -5.355  1.00  0.00     0.061 A 
ATOM      7  Br  UNL     1     -38.691   1.302  -6.680  1.00  0.00    -0.047 Br
ATOM      8  C   UNL     1     -36.567  -0.203  -5.562  1.00  0.00     0.027 A 
ENDROOT
BRANCH   1   9
ATOM      9  C   UNL     1     -34.582  -1.412  -4.935  1.00  0.00     0.022 C 
ATOM     10  O   UNL     1     -36.438  -3.690  -5.668  1.00  0.00    -0.269 OA
ATOM     11  C   UNL     1     -35.188  -3.684  -5.769  1.00  0.00     0.256 C 
ATOM     12  N   UNL     1     -34.372  -4.767  -6.250  1.00  0.00    -0.321 N 
ATOM     13  C   UNL     1     -34.284  -2.596  -5.433  1.00  0.00     0.050 C 
ATOM     14  C   UNL     1     -32.990  -4.371  -6.219  1.00  0.00     0.049 A 
ATOM     15  C   UNL     1     -32.929  -3.072  -5.731  1.00  0.00     0.012 A 
ATOM     16  C   UNL     1     -31.854  -5.071  -6.583  1.00  0.00     0.028 A 
ATOM     17  C   UNL     1     -31.661  -2.512  -5.628  1.00  0.00     0.025 A 
ATOM     18  C   UNL     1     -30.619  -4.459  -6.459  1.00  0.00     0.017 A 
ATOM     19  C   UNL     1     -30.507  -3.171  -5.979  1.00  0.00     0.014 A 
ATOM     20  H   UNL     1     -34.762  -5.666  -6.558  1.00  0.00     0.170 HD
ATOM     21  I   UNL     1     -28.610  -2.250  -5.797  1.00  0.00    -0.044 I 
ENDBRANCH   1   9
BRANCH   5  22
ATOM     22  O   UNL     1     -39.863   0.248  -4.033  1.00  0.00    -0.506 OA
ATOM     23  H   UNL     1     -40.304   0.109  -3.131  1.00  0.00     0.293 HD
ENDBRANCH   5  22
TORSDOF 2
ENDMDL
MODEL 6
REMARK VINA RESULT:      -5.4      4.668      7.230
REMARK SMILES O=C1Nc2ccc(I)cc2/C1=C/c1cc(Br)c(O)c(Br)c1
REMARK SMILES IDX 13 1 14 2 15 3 16 4 17 5 19 6 20 7 21 8 12 9 1 10 2 11 3 12
REMARK SMILES IDX 11 13 4 14 10 15 5 16 9 17 6 18 7 19 8 21 18 22
REMARK H PARENT 3 20 18 23
ROOT
ATOM      1  C   UNL     1     -37.681  -8.538 -12.898  1.00  0.00    -0.022 A 
ATOM      2  C   UNL     1     -38.414  -9.413 -12.158  1.00  0.00     0.027 A 
ATOM      3  C   UNL     1     -39.603  -9.894 -12.678  1.00  0.00     0.061 A 
ATOM      4  Br  UNL     1     -40.631 -11.126 -11.634  1.00  0.00    -0.047 Br
ATOM      5  C   UNL     1     -40.061  -9.508 -13.926  1.00  0.00     0.143 A 
ATOM      6  C   UNL     1     -39.297  -8.626 -14.641  1.00  0.00     0.061 A 
ATOM      7  Br  UNL     1     -39.866  -8.045 -16.372  1.00  0.00    -0.047 Br
ATOM      8  C   UNL     1     -38.118  -8.138 -14.145  1.00  0.00     0.027 A 
ENDROOT
BRANCH   1   9
ATOM      9  C   UNL     1     -36.403  -8.002 -12.461  1.00  0.00     0.022 C 
ATOM     10  O   UNL     1     -38.548  -5.993 -11.731  1.00  0.00    -0.269 OA
ATOM     11  C   UNL     1     -37.315  -5.872 -11.537  1.00  0.00     0.256 C 
ATOM     12  N   UNL     1     -36.661  -4.744 -10.930  1.00  0.00    -0.321 N 
ATOM     13  C   UNL     1     -36.274  -6.830 -11.870  1.00  0.00     0.050 C 
ATOM     14  C   UNL     1     -35.244  -4.986 -10.882  1.00  0.00     0.049 A 
ATOM     15  C   UNL     1     -35.004  -6.234 -11.443  1.00  0.00     0.012 A 
ATOM     16  C   UNL     1     -34.221  -4.194 -10.391  1.00  0.00     0.028 A 
ATOM     17  C   UNL     1     -33.678  -6.646 -11.483  1.00  0.00     0.025 A 
ATOM     18  C   UNL     1     -32.919  -4.660 -10.459  1.00  0.00     0.017 A 
ATOM     19  C   UNL     1     -32.631  -5.892 -11.007  1.00  0.00     0.014 A 
ATOM     20  H   UNL     1     -37.168  -3.915 -10.597  1.00  0.00     0.170 HD
ATOM     21  I   UNL     1     -30.634  -6.589 -11.102  1.00  0.00    -0.044 I 
ENDBRANCH   1   9
BRANCH   5  22
ATOM     22  O   UNL     1     -41.257 -10.000 -14.438  1.00  0.00    -0.506 OA
ATOM     23  H   UNL     1     -41.471  -9.881 -15.422  1.00  0.00     0.293 HD
ENDBRANCH   5  22
TORSDOF 2
ENDMDL
MODEL 7
REMARK VINA RESULT:      -5.4      4.714      6.975
REMARK SMILES O=C1Nc2ccc(I)cc2/C1=C/c1cc(Br)c(O)c(Br)c1
REMARK SMILES IDX 13 1 14 2 15 3 16 4 17 5 19 6 20 7 21 8 12 9 1 10 2 11 3 12
REMARK SMILES IDX 11 13 4 14 10 15 5 16 9 17 6 18 7 19 8 21 18 22
REMARK H PARENT 3 20 18 23
ROOT
ATOM      1  C   UNL     1     -37.784  -7.779 -12.848  1.00  0.00    -0.022 A 
ATOM      2  C   UNL     1     -37.869  -7.893 -14.200  1.00  0.00     0.027 A 
ATOM      3  C   UNL     1     -38.592  -8.944 -14.738  1.00  0.00     0.061 A 
ATOM      4  Br  UNL     1     -38.711  -9.101 -16.642  1.00  0.00    -0.047 Br
ATOM      5  C   UNL     1     -39.227  -9.877 -13.935  1.00  0.00     0.143 A 
ATOM      6  C   UNL     1     -39.118  -9.730 -12.579  1.00  0.00     0.061 A 
ATOM      7  Br  UNL     1     -39.966 -10.981 -11.405  1.00  0.00    -0.047 Br
ATOM      8  C   UNL     1     -38.408  -8.697 -12.027  1.00  0.00     0.027 A 
ENDROOT
BRANCH   1   9
ATOM      9  C   UNL     1     -37.082  -6.694 -12.184  1.00  0.00     0.022 C 
ATOM     10  O   UNL     1     -35.072  -8.888 -12.752  1.00  0.00    -0.269 OA
ATOM     11  C   UNL     1     -34.846  -7.802 -12.167  1.00  0.00     0.256 C 
ATOM     12  N   UNL     1     -33.580  -7.375 -11.635  1.00  0.00    -0.321 N 
ATOM     13  C   UNL     1     -35.795  -6.734 -11.897  1.00  0.00     0.050 C 
ATOM     14  C   UNL     1     -33.727  -6.072 -11.046  1.00  0.00     0.049 A 
ATOM     15  C   UNL     1     -35.052  -5.681 -11.198  1.00  0.00     0.012 A 
ATOM     16  C   UNL     1     -32.793  -5.267 -10.418  1.00  0.00     0.028 A 
ATOM     17  C   UNL     1     -35.388  -4.434 -10.686  1.00  0.00     0.025 A 
ATOM     18  C   UNL     1     -33.189  -4.034  -9.928  1.00  0.00     0.017 A 
ATOM     19  C   UNL     1     -34.492  -3.602 -10.056  1.00  0.00     0.014 A 
ATOM     20  H   UNL     1     -32.728  -7.947 -11.691  1.00  0.00     0.170 HD
ATOM     21  I   UNL     1     -35.081  -1.713  -9.303  1.00  0.00    -0.044 I 
ENDBRANCH   1   9
BRANCH   5  22
ATOM     22  O   UNL     1     -39.951 -10.928 -14.486  1.00  0.00    -0.506 OA
ATOM     23  H   UNL     1     -40.186 -11.732 -13.916  1.00  0.00     0.293 HD
ENDBRANCH   5  22
TORSDOF 2
ENDMDL
MODEL 8
REMARK VINA RESULT:      -5.4      7.775     10.699
REMARK SMILES O=C1Nc2ccc(I)cc2/C1=C/c1cc(Br)c(O)c(Br)c1
REMARK SMILES IDX 13 1 14 2 15 3 16 4 17 5 19 6 20 7 21 8 12 9 1 10 2 11 3 12
REMARK SMILES IDX 11 13 4 14 10 15 5 16 9 17 6 18 7 19 8 21 18 22
REMARK H PARENT 3 20 18 23
ROOT
ATOM      1  C   UNL     1     -31.016  -3.529  -7.499  1.00  0.00    -0.022 A 
ATOM      2  C   UNL     1     -30.912  -4.534  -8.409  1.00  0.00     0.027 A 
ATOM      3  C   UNL     1     -32.054  -4.961  -9.065  1.00  0.00     0.061 A 
ATOM      4  Br  UNL     1     -31.905  -6.374 -10.347  1.00  0.00    -0.047 Br
ATOM      5  C   UNL     1     -33.292  -4.392  -8.816  1.00  0.00     0.143 A 
ATOM      6  C   UNL     1     -33.357  -3.385  -7.893  1.00  0.00     0.061 A 
ATOM      7  Br  UNL     1     -35.033  -2.552  -7.495  1.00  0.00    -0.047 Br
ATOM      8  C   UNL     1     -32.239  -2.947  -7.234  1.00  0.00     0.027 A 
ENDROOT
BRANCH   1   9
ATOM      9  C   UNL     1     -29.875  -2.983  -6.784  1.00  0.00     0.022 C 
ATOM     10  O   UNL     1     -30.818  -5.439  -5.284  1.00  0.00    -0.269 OA
ATOM     11  C   UNL     1     -29.871  -4.685  -4.959  1.00  0.00     0.256 C 
ATOM     12  N   UNL     1     -29.037  -4.827  -3.796  1.00  0.00    -0.321 N 
ATOM     13  C   UNL     1     -29.398  -3.510  -5.673  1.00  0.00     0.050 C 
ATOM     14  C   UNL     1     -28.063  -3.769  -3.777  1.00  0.00     0.049 A 
ATOM     15  C   UNL     1     -28.273  -2.976  -4.899  1.00  0.00     0.012 A 
ATOM     16  C   UNL     1     -27.060  -3.497  -2.864  1.00  0.00     0.028 A 
ATOM     17  C   UNL     1     -27.417  -1.892  -5.054  1.00  0.00     0.025 A 
ATOM     18  C   UNL     1     -26.239  -2.403  -3.074  1.00  0.00     0.017 A 
ATOM     19  C   UNL     1     -26.408  -1.586  -4.172  1.00  0.00     0.014 A 
ATOM     20  H   UNL     1     -29.156  -5.584  -3.111  1.00  0.00     0.170 HD
ATOM     21  I   UNL     1     -25.142   0.084  -4.478  1.00  0.00    -0.044 I 
ENDBRANCH   1   9
BRANCH   5  22
ATOM     22  O   UNL     1     -34.432  -4.829  -9.482  1.00  0.00    -0.506 OA
ATOM     23  H   UNL     1     -34.661  -4.449 -10.393  1.00  0.00     0.293 HD
ENDBRANCH   5  22
TORSDOF 2
ENDMDL
MODEL 9
REMARK VINA RESULT:      -5.4      8.806     11.834
REMARK SMILES O=C1Nc2ccc(I)cc2/C1=C/c1cc(Br)c(O)c(Br)c1
REMARK SMILES IDX 13 1 14 2 15 3 16 4 17 5 19 6 20 7 21 8 12 9 1 10 2 11 3 12
REMARK SMILES IDX 11 13 4 14 10 15 5 16 9 17 6 18 7 19 8 21 18 22
REMARK H PARENT 3 20 18 23
ROOT
ATOM      1  C   UNL     1     -30.767  -2.885  -6.224  1.00  0.00    -0.022 A 
ATOM      2  C   UNL     1     -30.800  -3.888  -7.143  1.00  0.00     0.027 A 
ATOM      3  C   UNL     1     -32.026  -4.408  -7.518  1.00  0.00     0.061 A 
ATOM      4  Br  UNL     1     -32.070  -5.819  -8.811  1.00  0.00    -0.047 Br
ATOM      5  C   UNL     1     -33.213  -3.935  -6.983  1.00  0.00     0.143 A 
ATOM      6  C   UNL     1     -33.139  -2.926  -6.062  1.00  0.00     0.061 A 
ATOM      7  Br  UNL     1     -34.736  -2.222  -5.278  1.00  0.00    -0.047 Br
ATOM      8  C   UNL     1     -31.937  -2.397  -5.677  1.00  0.00     0.027 A 
ENDROOT
BRANCH   1   9
ATOM      9  C   UNL     1     -29.537  -2.245  -5.790  1.00  0.00     0.022 C 
ATOM     10  O   UNL     1     -29.865  -4.799  -4.196  1.00  0.00    -0.269 OA
ATOM     11  C   UNL     1     -28.937  -3.964  -4.084  1.00  0.00     0.256 C 
ATOM     12  N   UNL     1     -27.832  -4.044  -3.166  1.00  0.00    -0.321 N 
ATOM     13  C   UNL     1     -28.757  -2.741  -4.848  1.00  0.00     0.050 C 
ATOM     14  C   UNL     1     -26.980  -2.901  -3.346  1.00  0.00     0.049 A 
ATOM     15  C   UNL     1     -27.527  -2.115  -4.353  1.00  0.00     0.012 A 
ATOM     16  C   UNL     1     -25.810  -2.550  -2.697  1.00  0.00     0.028 A 
ATOM     17  C   UNL     1     -26.833  -0.954  -4.673  1.00  0.00     0.025 A 
ATOM     18  C   UNL     1     -25.164  -1.380  -3.060  1.00  0.00     0.017 A 
ATOM     19  C   UNL     1     -25.668  -0.567  -4.053  1.00  0.00     0.014 A 
ATOM     20  H   UNL     1     -27.713  -4.818  -2.500  1.00  0.00     0.170 HD
ATOM     21  I   UNL     1     -24.667   1.216  -4.598  1.00  0.00    -0.044 I 
ENDBRANCH   1   9
BRANCH   5  22
ATOM     22  O   UNL     1     -34.439  -4.465  -7.370  1.00  0.00    -0.506 OA
ATOM     23  H   UNL     1     -34.476  -5.181  -8.085  1.00  0.00     0.293 HD
ENDBRANCH   5  22
TORSDOF 2
ENDMDL
