MODEL 1
REMARK VINA RESULT:      -6.2      0.000      0.000
REMARK SMILES O=c1cc(C(Cl)(Cl)Cl)oc2ccc(Cl)cc12
REMARK SMILES IDX 1 1 2 2 3 3 4 4 9 5 10 6 11 7 12 8 13 9 14 10 15 11 16 12
REMARK SMILES IDX 5 13 6 14 7 15 8 16
REMARK H PARENT
ROOT
ATOM      1  O   UNL     1      12.077  -3.211 -10.337  1.00  0.00    -0.289 OA
ATOM      2  C   UNL     1      12.747  -3.303 -11.411  1.00  0.00     0.193 A 
ATOM      3  C   UNL     1      12.320  -2.699 -12.577  1.00  0.00     0.099 A 
ATOM      4  C   UNL     1      13.032  -2.786 -13.758  1.00  0.00     0.159 A 
ATOM      5  O   UNL     1      14.143  -3.472 -13.728  1.00  0.00    -0.456 OA
ATOM      6  C   UNL     1      14.609  -4.069 -12.664  1.00  0.00     0.138 A 
ATOM      7  C   UNL     1      15.794  -4.782 -12.697  1.00  0.00     0.049 A 
ATOM      8  C   UNL     1      16.309  -5.424 -11.582  1.00  0.00     0.024 A 
ATOM      9  C   UNL     1      15.615  -5.352 -10.389  1.00  0.00     0.042 A 
ATOM     10  Cl  UNL     1      16.224  -6.141  -8.965  1.00  0.00    -0.084 Cl
ATOM     11  C   UNL     1      14.417  -4.639 -10.329  1.00  0.00     0.036 A 
ATOM     12  C   UNL     1      13.936  -4.012 -11.465  1.00  0.00     0.066 A 
ENDROOT
BRANCH   4  13
ATOM     13  C   UNL     1      12.549  -2.121 -15.018  1.00  0.00     0.248 C 
ATOM     14  Cl  UNL     1      13.330  -0.537 -15.213  1.00  0.00    -0.075 Cl
ATOM     15  Cl  UNL     1      10.777  -1.917 -14.970  1.00  0.00    -0.075 Cl
ATOM     16  Cl  UNL     1      12.914  -3.163 -16.428  1.00  0.00    -0.075 Cl
ENDBRANCH   4  13
TORSDOF 1
ENDMDL
MODEL 2
REMARK VINA RESULT:      -5.8      1.945      6.313
REMARK SMILES O=c1cc(C(Cl)(Cl)Cl)oc2ccc(Cl)cc12
REMARK SMILES IDX 1 1 2 2 3 3 4 4 9 5 10 6 11 7 12 8 13 9 14 10 15 11 16 12
REMARK SMILES IDX 5 13 6 14 7 15 8 16
REMARK H PARENT
ROOT
ATOM      1  O   UNL     1      16.349  -5.059 -13.615  1.00  0.00    -0.289 OA
ATOM      2  C   UNL     1      15.920  -5.214 -12.431  1.00  0.00     0.193 A 
ATOM      3  C   UNL     1      16.570  -6.039 -11.534  1.00  0.00     0.099 A 
ATOM      4  C   UNL     1      16.120  -6.224 -10.240  1.00  0.00     0.159 A 
ATOM      5  O   UNL     1      15.040  -5.578  -9.893  1.00  0.00    -0.456 OA
ATOM      6  C   UNL     1      14.373  -4.782 -10.685  1.00  0.00     0.138 A 
ATOM      7  C   UNL     1      13.234  -4.126 -10.257  1.00  0.00     0.049 A 
ATOM      8  C   UNL     1      12.509  -3.276 -11.078  1.00  0.00     0.024 A 
ATOM      9  C   UNL     1      12.938  -3.076 -12.377  1.00  0.00     0.042 A 
ATOM     10  Cl  UNL     1      12.061  -2.019 -13.443  1.00  0.00    -0.084 Cl
ATOM     11  C   UNL     1      14.085  -3.726 -12.834  1.00  0.00     0.036 A 
ATOM     12  C   UNL     1      14.781  -4.566 -11.982  1.00  0.00     0.066 A 
ENDROOT
BRANCH   4  13
ATOM     13  C   UNL     1      16.843  -7.127  -9.279  1.00  0.00     0.248 C 
ATOM     14  Cl  UNL     1      15.946  -8.648  -9.076  1.00  0.00    -0.075 Cl
ATOM     15  Cl  UNL     1      17.033  -6.324  -7.697  1.00  0.00    -0.075 Cl
ATOM     16  Cl  UNL     1      18.491  -7.465  -9.892  1.00  0.00    -0.075 Cl
ENDBRANCH   4  13
TORSDOF 1
ENDMDL
MODEL 3
REMARK VINA RESULT:      -5.8      1.833      6.233
REMARK SMILES O=c1cc(C(Cl)(Cl)Cl)oc2ccc(Cl)cc12
REMARK SMILES IDX 1 1 2 2 3 3 4 4 9 5 10 6 11 7 12 8 13 9 14 10 15 11 16 12
REMARK SMILES IDX 5 13 6 14 7 15 8 16
REMARK H PARENT
ROOT
ATOM      1  O   UNL     1      16.356  -4.908 -13.665  1.00  0.00    -0.289 OA
ATOM      2  C   UNL     1      15.837  -5.134 -12.529  1.00  0.00     0.193 A 
ATOM      3  C   UNL     1      16.414  -6.020 -11.640  1.00  0.00     0.099 A 
ATOM      4  C   UNL     1      15.866  -6.283 -10.399  1.00  0.00     0.159 A 
ATOM      5  O   UNL     1      14.764  -5.651 -10.094  1.00  0.00    -0.456 OA
ATOM      6  C   UNL     1      14.163  -4.801 -10.882  1.00  0.00     0.138 A 
ATOM      7  C   UNL     1      12.997  -4.163 -10.501  1.00  0.00     0.049 A 
ATOM      8  C   UNL     1      12.340  -3.257 -11.319  1.00  0.00     0.024 A 
ATOM      9  C   UNL     1      12.868  -2.978 -12.565  1.00  0.00     0.042 A 
ATOM     10  Cl  UNL     1      12.079  -1.848 -13.625  1.00  0.00    -0.084 Cl
ATOM     11  C   UNL     1      14.044  -3.607 -12.975  1.00  0.00     0.036 A 
ATOM     12  C   UNL     1      14.669  -4.506 -12.128  1.00  0.00     0.066 A 
ENDROOT
BRANCH   4  13
ATOM     13  C   UNL     1      16.509  -7.252  -9.445  1.00  0.00     0.248 C 
ATOM     14  Cl  UNL     1      17.882  -8.063 -10.230  1.00  0.00    -0.075 Cl
ATOM     15  Cl  UNL     1      15.322  -8.467  -8.901  1.00  0.00    -0.075 Cl
ATOM     16  Cl  UNL     1      17.067  -6.380  -7.984  1.00  0.00    -0.075 Cl
ENDBRANCH   4  13
TORSDOF 1
ENDMDL
MODEL 4
REMARK VINA RESULT:      -5.7      2.163      3.361
REMARK SMILES O=c1cc(C(Cl)(Cl)Cl)oc2ccc(Cl)cc12
REMARK SMILES IDX 1 1 2 2 3 3 4 4 9 5 10 6 11 7 12 8 13 9 14 10 15 11 16 12
REMARK SMILES IDX 5 13 6 14 7 15 8 16
REMARK H PARENT
ROOT
ATOM      1  O   UNL     1      16.484  -4.633 -13.292  1.00  0.00    -0.289 OA
ATOM      2  C   UNL     1      15.518  -4.767 -12.479  1.00  0.00     0.193 A 
ATOM      3  C   UNL     1      14.278  -4.218 -12.742  1.00  0.00     0.099 A 
ATOM      4  C   UNL     1      13.213  -4.350 -11.872  1.00  0.00     0.159 A 
ATOM      5  O   UNL     1      13.427  -5.024 -10.774  1.00  0.00    -0.456 OA
ATOM      6  C   UNL     1      14.570  -5.571 -10.460  1.00  0.00     0.138 A 
ATOM      7  C   UNL     1      14.734  -6.275  -9.280  1.00  0.00     0.049 A 
ATOM      8  C   UNL     1      15.937  -6.864  -8.923  1.00  0.00     0.024 A 
ATOM      9  C   UNL     1      17.017  -6.745  -9.777  1.00  0.00     0.042 A 
ATOM     10  Cl  UNL     1      18.546  -7.468  -9.371  1.00  0.00    -0.084 Cl
ATOM     11  C   UNL     1      16.879  -6.041 -10.973  1.00  0.00     0.036 A 
ATOM     12  C   UNL     1      15.661  -5.467 -11.293  1.00  0.00     0.066 A 
ENDROOT
BRANCH   4  13
ATOM     13  C   UNL     1      11.870  -3.744 -12.176  1.00  0.00     0.248 C 
ATOM     14  Cl  UNL     1      12.072  -2.248 -13.115  1.00  0.00    -0.075 Cl
ATOM     15  Cl  UNL     1      10.992  -3.391 -10.664  1.00  0.00    -0.075 Cl
ATOM     16  Cl  UNL     1      10.874  -4.914 -13.094  1.00  0.00    -0.075 Cl
ENDBRANCH   4  13
TORSDOF 1
ENDMDL
MODEL 5
REMARK VINA RESULT:      -5.6      1.680      6.184
REMARK SMILES O=c1cc(C(Cl)(Cl)Cl)oc2ccc(Cl)cc12
REMARK SMILES IDX 1 1 2 2 3 3 4 4 9 5 10 6 11 7 12 8 13 9 14 10 15 11 16 12
REMARK SMILES IDX 5 13 6 14 7 15 8 16
REMARK H PARENT
ROOT
ATOM      1  O   UNL     1      16.340  -4.921 -13.473  1.00  0.00    -0.289 OA
ATOM      2  C   UNL     1      15.694  -5.085 -12.392  1.00  0.00     0.193 A 
ATOM      3  C   UNL     1      16.127  -5.972 -11.426  1.00  0.00     0.099 A 
ATOM      4  C   UNL     1      15.441  -6.168 -10.243  1.00  0.00     0.159 A 
ATOM      5  O   UNL     1      14.350  -5.471 -10.071  1.00  0.00    -0.456 OA
ATOM      6  C   UNL     1      13.881  -4.614 -10.938  1.00  0.00     0.138 A 
ATOM      7  C   UNL     1      12.719  -3.906 -10.696  1.00  0.00     0.049 A 
ATOM      8  C   UNL     1      12.200  -2.991 -11.601  1.00  0.00     0.024 A 
ATOM      9  C   UNL     1      12.868  -2.779 -12.792  1.00  0.00     0.042 A 
ATOM     10  Cl  UNL     1      12.256  -1.642 -13.956  1.00  0.00    -0.084 Cl
ATOM     11  C   UNL     1      14.043  -3.481 -13.060  1.00  0.00     0.036 A 
ATOM     12  C   UNL     1      14.528  -4.385 -12.131  1.00  0.00     0.066 A 
ENDROOT
BRANCH   4  13
ATOM     13  C   UNL     1      15.929  -7.139  -9.203  1.00  0.00     0.248 C 
ATOM     14  Cl  UNL     1      17.082  -6.341  -8.112  1.00  0.00    -0.075 Cl
ATOM     15  Cl  UNL     1      16.710  -8.541  -9.984  1.00  0.00    -0.075 Cl
ATOM     16  Cl  UNL     1      14.539  -7.772  -8.269  1.00  0.00    -0.075 Cl
ENDBRANCH   4  13
TORSDOF 1
ENDMDL
MODEL 6
REMARK VINA RESULT:      -5.5     13.770     14.778
REMARK SMILES O=c1cc(C(Cl)(Cl)Cl)oc2ccc(Cl)cc12
REMARK SMILES IDX 1 1 2 2 3 3 4 4 9 5 10 6 11 7 12 8 13 9 14 10 15 11 16 12
REMARK SMILES IDX 5 13 6 14 7 15 8 16
REMARK H PARENT
ROOT
ATOM      1  O   UNL     1      24.348   5.811  -4.520  1.00  0.00    -0.289 OA
ATOM      2  C   UNL     1      23.195   5.386  -4.202  1.00  0.00     0.193 A 
ATOM      3  C   UNL     1      22.125   6.250  -4.066  1.00  0.00     0.099 A 
ATOM      4  C   UNL     1      20.861   5.811  -3.720  1.00  0.00     0.159 A 
ATOM      5  O   UNL     1      20.715   4.529  -3.523  1.00  0.00    -0.456 OA
ATOM      6  C   UNL     1      21.678   3.654  -3.634  1.00  0.00     0.138 A 
ATOM      7  C   UNL     1      21.459   2.307  -3.412  1.00  0.00     0.049 A 
ATOM      8  C   UNL     1      22.464   1.359  -3.523  1.00  0.00     0.024 A 
ATOM      9  C   UNL     1      23.737   1.773  -3.867  1.00  0.00     0.042 A 
ATOM     10  Cl  UNL     1      25.029   0.620  -4.018  1.00  0.00    -0.084 Cl
ATOM     11  C   UNL     1      23.985   3.126  -4.097  1.00  0.00     0.036 A 
ATOM     12  C   UNL     1      22.954   4.042  -3.976  1.00  0.00     0.066 A 
ENDROOT
BRANCH   4  13
ATOM     13  C   UNL     1      19.710   6.769  -3.577  1.00  0.00     0.248 C 
ATOM     14  Cl  UNL     1      19.954   7.812  -2.159  1.00  0.00    -0.075 Cl
ATOM     15  Cl  UNL     1      18.176   5.873  -3.407  1.00  0.00    -0.075 Cl
ATOM     16  Cl  UNL     1      19.568   7.767  -5.056  1.00  0.00    -0.075 Cl
ENDBRANCH   4  13
TORSDOF 1
ENDMDL
MODEL 7
REMARK VINA RESULT:      -5.4     13.729     14.781
REMARK SMILES O=c1cc(C(Cl)(Cl)Cl)oc2ccc(Cl)cc12
REMARK SMILES IDX 1 1 2 2 3 3 4 4 9 5 10 6 11 7 12 8 13 9 14 10 15 11 16 12
REMARK SMILES IDX 5 13 6 14 7 15 8 16
REMARK H PARENT
ROOT
ATOM      1  O   UNL     1      24.473   5.659  -4.335  1.00  0.00    -0.289 OA
ATOM      2  C   UNL     1      23.298   5.247  -4.089  1.00  0.00     0.193 A 
ATOM      3  C   UNL     1      22.242   6.129  -3.955  1.00  0.00     0.099 A 
ATOM      4  C   UNL     1      20.955   5.704  -3.687  1.00  0.00     0.159 A 
ATOM      5  O   UNL     1      20.772   4.417  -3.561  1.00  0.00    -0.456 OA
ATOM      6  C   UNL     1      21.720   3.526  -3.675  1.00  0.00     0.138 A 
ATOM      7  C   UNL     1      21.461   2.175  -3.531  1.00  0.00     0.049 A 
ATOM      8  C   UNL     1      22.450   1.209  -3.646  1.00  0.00     0.024 A 
ATOM      9  C   UNL     1      23.745   1.609  -3.914  1.00  0.00     0.042 A 
ATOM     10  Cl  UNL     1      25.017   0.434  -4.068  1.00  0.00    -0.084 Cl
ATOM     11  C   UNL     1      24.033   2.966  -4.064  1.00  0.00     0.036 A 
ATOM     12  C   UNL     1      23.018   3.899  -3.941  1.00  0.00     0.066 A 
ENDROOT
BRANCH   4  13
ATOM     13  C   UNL     1      19.820   6.680  -3.545  1.00  0.00     0.248 C 
ATOM     14  Cl  UNL     1      19.600   7.589  -5.056  1.00  0.00    -0.075 Cl
ATOM     15  Cl  UNL     1      20.140   7.812  -2.203  1.00  0.00    -0.075 Cl
ATOM     16  Cl  UNL     1      18.315   5.800  -3.135  1.00  0.00    -0.075 Cl
ENDBRANCH   4  13
TORSDOF 1
ENDMDL
MODEL 8
REMARK VINA RESULT:      -5.4     13.568     14.539
REMARK SMILES O=c1cc(C(Cl)(Cl)Cl)oc2ccc(Cl)cc12
REMARK SMILES IDX 1 1 2 2 3 3 4 4 9 5 10 6 11 7 12 8 13 9 14 10 15 11 16 12
REMARK SMILES IDX 5 13 6 14 7 15 8 16
REMARK H PARENT
ROOT
ATOM      1  O   UNL     1      24.830   4.916  -2.852  1.00  0.00    -0.289 OA
ATOM      2  C   UNL     1      23.764   4.701  -3.508  1.00  0.00     0.193 A 
ATOM      3  C   UNL     1      22.766   5.654  -3.587  1.00  0.00     0.099 A 
ATOM      4  C   UNL     1      21.598   5.442  -4.295  1.00  0.00     0.159 A 
ATOM      5  O   UNL     1      21.472   4.289  -4.895  1.00  0.00    -0.456 OA
ATOM      6  C   UNL     1      22.372   3.343  -4.865  1.00  0.00     0.138 A 
ATOM      7  C   UNL     1      22.179   2.142  -5.523  1.00  0.00     0.049 A 
ATOM      8  C   UNL     1      23.118   1.122  -5.506  1.00  0.00     0.024 A 
ATOM      9  C   UNL     1      24.294   1.310  -4.805  1.00  0.00     0.042 A 
ATOM     10  Cl  UNL     1      25.501   0.059  -4.756  1.00  0.00    -0.084 Cl
ATOM     11  C   UNL     1      24.514   2.512  -4.133  1.00  0.00     0.036 A 
ATOM     12  C   UNL     1      23.551   3.506  -4.174  1.00  0.00     0.066 A 
ENDROOT
BRANCH   4  13
ATOM     13  C   UNL     1      20.524   6.492  -4.368  1.00  0.00     0.248 C 
ATOM     14  Cl  UNL     1      20.887   7.819  -3.243  1.00  0.00    -0.075 Cl
ATOM     15  Cl  UNL     1      18.936   5.782  -3.969  1.00  0.00    -0.075 Cl
ATOM     16  Cl  UNL     1      20.407   7.120  -6.040  1.00  0.00    -0.075 Cl
ENDBRANCH   4  13
TORSDOF 1
ENDMDL
MODEL 9
REMARK VINA RESULT:      -5.3      1.552      6.014
REMARK SMILES O=c1cc(C(Cl)(Cl)Cl)oc2ccc(Cl)cc12
REMARK SMILES IDX 1 1 2 2 3 3 4 4 9 5 10 6 11 7 12 8 13 9 14 10 15 11 16 12
REMARK SMILES IDX 5 13 6 14 7 15 8 16
REMARK H PARENT
ROOT
ATOM      1  O   UNL     1      16.342  -4.369 -13.398  1.00  0.00    -0.289 OA
ATOM      2  C   UNL     1      15.473  -4.697 -12.533  1.00  0.00     0.193 A 
ATOM      3  C   UNL     1      15.776  -5.571 -11.507  1.00  0.00     0.099 A 
ATOM      4  C   UNL     1      14.846  -5.943 -10.555  1.00  0.00     0.159 A 
ATOM      5  O   UNL     1      13.651  -5.429 -10.664  1.00  0.00    -0.456 OA
ATOM      6  C   UNL     1      13.293  -4.597 -11.605  1.00  0.00     0.138 A 
ATOM      7  C   UNL     1      12.009  -4.087 -11.666  1.00  0.00     0.049 A 
ATOM      8  C   UNL     1      11.604  -3.203 -12.655  1.00  0.00     0.024 A 
ATOM      9  C   UNL     1      12.515  -2.816 -13.619  1.00  0.00     0.042 A 
ATOM     10  Cl  UNL     1      12.052  -1.710 -14.878  1.00  0.00    -0.084 Cl
ATOM     11  C   UNL     1      13.817  -3.316 -13.580  1.00  0.00     0.036 A 
ATOM     12  C   UNL     1      14.182  -4.197 -12.576  1.00  0.00     0.066 A 
ENDROOT
BRANCH   4  13
ATOM     13  C   UNL     1      15.197  -6.897  -9.446  1.00  0.00     0.248 C 
ATOM     14  Cl  UNL     1      15.570  -8.501 -10.113  1.00  0.00    -0.075 Cl
ATOM     15  Cl  UNL     1      13.845  -7.026  -8.289  1.00  0.00    -0.075 Cl
ATOM     16  Cl  UNL     1      16.604  -6.270  -8.533  1.00  0.00    -0.075 Cl
ENDBRANCH   4  13
TORSDOF 1
ENDMDL
