MODEL 1
REMARK VINA RESULT:      -5.1      0.000      0.000
REMARK SMILES Clc1ccccc1C(c1ccccc1)(c1ccccc1)n1ccnc1
REMARK SMILES IDX 1 1 2 2 3 3 4 4 5 5 6 6 7 7 8 8 9 9 10 10 14 11 11 12 13 13
REMARK SMILES IDX 12 14 15 15 16 16 20 17 17 18 19 19 18 20 21 21 22 22 25 23
REMARK SMILES IDX 23 24 24 25
REMARK H PARENT
ROOT
ATOM      1  Cl  UNL     1      33.330   5.666  56.599  1.00  0.00    -0.084 Cl
ATOM      2  C   UNL     1      32.643   6.774  55.433  1.00  0.00     0.047 A 
ATOM      3  C   UNL     1      33.341   7.169  54.315  1.00  0.00     0.021 A 
ATOM      4  C   UNL     1      32.791   8.016  53.377  1.00  0.00     0.002 A 
ATOM      5  C   UNL     1      31.510   8.465  53.587  1.00  0.00     0.001 A 
ATOM      6  C   UNL     1      30.800   8.063  54.726  1.00  0.00     0.008 A 
ATOM      7  C   UNL     1      31.351   7.227  55.648  1.00  0.00     0.006 A 
ENDROOT
BRANCH   7   8
ATOM      8  C   UNL     1      30.587   6.833  56.863  1.00  0.00     0.123 C 
BRANCH   8   9
ATOM      9  C   UNL     1      29.350   7.664  56.912  1.00  0.00    -0.013 A 
ATOM     10  C   UNL     1      29.304   9.019  56.903  1.00  0.00     0.007 A 
ATOM     11  C   UNL     1      28.149   6.931  56.957  1.00  0.00     0.007 A 
ATOM     12  C   UNL     1      28.076   9.657  56.938  1.00  0.00     0.000 A 
ATOM     13  C   UNL     1      26.937   7.571  56.990  1.00  0.00     0.000 A 
ATOM     14  C   UNL     1      26.879   8.944  56.981  1.00  0.00     0.000 A 
ENDBRANCH   8   9
BRANCH   8  15
ATOM     15  C   UNL     1      31.317   7.206  58.104  1.00  0.00    -0.013 A 
ATOM     16  C   UNL     1      31.184   6.529  59.288  1.00  0.00     0.007 A 
ATOM     17  C   UNL     1      32.187   8.265  58.059  1.00  0.00     0.007 A 
ATOM     18  C   UNL     1      31.896   6.885  60.427  1.00  0.00     0.000 A 
ATOM     19  C   UNL     1      32.918   8.644  59.198  1.00  0.00     0.000 A 
ATOM     20  C   UNL     1      32.763   7.949  60.365  1.00  0.00     0.000 A 
ENDBRANCH   8  15
BRANCH   8  21
ATOM     21  N   UNL     1      30.339   5.422  56.854  1.00  0.00    -0.319 N 
ATOM     22  C   UNL     1      30.153   4.638  57.952  1.00  0.00     0.109 A 
ATOM     23  C   UNL     1      30.223   4.630  55.789  1.00  0.00     0.200 A 
ATOM     24  C   UNL     1      29.922   3.343  57.545  1.00  0.00     0.131 A 
ATOM     25  N   UNL     1      29.970   3.365  56.218  1.00  0.00    -0.245 NA
ENDBRANCH   8  21
ENDBRANCH   7   8
TORSDOF 4
ENDMDL
MODEL 2
REMARK VINA RESULT:      -5.0      0.639      1.605
REMARK SMILES Clc1ccccc1C(c1ccccc1)(c1ccccc1)n1ccnc1
REMARK SMILES IDX 1 1 2 2 3 3 4 4 5 5 6 6 7 7 8 8 9 9 10 10 14 11 11 12 13 13
REMARK SMILES IDX 12 14 15 15 16 16 20 17 17 18 19 19 18 20 21 21 22 22 25 23
REMARK SMILES IDX 23 24 24 25
REMARK H PARENT
ROOT
ATOM      1  Cl  UNL     1      33.862   5.787  56.575  1.00  0.00    -0.084 Cl
ATOM      2  C   UNL     1      33.046   6.807  55.411  1.00  0.00     0.047 A 
ATOM      3  C   UNL     1      33.690   7.284  54.293  1.00  0.00     0.021 A 
ATOM      4  C   UNL     1      33.042   8.060  53.357  1.00  0.00     0.002 A 
ATOM      5  C   UNL     1      31.717   8.352  53.569  1.00  0.00     0.001 A 
ATOM      6  C   UNL     1      31.061   7.866  54.708  1.00  0.00     0.008 A 
ATOM      7  C   UNL     1      31.709   7.100  55.628  1.00  0.00     0.006 A 
ENDROOT
BRANCH   7   8
ATOM      8  C   UNL     1      30.998   6.616  56.842  1.00  0.00     0.123 C 
BRANCH   8   9
ATOM      9  C   UNL     1      29.656   7.263  56.873  1.00  0.00    -0.013 A 
ATOM     10  C   UNL     1      28.464   6.616  56.907  1.00  0.00     0.007 A 
ATOM     11  C   UNL     1      29.679   8.671  56.882  1.00  0.00     0.007 A 
ATOM     12  C   UNL     1      27.293   7.352  56.950  1.00  0.00     0.000 A 
ATOM     13  C   UNL     1      28.515   9.392  56.926  1.00  0.00     0.000 A 
ATOM     14  C   UNL     1      27.302   8.747  56.960  1.00  0.00     0.000 A 
ENDBRANCH   8   9
BRANCH   8  15
ATOM     15  C   UNL     1      31.658   7.103  58.084  1.00  0.00    -0.013 A 
ATOM     16  C   UNL     1      32.545   8.146  58.106  1.00  0.00     0.007 A 
ATOM     17  C   UNL     1      31.345   6.494  59.273  1.00  0.00     0.007 A 
ATOM     18  C   UNL     1      33.129   8.595  59.285  1.00  0.00     0.000 A 
ATOM     19  C   UNL     1      31.923   6.929  60.477  1.00  0.00     0.000 A 
ATOM     20  C   UNL     1      32.806   7.973  60.467  1.00  0.00     0.000 A 
ENDBRANCH   8  15
BRANCH   8  21
ATOM     21  N   UNL     1      30.953   5.184  56.850  1.00  0.00    -0.319 N 
ATOM     22  C   UNL     1      30.814   4.384  55.757  1.00  0.00     0.109 A 
ATOM     23  C   UNL     1      31.060   4.380  57.907  1.00  0.00     0.200 A 
ATOM     24  C   UNL     1      30.835   3.067  56.158  1.00  0.00     0.131 A 
ATOM     25  N   UNL     1      30.987   3.092  57.477  1.00  0.00    -0.245 NA
ENDBRANCH   8  21
ENDBRANCH   7   8
TORSDOF 4
ENDMDL
MODEL 3
REMARK VINA RESULT:      -4.6      1.495      4.349
REMARK SMILES Clc1ccccc1C(c1ccccc1)(c1ccccc1)n1ccnc1
REMARK SMILES IDX 1 1 2 2 3 3 4 4 5 5 6 6 7 7 8 8 9 9 10 10 14 11 11 12 13 13
REMARK SMILES IDX 12 14 15 15 16 16 20 17 17 18 19 19 18 20 21 21 22 22 25 23
REMARK SMILES IDX 23 24 24 25
REMARK H PARENT
ROOT
ATOM      1  Cl  UNL     1      28.784   6.516  53.792  1.00  0.00    -0.084 Cl
ATOM      2  C   UNL     1      28.521   7.780  54.972  1.00  0.00     0.047 A 
ATOM      3  C   UNL     1      27.509   8.701  54.829  1.00  0.00     0.021 A 
ATOM      4  C   UNL     1      27.279   9.679  55.772  1.00  0.00     0.002 A 
ATOM      5  C   UNL     1      28.095   9.714  56.875  1.00  0.00     0.001 A 
ATOM      6  C   UNL     1      29.125   8.776  57.021  1.00  0.00     0.008 A 
ATOM      7  C   UNL     1      29.347   7.814  56.084  1.00  0.00     0.006 A 
ENDROOT
BRANCH   7   8
ATOM      8  C   UNL     1      30.464   6.844  56.247  1.00  0.00     0.123 C 
BRANCH   8   9
ATOM      9  C   UNL     1      31.206   7.208  57.488  1.00  0.00    -0.013 A 
ATOM     10  C   UNL     1      32.066   8.249  57.621  1.00  0.00     0.007 A 
ATOM     11  C   UNL     1      30.948   6.378  58.595  1.00  0.00     0.007 A 
ATOM     12  C   UNL     1      32.673   8.475  58.844  1.00  0.00     0.000 A 
ATOM     13  C   UNL     1      31.553   6.610  59.803  1.00  0.00     0.000 A 
ATOM     14  C   UNL     1      32.426   7.661  59.949  1.00  0.00     0.000 A 
ENDBRANCH   8   9
BRANCH   8  15
ATOM     15  C   UNL     1      31.476   6.998  55.168  1.00  0.00    -0.013 A 
ATOM     16  C   UNL     1      32.456   6.075  54.917  1.00  0.00     0.007 A 
ATOM     17  C   UNL     1      31.412   8.108  54.364  1.00  0.00     0.007 A 
ATOM     18  C   UNL     1      33.374   6.234  53.886  1.00  0.00     0.000 A 
ATOM     19  C   UNL     1      32.329   8.291  53.316  1.00  0.00     0.000 A 
ATOM     20  C   UNL     1      33.297   7.352  53.091  1.00  0.00     0.000 A 
ENDBRANCH   8  15
BRANCH   8  21
ATOM     21  N   UNL     1      29.957   5.504  56.245  1.00  0.00    -0.319 N 
ATOM     22  C   UNL     1      30.579   4.416  55.712  1.00  0.00     0.109 A 
ATOM     23  C   UNL     1      28.813   5.074  56.776  1.00  0.00     0.200 A 
ATOM     24  C   UNL     1      29.796   3.303  55.921  1.00  0.00     0.131 A 
ATOM     25  N   UNL     1      28.722   3.733  56.574  1.00  0.00    -0.245 NA
ENDBRANCH   8  21
ENDBRANCH   7   8
TORSDOF 4
ENDMDL
MODEL 4
REMARK VINA RESULT:      -4.6      9.861     12.730
REMARK SMILES Clc1ccccc1C(c1ccccc1)(c1ccccc1)n1ccnc1
REMARK SMILES IDX 1 1 2 2 3 3 4 4 5 5 6 6 7 7 8 8 9 9 10 10 14 11 11 12 13 13
REMARK SMILES IDX 12 14 15 15 16 16 20 17 17 18 19 19 18 20 21 21 22 22 25 23
REMARK SMILES IDX 23 24 24 25
REMARK H PARENT
ROOT
ATOM      1  Cl  UNL     1      40.786  14.811  57.809  1.00  0.00    -0.084 Cl
ATOM      2  C   UNL     1      39.120  14.290  57.909  1.00  0.00     0.047 A 
ATOM      3  C   UNL     1      38.422  13.886  56.794  1.00  0.00     0.021 A 
ATOM      4  C   UNL     1      37.119  13.444  56.874  1.00  0.00     0.002 A 
ATOM      5  C   UNL     1      36.524  13.415  58.111  1.00  0.00     0.001 A 
ATOM      6  C   UNL     1      37.235  13.826  59.246  1.00  0.00     0.008 A 
ATOM      7  C   UNL     1      38.521  14.262  59.159  1.00  0.00     0.006 A 
ENDROOT
BRANCH   7   8
ATOM      8  C   UNL     1      39.247  14.718  60.374  1.00  0.00     0.123 C 
BRANCH   8   9
ATOM      9  C   UNL     1      40.423  13.822  60.566  1.00  0.00    -0.013 A 
ATOM     10  C   UNL     1      41.625  14.188  61.076  1.00  0.00     0.007 A 
ATOM     11  C   UNL     1      40.214  12.484  60.181  1.00  0.00     0.007 A 
ATOM     12  C   UNL     1      42.623  13.240  61.210  1.00  0.00     0.000 A 
ATOM     13  C   UNL     1      41.208  11.551  60.318  1.00  0.00     0.000 A 
ATOM     14  C   UNL     1      42.430  11.911  60.834  1.00  0.00     0.000 A 
ENDBRANCH   8   9
BRANCH   8  15
ATOM     15  C   UNL     1      38.434  14.506  61.602  1.00  0.00    -0.013 A 
ATOM     16  C   UNL     1      37.268  15.179  61.858  1.00  0.00     0.007 A 
ATOM     17  C   UNL     1      38.856  13.572  62.513  1.00  0.00     0.007 A 
ATOM     18  C   UNL     1      36.516  14.944  63.003  1.00  0.00     0.000 A 
ATOM     19  C   UNL     1      38.112  13.317  63.678  1.00  0.00     0.000 A 
ATOM     20  C   UNL     1      36.953  14.006  63.907  1.00  0.00     0.000 A 
ENDBRANCH   8  15
BRANCH   8  21
ATOM     21  N   UNL     1      39.587  16.105  60.255  1.00  0.00    -0.319 N 
ATOM     22  C   UNL     1      38.970  17.012  59.448  1.00  0.00     0.109 A 
ATOM     23  C   UNL     1      40.540  16.762  60.916  1.00  0.00     0.200 A 
ATOM     24  C   UNL     1      39.561  18.243  59.622  1.00  0.00     0.131 A 
ATOM     25  N   UNL     1      40.518  18.063  60.525  1.00  0.00    -0.245 NA
ENDBRANCH   8  21
ENDBRANCH   7   8
TORSDOF 4
ENDMDL
MODEL 5
REMARK VINA RESULT:      -4.6      9.878     12.522
REMARK SMILES Clc1ccccc1C(c1ccccc1)(c1ccccc1)n1ccnc1
REMARK SMILES IDX 1 1 2 2 3 3 4 4 5 5 6 6 7 7 8 8 9 9 10 10 14 11 11 12 13 13
REMARK SMILES IDX 12 14 15 15 16 16 20 17 17 18 19 19 18 20 21 21 22 22 25 23
REMARK SMILES IDX 23 24 24 25
REMARK H PARENT
ROOT
ATOM      1  Cl  UNL     1      40.770  14.852  57.862  1.00  0.00    -0.084 Cl
ATOM      2  C   UNL     1      39.108  14.316  57.976  1.00  0.00     0.047 A 
ATOM      3  C   UNL     1      38.402  13.916  56.866  1.00  0.00     0.021 A 
ATOM      4  C   UNL     1      37.104  13.462  56.956  1.00  0.00     0.002 A 
ATOM      5  C   UNL     1      36.522  13.420  58.199  1.00  0.00     0.001 A 
ATOM      6  C   UNL     1      37.242  13.828  59.330  1.00  0.00     0.008 A 
ATOM      7  C   UNL     1      38.523  14.275  59.232  1.00  0.00     0.006 A 
ENDROOT
BRANCH   7   8
ATOM      8  C   UNL     1      39.260  14.728  60.443  1.00  0.00     0.123 C 
BRANCH   8   9
ATOM      9  C   UNL     1      38.352  14.568  61.615  1.00  0.00    -0.013 A 
ATOM     10  C   UNL     1      37.212  15.268  61.836  1.00  0.00     0.007 A 
ATOM     11  C   UNL     1      38.749  13.581  62.538  1.00  0.00     0.007 A 
ATOM     12  C   UNL     1      36.459  14.999  62.965  1.00  0.00     0.000 A 
ATOM     13  C   UNL     1      37.996  13.321  63.653  1.00  0.00     0.000 A 
ATOM     14  C   UNL     1      36.839  14.024  63.888  1.00  0.00     0.000 A 
ENDBRANCH   8   9
BRANCH   8  15
ATOM     15  C   UNL     1      39.529  16.190  60.397  1.00  0.00    -0.013 A 
ATOM     16  C   UNL     1      40.289  16.846  61.329  1.00  0.00     0.007 A 
ATOM     17  C   UNL     1      39.011  16.918  59.356  1.00  0.00     0.007 A 
ATOM     18  C   UNL     1      40.543  18.210  61.248  1.00  0.00     0.000 A 
ATOM     19  C   UNL     1      39.255  18.298  59.253  1.00  0.00     0.000 A 
ATOM     20  C   UNL     1      40.016  18.925  60.199  1.00  0.00     0.000 A 
ENDBRANCH   8  15
BRANCH   8  21
ATOM     21  N   UNL     1      40.496  14.014  60.564  1.00  0.00    -0.319 N 
ATOM     22  C   UNL     1      41.697  14.552  60.917  1.00  0.00     0.109 A 
ATOM     23  C   UNL     1      40.695  12.710  60.379  1.00  0.00     0.200 A 
ATOM     24  C   UNL     1      42.645  13.553  60.945  1.00  0.00     0.131 A 
ATOM     25  N   UNL     1      42.006  12.437  60.613  1.00  0.00    -0.245 NA
ENDBRANCH   8  21
ENDBRANCH   7   8
TORSDOF 4
ENDMDL
MODEL 6
REMARK VINA RESULT:      -4.6      1.773      3.975
REMARK SMILES Clc1ccccc1C(c1ccccc1)(c1ccccc1)n1ccnc1
REMARK SMILES IDX 1 1 2 2 3 3 4 4 5 5 6 6 7 7 8 8 9 9 10 10 14 11 11 12 13 13
REMARK SMILES IDX 12 14 15 15 16 16 20 17 17 18 19 19 18 20 21 21 22 22 25 23
REMARK SMILES IDX 23 24 24 25
REMARK H PARENT
ROOT
ATOM      1  Cl  UNL     1      29.235   6.529  53.790  1.00  0.00    -0.084 Cl
ATOM      2  C   UNL     1      28.817   7.777  54.942  1.00  0.00     0.047 A 
ATOM      3  C   UNL     1      27.769   8.641  54.720  1.00  0.00     0.021 A 
ATOM      4  C   UNL     1      27.416   9.604  55.640  1.00  0.00     0.002 A 
ATOM      5  C   UNL     1      28.145   9.685  56.800  1.00  0.00     0.001 A 
ATOM      6  C   UNL     1      29.212   8.805  57.025  1.00  0.00     0.008 A 
ATOM      7  C   UNL     1      29.555   7.857  56.112  1.00  0.00     0.006 A 
ENDROOT
BRANCH   7   8
ATOM      8  C   UNL     1      30.709   6.950  56.361  1.00  0.00     0.123 C 
BRANCH   8   9
ATOM      9  C   UNL     1      30.179   5.563  56.487  1.00  0.00    -0.013 A 
ATOM     10  C   UNL     1      30.820   4.431  56.102  1.00  0.00     0.007 A 
ATOM     11  C   UNL     1      28.904   5.469  57.077  1.00  0.00     0.007 A 
ATOM     12  C   UNL     1      30.209   3.205  56.296  1.00  0.00     0.000 A 
ATOM     13  C   UNL     1      28.306   4.250  57.266  1.00  0.00     0.000 A 
ATOM     14  C   UNL     1      28.947   3.098  56.880  1.00  0.00     0.000 A 
ENDBRANCH   8   9
BRANCH   8  15
ATOM     15  C   UNL     1      31.329   7.217  57.686  1.00  0.00    -0.013 A 
ATOM     16  C   UNL     1      31.076   6.463  58.802  1.00  0.00     0.007 A 
ATOM     17  C   UNL     1      32.219   8.256  57.796  1.00  0.00     0.007 A 
ATOM     18  C   UNL     1      31.688   6.722  60.023  1.00  0.00     0.000 A 
ATOM     19  C   UNL     1      32.850   8.536  59.019  1.00  0.00     0.000 A 
ATOM     20  C   UNL     1      32.576   7.766  60.116  1.00  0.00     0.000 A 
ENDBRANCH   8  15
BRANCH   8  21
ATOM     21  N   UNL     1      31.691   7.106  55.329  1.00  0.00    -0.319 N 
ATOM     22  C   UNL     1      31.783   8.156  54.467  1.00  0.00     0.109 A 
ATOM     23  C   UNL     1      32.694   6.279  55.040  1.00  0.00     0.200 A 
ATOM     24  C   UNL     1      32.863   7.961  53.636  1.00  0.00     0.131 A 
ATOM     25  N   UNL     1      33.403   6.806  54.007  1.00  0.00    -0.245 NA
ENDBRANCH   8  21
ENDBRANCH   7   8
TORSDOF 4
ENDMDL
MODEL 7
REMARK VINA RESULT:      -4.5     10.261     13.211
REMARK SMILES Clc1ccccc1C(c1ccccc1)(c1ccccc1)n1ccnc1
REMARK SMILES IDX 1 1 2 2 3 3 4 4 5 5 6 6 7 7 8 8 9 9 10 10 14 11 11 12 13 13
REMARK SMILES IDX 12 14 15 15 16 16 20 17 17 18 19 19 18 20 21 21 22 22 25 23
REMARK SMILES IDX 23 24 24 25
REMARK H PARENT
ROOT
ATOM      1  Cl  UNL     1      40.673  16.416  62.977  1.00  0.00    -0.084 Cl
ATOM      2  C   UNL     1      41.326  15.397  61.714  1.00  0.00     0.047 A 
ATOM      3  C   UNL     1      42.648  15.016  61.706  1.00  0.00     0.021 A 
ATOM      4  C   UNL     1      43.159  14.187  60.731  1.00  0.00     0.002 A 
ATOM      5  C   UNL     1      42.305  13.742  59.752  1.00  0.00     0.001 A 
ATOM      6  C   UNL     1      40.959  14.130  59.761  1.00  0.00     0.008 A 
ATOM      7  C   UNL     1      40.462  14.950  60.727  1.00  0.00     0.006 A 
ENDROOT
BRANCH   7   8
ATOM      8  C   UNL     1      39.035  15.369  60.701  1.00  0.00     0.123 C 
BRANCH   8   9
ATOM      9  C   UNL     1      38.352  14.732  61.863  1.00  0.00    -0.013 A 
ATOM     10  C   UNL     1      38.834  13.699  62.598  1.00  0.00     0.007 A 
ATOM     11  C   UNL     1      37.106  15.296  62.196  1.00  0.00     0.007 A 
ATOM     12  C   UNL     1      38.092  13.220  63.663  1.00  0.00     0.000 A 
ATOM     13  C   UNL     1      36.378  14.815  63.253  1.00  0.00     0.000 A 
ATOM     14  C   UNL     1      36.857  13.769  64.005  1.00  0.00     0.000 A 
ENDBRANCH   8   9
BRANCH   8  15
ATOM     15  C   UNL     1      38.328  14.807  59.519  1.00  0.00    -0.013 A 
ATOM     16  C   UNL     1      37.430  13.776  59.599  1.00  0.00     0.007 A 
ATOM     17  C   UNL     1      38.567  15.364  58.288  1.00  0.00     0.007 A 
ATOM     18  C   UNL     1      36.766  13.286  58.480  1.00  0.00     0.000 A 
ATOM     19  C   UNL     1      37.908  14.885  57.143  1.00  0.00     0.000 A 
ATOM     20  C   UNL     1      37.017  13.853  57.254  1.00  0.00     0.000 A 
ENDBRANCH   8  15
BRANCH   8  21
ATOM     21  N   UNL     1      38.940  16.799  60.684  1.00  0.00    -0.319 N 
ATOM     22  C   UNL     1      38.071  17.550  61.416  1.00  0.00     0.109 A 
ATOM     23  C   UNL     1      39.687  17.648  59.979  1.00  0.00     0.200 A 
ATOM     24  C   UNL     1      38.294  18.882  61.148  1.00  0.00     0.131 A 
ATOM     25  N   UNL     1      39.287  18.915  60.266  1.00  0.00    -0.245 NA
ENDBRANCH   8  21
ENDBRANCH   7   8
TORSDOF 4
ENDMDL
MODEL 8
REMARK VINA RESULT:      -4.5      1.496      4.386
REMARK SMILES Clc1ccccc1C(c1ccccc1)(c1ccccc1)n1ccnc1
REMARK SMILES IDX 1 1 2 2 3 3 4 4 5 5 6 6 7 7 8 8 9 9 10 10 14 11 11 12 13 13
REMARK SMILES IDX 12 14 15 15 16 16 20 17 17 18 19 19 18 20 21 21 22 22 25 23
REMARK SMILES IDX 23 24 24 25
REMARK H PARENT
ROOT
ATOM      1  Cl  UNL     1      28.992   6.604  53.624  1.00  0.00    -0.084 Cl
ATOM      2  C   UNL     1      28.651   7.796  54.858  1.00  0.00     0.047 A 
ATOM      3  C   UNL     1      27.653   8.731  54.702  1.00  0.00     0.021 A 
ATOM      4  C   UNL     1      27.360   9.650  55.686  1.00  0.00     0.002 A 
ATOM      5  C   UNL     1      28.098   9.613  56.843  1.00  0.00     0.001 A 
ATOM      6  C   UNL     1      29.114   8.662  57.001  1.00  0.00     0.008 A 
ATOM      7  C   UNL     1      29.398   7.757  56.025  1.00  0.00     0.006 A 
ENDROOT
BRANCH   7   8
ATOM      8  C   UNL     1      30.499   6.772  56.205  1.00  0.00     0.123 C 
BRANCH   8   9
ATOM      9  C   UNL     1      31.126   7.027  57.533  1.00  0.00    -0.013 A 
ATOM     10  C   UNL     1      30.970   6.263  58.643  1.00  0.00     0.007 A 
ATOM     11  C   UNL     1      31.955   8.163  57.586  1.00  0.00     0.007 A 
ATOM     12  C   UNL     1      31.629   6.615  59.808  1.00  0.00     0.000 A 
ATOM     13  C   UNL     1      32.606   8.504  58.744  1.00  0.00     0.000 A 
ATOM     14  C   UNL     1      32.455   7.737  59.874  1.00  0.00     0.000 A 
ENDBRANCH   8   9
BRANCH   8  15
ATOM     15  C   UNL     1      31.603   7.013  55.238  1.00  0.00    -0.013 A 
ATOM     16  C   UNL     1      31.578   8.011  54.300  1.00  0.00     0.007 A 
ATOM     17  C   UNL     1      32.715   6.212  55.301  1.00  0.00     0.007 A 
ATOM     18  C   UNL     1      32.635   8.228  53.423  1.00  0.00     0.000 A 
ATOM     19  C   UNL     1      33.795   6.412  54.425  1.00  0.00     0.000 A 
ATOM     20  C   UNL     1      33.741   7.416  53.499  1.00  0.00     0.000 A 
ENDBRANCH   8  15
BRANCH   8  21
ATOM     21  N   UNL     1      29.999   5.439  56.044  1.00  0.00    -0.319 N 
ATOM     22  C   UNL     1      28.819   4.965  56.530  1.00  0.00     0.109 A 
ATOM     23  C   UNL     1      30.575   4.437  55.381  1.00  0.00     0.200 A 
ATOM     24  C   UNL     1      28.676   3.647  56.156  1.00  0.00     0.131 A 
ATOM     25  N   UNL     1      29.763   3.349  55.454  1.00  0.00    -0.245 NA
ENDBRANCH   8  21
ENDBRANCH   7   8
TORSDOF 4
ENDMDL
MODEL 9
REMARK VINA RESULT:      -4.5     10.086     12.719
REMARK SMILES Clc1ccccc1C(c1ccccc1)(c1ccccc1)n1ccnc1
REMARK SMILES IDX 1 1 2 2 3 3 4 4 5 5 6 6 7 7 8 8 9 9 10 10 14 11 11 12 13 13
REMARK SMILES IDX 12 14 15 15 16 16 20 17 17 18 19 19 18 20 21 21 22 22 25 23
REMARK SMILES IDX 23 24 24 25
REMARK H PARENT
ROOT
ATOM      1  Cl  UNL     1      40.192  16.706  62.572  1.00  0.00    -0.084 Cl
ATOM      2  C   UNL     1      39.670  17.352  61.033  1.00  0.00     0.047 A 
ATOM      3  C   UNL     1      39.693  18.702  60.772  1.00  0.00     0.021 A 
ATOM      4  C   UNL     1      39.314  19.212  59.549  1.00  0.00     0.002 A 
ATOM      5  C   UNL     1      38.905  18.327  58.581  1.00  0.00     0.001 A 
ATOM      6  C   UNL     1      38.882  16.952  58.848  1.00  0.00     0.008 A 
ATOM      7  C   UNL     1      39.257  16.457  60.058  1.00  0.00     0.006 A 
ENDROOT
BRANCH   7   8
ATOM      8  C   UNL     1      39.199  14.994  60.327  1.00  0.00     0.123 C 
BRANCH   8   9
ATOM      9  C   UNL     1      38.437  14.356  59.216  1.00  0.00    -0.013 A 
ATOM     10  C   UNL     1      37.139  13.968  59.265  1.00  0.00     0.007 A 
ATOM     11  C   UNL     1      39.169  14.175  58.027  1.00  0.00     0.007 A 
ATOM     12  C   UNL     1      36.557  13.401  58.145  1.00  0.00     0.000 A 
ATOM     13  C   UNL     1      38.584  13.614  56.922  1.00  0.00     0.000 A 
ATOM     14  C   UNL     1      37.269  13.216  56.961  1.00  0.00     0.000 A 
ENDBRANCH   8   9
BRANCH   8  15
ATOM     15  C   UNL     1      38.384  14.698  61.535  1.00  0.00    -0.013 A 
ATOM     16  C   UNL     1      37.215  15.348  61.833  1.00  0.00     0.007 A 
ATOM     17  C   UNL     1      38.807  13.708  62.385  1.00  0.00     0.007 A 
ATOM     18  C   UNL     1      36.461  15.035  62.957  1.00  0.00     0.000 A 
ATOM     19  C   UNL     1      38.062  13.374  63.528  1.00  0.00     0.000 A 
ATOM     20  C   UNL     1      36.900  14.041  63.799  1.00  0.00     0.000 A 
ENDBRANCH   8  15
BRANCH   8  21
ATOM     21  N   UNL     1      40.523  14.472  60.499  1.00  0.00    -0.319 N 
ATOM     22  C   UNL     1      41.683  15.131  60.227  1.00  0.00     0.109 A 
ATOM     23  C   UNL     1      40.861  13.272  60.971  1.00  0.00     0.200 A 
ATOM     24  C   UNL     1      42.747  14.314  60.538  1.00  0.00     0.131 A 
ATOM     25  N   UNL     1      42.217  13.184  60.991  1.00  0.00    -0.245 NA
ENDBRANCH   8  21
ENDBRANCH   7   8
TORSDOF 4
ENDMDL
