MODEL 1
REMARK VINA RESULT:      -9.3      0.000      0.000
REMARK SMILES COC(=O)c1cn(C[C@H](CC2Cc3ccccc3C2)[C@H](O)c2cc(OC)c(C)c(OC)c2)cc1CC(=O)[O-]
REMARK SMILES IDX 8 1 7 2 5 3 34 4 6 5 33 6 3 7 4 8 2 9 1 10 35 11 36 12 37 13
REMARK SMILES IDX 38 14 9 15 20 16 21 17 22 19 32 20 23 21 29 22 24 23 27 24
REMARK SMILES IDX 28 25 30 26 31 27 25 28 26 29 10 30 11 31 12 32 19 33 13 34
REMARK SMILES IDX 18 35 14 36 17 37 15 38 16 39
REMARK H PARENT 21 18
REMARK INDEX MAP 14 1 13 2 5 3 6 4 12 5 11 6 2 7 1 8 3 9 4 10 7 11 8 12 9 13
REMARK INDEX MAP 10 14 15 15 16 16 17 17 50 18 18 19 19 20 20 21 26 22 21 23
REMARK INDEX MAP 24 24 25 25 27 26 28 27 22 28 23 29 29 30 30 31 31 32 38 33
REMARK INDEX MAP 32 34 37 35 33 36 36 37 34 38 35 39
ROOT
ATOM      1  C   UNL     1     140.496 133.711 166.733  1.00  0.00     0.128 C 
ENDROOT
BRANCH   1   2
ATOM      2  N   UNL     1     139.067 133.741 167.020  1.00  0.00    -0.353 N 
ATOM      3  C   UNL     1     136.991 134.520 167.230  1.00  0.00     0.081 A 
ATOM      4  C   UNL     1     137.021 133.196 167.801  1.00  0.00    -0.010 A 
ATOM      5  C   UNL     1     138.255 134.819 166.757  1.00  0.00     0.101 A 
ATOM      6  C   UNL     1     138.322 132.743 167.650  1.00  0.00     0.090 A 
BRANCH   3   7
ATOM      7  C   UNL     1     135.893 135.453 167.106  1.00  0.00     0.339 C 
ATOM      8  O   UNL     1     134.721 135.311 167.467  1.00  0.00    -0.246 OA
BRANCH   7   9
ATOM      9  O   UNL     1     136.337 136.634 166.534  1.00  0.00    -0.465 OA
ATOM     10  C   UNL     1     135.440 137.627 166.118  1.00  0.00     0.282 C 
ENDBRANCH   7   9
ENDBRANCH   3   7
BRANCH   4  11
ATOM     11  C   UNL     1     135.924 132.421 168.432  1.00  0.00     0.090 C 
BRANCH  11  12
ATOM     12  C   UNL     1     136.374 131.580 169.694  1.00  0.00     0.046 C 
ATOM     13  O   UNL     1     136.491 132.219 170.766  1.00  0.00    -0.550 OA
ATOM     14  O   UNL     1     136.575 130.342 169.564  1.00  0.00    -0.550 OA
ENDBRANCH  11  12
ENDBRANCH   4  11
ENDBRANCH   1   2
BRANCH   1  15
ATOM     15  C   UNL     1     140.941 133.395 165.278  1.00  0.00     0.042 C 
BRANCH  15  16
ATOM     16  C   UNL     1     139.943 132.427 164.492  1.00  0.00     0.149 C 
BRANCH  16  17
ATOM     17  O   UNL     1     139.537 131.338 165.290  1.00  0.00    -0.388 OA
ATOM     18  H   UNL     1     139.071 131.668 166.074  1.00  0.00     0.211 HD
ENDBRANCH  16  17
BRANCH  16  19
ATOM     19  C   UNL     1     140.595 131.864 163.239  1.00  0.00    -0.012 A 
ATOM     20  C   UNL     1     140.286 132.465 162.009  1.00  0.00     0.053 A 
ATOM     21  C   UNL     1     141.483 130.783 163.304  1.00  0.00     0.053 A 
ATOM     22  C   UNL     1     140.888 131.992 160.826  1.00  0.00     0.125 A 
ATOM     23  C   UNL     1     142.073 130.293 162.118  1.00  0.00     0.125 A 
ATOM     24  C   UNL     1     141.800 130.878 160.848  1.00  0.00     0.033 A 
ATOM     25  C   UNL     1     142.440 130.371 159.605  1.00  0.00     0.052 C 
BRANCH  22  26
ATOM     26  O   UNL     1     140.648 132.558 159.579  1.00  0.00    -0.496 OA
ATOM     27  C   UNL     1     140.272 133.902 159.479  1.00  0.00     0.278 C 
ENDBRANCH  22  26
BRANCH  23  28
ATOM     28  O   UNL     1     142.963 129.228 162.164  1.00  0.00    -0.496 OA
ATOM     29  C   UNL     1     142.400 127.922 162.340  1.00  0.00     0.278 C 
ENDBRANCH  23  28
ENDBRANCH  16  19
ENDBRANCH  15  16
BRANCH  15  30
ATOM     30  C   UNL     1     141.247 134.674 164.456  1.00  0.00     0.012 C 
BRANCH  30  31
ATOM     31  C   UNL     1     142.735 135.104 164.311  1.00  0.00    -0.002 C 
ATOM     32  C   UNL     1     143.629 134.101 163.513  1.00  0.00     0.039 C 
ATOM     33  C   UNL     1     142.771 136.379 163.431  1.00  0.00     0.039 C 
ATOM     34  C   UNL     1     143.550 134.569 162.099  1.00  0.00    -0.045 A 
ATOM     35  C   UNL     1     142.971 135.849 162.046  1.00  0.00    -0.045 A 
ATOM     36  C   UNL     1     143.900 133.890 160.931  1.00  0.00     0.004 A 
ATOM     37  C   UNL     1     142.691 136.456 160.812  1.00  0.00     0.004 A 
ATOM     38  C   UNL     1     143.641 134.497 159.681  1.00  0.00     0.000 A 
ATOM     39  C   UNL     1     143.039 135.757 159.619  1.00  0.00     0.000 A 
ENDBRANCH  30  31
ENDBRANCH  15  30
ENDBRANCH   1  15
TORSDOF 13
ENDMDL
MODEL 2
REMARK VINA RESULT:      -9.3      0.659      2.069
REMARK SMILES COC(=O)c1cn(C[C@H](CC2Cc3ccccc3C2)[C@H](O)c2cc(OC)c(C)c(OC)c2)cc1CC(=O)[O-]
REMARK SMILES IDX 8 1 7 2 5 3 34 4 6 5 33 6 3 7 4 8 2 9 1 10 35 11 36 12 37 13
REMARK SMILES IDX 38 14 9 15 20 16 21 17 22 19 32 20 23 21 29 22 24 23 27 24
REMARK SMILES IDX 28 25 30 26 31 27 25 28 26 29 10 30 11 31 12 32 19 33 13 34
REMARK SMILES IDX 18 35 14 36 17 37 15 38 16 39
REMARK H PARENT 21 18
REMARK INDEX MAP 14 1 13 2 5 3 6 4 12 5 11 6 2 7 1 8 3 9 4 10 7 11 8 12 9 13
REMARK INDEX MAP 10 14 15 15 16 16 17 17 50 18 18 19 19 20 20 21 26 22 21 23
REMARK INDEX MAP 24 24 25 25 27 26 28 27 22 28 23 29 29 30 30 31 31 32 38 33
REMARK INDEX MAP 32 34 37 35 33 36 36 37 34 38 35 39
ROOT
ATOM      1  C   UNL     1     140.756 133.631 166.635  1.00  0.00     0.128 C 
ENDROOT
BRANCH   1   2
ATOM      2  N   UNL     1     139.331 133.646 166.937  1.00  0.00    -0.353 N 
ATOM      3  C   UNL     1     137.276 134.427 167.305  1.00  0.00     0.081 A 
ATOM      4  C   UNL     1     137.275 133.022 167.629  1.00  0.00    -0.010 A 
ATOM      5  C   UNL     1     138.546 134.774 166.881  1.00  0.00     0.101 A 
ATOM      6  C   UNL     1     138.562 132.570 167.386  1.00  0.00     0.090 A 
BRANCH   3   7
ATOM      7  C   UNL     1     136.203 135.394 167.361  1.00  0.00     0.339 C 
ATOM      8  O   UNL     1     135.212 135.398 168.097  1.00  0.00    -0.246 OA
BRANCH   7   9
ATOM      9  O   UNL     1     136.443 136.421 166.462  1.00  0.00    -0.465 OA
ATOM     10  C   UNL     1     135.461 137.376 166.164  1.00  0.00     0.282 C 
ENDBRANCH   7   9
ENDBRANCH   3   7
BRANCH   4  11
ATOM     11  C   UNL     1     136.161 132.174 168.122  1.00  0.00     0.090 C 
BRANCH  11  12
ATOM     12  C   UNL     1     136.604 131.071 169.165  1.00  0.00     0.046 C 
ATOM     13  O   UNL     1     136.773 131.466 170.342  1.00  0.00    -0.550 OA
ATOM     14  O   UNL     1     136.751 129.882 168.773  1.00  0.00    -0.550 OA
ENDBRANCH  11  12
ENDBRANCH   4  11
ENDBRANCH   1   2
BRANCH   1  15
ATOM     15  C   UNL     1     141.208 133.024 165.278  1.00  0.00     0.042 C 
BRANCH  15  16
ATOM     16  C   UNL     1     140.281 131.828 164.765  1.00  0.00     0.149 C 
BRANCH  16  17
ATOM     17  O   UNL     1     140.384 130.695 165.596  1.00  0.00    -0.388 OA
ATOM     18  H   UNL     1     139.543 130.212 165.589  1.00  0.00     0.211 HD
ENDBRANCH  16  17
BRANCH  16  19
ATOM     19  C   UNL     1     140.661 131.404 163.355  1.00  0.00    -0.012 A 
ATOM     20  C   UNL     1     141.577 130.352 163.207  1.00  0.00     0.053 A 
ATOM     21  C   UNL     1     140.111 132.037 162.232  1.00  0.00     0.053 A 
ATOM     22  C   UNL     1     141.937 129.910 161.919  1.00  0.00     0.125 A 
ATOM     23  C   UNL     1     140.485 131.611 160.938  1.00  0.00     0.125 A 
ATOM     24  C   UNL     1     141.402 130.539 160.738  1.00  0.00     0.033 A 
ATOM     25  C   UNL     1     141.776 130.080 159.374  1.00  0.00     0.052 C 
BRANCH  22  26
ATOM     26  O   UNL     1     142.817 128.856 161.701  1.00  0.00    -0.496 OA
ATOM     27  C   UNL     1     144.081 129.100 161.152  1.00  0.00     0.278 C 
ENDBRANCH  22  26
BRANCH  23  28
ATOM     28  O   UNL     1     139.943 132.219 159.814  1.00  0.00    -0.496 OA
ATOM     29  C   UNL     1     140.531 133.461 159.404  1.00  0.00     0.278 C 
ENDBRANCH  23  28
ENDBRANCH  16  19
ENDBRANCH  15  16
BRANCH  15  30
ATOM     30  C   UNL     1     141.401 134.098 164.176  1.00  0.00     0.012 C 
BRANCH  30  31
ATOM     31  C   UNL     1     142.784 134.806 164.089  1.00  0.00    -0.002 C 
ATOM     32  C   UNL     1     143.845 134.059 163.219  1.00  0.00     0.039 C 
ATOM     33  C   UNL     1     142.580 136.138 163.324  1.00  0.00     0.039 C 
ATOM     34  C   UNL     1     143.676 134.626 161.849  1.00  0.00    -0.045 A 
ATOM     35  C   UNL     1     142.870 135.778 161.901  1.00  0.00    -0.045 A 
ATOM     36  C   UNL     1     144.143 134.129 160.632  1.00  0.00     0.004 A 
ATOM     37  C   UNL     1     142.480 136.428 160.720  1.00  0.00     0.004 A 
ATOM     38  C   UNL     1     143.771 134.785 159.436  1.00  0.00     0.000 A 
ATOM     39  C   UNL     1     142.947 135.914 159.476  1.00  0.00     0.000 A 
ENDBRANCH  30  31
ENDBRANCH  15  30
ENDBRANCH   1  15
TORSDOF 13
ENDMDL
MODEL 3
REMARK VINA RESULT:      -9.3      0.833      1.051
REMARK SMILES COC(=O)c1cn(C[C@H](CC2Cc3ccccc3C2)[C@H](O)c2cc(OC)c(C)c(OC)c2)cc1CC(=O)[O-]
REMARK SMILES IDX 8 1 7 2 5 3 34 4 6 5 33 6 3 7 4 8 2 9 1 10 35 11 36 12 37 13
REMARK SMILES IDX 38 14 9 15 20 16 21 17 22 19 32 20 23 21 29 22 24 23 27 24
REMARK SMILES IDX 28 25 30 26 31 27 25 28 26 29 10 30 11 31 12 32 19 33 13 34
REMARK SMILES IDX 18 35 14 36 17 37 15 38 16 39
REMARK H PARENT 21 18
REMARK INDEX MAP 14 1 13 2 5 3 6 4 12 5 11 6 2 7 1 8 3 9 4 10 7 11 8 12 9 13
REMARK INDEX MAP 10 14 15 15 16 16 17 17 50 18 18 19 19 20 20 21 26 22 21 23
REMARK INDEX MAP 24 24 25 25 27 26 28 27 22 28 23 29 29 30 30 31 31 32 38 33
REMARK INDEX MAP 32 34 37 35 33 36 36 37 34 38 35 39
ROOT
ATOM      1  C   UNL     1     140.438 133.222 166.556  1.00  0.00     0.128 C 
ENDROOT
BRANCH   1   2
ATOM      2  N   UNL     1     139.059 133.527 166.915  1.00  0.00    -0.353 N 
ATOM      3  C   UNL     1     137.177 134.686 167.199  1.00  0.00     0.081 A 
ATOM      4  C   UNL     1     136.996 133.399 167.822  1.00  0.00    -0.010 A 
ATOM      5  C   UNL     1     138.446 134.729 166.650  1.00  0.00     0.101 A 
ATOM      6  C   UNL     1     138.180 132.706 167.623  1.00  0.00     0.090 A 
BRANCH   3   7
ATOM      7  C   UNL     1     136.265 135.803 167.094  1.00  0.00     0.339 C 
ATOM      8  O   UNL     1     136.293 136.744 166.296  1.00  0.00    -0.246 OA
BRANCH   7   9
ATOM      9  O   UNL     1     135.250 135.675 168.028  1.00  0.00    -0.465 OA
ATOM     10  C   UNL     1     134.165 136.562 168.055  1.00  0.00     0.282 C 
ENDBRANCH   7   9
ENDBRANCH   3   7
BRANCH   4  11
ATOM     11  C   UNL     1     135.813 132.862 168.541  1.00  0.00     0.090 C 
BRANCH  11  12
ATOM     12  C   UNL     1     136.000 132.768 170.108  1.00  0.00     0.046 C 
ATOM     13  O   UNL     1     136.637 133.707 170.642  1.00  0.00    -0.550 OA
ATOM     14  O   UNL     1     135.505 131.788 170.726  1.00  0.00    -0.550 OA
ENDBRANCH  11  12
ENDBRANCH   4  11
ENDBRANCH   1   2
BRANCH   1  15
ATOM     15  C   UNL     1     140.823 133.250 165.051  1.00  0.00     0.042 C 
BRANCH  15  16
ATOM     16  C   UNL     1     139.764 132.528 164.099  1.00  0.00     0.149 C 
BRANCH  16  17
ATOM     17  O   UNL     1     138.978 131.596 164.806  1.00  0.00    -0.388 OA
ATOM     18  H   UNL     1     138.726 130.870 164.213  1.00  0.00     0.211 HD
ENDBRANCH  16  17
BRANCH  16  19
ATOM     19  C   UNL     1     140.458 131.785 162.968  1.00  0.00    -0.012 A 
ATOM     20  C   UNL     1     140.084 132.092 161.650  1.00  0.00     0.053 A 
ATOM     21  C   UNL     1     141.446 130.826 163.227  1.00  0.00     0.053 A 
ATOM     22  C   UNL     1     140.720 131.446 160.572  1.00  0.00     0.125 A 
ATOM     23  C   UNL     1     142.072 130.161 162.148  1.00  0.00     0.125 A 
ATOM     24  C   UNL     1     141.735 130.448 160.794  1.00  0.00     0.033 A 
ATOM     25  C   UNL     1     142.412 129.760 159.662  1.00  0.00     0.052 C 
BRANCH  22  26
ATOM     26  O   UNL     1     140.419 131.722 159.243  1.00  0.00    -0.496 OA
ATOM     27  C   UNL     1     139.709 130.791 158.477  1.00  0.00     0.278 C 
ENDBRANCH  22  26
BRANCH  23  28
ATOM     28  O   UNL     1     143.060 129.215 162.385  1.00  0.00    -0.496 OA
ATOM     29  C   UNL     1     142.651 127.841 162.392  1.00  0.00     0.278 C 
ENDBRANCH  23  28
ENDBRANCH  16  19
ENDBRANCH  15  16
BRANCH  15  30
ATOM     30  C   UNL     1     141.152 134.679 164.545  1.00  0.00     0.012 C 
BRANCH  30  31
ATOM     31  C   UNL     1     142.645 135.029 164.281  1.00  0.00    -0.002 C 
ATOM     32  C   UNL     1     143.442 133.936 163.500  1.00  0.00     0.039 C 
ATOM     33  C   UNL     1     142.678 136.241 163.317  1.00  0.00     0.039 C 
ATOM     34  C   UNL     1     143.294 134.314 162.064  1.00  0.00    -0.045 A 
ATOM     35  C   UNL     1     142.767 135.615 161.961  1.00  0.00    -0.045 A 
ATOM     36  C   UNL     1     143.540 133.546 160.926  1.00  0.00     0.004 A 
ATOM     37  C   UNL     1     142.435 136.152 160.708  1.00  0.00     0.004 A 
ATOM     38  C   UNL     1     143.227 134.082 159.656  1.00  0.00     0.000 A 
ATOM     39  C   UNL     1     142.677 135.363 159.546  1.00  0.00     0.000 A 
ENDBRANCH  30  31
ENDBRANCH  15  30
ENDBRANCH   1  15
TORSDOF 13
ENDMDL
MODEL 4
REMARK VINA RESULT:      -9.2      0.684      2.128
REMARK SMILES COC(=O)c1cn(C[C@H](CC2Cc3ccccc3C2)[C@H](O)c2cc(OC)c(C)c(OC)c2)cc1CC(=O)[O-]
REMARK SMILES IDX 8 1 7 2 5 3 34 4 6 5 33 6 3 7 4 8 2 9 1 10 35 11 36 12 37 13
REMARK SMILES IDX 38 14 9 15 20 16 21 17 22 19 32 20 23 21 29 22 24 23 27 24
REMARK SMILES IDX 28 25 30 26 31 27 25 28 26 29 10 30 11 31 12 32 19 33 13 34
REMARK SMILES IDX 18 35 14 36 17 37 15 38 16 39
REMARK H PARENT 21 18
REMARK INDEX MAP 14 1 13 2 5 3 6 4 12 5 11 6 2 7 1 8 3 9 4 10 7 11 8 12 9 13
REMARK INDEX MAP 10 14 15 15 16 16 17 17 50 18 18 19 19 20 20 21 26 22 21 23
REMARK INDEX MAP 24 24 25 25 27 26 28 27 22 28 23 29 29 30 30 31 31 32 38 33
REMARK INDEX MAP 32 34 37 35 33 36 36 37 34 38 35 39
ROOT
ATOM      1  C   UNL     1     140.517 133.366 166.645  1.00  0.00     0.128 C 
ENDROOT
BRANCH   1   2
ATOM      2  N   UNL     1     139.130 133.642 166.998  1.00  0.00    -0.353 N 
ATOM      3  C   UNL     1     137.215 134.753 167.248  1.00  0.00     0.081 A 
ATOM      4  C   UNL     1     137.074 133.483 167.917  1.00  0.00    -0.010 A 
ATOM      5  C   UNL     1     138.480 134.815 166.694  1.00  0.00     0.101 A 
ATOM      6  C   UNL     1     138.278 132.820 167.738  1.00  0.00     0.090 A 
BRANCH   3   7
ATOM      7  C   UNL     1     136.268 135.837 167.107  1.00  0.00     0.339 C 
ATOM      8  O   UNL     1     136.274 136.758 166.286  1.00  0.00    -0.246 OA
BRANCH   7   9
ATOM      9  O   UNL     1     135.249 135.700 168.036  1.00  0.00    -0.465 OA
ATOM     10  C   UNL     1     134.143 136.560 168.039  1.00  0.00     0.282 C 
ENDBRANCH   7   9
ENDBRANCH   3   7
BRANCH   4  11
ATOM     11  C   UNL     1     135.910 132.936 168.658  1.00  0.00     0.090 C 
BRANCH  11  12
ATOM     12  C   UNL     1     136.298 131.917 169.803  1.00  0.00     0.046 C 
ATOM     13  O   UNL     1     136.393 132.398 170.957  1.00  0.00    -0.550 OA
ATOM     14  O   UNL     1     136.475 130.704 169.509  1.00  0.00    -0.550 OA
ENDBRANCH  11  12
ENDBRANCH   4  11
ENDBRANCH   1   2
BRANCH   1  15
ATOM     15  C   UNL     1     140.886 133.296 165.137  1.00  0.00     0.042 C 
BRANCH  15  16
ATOM     16  C   UNL     1     139.815 132.515 164.246  1.00  0.00     0.149 C 
BRANCH  16  17
ATOM     17  O   UNL     1     139.159 131.508 164.982  1.00  0.00    -0.388 OA
ATOM     18  H   UNL     1     138.202 131.575 164.839  1.00  0.00     0.211 HD
ENDBRANCH  16  17
BRANCH  16  19
ATOM     19  C   UNL     1     140.477 131.853 163.047  1.00  0.00    -0.012 A 
ATOM     20  C   UNL     1     141.427 130.849 163.289  1.00  0.00     0.053 A 
ATOM     21  C   UNL     1     140.147 132.226 161.737  1.00  0.00     0.053 A 
ATOM     22  C   UNL     1     142.045 130.193 162.206  1.00  0.00     0.125 A 
ATOM     23  C   UNL     1     140.780 131.584 160.649  1.00  0.00     0.125 A 
ATOM     24  C   UNL     1     141.741 130.551 160.845  1.00  0.00     0.033 A 
ATOM     25  C   UNL     1     142.388 129.864 159.695  1.00  0.00     0.052 C 
BRANCH  22  26
ATOM     26  O   UNL     1     142.974 129.171 162.373  1.00  0.00    -0.496 OA
ATOM     27  C   UNL     1     142.543 127.877 162.687  1.00  0.00     0.278 C 
ENDBRANCH  22  26
BRANCH  23  28
ATOM     28  O   UNL     1     140.459 131.934 159.344  1.00  0.00    -0.496 OA
ATOM     29  C   UNL     1     139.798 130.938 158.552  1.00  0.00     0.278 C 
ENDBRANCH  23  28
ENDBRANCH  16  19
ENDBRANCH  15  16
BRANCH  15  30
ATOM     30  C   UNL     1     141.209 134.688 164.536  1.00  0.00     0.012 C 
BRANCH  30  31
ATOM     31  C   UNL     1     142.703 135.035 164.272  1.00  0.00    -0.002 C 
ATOM     32  C   UNL     1     143.495 133.945 163.481  1.00  0.00     0.039 C 
ATOM     33  C   UNL     1     142.739 136.255 163.317  1.00  0.00     0.039 C 
ATOM     34  C   UNL     1     143.345 134.335 162.049  1.00  0.00    -0.045 A 
ATOM     35  C   UNL     1     142.823 135.638 161.957  1.00  0.00    -0.045 A 
ATOM     36  C   UNL     1     143.586 133.575 160.904  1.00  0.00     0.004 A 
ATOM     37  C   UNL     1     142.492 136.187 160.709  1.00  0.00     0.004 A 
ATOM     38  C   UNL     1     143.273 134.123 159.639  1.00  0.00     0.000 A 
ATOM     39  C   UNL     1     142.728 135.406 159.540  1.00  0.00     0.000 A 
ENDBRANCH  30  31
ENDBRANCH  15  30
ENDBRANCH   1  15
TORSDOF 13
ENDMDL
MODEL 5
REMARK VINA RESULT:      -9.1      1.077      1.138
REMARK SMILES COC(=O)c1cn(C[C@H](CC2Cc3ccccc3C2)[C@H](O)c2cc(OC)c(C)c(OC)c2)cc1CC(=O)[O-]
REMARK SMILES IDX 8 1 7 2 5 3 34 4 6 5 33 6 3 7 4 8 2 9 1 10 35 11 36 12 37 13
REMARK SMILES IDX 38 14 9 15 20 16 21 17 22 19 32 20 23 21 29 22 24 23 27 24
REMARK SMILES IDX 28 25 30 26 31 27 25 28 26 29 10 30 11 31 12 32 19 33 13 34
REMARK SMILES IDX 18 35 14 36 17 37 15 38 16 39
REMARK H PARENT 21 18
REMARK INDEX MAP 14 1 13 2 5 3 6 4 12 5 11 6 2 7 1 8 3 9 4 10 7 11 8 12 9 13
REMARK INDEX MAP 10 14 15 15 16 16 17 17 50 18 18 19 19 20 20 21 26 22 21 23
REMARK INDEX MAP 24 24 25 25 27 26 28 27 22 28 23 29 29 30 30 31 31 32 38 33
REMARK INDEX MAP 32 34 37 35 33 36 36 37 34 38 35 39
ROOT
ATOM      1  C   UNL     1     140.078 134.660 165.772  1.00  0.00     0.128 C 
ENDROOT
BRANCH   1   2
ATOM      2  N   UNL     1     138.814 134.620 166.495  1.00  0.00    -0.353 N 
ATOM      3  C   UNL     1     136.812 135.243 167.248  1.00  0.00     0.081 A 
ATOM      4  C   UNL     1     137.195 134.050 167.962  1.00  0.00    -0.010 A 
ATOM      5  C   UNL     1     137.820 135.560 166.357  1.00  0.00     0.101 A 
ATOM      6  C   UNL     1     138.438 133.690 167.467  1.00  0.00     0.090 A 
BRANCH   3   7
ATOM      7  C   UNL     1     135.611 136.042 167.352  1.00  0.00     0.339 C 
ATOM      8  O   UNL     1     134.666 135.909 168.136  1.00  0.00    -0.246 OA
BRANCH   7   9
ATOM      9  O   UNL     1     135.653 137.081 166.436  1.00  0.00    -0.465 OA
ATOM     10  C   UNL     1     134.789 138.181 166.540  1.00  0.00     0.282 C 
ENDBRANCH   7   9
ENDBRANCH   3   7
BRANCH   4  11
ATOM     11  C   UNL     1     136.458 133.310 169.016  1.00  0.00     0.090 C 
BRANCH  11  12
ATOM     12  C   UNL     1     136.540 131.737 168.875  1.00  0.00     0.046 C 
ATOM     13  O   UNL     1     136.961 131.117 169.880  1.00  0.00    -0.550 OA
ATOM     14  O   UNL     1     136.179 131.200 167.793  1.00  0.00    -0.550 OA
ENDBRANCH  11  12
ENDBRANCH   4  11
ENDBRANCH   1   2
BRANCH   1  15
ATOM     15  C   UNL     1     140.579 133.349 165.106  1.00  0.00     0.042 C 
BRANCH  15  16
ATOM     16  C   UNL     1     139.664 132.847 163.897  1.00  0.00     0.149 C 
BRANCH  16  17
ATOM     17  O   UNL     1     138.558 132.103 164.355  1.00  0.00    -0.388 OA
ATOM     18  H   UNL     1     138.597 131.206 163.986  1.00  0.00     0.211 HD
ENDBRANCH  16  17
BRANCH  16  19
ATOM     19  C   UNL     1     140.451 131.965 162.940  1.00  0.00    -0.012 A 
ATOM     20  C   UNL     1     140.272 132.163 161.562  1.00  0.00     0.053 A 
ATOM     21  C   UNL     1     141.335 130.987 163.414  1.00  0.00     0.053 A 
ATOM     22  C   UNL     1     141.000 131.386 160.641  1.00  0.00     0.125 A 
ATOM     23  C   UNL     1     142.053 130.191 162.493  1.00  0.00     0.125 A 
ATOM     24  C   UNL     1     141.913 130.364 161.085  1.00  0.00     0.033 A 
ATOM     25  C   UNL     1     142.687 129.538 160.120  1.00  0.00     0.052 C 
BRANCH  22  26
ATOM     26  O   UNL     1     140.892 131.548 159.264  1.00  0.00    -0.496 OA
ATOM     27  C   UNL     1     139.945 130.813 158.544  1.00  0.00     0.278 C 
ENDBRANCH  22  26
BRANCH  23  28
ATOM     28  O   UNL     1     142.940 129.223 162.943  1.00  0.00    -0.496 OA
ATOM     29  C   UNL     1     142.374 128.085 163.606  1.00  0.00     0.278 C 
ENDBRANCH  23  28
ENDBRANCH  16  19
ENDBRANCH  15  16
BRANCH  15  30
ATOM     30  C   UNL     1     142.071 133.423 164.688  1.00  0.00     0.012 C 
BRANCH  30  31
ATOM     31  C   UNL     1     142.652 134.817 164.317  1.00  0.00    -0.002 C 
ATOM     32  C   UNL     1     143.942 134.772 163.436  1.00  0.00     0.039 C 
ATOM     33  C   UNL     1     141.625 135.523 163.396  1.00  0.00     0.039 C 
ATOM     34  C   UNL     1     143.441 134.814 162.032  1.00  0.00    -0.045 A 
ATOM     35  C   UNL     1     142.078 135.161 162.017  1.00  0.00    -0.045 A 
ATOM     36  C   UNL     1     144.117 134.504 160.851  1.00  0.00     0.004 A 
ATOM     37  C   UNL     1     141.355 135.159 160.814  1.00  0.00     0.004 A 
ATOM     38  C   UNL     1     143.405 134.516 159.630  1.00  0.00     0.000 A 
ATOM     39  C   UNL     1     142.043 134.832 159.609  1.00  0.00     0.000 A 
ENDBRANCH  30  31
ENDBRANCH  15  30
ENDBRANCH   1  15
TORSDOF 13
ENDMDL
MODEL 6
REMARK VINA RESULT:      -9.1      1.144      2.531
REMARK SMILES COC(=O)c1cn(C[C@H](CC2Cc3ccccc3C2)[C@H](O)c2cc(OC)c(C)c(OC)c2)cc1CC(=O)[O-]
REMARK SMILES IDX 8 1 7 2 5 3 34 4 6 5 33 6 3 7 4 8 2 9 1 10 35 11 36 12 37 13
REMARK SMILES IDX 38 14 9 15 20 16 21 17 22 19 32 20 23 21 29 22 24 23 27 24
REMARK SMILES IDX 28 25 30 26 31 27 25 28 26 29 10 30 11 31 12 32 19 33 13 34
REMARK SMILES IDX 18 35 14 36 17 37 15 38 16 39
REMARK H PARENT 21 18
REMARK INDEX MAP 14 1 13 2 5 3 6 4 12 5 11 6 2 7 1 8 3 9 4 10 7 11 8 12 9 13
REMARK INDEX MAP 10 14 15 15 16 16 17 17 50 18 18 19 19 20 20 21 26 22 21 23
REMARK INDEX MAP 24 24 25 25 27 26 28 27 22 28 23 29 29 30 30 31 31 32 38 33
REMARK INDEX MAP 32 34 37 35 33 36 36 37 34 38 35 39
ROOT
ATOM      1  C   UNL     1     140.537 132.417 166.207  1.00  0.00     0.128 C 
ENDROOT
BRANCH   1   2
ATOM      2  N   UNL     1     139.395 133.003 166.898  1.00  0.00    -0.353 N 
ATOM      3  C   UNL     1     137.573 133.159 168.171  1.00  0.00     0.081 A 
ATOM      4  C   UNL     1     137.760 134.431 167.518  1.00  0.00    -0.010 A 
ATOM      5  C   UNL     1     138.591 132.312 167.774  1.00  0.00     0.101 A 
ATOM      6  C   UNL     1     138.900 134.299 166.741  1.00  0.00     0.090 A 
BRANCH   3   7
ATOM      7  C   UNL     1     136.550 132.734 169.100  1.00  0.00     0.339 C 
ATOM      8  O   UNL     1     135.633 131.928 168.917  1.00  0.00    -0.246 OA
BRANCH   7   9
ATOM      9  O   UNL     1     136.746 133.343 170.330  1.00  0.00    -0.465 OA
ATOM     10  C   UNL     1     135.695 133.496 171.245  1.00  0.00     0.282 C 
ENDBRANCH   7   9
ENDBRANCH   3   7
BRANCH   4  11
ATOM     11  C   UNL     1     136.942 135.665 167.616  1.00  0.00     0.090 C 
BRANCH  11  12
ATOM     12  C   UNL     1     135.397 135.435 167.368  1.00  0.00     0.046 C 
ATOM     13  O   UNL     1     135.097 134.444 166.662  1.00  0.00    -0.550 OA
ATOM     14  O   UNL     1     134.569 136.231 167.887  1.00  0.00    -0.550 OA
ENDBRANCH  11  12
ENDBRANCH   4  11
ENDBRANCH   1   2
BRANCH   1  15
ATOM     15  C   UNL     1     140.863 132.927 164.776  1.00  0.00     0.042 C 
BRANCH  15  16
ATOM     16  C   UNL     1     139.831 132.431 163.663  1.00  0.00     0.149 C 
BRANCH  16  17
ATOM     17  O   UNL     1     138.747 131.732 164.231  1.00  0.00    -0.388 OA
ATOM     18  H   UNL     1     138.165 131.411 163.525  1.00  0.00     0.211 HD
ENDBRANCH  16  17
BRANCH  16  19
ATOM     19  C   UNL     1     140.505 131.506 162.661  1.00  0.00    -0.012 A 
ATOM     20  C   UNL     1     140.339 131.781 161.295  1.00  0.00     0.053 A 
ATOM     21  C   UNL     1     141.274 130.414 163.084  1.00  0.00     0.053 A 
ATOM     22  C   UNL     1     140.967 130.965 160.334  1.00  0.00     0.125 A 
ATOM     23  C   UNL     1     141.889 129.581 162.122  1.00  0.00     0.125 A 
ATOM     24  C   UNL     1     141.760 129.827 160.725  1.00  0.00     0.033 A 
ATOM     25  C   UNL     1     142.426 128.959 159.718  1.00  0.00     0.052 C 
BRANCH  22  26
ATOM     26  O   UNL     1     140.868 131.196 158.966  1.00  0.00    -0.496 OA
ATOM     27  C   UNL     1     139.727 130.786 158.267  1.00  0.00     0.278 C 
ENDBRANCH  22  26
BRANCH  23  28
ATOM     28  O   UNL     1     142.663 128.500 162.522  1.00  0.00    -0.496 OA
ATOM     29  C   UNL     1     142.438 127.997 163.845  1.00  0.00     0.278 C 
ENDBRANCH  23  28
ENDBRANCH  16  19
ENDBRANCH  15  16
BRANCH  15  30
ATOM     30  C   UNL     1     141.058 134.464 164.719  1.00  0.00     0.012 C 
BRANCH  30  31
ATOM     31  C   UNL     1     142.478 135.004 164.383  1.00  0.00    -0.002 C 
ATOM     32  C   UNL     1     143.404 133.985 163.644  1.00  0.00     0.039 C 
ATOM     33  C   UNL     1     142.313 136.142 163.344  1.00  0.00     0.039 C 
ATOM     34  C   UNL     1     143.167 134.242 162.194  1.00  0.00    -0.045 A 
ATOM     35  C   UNL     1     142.457 135.445 162.028  1.00  0.00    -0.045 A 
ATOM     36  C   UNL     1     143.492 133.442 161.098  1.00  0.00     0.004 A 
ATOM     37  C   UNL     1     142.021 135.846 160.756  1.00  0.00     0.004 A 
ATOM     38  C   UNL     1     143.074 133.843 159.809  1.00  0.00     0.000 A 
ATOM     39  C   UNL     1     142.344 135.023 159.638  1.00  0.00     0.000 A 
ENDBRANCH  30  31
ENDBRANCH  15  30
ENDBRANCH   1  15
TORSDOF 13
ENDMDL
MODEL 7
REMARK VINA RESULT:      -9.1      1.648      3.662
REMARK SMILES COC(=O)c1cn(C[C@H](CC2Cc3ccccc3C2)[C@H](O)c2cc(OC)c(C)c(OC)c2)cc1CC(=O)[O-]
REMARK SMILES IDX 8 1 7 2 5 3 34 4 6 5 33 6 3 7 4 8 2 9 1 10 35 11 36 12 37 13
REMARK SMILES IDX 38 14 9 15 20 16 21 17 22 19 32 20 23 21 29 22 24 23 27 24
REMARK SMILES IDX 28 25 30 26 31 27 25 28 26 29 10 30 11 31 12 32 19 33 13 34
REMARK SMILES IDX 18 35 14 36 17 37 15 38 16 39
REMARK H PARENT 21 18
REMARK INDEX MAP 14 1 13 2 5 3 6 4 12 5 11 6 2 7 1 8 3 9 4 10 7 11 8 12 9 13
REMARK INDEX MAP 10 14 15 15 16 16 17 17 50 18 18 19 19 20 20 21 26 22 21 23
REMARK INDEX MAP 24 24 25 25 27 26 28 27 22 28 23 29 29 30 30 31 31 32 38 33
REMARK INDEX MAP 32 34 37 35 33 36 36 37 34 38 35 39
ROOT
ATOM      1  C   UNL     1     140.117 133.347 166.038  1.00  0.00     0.128 C 
ENDROOT
BRANCH   1   2
ATOM      2  N   UNL     1     138.893 133.292 166.828  1.00  0.00    -0.353 N 
ATOM      3  C   UNL     1     137.015 133.953 167.828  1.00  0.00     0.081 A 
ATOM      4  C   UNL     1     137.295 132.609 168.268  1.00  0.00    -0.010 A 
ATOM      5  C   UNL     1     138.008 134.337 166.945  1.00  0.00     0.101 A 
ATOM      6  C   UNL     1     138.463 132.230 167.626  1.00  0.00     0.090 A 
BRANCH   3   7
ATOM      7  C   UNL     1     135.920 134.833 168.170  1.00  0.00     0.339 C 
ATOM      8  O   UNL     1     135.463 135.092 169.287  1.00  0.00    -0.246 OA
BRANCH   7   9
ATOM      9  O   UNL     1     135.423 135.436 167.026  1.00  0.00    -0.465 OA
ATOM     10  C   UNL     1     134.819 136.701 167.071  1.00  0.00     0.282 C 
ENDBRANCH   7   9
ENDBRANCH   3   7
BRANCH   4  11
ATOM     11  C   UNL     1     136.532 131.751 169.209  1.00  0.00     0.090 C 
BRANCH  11  12
ATOM     12  C   UNL     1     137.007 130.243 169.235  1.00  0.00     0.046 C 
ATOM     13  O   UNL     1     136.466 129.483 168.399  1.00  0.00    -0.550 OA
ATOM     14  O   UNL     1     137.889 129.894 170.066  1.00  0.00    -0.550 OA
ENDBRANCH  11  12
ENDBRANCH   4  11
ENDBRANCH   1   2
BRANCH   1  15
ATOM     15  C   UNL     1     140.387 132.195 165.030  1.00  0.00     0.042 C 
BRANCH  15  16
ATOM     16  C   UNL     1     139.678 132.396 163.614  1.00  0.00     0.149 C 
BRANCH  16  17
ATOM     17  O   UNL     1     138.935 131.260 163.237  1.00  0.00    -0.388 OA
ATOM     18  H   UNL     1     138.735 131.304 162.289  1.00  0.00     0.211 HD
ENDBRANCH  16  17
BRANCH  16  19
ATOM     19  C   UNL     1     140.700 132.664 162.520  1.00  0.00    -0.012 A 
ATOM     20  C   UNL     1     140.470 132.107 161.252  1.00  0.00     0.053 A 
ATOM     21  C   UNL     1     141.836 133.447 162.763  1.00  0.00     0.053 A 
ATOM     22  C   UNL     1     141.379 132.351 160.204  1.00  0.00     0.125 A 
ATOM     23  C   UNL     1     142.761 133.677 161.719  1.00  0.00     0.125 A 
ATOM     24  C   UNL     1     142.564 133.144 160.413  1.00  0.00     0.033 A 
ATOM     25  C   UNL     1     143.529 133.407 159.312  1.00  0.00     0.052 C 
BRANCH  22  26
ATOM     26  O   UNL     1     141.199 131.854 158.917  1.00  0.00    -0.496 OA
ATOM     27  C   UNL     1     140.284 130.821 158.687  1.00  0.00     0.278 C 
ENDBRANCH  22  26
BRANCH  23  28
ATOM     28  O   UNL     1     143.887 134.459 161.938  1.00  0.00    -0.496 OA
ATOM     29  C   UNL     1     144.034 135.029 163.245  1.00  0.00     0.278 C 
ENDBRANCH  23  28
ENDBRANCH  16  19
ENDBRANCH  15  16
BRANCH  15  30
ATOM     30  C   UNL     1     141.898 131.888 164.865  1.00  0.00     0.012 C 
BRANCH  30  31
ATOM     31  C   UNL     1     142.366 130.418 165.067  1.00  0.00    -0.002 C 
ATOM     32  C   UNL     1     141.427 129.343 164.433  1.00  0.00     0.039 C 
ATOM     33  C   UNL     1     143.688 130.235 164.280  1.00  0.00     0.039 C 
ATOM     34  C   UNL     1     141.970 129.130 163.061  1.00  0.00    -0.045 A 
ATOM     35  C   UNL     1     143.240 129.725 162.947  1.00  0.00    -0.045 A 
ATOM     36  C   UNL     1     141.365 128.514 161.965  1.00  0.00     0.004 A 
ATOM     37  C   UNL     1     143.907 129.751 161.713  1.00  0.00     0.004 A 
ATOM     38  C   UNL     1     142.034 128.518 160.719  1.00  0.00     0.000 A 
ATOM     39  C   UNL     1     143.283 129.132 160.591  1.00  0.00     0.000 A 
ENDBRANCH  30  31
ENDBRANCH  15  30
ENDBRANCH   1  15
TORSDOF 13
ENDMDL
MODEL 8
REMARK VINA RESULT:      -9.0      1.447      3.616
REMARK SMILES COC(=O)c1cn(C[C@H](CC2Cc3ccccc3C2)[C@H](O)c2cc(OC)c(C)c(OC)c2)cc1CC(=O)[O-]
REMARK SMILES IDX 8 1 7 2 5 3 34 4 6 5 33 6 3 7 4 8 2 9 1 10 35 11 36 12 37 13
REMARK SMILES IDX 38 14 9 15 20 16 21 17 22 19 32 20 23 21 29 22 24 23 27 24
REMARK SMILES IDX 28 25 30 26 31 27 25 28 26 29 10 30 11 31 12 32 19 33 13 34
REMARK SMILES IDX 18 35 14 36 17 37 15 38 16 39
REMARK H PARENT 21 18
REMARK INDEX MAP 14 1 13 2 5 3 6 4 12 5 11 6 2 7 1 8 3 9 4 10 7 11 8 12 9 13
REMARK INDEX MAP 10 14 15 15 16 16 17 17 50 18 18 19 19 20 20 21 26 22 21 23
REMARK INDEX MAP 24 24 25 25 27 26 28 27 22 28 23 29 29 30 30 31 31 32 38 33
REMARK INDEX MAP 32 34 37 35 33 36 36 37 34 38 35 39
ROOT
ATOM      1  C   UNL     1     140.134 133.231 166.222  1.00  0.00     0.128 C 
ENDROOT
BRANCH   1   2
ATOM      2  N   UNL     1     138.788 133.413 166.751  1.00  0.00    -0.353 N 
ATOM      3  C   UNL     1     136.900 134.421 167.371  1.00  0.00     0.081 A 
ATOM      4  C   UNL     1     136.837 133.055 167.829  1.00  0.00    -0.010 A 
ATOM      5  C   UNL     1     138.103 134.604 166.712  1.00  0.00     0.101 A 
ATOM      6  C   UNL     1     138.021 132.460 167.424  1.00  0.00     0.090 A 
BRANCH   3   7
ATOM      7  C   UNL     1     135.938 135.492 167.507  1.00  0.00     0.339 C 
ATOM      8  O   UNL     1     135.010 135.591 168.314  1.00  0.00    -0.246 OA
BRANCH   7   9
ATOM      9  O   UNL     1     136.214 136.495 166.592  1.00  0.00    -0.465 OA
ATOM     10  C   UNL     1     135.247 137.446 166.237  1.00  0.00     0.282 C 
ENDBRANCH   7   9
ENDBRANCH   3   7
BRANCH   4  11
ATOM     11  C   UNL     1     135.757 132.367 168.579  1.00  0.00     0.090 C 
BRANCH  11  12
ATOM     12  C   UNL     1     136.251 131.640 169.894  1.00  0.00     0.046 C 
ATOM     13  O   UNL     1     136.468 130.410 169.793  1.00  0.00    -0.550 OA
ATOM     14  O   UNL     1     136.407 132.317 170.946  1.00  0.00    -0.550 OA
ENDBRANCH  11  12
ENDBRANCH   4  11
ENDBRANCH   1   2
BRANCH   1  15
ATOM     15  C   UNL     1     140.355 132.120 165.158  1.00  0.00     0.042 C 
BRANCH  15  16
ATOM     16  C   UNL     1     139.538 132.349 163.805  1.00  0.00     0.149 C 
BRANCH  16  17
ATOM     17  O   UNL     1     138.819 131.196 163.429  1.00  0.00    -0.388 OA
ATOM     18  H   UNL     1     138.437 130.782 164.219  1.00  0.00     0.211 HD
ENDBRANCH  16  17
BRANCH  16  19
ATOM     19  C   UNL     1     140.467 132.709 162.656  1.00  0.00    -0.012 A 
ATOM     20  C   UNL     1     141.212 133.894 162.758  1.00  0.00     0.053 A 
ATOM     21  C   UNL     1     140.585 131.883 161.530  1.00  0.00     0.053 A 
ATOM     22  C   UNL     1     142.104 134.253 161.728  1.00  0.00     0.125 A 
ATOM     23  C   UNL     1     141.464 132.250 160.486  1.00  0.00     0.125 A 
ATOM     24  C   UNL     1     142.249 133.437 160.549  1.00  0.00     0.033 A 
ATOM     25  C   UNL     1     143.188 133.807 159.457  1.00  0.00     0.052 C 
BRANCH  22  26
ATOM     26  O   UNL     1     142.892 135.398 161.776  1.00  0.00    -0.496 OA
ATOM     27  C   UNL     1     143.789 135.587 162.833  1.00  0.00     0.278 C 
ENDBRANCH  22  26
BRANCH  23  28
ATOM     28  O   UNL     1     141.602 131.440 159.367  1.00  0.00    -0.496 OA
ATOM     29  C   UNL     1     140.396 130.916 158.796  1.00  0.00     0.278 C 
ENDBRANCH  23  28
ENDBRANCH  16  19
ENDBRANCH  15  16
BRANCH  15  30
ATOM     30  C   UNL     1     141.857 131.858 164.871  1.00  0.00     0.012 C 
BRANCH  30  31
ATOM     31  C   UNL     1     142.406 130.426 165.133  1.00  0.00    -0.002 C 
ATOM     32  C   UNL     1     141.507 129.273 164.583  1.00  0.00     0.039 C 
ATOM     33  C   UNL     1     143.714 130.270 164.318  1.00  0.00     0.039 C 
ATOM     34  C   UNL     1     142.024 129.017 163.207  1.00  0.00    -0.045 A 
ATOM     35  C   UNL     1     143.257 129.669 163.026  1.00  0.00    -0.045 A 
ATOM     36  C   UNL     1     141.421 128.316 162.161  1.00  0.00     0.004 A 
ATOM     37  C   UNL     1     143.889 129.665 161.773  1.00  0.00     0.004 A 
ATOM     38  C   UNL     1     142.056 128.289 160.898  1.00  0.00     0.000 A 
ATOM     39  C   UNL     1     143.267 128.958 160.702  1.00  0.00     0.000 A 
ENDBRANCH  30  31
ENDBRANCH  15  30
ENDBRANCH   1  15
TORSDOF 13
ENDMDL
MODEL 9
REMARK VINA RESULT:      -9.0      1.359      1.616
REMARK SMILES COC(=O)c1cn(C[C@H](CC2Cc3ccccc3C2)[C@H](O)c2cc(OC)c(C)c(OC)c2)cc1CC(=O)[O-]
REMARK SMILES IDX 8 1 7 2 5 3 34 4 6 5 33 6 3 7 4 8 2 9 1 10 35 11 36 12 37 13
REMARK SMILES IDX 38 14 9 15 20 16 21 17 22 19 32 20 23 21 29 22 24 23 27 24
REMARK SMILES IDX 28 25 30 26 31 27 25 28 26 29 10 30 11 31 12 32 19 33 13 34
REMARK SMILES IDX 18 35 14 36 17 37 15 38 16 39
REMARK H PARENT 21 18
REMARK INDEX MAP 14 1 13 2 5 3 6 4 12 5 11 6 2 7 1 8 3 9 4 10 7 11 8 12 9 13
REMARK INDEX MAP 10 14 15 15 16 16 17 17 50 18 18 19 19 20 20 21 26 22 21 23
REMARK INDEX MAP 24 24 25 25 27 26 28 27 22 28 23 29 29 30 30 31 31 32 38 33
REMARK INDEX MAP 32 34 37 35 33 36 36 37 34 38 35 39
ROOT
ATOM      1  C   UNL     1     139.808 134.977 165.894  1.00  0.00     0.128 C 
ENDROOT
BRANCH   1   2
ATOM      2  N   UNL     1     138.558 134.954 166.644  1.00  0.00    -0.353 N 
ATOM      3  C   UNL     1     136.518 135.528 167.330  1.00  0.00     0.081 A 
ATOM      4  C   UNL     1     137.007 134.504 168.221  1.00  0.00    -0.010 A 
ATOM      5  C   UNL     1     137.487 135.774 166.376  1.00  0.00     0.101 A 
ATOM      6  C   UNL     1     138.272 134.170 167.763  1.00  0.00     0.090 A 
BRANCH   3   7
ATOM      7  C   UNL     1     135.254 136.231 167.330  1.00  0.00     0.339 C 
ATOM      8  O   UNL     1     134.217 135.947 167.935  1.00  0.00    -0.246 OA
BRANCH   7   9
ATOM      9  O   UNL     1     135.350 137.374 166.552  1.00  0.00    -0.465 OA
ATOM     10  C   UNL     1     134.547 138.496 166.800  1.00  0.00     0.282 C 
ENDBRANCH   7   9
ENDBRANCH   3   7
BRANCH   4  11
ATOM     11  C   UNL     1     136.345 133.891 169.399  1.00  0.00     0.090 C 
BRANCH  11  12
ATOM     12  C   UNL     1     136.168 132.323 169.293  1.00  0.00     0.046 C 
ATOM     13  O   UNL     1     135.648 131.899 168.234  1.00  0.00    -0.550 OA
ATOM     14  O   UNL     1     136.558 131.597 170.247  1.00  0.00    -0.550 OA
ENDBRANCH  11  12
ENDBRANCH   4  11
ENDBRANCH   1   2
BRANCH   1  15
ATOM     15  C   UNL     1     140.456 133.617 165.514  1.00  0.00     0.042 C 
BRANCH  15  16
ATOM     16  C   UNL     1     139.623 132.784 164.436  1.00  0.00     0.149 C 
BRANCH  16  17
ATOM     17  O   UNL     1     138.553 132.085 165.029  1.00  0.00    -0.388 OA
ATOM     18  H   UNL     1     138.903 131.370 165.585  1.00  0.00     0.211 HD
ENDBRANCH  16  17
BRANCH  16  19
ATOM     19  C   UNL     1     140.504 131.766 163.727  1.00  0.00    -0.012 A 
ATOM     20  C   UNL     1     140.368 131.631 162.337  1.00  0.00     0.053 A 
ATOM     21  C   UNL     1     141.430 130.989 164.435  1.00  0.00     0.053 A 
ATOM     22  C   UNL     1     141.183 130.719 161.638  1.00  0.00     0.125 A 
ATOM     23  C   UNL     1     142.235 130.058 163.740  1.00  0.00     0.125 A 
ATOM     24  C   UNL     1     142.142 129.894 162.328  1.00  0.00     0.033 A 
ATOM     25  C   UNL     1     143.006 128.928 161.599  1.00  0.00     0.052 C 
BRANCH  22  26
ATOM     26  O   UNL     1     141.120 130.554 160.258  1.00  0.00    -0.496 OA
ATOM     27  C   UNL     1     140.169 131.258 159.511  1.00  0.00     0.278 C 
ENDBRANCH  22  26
BRANCH  23  28
ATOM     28  O   UNL     1     143.165 129.286 164.423  1.00  0.00    -0.496 OA
ATOM     29  C   UNL     1     143.749 129.865 165.597  1.00  0.00     0.278 C 
ENDBRANCH  23  28
ENDBRANCH  16  19
ENDBRANCH  15  16
BRANCH  15  30
ATOM     30  C   UNL     1     141.941 133.760 165.090  1.00  0.00     0.012 C 
BRANCH  30  31
ATOM     31  C   UNL     1     142.395 135.120 164.488  1.00  0.00    -0.002 C 
ATOM     32  C   UNL     1     143.741 135.065 163.696  1.00  0.00     0.039 C 
ATOM     33  C   UNL     1     141.366 135.518 163.400  1.00  0.00     0.039 C 
ATOM     34  C   UNL     1     143.338 134.788 162.286  1.00  0.00    -0.045 A 
ATOM     35  C   UNL     1     141.950 134.964 162.139  1.00  0.00    -0.045 A 
ATOM     36  C   UNL     1     144.123 134.346 161.221  1.00  0.00     0.004 A 
ATOM     37  C   UNL     1     141.317 134.655 160.925  1.00  0.00     0.004 A 
ATOM     38  C   UNL     1     143.501 134.049 159.987  1.00  0.00     0.000 A 
ATOM     39  C   UNL     1     142.118 134.194 159.841  1.00  0.00     0.000 A 
ENDBRANCH  30  31
ENDBRANCH  15  30
ENDBRANCH   1  15
TORSDOF 13
ENDMDL
