MODEL 1
REMARK VINA RESULT:      -7.0      0.000      0.000
REMARK SMILES CCCCCCCC/C=C/CCCCCCCC(=O)OC[C@@H](O)COP(=O)([O-])[O-]
REMARK SMILES IDX 14 1 15 2 16 3 17 4 18 5 19 6 20 7 21 8 22 9 24 10 25 11
REMARK SMILES IDX 26 12 27 13 28 14 29 15 23 16 13 18 12 19 11 20 10 21 9 22
REMARK SMILES IDX 8 23 7 24 6 25 5 26 4 27 3 28 2 29 1 30
REMARK H PARENT 23 17
REMARK INDEX MAP 15 1 14 2 13 3 12 4 11 5 5 6 10 7 9 8 8 9 7 10 6 11 3 12 2 13
REMARK INDEX MAP 1 14 4 15 29 16 68 17 16 18 17 19 18 20 19 21 20 22 21 23
REMARK INDEX MAP 22 24 23 25 24 26 25 27 26 28 27 29 28 30
ROOT
ATOM      1  C   UNL     1     142.254 132.467 163.161  1.00  0.00     0.000 C 
ENDROOT
BRANCH   1   2
ATOM      2  C   UNL     1     140.905 133.180 163.130  1.00  0.00     0.001 C 
BRANCH   2   3
ATOM      3  C   UNL     1     139.878 132.301 162.427  1.00  0.00     0.012 C 
BRANCH   3   4
ATOM      4  C   UNL     1     139.267 131.340 163.441  1.00  0.00     0.123 C 
BRANCH   4   5
ATOM      5  C   UNL     1     137.909 131.883 163.871  1.00  0.00     0.305 C 
ATOM      6  O   UNL     1     137.004 131.903 163.107  1.00  0.00    -0.252 OA
BRANCH   5   7
ATOM      7  O   UNL     1     137.755 132.374 165.169  1.00  0.00    -0.463 OA
BRANCH   7   8
ATOM      8  C   UNL     1     138.933 132.895 165.706  1.00  0.00     0.267 C 
BRANCH   8   9
ATOM      9  C   UNL     1     139.031 132.494 167.173  1.00  0.00     0.178 C 
BRANCH   9  10
ATOM     10  C   UNL     1     137.899 133.146 167.955  1.00  0.00     0.201 C 
BRANCH  10  11
ATOM     11  O   UNL     1     137.615 132.367 169.078  1.00  0.00    -0.348 OA
BRANCH  11  12
ATOM     12  P   UNL     1     136.312 131.372 169.002  1.00  0.00     0.060 P 
ATOM     13  O   UNL     1     136.794 129.948 168.891  1.00  0.00    -0.326 OA
ATOM     14  O   UNL     1     135.485 131.722 167.789  1.00  0.00    -0.790 OA
ATOM     15  O   UNL     1     135.480 131.543 170.249  1.00  0.00    -0.790 OA
ENDBRANCH  11  12
ENDBRANCH  10  11
ENDBRANCH   9  10
BRANCH   9  16
ATOM     16  O   UNL     1     140.258 132.924 167.688  1.00  0.00    -0.387 OA
ATOM     17  H   UNL     1     140.461 132.428 168.497  1.00  0.00     0.211 HD
ENDBRANCH   9  16
ENDBRANCH   8   9
ENDBRANCH   7   8
ENDBRANCH   5   7
ENDBRANCH   4   5
ENDBRANCH   3   4
ENDBRANCH   2   3
ENDBRANCH   1   2
BRANCH   1  18
ATOM     18  C   UNL     1     142.385 131.657 164.449  1.00  0.00     0.000 C 
BRANCH  18  19
ATOM     19  C   UNL     1     143.053 130.323 164.123  1.00  0.00     0.004 C 
BRANCH  19  20
ATOM     20  C   UNL     1     142.012 129.222 163.933  1.00  0.00     0.027 C 
BRANCH  20  21
ATOM     21  C   UNL     1     141.910 128.864 162.453  1.00  0.00    -0.031 C 
ATOM     22  C   UNL     1     142.917 129.117 161.649  1.00  0.00    -0.031 C 
BRANCH  22  23
ATOM     23  C   UNL     1     142.818 128.760 160.171  1.00  0.00     0.027 C 
BRANCH  23  24
ATOM     24  C   UNL     1     141.800 129.674 159.496  1.00  0.00     0.004 C 
BRANCH  24  25
ATOM     25  C   UNL     1     142.158 131.138 159.744  1.00  0.00     0.000 C 
BRANCH  25  26
ATOM     26  C   UNL     1     141.194 132.044 158.982  1.00  0.00     0.000 C 
BRANCH  26  27
ATOM     27  C   UNL     1     141.416 133.501 159.372  1.00  0.00    -0.000 C 
BRANCH  27  28
ATOM     28  C   UNL     1     142.920 133.710 159.499  1.00  0.00    -0.000 C 
BRANCH  28  29
ATOM     29  C   UNL     1     143.224 135.128 159.963  1.00  0.00    -0.003 C 
ATOM     30  C   UNL     1     142.007 135.660 160.712  1.00  0.00     0.004 C 
ENDBRANCH  28  29
ENDBRANCH  27  28
ENDBRANCH  26  27
ENDBRANCH  25  26
ENDBRANCH  24  25
ENDBRANCH  23  24
ENDBRANCH  22  23
ENDBRANCH  20  21
ENDBRANCH  19  20
ENDBRANCH  18  19
ENDBRANCH   1  18
TORSDOF 22
ENDMDL
MODEL 2
REMARK VINA RESULT:      -6.9      1.268      3.234
REMARK SMILES CCCCCCCC/C=C/CCCCCCCC(=O)OC[C@@H](O)COP(=O)([O-])[O-]
REMARK SMILES IDX 14 1 15 2 16 3 17 4 18 5 19 6 20 7 21 8 22 9 24 10 25 11
REMARK SMILES IDX 26 12 27 13 28 14 29 15 23 16 13 18 12 19 11 20 10 21 9 22
REMARK SMILES IDX 8 23 7 24 6 25 5 26 4 27 3 28 2 29 1 30
REMARK H PARENT 23 17
REMARK INDEX MAP 15 1 14 2 13 3 12 4 11 5 5 6 10 7 9 8 8 9 7 10 6 11 3 12 2 13
REMARK INDEX MAP 1 14 4 15 29 16 68 17 16 18 17 19 18 20 19 21 20 22 21 23
REMARK INDEX MAP 22 24 23 25 24 26 25 27 26 28 27 29 28 30
ROOT
ATOM      1  C   UNL     1     143.294 129.065 162.227  1.00  0.00     0.000 C 
ENDROOT
BRANCH   1   2
ATOM      2  C   UNL     1     141.820 129.059 162.623  1.00  0.00     0.001 C 
BRANCH   2   3
ATOM      3  C   UNL     1     141.546 130.201 163.593  1.00  0.00     0.012 C 
BRANCH   3   4
ATOM      4  C   UNL     1     140.840 131.329 162.849  1.00  0.00     0.123 C 
BRANCH   4   5
ATOM      5  C   UNL     1     139.380 131.364 163.288  1.00  0.00     0.305 C 
ATOM      6  O   UNL     1     138.514 131.192 162.499  1.00  0.00    -0.252 OA
BRANCH   5   7
ATOM      7  O   UNL     1     139.081 131.622 164.627  1.00  0.00    -0.463 OA
BRANCH   7   8
ATOM      8  C   UNL     1     139.587 132.842 165.081  1.00  0.00     0.267 C 
BRANCH   8   9
ATOM      9  C   UNL     1     139.961 132.709 166.552  1.00  0.00     0.178 C 
BRANCH   9  10
ATOM     10  C   UNL     1     138.758 133.061 167.417  1.00  0.00     0.201 C 
BRANCH  10  11
ATOM     11  O   UNL     1     138.045 131.895 167.701  1.00  0.00    -0.348 OA
BRANCH  11  12
ATOM     12  P   UNL     1     136.427 132.033 167.941  1.00  0.00     0.060 P 
ATOM     13  O   UNL     1     136.111 131.643 169.362  1.00  0.00    -0.326 OA
ATOM     14  O   UNL     1     135.700 131.114 166.990  1.00  0.00    -0.790 OA
ATOM     15  O   UNL     1     136.006 133.460 167.688  1.00  0.00    -0.790 OA
ENDBRANCH  11  12
ENDBRANCH  10  11
ENDBRANCH   9  10
BRANCH   9  16
ATOM     16  O   UNL     1     141.012 133.583 166.843  1.00  0.00    -0.387 OA
ATOM     17  H   UNL     1     141.523 133.755 166.036  1.00  0.00     0.211 HD
ENDBRANCH   9  16
ENDBRANCH   8   9
ENDBRANCH   7   8
ENDBRANCH   5   7
ENDBRANCH   4   5
ENDBRANCH   3   4
ENDBRANCH   2   3
ENDBRANCH   1   2
BRANCH   1  18
ATOM     18  C   UNL     1     143.436 129.443 160.754  1.00  0.00     0.000 C 
BRANCH  18  19
ATOM     19  C   UNL     1     142.417 128.646 159.943  1.00  0.00     0.004 C 
BRANCH  19  20
ATOM     20  C   UNL     1     141.526 129.573 159.120  1.00  0.00     0.027 C 
BRANCH  20  21
ATOM     21  C   UNL     1     141.903 131.025 159.397  1.00  0.00    -0.031 C 
ATOM     22  C   UNL     1     141.068 131.988 159.082  1.00  0.00    -0.031 C 
BRANCH  22  23
ATOM     23  C   UNL     1     141.442 133.439 159.360  1.00  0.00     0.027 C 
BRANCH  23  24
ATOM     24  C   UNL     1     142.848 133.496 159.949  1.00  0.00     0.004 C 
BRANCH  24  25
ATOM     25  C   UNL     1     143.365 134.933 159.950  1.00  0.00     0.000 C 
BRANCH  25  26
ATOM     26  C   UNL     1     142.251 135.884 160.380  1.00  0.00     0.000 C 
BRANCH  26  27
ATOM     27  C   UNL     1     141.999 135.763 161.878  1.00  0.00    -0.000 C 
BRANCH  27  28
ATOM     28  C   UNL     1     143.332 135.992 162.580  1.00  0.00    -0.000 C 
BRANCH  28  29
ATOM     29  C   UNL     1     143.293 135.429 163.995  1.00  0.00    -0.003 C 
ATOM     30  C   UNL     1     143.197 133.910 163.905  1.00  0.00     0.004 C 
ENDBRANCH  28  29
ENDBRANCH  27  28
ENDBRANCH  26  27
ENDBRANCH  25  26
ENDBRANCH  24  25
ENDBRANCH  23  24
ENDBRANCH  22  23
ENDBRANCH  20  21
ENDBRANCH  19  20
ENDBRANCH  18  19
ENDBRANCH   1  18
TORSDOF 22
ENDMDL
MODEL 3
REMARK VINA RESULT:      -6.9      1.335      3.730
REMARK SMILES CCCCCCCC/C=C/CCCCCCCC(=O)OC[C@@H](O)COP(=O)([O-])[O-]
REMARK SMILES IDX 14 1 15 2 16 3 17 4 18 5 19 6 20 7 21 8 22 9 24 10 25 11
REMARK SMILES IDX 26 12 27 13 28 14 29 15 23 16 13 18 12 19 11 20 10 21 9 22
REMARK SMILES IDX 8 23 7 24 6 25 5 26 4 27 3 28 2 29 1 30
REMARK H PARENT 23 17
REMARK INDEX MAP 15 1 14 2 13 3 12 4 11 5 5 6 10 7 9 8 8 9 7 10 6 11 3 12 2 13
REMARK INDEX MAP 1 14 4 15 29 16 68 17 16 18 17 19 18 20 19 21 20 22 21 23
REMARK INDEX MAP 22 24 23 25 24 26 25 27 26 28 27 29 28 30
ROOT
ATOM      1  C   UNL     1     142.846 128.462 161.586  1.00  0.00     0.000 C 
ENDROOT
BRANCH   1   2
ATOM      2  C   UNL     1     143.160 129.839 162.165  1.00  0.00     0.001 C 
BRANCH   2   3
ATOM      3  C   UNL     1     142.579 129.948 163.569  1.00  0.00     0.012 C 
BRANCH   3   4
ATOM      4  C   UNL     1     141.130 130.417 163.474  1.00  0.00     0.123 C 
BRANCH   4   5
ATOM      5  C   UNL     1     140.716 130.996 164.822  1.00  0.00     0.305 C 
ATOM      6  O   UNL     1     141.515 131.132 165.686  1.00  0.00    -0.252 OA
BRANCH   5   7
ATOM      7  O   UNL     1     139.380 131.344 165.029  1.00  0.00    -0.463 OA
BRANCH   7   8
ATOM      8  C   UNL     1     139.221 132.597 165.624  1.00  0.00     0.267 C 
BRANCH   8   9
ATOM      9  C   UNL     1     139.018 132.415 167.123  1.00  0.00     0.178 C 
BRANCH   9  10
ATOM     10  C   UNL     1     137.817 133.234 167.577  1.00  0.00     0.201 C 
BRANCH  10  11
ATOM     11  O   UNL     1     137.632 133.048 168.948  1.00  0.00    -0.348 OA
BRANCH  11  12
ATOM     12  P   UNL     1     136.261 132.285 169.432  1.00  0.00     0.060 P 
ATOM     13  O   UNL     1     135.357 132.106 168.240  1.00  0.00    -0.326 OA
ATOM     14  O   UNL     1     135.563 133.124 170.475  1.00  0.00    -0.790 OA
ATOM     15  O   UNL     1     136.619 130.942 170.019  1.00  0.00    -0.790 OA
ENDBRANCH  11  12
ENDBRANCH  10  11
ENDBRANCH   9  10
BRANCH   9  16
ATOM     16  O   UNL     1     140.160 132.853 167.800  1.00  0.00    -0.387 OA
ATOM     17  H   UNL     1     139.897 133.344 168.594  1.00  0.00     0.211 HD
ENDBRANCH   9  16
ENDBRANCH   8   9
ENDBRANCH   7   8
ENDBRANCH   5   7
ENDBRANCH   4   5
ENDBRANCH   3   4
ENDBRANCH   2   3
ENDBRANCH   1   2
BRANCH   1  18
ATOM     18  C   UNL     1     142.727 128.551 160.066  1.00  0.00     0.000 C 
BRANCH  18  19
ATOM     19  C   UNL     1     142.504 130.011 159.677  1.00  0.00     0.004 C 
BRANCH  19  20
ATOM     20  C   UNL     1     141.102 130.219 159.110  1.00  0.00     0.027 C 
BRANCH  20  21
ATOM     21  C   UNL     1     140.821 131.712 158.975  1.00  0.00    -0.031 C 
ATOM     22  C   UNL     1     141.749 132.583 159.300  1.00  0.00    -0.031 C 
BRANCH  22  23
ATOM     23  C   UNL     1     141.471 134.075 159.163  1.00  0.00     0.027 C 
BRANCH  23  24
ATOM     24  C   UNL     1     142.661 134.863 159.701  1.00  0.00     0.004 C 
BRANCH  24  25
ATOM     25  C   UNL     1     142.179 136.037 160.551  1.00  0.00     0.000 C 
BRANCH  25  26
ATOM     26  C   UNL     1     142.780 135.945 161.951  1.00  0.00     0.000 C 
BRANCH  26  27
ATOM     27  C   UNL     1     143.431 134.583 162.160  1.00  0.00    -0.000 C 
BRANCH  27  28
ATOM     28  C   UNL     1     142.434 133.718 162.920  1.00  0.00    -0.000 C 
BRANCH  28  29
ATOM     29  C   UNL     1     141.505 134.586 163.758  1.00  0.00    -0.003 C 
ATOM     30  C   UNL     1     142.039 134.621 165.186  1.00  0.00     0.004 C 
ENDBRANCH  28  29
ENDBRANCH  27  28
ENDBRANCH  26  27
ENDBRANCH  25  26
ENDBRANCH  24  25
ENDBRANCH  23  24
ENDBRANCH  22  23
ENDBRANCH  20  21
ENDBRANCH  19  20
ENDBRANCH  18  19
ENDBRANCH   1  18
TORSDOF 22
ENDMDL
MODEL 4
REMARK VINA RESULT:      -6.9      1.915      4.223
REMARK SMILES CCCCCCCC/C=C/CCCCCCCC(=O)OC[C@@H](O)COP(=O)([O-])[O-]
REMARK SMILES IDX 14 1 15 2 16 3 17 4 18 5 19 6 20 7 21 8 22 9 24 10 25 11
REMARK SMILES IDX 26 12 27 13 28 14 29 15 23 16 13 18 12 19 11 20 10 21 9 22
REMARK SMILES IDX 8 23 7 24 6 25 5 26 4 27 3 28 2 29 1 30
REMARK H PARENT 23 17
REMARK INDEX MAP 15 1 14 2 13 3 12 4 11 5 5 6 10 7 9 8 8 9 7 10 6 11 3 12 2 13
REMARK INDEX MAP 1 14 4 15 29 16 68 17 16 18 17 19 18 20 19 21 20 22 21 23
REMARK INDEX MAP 22 24 23 25 24 26 25 27 26 28 27 29 28 30
ROOT
ATOM      1  C   UNL     1     141.573 134.847 160.380  1.00  0.00     0.000 C 
ENDROOT
BRANCH   1   2
ATOM      2  C   UNL     1     141.949 135.197 161.817  1.00  0.00     0.001 C 
BRANCH   2   3
ATOM      3  C   UNL     1     143.320 134.618 162.142  1.00  0.00     0.012 C 
BRANCH   3   4
ATOM      4  C   UNL     1     143.310 134.083 163.571  1.00  0.00     0.123 C 
BRANCH   4   5
ATOM      5  C   UNL     1     142.621 135.105 164.469  1.00  0.00     0.305 C 
ATOM      6  O   UNL     1     143.175 136.108 164.768  1.00  0.00    -0.252 OA
BRANCH   5   7
ATOM      7  O   UNL     1     141.338 134.832 164.947  1.00  0.00    -0.463 OA
BRANCH   7   8
ATOM      8  C   UNL     1     141.319 133.863 165.952  1.00  0.00     0.267 C 
BRANCH   8   9
ATOM      9  C   UNL     1     139.949 133.866 166.620  1.00  0.00     0.178 C 
BRANCH   9  10
ATOM     10  C   UNL     1     139.144 132.667 166.135  1.00  0.00     0.201 C 
BRANCH  10  11
ATOM     11  O   UNL     1     138.290 132.250 167.157  1.00  0.00    -0.348 OA
BRANCH  11  12
ATOM     12  P   UNL     1     136.679 132.486 166.942  1.00  0.00     0.060 P 
ATOM     13  O   UNL     1     136.421 133.963 166.789  1.00  0.00    -0.326 OA
ATOM     14  O   UNL     1     135.933 131.965 168.146  1.00  0.00    -0.790 OA
ATOM     15  O   UNL     1     136.227 131.748 165.707  1.00  0.00    -0.790 OA
ENDBRANCH  11  12
ENDBRANCH  10  11
ENDBRANCH   9  10
BRANCH   9  16
ATOM     16  O   UNL     1     139.273 135.044 166.283  1.00  0.00    -0.387 OA
ATOM     17  H   UNL     1     138.498 134.829 165.741  1.00  0.00     0.211 HD
ENDBRANCH   9  16
ENDBRANCH   8   9
ENDBRANCH   7   8
ENDBRANCH   5   7
ENDBRANCH   4   5
ENDBRANCH   3   4
ENDBRANCH   2   3
ENDBRANCH   1   2
BRANCH   1  18
ATOM     18  C   UNL     1     142.826 134.474 159.590  1.00  0.00     0.000 C 
BRANCH  18  19
ATOM     19  C   UNL     1     142.756 132.992 159.230  1.00  0.00     0.004 C 
BRANCH  19  20
ATOM     20  C   UNL     1     141.312 132.497 159.228  1.00  0.00     0.027 C 
BRANCH  20  21
ATOM     21  C   UNL     1     141.294 130.973 159.287  1.00  0.00    -0.031 C 
ATOM     22  C   UNL     1     142.334 130.325 159.760  1.00  0.00    -0.031 C 
BRANCH  22  23
ATOM     23  C   UNL     1     142.318 128.802 159.822  1.00  0.00     0.027 C 
BRANCH  23  24
ATOM     24  C   UNL     1     143.016 128.339 161.097  1.00  0.00     0.004 C 
BRANCH  24  25
ATOM     25  C   UNL     1     142.013 128.243 162.244  1.00  0.00     0.000 C 
BRANCH  25  26
ATOM     26  C   UNL     1     142.359 129.264 163.324  1.00  0.00     0.000 C 
BRANCH  26  27
ATOM     27  C   UNL     1     141.162 130.166 163.603  1.00  0.00    -0.000 C 
BRANCH  27  28
ATOM     28  C   UNL     1     141.383 131.461 162.832  1.00  0.00    -0.000 C 
BRANCH  28  29
ATOM     29  C   UNL     1     140.096 132.272 162.771  1.00  0.00    -0.003 C 
ATOM     30  C   UNL     1     138.929 131.308 162.584  1.00  0.00     0.004 C 
ENDBRANCH  28  29
ENDBRANCH  27  28
ENDBRANCH  26  27
ENDBRANCH  25  26
ENDBRANCH  24  25
ENDBRANCH  23  24
ENDBRANCH  22  23
ENDBRANCH  20  21
ENDBRANCH  19  20
ENDBRANCH  18  19
ENDBRANCH   1  18
TORSDOF 22
ENDMDL
MODEL 5
REMARK VINA RESULT:      -6.8      1.494      3.814
REMARK SMILES CCCCCCCC/C=C/CCCCCCCC(=O)OC[C@@H](O)COP(=O)([O-])[O-]
REMARK SMILES IDX 14 1 15 2 16 3 17 4 18 5 19 6 20 7 21 8 22 9 24 10 25 11
REMARK SMILES IDX 26 12 27 13 28 14 29 15 23 16 13 18 12 19 11 20 10 21 9 22
REMARK SMILES IDX 8 23 7 24 6 25 5 26 4 27 3 28 2 29 1 30
REMARK H PARENT 23 17
REMARK INDEX MAP 15 1 14 2 13 3 12 4 11 5 5 6 10 7 9 8 8 9 7 10 6 11 3 12 2 13
REMARK INDEX MAP 1 14 4 15 29 16 68 17 16 18 17 19 18 20 19 21 20 22 21 23
REMARK INDEX MAP 22 24 23 25 24 26 25 27 26 28 27 29 28 30
ROOT
ATOM      1  C   UNL     1     140.899 134.512 160.697  1.00  0.00     0.000 C 
ENDROOT
BRANCH   1   2
ATOM      2  C   UNL     1     141.755 135.742 160.986  1.00  0.00     0.001 C 
BRANCH   2   3
ATOM      3  C   UNL     1     142.252 135.692 162.426  1.00  0.00     0.012 C 
BRANCH   3   4
ATOM      4  C   UNL     1     141.739 134.416 163.086  1.00  0.00     0.123 C 
BRANCH   4   5
ATOM      5  C   UNL     1     141.322 134.742 164.516  1.00  0.00     0.305 C 
ATOM      6  O   UNL     1     142.141 134.923 165.352  1.00  0.00    -0.252 OA
BRANCH   5   7
ATOM      7  O   UNL     1     139.962 134.801 164.829  1.00  0.00    -0.463 OA
BRANCH   7   8
ATOM      8  C   UNL     1     139.696 134.579 166.181  1.00  0.00     0.267 C 
BRANCH   8   9
ATOM      9  C   UNL     1     139.893 133.100 166.490  1.00  0.00     0.178 C 
BRANCH   9  10
ATOM     10  C   UNL     1     138.540 132.447 166.735  1.00  0.00     0.201 C 
BRANCH  10  11
ATOM     11  O   UNL     1     138.296 132.408 168.109  1.00  0.00    -0.348 OA
BRANCH  11  12
ATOM     12  P   UNL     1     136.766 132.066 168.599  1.00  0.00     0.060 P 
ATOM     13  O   UNL     1     136.831 131.134 169.781  1.00  0.00    -0.326 OA
ATOM     14  O   UNL     1     136.017 131.400 167.470  1.00  0.00    -0.790 OA
ATOM     15  O   UNL     1     136.068 133.346 168.984  1.00  0.00    -0.790 OA
ENDBRANCH  11  12
ENDBRANCH  10  11
ENDBRANCH   9  10
BRANCH   9  16
ATOM     16  O   UNL     1     140.685 132.969 167.636  1.00  0.00    -0.387 OA
ATOM     17  H   UNL     1     140.782 132.029 167.856  1.00  0.00     0.211 HD
ENDBRANCH   9  16
ENDBRANCH   8   9
ENDBRANCH   7   8
ENDBRANCH   5   7
ENDBRANCH   4   5
ENDBRANCH   3   4
ENDBRANCH   2   3
ENDBRANCH   1   2
BRANCH   1  18
ATOM     18  C   UNL     1     141.182 134.000 159.286  1.00  0.00     0.000 C 
BRANCH  18  19
ATOM     19  C   UNL     1     141.506 132.510 159.362  1.00  0.00     0.004 C 
BRANCH  19  20
ATOM     20  C   UNL     1     142.898 132.281 159.948  1.00  0.00     0.027 C 
BRANCH  20  21
ATOM     21  C   UNL     1     143.155 130.784 160.084  1.00  0.00    -0.031 C 
ATOM     22  C   UNL     1     142.171 129.933 159.908  1.00  0.00    -0.031 C 
BRANCH  22  23
ATOM     23  C   UNL     1     142.426 128.436 160.042  1.00  0.00     0.027 C 
BRANCH  23  24
ATOM     24  C   UNL     1     142.759 128.107 161.494  1.00  0.00     0.004 C 
BRANCH  24  25
ATOM     25  C   UNL     1     141.619 128.546 162.411  1.00  0.00     0.000 C 
BRANCH  25  26
ATOM     26  C   UNL     1     142.179 129.326 163.597  1.00  0.00     0.000 C 
BRANCH  26  27
ATOM     27  C   UNL     1     141.157 130.342 164.094  1.00  0.00    -0.000 C 
BRANCH  27  28
ATOM     28  C   UNL     1     140.943 131.351 162.974  1.00  0.00    -0.000 C 
BRANCH  28  29
ATOM     29  C   UNL     1     139.560 131.182 162.360  1.00  0.00    -0.003 C 
ATOM     30  C   UNL     1     138.576 132.041 163.147  1.00  0.00     0.004 C 
ENDBRANCH  28  29
ENDBRANCH  27  28
ENDBRANCH  26  27
ENDBRANCH  25  26
ENDBRANCH  24  25
ENDBRANCH  23  24
ENDBRANCH  22  23
ENDBRANCH  20  21
ENDBRANCH  19  20
ENDBRANCH  18  19
ENDBRANCH   1  18
TORSDOF 22
ENDMDL
MODEL 6
REMARK VINA RESULT:      -6.8      1.648      4.028
REMARK SMILES CCCCCCCC/C=C/CCCCCCCC(=O)OC[C@@H](O)COP(=O)([O-])[O-]
REMARK SMILES IDX 14 1 15 2 16 3 17 4 18 5 19 6 20 7 21 8 22 9 24 10 25 11
REMARK SMILES IDX 26 12 27 13 28 14 29 15 23 16 13 18 12 19 11 20 10 21 9 22
REMARK SMILES IDX 8 23 7 24 6 25 5 26 4 27 3 28 2 29 1 30
REMARK H PARENT 23 17
REMARK INDEX MAP 15 1 14 2 13 3 12 4 11 5 5 6 10 7 9 8 8 9 7 10 6 11 3 12 2 13
REMARK INDEX MAP 1 14 4 15 29 16 68 17 16 18 17 19 18 20 19 21 20 22 21 23
REMARK INDEX MAP 22 24 23 25 24 26 25 27 26 28 27 29 28 30
ROOT
ATOM      1  C   UNL     1     142.100 134.917 161.149  1.00  0.00     0.000 C 
ENDROOT
BRANCH   1   2
ATOM      2  C   UNL     1     143.222 135.653 161.876  1.00  0.00     0.001 C 
BRANCH   2   3
ATOM      3  C   UNL     1     143.760 134.780 163.004  1.00  0.00     0.012 C 
BRANCH   3   4
ATOM      4  C   UNL     1     142.710 133.734 163.367  1.00  0.00     0.123 C 
BRANCH   4   5
ATOM      5  C   UNL     1     142.033 134.155 164.667  1.00  0.00     0.305 C 
ATOM      6  O   UNL     1     142.356 135.155 165.214  1.00  0.00    -0.252 OA
BRANCH   5   7
ATOM      7  O   UNL     1     141.043 133.336 165.212  1.00  0.00    -0.463 OA
BRANCH   7   8
ATOM      8  C   UNL     1     140.819 133.568 166.570  1.00  0.00     0.267 C 
BRANCH   8   9
ATOM      9  C   UNL     1     139.472 134.260 166.741  1.00  0.00     0.178 C 
BRANCH   9  10
ATOM     10  C   UNL     1     138.351 133.259 166.492  1.00  0.00     0.201 C 
BRANCH  10  11
ATOM     11  O   UNL     1     138.575 132.122 167.270  1.00  0.00    -0.348 OA
BRANCH  11  12
ATOM     12  P   UNL     1     137.363 131.633 168.264  1.00  0.00     0.060 P 
ATOM     13  O   UNL     1     136.116 131.425 167.444  1.00  0.00    -0.326 OA
ATOM     14  O   UNL     1     137.113 132.695 169.307  1.00  0.00    -0.790 OA
ATOM     15  O   UNL     1     137.762 130.344 168.939  1.00  0.00    -0.790 OA
ENDBRANCH  11  12
ENDBRANCH  10  11
ENDBRANCH   9  10
BRANCH   9  16
ATOM     16  O   UNL     1     139.370 135.308 165.822  1.00  0.00    -0.387 OA
ATOM     17  H   UNL     1     139.026 136.098 166.268  1.00  0.00     0.211 HD
ENDBRANCH   9  16
ENDBRANCH   8   9
ENDBRANCH   7   8
ENDBRANCH   5   7
ENDBRANCH   4   5
ENDBRANCH   3   4
ENDBRANCH   2   3
ENDBRANCH   1   2
BRANCH   1  18
ATOM     18  C   UNL     1     142.510 134.640 159.705  1.00  0.00     0.000 C 
BRANCH  18  19
ATOM     19  C   UNL     1     142.536 133.129 159.485  1.00  0.00     0.004 C 
BRANCH  19  20
ATOM     20  C   UNL     1     141.154 132.608 159.098  1.00  0.00     0.027 C 
BRANCH  20  21
ATOM     21  C   UNL     1     141.146 131.084 159.159  1.00  0.00    -0.031 C 
ATOM     22  C   UNL     1     142.207 130.442 159.594  1.00  0.00    -0.031 C 
BRANCH  22  23
ATOM     23  C   UNL     1     142.201 128.920 159.658  1.00  0.00     0.027 C 
BRANCH  23  24
ATOM     24  C   UNL     1     142.685 128.468 161.032  1.00  0.00     0.004 C 
BRANCH  24  25
ATOM     25  C   UNL     1     143.329 129.636 161.777  1.00  0.00     0.000 C 
BRANCH  25  26
ATOM     26  C   UNL     1     142.749 129.736 163.185  1.00  0.00     0.000 C 
BRANCH  26  27
ATOM     27  C   UNL     1     141.230 129.610 163.144  1.00  0.00    -0.000 C 
BRANCH  27  28
ATOM     28  C   UNL     1     140.668 131.005 162.904  1.00  0.00    -0.000 C 
BRANCH  28  29
ATOM     29  C   UNL     1     139.259 130.921 162.333  1.00  0.00    -0.003 C 
ATOM     30  C   UNL     1     138.349 131.817 163.166  1.00  0.00     0.004 C 
ENDBRANCH  28  29
ENDBRANCH  27  28
ENDBRANCH  26  27
ENDBRANCH  25  26
ENDBRANCH  24  25
ENDBRANCH  23  24
ENDBRANCH  22  23
ENDBRANCH  20  21
ENDBRANCH  19  20
ENDBRANCH  18  19
ENDBRANCH   1  18
TORSDOF 22
ENDMDL
MODEL 7
REMARK VINA RESULT:      -6.7      1.449      3.978
REMARK SMILES CCCCCCCC/C=C/CCCCCCCC(=O)OC[C@@H](O)COP(=O)([O-])[O-]
REMARK SMILES IDX 14 1 15 2 16 3 17 4 18 5 19 6 20 7 21 8 22 9 24 10 25 11
REMARK SMILES IDX 26 12 27 13 28 14 29 15 23 16 13 18 12 19 11 20 10 21 9 22
REMARK SMILES IDX 8 23 7 24 6 25 5 26 4 27 3 28 2 29 1 30
REMARK H PARENT 23 17
REMARK INDEX MAP 15 1 14 2 13 3 12 4 11 5 5 6 10 7 9 8 8 9 7 10 6 11 3 12 2 13
REMARK INDEX MAP 1 14 4 15 29 16 68 17 16 18 17 19 18 20 19 21 20 22 21 23
REMARK INDEX MAP 22 24 23 25 24 26 25 27 26 28 27 29 28 30
ROOT
ATOM      1  C   UNL     1     143.814 135.008 162.538  1.00  0.00     0.000 C 
ENDROOT
BRANCH   1   2
ATOM      2  C   UNL     1     143.303 133.797 163.314  1.00  0.00     0.001 C 
BRANCH   2   3
ATOM      3  C   UNL     1     142.207 134.234 164.278  1.00  0.00     0.012 C 
BRANCH   3   4
ATOM      4  C   UNL     1     140.865 134.203 163.554  1.00  0.00     0.123 C 
BRANCH   4   5
ATOM      5  C   UNL     1     139.827 133.574 164.477  1.00  0.00     0.305 C 
ATOM      6  O   UNL     1     138.978 132.877 164.036  1.00  0.00    -0.252 OA
BRANCH   5   7
ATOM      7  O   UNL     1     139.882 133.849 165.845  1.00  0.00    -0.463 OA
BRANCH   7   8
ATOM      8  C   UNL     1     139.138 134.972 166.212  1.00  0.00     0.267 C 
BRANCH   8   9
ATOM      9  C   UNL     1     138.225 134.605 167.376  1.00  0.00     0.178 C 
BRANCH   9  10
ATOM     10  C   UNL     1     137.851 133.131 167.285  1.00  0.00     0.201 C 
BRANCH  10  11
ATOM     11  O   UNL     1     137.981 132.550 168.547  1.00  0.00    -0.348 OA
BRANCH  11  12
ATOM     12  P   UNL     1     137.127 131.179 168.843  1.00  0.00     0.060 P 
ATOM     13  O   UNL     1     136.203 130.922 167.681  1.00  0.00    -0.326 OA
ATOM     14  O   UNL     1     136.318 131.357 170.104  1.00  0.00    -0.790 OA
ATOM     15  O   UNL     1     138.082 130.024 169.012  1.00  0.00    -0.790 OA
ENDBRANCH  11  12
ENDBRANCH  10  11
ENDBRANCH   9  10
BRANCH   9  16
ATOM     16  O   UNL     1     137.065 135.382 167.316  1.00  0.00    -0.387 OA
ATOM     17  H   UNL     1     137.167 136.064 166.634  1.00  0.00     0.211 HD
ENDBRANCH   9  16
ENDBRANCH   8   9
ENDBRANCH   7   8
ENDBRANCH   5   7
ENDBRANCH   4   5
ENDBRANCH   3   4
ENDBRANCH   2   3
ENDBRANCH   1   2
BRANCH   1  18
ATOM     18  C   UNL     1     143.696 134.752 161.037  1.00  0.00     0.000 C 
BRANCH  18  19
ATOM     19  C   UNL     1     142.455 135.472 160.513  1.00  0.00     0.004 C 
BRANCH  19  20
ATOM     20  C   UNL     1     141.750 134.640 159.444  1.00  0.00     0.027 C 
BRANCH  20  21
ATOM     21  C   UNL     1     141.269 133.327 160.052  1.00  0.00    -0.031 C 
ATOM     22  C   UNL     1     141.719 132.186 159.582  1.00  0.00    -0.031 C 
BRANCH  22  23
ATOM     23  C   UNL     1     141.241 130.872 160.190  1.00  0.00     0.027 C 
BRANCH  23  24
ATOM     24  C   UNL     1     141.994 129.713 159.546  1.00  0.00     0.004 C 
BRANCH  24  25
ATOM     25  C   UNL     1     143.372 129.556 160.186  1.00  0.00     0.000 C 
BRANCH  25  26
ATOM     26  C   UNL     1     143.241 129.554 161.706  1.00  0.00     0.000 C 
BRANCH  26  27
ATOM     27  C   UNL     1     142.482 128.317 162.172  1.00  0.00    -0.000 C 
BRANCH  27  28
ATOM     28  C   UNL     1     141.811 128.669 163.493  1.00  0.00    -0.000 C 
BRANCH  28  29
ATOM     29  C   UNL     1     142.610 129.736 164.229  1.00  0.00    -0.003 C 
ATOM     30  C   UNL     1     141.639 130.601 165.025  1.00  0.00     0.004 C 
ENDBRANCH  28  29
ENDBRANCH  27  28
ENDBRANCH  26  27
ENDBRANCH  25  26
ENDBRANCH  24  25
ENDBRANCH  23  24
ENDBRANCH  22  23
ENDBRANCH  20  21
ENDBRANCH  19  20
ENDBRANCH  18  19
ENDBRANCH   1  18
TORSDOF 22
ENDMDL
MODEL 8
REMARK VINA RESULT:      -6.7      1.459      2.513
REMARK SMILES CCCCCCCC/C=C/CCCCCCCC(=O)OC[C@@H](O)COP(=O)([O-])[O-]
REMARK SMILES IDX 14 1 15 2 16 3 17 4 18 5 19 6 20 7 21 8 22 9 24 10 25 11
REMARK SMILES IDX 26 12 27 13 28 14 29 15 23 16 13 18 12 19 11 20 10 21 9 22
REMARK SMILES IDX 8 23 7 24 6 25 5 26 4 27 3 28 2 29 1 30
REMARK H PARENT 23 17
REMARK INDEX MAP 15 1 14 2 13 3 12 4 11 5 5 6 10 7 9 8 8 9 7 10 6 11 3 12 2 13
REMARK INDEX MAP 1 14 4 15 29 16 68 17 16 18 17 19 18 20 19 21 20 22 21 23
REMARK INDEX MAP 22 24 23 25 24 26 25 27 26 28 27 29 28 30
ROOT
ATOM      1  C   UNL     1     143.016 130.017 164.194  1.00  0.00     0.000 C 
ENDROOT
BRANCH   1   2
ATOM      2  C   UNL     1     142.241 131.249 164.655  1.00  0.00     0.001 C 
BRANCH   2   3
ATOM      3  C   UNL     1     140.782 130.876 164.890  1.00  0.00     0.012 C 
BRANCH   3   4
ATOM      4  C   UNL     1     139.908 131.629 163.892  1.00  0.00     0.123 C 
BRANCH   4   5
ATOM      5  C   UNL     1     138.633 132.074 164.599  1.00  0.00     0.305 C 
ATOM      6  O   UNL     1     137.623 132.192 163.993  1.00  0.00    -0.252 OA
BRANCH   5   7
ATOM      7  O   UNL     1     138.680 132.361 165.964  1.00  0.00    -0.463 OA
BRANCH   7   8
ATOM      8  C   UNL     1     137.423 132.601 166.522  1.00  0.00     0.267 C 
BRANCH   8   9
ATOM      9  C   UNL     1     137.520 132.483 168.038  1.00  0.00     0.178 C 
BRANCH   9  10
ATOM     10  C   UNL     1     136.603 133.510 168.688  1.00  0.00     0.201 C 
BRANCH  10  11
ATOM     11  O   UNL     1     136.955 133.648 170.032  1.00  0.00    -0.348 OA
BRANCH  11  12
ATOM     12  P   UNL     1     135.862 133.158 171.156  1.00  0.00     0.060 P 
ATOM     13  O   UNL     1     135.083 131.993 170.601  1.00  0.00    -0.326 OA
ATOM     14  O   UNL     1     134.920 134.295 171.466  1.00  0.00    -0.790 OA
ATOM     15  O   UNL     1     136.590 132.746 172.411  1.00  0.00    -0.790 OA
ENDBRANCH  11  12
ENDBRANCH  10  11
ENDBRANCH   9  10
BRANCH   9  16
ATOM     16  O   UNL     1     138.839 132.720 168.437  1.00  0.00    -0.387 OA
ATOM     17  H   UNL     1     138.951 133.662 168.639  1.00  0.00     0.211 HD
ENDBRANCH   9  16
ENDBRANCH   8   9
ENDBRANCH   7   8
ENDBRANCH   5   7
ENDBRANCH   4   5
ENDBRANCH   3   4
ENDBRANCH   2   3
ENDBRANCH   1   2
BRANCH   1  18
ATOM     18  C   UNL     1     142.052 128.856 163.952  1.00  0.00     0.000 C 
BRANCH  18  19
ATOM     19  C   UNL     1     141.880 128.669 162.447  1.00  0.00     0.004 C 
BRANCH  19  20
ATOM     20  C   UNL     1     143.199 128.898 161.712  1.00  0.00     0.027 C 
BRANCH  20  21
ATOM     21  C   UNL     1     142.960 129.789 160.497  1.00  0.00    -0.031 C 
ATOM     22  C   UNL     1     141.952 130.632 160.494  1.00  0.00    -0.031 C 
BRANCH  22  23
ATOM     23  C   UNL     1     141.712 131.525 159.282  1.00  0.00     0.027 C 
BRANCH  23  24
ATOM     24  C   UNL     1     140.729 132.630 159.654  1.00  0.00     0.004 C 
BRANCH  24  25
ATOM     25  C   UNL     1     141.404 133.996 159.554  1.00  0.00     0.000 C 
BRANCH  25  26
ATOM     26  C   UNL     1     142.920 133.826 159.542  1.00  0.00     0.000 C 
BRANCH  26  27
ATOM     27  C   UNL     1     143.548 134.585 160.706  1.00  0.00    -0.000 C 
BRANCH  27  28
ATOM     28  C   UNL     1     143.335 133.745 161.960  1.00  0.00    -0.000 C 
BRANCH  28  29
ATOM     29  C   UNL     1     142.581 134.544 163.014  1.00  0.00    -0.003 C 
ATOM     30  C   UNL     1     142.531 136.001 162.569  1.00  0.00     0.004 C 
ENDBRANCH  28  29
ENDBRANCH  27  28
ENDBRANCH  26  27
ENDBRANCH  25  26
ENDBRANCH  24  25
ENDBRANCH  23  24
ENDBRANCH  22  23
ENDBRANCH  20  21
ENDBRANCH  19  20
ENDBRANCH  18  19
ENDBRANCH   1  18
TORSDOF 22
ENDMDL
MODEL 9
REMARK VINA RESULT:      -6.7      1.591      4.092
REMARK SMILES CCCCCCCC/C=C/CCCCCCCC(=O)OC[C@@H](O)COP(=O)([O-])[O-]
REMARK SMILES IDX 14 1 15 2 16 3 17 4 18 5 19 6 20 7 21 8 22 9 24 10 25 11
REMARK SMILES IDX 26 12 27 13 28 14 29 15 23 16 13 18 12 19 11 20 10 21 9 22
REMARK SMILES IDX 8 23 7 24 6 25 5 26 4 27 3 28 2 29 1 30
REMARK H PARENT 23 17
REMARK INDEX MAP 15 1 14 2 13 3 12 4 11 5 5 6 10 7 9 8 8 9 7 10 6 11 3 12 2 13
REMARK INDEX MAP 1 14 4 15 29 16 68 17 16 18 17 19 18 20 19 21 20 22 21 23
REMARK INDEX MAP 22 24 23 25 24 26 25 27 26 28 27 29 28 30
ROOT
ATOM      1  C   UNL     1     143.238 136.032 160.802  1.00  0.00     0.000 C 
ENDROOT
BRANCH   1   2
ATOM      2  C   UNL     1     143.534 134.970 161.858  1.00  0.00     0.001 C 
BRANCH   2   3
ATOM      3  C   UNL     1     143.048 135.454 163.219  1.00  0.00     0.012 C 
BRANCH   3   4
ATOM      4  C   UNL     1     141.716 134.783 163.540  1.00  0.00     0.123 C 
BRANCH   4   5
ATOM      5  C   UNL     1     141.849 134.044 164.866  1.00  0.00     0.305 C 
ATOM      6  O   UNL     1     142.654 133.184 164.994  1.00  0.00    -0.252 OA
BRANCH   5   7
ATOM      7  O   UNL     1     140.997 134.381 165.919  1.00  0.00    -0.463 OA
BRANCH   7   8
ATOM      8  C   UNL     1     140.907 133.388 166.897  1.00  0.00     0.267 C 
BRANCH   8   9
ATOM      9  C   UNL     1     139.669 132.540 166.633  1.00  0.00     0.178 C 
BRANCH   9  10
ATOM     10  C   UNL     1     138.526 133.019 167.518  1.00  0.00     0.201 C 
BRANCH  10  11
ATOM     11  O   UNL     1     138.159 131.989 168.385  1.00  0.00    -0.348 OA
BRANCH  11  12
ATOM     12  P   UNL     1     136.555 131.727 168.617  1.00  0.00     0.060 P 
ATOM     13  O   UNL     1     135.802 132.985 168.270  1.00  0.00    -0.326 OA
ATOM     14  O   UNL     1     136.310 131.372 170.063  1.00  0.00    -0.790 OA
ATOM     15  O   UNL     1     136.103 130.591 167.733  1.00  0.00    -0.790 OA
ENDBRANCH  11  12
ENDBRANCH  10  11
ENDBRANCH   9  10
BRANCH   9  16
ATOM     16  O   UNL     1     139.953 131.203 166.927  1.00  0.00    -0.387 OA
ATOM     17  H   UNL     1     140.863 130.999 166.661  1.00  0.00     0.211 HD
ENDBRANCH   9  16
ENDBRANCH   8   9
ENDBRANCH   7   8
ENDBRANCH   5   7
ENDBRANCH   4   5
ENDBRANCH   3   4
ENDBRANCH   2   3
ENDBRANCH   1   2
BRANCH   1  18
ATOM     18  C   UNL     1     142.102 135.562 159.896  1.00  0.00     0.000 C 
BRANCH  18  19
ATOM     19  C   UNL     1     142.487 134.218 159.283  1.00  0.00     0.004 C 
BRANCH  19  20
ATOM     20  C   UNL     1     141.297 133.262 159.268  1.00  0.00     0.027 C 
BRANCH  20  21
ATOM     21  C   UNL     1     141.760 131.862 159.660  1.00  0.00    -0.031 C 
ATOM     22  C   UNL     1     143.000 131.670 160.050  1.00  0.00    -0.031 C 
BRANCH  22  23
ATOM     23  C   UNL     1     143.464 130.273 160.444  1.00  0.00     0.027 C 
BRANCH  23  24
ATOM     24  C   UNL     1     142.421 129.250 160.005  1.00  0.00     0.004 C 
BRANCH  24  25
ATOM     25  C   UNL     1     142.176 128.233 161.118  1.00  0.00     0.000 C 
BRANCH  25  26
ATOM     26  C   UNL     1     142.735 128.762 162.436  1.00  0.00     0.000 C 
BRANCH  26  27
ATOM     27  C   UNL     1     141.604 129.024 163.425  1.00  0.00    -0.000 C 
BRANCH  27  28
ATOM     28  C   UNL     1     141.379 130.530 163.463  1.00  0.00    -0.000 C 
BRANCH  28  29
ATOM     29  C   UNL     1     139.891 130.848 163.398  1.00  0.00    -0.003 C 
ATOM     30  C   UNL     1     139.667 131.881 162.300  1.00  0.00     0.004 C 
ENDBRANCH  28  29
ENDBRANCH  27  28
ENDBRANCH  26  27
ENDBRANCH  25  26
ENDBRANCH  24  25
ENDBRANCH  23  24
ENDBRANCH  22  23
ENDBRANCH  20  21
ENDBRANCH  19  20
ENDBRANCH  18  19
ENDBRANCH   1  18
TORSDOF 22
ENDMDL
