MODEL 1
REMARK VINA RESULT:      -8.0      0.000      0.000
REMARK SMILES CCCCCCc1ccccc1CCCCC(=O)N[C@H](CO)COP(=O)([O-])[O-]
REMARK SMILES IDX 14 1 15 2 16 3 17 4 19 5 18 6 20 8 23 9 24 10 25 11 26 12
REMARK SMILES IDX 27 13 28 14 21 15 22 16 13 18 12 19 7 20 11 21 8 22 10 23
REMARK SMILES IDX 9 24 6 25 5 26 4 27 3 28 2 29 1 30
REMARK H PARENT 19 7 22 17
REMARK INDEX MAP 18 1 9 2 19 3 10 4 1 5 20 6 29 7 21 8 11 9 24 10 25 11 26 12
REMARK INDEX MAP 27 13 28 14 22 15 23 16 60 17 8 18 17 19 5 20 16 21 6 22 7 23
REMARK INDEX MAP 15 24 4 25 3 26 2 27 14 28 13 29 12 30
ROOT
ATOM      1  C   UNL     1     141.333 131.679 164.905  1.00  0.00     0.005 C 
ENDROOT
BRANCH   1   2
ATOM      2  C   UNL     1     141.577 133.169 165.138  1.00  0.00     0.010 C 
BRANCH   2   3
ATOM      3  C   UNL     1     141.148 133.715 166.469  1.00  0.00     0.100 C 
BRANCH   3   4
ATOM      4  C   UNL     1     139.692 134.095 166.598  1.00  0.00     0.220 C 
ATOM      5  N   UNL     1     138.897 133.357 167.369  1.00  0.00    -0.349 N 
ATOM      6  O   UNL     1     139.253 135.075 165.997  1.00  0.00    -0.275 OA
ATOM      7  H   UNL     1     139.277 132.619 167.898  1.00  0.00     0.163 HD
BRANCH   5   8
ATOM      8  C   UNL     1     137.471 133.630 167.434  1.00  0.00     0.133 C 
BRANCH   8   9
ATOM      9  C   UNL     1     136.855 132.257 167.576  1.00  0.00     0.193 C 
BRANCH   9  10
ATOM     10  O   UNL     1     137.719 131.351 168.287  1.00  0.00    -0.349 OA
BRANCH  10  11
ATOM     11  P   UNL     1     136.976 130.345 169.288  1.00  0.00     0.060 P 
ATOM     12  O   UNL     1     135.974 131.247 169.997  1.00  0.00    -0.326 OA
ATOM     13  O   UNL     1     136.312 129.283 168.413  1.00  0.00    -0.790 OA
ATOM     14  O   UNL     1     138.024 129.754 170.215  1.00  0.00    -0.790 OA
ENDBRANCH  10  11
ENDBRANCH   9  10
ENDBRANCH   8   9
BRANCH   8  15
ATOM     15  C   UNL     1     137.128 134.553 168.595  1.00  0.00     0.183 C 
BRANCH  15  16
ATOM     16  O   UNL     1     137.380 134.001 169.868  1.00  0.00    -0.394 OA
ATOM     17  H   UNL     1     136.542 133.894 170.345  1.00  0.00     0.210 HD
ENDBRANCH  15  16
ENDBRANCH   8  15
ENDBRANCH   5   8
ENDBRANCH   3   4
ENDBRANCH   2   3
ENDBRANCH   1   2
BRANCH   1  18
ATOM     18  C   UNL     1     140.827 131.382 163.519  1.00  0.00     0.036 C 
BRANCH  18  19
ATOM     19  C   UNL     1     141.645 130.420 162.681  1.00  0.00    -0.045 A 
ATOM     20  C   UNL     1     142.654 130.890 161.828  1.00  0.00    -0.045 A 
ATOM     21  C   UNL     1     141.458 129.046 162.779  1.00  0.00     0.004 A 
ATOM     22  C   UNL     1     143.415 129.979 161.097  1.00  0.00     0.004 A 
ATOM     23  C   UNL     1     142.199 128.164 162.023  1.00  0.00     0.000 A 
ATOM     24  C   UNL     1     143.175 128.629 161.178  1.00  0.00     0.000 A 
BRANCH  20  25
ATOM     25  C   UNL     1     142.926 132.375 161.657  1.00  0.00     0.036 C 
BRANCH  25  26
ATOM     26  C   UNL     1     142.913 132.795 160.208  1.00  0.00     0.005 C 
BRANCH  26  27
ATOM     27  C   UNL     1     141.683 133.587 159.803  1.00  0.00     0.000 C 
BRANCH  27  28
ATOM     28  C   UNL     1     140.547 132.748 159.313  1.00  0.00    -0.000 C 
BRANCH  28  29
ATOM     29  C   UNL     1     140.967 131.368 158.902  1.00  0.00    -0.003 C 
ATOM     30  C   UNL     1     139.873 130.496 158.332  1.00  0.00     0.004 C 
ENDBRANCH  28  29
ENDBRANCH  27  28
ENDBRANCH  26  27
ENDBRANCH  25  26
ENDBRANCH  20  25
ENDBRANCH  18  19
ENDBRANCH   1  18
TORSDOF 16
ENDMDL
MODEL 2
REMARK VINA RESULT:      -7.6      1.176      2.039
REMARK SMILES CCCCCCc1ccccc1CCCCC(=O)N[C@H](CO)COP(=O)([O-])[O-]
REMARK SMILES IDX 14 1 15 2 16 3 17 4 19 5 18 6 20 8 23 9 24 10 25 11 26 12
REMARK SMILES IDX 27 13 28 14 21 15 22 16 13 18 12 19 7 20 11 21 8 22 10 23
REMARK SMILES IDX 9 24 6 25 5 26 4 27 3 28 2 29 1 30
REMARK H PARENT 19 7 22 17
REMARK INDEX MAP 18 1 9 2 19 3 10 4 1 5 20 6 29 7 21 8 11 9 24 10 25 11 26 12
REMARK INDEX MAP 27 13 28 14 22 15 23 16 60 17 8 18 17 19 5 20 16 21 6 22 7 23
REMARK INDEX MAP 15 24 4 25 3 26 2 27 14 28 13 29 12 30
ROOT
ATOM      1  C   UNL     1     141.339 133.412 164.168  1.00  0.00     0.005 C 
ENDROOT
BRANCH   1   2
ATOM      2  C   UNL     1     141.170 134.147 165.496  1.00  0.00     0.010 C 
BRANCH   2   3
ATOM      3  C   UNL     1     140.362 133.445 166.549  1.00  0.00     0.100 C 
BRANCH   3   4
ATOM      4  C   UNL     1     138.999 134.026 166.843  1.00  0.00     0.220 C 
ATOM      5  N   UNL     1     138.076 133.255 167.413  1.00  0.00    -0.349 N 
ATOM      6  O   UNL     1     138.751 135.198 166.559  1.00  0.00    -0.275 OA
ATOM      7  H   UNL     1     138.311 132.343 167.699  1.00  0.00     0.163 HD
BRANCH   5   8
ATOM      8  C   UNL     1     136.725 133.748 167.615  1.00  0.00     0.133 C 
BRANCH   8   9
ATOM      9  C   UNL     1     135.893 132.487 167.670  1.00  0.00     0.193 C 
BRANCH   9  10
ATOM     10  O   UNL     1     136.696 131.306 167.486  1.00  0.00    -0.349 OA
BRANCH  10  11
ATOM     11  P   UNL     1     136.988 130.466 168.819  1.00  0.00     0.060 P 
ATOM     12  O   UNL     1     136.282 129.144 168.551  1.00  0.00    -0.326 OA
ATOM     13  O   UNL     1     138.506 130.327 168.913  1.00  0.00    -0.790 OA
ATOM     14  O   UNL     1     136.407 131.239 169.991  1.00  0.00    -0.790 OA
ENDBRANCH  10  11
ENDBRANCH   9  10
ENDBRANCH   8   9
BRANCH   8  15
ATOM     15  C   UNL     1     136.614 134.582 168.884  1.00  0.00     0.183 C 
BRANCH  15  16
ATOM     16  O   UNL     1     137.305 134.048 169.991  1.00  0.00    -0.394 OA
ATOM     17  H   UNL     1     138.253 134.007 169.791  1.00  0.00     0.210 HD
ENDBRANCH  15  16
ENDBRANCH   8  15
ENDBRANCH   5   8
ENDBRANCH   3   4
ENDBRANCH   2   3
ENDBRANCH   1   2
BRANCH   1  18
ATOM     18  C   UNL     1     142.559 132.532 164.140  1.00  0.00     0.036 C 
BRANCH  18  19
ATOM     19  C   UNL     1     142.396 131.150 163.538  1.00  0.00    -0.045 A 
ATOM     20  C   UNL     1     142.505 130.953 162.154  1.00  0.00    -0.045 A 
ATOM     21  C   UNL     1     142.196 130.036 164.345  1.00  0.00     0.004 A 
ATOM     22  C   UNL     1     142.389 129.665 161.633  1.00  0.00     0.004 A 
ATOM     23  C   UNL     1     142.051 128.775 163.807  1.00  0.00     0.000 A 
ATOM     24  C   UNL     1     142.142 128.589 162.451  1.00  0.00     0.000 A 
BRANCH  20  25
ATOM     25  C   UNL     1     142.721 132.114 161.197  1.00  0.00     0.036 C 
BRANCH  25  26
ATOM     26  C   UNL     1     141.508 132.381 160.341  1.00  0.00     0.005 C 
BRANCH  26  27
ATOM     27  C   UNL     1     141.632 133.609 159.458  1.00  0.00     0.000 C 
BRANCH  27  28
ATOM     28  C   UNL     1     142.225 134.799 160.141  1.00  0.00    -0.000 C 
BRANCH  28  29
ATOM     29  C   UNL     1     143.390 135.384 159.401  1.00  0.00    -0.003 C 
ATOM     30  C   UNL     1     144.455 134.398 158.979  1.00  0.00     0.004 C 
ENDBRANCH  28  29
ENDBRANCH  27  28
ENDBRANCH  26  27
ENDBRANCH  25  26
ENDBRANCH  20  25
ENDBRANCH  18  19
ENDBRANCH   1  18
TORSDOF 16
ENDMDL
MODEL 3
REMARK VINA RESULT:      -7.6      1.980      2.953
REMARK SMILES CCCCCCc1ccccc1CCCCC(=O)N[C@H](CO)COP(=O)([O-])[O-]
REMARK SMILES IDX 14 1 15 2 16 3 17 4 19 5 18 6 20 8 23 9 24 10 25 11 26 12
REMARK SMILES IDX 27 13 28 14 21 15 22 16 13 18 12 19 7 20 11 21 8 22 10 23
REMARK SMILES IDX 9 24 6 25 5 26 4 27 3 28 2 29 1 30
REMARK H PARENT 19 7 22 17
REMARK INDEX MAP 18 1 9 2 19 3 10 4 1 5 20 6 29 7 21 8 11 9 24 10 25 11 26 12
REMARK INDEX MAP 27 13 28 14 22 15 23 16 60 17 8 18 17 19 5 20 16 21 6 22 7 23
REMARK INDEX MAP 15 24 4 25 3 26 2 27 14 28 13 29 12 30
ROOT
ATOM      1  C   UNL     1     141.357 131.441 164.281  1.00  0.00     0.005 C 
ENDROOT
BRANCH   1   2
ATOM      2  C   UNL     1     140.133 132.341 164.119  1.00  0.00     0.010 C 
BRANCH   2   3
ATOM      3  C   UNL     1     138.841 131.655 163.780  1.00  0.00     0.100 C 
BRANCH   3   4
ATOM      4  C   UNL     1     137.610 132.159 164.497  1.00  0.00     0.220 C 
ATOM      5  N   UNL     1     137.736 132.666 165.720  1.00  0.00    -0.349 N 
ATOM      6  O   UNL     1     136.509 132.099 163.950  1.00  0.00    -0.275 OA
ATOM      7  H   UNL     1     138.631 132.773 166.116  1.00  0.00     0.163 HD
BRANCH   5   8
ATOM      8  C   UNL     1     136.562 133.063 166.478  1.00  0.00     0.133 C 
BRANCH   8   9
ATOM      9  C   UNL     1     136.415 131.963 167.504  1.00  0.00     0.193 C 
BRANCH   9  10
ATOM     10  O   UNL     1     135.532 132.342 168.576  1.00  0.00    -0.349 OA
BRANCH  10  11
ATOM     11  P   UNL     1     136.070 132.017 170.050  1.00  0.00     0.060 P 
ATOM     12  O   UNL     1     136.657 133.349 170.500  1.00  0.00    -0.326 OA
ATOM     13  O   UNL     1     134.852 131.591 170.866  1.00  0.00    -0.790 OA
ATOM     14  O   UNL     1     137.101 130.908 169.933  1.00  0.00    -0.790 OA
ENDBRANCH  10  11
ENDBRANCH   9  10
ENDBRANCH   8   9
BRANCH   8  15
ATOM     15  C   UNL     1     136.737 134.437 167.110  1.00  0.00     0.183 C 
BRANCH  15  16
ATOM     16  O   UNL     1     137.849 134.541 167.973  1.00  0.00    -0.394 OA
ATOM     17  H   UNL     1     138.251 135.418 167.877  1.00  0.00     0.210 HD
ENDBRANCH  15  16
ENDBRANCH   8  15
ENDBRANCH   5   8
ENDBRANCH   3   4
ENDBRANCH   2   3
ENDBRANCH   1   2
BRANCH   1  18
ATOM     18  C   UNL     1     142.411 131.697 163.237  1.00  0.00     0.036 C 
BRANCH  18  19
ATOM     19  C   UNL     1     142.399 130.802 162.014  1.00  0.00    -0.045 A 
ATOM     20  C   UNL     1     141.971 131.291 160.770  1.00  0.00    -0.045 A 
ATOM     21  C   UNL     1     142.868 129.495 162.077  1.00  0.00     0.004 A 
ATOM     22  C   UNL     1     142.007 130.456 159.656  1.00  0.00     0.004 A 
ATOM     23  C   UNL     1     142.865 128.676 160.969  1.00  0.00     0.000 A 
ATOM     24  C   UNL     1     142.430 129.153 159.759  1.00  0.00     0.000 A 
BRANCH  20  25
ATOM     25  C   UNL     1     141.441 132.706 160.610  1.00  0.00     0.036 C 
BRANCH  25  26
ATOM     26  C   UNL     1     142.471 133.638 160.022  1.00  0.00     0.005 C 
BRANCH  26  27
ATOM     27  C   UNL     1     142.748 134.868 160.868  1.00  0.00     0.000 C 
BRANCH  27  28
ATOM     28  C   UNL     1     141.758 135.092 161.966  1.00  0.00    -0.000 C 
BRANCH  28  29
ATOM     29  C   UNL     1     142.324 135.863 163.121  1.00  0.00    -0.003 C 
ATOM     30  C   UNL     1     143.693 135.426 163.588  1.00  0.00     0.004 C 
ENDBRANCH  28  29
ENDBRANCH  27  28
ENDBRANCH  26  27
ENDBRANCH  25  26
ENDBRANCH  20  25
ENDBRANCH  18  19
ENDBRANCH   1  18
TORSDOF 16
ENDMDL
MODEL 4
REMARK VINA RESULT:      -7.6      1.144      2.028
REMARK SMILES CCCCCCc1ccccc1CCCCC(=O)N[C@H](CO)COP(=O)([O-])[O-]
REMARK SMILES IDX 14 1 15 2 16 3 17 4 19 5 18 6 20 8 23 9 24 10 25 11 26 12
REMARK SMILES IDX 27 13 28 14 21 15 22 16 13 18 12 19 7 20 11 21 8 22 10 23
REMARK SMILES IDX 9 24 6 25 5 26 4 27 3 28 2 29 1 30
REMARK H PARENT 19 7 22 17
REMARK INDEX MAP 18 1 9 2 19 3 10 4 1 5 20 6 29 7 21 8 11 9 24 10 25 11 26 12
REMARK INDEX MAP 27 13 28 14 22 15 23 16 60 17 8 18 17 19 5 20 16 21 6 22 7 23
REMARK INDEX MAP 15 24 4 25 3 26 2 27 14 28 13 29 12 30
ROOT
ATOM      1  C   UNL     1     141.985 133.569 163.343  1.00  0.00     0.005 C 
ENDROOT
BRANCH   1   2
ATOM      2  C   UNL     1     142.066 133.675 164.864  1.00  0.00     0.010 C 
BRANCH   2   3
ATOM      3  C   UNL     1     141.087 134.603 165.522  1.00  0.00     0.100 C 
BRANCH   3   4
ATOM      4  C   UNL     1     139.685 134.073 165.709  1.00  0.00     0.220 C 
ATOM      5  N   UNL     1     139.056 134.298 166.860  1.00  0.00    -0.349 N 
ATOM      6  O   UNL     1     139.136 133.443 164.805  1.00  0.00    -0.275 OA
ATOM      7  H   UNL     1     139.479 134.864 167.545  1.00  0.00     0.163 HD
BRANCH   5   8
ATOM      8  C   UNL     1     137.750 133.716 167.113  1.00  0.00     0.133 C 
BRANCH   8   9
ATOM      9  C   UNL     1     138.059 132.263 167.393  1.00  0.00     0.193 C 
BRANCH   9  10
ATOM     10  O   UNL     1     136.886 131.531 167.792  1.00  0.00    -0.349 OA
BRANCH  10  11
ATOM     11  P   UNL     1     137.110 130.480 168.981  1.00  0.00     0.060 P 
ATOM     12  O   UNL     1     136.255 129.294 168.553  1.00  0.00    -0.326 OA
ATOM     13  O   UNL     1     138.605 130.167 168.999  1.00  0.00    -0.790 OA
ATOM     14  O   UNL     1     136.643 131.133 170.270  1.00  0.00    -0.790 OA
ENDBRANCH  10  11
ENDBRANCH   9  10
ENDBRANCH   8   9
BRANCH   8  15
ATOM     15  C   UNL     1     137.043 134.401 168.275  1.00  0.00     0.183 C 
BRANCH  15  16
ATOM     16  O   UNL     1     137.523 134.026 169.547  1.00  0.00    -0.394 OA
ATOM     17  H   UNL     1     137.231 133.124 169.749  1.00  0.00     0.210 HD
ENDBRANCH  15  16
ENDBRANCH   8  15
ENDBRANCH   5   8
ENDBRANCH   3   4
ENDBRANCH   2   3
ENDBRANCH   1   2
BRANCH   1  18
ATOM     18  C   UNL     1     142.986 132.601 162.773  1.00  0.00     0.036 C 
BRANCH  18  19
ATOM     19  C   UNL     1     142.580 131.141 162.721  1.00  0.00    -0.045 A 
ATOM     20  C   UNL     1     142.571 130.441 161.506  1.00  0.00    -0.045 A 
ATOM     21  C   UNL     1     142.265 130.444 163.882  1.00  0.00     0.004 A 
ATOM     22  C   UNL     1     142.230 129.090 161.495  1.00  0.00     0.004 A 
ATOM     23  C   UNL     1     141.899 129.115 163.845  1.00  0.00     0.000 A 
ATOM     24  C   UNL     1     141.876 128.439 162.652  1.00  0.00     0.000 A 
BRANCH  20  25
ATOM     25  C   UNL     1     142.899 131.125 160.189  1.00  0.00     0.036 C 
BRANCH  25  26
ATOM     26  C   UNL     1     141.664 131.409 159.371  1.00  0.00     0.005 C 
BRANCH  26  27
ATOM     27  C   UNL     1     140.900 132.645 159.811  1.00  0.00     0.000 C 
BRANCH  27  28
ATOM     28  C   UNL     1     141.283 133.893 159.085  1.00  0.00    -0.000 C 
BRANCH  28  29
ATOM     29  C   UNL     1     142.201 134.777 159.875  1.00  0.00    -0.003 C 
ATOM     30  C   UNL     1     143.674 134.620 159.575  1.00  0.00     0.004 C 
ENDBRANCH  28  29
ENDBRANCH  27  28
ENDBRANCH  26  27
ENDBRANCH  25  26
ENDBRANCH  20  25
ENDBRANCH  18  19
ENDBRANCH   1  18
TORSDOF 16
ENDMDL
MODEL 5
REMARK VINA RESULT:      -7.6      1.301      3.286
REMARK SMILES CCCCCCc1ccccc1CCCCC(=O)N[C@H](CO)COP(=O)([O-])[O-]
REMARK SMILES IDX 14 1 15 2 16 3 17 4 19 5 18 6 20 8 23 9 24 10 25 11 26 12
REMARK SMILES IDX 27 13 28 14 21 15 22 16 13 18 12 19 7 20 11 21 8 22 10 23
REMARK SMILES IDX 9 24 6 25 5 26 4 27 3 28 2 29 1 30
REMARK H PARENT 19 7 22 17
REMARK INDEX MAP 18 1 9 2 19 3 10 4 1 5 20 6 29 7 21 8 11 9 24 10 25 11 26 12
REMARK INDEX MAP 27 13 28 14 22 15 23 16 60 17 8 18 17 19 5 20 16 21 6 22 7 23
REMARK INDEX MAP 15 24 4 25 3 26 2 27 14 28 13 29 12 30
ROOT
ATOM      1  C   UNL     1     142.305 133.718 164.423  1.00  0.00     0.005 C 
ENDROOT
BRANCH   1   2
ATOM      2  C   UNL     1     141.766 134.411 165.673  1.00  0.00     0.010 C 
BRANCH   2   3
ATOM      3  C   UNL     1     140.938 133.567 166.599  1.00  0.00     0.100 C 
BRANCH   3   4
ATOM      4  C   UNL     1     139.457 133.862 166.627  1.00  0.00     0.220 C 
ATOM      5  N   UNL     1     138.733 133.440 167.660  1.00  0.00    -0.349 N 
ATOM      6  O   UNL     1     138.933 134.486 165.704  1.00  0.00    -0.275 OA
ATOM      7  H   UNL     1     139.177 133.005 168.423  1.00  0.00     0.163 HD
BRANCH   5   8
ATOM      8  C   UNL     1     137.290 133.614 167.671  1.00  0.00     0.133 C 
BRANCH   8   9
ATOM      9  C   UNL     1     136.763 132.198 167.678  1.00  0.00     0.193 C 
BRANCH   9  10
ATOM     10  O   UNL     1     137.644 131.300 168.379  1.00  0.00    -0.349 OA
BRANCH  10  11
ATOM     11  P   UNL     1     136.919 130.265 169.364  1.00  0.00     0.060 P 
ATOM     12  O   UNL     1     136.314 129.248 168.404  1.00  0.00    -0.326 OA
ATOM     13  O   UNL     1     138.015 129.676 170.249  1.00  0.00    -0.790 OA
ATOM     14  O   UNL     1     135.884 131.035 170.166  1.00  0.00    -0.790 OA
ENDBRANCH  10  11
ENDBRANCH   9  10
ENDBRANCH   8   9
BRANCH   8  15
ATOM     15  C   UNL     1     136.830 134.419 168.878  1.00  0.00     0.183 C 
BRANCH  15  16
ATOM     16  O   UNL     1     135.969 133.719 169.748  1.00  0.00    -0.394 OA
ATOM     17  H   UNL     1     135.976 132.776 169.520  1.00  0.00     0.210 HD
ENDBRANCH  15  16
ENDBRANCH   8  15
ENDBRANCH   5   8
ENDBRANCH   3   4
ENDBRANCH   2   3
ENDBRANCH   1   2
BRANCH   1  18
ATOM     18  C   UNL     1     141.409 133.894 163.227  1.00  0.00     0.036 C 
BRANCH  18  19
ATOM     19  C   UNL     1     142.065 134.340 161.936  1.00  0.00    -0.045 A 
ATOM     20  C   UNL     1     142.667 133.408 161.077  1.00  0.00    -0.045 A 
ATOM     21  C   UNL     1     142.036 135.672 161.539  1.00  0.00     0.004 A 
ATOM     22  C   UNL     1     143.229 133.842 159.878  1.00  0.00     0.004 A 
ATOM     23  C   UNL     1     142.627 136.085 160.364  1.00  0.00     0.000 A 
ATOM     24  C   UNL     1     143.228 135.173 159.536  1.00  0.00     0.000 A 
BRANCH  20  25
ATOM     25  C   UNL     1     142.746 131.932 161.432  1.00  0.00     0.036 C 
BRANCH  25  26
ATOM     26  C   UNL     1     141.517 131.174 160.996  1.00  0.00     0.005 C 
BRANCH  26  27
ATOM     27  C   UNL     1     141.577 130.665 159.568  1.00  0.00     0.000 C 
BRANCH  27  28
ATOM     28  C   UNL     1     142.054 129.254 159.439  1.00  0.00    -0.000 C 
BRANCH  28  29
ATOM     29  C   UNL     1     142.579 128.690 160.725  1.00  0.00    -0.003 C 
ATOM     30  C   UNL     1     144.072 128.459 160.774  1.00  0.00     0.004 C 
ENDBRANCH  28  29
ENDBRANCH  27  28
ENDBRANCH  26  27
ENDBRANCH  25  26
ENDBRANCH  20  25
ENDBRANCH  18  19
ENDBRANCH   1  18
TORSDOF 16
ENDMDL
MODEL 6
REMARK VINA RESULT:      -7.5      1.533      2.537
REMARK SMILES CCCCCCc1ccccc1CCCCC(=O)N[C@H](CO)COP(=O)([O-])[O-]
REMARK SMILES IDX 14 1 15 2 16 3 17 4 19 5 18 6 20 8 23 9 24 10 25 11 26 12
REMARK SMILES IDX 27 13 28 14 21 15 22 16 13 18 12 19 7 20 11 21 8 22 10 23
REMARK SMILES IDX 9 24 6 25 5 26 4 27 3 28 2 29 1 30
REMARK H PARENT 19 7 22 17
REMARK INDEX MAP 18 1 9 2 19 3 10 4 1 5 20 6 29 7 21 8 11 9 24 10 25 11 26 12
REMARK INDEX MAP 27 13 28 14 22 15 23 16 60 17 8 18 17 19 5 20 16 21 6 22 7 23
REMARK INDEX MAP 15 24 4 25 3 26 2 27 14 28 13 29 12 30
ROOT
ATOM      1  C   UNL     1     143.460 134.220 163.632  1.00  0.00     0.005 C 
ENDROOT
BRANCH   1   2
ATOM      2  C   UNL     1     142.273 135.019 164.165  1.00  0.00     0.010 C 
BRANCH   2   3
ATOM      3  C   UNL     1     141.737 134.605 165.505  1.00  0.00     0.100 C 
BRANCH   3   4
ATOM      4  C   UNL     1     140.263 134.278 165.564  1.00  0.00     0.220 C 
ATOM      5  N   UNL     1     139.660 134.221 166.749  1.00  0.00    -0.349 N 
ATOM      6  O   UNL     1     139.634 134.071 164.527  1.00  0.00    -0.275 OA
ATOM      7  H   UNL     1     140.159 134.460 167.563  1.00  0.00     0.163 HD
BRANCH   5   8
ATOM      8  C   UNL     1     138.271 133.809 166.850  1.00  0.00     0.133 C 
BRANCH   8   9
ATOM      9  C   UNL     1     138.359 132.399 167.388  1.00  0.00     0.193 C 
BRANCH   9  10
ATOM     10  O   UNL     1     137.927 132.319 168.759  1.00  0.00    -0.349 OA
BRANCH  10  11
ATOM     11  P   UNL     1     136.728 131.293 169.036  1.00  0.00     0.060 P 
ATOM     12  O   UNL     1     137.394 130.207 169.871  1.00  0.00    -0.326 OA
ATOM     13  O   UNL     1     135.665 132.075 169.805  1.00  0.00    -0.790 OA
ATOM     14  O   UNL     1     136.219 130.800 167.692  1.00  0.00    -0.790 OA
ENDBRANCH  10  11
ENDBRANCH   9  10
ENDBRANCH   8   9
BRANCH   8  15
ATOM     15  C   UNL     1     137.474 134.736 167.758  1.00  0.00     0.183 C 
BRANCH  15  16
ATOM     16  O   UNL     1     136.083 134.501 167.748  1.00  0.00    -0.394 OA
ATOM     17  H   UNL     1     135.799 134.276 166.849  1.00  0.00     0.210 HD
ENDBRANCH  15  16
ENDBRANCH   8  15
ENDBRANCH   5   8
ENDBRANCH   3   4
ENDBRANCH   2   3
ENDBRANCH   1   2
BRANCH   1  18
ATOM     18  C   UNL     1     143.057 133.192 162.610  1.00  0.00     0.036 C 
BRANCH  18  19
ATOM     19  C   UNL     1     142.365 131.945 163.123  1.00  0.00    -0.045 A 
ATOM     20  C   UNL     1     141.144 131.524 162.575  1.00  0.00    -0.045 A 
ATOM     21  C   UNL     1     142.948 131.155 164.107  1.00  0.00     0.004 A 
ATOM     22  C   UNL     1     140.550 130.354 163.042  1.00  0.00     0.004 A 
ATOM     23  C   UNL     1     142.327 130.018 164.577  1.00  0.00     0.000 A 
ATOM     24  C   UNL     1     141.125 129.619 164.049  1.00  0.00     0.000 A 
BRANCH  20  25
ATOM     25  C   UNL     1     140.434 132.328 161.498  1.00  0.00     0.036 C 
BRANCH  25  26
ATOM     26  C   UNL     1     140.049 131.478 160.313  1.00  0.00     0.005 C 
BRANCH  26  27
ATOM     27  C   UNL     1     141.147 131.328 159.275  1.00  0.00     0.000 C 
BRANCH  27  28
ATOM     28  C   UNL     1     141.700 129.943 159.165  1.00  0.00    -0.000 C 
BRANCH  28  29
ATOM     29  C   UNL     1     142.832 129.683 160.113  1.00  0.00    -0.003 C 
ATOM     30  C   UNL     1     142.731 128.406 160.914  1.00  0.00     0.004 C 
ENDBRANCH  28  29
ENDBRANCH  27  28
ENDBRANCH  26  27
ENDBRANCH  25  26
ENDBRANCH  20  25
ENDBRANCH  18  19
ENDBRANCH   1  18
TORSDOF 16
ENDMDL
MODEL 7
REMARK VINA RESULT:      -7.5      1.633      2.695
REMARK SMILES CCCCCCc1ccccc1CCCCC(=O)N[C@H](CO)COP(=O)([O-])[O-]
REMARK SMILES IDX 14 1 15 2 16 3 17 4 19 5 18 6 20 8 23 9 24 10 25 11 26 12
REMARK SMILES IDX 27 13 28 14 21 15 22 16 13 18 12 19 7 20 11 21 8 22 10 23
REMARK SMILES IDX 9 24 6 25 5 26 4 27 3 28 2 29 1 30
REMARK H PARENT 19 7 22 17
REMARK INDEX MAP 18 1 9 2 19 3 10 4 1 5 20 6 29 7 21 8 11 9 24 10 25 11 26 12
REMARK INDEX MAP 27 13 28 14 22 15 23 16 60 17 8 18 17 19 5 20 16 21 6 22 7 23
REMARK INDEX MAP 15 24 4 25 3 26 2 27 14 28 13 29 12 30
ROOT
ATOM      1  C   UNL     1     141.105 132.605 164.067  1.00  0.00     0.005 C 
ENDROOT
BRANCH   1   2
ATOM      2  C   UNL     1     139.703 132.753 163.478  1.00  0.00     0.010 C 
BRANCH   2   3
ATOM      3  C   UNL     1     138.689 131.731 163.902  1.00  0.00     0.100 C 
BRANCH   3   4
ATOM      4  C   UNL     1     137.621 132.206 164.859  1.00  0.00     0.220 C 
ATOM      5  N   UNL     1     137.968 132.985 165.881  1.00  0.00    -0.349 N 
ATOM      6  O   UNL     1     136.448 131.874 164.690  1.00  0.00    -0.275 OA
ATOM      7  H   UNL     1     138.897 133.299 165.962  1.00  0.00     0.163 HD
BRANCH   5   8
ATOM      8  C   UNL     1     136.986 133.374 166.878  1.00  0.00     0.133 C 
BRANCH   8   9
ATOM      9  C   UNL     1     136.919 132.174 167.794  1.00  0.00     0.193 C 
BRANCH   9  10
ATOM     10  O   UNL     1     135.745 132.200 168.628  1.00  0.00    -0.349 OA
BRANCH  10  11
ATOM     11  P   UNL     1     136.016 131.982 170.192  1.00  0.00     0.060 P 
ATOM     12  O   UNL     1     137.064 130.877 170.206  1.00  0.00    -0.326 OA
ATOM     13  O   UNL     1     136.543 133.314 170.725  1.00  0.00    -0.790 OA
ATOM     14  O   UNL     1     134.702 131.583 170.840  1.00  0.00    -0.790 OA
ENDBRANCH  10  11
ENDBRANCH   9  10
ENDBRANCH   8   9
BRANCH   8  15
ATOM     15  C   UNL     1     137.397 134.647 167.605  1.00  0.00     0.183 C 
BRANCH  15  16
ATOM     16  O   UNL     1     138.408 135.386 166.955  1.00  0.00    -0.394 OA
ATOM     17  H   UNL     1     138.604 134.979 166.097  1.00  0.00     0.210 HD
ENDBRANCH  15  16
ENDBRANCH   8  15
ENDBRANCH   5   8
ENDBRANCH   3   4
ENDBRANCH   2   3
ENDBRANCH   1   2
BRANCH   1  18
ATOM     18  C   UNL     1     142.144 132.292 163.025  1.00  0.00     0.036 C 
BRANCH  18  19
ATOM     19  C   UNL     1     142.194 130.868 162.508  1.00  0.00    -0.045 A 
ATOM     20  C   UNL     1     142.540 130.599 161.175  1.00  0.00    -0.045 A 
ATOM     21  C   UNL     1     141.957 129.790 163.354  1.00  0.00     0.004 A 
ATOM     22  C   UNL     1     142.613 129.278 160.739  1.00  0.00     0.004 A 
ATOM     23  C   UNL     1     142.004 128.491 162.893  1.00  0.00     0.000 A 
ATOM     24  C   UNL     1     142.327 128.234 161.585  1.00  0.00     0.000 A 
BRANCH  20  25
ATOM     25  C   UNL     1     142.812 131.716 160.182  1.00  0.00     0.036 C 
BRANCH  25  26
ATOM     26  C   UNL     1     141.602 132.036 159.338  1.00  0.00     0.005 C 
BRANCH  26  27
ATOM     27  C   UNL     1     140.792 133.217 159.841  1.00  0.00     0.000 C 
BRANCH  27  28
ATOM     28  C   UNL     1     141.451 134.543 159.641  1.00  0.00    -0.000 C 
BRANCH  28  29
ATOM     29  C   UNL     1     141.637 135.307 160.917  1.00  0.00    -0.003 C 
ATOM     30  C   UNL     1     143.060 135.703 161.239  1.00  0.00     0.004 C 
ENDBRANCH  28  29
ENDBRANCH  27  28
ENDBRANCH  26  27
ENDBRANCH  25  26
ENDBRANCH  20  25
ENDBRANCH  18  19
ENDBRANCH   1  18
TORSDOF 16
ENDMDL
MODEL 8
REMARK VINA RESULT:      -7.5      1.381      2.181
REMARK SMILES CCCCCCc1ccccc1CCCCC(=O)N[C@H](CO)COP(=O)([O-])[O-]
REMARK SMILES IDX 14 1 15 2 16 3 17 4 19 5 18 6 20 8 23 9 24 10 25 11 26 12
REMARK SMILES IDX 27 13 28 14 21 15 22 16 13 18 12 19 7 20 11 21 8 22 10 23
REMARK SMILES IDX 9 24 6 25 5 26 4 27 3 28 2 29 1 30
REMARK H PARENT 19 7 22 17
REMARK INDEX MAP 18 1 9 2 19 3 10 4 1 5 20 6 29 7 21 8 11 9 24 10 25 11 26 12
REMARK INDEX MAP 27 13 28 14 22 15 23 16 60 17 8 18 17 19 5 20 16 21 6 22 7 23
REMARK INDEX MAP 15 24 4 25 3 26 2 27 14 28 13 29 12 30
ROOT
ATOM      1  C   UNL     1     141.944 131.220 164.270  1.00  0.00     0.005 C 
ENDROOT
BRANCH   1   2
ATOM      2  C   UNL     1     142.170 132.532 165.019  1.00  0.00     0.010 C 
BRANCH   2   3
ATOM      3  C   UNL     1     141.230 133.656 164.694  1.00  0.00     0.100 C 
BRANCH   3   4
ATOM      4  C   UNL     1     139.805 133.495 165.170  1.00  0.00     0.220 C 
ATOM      5  N   UNL     1     139.456 134.002 166.351  1.00  0.00    -0.349 N 
ATOM      6  O   UNL     1     138.982 132.904 164.471  1.00  0.00    -0.275 OA
ATOM      7  H   UNL     1     140.106 134.533 166.865  1.00  0.00     0.163 HD
BRANCH   5   8
ATOM      8  C   UNL     1     138.125 133.776 166.886  1.00  0.00     0.133 C 
BRANCH   8   9
ATOM      9  C   UNL     1     138.272 132.492 167.669  1.00  0.00     0.193 C 
BRANCH   9  10
ATOM     10  O   UNL     1     137.509 132.517 168.890  1.00  0.00    -0.349 OA
BRANCH  10  11
ATOM     11  P   UNL     1     136.678 131.183 169.200  1.00  0.00     0.060 P 
ATOM     12  O   UNL     1     136.092 130.822 167.842  1.00  0.00    -0.326 OA
ATOM     13  O   UNL     1     137.689 130.157 169.710  1.00  0.00    -0.790 OA
ATOM     14  O   UNL     1     135.628 131.523 170.244  1.00  0.00    -0.790 OA
ENDBRANCH  10  11
ENDBRANCH   9  10
ENDBRANCH   8   9
BRANCH   8  15
ATOM     15  C   UNL     1     137.660 134.941 167.748  1.00  0.00     0.183 C 
BRANCH  15  16
ATOM     16  O   UNL     1     136.267 134.985 167.962  1.00  0.00    -0.394 OA
ATOM     17  H   UNL     1     135.954 135.898 167.865  1.00  0.00     0.210 HD
ENDBRANCH  15  16
ENDBRANCH   8  15
ENDBRANCH   5   8
ENDBRANCH   3   4
ENDBRANCH   2   3
ENDBRANCH   1   2
BRANCH   1  18
ATOM     18  C   UNL     1     141.453 131.430 162.863  1.00  0.00     0.036 C 
BRANCH  18  19
ATOM     19  C   UNL     1     141.921 130.438 161.816  1.00  0.00    -0.045 A 
ATOM     20  C   UNL     1     141.526 130.568 160.476  1.00  0.00    -0.045 A 
ATOM     21  C   UNL     1     142.801 129.412 162.143  1.00  0.00     0.004 A 
ATOM     22  C   UNL     1     142.003 129.663 159.530  1.00  0.00     0.004 A 
ATOM     23  C   UNL     1     143.234 128.508 161.197  1.00  0.00     0.000 A 
ATOM     24  C   UNL     1     142.832 128.629 159.891  1.00  0.00     0.000 A 
BRANCH  20  25
ATOM     25  C   UNL     1     140.566 131.658 160.030  1.00  0.00     0.036 C 
BRANCH  25  26
ATOM     26  C   UNL     1     141.178 132.568 158.995  1.00  0.00     0.005 C 
BRANCH  26  27
ATOM     27  C   UNL     1     141.175 134.036 159.381  1.00  0.00     0.000 C 
BRANCH  27  28
ATOM     28  C   UNL     1     141.962 134.347 160.614  1.00  0.00    -0.000 C 
BRANCH  28  29
ATOM     29  C   UNL     1     143.419 134.022 160.480  1.00  0.00    -0.003 C 
ATOM     30  C   UNL     1     144.104 134.591 159.259  1.00  0.00     0.004 C 
ENDBRANCH  28  29
ENDBRANCH  27  28
ENDBRANCH  26  27
ENDBRANCH  25  26
ENDBRANCH  20  25
ENDBRANCH  18  19
ENDBRANCH   1  18
TORSDOF 16
ENDMDL
MODEL 9
REMARK VINA RESULT:      -7.4      1.844      3.248
REMARK SMILES CCCCCCc1ccccc1CCCCC(=O)N[C@H](CO)COP(=O)([O-])[O-]
REMARK SMILES IDX 14 1 15 2 16 3 17 4 19 5 18 6 20 8 23 9 24 10 25 11 26 12
REMARK SMILES IDX 27 13 28 14 21 15 22 16 13 18 12 19 7 20 11 21 8 22 10 23
REMARK SMILES IDX 9 24 6 25 5 26 4 27 3 28 2 29 1 30
REMARK H PARENT 19 7 22 17
REMARK INDEX MAP 18 1 9 2 19 3 10 4 1 5 20 6 29 7 21 8 11 9 24 10 25 11 26 12
REMARK INDEX MAP 27 13 28 14 22 15 23 16 60 17 8 18 17 19 5 20 16 21 6 22 7 23
REMARK INDEX MAP 15 24 4 25 3 26 2 27 14 28 13 29 12 30
ROOT
ATOM      1  C   UNL     1     139.594 132.078 160.925  1.00  0.00     0.005 C 
ENDROOT
BRANCH   1   2
ATOM      2  C   UNL     1     139.624 130.975 161.981  1.00  0.00     0.010 C 
BRANCH   2   3
ATOM      3  C   UNL     1     140.169 131.355 163.327  1.00  0.00     0.100 C 
BRANCH   3   4
ATOM      4  C   UNL     1     139.186 131.971 164.296  1.00  0.00     0.220 C 
ATOM      5  N   UNL     1     139.639 132.783 165.248  1.00  0.00    -0.349 N 
ATOM      6  O   UNL     1     137.985 131.721 164.200  1.00  0.00    -0.275 OA
ATOM      7  H   UNL     1     140.592 133.029 165.268  1.00  0.00     0.163 HD
BRANCH   5   8
ATOM      8  C   UNL     1     138.739 133.309 166.259  1.00  0.00     0.133 C 
BRANCH   8   9
ATOM      9  C   UNL     1     139.010 132.436 167.463  1.00  0.00     0.193 C 
BRANCH   9  10
ATOM     10  O   UNL     1     137.940 131.504 167.703  1.00  0.00    -0.349 OA
BRANCH  10  11
ATOM     11  P   UNL     1     136.764 132.045 168.647  1.00  0.00     0.060 P 
ATOM     12  O   UNL     1     136.592 130.919 169.658  1.00  0.00    -0.326 OA
ATOM     13  O   UNL     1     137.280 133.340 169.273  1.00  0.00    -0.790 OA
ATOM     14  O   UNL     1     135.539 132.274 167.778  1.00  0.00    -0.790 OA
ENDBRANCH  10  11
ENDBRANCH   9  10
ENDBRANCH   8   9
BRANCH   8  15
ATOM     15  C   UNL     1     138.998 134.784 166.531  1.00  0.00     0.183 C 
BRANCH  15  16
ATOM     16  O   UNL     1     137.972 135.430 167.252  1.00  0.00    -0.394 OA
ATOM     17  H   UNL     1     137.303 135.763 166.634  1.00  0.00     0.210 HD
ENDBRANCH  15  16
ENDBRANCH   8  15
ENDBRANCH   5   8
ENDBRANCH   3   4
ENDBRANCH   2   3
ENDBRANCH   1   2
BRANCH   1  18
ATOM     18  C   UNL     1     140.470 131.774 159.740  1.00  0.00     0.036 C 
BRANCH  18  19
ATOM     19  C   UNL     1     141.619 130.810 159.963  1.00  0.00    -0.045 A 
ATOM     20  C   UNL     1     142.759 131.206 160.678  1.00  0.00    -0.045 A 
ATOM     21  C   UNL     1     141.547 129.495 159.519  1.00  0.00     0.004 A 
ATOM     22  C   UNL     1     143.783 130.286 160.900  1.00  0.00     0.004 A 
ATOM     23  C   UNL     1     142.585 128.611 159.721  1.00  0.00     0.000 A 
ATOM     24  C   UNL     1     143.706 129.006 160.406  1.00  0.00     0.000 A 
BRANCH  20  25
ATOM     25  C   UNL     1     142.923 132.624 161.198  1.00  0.00     0.036 C 
BRANCH  25  26
ATOM     26  C   UNL     1     143.513 133.547 160.160  1.00  0.00     0.005 C 
BRANCH  26  27
ATOM     27  C   UNL     1     142.560 134.626 159.678  1.00  0.00     0.000 C 
BRANCH  27  28
ATOM     28  C   UNL     1     141.734 135.243 160.760  1.00  0.00    -0.000 C 
BRANCH  28  29
ATOM     29  C   UNL     1     142.537 136.081 161.709  1.00  0.00    -0.003 C 
ATOM     30  C   UNL     1     142.344 135.771 163.175  1.00  0.00     0.004 C 
ENDBRANCH  28  29
ENDBRANCH  27  28
ENDBRANCH  26  27
ENDBRANCH  25  26
ENDBRANCH  20  25
ENDBRANCH  18  19
ENDBRANCH   1  18
TORSDOF 16
ENDMDL
