MODEL 1
REMARK VINA RESULT:      -4.9      0.000      0.000
REMARK SMILES Clc1ccc(COC(Cn2ccnc2)c2ccc(Cl)cc2Cl)c(Cl)c1
REMARK SMILES IDX 7 1 6 2 5 3 2 4 3 5 25 6 4 7 23 8 1 9 24 10 8 11 9 12 10 13
REMARK SMILES IDX 11 14 14 15 12 16 13 17 15 18 16 19 21 20 17 21 20 22 18 23
REMARK SMILES IDX 22 24 19 25
REMARK H PARENT
ROOT
ATOM      1  O   UNL     1     103.351 102.416 118.242  1.00  0.00    -0.367 OA
ENDROOT
BRANCH   1   2
ATOM      2  C   UNL     1     102.962 101.247 118.773  1.00  0.00     0.198 C 
BRANCH   2   3
ATOM      3  C   UNL     1     103.345 100.057 117.981  1.00  0.00    -0.004 A 
ATOM      4  C   UNL     1     103.849  97.628 116.602  1.00  0.00     0.042 A 
ATOM      5  C   UNL     1     102.571  98.007 116.975  1.00  0.00     0.021 A 
ATOM      6  C   UNL     1     104.863  98.493 116.935  1.00  0.00     0.041 A 
ATOM      7  C   UNL     1     102.304  99.178 117.643  1.00  0.00     0.009 A 
ATOM      8  C   UNL     1     104.605  99.693 117.616  1.00  0.00     0.048 A 
ATOM      9  Cl  UNL     1     104.163  96.121 115.754  1.00  0.00    -0.084 Cl
ATOM     10  Cl  UNL     1     105.932 100.807 117.928  1.00  0.00    -0.084 Cl
ENDBRANCH   2   3
ENDBRANCH   1   2
BRANCH   1  11
ATOM     11  C   UNL     1     102.967 102.975 117.112  1.00  0.00     0.170 C 
BRANCH  11  12
ATOM     12  C   UNL     1     102.112 104.214 117.479  1.00  0.00     0.160 C 
BRANCH  12  13
ATOM     13  N   UNL     1     100.734 103.831 117.471  1.00  0.00    -0.335 N 
ATOM     14  C   UNL     1      99.810 104.065 118.416  1.00  0.00     0.107 A 
ATOM     15  C   UNL     1     100.160 103.149 116.459  1.00  0.00     0.199 A 
ATOM     16  C   UNL     1      98.644 103.498 117.946  1.00  0.00     0.130 A 
ATOM     17  N   UNL     1      98.884 102.943 116.747  1.00  0.00    -0.245 NA
ENDBRANCH  12  13
ENDBRANCH  11  12
BRANCH  11  18
ATOM     18  C   UNL     1     104.134 103.470 116.276  1.00  0.00     0.001 A 
ATOM     19  C   UNL     1     104.844 104.594 116.625  1.00  0.00     0.009 A 
ATOM     20  C   UNL     1     104.495 102.791 115.140  1.00  0.00     0.048 A 
ATOM     21  C   UNL     1     105.912 105.024 115.827  1.00  0.00     0.021 A 
ATOM     22  C   UNL     1     105.557 103.210 114.340  1.00  0.00     0.041 A 
ATOM     23  C   UNL     1     106.272 104.340 114.690  1.00  0.00     0.042 A 
ATOM     24  Cl  UNL     1     103.576 101.361 114.709  1.00  0.00    -0.084 Cl
ATOM     25  Cl  UNL     1     107.609 104.878 113.685  1.00  0.00    -0.084 Cl
ENDBRANCH  11  18
ENDBRANCH   1  11
TORSDOF 6
ENDMDL
MODEL 2
REMARK VINA RESULT:      -4.1      5.380      7.785
REMARK SMILES Clc1ccc(COC(Cn2ccnc2)c2ccc(Cl)cc2Cl)c(Cl)c1
REMARK SMILES IDX 7 1 6 2 5 3 2 4 3 5 25 6 4 7 23 8 1 9 24 10 8 11 9 12 10 13
REMARK SMILES IDX 11 14 14 15 12 16 13 17 15 18 16 19 21 20 17 21 20 22 18 23
REMARK SMILES IDX 22 24 19 25
REMARK H PARENT
ROOT
ATOM      1  O   UNL     1     107.309 107.260 116.155  1.00  0.00    -0.367 OA
ENDROOT
BRANCH   1   2
ATOM      2  C   UNL     1     106.893 106.290 116.983  1.00  0.00     0.198 C 
BRANCH   2   3
ATOM      3  C   UNL     1     105.711 105.541 116.502  1.00  0.00    -0.004 A 
ATOM      4  C   UNL     1     103.367 104.069 115.873  1.00  0.00     0.042 A 
ATOM      5  C   UNL     1     103.433 104.906 116.973  1.00  0.00     0.021 A 
ATOM      6  C   UNL     1     104.499 103.989 115.100  1.00  0.00     0.041 A 
ATOM      7  C   UNL     1     104.557 105.628 117.297  1.00  0.00     0.009 A 
ATOM      8  C   UNL     1     105.653 104.721 115.417  1.00  0.00     0.048 A 
ATOM      9  Cl  UNL     1     101.918 103.152 115.488  1.00  0.00    -0.084 Cl
ATOM     10  Cl  UNL     1     107.039 104.653 114.333  1.00  0.00    -0.084 Cl
ENDBRANCH   2   3
ENDBRANCH   1   2
BRANCH   1  11
ATOM     11  C   UNL     1     107.491 108.540 116.413  1.00  0.00     0.170 C 
BRANCH  11  12
ATOM     12  C   UNL     1     107.194 108.754 117.918  1.00  0.00     0.160 C 
BRANCH  12  13
ATOM     13  N   UNL     1     106.398 109.933 118.059  1.00  0.00    -0.335 N 
ATOM     14  C   UNL     1     105.198 110.187 117.513  1.00  0.00     0.107 A 
ATOM     15  C   UNL     1     106.774 110.997 118.798  1.00  0.00     0.199 A 
ATOM     16  C   UNL     1     104.851 111.450 117.944  1.00  0.00     0.130 A 
ATOM     17  N   UNL     1     105.832 111.926 118.729  1.00  0.00    -0.245 NA
ENDBRANCH  12  13
ENDBRANCH  11  12
BRANCH  11  18
ATOM     18  C   UNL     1     108.921 108.989 116.172  1.00  0.00     0.001 A 
ATOM     19  C   UNL     1     109.985 108.342 116.753  1.00  0.00     0.009 A 
ATOM     20  C   UNL     1     109.171 110.068 115.363  1.00  0.00     0.048 A 
ATOM     21  C   UNL     1     111.293 108.788 116.512  1.00  0.00     0.021 A 
ATOM     22  C   UNL     1     110.466 110.519 115.116  1.00  0.00     0.041 A 
ATOM     23  C   UNL     1     111.538 109.869 115.698  1.00  0.00     0.042 A 
ATOM     24  Cl  UNL     1     107.799 110.882 114.633  1.00  0.00    -0.084 Cl
ATOM     25  Cl  UNL     1     113.174 110.431 115.397  1.00  0.00    -0.084 Cl
ENDBRANCH  11  18
ENDBRANCH   1  11
TORSDOF 6
ENDMDL
MODEL 3
REMARK VINA RESULT:      -4.0      1.569      2.060
REMARK SMILES Clc1ccc(COC(Cn2ccnc2)c2ccc(Cl)cc2Cl)c(Cl)c1
REMARK SMILES IDX 7 1 6 2 5 3 2 4 3 5 25 6 4 7 23 8 1 9 24 10 8 11 9 12 10 13
REMARK SMILES IDX 11 14 14 15 12 16 13 17 15 18 16 19 21 20 17 21 20 22 18 23
REMARK SMILES IDX 22 24 19 25
REMARK H PARENT
ROOT
ATOM      1  O   UNL     1     103.696 101.349 116.738  1.00  0.00    -0.367 OA
ENDROOT
BRANCH   1   2
ATOM      2  C   UNL     1     103.463 100.444 117.701  1.00  0.00     0.198 C 
BRANCH   2   3
ATOM      3  C   UNL     1     103.581  99.037 117.259  1.00  0.00    -0.004 A 
ATOM      4  C   UNL     1     104.025  96.433 116.221  1.00  0.00     0.042 A 
ATOM      5  C   UNL     1     105.047  97.359 116.339  1.00  0.00     0.021 A 
ATOM      6  C   UNL     1     102.781  96.843 116.634  1.00  0.00     0.041 A 
ATOM      7  C   UNL     1     104.855  98.625 116.839  1.00  0.00     0.009 A 
ATOM      8  C   UNL     1     102.570  98.132 117.148  1.00  0.00     0.048 A 
ATOM      9  Cl  UNL     1     104.298  94.823 115.570  1.00  0.00    -0.084 Cl
ATOM     10  Cl  UNL     1     100.975  98.565 117.754  1.00  0.00    -0.084 Cl
ENDBRANCH   2   3
ENDBRANCH   1   2
BRANCH   1  11
ATOM     11  C   UNL     1     103.200 102.564 116.612  1.00  0.00     0.170 C 
BRANCH  11  12
ATOM     12  C   UNL     1     102.344 102.845 117.872  1.00  0.00     0.160 C 
BRANCH  12  13
ATOM     13  N   UNL     1     100.964 102.740 117.515  1.00  0.00    -0.335 N 
ATOM     14  C   UNL     1      99.980 102.132 118.197  1.00  0.00     0.107 A 
ATOM     15  C   UNL     1     100.449 103.266 116.384  1.00  0.00     0.199 A 
ATOM     16  C   UNL     1      98.840 102.304 117.441  1.00  0.00     0.130 A 
ATOM     17  N   UNL     1      99.152 103.001 116.336  1.00  0.00    -0.245 NA
ENDBRANCH  12  13
ENDBRANCH  11  12
BRANCH  11  18
ATOM     18  C   UNL     1     104.275 103.634 116.555  1.00  0.00     0.001 A 
ATOM     19  C   UNL     1     104.526 104.458 117.625  1.00  0.00     0.009 A 
ATOM     20  C   UNL     1     105.017 103.795 115.413  1.00  0.00     0.048 A 
ATOM     21  C   UNL     1     105.524 105.439 117.535  1.00  0.00     0.021 A 
ATOM     22  C   UNL     1     106.012 104.766 115.313  1.00  0.00     0.041 A 
ATOM     23  C   UNL     1     106.267 105.596 116.388  1.00  0.00     0.042 A 
ATOM     24  Cl  UNL     1     104.681 102.734 114.057  1.00  0.00    -0.084 Cl
ATOM     25  Cl  UNL     1     107.515 106.826 116.271  1.00  0.00    -0.084 Cl
ENDBRANCH  11  18
ENDBRANCH   1  11
TORSDOF 6
ENDMDL
MODEL 4
REMARK VINA RESULT:      -4.0      3.289      7.060
REMARK SMILES Clc1ccc(COC(Cn2ccnc2)c2ccc(Cl)cc2Cl)c(Cl)c1
REMARK SMILES IDX 7 1 6 2 5 3 2 4 3 5 25 6 4 7 23 8 1 9 24 10 8 11 9 12 10 13
REMARK SMILES IDX 11 14 14 15 12 16 13 17 15 18 16 19 21 20 17 21 20 22 18 23
REMARK SMILES IDX 22 24 19 25
REMARK H PARENT
ROOT
ATOM      1  O   UNL     1     102.889 103.369 117.829  1.00  0.00    -0.367 OA
ENDROOT
BRANCH   1   2
ATOM      2  C   UNL     1     103.517 104.373 118.459  1.00  0.00     0.198 C 
BRANCH   2   3
ATOM      3  C   UNL     1     103.010 105.721 118.118  1.00  0.00    -0.004 A 
ATOM      4  C   UNL     1     102.325 108.407 117.509  1.00  0.00     0.042 A 
ATOM      5  C   UNL     1     103.572 107.884 117.214  1.00  0.00     0.021 A 
ATOM      6  C   UNL     1     101.434 107.554 118.113  1.00  0.00     0.041 A 
ATOM      7  C   UNL     1     103.926 106.588 117.500  1.00  0.00     0.009 A 
ATOM      8  C   UNL     1     101.781 106.227 118.409  1.00  0.00     0.048 A 
ATOM      9  Cl  UNL     1     101.903 110.073 117.139  1.00  0.00    -0.084 Cl
ATOM     10  Cl  UNL     1     100.564 105.153 119.092  1.00  0.00    -0.084 Cl
ENDBRANCH   2   3
ENDBRANCH   1   2
BRANCH   1  11
ATOM     11  C   UNL     1     103.368 102.535 116.927  1.00  0.00     0.170 C 
BRANCH  11  12
ATOM     12  C   UNL     1     104.814 102.987 116.604  1.00  0.00     0.160 C 
BRANCH  12  13
ATOM     13  N   UNL     1     104.910 103.224 115.197  1.00  0.00    -0.335 N 
ATOM     14  C   UNL     1     105.544 102.479 114.278  1.00  0.00     0.107 A 
ATOM     15  C   UNL     1     104.345 104.285 114.584  1.00  0.00     0.199 A 
ATOM     16  C   UNL     1     105.349 103.124 113.075  1.00  0.00     0.130 A 
ATOM     17  N   UNL     1     104.612 104.227 113.288  1.00  0.00    -0.245 NA
ENDBRANCH  12  13
ENDBRANCH  11  12
BRANCH  11  18
ATOM     18  C   UNL     1     103.451 101.107 117.435  1.00  0.00     0.001 A 
ATOM     19  C   UNL     1     104.656 100.458 117.566  1.00  0.00     0.009 A 
ATOM     20  C   UNL     1     102.303 100.434 117.771  1.00  0.00     0.048 A 
ATOM     21  C   UNL     1     104.693  99.137 118.034  1.00  0.00     0.021 A 
ATOM     22  C   UNL     1     102.330  99.122 118.239  1.00  0.00     0.041 A 
ATOM     23  C   UNL     1     103.540  98.468 118.371  1.00  0.00     0.042 A 
ATOM     24  Cl  UNL     1     100.775 101.278 117.596  1.00  0.00    -0.084 Cl
ATOM     25  Cl  UNL     1     103.584  96.812 118.954  1.00  0.00    -0.084 Cl
ENDBRANCH  11  18
ENDBRANCH   1  11
TORSDOF 6
ENDMDL
MODEL 5
REMARK VINA RESULT:      -3.7      0.906      1.206
REMARK SMILES Clc1ccc(COC(Cn2ccnc2)c2ccc(Cl)cc2Cl)c(Cl)c1
REMARK SMILES IDX 7 1 6 2 5 3 2 4 3 5 25 6 4 7 23 8 1 9 24 10 8 11 9 12 10 13
REMARK SMILES IDX 11 14 14 15 12 16 13 17 15 18 16 19 21 20 17 21 20 22 18 23
REMARK SMILES IDX 22 24 19 25
REMARK H PARENT
ROOT
ATOM      1  O   UNL     1     102.701 102.870 118.072  1.00  0.00    -0.367 OA
ENDROOT
BRANCH   1   2
ATOM      2  C   UNL     1     102.734 101.863 118.959  1.00  0.00     0.198 C 
BRANCH   2   3
ATOM      3  C   UNL     1     103.003 100.535 118.366  1.00  0.00    -0.004 A 
ATOM      4  C   UNL     1     103.289  97.881 117.401  1.00  0.00     0.042 A 
ATOM      5  C   UNL     1     102.056  98.405 117.749  1.00  0.00     0.021 A 
ATOM      6  C   UNL     1     104.370  98.717 117.547  1.00  0.00     0.041 A 
ATOM      7  C   UNL     1     101.895  99.687 118.219  1.00  0.00     0.009 A 
ATOM      8  C   UNL     1     104.219 100.028 118.024  1.00  0.00     0.048 A 
ATOM      9  Cl  UNL     1     103.468  96.235 116.810  1.00  0.00    -0.084 Cl
ATOM     10  Cl  UNL     1     105.627 101.083 118.096  1.00  0.00    -0.084 Cl
ENDBRANCH   2   3
ENDBRANCH   1   2
BRANCH   1  11
ATOM     11  C   UNL     1     102.665 102.808 116.756  1.00  0.00     0.170 C 
BRANCH  11  12
ATOM     12  C   UNL     1     101.459 103.660 116.288  1.00  0.00     0.160 C 
BRANCH  12  13
ATOM     13  N   UNL     1     100.896 104.313 117.429  1.00  0.00    -0.335 N 
ATOM     14  C   UNL     1     101.318 105.439 118.024  1.00  0.00     0.107 A 
ATOM     15  C   UNL     1      99.813 103.852 118.087  1.00  0.00     0.199 A 
ATOM     16  C   UNL     1     100.451 105.653 119.076  1.00  0.00     0.130 A 
ATOM     17  N   UNL     1      99.539 104.668 119.093  1.00  0.00    -0.245 NA
ENDBRANCH  12  13
ENDBRANCH  11  12
BRANCH  11  18
ATOM     18  C   UNL     1     103.905 103.394 116.106  1.00  0.00     0.001 A 
ATOM     19  C   UNL     1     104.472 104.561 116.562  1.00  0.00     0.009 A 
ATOM     20  C   UNL     1     104.481 102.758 115.036  1.00  0.00     0.048 A 
ATOM     21  C   UNL     1     105.614 105.076 115.934  1.00  0.00     0.021 A 
ATOM     22  C   UNL     1     105.617 103.261 114.406  1.00  0.00     0.041 A 
ATOM     23  C   UNL     1     106.189 104.434 114.862  1.00  0.00     0.042 A 
ATOM     24  Cl  UNL     1     103.742 101.272 114.469  1.00  0.00    -0.084 Cl
ATOM     25  Cl  UNL     1     107.619 105.079 114.072  1.00  0.00    -0.084 Cl
ENDBRANCH  11  18
ENDBRANCH   1  11
TORSDOF 6
ENDMDL
MODEL 6
REMARK VINA RESULT:      -3.7      4.864      7.193
REMARK SMILES Clc1ccc(COC(Cn2ccnc2)c2ccc(Cl)cc2Cl)c(Cl)c1
REMARK SMILES IDX 7 1 6 2 5 3 2 4 3 5 25 6 4 7 23 8 1 9 24 10 8 11 9 12 10 13
REMARK SMILES IDX 11 14 14 15 12 16 13 17 15 18 16 19 21 20 17 21 20 22 18 23
REMARK SMILES IDX 22 24 19 25
REMARK H PARENT
ROOT
ATOM      1  O   UNL     1     107.496 106.582 116.347  1.00  0.00    -0.367 OA
ENDROOT
BRANCH   1   2
ATOM      2  C   UNL     1     107.289 105.683 115.372  1.00  0.00     0.198 C 
BRANCH   2   3
ATOM      3  C   UNL     1     105.981 104.995 115.443  1.00  0.00    -0.004 A 
ATOM      4  C   UNL     1     103.416 103.788 115.300  1.00  0.00     0.042 A 
ATOM      5  C   UNL     1     104.203 103.971 114.176  1.00  0.00     0.021 A 
ATOM      6  C   UNL     1     103.944 104.222 116.491  1.00  0.00     0.041 A 
ATOM      7  C   UNL     1     105.447 104.553 114.222  1.00  0.00     0.009 A 
ATOM      8  C   UNL     1     105.214 104.816 116.553  1.00  0.00     0.048 A 
ATOM      9  Cl  UNL     1     101.824 103.047 115.211  1.00  0.00    -0.084 Cl
ATOM     10  Cl  UNL     1     105.878 105.262 118.122  1.00  0.00    -0.084 Cl
ENDBRANCH   2   3
ENDBRANCH   1   2
BRANCH   1  11
ATOM     11  C   UNL     1     107.501 107.898 116.266  1.00  0.00     0.170 C 
BRANCH  11  12
ATOM     12  C   UNL     1     107.007 108.445 117.629  1.00  0.00     0.160 C 
BRANCH  12  13
ATOM     13  N   UNL     1     105.729 109.056 117.435  1.00  0.00    -0.335 N 
ATOM     14  C   UNL     1     104.621 108.501 116.919  1.00  0.00     0.107 A 
ATOM     15  C   UNL     1     105.463 110.337 117.761  1.00  0.00     0.199 A 
ATOM     16  C   UNL     1     103.663 109.492 116.940  1.00  0.00     0.130 A 
ATOM     17  N   UNL     1     104.202 110.607 117.460  1.00  0.00    -0.245 NA
ENDBRANCH  12  13
ENDBRANCH  11  12
BRANCH  11  18
ATOM     18  C   UNL     1     108.890 108.465 116.034  1.00  0.00     0.001 A 
ATOM     19  C   UNL     1     110.017 107.808 116.467  1.00  0.00     0.009 A 
ATOM     20  C   UNL     1     109.038 109.664 115.384  1.00  0.00     0.048 A 
ATOM     21  C   UNL     1     111.283 108.364 116.240  1.00  0.00     0.021 A 
ATOM     22  C   UNL     1     110.292 110.225 115.151  1.00  0.00     0.041 A 
ATOM     23  C   UNL     1     111.427 109.565 115.585  1.00  0.00     0.042 A 
ATOM     24  Cl  UNL     1     107.588 110.488 114.841  1.00  0.00    -0.084 Cl
ATOM     25  Cl  UNL     1     113.012 110.266 115.302  1.00  0.00    -0.084 Cl
ENDBRANCH  11  18
ENDBRANCH   1  11
TORSDOF 6
ENDMDL
MODEL 7
REMARK VINA RESULT:      -3.6      2.168      2.872
REMARK SMILES Clc1ccc(COC(Cn2ccnc2)c2ccc(Cl)cc2Cl)c(Cl)c1
REMARK SMILES IDX 7 1 6 2 5 3 2 4 3 5 25 6 4 7 23 8 1 9 24 10 8 11 9 12 10 13
REMARK SMILES IDX 11 14 14 15 12 16 13 17 15 18 16 19 21 20 17 21 20 22 18 23
REMARK SMILES IDX 22 24 19 25
REMARK H PARENT
ROOT
ATOM      1  O   UNL     1     103.044  99.850 116.752  1.00  0.00    -0.367 OA
ENDROOT
BRANCH   1   2
ATOM      2  C   UNL     1     104.020  99.130 117.326  1.00  0.00     0.198 C 
BRANCH   2   3
ATOM      3  C   UNL     1     103.759  97.674 117.373  1.00  0.00    -0.004 A 
ATOM      4  C   UNL     1     103.364  94.871 117.173  1.00  0.00     0.042 A 
ATOM      5  C   UNL     1     104.396  95.514 116.513  1.00  0.00     0.021 A 
ATOM      6  C   UNL     1     102.538  95.665 117.932  1.00  0.00     0.041 A 
ATOM      7  C   UNL     1     104.607  96.869 116.595  1.00  0.00     0.009 A 
ATOM      8  C   UNL     1     102.742  97.050 118.026  1.00  0.00     0.048 A 
ATOM      9  Cl  UNL     1     103.113  93.136 117.045  1.00  0.00    -0.084 Cl
ATOM     10  Cl  UNL     1     101.712  97.999 119.093  1.00  0.00    -0.084 Cl
ENDBRANCH   2   3
ENDBRANCH   1   2
BRANCH   1  11
ATOM     11  C   UNL     1     102.818 101.146 116.836  1.00  0.00     0.170 C 
BRANCH  11  12
ATOM     12  C   UNL     1     102.996 101.549 118.321  1.00  0.00     0.160 C 
BRANCH  12  13
ATOM     13  N   UNL     1     102.372 102.820 118.523  1.00  0.00    -0.335 N 
ATOM     14  C   UNL     1     101.103 103.167 118.255  1.00  0.00     0.107 A 
ATOM     15  C   UNL     1     103.017 103.889 119.033  1.00  0.00     0.199 A 
ATOM     16  C   UNL     1     100.993 104.492 118.620  1.00  0.00     0.130 A 
ATOM     17  N   UNL     1     102.177 104.912 119.093  1.00  0.00    -0.245 NA
ENDBRANCH  12  13
ENDBRANCH  11  12
BRANCH  11  18
ATOM     18  C   UNL     1     103.809 101.967 116.030  1.00  0.00     0.001 A 
ATOM     19  C   UNL     1     105.165 101.849 116.222  1.00  0.00     0.009 A 
ATOM     20  C   UNL     1     103.353 102.853 115.088  1.00  0.00     0.048 A 
ATOM     21  C   UNL     1     106.050 102.627 115.462  1.00  0.00     0.021 A 
ATOM     22  C   UNL     1     104.224 103.630 114.326  1.00  0.00     0.041 A 
ATOM     23  C   UNL     1     105.588 103.513 114.518  1.00  0.00     0.042 A 
ATOM     24  Cl  UNL     1     101.620 102.990 114.858  1.00  0.00    -0.084 Cl
ATOM     25  Cl  UNL     1     106.695 104.492 113.567  1.00  0.00    -0.084 Cl
ENDBRANCH  11  18
ENDBRANCH   1  11
TORSDOF 6
ENDMDL
MODEL 8
REMARK VINA RESULT:      -3.6      3.376      4.876
REMARK SMILES Clc1ccc(COC(Cn2ccnc2)c2ccc(Cl)cc2Cl)c(Cl)c1
REMARK SMILES IDX 7 1 6 2 5 3 2 4 3 5 25 6 4 7 23 8 1 9 24 10 8 11 9 12 10 13
REMARK SMILES IDX 11 14 14 15 12 16 13 17 15 18 16 19 21 20 17 21 20 22 18 23
REMARK SMILES IDX 22 24 19 25
REMARK H PARENT
ROOT
ATOM      1  O   UNL     1     104.137 104.550 117.095  1.00  0.00    -0.367 OA
ENDROOT
BRANCH   1   2
ATOM      2  C   UNL     1     103.541 103.966 118.147  1.00  0.00     0.198 C 
BRANCH   2   3
ATOM      3  C   UNL     1     103.573 102.487 118.125  1.00  0.00    -0.004 A 
ATOM      4  C   UNL     1     103.942  99.674 118.075  1.00  0.00     0.042 A 
ATOM      5  C   UNL     1     104.841 100.519 118.701  1.00  0.00     0.021 A 
ATOM      6  C   UNL     1     102.859 100.270 117.478  1.00  0.00     0.041 A 
ATOM      7  C   UNL     1     104.683 101.884 118.738  1.00  0.00     0.009 A 
ATOM      8  C   UNL     1     102.683 101.662 117.508  1.00  0.00     0.048 A 
ATOM      9  Cl  UNL     1     104.174  97.931 118.038  1.00  0.00    -0.084 Cl
ATOM     10  Cl  UNL     1     101.225 102.360 116.811  1.00  0.00    -0.084 Cl
ENDBRANCH   2   3
ENDBRANCH   1   2
BRANCH   1  11
ATOM     11  C   UNL     1     105.316 105.135 117.038  1.00  0.00     0.170 C 
BRANCH  11  12
ATOM     12  C   UNL     1     105.814 105.024 115.575  1.00  0.00     0.160 C 
BRANCH  12  13
ATOM     13  N   UNL     1     105.226 103.863 114.984  1.00  0.00    -0.335 N 
ATOM     14  C   UNL     1     104.114 103.794 114.235  1.00  0.00     0.107 A 
ATOM     15  C   UNL     1     105.742 102.623 115.113  1.00  0.00     0.199 A 
ATOM     16  C   UNL     1     103.965 102.463 113.909  1.00  0.00     0.130 A 
ATOM     17  N   UNL     1     104.973 101.766 114.458  1.00  0.00    -0.245 NA
ENDBRANCH  12  13
ENDBRANCH  11  12
BRANCH  11  18
ATOM     18  C   UNL     1     105.255 106.613 117.378  1.00  0.00     0.001 A 
ATOM     19  C   UNL     1     104.359 107.456 116.764  1.00  0.00     0.009 A 
ATOM     20  C   UNL     1     106.111 107.134 118.315  1.00  0.00     0.048 A 
ATOM     21  C   UNL     1     104.335 108.817 117.099  1.00  0.00     0.021 A 
ATOM     22  C   UNL     1     106.094 108.485 118.656  1.00  0.00     0.041 A 
ATOM     23  C   UNL     1     105.194 109.334 118.040  1.00  0.00     0.042 A 
ATOM     24  Cl  UNL     1     107.248 106.044 119.086  1.00  0.00    -0.084 Cl
ATOM     25  Cl  UNL     1     105.167 111.040 118.460  1.00  0.00    -0.084 Cl
ENDBRANCH  11  18
ENDBRANCH   1  11
TORSDOF 6
ENDMDL
MODEL 9
REMARK VINA RESULT:      -3.5      2.739      4.970
REMARK SMILES Clc1ccc(COC(Cn2ccnc2)c2ccc(Cl)cc2Cl)c(Cl)c1
REMARK SMILES IDX 7 1 6 2 5 3 2 4 3 5 25 6 4 7 23 8 1 9 24 10 8 11 9 12 10 13
REMARK SMILES IDX 11 14 14 15 12 16 13 17 15 18 16 19 21 20 17 21 20 22 18 23
REMARK SMILES IDX 22 24 19 25
REMARK H PARENT
ROOT
ATOM      1  O   UNL     1     103.734 100.273 117.184  1.00  0.00    -0.367 OA
ENDROOT
BRANCH   1   2
ATOM      2  C   UNL     1     104.283  99.156 116.680  1.00  0.00     0.198 C 
BRANCH   2   3
ATOM      3  C   UNL     1     103.654  97.901 117.147  1.00  0.00    -0.004 A 
ATOM      4  C   UNL     1     102.464  95.610 118.327  1.00  0.00     0.042 A 
ATOM      5  C   UNL     1     102.275  96.881 118.842  1.00  0.00     0.021 A 
ATOM      6  C   UNL     1     103.259  95.517 117.211  1.00  0.00     0.041 A 
ATOM      7  C   UNL     1     102.841  98.004 118.288  1.00  0.00     0.009 A 
ATOM      8  C   UNL     1     103.842  96.655 116.633  1.00  0.00     0.048 A 
ATOM      9  Cl  UNL     1     101.734  94.190 119.061  1.00  0.00    -0.084 Cl
ATOM     10  Cl  UNL     1     104.771  96.485 115.147  1.00  0.00    -0.084 Cl
ENDBRANCH   2   3
ENDBRANCH   1   2
BRANCH   1  11
ATOM     11  C   UNL     1     103.894 101.520 116.788  1.00  0.00     0.170 C 
BRANCH  11  12
ATOM     12  C   UNL     1     103.761 101.534 115.245  1.00  0.00     0.160 C 
BRANCH  12  13
ATOM     13  N   UNL     1     104.660 102.516 114.722  1.00  0.00    -0.335 N 
ATOM     14  C   UNL     1     104.762 102.946 113.455  1.00  0.00     0.107 A 
ATOM     15  C   UNL     1     105.567 103.167 115.478  1.00  0.00     0.199 A 
ATOM     16  C   UNL     1     105.770 103.887 113.460  1.00  0.00     0.130 A 
ATOM     17  N   UNL     1     106.247 104.005 114.710  1.00  0.00    -0.245 NA
ENDBRANCH  12  13
ENDBRANCH  11  12
BRANCH  11  18
ATOM     18  C   UNL     1     102.828 102.451 117.337  1.00  0.00     0.001 A 
ATOM     19  C   UNL     1     101.549 102.453 116.836  1.00  0.00     0.009 A 
ATOM     20  C   UNL     1     103.137 103.318 118.354  1.00  0.00     0.048 A 
ATOM     21  C   UNL     1     100.591 103.331 117.364  1.00  0.00     0.021 A 
ATOM     22  C   UNL     1     102.193 104.193 118.887  1.00  0.00     0.041 A 
ATOM     23  C   UNL     1     100.905 104.197 118.384  1.00  0.00     0.042 A 
ATOM     24  Cl  UNL     1     104.776 103.301 118.979  1.00  0.00    -0.084 Cl
ATOM     25  Cl  UNL     1      99.708 105.300 119.045  1.00  0.00    -0.084 Cl
ENDBRANCH  11  18
ENDBRANCH   1  11
TORSDOF 6
ENDMDL
