MODEL 1
REMARK VINA RESULT:      -5.6      0.000      0.000
REMARK SMILES O=C1c2c([O-])ccc(O)c2C(=O)c2c(NCC[NH2+]CCO)ccc(NCCNCCO)c21
REMARK SMILES IDX 1 1 2 2 3 3 4 4 5 5 6 6 7 7 8 8 10 9 11 10 12 11 13 12 14 13
REMARK SMILES IDX 22 14 23 15 24 16 32 17 25 18 26 20 27 21 28 22 29 24 30 25
REMARK SMILES IDX 31 26 9 28 15 30 16 32 17 33 18 34 19 37 20 38 21 39
REMARK H PARENT 25 19 28 23 31 27 9 29 15 31 18 35 18 36 21 40
ROOT
ATOM      1  O   UNL     1     107.408 104.871 114.107  1.00  0.00    -0.288 OA
ATOM      2  C   UNL     1     106.512 104.902 114.985  1.00  0.00     0.196 C 
ATOM      3  C   UNL     1     106.631 105.907 116.067  1.00  0.00     0.030 A 
ATOM      4  C   UNL     1     107.724 106.752 116.042  1.00  0.00    -0.097 A 
ATOM      5  O   UNL     1     108.660 106.633 115.018  1.00  0.00    -0.872 OA
ATOM      6  C   UNL     1     107.856 107.696 117.036  1.00  0.00    -0.004 A 
ATOM      7  C   UNL     1     106.921 107.791 118.030  1.00  0.00     0.046 A 
ATOM      8  C   UNL     1     105.825 106.959 118.074  1.00  0.00     0.127 A 
ATOM      9  C   UNL     1     105.703 106.008 117.061  1.00  0.00     0.075 A 
ATOM     10  C   UNL     1     104.551 105.099 117.066  1.00  0.00     0.200 C 
ATOM     11  O   UNL     1     103.748 105.262 118.016  1.00  0.00    -0.288 OA
ATOM     12  C   UNL     1     104.412 104.102 116.014  1.00  0.00     0.059 A 
ATOM     13  C   UNL     1     103.321 103.280 116.069  1.00  0.00     0.046 A 
ATOM     14  C   UNL     1     103.223 102.327 115.035  1.00  0.00     0.028 A 
ATOM     15  C   UNL     1     104.153 102.235 114.048  1.00  0.00     0.028 A 
ATOM     16  C   UNL     1     105.275 103.079 113.990  1.00  0.00     0.046 A 
ATOM     17  C   UNL     1     105.386 104.012 114.988  1.00  0.00     0.059 A 
ENDROOT
BRANCH  16  18
ATOM     18  N   UNL     1     106.168 102.918 112.890  1.00  0.00    -0.383 N 
ATOM     19  H   UNL     1     107.155 103.118 112.970  1.00  0.00     0.160 HD
BRANCH  18  20
ATOM     20  C   UNL     1     105.710 102.464 111.590  1.00  0.00     0.128 C 
BRANCH  20  21
ATOM     21  C   UNL     1     106.793 102.189 110.609  1.00  0.00     0.102 C 
BRANCH  21  22
ATOM     22  N   UNL     1     107.100 100.755 110.527  1.00  0.00    -0.313 NA
ATOM     23  H   UNL     1     107.894 100.587 111.191  1.00  0.00     0.122 HD
BRANCH  22  24
ATOM     24  C   UNL     1     107.629 100.517 109.192  1.00  0.00     0.109 C 
BRANCH  24  25
ATOM     25  C   UNL     1     107.183  99.178 108.657  1.00  0.00     0.171 C 
BRANCH  25  26
ATOM     26  O   UNL     1     108.263  98.415 108.220  1.00  0.00    -0.395 OA
ATOM     27  H   UNL     1     109.095  98.896 108.486  1.00  0.00     0.210 HD
ENDBRANCH  25  26
ENDBRANCH  24  25
ENDBRANCH  22  24
ENDBRANCH  21  22
ENDBRANCH  20  21
ENDBRANCH  18  20
ENDBRANCH  16  18
BRANCH   8  28
ATOM     28  O   UNL     1     104.869 107.060 119.093  1.00  0.00    -0.507 OA
ATOM     29  H   UNL     1     104.912 107.801 119.795  1.00  0.00     0.293 HD
ENDBRANCH   8  28
BRANCH  13  30
ATOM     30  N   UNL     1     102.309 103.303 117.051  1.00  0.00    -0.379 N 
ATOM     31  H   UNL     1     101.524 103.937 117.073  1.00  0.00     0.160 HD
BRANCH  30  32
ATOM     32  C   UNL     1     102.339 102.345 118.175  1.00  0.00     0.174 C 
BRANCH  32  33
ATOM     33  C   UNL     1     101.789 101.016 117.806  1.00  0.00     0.281 C 
BRANCH  33  34
ATOM     34  N   UNL     1     102.759  99.969 117.713  1.00  0.00    -0.343 N 
ATOM     35  H   UNL     1     103.541 100.180 117.052  1.00  0.00     0.346 HD
ATOM     36  H   UNL     1     103.206  99.864 118.657  1.00  0.00     0.346 HD
BRANCH  34  37
ATOM     37  C   UNL     1     102.200  98.683 117.375  1.00  0.00     0.289 C 
BRANCH  37  38
ATOM     38  C   UNL     1     103.101  97.890 116.456  1.00  0.00     0.217 C 
BRANCH  38  39
ATOM     39  O   UNL     1     102.458  97.719 115.243  1.00  0.00    -0.391 OA
ATOM     40  H   UNL     1     102.398  96.732 115.082  1.00  0.00     0.210 HD
ENDBRANCH  38  39
ENDBRANCH  37  38
ENDBRANCH  34  37
ENDBRANCH  33  34
ENDBRANCH  32  33
ENDBRANCH  30  32
ENDBRANCH  13  30
TORSDOF 15
ENDMDL
MODEL 2
REMARK VINA RESULT:      -5.4      1.457      1.564
REMARK SMILES O=C1c2c([O-])ccc(O)c2C(=O)c2c(NCC[NH2+]CCO)ccc(NCCNCCO)c21
REMARK SMILES IDX 1 1 2 2 3 3 4 4 5 5 6 6 7 7 8 8 10 9 11 10 12 11 13 12 14 13
REMARK SMILES IDX 22 14 23 15 24 16 32 17 25 18 26 20 27 21 28 22 29 24 30 25
REMARK SMILES IDX 31 26 9 28 15 30 16 32 17 33 18 34 19 37 20 38 21 39
REMARK H PARENT 25 19 28 23 31 27 9 29 15 31 18 35 18 36 21 40
ROOT
ATOM      1  O   UNL     1     107.979 105.395 113.851  1.00  0.00    -0.288 OA
ATOM      2  C   UNL     1     107.071 105.293 114.712  1.00  0.00     0.196 C 
ATOM      3  C   UNL     1     107.158 106.146 115.921  1.00  0.00     0.030 A 
ATOM      4  C   UNL     1     108.234 107.005 116.024  1.00  0.00    -0.097 A 
ATOM      5  O   UNL     1     109.185 107.041 115.008  1.00  0.00    -0.872 OA
ATOM      6  C   UNL     1     108.336 107.810 117.138  1.00  0.00    -0.004 A 
ATOM      7  C   UNL     1     107.387 107.756 118.121  1.00  0.00     0.046 A 
ATOM      8  C   UNL     1     106.306 106.906 118.038  1.00  0.00     0.127 A 
ATOM      9  C   UNL     1     106.215 106.097 116.905  1.00  0.00     0.075 A 
ATOM     10  C   UNL     1     105.081 105.176 116.772  1.00  0.00     0.200 C 
ATOM     11  O   UNL     1     104.263 105.197 117.723  1.00  0.00    -0.288 OA
ATOM     12  C   UNL     1     104.974 104.326 115.594  1.00  0.00     0.059 A 
ATOM     13  C   UNL     1     103.898 103.485 115.523  1.00  0.00     0.046 A 
ATOM     14  C   UNL     1     103.831 102.678 114.369  1.00  0.00     0.028 A 
ATOM     15  C   UNL     1     104.775 102.735 113.393  1.00  0.00     0.028 A 
ATOM     16  C   UNL     1     105.881 103.598 113.465  1.00  0.00     0.046 A 
ATOM     17  C   UNL     1     105.963 104.391 114.580  1.00  0.00     0.059 A 
ENDROOT
BRANCH  16  18
ATOM     18  N   UNL     1     106.791 103.601 112.367  1.00  0.00    -0.383 N 
ATOM     19  H   UNL     1     107.553 104.261 112.307  1.00  0.00     0.160 HD
BRANCH  18  20
ATOM     20  C   UNL     1     106.671 102.660 111.268  1.00  0.00     0.128 C 
BRANCH  20  21
ATOM     21  C   UNL     1     107.600 102.904 110.134  1.00  0.00     0.102 C 
BRANCH  21  22
ATOM     22  N   UNL     1     108.511 101.771 109.924  1.00  0.00    -0.313 NA
ATOM     23  H   UNL     1     109.259 101.859 110.654  1.00  0.00     0.122 HD
BRANCH  22  24
ATOM     24  C   UNL     1     109.164 101.993 108.643  1.00  0.00     0.109 C 
BRANCH  24  25
ATOM     25  C   UNL     1     110.650 102.197 108.814  1.00  0.00     0.171 C 
BRANCH  25  26
ATOM     26  O   UNL     1     111.167 103.043 107.835  1.00  0.00    -0.395 OA
ATOM     27  H   UNL     1     110.888 103.972 108.067  1.00  0.00     0.210 HD
ENDBRANCH  25  26
ENDBRANCH  24  25
ENDBRANCH  22  24
ENDBRANCH  21  22
ENDBRANCH  20  21
ENDBRANCH  18  20
ENDBRANCH  16  18
BRANCH   8  28
ATOM     28  O   UNL     1     105.336 106.853 119.047  1.00  0.00    -0.507 OA
ATOM     29  H   UNL     1     104.383 107.185 118.890  1.00  0.00     0.293 HD
ENDBRANCH   8  28
BRANCH  13  30
ATOM     30  N   UNL     1     102.873 103.360 116.483  1.00  0.00    -0.379 N 
ATOM     31  H   UNL     1     102.613 104.059 117.163  1.00  0.00     0.160 HD
BRANCH  30  32
ATOM     32  C   UNL     1     102.071 102.122 116.559  1.00  0.00     0.174 C 
BRANCH  32  33
ATOM     33  C   UNL     1     102.708 101.081 117.406  1.00  0.00     0.281 C 
BRANCH  33  34
ATOM     34  N   UNL     1     103.219  99.953 116.690  1.00  0.00    -0.343 N 
ATOM     35  H   UNL     1     103.010  99.977 115.666  1.00  0.00     0.346 HD
ATOM     36  H   UNL     1     104.266  99.975 116.767  1.00  0.00     0.346 HD
BRANCH  34  37
ATOM     37  C   UNL     1     102.792  98.682 117.221  1.00  0.00     0.289 C 
BRANCH  37  38
ATOM     38  C   UNL     1     103.187  97.527 116.329  1.00  0.00     0.217 C 
BRANCH  38  39
ATOM     39  O   UNL     1     102.510  97.643 115.127  1.00  0.00    -0.391 OA
ATOM     40  H   UNL     1     101.610  97.224 115.258  1.00  0.00     0.210 HD
ENDBRANCH  38  39
ENDBRANCH  37  38
ENDBRANCH  34  37
ENDBRANCH  33  34
ENDBRANCH  32  33
ENDBRANCH  30  32
ENDBRANCH  13  30
TORSDOF 15
ENDMDL
MODEL 3
REMARK VINA RESULT:      -4.9      1.887      7.040
REMARK SMILES O=C1c2c([O-])ccc(O)c2C(=O)c2c(NCC[NH2+]CCO)ccc(NCCNCCO)c21
REMARK SMILES IDX 1 1 2 2 3 3 4 4 5 5 6 6 7 7 8 8 10 9 11 10 12 11 13 12 14 13
REMARK SMILES IDX 22 14 23 15 24 16 32 17 25 18 26 20 27 21 28 22 29 24 30 25
REMARK SMILES IDX 31 26 9 28 15 30 16 32 17 33 18 34 19 37 20 38 21 39
REMARK H PARENT 25 19 28 23 31 27 9 29 15 31 18 35 18 36 21 40
ROOT
ATOM      1  O   UNL     1     104.291 104.775 117.905  1.00  0.00    -0.288 OA
ATOM      2  C   UNL     1     105.045 104.822 116.903  1.00  0.00     0.196 C 
ATOM      3  C   UNL     1     106.163 105.794 116.914  1.00  0.00     0.030 A 
ATOM      4  C   UNL     1     106.308 106.591 118.033  1.00  0.00    -0.097 A 
ATOM      5  O   UNL     1     105.417 106.456 119.093  1.00  0.00    -0.872 OA
ATOM      6  C   UNL     1     107.341 107.502 118.068  1.00  0.00    -0.004 A 
ATOM      7  C   UNL     1     108.204 107.613 117.013  1.00  0.00     0.046 A 
ATOM      8  C   UNL     1     108.076 106.829 115.888  1.00  0.00     0.127 A 
ATOM      9  C   UNL     1     107.027 105.910 115.865  1.00  0.00     0.075 A 
ATOM     10  C   UNL     1     106.850 105.052 114.688  1.00  0.00     0.200 C 
ATOM     11  O   UNL     1     107.689 105.226 113.772  1.00  0.00    -0.288 OA
ATOM     12  C   UNL     1     105.758 104.089 114.652  1.00  0.00     0.059 A 
ATOM     13  C   UNL     1     105.640 103.318 113.530  1.00  0.00     0.046 A 
ATOM     14  C   UNL     1     104.570 102.399 113.531  1.00  0.00     0.028 A 
ATOM     15  C   UNL     1     103.715 102.290 114.583  1.00  0.00     0.028 A 
ATOM     16  C   UNL     1     103.836 103.083 115.736  1.00  0.00     0.046 A 
ATOM     17  C   UNL     1     104.871 103.982 115.752  1.00  0.00     0.059 A 
ENDROOT
BRANCH  16  18
ATOM     18  N   UNL     1     102.905 102.859 116.793  1.00  0.00    -0.383 N 
ATOM     19  H   UNL     1     102.167 103.517 117.004  1.00  0.00     0.160 HD
BRANCH  18  20
ATOM     20  C   UNL     1     102.965 101.676 117.631  1.00  0.00     0.128 C 
BRANCH  20  21
ATOM     21  C   UNL     1     101.694 101.337 118.323  1.00  0.00     0.102 C 
BRANCH  21  22
ATOM     22  N   UNL     1     100.706 100.769 117.396  1.00  0.00    -0.313 NA
ATOM     23  H   UNL     1     100.992 101.083 116.437  1.00  0.00     0.122 HD
BRANCH  22  24
ATOM     24  C   UNL     1      99.440 101.429 117.679  1.00  0.00     0.109 C 
BRANCH  24  25
ATOM     25  C   UNL     1      99.656 102.746 118.384  1.00  0.00     0.171 C 
BRANCH  25  26
ATOM     26  O   UNL     1      99.814 103.793 117.479  1.00  0.00    -0.395 OA
ATOM     27  H   UNL     1     100.792 103.961 117.386  1.00  0.00     0.210 HD
ENDBRANCH  25  26
ENDBRANCH  24  25
ENDBRANCH  22  24
ENDBRANCH  21  22
ENDBRANCH  20  21
ENDBRANCH  18  20
ENDBRANCH  16  18
BRANCH   8  28
ATOM     28  O   UNL     1     108.961 106.945 114.809  1.00  0.00    -0.507 OA
ATOM     29  H   UNL     1     109.194 106.144 114.220  1.00  0.00     0.293 HD
ENDBRANCH   8  28
BRANCH  13  30
ATOM     30  N   UNL     1     106.478 103.361 112.396  1.00  0.00    -0.379 N 
ATOM     31  H   UNL     1     107.212 104.033 112.230  1.00  0.00     0.160 HD
BRANCH  30  32
ATOM     32  C   UNL     1     106.321 102.365 111.316  1.00  0.00     0.174 C 
BRANCH  32  33
ATOM     33  C   UNL     1     107.401 102.450 110.301  1.00  0.00     0.281 C 
BRANCH  33  34
ATOM     34  N   UNL     1     107.947 101.191 109.898  1.00  0.00    -0.343 N 
ATOM     35  H   UNL     1     108.534 100.734 110.632  1.00  0.00     0.346 HD
ATOM     36  H   UNL     1     107.144 100.536 109.727  1.00  0.00     0.346 HD
BRANCH  34  37
ATOM     37  C   UNL     1     108.701 101.248 108.670  1.00  0.00     0.289 C 
BRANCH  37  38
ATOM     38  C   UNL     1     109.926 102.127 108.790  1.00  0.00     0.217 C 
BRANCH  38  39
ATOM     39  O   UNL     1     111.023 101.428 108.317  1.00  0.00    -0.391 OA
ATOM     40  H   UNL     1     111.499 101.058 109.115  1.00  0.00     0.210 HD
ENDBRANCH  38  39
ENDBRANCH  37  38
ENDBRANCH  34  37
ENDBRANCH  33  34
ENDBRANCH  32  33
ENDBRANCH  30  32
ENDBRANCH  13  30
TORSDOF 15
ENDMDL
MODEL 4
REMARK VINA RESULT:      -4.8      2.668      6.092
REMARK SMILES O=C1c2c([O-])ccc(O)c2C(=O)c2c(NCC[NH2+]CCO)ccc(NCCNCCO)c21
REMARK SMILES IDX 1 1 2 2 3 3 4 4 5 5 6 6 7 7 8 8 10 9 11 10 12 11 13 12 14 13
REMARK SMILES IDX 22 14 23 15 24 16 32 17 25 18 26 20 27 21 28 22 29 24 30 25
REMARK SMILES IDX 31 26 9 28 15 30 16 32 17 33 18 34 19 37 20 38 21 39
REMARK H PARENT 25 19 28 23 31 27 9 29 15 31 18 35 18 36 21 40
ROOT
ATOM      1  O   UNL     1     103.747 102.804 114.191  1.00  0.00    -0.288 OA
ATOM      2  C   UNL     1     104.128 103.670 115.017  1.00  0.00     0.196 C 
ATOM      3  C   UNL     1     103.221 104.010 116.138  1.00  0.00     0.030 A 
ATOM      4  C   UNL     1     102.009 103.351 116.206  1.00  0.00    -0.097 A 
ATOM      5  O   UNL     1     101.686 102.405 115.237  1.00  0.00    -0.872 OA
ATOM      6  C   UNL     1     101.149 103.649 117.240  1.00  0.00    -0.004 A 
ATOM      7  C   UNL     1     101.491 104.583 118.179  1.00  0.00     0.046 A 
ATOM      8  C   UNL     1     102.694 105.252 118.129  1.00  0.00     0.127 A 
ATOM      9  C   UNL     1     103.556 104.940 117.078  1.00  0.00     0.075 A 
ATOM     10  C   UNL     1     104.849 105.627 116.983  1.00  0.00     0.200 C 
ATOM     11  O   UNL     1     105.074 106.465 117.889  1.00  0.00    -0.288 OA
ATOM     12  C   UNL     1     105.758 105.310 115.890  1.00  0.00     0.059 A 
ATOM     13  C   UNL     1     106.947 105.983 115.850  1.00  0.00     0.046 A 
ATOM     14  C   UNL     1     107.799 105.650 114.776  1.00  0.00     0.028 A 
ATOM     15  C   UNL     1     107.456 104.721 113.845  1.00  0.00     0.028 A 
ATOM     16  C   UNL     1     106.233 104.030 113.885  1.00  0.00     0.046 A 
ATOM     17  C   UNL     1     105.393 104.341 114.923  1.00  0.00     0.059 A 
ENDROOT
BRANCH  16  18
ATOM     18  N   UNL     1     105.993 103.051 112.877  1.00  0.00    -0.383 N 
ATOM     19  H   UNL     1     105.295 102.330 112.988  1.00  0.00     0.160 HD
BRANCH  18  20
ATOM     20  C   UNL     1     106.742 103.029 111.634  1.00  0.00     0.128 C 
BRANCH  20  21
ATOM     21  C   UNL     1     106.283 102.017 110.647  1.00  0.00     0.102 C 
BRANCH  21  22
ATOM     22  N   UNL     1     107.113 100.806 110.685  1.00  0.00    -0.313 NA
ATOM     23  H   UNL     1     107.968 101.055 111.239  1.00  0.00     0.122 HD
BRANCH  22  24
ATOM     24  C   UNL     1     107.565 100.567 109.323  1.00  0.00     0.109 C 
BRANCH  24  25
ATOM     25  C   UNL     1     107.287  99.146 108.894  1.00  0.00     0.171 C 
BRANCH  25  26
ATOM     26  O   UNL     1     107.656  98.928 107.569  1.00  0.00    -0.395 OA
ATOM     27  H   UNL     1     108.617  98.661 107.568  1.00  0.00     0.210 HD
ENDBRANCH  25  26
ENDBRANCH  24  25
ENDBRANCH  22  24
ENDBRANCH  21  22
ENDBRANCH  20  21
ENDBRANCH  18  20
ENDBRANCH  16  18
BRANCH   8  28
ATOM     28  O   UNL     1     103.041 106.207 119.093  1.00  0.00    -0.507 OA
ATOM     29  H   UNL     1     103.419 105.936 120.002  1.00  0.00     0.293 HD
ENDBRANCH   8  28
BRANCH  13  30
ATOM     30  N   UNL     1     107.386 106.957 116.769  1.00  0.00    -0.379 N 
ATOM     31  H   UNL     1     107.567 106.804 117.750  1.00  0.00     0.160 HD
BRANCH  30  32
ATOM     32  C   UNL     1     107.619 108.347 116.326  1.00  0.00     0.174 C 
BRANCH  32  33
ATOM     33  C   UNL     1     109.027 108.588 115.922  1.00  0.00     0.281 C 
BRANCH  33  34
ATOM     34  N   UNL     1     110.009 108.009 116.787  1.00  0.00    -0.343 N 
ATOM     35  H   UNL     1     110.230 108.597 117.622  1.00  0.00     0.346 HD
ATOM     36  H   UNL     1     109.611 107.115 117.165  1.00  0.00     0.346 HD
BRANCH  34  37
ATOM     37  C   UNL     1     111.242 107.665 116.123  1.00  0.00     0.289 C 
BRANCH  37  38
ATOM     38  C   UNL     1     112.154 106.840 117.002  1.00  0.00     0.217 C 
BRANCH  38  39
ATOM     39  O   UNL     1     112.563 105.723 116.293  1.00  0.00    -0.391 OA
ATOM     40  H   UNL     1     112.128 105.774 115.393  1.00  0.00     0.210 HD
ENDBRANCH  38  39
ENDBRANCH  37  38
ENDBRANCH  34  37
ENDBRANCH  33  34
ENDBRANCH  32  33
ENDBRANCH  30  32
ENDBRANCH  13  30
TORSDOF 15
ENDMDL
MODEL 5
REMARK VINA RESULT:      -4.7      3.126      6.756
REMARK SMILES O=C1c2c([O-])ccc(O)c2C(=O)c2c(NCC[NH2+]CCO)ccc(NCCNCCO)c21
REMARK SMILES IDX 1 1 2 2 3 3 4 4 5 5 6 6 7 7 8 8 10 9 11 10 12 11 13 12 14 13
REMARK SMILES IDX 22 14 23 15 24 16 32 17 25 18 26 20 27 21 28 22 29 24 30 25
REMARK SMILES IDX 31 26 9 28 15 30 16 32 17 33 18 34 19 37 20 38 21 39
REMARK H PARENT 25 19 28 23 31 27 9 29 15 31 18 35 18 36 21 40
ROOT
ATOM      1  O   UNL     1     103.017 102.877 114.674  1.00  0.00    -0.288 OA
ATOM      2  C   UNL     1     103.626 103.756 115.332  1.00  0.00     0.196 C 
ATOM      3  C   UNL     1     104.972 104.166 114.869  1.00  0.00     0.030 A 
ATOM      4  C   UNL     1     105.475 103.555 113.736  1.00  0.00    -0.097 A 
ATOM      5  O   UNL     1     104.714 102.593 113.080  1.00  0.00    -0.872 OA
ATOM      6  C   UNL     1     106.725 103.921 113.285  1.00  0.00    -0.004 A 
ATOM      7  C   UNL     1     107.451 104.869 113.949  1.00  0.00     0.046 A 
ATOM      8  C   UNL     1     106.969 105.490 115.080  1.00  0.00     0.127 A 
ATOM      9  C   UNL     1     105.703 105.112 115.526  1.00  0.00     0.075 A 
ATOM     10  C   UNL     1     105.146 105.745 116.727  1.00  0.00     0.200 C 
ATOM     11  O   UNL     1     105.885 106.603 117.267  1.00  0.00    -0.288 OA
ATOM     12  C   UNL     1     103.825 105.359 117.203  1.00  0.00     0.059 A 
ATOM     13  C   UNL     1     103.358 105.980 118.328  1.00  0.00     0.046 A 
ATOM     14  C   UNL     1     102.077 105.577 118.758  1.00  0.00     0.028 A 
ATOM     15  C   UNL     1     101.357 104.634 118.095  1.00  0.00     0.028 A 
ATOM     16  C   UNL     1     101.836 103.996 116.939  1.00  0.00     0.046 A 
ATOM     17  C   UNL     1     103.080 104.374 116.506  1.00  0.00     0.059 A 
ENDROOT
BRANCH  16  18
ATOM     18  N   UNL     1     100.981 103.048 116.304  1.00  0.00    -0.383 N 
ATOM     19  H   UNL     1     100.765 103.099 115.319  1.00  0.00     0.160 HD
BRANCH  18  20
ATOM     20  C   UNL     1     100.367 101.956 117.037  1.00  0.00     0.128 C 
BRANCH  20  21
ATOM     21  C   UNL     1     101.322 101.072 117.756  1.00  0.00     0.102 C 
BRANCH  21  22
ATOM     22  N   UNL     1     102.379 100.577 116.864  1.00  0.00    -0.313 NA
ATOM     23  H   UNL     1     101.915 100.373 115.946  1.00  0.00     0.122 HD
BRANCH  22  24
ATOM     24  C   UNL     1     102.807  99.292 117.397  1.00  0.00     0.109 C 
BRANCH  24  25
ATOM     25  C   UNL     1     103.609  98.517 116.379  1.00  0.00     0.171 C 
BRANCH  25  26
ATOM     26  O   UNL     1     104.868  99.079 116.183  1.00  0.00    -0.395 OA
ATOM     27  H   UNL     1     105.537  98.342 116.250  1.00  0.00     0.210 HD
ENDBRANCH  25  26
ENDBRANCH  24  25
ENDBRANCH  22  24
ENDBRANCH  21  22
ENDBRANCH  20  21
ENDBRANCH  18  20
ENDBRANCH  16  18
BRANCH   8  28
ATOM     28  O   UNL     1     107.716 106.462 115.758  1.00  0.00    -0.507 OA
ATOM     29  H   UNL     1     107.536 107.459 115.631  1.00  0.00     0.293 HD
ENDBRANCH   8  28
BRANCH  13  30
ATOM     30  N   UNL     1     104.032 106.966 119.077  1.00  0.00    -0.379 N 
ATOM     31  H   UNL     1     104.860 106.820 119.635  1.00  0.00     0.160 HD
BRANCH  30  32
ATOM     32  C   UNL     1     103.536 108.357 119.093  1.00  0.00     0.174 C 
BRANCH  32  33
ATOM     33  C   UNL     1     104.123 109.185 118.009  1.00  0.00     0.281 C 
BRANCH  33  34
ATOM     34  N   UNL     1     103.514 109.016 116.726  1.00  0.00    -0.343 N 
ATOM     35  H   UNL     1     104.180 109.127 115.928  1.00  0.00     0.346 HD
ATOM     36  H   UNL     1     103.163 108.028 116.668  1.00  0.00     0.346 HD
BRANCH  34  37
ATOM     37  C   UNL     1     102.374 109.871 116.503  1.00  0.00     0.289 C 
BRANCH  37  38
ATOM     38  C   UNL     1     102.653 110.937 115.467  1.00  0.00     0.217 C 
BRANCH  38  39
ATOM     39  O   UNL     1     103.907 110.713 114.926  1.00  0.00    -0.391 OA
ATOM     40  H   UNL     1     103.835 110.888 113.942  1.00  0.00     0.210 HD
ENDBRANCH  38  39
ENDBRANCH  37  38
ENDBRANCH  34  37
ENDBRANCH  33  34
ENDBRANCH  32  33
ENDBRANCH  30  32
ENDBRANCH  13  30
TORSDOF 15
ENDMDL
MODEL 6
REMARK VINA RESULT:      -4.7      1.208      6.291
REMARK SMILES O=C1c2c([O-])ccc(O)c2C(=O)c2c(NCC[NH2+]CCO)ccc(NCCNCCO)c21
REMARK SMILES IDX 1 1 2 2 3 3 4 4 5 5 6 6 7 7 8 8 10 9 11 10 12 11 13 12 14 13
REMARK SMILES IDX 22 14 23 15 24 16 32 17 25 18 26 20 27 21 28 22 29 24 30 25
REMARK SMILES IDX 31 26 9 28 15 30 16 32 17 33 18 34 19 37 20 38 21 39
REMARK H PARENT 25 19 28 23 31 27 9 29 15 31 18 35 18 36 21 40
ROOT
ATOM      1  O   UNL     1     103.727 105.009 117.424  1.00  0.00    -0.288 OA
ATOM      2  C   UNL     1     104.648 104.982 116.573  1.00  0.00     0.196 C 
ATOM      3  C   UNL     1     105.820 105.863 116.786  1.00  0.00     0.030 A 
ATOM      4  C   UNL     1     105.827 106.661 117.914  1.00  0.00    -0.097 A 
ATOM      5  O   UNL     1     104.753 106.611 118.797  1.00  0.00    -0.872 OA
ATOM      6  C   UNL     1     106.907 107.488 118.134  1.00  0.00    -0.004 A 
ATOM      7  C   UNL     1     107.950 107.517 117.251  1.00  0.00     0.046 A 
ATOM      8  C   UNL     1     107.963 106.730 116.120  1.00  0.00     0.127 A 
ATOM      9  C   UNL     1     106.864 105.897 115.908  1.00  0.00     0.075 A 
ATOM     10  C   UNL     1     106.833 105.040 114.717  1.00  0.00     0.200 C 
ATOM     11  O   UNL     1     107.833 105.136 113.967  1.00  0.00    -0.288 OA
ATOM     12  C   UNL     1     105.691 104.166 114.486  1.00  0.00     0.059 A 
ATOM     13  C   UNL     1     105.714 103.392 113.359  1.00  0.00     0.046 A 
ATOM     14  C   UNL     1     104.591 102.561 113.168  1.00  0.00     0.028 A 
ATOM     15  C   UNL     1     103.556 102.534 114.049  1.00  0.00     0.028 A 
ATOM     16  C   UNL     1     103.532 103.330 115.207  1.00  0.00     0.046 A 
ATOM     17  C   UNL     1     104.616 104.144 115.409  1.00  0.00     0.059 A 
ENDROOT
BRANCH  16  18
ATOM     18  N   UNL     1     102.412 103.194 116.079  1.00  0.00    -0.383 N 
ATOM     19  H   UNL     1     101.708 103.913 116.161  1.00  0.00     0.160 HD
BRANCH  18  20
ATOM     20  C   UNL     1     102.222 102.016 116.906  1.00  0.00     0.128 C 
BRANCH  20  21
ATOM     21  C   UNL     1     103.455 101.227 117.160  1.00  0.00     0.102 C 
BRANCH  21  22
ATOM     22  N   UNL     1     103.990 101.474 118.506  1.00  0.00    -0.313 NA
ATOM     23  H   UNL     1     104.923 101.935 118.369  1.00  0.00     0.122 HD
BRANCH  22  24
ATOM     24  C   UNL     1     104.263 100.171 119.093  1.00  0.00     0.109 C 
BRANCH  24  25
ATOM     25  C   UNL     1     103.549  99.072 118.342  1.00  0.00     0.171 C 
BRANCH  25  26
ATOM     26  O   UNL     1     104.280  97.886 118.351  1.00  0.00    -0.395 OA
ATOM     27  H   UNL     1     104.299  97.541 117.415  1.00  0.00     0.210 HD
ENDBRANCH  25  26
ENDBRANCH  24  25
ENDBRANCH  22  24
ENDBRANCH  21  22
ENDBRANCH  20  21
ENDBRANCH  18  20
ENDBRANCH  16  18
BRANCH   8  28
ATOM     28  O   UNL     1     109.033 106.762 115.217  1.00  0.00    -0.507 OA
ATOM     29  H   UNL     1     108.976 107.280 114.338  1.00  0.00     0.293 HD
ENDBRANCH   8  28
BRANCH  13  30
ATOM     30  N   UNL     1     106.741 103.354 112.394  1.00  0.00    -0.379 N 
ATOM     31  H   UNL     1     107.636 103.815 112.466  1.00  0.00     0.160 HD
BRANCH  30  32
ATOM     32  C   UNL     1     106.559 102.591 111.142  1.00  0.00     0.174 C 
BRANCH  32  33
ATOM     33  C   UNL     1     107.729 102.696 110.235  1.00  0.00     0.281 C 
BRANCH  33  34
ATOM     34  N   UNL     1     108.042 101.500 109.516  1.00  0.00    -0.343 N 
ATOM     35  H   UNL     1     108.105 101.637 108.481  1.00  0.00     0.346 HD
ATOM     36  H   UNL     1     108.997 101.187 109.819  1.00  0.00     0.346 HD
BRANCH  34  37
ATOM     37  C   UNL     1     107.144 100.404 109.785  1.00  0.00     0.289 C 
BRANCH  37  38
ATOM     38  C   UNL     1     107.064  99.432 108.630  1.00  0.00     0.217 C 
BRANCH  38  39
ATOM     39  O   UNL     1     108.335  98.953 108.365  1.00  0.00    -0.391 OA
ATOM     40  H   UNL     1     108.770  98.773 109.248  1.00  0.00     0.210 HD
ENDBRANCH  38  39
ENDBRANCH  37  38
ENDBRANCH  34  37
ENDBRANCH  33  34
ENDBRANCH  32  33
ENDBRANCH  30  32
ENDBRANCH  13  30
TORSDOF 15
ENDMDL
MODEL 7
REMARK VINA RESULT:      -4.7      2.855      6.295
REMARK SMILES O=C1c2c([O-])ccc(O)c2C(=O)c2c(NCC[NH2+]CCO)ccc(NCCNCCO)c21
REMARK SMILES IDX 1 1 2 2 3 3 4 4 5 5 6 6 7 7 8 8 10 9 11 10 12 11 13 12 14 13
REMARK SMILES IDX 22 14 23 15 24 16 32 17 25 18 26 20 27 21 28 22 29 24 30 25
REMARK SMILES IDX 31 26 9 28 15 30 16 32 17 33 18 34 19 37 20 38 21 39
REMARK H PARENT 25 19 28 23 31 27 9 29 15 31 18 35 18 36 21 40
ROOT
ATOM      1  O   UNL     1     104.162 102.965 113.878  1.00  0.00    -0.288 OA
ATOM      2  C   UNL     1     104.417 103.748 114.826  1.00  0.00     0.196 C 
ATOM      3  C   UNL     1     103.412 103.884 115.907  1.00  0.00     0.030 A 
ATOM      4  C   UNL     1     102.254 103.138 115.804  1.00  0.00    -0.097 A 
ATOM      5  O   UNL     1     102.073 102.298 114.710  1.00  0.00    -0.872 OA
ATOM      6  C   UNL     1     101.305 103.247 116.797  1.00  0.00    -0.004 A 
ATOM      7  C   UNL     1     101.508 104.080 117.862  1.00  0.00     0.046 A 
ATOM      8  C   UNL     1     102.655 104.833 117.983  1.00  0.00     0.127 A 
ATOM      9  C   UNL     1     103.608 104.713 116.972  1.00  0.00     0.075 A 
ATOM     10  C   UNL     1     104.847 105.496 117.057  1.00  0.00     0.200 C 
ATOM     11  O   UNL     1     104.943 106.231 118.069  1.00  0.00    -0.288 OA
ATOM     12  C   UNL     1     105.849 105.380 116.007  1.00  0.00     0.059 A 
ATOM     13  C   UNL     1     106.982 106.134 116.137  1.00  0.00     0.046 A 
ATOM     14  C   UNL     1     107.928 105.996 115.100  1.00  0.00     0.028 A 
ATOM     15  C   UNL     1     107.723 105.165 114.043  1.00  0.00     0.028 A 
ATOM     16  C   UNL     1     106.559 104.391 113.909  1.00  0.00     0.046 A 
ATOM     17  C   UNL     1     105.628 104.512 114.908  1.00  0.00     0.059 A 
ENDROOT
BRANCH  16  18
ATOM     18  N   UNL     1     106.465 103.528 112.778  1.00  0.00    -0.383 N 
ATOM     19  H   UNL     1     105.805 102.764 112.741  1.00  0.00     0.160 HD
BRANCH  18  20
ATOM     20  C   UNL     1     107.318 103.692 111.614  1.00  0.00     0.128 C 
BRANCH  20  21
ATOM     21  C   UNL     1     107.248 102.581 110.629  1.00  0.00     0.102 C 
BRANCH  21  22
ATOM     22  N   UNL     1     107.970 102.906 109.392  1.00  0.00    -0.313 NA
ATOM     23  H   UNL     1     107.248 102.928 108.630  1.00  0.00     0.122 HD
BRANCH  22  24
ATOM     24  C   UNL     1     108.833 101.772 109.101  1.00  0.00     0.109 C 
BRANCH  24  25
ATOM     25  C   UNL     1     110.210 102.226 108.679  1.00  0.00     0.171 C 
BRANCH  25  26
ATOM     26  O   UNL     1     110.203 102.755 107.391  1.00  0.00    -0.395 OA
ATOM     27  H   UNL     1     109.284 102.634 107.024  1.00  0.00     0.210 HD
ENDBRANCH  25  26
ENDBRANCH  24  25
ENDBRANCH  22  24
ENDBRANCH  21  22
ENDBRANCH  20  21
ENDBRANCH  18  20
ENDBRANCH  16  18
BRANCH   8  28
ATOM     28  O   UNL     1     102.861 105.685 119.076  1.00  0.00    -0.507 OA
ATOM     29  H   UNL     1     103.798 105.891 119.424  1.00  0.00     0.293 HD
ENDBRANCH   8  28
BRANCH  13  30
ATOM     30  N   UNL     1     107.280 107.017 117.195  1.00  0.00    -0.379 N 
ATOM     31  H   UNL     1     107.322 106.773 118.173  1.00  0.00     0.160 HD
BRANCH  30  32
ATOM     32  C   UNL     1     107.562 108.441 116.919  1.00  0.00     0.174 C 
BRANCH  32  33
ATOM     33  C   UNL     1     108.937 108.836 117.315  1.00  0.00     0.281 C 
BRANCH  33  34
ATOM     34  N   UNL     1     109.814 107.747 117.613  1.00  0.00    -0.343 N 
ATOM     35  H   UNL     1     110.218 107.785 118.576  1.00  0.00     0.346 HD
ATOM     36  H   UNL     1     109.248 106.863 117.578  1.00  0.00     0.346 HD
BRANCH  34  37
ATOM     37  C   UNL     1     110.889 107.586 116.665  1.00  0.00     0.289 C 
BRANCH  37  38
ATOM     38  C   UNL     1     111.031 108.783 115.752  1.00  0.00     0.217 C 
BRANCH  38  39
ATOM     39  O   UNL     1     110.996 108.348 114.439  1.00  0.00    -0.391 OA
ATOM     40  H   UNL     1     110.408 108.984 113.937  1.00  0.00     0.210 HD
ENDBRANCH  38  39
ENDBRANCH  37  38
ENDBRANCH  34  37
ENDBRANCH  33  34
ENDBRANCH  32  33
ENDBRANCH  30  32
ENDBRANCH  13  30
TORSDOF 15
ENDMDL
MODEL 8
REMARK VINA RESULT:      -4.6      1.768      6.373
REMARK SMILES O=C1c2c([O-])ccc(O)c2C(=O)c2c(NCC[NH2+]CCO)ccc(NCCNCCO)c21
REMARK SMILES IDX 1 1 2 2 3 3 4 4 5 5 6 6 7 7 8 8 10 9 11 10 12 11 13 12 14 13
REMARK SMILES IDX 22 14 23 15 24 16 32 17 25 18 26 20 27 21 28 22 29 24 30 25
REMARK SMILES IDX 31 26 9 28 15 30 16 32 17 33 18 34 19 37 20 38 21 39
REMARK H PARENT 25 19 28 23 31 27 9 29 15 31 18 35 18 36 21 40
ROOT
ATOM      1  O   UNL     1     103.832 105.461 117.552  1.00  0.00    -0.288 OA
ATOM      2  C   UNL     1     104.667 105.270 116.634  1.00  0.00     0.196 C 
ATOM      3  C   UNL     1     105.909 106.078 116.642  1.00  0.00     0.030 A 
ATOM      4  C   UNL     1     106.073 106.992 117.664  1.00  0.00    -0.097 A 
ATOM      5  O   UNL     1     105.085 107.122 118.635  1.00  0.00    -0.872 OA
ATOM      6  C   UNL     1     107.221 107.754 117.694  1.00  0.00    -0.004 A 
ATOM      7  C   UNL     1     108.177 107.606 116.728  1.00  0.00     0.046 A 
ATOM      8  C   UNL     1     108.033 106.700 115.700  1.00  0.00     0.127 A 
ATOM      9  C   UNL     1     106.867 105.935 115.681  1.00  0.00     0.075 A 
ATOM     10  C   UNL     1     106.668 104.956 114.606  1.00  0.00     0.200 C 
ATOM     11  O   UNL     1     107.599 104.891 113.767  1.00  0.00    -0.288 OA
ATOM     12  C   UNL     1     105.456 104.151 114.576  1.00  0.00     0.059 A 
ATOM     13  C   UNL     1     105.322 103.257 113.550  1.00  0.00     0.046 A 
ATOM     14  C   UNL     1     104.134 102.498 113.553  1.00  0.00     0.028 A 
ATOM     15  C   UNL     1     103.186 102.647 114.516  1.00  0.00     0.028 A 
ATOM     16  C   UNL     1     103.322 103.566 115.570  1.00  0.00     0.046 A 
ATOM     17  C   UNL     1     104.471 104.313 115.583  1.00  0.00     0.059 A 
ENDROOT
BRANCH  16  18
ATOM     18  N   UNL     1     102.282 103.613 116.545  1.00  0.00    -0.383 N 
ATOM     19  H   UNL     1     101.927 104.488 116.905  1.00  0.00     0.160 HD
BRANCH  18  20
ATOM     20  C   UNL     1     101.676 102.407 117.079  1.00  0.00     0.128 C 
BRANCH  20  21
ATOM     21  C   UNL     1     102.378 101.824 118.252  1.00  0.00     0.102 C 
BRANCH  21  22
ATOM     22  N   UNL     1     103.020 100.546 117.920  1.00  0.00    -0.313 NA
ATOM     23  H   UNL     1     102.658  99.847 118.614  1.00  0.00     0.122 HD
BRANCH  22  24
ATOM     24  C   UNL     1     104.438 100.704 118.206  1.00  0.00     0.109 C 
BRANCH  24  25
ATOM     25  C   UNL     1     105.281 100.372 116.997  1.00  0.00     0.171 C 
BRANCH  25  26
ATOM     26  O   UNL     1     106.185 101.391 116.706  1.00  0.00    -0.395 OA
ATOM     27  H   UNL     1     106.397 101.855 117.563  1.00  0.00     0.210 HD
ENDBRANCH  25  26
ENDBRANCH  24  25
ENDBRANCH  22  24
ENDBRANCH  21  22
ENDBRANCH  20  21
ENDBRANCH  18  20
ENDBRANCH  16  18
BRANCH   8  28
ATOM     28  O   UNL     1     109.014 106.550 114.712  1.00  0.00    -0.507 OA
ATOM     29  H   UNL     1     109.878 107.096 114.729  1.00  0.00     0.293 HD
ENDBRANCH   8  28
BRANCH  13  30
ATOM     30  N   UNL     1     106.251 103.034 112.512  1.00  0.00    -0.379 N 
ATOM     31  H   UNL     1     107.134 103.509 112.399  1.00  0.00     0.160 HD
BRANCH  30  32
ATOM     32  C   UNL     1     105.969 102.033 111.463  1.00  0.00     0.174 C 
BRANCH  32  33
ATOM     33  C   UNL     1     106.925 102.111 110.330  1.00  0.00     0.281 C 
BRANCH  33  34
ATOM     34  N   UNL     1     107.878 103.174 110.418  1.00  0.00    -0.343 N 
ATOM     35  H   UNL     1     107.584 104.043 109.918  1.00  0.00     0.346 HD
ATOM     36  H   UNL     1     107.962 103.443 111.430  1.00  0.00     0.346 HD
BRANCH  34  37
ATOM     37  C   UNL     1     109.202 102.810 109.977  1.00  0.00     0.289 C 
BRANCH  37  38
ATOM     38  C   UNL     1     109.174 101.936 108.743  1.00  0.00     0.217 C 
BRANCH  38  39
ATOM     39  O   UNL     1     109.855 102.582 107.726  1.00  0.00    -0.391 OA
ATOM     40  H   UNL     1     110.757 102.151 107.660  1.00  0.00     0.210 HD
ENDBRANCH  38  39
ENDBRANCH  37  38
ENDBRANCH  34  37
ENDBRANCH  33  34
ENDBRANCH  32  33
ENDBRANCH  30  32
ENDBRANCH  13  30
TORSDOF 15
ENDMDL
MODEL 9
REMARK VINA RESULT:      -4.6      2.212      2.410
REMARK SMILES O=C1c2c([O-])ccc(O)c2C(=O)c2c(NCC[NH2+]CCO)ccc(NCCNCCO)c21
REMARK SMILES IDX 1 1 2 2 3 3 4 4 5 5 6 6 7 7 8 8 10 9 11 10 12 11 13 12 14 13
REMARK SMILES IDX 22 14 23 15 24 16 32 17 25 18 26 20 27 21 28 22 29 24 30 25
REMARK SMILES IDX 31 26 9 28 15 30 16 32 17 33 18 34 19 37 20 38 21 39
REMARK H PARENT 25 19 28 23 31 27 9 29 15 31 18 35 18 36 21 40
ROOT
ATOM      1  O   UNL     1     107.720 105.141 113.693  1.00  0.00    -0.288 OA
ATOM      2  C   UNL     1     106.850 104.985 114.584  1.00  0.00     0.196 C 
ATOM      3  C   UNL     1     106.953 105.808 115.812  1.00  0.00     0.030 A 
ATOM      4  C   UNL     1     108.003 106.701 115.899  1.00  0.00    -0.097 A 
ATOM      5  O   UNL     1     108.912 106.797 114.850  1.00  0.00    -0.872 OA
ATOM      6  C   UNL     1     108.119 107.479 117.030  1.00  0.00    -0.004 A 
ATOM      7  C   UNL     1     107.211 107.365 118.046  1.00  0.00     0.046 A 
ATOM      8  C   UNL     1     106.158 106.481 117.979  1.00  0.00     0.127 A 
ATOM      9  C   UNL     1     106.051 105.700 116.829  1.00  0.00     0.075 A 
ATOM     10  C   UNL     1     104.944 104.743 116.712  1.00  0.00     0.200 C 
ATOM     11  O   UNL     1     104.163 104.710 117.693  1.00  0.00    -0.288 OA
ATOM     12  C   UNL     1     104.821 103.922 115.515  1.00  0.00     0.059 A 
ATOM     13  C   UNL     1     103.773 103.046 115.461  1.00  0.00     0.046 A 
ATOM     14  C   UNL     1     103.689 102.267 114.289  1.00  0.00     0.028 A 
ATOM     15  C   UNL     1     104.593 102.384 113.280  1.00  0.00     0.028 A 
ATOM     16  C   UNL     1     105.671 103.283 113.335  1.00  0.00     0.046 A 
ATOM     17  C   UNL     1     105.768 104.048 114.468  1.00  0.00     0.059 A 
ENDROOT
BRANCH  16  18
ATOM     18  N   UNL     1     106.537 103.347 112.204  1.00  0.00    -0.383 N 
ATOM     19  H   UNL     1     107.146 104.137 112.041  1.00  0.00     0.160 HD
BRANCH  18  20
ATOM     20  C   UNL     1     106.592 102.283 111.218  1.00  0.00     0.128 C 
BRANCH  20  21
ATOM     21  C   UNL     1     107.389 102.600 110.003  1.00  0.00     0.102 C 
BRANCH  21  22
ATOM     22  N   UNL     1     108.625 101.809 109.943  1.00  0.00    -0.313 NA
ATOM     23  H   UNL     1     109.244 102.176 110.705  1.00  0.00     0.122 HD
BRANCH  22  24
ATOM     24  C   UNL     1     109.278 102.150 108.688  1.00  0.00     0.109 C 
BRANCH  24  25
ATOM     25  C   UNL     1     110.769 102.301 108.871  1.00  0.00     0.171 C 
BRANCH  25  26
ATOM     26  O   UNL     1     111.324 103.126 107.895  1.00  0.00    -0.395 OA
ATOM     27  H   UNL     1     112.275 102.852 107.779  1.00  0.00     0.210 HD
ENDBRANCH  25  26
ENDBRANCH  24  25
ENDBRANCH  22  24
ENDBRANCH  21  22
ENDBRANCH  20  21
ENDBRANCH  18  20
ENDBRANCH  16  18
BRANCH   8  28
ATOM     28  O   UNL     1     105.229 106.367 119.022  1.00  0.00    -0.507 OA
ATOM     29  H   UNL     1     105.418 105.793 119.845  1.00  0.00     0.293 HD
ENDBRANCH   8  28
BRANCH  13  30
ATOM     30  N   UNL     1     102.790 102.860 116.455  1.00  0.00    -0.379 N 
ATOM     31  H   UNL     1     102.961 102.571 117.407  1.00  0.00     0.160 HD
BRANCH  30  32
ATOM     32  C   UNL     1     101.364 103.086 116.144  1.00  0.00     0.174 C 
BRANCH  32  33
ATOM     33  C   UNL     1     100.634 103.739 117.260  1.00  0.00     0.281 C 
BRANCH  33  34
ATOM     34  N   UNL     1      99.741 102.881 117.977  1.00  0.00    -0.343 N 
ATOM     35  H   UNL     1     100.206 102.333 118.736  1.00  0.00     0.346 HD
ATOM     36  H   UNL     1      99.034 103.490 118.459  1.00  0.00     0.346 HD
BRANCH  34  37
ATOM     37  C   UNL     1      99.001 101.973 117.136  1.00  0.00     0.289 C 
BRANCH  37  38
ATOM     38  C   UNL     1      99.180 100.531 117.553  1.00  0.00     0.217 C 
BRANCH  38  39
ATOM     39  O   UNL     1      98.646 100.366 118.820  1.00  0.00    -0.391 OA
ATOM     40  H   UNL     1      97.688 100.099 118.700  1.00  0.00     0.210 HD
ENDBRANCH  38  39
ENDBRANCH  37  38
ENDBRANCH  34  37
ENDBRANCH  33  34
ENDBRANCH  32  33
ENDBRANCH  30  32
ENDBRANCH  13  30
TORSDOF 15
ENDMDL
