MODEL 1
REMARK VINA RESULT:      -5.4      0.000      0.000
REMARK SMILES Clc1ccccc1C(c1ccccc1)(c1ccccc1)n1ccnc1
REMARK SMILES IDX 1 1 2 2 3 3 4 4 5 5 6 6 7 7 8 8 9 9 10 10 14 11 11 12 13 13
REMARK SMILES IDX 12 14 15 15 16 16 20 17 17 18 19 19 18 20 21 21 22 22 25 23
REMARK SMILES IDX 23 24 24 25
REMARK H PARENT
ROOT
ATOM      1  Cl  UNL     1       4.650  14.529  -4.224  1.00  0.00    -0.084 Cl
ATOM      2  C   UNL     1       5.948  14.915  -3.116  1.00  0.00     0.047 A 
ATOM      3  C   UNL     1       5.922  16.054  -2.344  1.00  0.00     0.021 A 
ATOM      4  C   UNL     1       6.926  16.345  -1.446  1.00  0.00     0.002 A 
ATOM      5  C   UNL     1       7.969  15.460  -1.337  1.00  0.00     0.001 A 
ATOM      6  C   UNL     1       7.995  14.300  -2.123  1.00  0.00     0.008 A 
ATOM      7  C   UNL     1       7.000  14.020  -3.009  1.00  0.00     0.006 A 
ENDROOT
BRANCH   7   8
ATOM      8  C   UNL     1       7.061  12.795  -3.851  1.00  0.00     0.123 C 
BRANCH   8   9
ATOM      9  C   UNL     1       5.909  11.926  -3.478  1.00  0.00    -0.013 A 
ATOM     10  C   UNL     1       5.148  11.205  -4.338  1.00  0.00     0.007 A 
ATOM     11  C   UNL     1       5.636  11.871  -2.098  1.00  0.00     0.007 A 
ATOM     12  C   UNL     1       4.116  10.427  -3.843  1.00  0.00     0.000 A 
ATOM     13  C   UNL     1       4.612  11.097  -1.616  1.00  0.00     0.000 A 
ATOM     14  C   UNL     1       3.834  10.362  -2.478  1.00  0.00     0.000 A 
ENDBRANCH   8   9
BRANCH   8  15
ATOM     15  C   UNL     1       8.253  11.970  -3.519  1.00  0.00    -0.013 A 
ATOM     16  C   UNL     1       8.250  10.600  -3.537  1.00  0.00     0.007 A 
ATOM     17  C   UNL     1       9.424  12.610  -3.201  1.00  0.00     0.007 A 
ATOM     18  C   UNL     1       9.386   9.855  -3.244  1.00  0.00     0.000 A 
ATOM     19  C   UNL     1      10.585  11.877  -2.901  1.00  0.00     0.000 A 
ATOM     20  C   UNL     1      10.551  10.511  -2.927  1.00  0.00     0.000 A 
ENDBRANCH   8  15
BRANCH   8  21
ATOM     21  N   UNL     1       7.094  13.152  -5.239  1.00  0.00    -0.319 N 
ATOM     22  C   UNL     1       7.731  14.231  -5.771  1.00  0.00     0.109 A 
ATOM     23  C   UNL     1       6.535  12.494  -6.254  1.00  0.00     0.200 A 
ATOM     24  C   UNL     1       7.555  14.229  -7.136  1.00  0.00     0.131 A 
ATOM     25  N   UNL     1       6.820  13.156  -7.406  1.00  0.00    -0.245 NA
ENDBRANCH   8  21
ENDBRANCH   7   8
TORSDOF 4
ENDMDL
MODEL 2
REMARK VINA RESULT:      -5.3      1.152      4.528
REMARK SMILES Clc1ccccc1C(c1ccccc1)(c1ccccc1)n1ccnc1
REMARK SMILES IDX 1 1 2 2 3 3 4 4 5 5 6 6 7 7 8 8 9 9 10 10 14 11 11 12 13 13
REMARK SMILES IDX 12 14 15 15 16 16 20 17 17 18 19 19 18 20 21 21 22 22 25 23
REMARK SMILES IDX 23 24 24 25
REMARK H PARENT
ROOT
ATOM      1  Cl  UNL     1       9.253  14.163  -4.802  1.00  0.00    -0.084 Cl
ATOM      2  C   UNL     1       9.335  12.506  -4.246  1.00  0.00     0.047 A 
ATOM      3  C   UNL     1      10.528  11.825  -4.182  1.00  0.00     0.021 A 
ATOM      4  C   UNL     1      10.601  10.531  -3.714  1.00  0.00     0.002 A 
ATOM      5  C   UNL     1       9.437   9.927  -3.308  1.00  0.00     0.001 A 
ATOM      6  C   UNL     1       8.222  10.621  -3.375  1.00  0.00     0.008 A 
ATOM      7  C   UNL     1       8.158  11.898  -3.838  1.00  0.00     0.006 A 
ENDROOT
BRANCH   7   8
ATOM      8  C   UNL     1       6.852  12.607  -3.923  1.00  0.00     0.123 C 
BRANCH   8   9
ATOM      9  C   UNL     1       6.919  13.796  -3.027  1.00  0.00    -0.013 A 
ATOM     10  C   UNL     1       7.836  14.001  -2.049  1.00  0.00     0.007 A 
ATOM     11  C   UNL     1       5.932  14.771  -3.266  1.00  0.00     0.007 A 
ATOM     12  C   UNL     1       7.784  15.166  -1.303  1.00  0.00     0.000 A 
ATOM     13  C   UNL     1       5.889  15.922  -2.523  1.00  0.00     0.000 A 
ATOM     14  C   UNL     1       6.812  16.140  -1.529  1.00  0.00     0.000 A 
ENDBRANCH   8   9
BRANCH   8  15
ATOM     15  C   UNL     1       5.754  11.787  -3.346  1.00  0.00    -0.013 A 
ATOM     16  C   UNL     1       5.464  11.750  -2.008  1.00  0.00     0.007 A 
ATOM     17  C   UNL     1       4.973  11.046  -4.197  1.00  0.00     0.007 A 
ATOM     18  C   UNL     1       4.416  10.992  -1.499  1.00  0.00     0.000 A 
ATOM     19  C   UNL     1       3.909  10.272  -3.706  1.00  0.00     0.000 A 
ATOM     20  C   UNL     1       3.645  10.255  -2.364  1.00  0.00     0.000 A 
ENDBRANCH   8  15
BRANCH   8  21
ATOM     21  N   UNL     1       6.551  12.924  -5.288  1.00  0.00    -0.319 N 
ATOM     22  C   UNL     1       5.941  14.060  -5.728  1.00  0.00     0.109 A 
ATOM     23  C   UNL     1       6.825  12.190  -6.366  1.00  0.00     0.200 A 
ATOM     24  C   UNL     1       5.843  14.014  -7.100  1.00  0.00     0.131 A 
ATOM     25  N   UNL     1       6.390  12.861  -7.465  1.00  0.00    -0.245 NA
ENDBRANCH   8  21
ENDBRANCH   7   8
TORSDOF 4
ENDMDL
MODEL 3
REMARK VINA RESULT:      -5.3      1.409      4.548
REMARK SMILES Clc1ccccc1C(c1ccccc1)(c1ccccc1)n1ccnc1
REMARK SMILES IDX 1 1 2 2 3 3 4 4 5 5 6 6 7 7 8 8 9 9 10 10 14 11 11 12 13 13
REMARK SMILES IDX 12 14 15 15 16 16 20 17 17 18 19 19 18 20 21 21 22 22 25 23
REMARK SMILES IDX 23 24 24 25
REMARK H PARENT
ROOT
ATOM      1  Cl  UNL     1       6.920   9.891  -4.462  1.00  0.00    -0.084 Cl
ATOM      2  C   UNL     1       8.298  10.682  -3.730  1.00  0.00     0.047 A 
ATOM      3  C   UNL     1       9.430   9.981  -3.382  1.00  0.00     0.021 A 
ATOM      4  C   UNL     1      10.531  10.606  -2.835  1.00  0.00     0.002 A 
ATOM      5  C   UNL     1      10.471  11.964  -2.643  1.00  0.00     0.001 A 
ATOM      6  C   UNL     1       9.318  12.676  -2.998  1.00  0.00     0.008 A 
ATOM      7  C   UNL     1       8.235  12.052  -3.536  1.00  0.00     0.006 A 
ENDROOT
BRANCH   7   8
ATOM      8  C   UNL     1       7.012  12.826  -3.881  1.00  0.00     0.123 C 
BRANCH   8   9
ATOM      9  C   UNL     1       7.168  14.199  -3.322  1.00  0.00    -0.013 A 
ATOM     10  C   UNL     1       7.275  15.342  -4.044  1.00  0.00     0.007 A 
ATOM     11  C   UNL     1       7.185  14.265  -1.916  1.00  0.00     0.007 A 
ATOM     12  C   UNL     1       7.399  16.553  -3.385  1.00  0.00     0.000 A 
ATOM     13  C   UNL     1       7.307  15.468  -1.271  1.00  0.00     0.000 A 
ATOM     14  C   UNL     1       7.417  16.633  -1.992  1.00  0.00     0.000 A 
ENDBRANCH   8   9
BRANCH   8  15
ATOM     15  C   UNL     1       5.816  12.288  -3.179  1.00  0.00    -0.013 A 
ATOM     16  C   UNL     1       5.891  11.434  -2.111  1.00  0.00     0.007 A 
ATOM     17  C   UNL     1       4.574  12.685  -3.604  1.00  0.00     0.007 A 
ATOM     18  C   UNL     1       4.756  10.965  -1.459  1.00  0.00     0.000 A 
ATOM     19  C   UNL     1       3.412  12.224  -2.961  1.00  0.00     0.000 A 
ATOM     20  C   UNL     1       3.519  11.371  -1.897  1.00  0.00     0.000 A 
ENDBRANCH   8  15
BRANCH   8  21
ATOM     21  N   UNL     1       6.793  12.797  -5.297  1.00  0.00    -0.319 N 
ATOM     22  C   UNL     1       7.751  12.930  -6.256  1.00  0.00     0.109 A 
ATOM     23  C   UNL     1       5.634  12.615  -5.930  1.00  0.00     0.200 A 
ATOM     24  C   UNL     1       7.161  12.828  -7.496  1.00  0.00     0.131 A 
ATOM     25  N   UNL     1       5.867  12.636  -7.269  1.00  0.00    -0.245 NA
ENDBRANCH   8  21
ENDBRANCH   7   8
TORSDOF 4
ENDMDL
MODEL 4
REMARK VINA RESULT:      -5.3      1.165      4.511
REMARK SMILES Clc1ccccc1C(c1ccccc1)(c1ccccc1)n1ccnc1
REMARK SMILES IDX 1 1 2 2 3 3 4 4 5 5 6 6 7 7 8 8 9 9 10 10 14 11 11 12 13 13
REMARK SMILES IDX 12 14 15 15 16 16 20 17 17 18 19 19 18 20 21 21 22 22 25 23
REMARK SMILES IDX 23 24 24 25
REMARK H PARENT
ROOT
ATOM      1  Cl  UNL     1       9.390  14.234  -4.680  1.00  0.00    -0.084 Cl
ATOM      2  C   UNL     1       9.406  12.555  -4.188  1.00  0.00     0.047 A 
ATOM      3  C   UNL     1      10.579  11.840  -4.101  1.00  0.00     0.021 A 
ATOM      4  C   UNL     1      10.599  10.528  -3.682  1.00  0.00     0.002 A 
ATOM      5  C   UNL     1       9.404   9.940  -3.348  1.00  0.00     0.001 A 
ATOM      6  C   UNL     1       8.210  10.668  -3.437  1.00  0.00     0.008 A 
ATOM      7  C   UNL     1       8.199  11.964  -3.853  1.00  0.00     0.006 A 
ENDROOT
BRANCH   7   8
ATOM      8  C   UNL     1       6.916  12.710  -3.964  1.00  0.00     0.123 C 
BRANCH   8   9
ATOM      9  C   UNL     1       6.980  13.870  -3.030  1.00  0.00    -0.013 A 
ATOM     10  C   UNL     1       7.867  14.022  -2.014  1.00  0.00     0.007 A 
ATOM     11  C   UNL     1       6.027  14.876  -3.273  1.00  0.00     0.007 A 
ATOM     12  C   UNL     1       7.817  15.165  -1.236  1.00  0.00     0.000 A 
ATOM     13  C   UNL     1       5.985  16.006  -2.497  1.00  0.00     0.000 A 
ATOM     14  C   UNL     1       6.878  16.170  -1.465  1.00  0.00     0.000 A 
ENDBRANCH   8   9
BRANCH   8  15
ATOM     15  C   UNL     1       5.776  11.903  -3.453  1.00  0.00    -0.013 A 
ATOM     16  C   UNL     1       4.938  11.183  -4.264  1.00  0.00     0.007 A 
ATOM     17  C   UNL     1       5.563  11.854  -2.098  1.00  0.00     0.007 A 
ATOM     18  C   UNL     1       3.894  10.419  -3.757  1.00  0.00     0.000 A 
ATOM     19  C   UNL     1       4.514  11.089  -1.562  1.00  0.00     0.000 A 
ATOM     20  C   UNL     1       3.695  10.382  -2.398  1.00  0.00     0.000 A 
ENDBRANCH   8  15
BRANCH   8  21
ATOM     21  N   UNL     1       6.674  13.075  -5.328  1.00  0.00    -0.319 N 
ATOM     22  C   UNL     1       7.006  12.337  -6.423  1.00  0.00     0.109 A 
ATOM     23  C   UNL     1       6.070  14.177  -5.773  1.00  0.00     0.200 A 
ATOM     24  C   UNL     1       6.596  13.004  -7.556  1.00  0.00     0.131 A 
ATOM     25  N   UNL     1       6.027  14.126  -7.131  1.00  0.00    -0.245 NA
ENDBRANCH   8  21
ENDBRANCH   7   8
TORSDOF 4
ENDMDL
MODEL 5
REMARK VINA RESULT:      -5.2      1.386      4.677
REMARK SMILES Clc1ccccc1C(c1ccccc1)(c1ccccc1)n1ccnc1
REMARK SMILES IDX 1 1 2 2 3 3 4 4 5 5 6 6 7 7 8 8 9 9 10 10 14 11 11 12 13 13
REMARK SMILES IDX 12 14 15 15 16 16 20 17 17 18 19 19 18 20 21 21 22 22 25 23
REMARK SMILES IDX 23 24 24 25
REMARK H PARENT
ROOT
ATOM      1  Cl  UNL     1       6.823   9.946  -4.505  1.00  0.00    -0.084 Cl
ATOM      2  C   UNL     1       8.214  10.691  -3.749  1.00  0.00     0.047 A 
ATOM      3  C   UNL     1       9.347   9.969  -3.455  1.00  0.00     0.021 A 
ATOM      4  C   UNL     1      10.457  10.559  -2.889  1.00  0.00     0.002 A 
ATOM      5  C   UNL     1      10.405  11.904  -2.620  1.00  0.00     0.001 A 
ATOM      6  C   UNL     1       9.250  12.639  -2.920  1.00  0.00     0.008 A 
ATOM      7  C   UNL     1       8.158  12.049  -3.478  1.00  0.00     0.006 A 
ENDROOT
BRANCH   7   8
ATOM      8  C   UNL     1       6.933  12.844  -3.765  1.00  0.00     0.123 C 
BRANCH   8   9
ATOM      9  C   UNL     1       7.091  14.175  -3.111  1.00  0.00    -0.013 A 
ATOM     10  C   UNL     1       7.102  14.406  -1.774  1.00  0.00     0.007 A 
ATOM     11  C   UNL     1       7.252  15.254  -4.001  1.00  0.00     0.007 A 
ATOM     12  C   UNL     1       7.274  15.698  -1.310  1.00  0.00     0.000 A 
ATOM     13  C   UNL     1       7.422  16.530  -3.532  1.00  0.00     0.000 A 
ATOM     14  C   UNL     1       7.436  16.776  -2.180  1.00  0.00     0.000 A 
ENDBRANCH   8   9
BRANCH   8  15
ATOM     15  C   UNL     1       5.740  12.258  -3.098  1.00  0.00    -0.013 A 
ATOM     16  C   UNL     1       5.818  11.409  -2.025  1.00  0.00     0.007 A 
ATOM     17  C   UNL     1       4.496  12.601  -3.563  1.00  0.00     0.007 A 
ATOM     18  C   UNL     1       4.684  10.894  -1.407  1.00  0.00     0.000 A 
ATOM     19  C   UNL     1       3.336  12.093  -2.954  1.00  0.00     0.000 A 
ATOM     20  C   UNL     1       3.445  11.247  -1.885  1.00  0.00     0.000 A 
ENDBRANCH   8  15
BRANCH   8  21
ATOM     21  N   UNL     1       6.710  12.914  -5.178  1.00  0.00    -0.319 N 
ATOM     22  C   UNL     1       5.496  12.926  -5.795  1.00  0.00     0.109 A 
ATOM     23  C   UNL     1       7.631  13.002  -6.137  1.00  0.00     0.200 A 
ATOM     24  C   UNL     1       5.684  13.021  -7.156  1.00  0.00     0.131 A 
ATOM     25  N   UNL     1       6.999  13.066  -7.338  1.00  0.00    -0.245 NA
ENDBRANCH   8  21
ENDBRANCH   7   8
TORSDOF 4
ENDMDL
MODEL 6
REMARK VINA RESULT:      -5.2      1.386      4.633
REMARK SMILES Clc1ccccc1C(c1ccccc1)(c1ccccc1)n1ccnc1
REMARK SMILES IDX 1 1 2 2 3 3 4 4 5 5 6 6 7 7 8 8 9 9 10 10 14 11 11 12 13 13
REMARK SMILES IDX 12 14 15 15 16 16 20 17 17 18 19 19 18 20 21 21 22 22 25 23
REMARK SMILES IDX 23 24 24 25
REMARK H PARENT
ROOT
ATOM      1  Cl  UNL     1       6.746  10.094  -4.552  1.00  0.00    -0.084 Cl
ATOM      2  C   UNL     1       8.146  10.807  -3.783  1.00  0.00     0.047 A 
ATOM      3  C   UNL     1       9.267  10.063  -3.495  1.00  0.00     0.021 A 
ATOM      4  C   UNL     1      10.385  10.628  -2.919  1.00  0.00     0.002 A 
ATOM      5  C   UNL     1      10.353  11.971  -2.635  1.00  0.00     0.001 A 
ATOM      6  C   UNL     1       9.211  12.728  -2.928  1.00  0.00     0.008 A 
ATOM      7  C   UNL     1       8.111  12.162  -3.496  1.00  0.00     0.006 A 
ENDROOT
BRANCH   7   8
ATOM      8  C   UNL     1       6.900  12.980  -3.775  1.00  0.00     0.123 C 
BRANCH   8   9
ATOM      9  C   UNL     1       7.066  14.291  -3.085  1.00  0.00    -0.013 A 
ATOM     10  C   UNL     1       6.998  14.497  -1.746  1.00  0.00     0.007 A 
ATOM     11  C   UNL     1       7.330  15.378  -3.940  1.00  0.00     0.007 A 
ATOM     12  C   UNL     1       7.189  15.772  -1.245  1.00  0.00     0.000 A 
ATOM     13  C   UNL     1       7.520  16.638  -3.434  1.00  0.00     0.000 A 
ATOM     14  C   UNL     1       7.452  16.858  -2.079  1.00  0.00     0.000 A 
ENDBRANCH   8   9
BRANCH   8  15
ATOM     15  C   UNL     1       5.692  12.392  -3.138  1.00  0.00    -0.013 A 
ATOM     16  C   UNL     1       4.418  12.610  -3.593  1.00  0.00     0.007 A 
ATOM     17  C   UNL     1       5.859  11.568  -2.054  1.00  0.00     0.007 A 
ATOM     18  C   UNL     1       3.309  12.028  -2.991  1.00  0.00     0.000 A 
ATOM     19  C   UNL     1       4.752  10.969  -1.429  1.00  0.00     0.000 A 
ATOM     20  C   UNL     1       3.493  11.207  -1.905  1.00  0.00     0.000 A 
ENDBRANCH   8  15
BRANCH   8  21
ATOM     21  N   UNL     1       6.694  13.090  -5.189  1.00  0.00    -0.319 N 
ATOM     22  C   UNL     1       7.668  13.079  -6.141  1.00  0.00     0.109 A 
ATOM     23  C   UNL     1       5.530  13.199  -5.828  1.00  0.00     0.200 A 
ATOM     24  C   UNL     1       7.083  13.185  -7.383  1.00  0.00     0.131 A 
ATOM     25  N   UNL     1       5.775  13.257  -7.164  1.00  0.00    -0.245 NA
ENDBRANCH   8  21
ENDBRANCH   7   8
TORSDOF 4
ENDMDL
MODEL 7
REMARK VINA RESULT:      -5.2      1.544      4.452
REMARK SMILES Clc1ccccc1C(c1ccccc1)(c1ccccc1)n1ccnc1
REMARK SMILES IDX 1 1 2 2 3 3 4 4 5 5 6 6 7 7 8 8 9 9 10 10 14 11 11 12 13 13
REMARK SMILES IDX 12 14 15 15 16 16 20 17 17 18 19 19 18 20 21 21 22 22 25 23
REMARK SMILES IDX 23 24 24 25
REMARK H PARENT
ROOT
ATOM      1  Cl  UNL     1       4.225  14.217  -4.214  1.00  0.00    -0.084 Cl
ATOM      2  C   UNL     1       5.309  13.616  -5.449  1.00  0.00     0.047 A 
ATOM      3  C   UNL     1       5.049  13.800  -6.788  1.00  0.00     0.021 A 
ATOM      4  C   UNL     1       5.916  13.358  -7.763  1.00  0.00     0.002 A 
ATOM      5  C   UNL     1       7.064  12.719  -7.362  1.00  0.00     0.001 A 
ATOM      6  C   UNL     1       7.327  12.532  -5.999  1.00  0.00     0.008 A 
ATOM      7  C   UNL     1       6.465  12.971  -5.042  1.00  0.00     0.006 A 
ENDROOT
BRANCH   7   8
ATOM      8  C   UNL     1       6.754  12.739  -3.601  1.00  0.00     0.123 C 
BRANCH   8   9
ATOM      9  C   UNL     1       6.965  14.067  -2.958  1.00  0.00    -0.013 A 
ATOM     10  C   UNL     1       6.774  14.352  -1.646  1.00  0.00     0.007 A 
ATOM     11  C   UNL     1       7.414  15.079  -3.828  1.00  0.00     0.007 A 
ATOM     12  C   UNL     1       7.026  15.632  -1.186  1.00  0.00     0.000 A 
ATOM     13  C   UNL     1       7.662  16.344  -3.364  1.00  0.00     0.000 A 
ATOM     14  C   UNL     1       7.472  16.644  -2.036  1.00  0.00     0.000 A 
ENDBRANCH   8   9
BRANCH   8  15
ATOM     15  C   UNL     1       8.056  12.043  -3.417  1.00  0.00    -0.013 A 
ATOM     16  C   UNL     1       9.209  12.686  -3.050  1.00  0.00     0.007 A 
ATOM     17  C   UNL     1       8.104  10.684  -3.598  1.00  0.00     0.007 A 
ATOM     18  C   UNL     1      10.407  12.006  -2.862  1.00  0.00     0.000 A 
ATOM     19  C   UNL     1       9.303   9.975  -3.414  1.00  0.00     0.000 A 
ATOM     20  C   UNL     1      10.437  10.645  -3.049  1.00  0.00     0.000 A 
ENDBRANCH   8  15
BRANCH   8  21
ATOM     21  N   UNL     1       5.706  11.964  -3.006  1.00  0.00    -0.319 N 
ATOM     22  C   UNL     1       4.903  11.076  -3.655  1.00  0.00     0.109 A 
ATOM     23  C   UNL     1       5.340  11.952  -1.725  1.00  0.00     0.200 A 
ATOM     24  C   UNL     1       4.031  10.514  -2.749  1.00  0.00     0.131 A 
ATOM     25  N   UNL     1       4.320  11.067  -1.576  1.00  0.00    -0.245 NA
ENDBRANCH   8  21
ENDBRANCH   7   8
TORSDOF 4
ENDMDL
MODEL 8
REMARK VINA RESULT:      -5.2      1.379      4.570
REMARK SMILES Clc1ccccc1C(c1ccccc1)(c1ccccc1)n1ccnc1
REMARK SMILES IDX 1 1 2 2 3 3 4 4 5 5 6 6 7 7 8 8 9 9 10 10 14 11 11 12 13 13
REMARK SMILES IDX 12 14 15 15 16 16 20 17 17 18 19 19 18 20 21 21 22 22 25 23
REMARK SMILES IDX 23 24 24 25
REMARK H PARENT
ROOT
ATOM      1  Cl  UNL     1       6.882   9.959  -4.479  1.00  0.00    -0.084 Cl
ATOM      2  C   UNL     1       8.267  10.730  -3.740  1.00  0.00     0.047 A 
ATOM      3  C   UNL     1       9.388  10.014  -3.388  1.00  0.00     0.021 A 
ATOM      4  C   UNL     1      10.494  10.623  -2.836  1.00  0.00     0.002 A 
ATOM      5  C   UNL     1      10.451  11.981  -2.641  1.00  0.00     0.001 A 
ATOM      6  C   UNL     1       9.310  12.710  -3.000  1.00  0.00     0.008 A 
ATOM      7  C   UNL     1       8.221  12.101  -3.544  1.00  0.00     0.006 A 
ENDROOT
BRANCH   7   8
ATOM      8  C   UNL     1       7.009  12.892  -3.893  1.00  0.00     0.123 C 
BRANCH   8   9
ATOM      9  C   UNL     1       7.176  14.258  -3.321  1.00  0.00    -0.013 A 
ATOM     10  C   UNL     1       7.329  15.403  -4.032  1.00  0.00     0.007 A 
ATOM     11  C   UNL     1       7.150  14.315  -1.914  1.00  0.00     0.007 A 
ATOM     12  C   UNL     1       7.457  16.606  -3.361  1.00  0.00     0.000 A 
ATOM     13  C   UNL     1       7.276  15.512  -1.258  1.00  0.00     0.000 A 
ATOM     14  C   UNL     1       7.432  16.678  -1.969  1.00  0.00     0.000 A 
ENDBRANCH   8   9
BRANCH   8  15
ATOM     15  C   UNL     1       5.802  12.361  -3.206  1.00  0.00    -0.013 A 
ATOM     16  C   UNL     1       4.523  12.612  -3.629  1.00  0.00     0.007 A 
ATOM     17  C   UNL     1       5.973  11.559  -2.106  1.00  0.00     0.007 A 
ATOM     18  C   UNL     1       3.413  12.084  -2.981  1.00  0.00     0.000 A 
ATOM     19  C   UNL     1       4.866  11.014  -1.434  1.00  0.00     0.000 A 
ATOM     20  C   UNL     1       3.602  11.283  -1.880  1.00  0.00     0.000 A 
ENDBRANCH   8  15
BRANCH   8  21
ATOM     21  N   UNL     1       6.803  12.877  -5.311  1.00  0.00    -0.319 N 
ATOM     22  C   UNL     1       5.597  12.812  -5.941  1.00  0.00     0.109 A 
ATOM     23  C   UNL     1       7.734  12.946  -6.262  1.00  0.00     0.200 A 
ATOM     24  C   UNL     1       5.801  12.840  -7.303  1.00  0.00     0.131 A 
ATOM     25  N   UNL     1       7.115  12.922  -7.472  1.00  0.00    -0.245 NA
ENDBRANCH   8  21
ENDBRANCH   7   8
TORSDOF 4
ENDMDL
MODEL 9
REMARK VINA RESULT:      -5.2      1.347      4.720
REMARK SMILES Clc1ccccc1C(c1ccccc1)(c1ccccc1)n1ccnc1
REMARK SMILES IDX 1 1 2 2 3 3 4 4 5 5 6 6 7 7 8 8 9 9 10 10 14 11 11 12 13 13
REMARK SMILES IDX 12 14 15 15 16 16 20 17 17 18 19 19 18 20 21 21 22 22 25 23
REMARK SMILES IDX 23 24 24 25
REMARK H PARENT
ROOT
ATOM      1  Cl  UNL     1       4.553  14.126  -4.536  1.00  0.00    -0.084 Cl
ATOM      2  C   UNL     1       5.859  13.704  -5.621  1.00  0.00     0.047 A 
ATOM      3  C   UNL     1       5.790  13.970  -6.969  1.00  0.00     0.021 A 
ATOM      4  C   UNL     1       6.830  13.669  -7.822  1.00  0.00     0.002 A 
ATOM      5  C   UNL     1       7.953  13.089  -7.287  1.00  0.00     0.001 A 
ATOM      6  C   UNL     1       8.023  12.819  -5.914  1.00  0.00     0.008 A 
ATOM      7  C   UNL     1       6.991  13.118  -5.079  1.00  0.00     0.006 A 
ENDROOT
BRANCH   7   8
ATOM      8  C   UNL     1       7.077  12.798  -3.628  1.00  0.00     0.123 C 
BRANCH   8   9
ATOM      9  C   UNL     1       8.280  11.942  -3.420  1.00  0.00    -0.013 A 
ATOM     10  C   UNL     1       8.337  10.598  -3.594  1.00  0.00     0.007 A 
ATOM     11  C   UNL     1       9.437  12.639  -3.023  1.00  0.00     0.007 A 
ATOM     12  C   UNL     1       9.533   9.936  -3.378  1.00  0.00     0.000 A 
ATOM     13  C   UNL     1      10.618  11.975  -2.812  1.00  0.00     0.000 A 
ATOM     14  C   UNL     1      10.687  10.613  -2.985  1.00  0.00     0.000 A 
ENDBRANCH   8   9
BRANCH   8  15
ATOM     15  C   UNL     1       5.946  11.933  -3.198  1.00  0.00    -0.013 A 
ATOM     16  C   UNL     1       5.452  11.920  -1.920  1.00  0.00     0.007 A 
ATOM     17  C   UNL     1       5.347  11.125  -4.131  1.00  0.00     0.007 A 
ATOM     18  C   UNL     1       4.378  11.118  -1.551  1.00  0.00     0.000 A 
ATOM     19  C   UNL     1       4.260  10.306  -3.781  1.00  0.00     0.000 A 
ATOM     20  C   UNL     1       3.790  10.314  -2.497  1.00  0.00     0.000 A 
ENDBRANCH   8  15
BRANCH   8  21
ATOM     21  N   UNL     1       7.082  14.005  -2.856  1.00  0.00    -0.319 N 
ATOM     22  C   UNL     1       7.537  15.218  -3.275  1.00  0.00     0.109 A 
ATOM     23  C   UNL     1       6.630  14.169  -1.614  1.00  0.00     0.200 A 
ATOM     24  C   UNL     1       7.359  16.138  -2.265  1.00  0.00     0.131 A 
ATOM     25  N   UNL     1       6.802  15.471  -1.261  1.00  0.00    -0.245 NA
ENDBRANCH   8  21
ENDBRANCH   7   8
TORSDOF 4
ENDMDL
