MODEL 1
REMARK VINA RESULT:      -5.0      0.000      0.000
REMARK SMILES Clc1ccccc1C(c1ccccc1)(c1ccccc1)n1ccnc1
REMARK SMILES IDX 1 1 2 2 3 3 4 4 5 5 6 6 7 7 8 8 9 9 10 10 14 11 11 12 13 13
REMARK SMILES IDX 12 14 15 15 16 16 20 17 17 18 19 19 18 20 21 21 22 22 25 23
REMARK SMILES IDX 23 24 24 25
REMARK H PARENT
ROOT
ATOM      1  Cl  UNL     1      33.992 -24.565  -1.859  1.00  0.00    -0.084 Cl
ATOM      2  C   UNL     1      32.662 -24.523  -2.994  1.00  0.00     0.047 A 
ATOM      3  C   UNL     1      31.419 -25.013  -2.667  1.00  0.00     0.021 A 
ATOM      4  C   UNL     1      30.360 -24.951  -3.547  1.00  0.00     0.002 A 
ATOM      5  C   UNL     1      30.577 -24.381  -4.777  1.00  0.00     0.001 A 
ATOM      6  C   UNL     1      31.844 -23.882  -5.109  1.00  0.00     0.008 A 
ATOM      7  C   UNL     1      32.884 -23.948  -4.235  1.00  0.00     0.006 A 
ENDROOT
BRANCH   7   8
ATOM      8  C   UNL     1      34.227 -23.434  -4.620  1.00  0.00     0.123 C 
BRANCH   8   9
ATOM      9  C   UNL     1      34.545 -22.280  -3.732  1.00  0.00    -0.013 A 
ATOM     10  C   UNL     1      35.784 -21.914  -3.319  1.00  0.00     0.007 A 
ATOM     11  C   UNL     1      33.429 -21.524  -3.325  1.00  0.00     0.007 A 
ATOM     12  C   UNL     1      35.929 -20.805  -2.505  1.00  0.00     0.000 A 
ATOM     13  C   UNL     1      33.582 -20.426  -2.519  1.00  0.00     0.000 A 
ATOM     14  C   UNL     1      34.833 -20.047  -2.094  1.00  0.00     0.000 A 
ENDBRANCH   8   9
BRANCH   8  15
ATOM     15  C   UNL     1      34.209 -22.841  -5.984  1.00  0.00    -0.013 A 
ATOM     16  C   UNL     1      33.401 -21.793  -6.338  1.00  0.00     0.007 A 
ATOM     17  C   UNL     1      35.060 -23.351  -6.931  1.00  0.00     0.007 A 
ATOM     18  C   UNL     1      33.422 -21.243  -7.615  1.00  0.00     0.000 A 
ATOM     19  C   UNL     1      35.098 -22.812  -8.228  1.00  0.00     0.000 A 
ATOM     20  C   UNL     1      34.279 -21.766  -8.552  1.00  0.00     0.000 A 
ENDBRANCH   8  15
BRANCH   8  21
ATOM     21  N   UNL     1      35.193 -24.491  -4.567  1.00  0.00    -0.319 N 
ATOM     22  C   UNL     1      36.469 -24.384  -4.102  1.00  0.00     0.109 A 
ATOM     23  C   UNL     1      35.021 -25.760  -4.936  1.00  0.00     0.200 A 
ATOM     24  C   UNL     1      37.084 -25.613  -4.192  1.00  0.00     0.131 A 
ATOM     25  N   UNL     1      36.177 -26.436  -4.704  1.00  0.00    -0.245 NA
ENDBRANCH   8  21
ENDBRANCH   7   8
TORSDOF 4
ENDMDL
MODEL 2
REMARK VINA RESULT:      -4.7      1.829      3.761
REMARK SMILES Clc1ccccc1C(c1ccccc1)(c1ccccc1)n1ccnc1
REMARK SMILES IDX 1 1 2 2 3 3 4 4 5 5 6 6 7 7 8 8 9 9 10 10 14 11 11 12 13 13
REMARK SMILES IDX 12 14 15 15 16 16 20 17 17 18 19 19 18 20 21 21 22 22 25 23
REMARK SMILES IDX 23 24 24 25
REMARK H PARENT
ROOT
ATOM      1  Cl  UNL     1      32.620 -23.924  -1.826  1.00  0.00    -0.084 Cl
ATOM      2  C   UNL     1      33.436 -24.723  -3.151  1.00  0.00     0.047 A 
ATOM      3  C   UNL     1      33.803 -26.047  -3.079  1.00  0.00     0.021 A 
ATOM      4  C   UNL     1      34.416 -26.689  -4.133  1.00  0.00     0.002 A 
ATOM      5  C   UNL     1      34.656 -25.966  -5.275  1.00  0.00     0.001 A 
ATOM      6  C   UNL     1      34.281 -24.618  -5.349  1.00  0.00     0.008 A 
ATOM      7  C   UNL     1      33.678 -23.991  -4.303  1.00  0.00     0.006 A 
ENDROOT
BRANCH   7   8
ATOM      8  C   UNL     1      33.312 -22.552  -4.394  1.00  0.00     0.123 C 
BRANCH   8   9
ATOM      9  C   UNL     1      31.828 -22.451  -4.295  1.00  0.00    -0.013 A 
ATOM     10  C   UNL     1      31.122 -21.311  -4.093  1.00  0.00     0.007 A 
ATOM     11  C   UNL     1      31.142 -23.672  -4.443  1.00  0.00     0.007 A 
ATOM     12  C   UNL     1      29.740 -21.368  -4.038  1.00  0.00     0.000 A 
ATOM     13  C   UNL     1      29.774 -23.720  -4.388  1.00  0.00     0.000 A 
ATOM     14  C   UNL     1      29.048 -22.570  -4.185  1.00  0.00     0.000 A 
ENDBRANCH   8   9
BRANCH   8  15
ATOM     15  C   UNL     1      33.617 -22.002  -5.742  1.00  0.00    -0.013 A 
ATOM     16  C   UNL     1      34.455 -20.938  -5.950  1.00  0.00     0.007 A 
ATOM     17  C   UNL     1      33.051 -22.602  -6.838  1.00  0.00     0.007 A 
ATOM     18  C   UNL     1      34.741 -20.460  -7.223  1.00  0.00     0.000 A 
ATOM     19  C   UNL     1      33.324 -22.136  -8.135  1.00  0.00     0.000 A 
ATOM     20  C   UNL     1      34.165 -21.072  -8.310  1.00  0.00     0.000 A 
ENDBRANCH   8  15
BRANCH   8  21
ATOM     21  N   UNL     1      34.013 -21.800  -3.397  1.00  0.00    -0.319 N 
ATOM     22  C   UNL     1      35.305 -21.995  -3.011  1.00  0.00     0.109 A 
ATOM     23  C   UNL     1      33.549 -20.772  -2.687  1.00  0.00     0.200 A 
ATOM     24  C   UNL     1      35.631 -21.068  -2.047  1.00  0.00     0.131 A 
ATOM     25  N   UNL     1      34.540 -20.332  -1.867  1.00  0.00    -0.245 NA
ENDBRANCH   8  21
ENDBRANCH   7   8
TORSDOF 4
ENDMDL
MODEL 3
REMARK VINA RESULT:      -4.7      1.807      4.258
REMARK SMILES Clc1ccccc1C(c1ccccc1)(c1ccccc1)n1ccnc1
REMARK SMILES IDX 1 1 2 2 3 3 4 4 5 5 6 6 7 7 8 8 9 9 10 10 14 11 11 12 13 13
REMARK SMILES IDX 12 14 15 15 16 16 20 17 17 18 19 19 18 20 21 21 22 22 25 23
REMARK SMILES IDX 23 24 24 25
REMARK H PARENT
ROOT
ATOM      1  Cl  UNL     1      36.832 -22.555  -5.672  1.00  0.00    -0.084 Cl
ATOM      2  C   UNL     1      36.231 -24.197  -5.747  1.00  0.00     0.047 A 
ATOM      3  C   UNL     1      36.941 -25.196  -6.373  1.00  0.00     0.021 A 
ATOM      4  C   UNL     1      36.487 -26.497  -6.406  1.00  0.00     0.002 A 
ATOM      5  C   UNL     1      35.292 -26.777  -5.791  1.00  0.00     0.001 A 
ATOM      6  C   UNL     1      34.570 -25.759  -5.155  1.00  0.00     0.008 A 
ATOM      7  C   UNL     1      35.024 -24.477  -5.127  1.00  0.00     0.006 A 
ENDROOT
BRANCH   7   8
ATOM      8  C   UNL     1      34.228 -23.407  -4.467  1.00  0.00     0.123 C 
BRANCH   8   9
ATOM      9  C   UNL     1      32.911 -23.990  -4.083  1.00  0.00    -0.013 A 
ATOM     10  C   UNL     1      31.767 -23.913  -4.809  1.00  0.00     0.007 A 
ATOM     11  C   UNL     1      32.907 -24.686  -2.859  1.00  0.00     0.007 A 
ATOM     12  C   UNL     1      30.618 -24.519  -4.332  1.00  0.00     0.000 A 
ATOM     13  C   UNL     1      31.765 -25.284  -2.395  1.00  0.00     0.000 A 
ATOM     14  C   UNL     1      30.601 -25.211  -3.122  1.00  0.00     0.000 A 
ENDBRANCH   8   9
BRANCH   8  15
ATOM     15  C   UNL     1      33.874 -22.327  -5.426  1.00  0.00    -0.013 A 
ATOM     16  C   UNL     1      33.622 -22.551  -6.754  1.00  0.00     0.007 A 
ATOM     17  C   UNL     1      33.770 -21.042  -4.956  1.00  0.00     0.007 A 
ATOM     18  C   UNL     1      33.271 -21.525  -7.623  1.00  0.00     0.000 A 
ATOM     19  C   UNL     1      33.417 -19.989  -5.815  1.00  0.00     0.000 A 
ATOM     20  C   UNL     1      33.172 -20.244  -7.136  1.00  0.00     0.000 A 
ENDBRANCH   8  15
BRANCH   8  21
ATOM     21  N   UNL     1      34.961 -22.854  -3.367  1.00  0.00    -0.319 N 
ATOM     22  C   UNL     1      35.930 -23.491  -2.652  1.00  0.00     0.109 A 
ATOM     23  C   UNL     1      34.850 -21.627  -2.859  1.00  0.00     0.200 A 
ATOM     24  C   UNL     1      36.415 -22.633  -1.690  1.00  0.00     0.131 A 
ATOM     25  N   UNL     1      35.739 -21.500  -1.839  1.00  0.00    -0.245 NA
ENDBRANCH   8  21
ENDBRANCH   7   8
TORSDOF 4
ENDMDL
MODEL 4
REMARK VINA RESULT:      -4.6      1.652      3.812
REMARK SMILES Clc1ccccc1C(c1ccccc1)(c1ccccc1)n1ccnc1
REMARK SMILES IDX 1 1 2 2 3 3 4 4 5 5 6 6 7 7 8 8 9 9 10 10 14 11 11 12 13 13
REMARK SMILES IDX 12 14 15 15 16 16 20 17 17 18 19 19 18 20 21 21 22 22 25 23
REMARK SMILES IDX 23 24 24 25
REMARK H PARENT
ROOT
ATOM      1  Cl  UNL     1      34.375 -25.081  -3.086  1.00  0.00    -0.084 Cl
ATOM      2  C   UNL     1      34.998 -25.398  -4.690  1.00  0.00     0.047 A 
ATOM      3  C   UNL     1      35.580 -26.603  -5.012  1.00  0.00     0.021 A 
ATOM      4  C   UNL     1      36.042 -26.869  -6.283  1.00  0.00     0.002 A 
ATOM      5  C   UNL     1      35.908 -25.889  -7.235  1.00  0.00     0.001 A 
ATOM      6  C   UNL     1      35.315 -24.662  -6.906  1.00  0.00     0.008 A 
ATOM      7  C   UNL     1      34.862 -24.407  -5.648  1.00  0.00     0.006 A 
ENDROOT
BRANCH   7   8
ATOM      8  C   UNL     1      34.259 -23.088  -5.316  1.00  0.00     0.123 C 
BRANCH   8   9
ATOM      9  C   UNL     1      32.815 -23.308  -5.020  1.00  0.00    -0.013 A 
ATOM     10  C   UNL     1      32.109 -24.430  -5.305  1.00  0.00     0.007 A 
ATOM     11  C   UNL     1      32.175 -22.233  -4.375  1.00  0.00     0.007 A 
ATOM     12  C   UNL     1      30.772 -24.498  -4.956  1.00  0.00     0.000 A 
ATOM     13  C   UNL     1      30.850 -22.309  -4.032  1.00  0.00     0.000 A 
ATOM     14  C   UNL     1      30.125 -23.441  -4.316  1.00  0.00     0.000 A 
ENDBRANCH   8   9
BRANCH   8  15
ATOM     15  C   UNL     1      34.248 -22.185  -6.498  1.00  0.00    -0.013 A 
ATOM     16  C   UNL     1      35.123 -21.143  -6.659  1.00  0.00     0.007 A 
ATOM     17  C   UNL     1      33.333 -22.421  -7.493  1.00  0.00     0.007 A 
ATOM     18  C   UNL     1      35.105 -20.330  -7.786  1.00  0.00     0.000 A 
ATOM     19  C   UNL     1      33.295 -21.612  -8.641  1.00  0.00     0.000 A 
ATOM     20  C   UNL     1      34.181 -20.579  -8.772  1.00  0.00     0.000 A 
ENDBRANCH   8  15
BRANCH   8  21
ATOM     21  N   UNL     1      34.984 -22.470  -4.245  1.00  0.00    -0.319 N 
ATOM     22  C   UNL     1      36.339 -22.438  -4.112  1.00  0.00     0.109 A 
ATOM     23  C   UNL     1      34.478 -21.803  -3.208  1.00  0.00     0.200 A 
ATOM     24  C   UNL     1      36.662 -21.739  -2.971  1.00  0.00     0.131 A 
ATOM     25  N   UNL     1      35.506 -21.362  -2.437  1.00  0.00    -0.245 NA
ENDBRANCH   8  21
ENDBRANCH   7   8
TORSDOF 4
ENDMDL
MODEL 5
REMARK VINA RESULT:      -4.6      1.859      3.962
REMARK SMILES Clc1ccccc1C(c1ccccc1)(c1ccccc1)n1ccnc1
REMARK SMILES IDX 1 1 2 2 3 3 4 4 5 5 6 6 7 7 8 8 9 9 10 10 14 11 11 12 13 13
REMARK SMILES IDX 12 14 15 15 16 16 20 17 17 18 19 19 18 20 21 21 22 22 25 23
REMARK SMILES IDX 23 24 24 25
REMARK H PARENT
ROOT
ATOM      1  Cl  UNL     1      33.009 -20.818  -4.505  1.00  0.00    -0.084 Cl
ATOM      2  C   UNL     1      32.335 -22.432  -4.474  1.00  0.00     0.047 A 
ATOM      3  C   UNL     1      31.017 -22.657  -4.152  1.00  0.00     0.021 A 
ATOM      4  C   UNL     1      30.474 -23.924  -4.158  1.00  0.00     0.002 A 
ATOM      5  C   UNL     1      31.293 -24.973  -4.498  1.00  0.00     0.001 A 
ATOM      6  C   UNL     1      32.635 -24.743  -4.825  1.00  0.00     0.008 A 
ATOM      7  C   UNL     1      33.164 -23.489  -4.815  1.00  0.00     0.006 A 
ENDROOT
BRANCH   7   8
ATOM      8  C   UNL     1      34.599 -23.272  -5.142  1.00  0.00     0.123 C 
BRANCH   8   9
ATOM      9  C   UNL     1      34.666 -22.485  -6.405  1.00  0.00    -0.013 A 
ATOM     10  C   UNL     1      35.720 -21.740  -6.822  1.00  0.00     0.007 A 
ATOM     11  C   UNL     1      33.514 -22.564  -7.211  1.00  0.00     0.007 A 
ATOM     12  C   UNL     1      35.645 -21.073  -8.032  1.00  0.00     0.000 A 
ATOM     13  C   UNL     1      33.448 -21.900  -8.408  1.00  0.00     0.000 A 
ATOM     14  C   UNL     1      34.510 -21.143  -8.840  1.00  0.00     0.000 A 
ENDBRANCH   8   9
BRANCH   8  15
ATOM     15  C   UNL     1      35.276 -24.552  -5.483  1.00  0.00    -0.013 A 
ATOM     16  C   UNL     1      36.095 -25.226  -4.615  1.00  0.00     0.007 A 
ATOM     17  C   UNL     1      35.050 -25.102  -6.719  1.00  0.00     0.007 A 
ATOM     18  C   UNL     1      36.695 -26.433  -4.953  1.00  0.00     0.000 A 
ATOM     19  C   UNL     1      35.647 -26.322  -7.083  1.00  0.00     0.000 A 
ATOM     20  C   UNL     1      36.460 -26.970  -6.196  1.00  0.00     0.000 A 
ENDBRANCH   8  15
BRANCH   8  21
ATOM     21  N   UNL     1      35.269 -22.653  -4.036  1.00  0.00    -0.319 N 
ATOM     22  C   UNL     1      35.046 -22.918  -2.719  1.00  0.00     0.109 A 
ATOM     23  C   UNL     1      36.233 -21.736  -4.088  1.00  0.00     0.200 A 
ATOM     24  C   UNL     1      35.891 -22.143  -1.956  1.00  0.00     0.131 A 
ATOM     25  N   UNL     1      36.607 -21.430  -2.818  1.00  0.00    -0.245 NA
ENDBRANCH   8  21
ENDBRANCH   7   8
TORSDOF 4
ENDMDL
MODEL 6
REMARK VINA RESULT:      -4.5      1.720      3.438
REMARK SMILES Clc1ccccc1C(c1ccccc1)(c1ccccc1)n1ccnc1
REMARK SMILES IDX 1 1 2 2 3 3 4 4 5 5 6 6 7 7 8 8 9 9 10 10 14 11 11 12 13 13
REMARK SMILES IDX 12 14 15 15 16 16 20 17 17 18 19 19 18 20 21 21 22 22 25 23
REMARK SMILES IDX 23 24 24 25
REMARK H PARENT
ROOT
ATOM      1  Cl  UNL     1      34.195 -26.257  -2.895  1.00  0.00    -0.084 Cl
ATOM      2  C   UNL     1      33.001 -25.153  -3.540  1.00  0.00     0.047 A 
ATOM      3  C   UNL     1      31.655 -25.334  -3.315  1.00  0.00     0.021 A 
ATOM      4  C   UNL     1      30.714 -24.449  -3.793  1.00  0.00     0.002 A 
ATOM      5  C   UNL     1      31.155 -23.365  -4.511  1.00  0.00     0.001 A 
ATOM      6  C   UNL     1      32.525 -23.181  -4.740  1.00  0.00     0.008 A 
ATOM      7  C   UNL     1      33.449 -24.060  -4.265  1.00  0.00     0.006 A 
ENDROOT
BRANCH   7   8
ATOM      8  C   UNL     1      34.897 -23.858  -4.542  1.00  0.00     0.123 C 
BRANCH   8   9
ATOM      9  C   UNL     1      35.022 -22.740  -5.519  1.00  0.00    -0.013 A 
ATOM     10  C   UNL     1      35.126 -22.870  -6.865  1.00  0.00     0.007 A 
ATOM     11  C   UNL     1      35.013 -21.453  -4.948  1.00  0.00     0.007 A 
ATOM     12  C   UNL     1      35.220 -21.736  -7.652  1.00  0.00     0.000 A 
ATOM     13  C   UNL     1      35.106 -20.335  -5.735  1.00  0.00     0.000 A 
ATOM     14  C   UNL     1      35.212 -20.455  -7.100  1.00  0.00     0.000 A 
ENDBRANCH   8   9
BRANCH   8  15
ATOM     15  C   UNL     1      35.478 -25.025  -5.259  1.00  0.00    -0.013 A 
ATOM     16  C   UNL     1      36.692 -25.576  -4.942  1.00  0.00     0.007 A 
ATOM     17  C   UNL     1      34.753 -25.597  -6.273  1.00  0.00     0.007 A 
ATOM     18  C   UNL     1      37.199 -26.681  -5.614  1.00  0.00     0.000 A 
ATOM     19  C   UNL     1      35.246 -26.715  -6.967  1.00  0.00     0.000 A 
ATOM     20  C   UNL     1      36.462 -27.242  -6.628  1.00  0.00     0.000 A 
ENDBRANCH   8  15
BRANCH   8  21
ATOM     21  N   UNL     1      35.608 -23.642  -3.317  1.00  0.00    -0.319 N 
ATOM     22  C   UNL     1      35.047 -23.388  -2.103  1.00  0.00     0.109 A 
ATOM     23  C   UNL     1      36.928 -23.671  -3.135  1.00  0.00     0.200 A 
ATOM     24  C   UNL     1      36.047 -23.258  -1.165  1.00  0.00     0.131 A 
ATOM     25  N   UNL     1      37.187 -23.436  -1.822  1.00  0.00    -0.245 NA
ENDBRANCH   8  21
ENDBRANCH   7   8
TORSDOF 4
ENDMDL
MODEL 7
REMARK VINA RESULT:      -4.5      1.506      3.461
REMARK SMILES Clc1ccccc1C(c1ccccc1)(c1ccccc1)n1ccnc1
REMARK SMILES IDX 1 1 2 2 3 3 4 4 5 5 6 6 7 7 8 8 9 9 10 10 14 11 11 12 13 13
REMARK SMILES IDX 12 14 15 15 16 16 20 17 17 18 19 19 18 20 21 21 22 22 25 23
REMARK SMILES IDX 23 24 24 25
REMARK H PARENT
ROOT
ATOM      1  Cl  UNL     1      34.458 -25.535  -2.811  1.00  0.00    -0.084 Cl
ATOM      2  C   UNL     1      32.961 -24.877  -3.433  1.00  0.00     0.047 A 
ATOM      3  C   UNL     1      31.738 -25.352  -3.020  1.00  0.00     0.021 A 
ATOM      4  C   UNL     1      30.556 -24.815  -3.483  1.00  0.00     0.002 A 
ATOM      5  C   UNL     1      30.628 -23.778  -4.380  1.00  0.00     0.001 A 
ATOM      6  C   UNL     1      31.874 -23.294  -4.800  1.00  0.00     0.008 A 
ATOM      7  C   UNL     1      33.037 -23.831  -4.340  1.00  0.00     0.006 A 
ENDROOT
BRANCH   7   8
ATOM      8  C   UNL     1      34.348 -23.318  -4.819  1.00  0.00     0.123 C 
BRANCH   8   9
ATOM      9  C   UNL     1      34.081 -22.303  -5.878  1.00  0.00    -0.013 A 
ATOM     10  C   UNL     1      34.348 -20.976  -5.790  1.00  0.00     0.007 A 
ATOM     11  C   UNL     1      33.515 -22.817  -7.059  1.00  0.00     0.007 A 
ATOM     12  C   UNL     1      34.059 -20.152  -6.864  1.00  0.00     0.000 A 
ATOM     13  C   UNL     1      33.233 -21.995  -8.119  1.00  0.00     0.000 A 
ATOM     14  C   UNL     1      33.499 -20.649  -8.040  1.00  0.00     0.000 A 
ENDBRANCH   8   9
BRANCH   8  15
ATOM     15  C   UNL     1      35.117 -24.377  -5.527  1.00  0.00    -0.013 A 
ATOM     16  C   UNL     1      36.461 -24.292  -5.778  1.00  0.00     0.007 A 
ATOM     17  C   UNL     1      34.454 -25.509  -5.928  1.00  0.00     0.007 A 
ATOM     18  C   UNL     1      37.158 -25.308  -6.420  1.00  0.00     0.000 A 
ATOM     19  C   UNL     1      35.138 -26.549  -6.580  1.00  0.00     0.000 A 
ATOM     20  C   UNL     1      36.480 -26.435  -6.817  1.00  0.00     0.000 A 
ENDBRANCH   8  15
BRANCH   8  21
ATOM     21  N   UNL     1      35.116 -22.820  -3.717  1.00  0.00    -0.319 N 
ATOM     22  C   UNL     1      36.442 -23.047  -3.500  1.00  0.00     0.109 A 
ATOM     23  C   UNL     1      34.691 -22.036  -2.727  1.00  0.00     0.200 A 
ATOM     24  C   UNL     1      36.828 -22.389  -2.354  1.00  0.00     0.131 A 
ATOM     25  N   UNL     1      35.739 -21.779  -1.901  1.00  0.00    -0.245 NA
ENDBRANCH   8  21
ENDBRANCH   7   8
TORSDOF 4
ENDMDL
MODEL 8
REMARK VINA RESULT:      -4.5      1.740      3.728
REMARK SMILES Clc1ccccc1C(c1ccccc1)(c1ccccc1)n1ccnc1
REMARK SMILES IDX 1 1 2 2 3 3 4 4 5 5 6 6 7 7 8 8 9 9 10 10 14 11 11 12 13 13
REMARK SMILES IDX 12 14 15 15 16 16 20 17 17 18 19 19 18 20 21 21 22 22 25 23
REMARK SMILES IDX 23 24 24 25
REMARK H PARENT
ROOT
ATOM      1  Cl  UNL     1      32.952 -24.079  -2.083  1.00  0.00    -0.084 Cl
ATOM      2  C   UNL     1      33.749 -24.822  -3.452  1.00  0.00     0.047 A 
ATOM      3  C   UNL     1      34.143 -26.140  -3.428  1.00  0.00     0.021 A 
ATOM      4  C   UNL     1      34.742 -26.738  -4.516  1.00  0.00     0.002 A 
ATOM      5  C   UNL     1      34.939 -25.977  -5.642  1.00  0.00     0.001 A 
ATOM      6  C   UNL     1      34.537 -24.635  -5.665  1.00  0.00     0.008 A 
ATOM      7  C   UNL     1      33.947 -24.051  -4.586  1.00  0.00     0.006 A 
ENDROOT
BRANCH   7   8
ATOM      8  C   UNL     1      33.552 -22.617  -4.625  1.00  0.00     0.123 C 
BRANCH   8   9
ATOM      9  C   UNL     1      32.076 -22.546  -4.428  1.00  0.00    -0.013 A 
ATOM     10  C   UNL     1      31.374 -21.437  -4.086  1.00  0.00     0.007 A 
ATOM     11  C   UNL     1      31.393 -23.759  -4.640  1.00  0.00     0.007 A 
ATOM     12  C   UNL     1      29.999 -21.517  -3.953  1.00  0.00     0.000 A 
ATOM     13  C   UNL     1      30.031 -23.829  -4.507  1.00  0.00     0.000 A 
ATOM     14  C   UNL     1      29.310 -22.712  -4.161  1.00  0.00     0.000 A 
ENDBRANCH   8   9
BRANCH   8  15
ATOM     15  C   UNL     1      33.759 -22.036  -5.979  1.00  0.00    -0.013 A 
ATOM     16  C   UNL     1      33.121 -22.495  -7.101  1.00  0.00     0.007 A 
ATOM     17  C   UNL     1      34.614 -20.971  -6.110  1.00  0.00     0.007 A 
ATOM     18  C   UNL     1      33.316 -21.917  -8.350  1.00  0.00     0.000 A 
ATOM     19  C   UNL     1      34.828 -20.371  -7.363  1.00  0.00     0.000 A 
ATOM     20  C   UNL     1      34.177 -20.852  -8.465  1.00  0.00     0.000 A 
ENDBRANCH   8  15
BRANCH   8  21
ATOM     21  N   UNL     1      34.304 -21.871  -3.660  1.00  0.00    -0.319 N 
ATOM     22  C   UNL     1      33.845 -20.814  -2.935  1.00  0.00     0.109 A 
ATOM     23  C   UNL     1      35.564 -22.082  -3.282  1.00  0.00     0.200 A 
ATOM     24  C   UNL     1      34.848 -20.373  -2.100  1.00  0.00     0.131 A 
ATOM     25  N   UNL     1      35.888 -21.166  -2.332  1.00  0.00    -0.245 NA
ENDBRANCH   8  21
ENDBRANCH   7   8
TORSDOF 4
ENDMDL
MODEL 9
REMARK VINA RESULT:      -4.4      1.729      4.532
REMARK SMILES Clc1ccccc1C(c1ccccc1)(c1ccccc1)n1ccnc1
REMARK SMILES IDX 1 1 2 2 3 3 4 4 5 5 6 6 7 7 8 8 9 9 10 10 14 11 11 12 13 13
REMARK SMILES IDX 12 14 15 15 16 16 20 17 17 18 19 19 18 20 21 21 22 22 25 23
REMARK SMILES IDX 23 24 24 25
REMARK H PARENT
ROOT
ATOM      1  Cl  UNL     1      34.453 -25.536  -2.592  1.00  0.00    -0.084 Cl
ATOM      2  C   UNL     1      35.312 -24.015  -2.496  1.00  0.00     0.047 A 
ATOM      3  C   UNL     1      35.867 -23.575  -1.317  1.00  0.00     0.021 A 
ATOM      4  C   UNL     1      36.573 -22.393  -1.245  1.00  0.00     0.002 A 
ATOM      5  C   UNL     1      36.711 -21.654  -2.394  1.00  0.00     0.001 A 
ATOM      6  C   UNL     1      36.145 -22.104  -3.594  1.00  0.00     0.008 A 
ATOM      7  C   UNL     1      35.448 -23.271  -3.657  1.00  0.00     0.006 A 
ENDROOT
BRANCH   7   8
ATOM      8  C   UNL     1      34.834 -23.716  -4.937  1.00  0.00     0.123 C 
BRANCH   8   9
ATOM      9  C   UNL     1      35.549 -24.946  -5.383  1.00  0.00    -0.013 A 
ATOM     10  C   UNL     1      36.635 -25.494  -4.783  1.00  0.00     0.007 A 
ATOM     11  C   UNL     1      35.002 -25.566  -6.522  1.00  0.00     0.007 A 
ATOM     12  C   UNL     1      37.185 -26.652  -5.302  1.00  0.00     0.000 A 
ATOM     13  C   UNL     1      35.553 -26.714  -7.029  1.00  0.00     0.000 A 
ATOM     14  C   UNL     1      36.653 -27.277  -6.429  1.00  0.00     0.000 A 
ENDBRANCH   8   9
BRANCH   8  15
ATOM     15  C   UNL     1      35.092 -22.738  -6.028  1.00  0.00    -0.013 A 
ATOM     16  C   UNL     1      34.141 -21.876  -6.508  1.00  0.00     0.007 A 
ATOM     17  C   UNL     1      36.352 -22.676  -6.568  1.00  0.00     0.007 A 
ATOM     18  C   UNL     1      34.417 -20.957  -7.513  1.00  0.00     0.000 A 
ATOM     19  C   UNL     1      36.654 -21.756  -7.585  1.00  0.00     0.000 A 
ATOM     20  C   UNL     1      35.684 -20.909  -8.044  1.00  0.00     0.000 A 
ENDBRANCH   8  15
BRANCH   8  21
ATOM     21  N   UNL     1      33.422 -23.892  -4.772  1.00  0.00    -0.319 N 
ATOM     22  C   UNL     1      32.685 -24.931  -5.255  1.00  0.00     0.109 A 
ATOM     23  C   UNL     1      32.582 -23.098  -4.108  1.00  0.00     0.200 A 
ATOM     24  C   UNL     1      31.371 -24.763  -4.877  1.00  0.00     0.131 A 
ATOM     25  N   UNL     1      31.336 -23.635  -4.177  1.00  0.00    -0.245 NA
ENDBRANCH   8  21
ENDBRANCH   7   8
TORSDOF 4
ENDMDL
