MODEL 1
REMARK VINA RESULT:      -7.2      0.000      0.000
REMARK SMILES CNCC[C@H](Oc1cccc2ccccc12)c1cccs1
REMARK SMILES IDX 4 1 3 2 2 3 1 4 5 6 6 7 7 8 8 9 16 10 9 11 15 12 11 13 10 14
REMARK SMILES IDX 14 15 12 16 13 17 17 18 18 19 21 20 19 21 20 22
REMARK H PARENT 2 5
ROOT
ATOM      1  C   UNL     1      17.737 -25.427  -6.590  1.00  0.00     0.066 C 
ENDROOT
BRANCH   1   2
ATOM      2  C   UNL     1      18.614 -26.235  -5.739  1.00  0.00     0.085 C 
BRANCH   2   3
ATOM      3  N   UNL     1      19.771 -25.726  -5.152  1.00  0.00    -0.320 NA
ATOM      4  C   UNL     1      21.046 -26.205  -5.501  1.00  0.00     0.101 C 
ATOM      5  H   UNL     1      19.770 -24.788  -4.749  1.00  0.00     0.122 HD
ENDBRANCH   2   3
ENDBRANCH   1   2
BRANCH   1   6
ATOM      6  C   UNL     1      16.285 -25.694  -6.696  1.00  0.00     0.215 C 
BRANCH   6   7
ATOM      7  O   UNL     1      15.411 -24.833  -6.044  1.00  0.00    -0.484 OA
BRANCH   7   8
ATOM      8  C   UNL     1      15.600 -23.473  -5.983  1.00  0.00     0.128 A 
ATOM      9  C   UNL     1      15.774 -22.670  -7.066  1.00  0.00     0.047 A 
ATOM     10  C   UNL     1      15.606 -22.893  -4.700  1.00  0.00     0.024 A 
ATOM     11  C   UNL     1      15.956 -21.299  -6.882  1.00  0.00     0.004 A 
ATOM     12  C   UNL     1      15.423 -23.701  -3.589  1.00  0.00     0.012 A 
ATOM     13  C   UNL     1      15.784 -21.538  -4.497  1.00  0.00    -0.015 A 
ATOM     14  C   UNL     1      15.962 -20.737  -5.630  1.00  0.00     0.009 A 
ATOM     15  C   UNL     1      15.424 -23.130  -2.335  1.00  0.00     0.001 A 
ATOM     16  C   UNL     1      15.785 -20.975  -3.239  1.00  0.00     0.009 A 
ATOM     17  C   UNL     1      15.604 -21.776  -2.143  1.00  0.00     0.001 A 
ENDBRANCH   7   8
ENDBRANCH   6   7
BRANCH   6  18
ATOM     18  C   UNL     1      16.097 -27.093  -6.130  1.00  0.00     0.045 A 
ATOM     19  C   UNL     1      15.980 -27.516  -4.856  1.00  0.00     0.019 A 
ATOM     20  S   UNL     1      15.976 -28.600  -7.066  1.00  0.00    -0.145 S 
ATOM     21  C   UNL     1      15.818 -28.806  -4.583  1.00  0.00     0.012 A 
ATOM     22  C   UNL     1      15.776 -29.672  -5.648  1.00  0.00     0.065 A 
ENDBRANCH   6  18
ENDBRANCH   1   6
TORSDOF 6
ENDMDL
MODEL 2
REMARK VINA RESULT:      -7.2      2.338      6.337
REMARK SMILES CNCC[C@H](Oc1cccc2ccccc12)c1cccs1
REMARK SMILES IDX 4 1 3 2 2 3 1 4 5 6 6 7 7 8 8 9 16 10 9 11 15 12 11 13 10 14
REMARK SMILES IDX 14 15 12 16 13 17 17 18 18 19 21 20 19 21 20 22
REMARK H PARENT 2 5
ROOT
ATOM      1  C   UNL     1      16.486 -24.659  -6.776  1.00  0.00     0.066 C 
ENDROOT
BRANCH   1   2
ATOM      2  C   UNL     1      16.067 -23.419  -6.120  1.00  0.00     0.085 C 
BRANCH   2   3
ATOM      3  N   UNL     1      15.107 -23.387  -5.111  1.00  0.00    -0.320 NA
ATOM      4  C   UNL     1      15.449 -23.595  -3.763  1.00  0.00     0.101 C 
ATOM      5  H   UNL     1      14.237 -22.872  -5.248  1.00  0.00     0.122 HD
ENDBRANCH   2   3
ENDBRANCH   1   2
BRANCH   1   6
ATOM      6  C   UNL     1      17.506 -25.553  -6.184  1.00  0.00     0.215 C 
BRANCH   6   7
ATOM      7  O   UNL     1      18.628 -25.863  -6.945  1.00  0.00    -0.484 OA
BRANCH   7   8
ATOM      8  C   UNL     1      19.832 -26.229  -6.394  1.00  0.00     0.128 A 
ATOM      9  C   UNL     1      20.385 -25.652  -5.295  1.00  0.00     0.047 A 
ATOM     10  C   UNL     1      20.522 -27.281  -7.029  1.00  0.00     0.024 A 
ATOM     11  C   UNL     1      21.616 -26.110  -4.825  1.00  0.00     0.004 A 
ATOM     12  C   UNL     1      19.965 -27.882  -8.146  1.00  0.00     0.012 A 
ATOM     13  C   UNL     1      21.742 -27.748  -6.578  1.00  0.00    -0.015 A 
ATOM     14  C   UNL     1      22.286 -27.134  -5.445  1.00  0.00     0.009 A 
ATOM     15  C   UNL     1      20.639 -28.913  -8.761  1.00  0.00     0.001 A 
ATOM     16  C   UNL     1      22.410 -28.781  -7.200  1.00  0.00     0.009 A 
ATOM     17  C   UNL     1      21.857 -29.372  -8.305  1.00  0.00     0.001 A 
ENDBRANCH   7   8
ENDBRANCH   6   7
BRANCH   6  18
ATOM     18  C   UNL     1      16.766 -26.844  -5.868  1.00  0.00     0.045 A 
ATOM     19  C   UNL     1      16.383 -27.370  -4.687  1.00  0.00     0.019 A 
ATOM     20  S   UNL     1      16.192 -28.045  -7.046  1.00  0.00    -0.145 S 
ATOM     21  C   UNL     1      15.736 -28.528  -4.640  1.00  0.00     0.012 A 
ATOM     22  C   UNL     1      15.481 -29.154  -5.836  1.00  0.00     0.065 A 
ENDBRANCH   6  18
ENDBRANCH   1   6
TORSDOF 6
ENDMDL
MODEL 3
REMARK VINA RESULT:      -7.2      3.302      6.418
REMARK SMILES CNCC[C@H](Oc1cccc2ccccc12)c1cccs1
REMARK SMILES IDX 4 1 3 2 2 3 1 4 5 6 6 7 7 8 8 9 16 10 9 11 15 12 11 13 10 14
REMARK SMILES IDX 14 15 12 16 13 17 17 18 18 19 21 20 19 21 20 22
REMARK H PARENT 2 5
ROOT
ATOM      1  C   UNL     1      17.248 -28.867  -7.648  1.00  0.00     0.066 C 
ENDROOT
BRANCH   1   2
ATOM      2  C   UNL     1      16.610 -29.749  -8.627  1.00  0.00     0.085 C 
BRANCH   2   3
ATOM      3  N   UNL     1      16.670 -31.139  -8.540  1.00  0.00    -0.320 NA
ATOM      4  C   UNL     1      17.850 -31.802  -8.157  1.00  0.00     0.101 C 
ATOM      5  H   UNL     1      15.817 -31.679  -8.392  1.00  0.00     0.122 HD
ENDBRANCH   2   3
ENDBRANCH   1   2
BRANCH   1   6
ATOM      6  C   UNL     1      17.403 -27.414  -7.885  1.00  0.00     0.215 C 
BRANCH   6   7
ATOM      7  O   UNL     1      18.674 -26.928  -8.168  1.00  0.00    -0.484 OA
BRANCH   7   8
ATOM      8  C   UNL     1      19.825 -27.620  -7.883  1.00  0.00     0.128 A 
ATOM      9  C   UNL     1      20.273 -28.694  -8.585  1.00  0.00     0.047 A 
ATOM     10  C   UNL     1      20.578 -27.167  -6.782  1.00  0.00     0.024 A 
ATOM     11  C   UNL     1      21.460 -29.319  -8.202  1.00  0.00     0.004 A 
ATOM     12  C   UNL     1      20.135 -26.070  -6.061  1.00  0.00     0.012 A 
ATOM     13  C   UNL     1      21.756 -27.772  -6.387  1.00  0.00    -0.015 A 
ATOM     14  C   UNL     1      22.192 -28.875  -7.129  1.00  0.00     0.009 A 
ATOM     15  C   UNL     1      20.876 -25.625  -4.989  1.00  0.00     0.001 A 
ATOM     16  C   UNL     1      22.492 -27.321  -5.312  1.00  0.00     0.009 A 
ATOM     17  C   UNL     1      22.050 -26.236  -4.602  1.00  0.00     0.001 A 
ENDBRANCH   7   8
ENDBRANCH   6   7
BRANCH   6  18
ATOM     18  C   UNL     1      16.904 -26.749  -6.611  1.00  0.00     0.045 A 
ATOM     19  C   UNL     1      16.593 -27.276  -5.410  1.00  0.00     0.019 A 
ATOM     20  S   UNL     1      16.593 -25.014  -6.381  1.00  0.00    -0.145 S 
ATOM     21  C   UNL     1      16.171 -26.498  -4.419  1.00  0.00     0.012 A 
ATOM     22  C   UNL     1      16.069 -25.153  -4.677  1.00  0.00     0.065 A 
ENDBRANCH   6  18
ENDBRANCH   1   6
TORSDOF 6
ENDMDL
MODEL 4
REMARK VINA RESULT:      -7.1      0.912      1.168
REMARK SMILES CNCC[C@H](Oc1cccc2ccccc12)c1cccs1
REMARK SMILES IDX 4 1 3 2 2 3 1 4 5 6 6 7 7 8 8 9 16 10 9 11 15 12 11 13 10 14
REMARK SMILES IDX 14 15 12 16 13 17 17 18 18 19 21 20 19 21 20 22
REMARK H PARENT 2 5
ROOT
ATOM      1  C   UNL     1      18.282 -25.527  -5.438  1.00  0.00     0.066 C 
ENDROOT
BRANCH   1   2
ATOM      2  C   UNL     1      19.616 -26.022  -5.784  1.00  0.00     0.085 C 
BRANCH   2   3
ATOM      3  N   UNL     1      20.734 -25.795  -4.985  1.00  0.00    -0.320 NA
ATOM      4  C   UNL     1      21.928 -26.516  -5.167  1.00  0.00     0.101 C 
ATOM      5  H   UNL     1      20.854 -24.896  -4.516  1.00  0.00     0.122 HD
ENDBRANCH   2   3
ENDBRANCH   1   2
BRANCH   1   6
ATOM      6  C   UNL     1      17.161 -25.552  -6.404  1.00  0.00     0.215 C 
BRANCH   6   7
ATOM      7  O   UNL     1      16.005 -24.850  -6.085  1.00  0.00    -0.484 OA
BRANCH   7   8
ATOM      8  C   UNL     1      15.962 -23.481  -5.975  1.00  0.00     0.128 A 
ATOM      9  C   UNL     1      16.075 -22.620  -7.020  1.00  0.00     0.047 A 
ATOM     10  C   UNL     1      15.785 -22.957  -4.679  1.00  0.00     0.024 A 
ATOM     11  C   UNL     1      16.015 -21.246  -6.787  1.00  0.00     0.004 A 
ATOM     12  C   UNL     1      15.662 -23.826  -3.606  1.00  0.00     0.012 A 
ATOM     13  C   UNL     1      15.723 -21.600  -4.428  1.00  0.00    -0.015 A 
ATOM     14  C   UNL     1      15.843 -20.738  -5.524  1.00  0.00     0.009 A 
ATOM     15  C   UNL     1      15.483 -23.310  -2.342  1.00  0.00     0.001 A 
ATOM     16  C   UNL     1      15.545 -21.093  -3.159  1.00  0.00     0.009 A 
ATOM     17  C   UNL     1      15.424 -21.954  -2.101  1.00  0.00     0.001 A 
ENDBRANCH   7   8
ENDBRANCH   6   7
BRANCH   6  18
ATOM     18  C   UNL     1      16.806 -27.022  -6.562  1.00  0.00     0.045 A 
ATOM     19  C   UNL     1      17.096 -27.895  -7.547  1.00  0.00     0.019 A 
ATOM     20  S   UNL     1      15.865 -28.007  -5.419  1.00  0.00    -0.145 S 
ATOM     21  C   UNL     1      16.680 -29.154  -7.480  1.00  0.00     0.012 A 
ATOM     22  C   UNL     1      15.949 -29.516  -6.375  1.00  0.00     0.065 A 
ENDBRANCH   6  18
ENDBRANCH   1   6
TORSDOF 6
ENDMDL
MODEL 5
REMARK VINA RESULT:      -7.1      3.312      7.134
REMARK SMILES CNCC[C@H](Oc1cccc2ccccc12)c1cccs1
REMARK SMILES IDX 4 1 3 2 2 3 1 4 5 6 6 7 7 8 8 9 16 10 9 11 15 12 11 13 10 14
REMARK SMILES IDX 14 15 12 16 13 17 17 18 18 19 21 20 19 21 20 22
REMARK H PARENT 2 5
ROOT
ATOM      1  C   UNL     1      20.328 -25.496  -5.449  1.00  0.00     0.066 C 
ENDROOT
BRANCH   1   2
ATOM      2  C   UNL     1      21.521 -25.982  -4.752  1.00  0.00     0.085 C 
BRANCH   2   3
ATOM      3  N   UNL     1      22.814 -25.698  -5.185  1.00  0.00    -0.320 NA
ATOM      4  C   UNL     1      23.512 -24.566  -4.728  1.00  0.00     0.101 C 
ATOM      5  H   UNL     1      23.413 -26.447  -5.534  1.00  0.00     0.122 HD
ENDBRANCH   2   3
ENDBRANCH   1   2
BRANCH   1   6
ATOM      6  C   UNL     1      19.326 -26.420  -6.025  1.00  0.00     0.215 C 
BRANCH   6   7
ATOM      7  O   UNL     1      19.434 -26.748  -7.371  1.00  0.00    -0.484 OA
BRANCH   7   8
ATOM      8  C   UNL     1      20.054 -27.889  -7.820  1.00  0.00     0.128 A 
ATOM      9  C   UNL     1      21.398 -28.030  -7.965  1.00  0.00     0.047 A 
ATOM     10  C   UNL     1      19.218 -28.976  -8.143  1.00  0.00     0.024 A 
ATOM     11  C   UNL     1      21.915 -29.239  -8.430  1.00  0.00     0.004 A 
ATOM     12  C   UNL     1      17.847 -28.847  -7.993  1.00  0.00     0.012 A 
ATOM     13  C   UNL     1      19.712 -30.182  -8.604  1.00  0.00    -0.015 A 
ATOM     14  C   UNL     1      21.099 -30.296  -8.745  1.00  0.00     0.009 A 
ATOM     15  C   UNL     1      17.033 -29.913  -8.305  1.00  0.00     0.001 A 
ATOM     16  C   UNL     1      18.890 -31.244  -8.915  1.00  0.00     0.009 A 
ATOM     17  C   UNL     1      17.534 -31.112  -8.765  1.00  0.00     0.001 A 
ENDBRANCH   7   8
ENDBRANCH   6   7
BRANCH   6  18
ATOM     18  C   UNL     1      17.984 -25.740  -5.800  1.00  0.00     0.045 A 
ATOM     19  C   UNL     1      16.831 -25.823  -6.492  1.00  0.00     0.019 A 
ATOM     20  S   UNL     1      17.586 -24.602  -4.492  1.00  0.00    -0.145 S 
ATOM     21  C   UNL     1      15.762 -25.132  -6.112  1.00  0.00     0.012 A 
ATOM     22  C   UNL     1      15.890 -24.340  -4.997  1.00  0.00     0.065 A 
ENDBRANCH   6  18
ENDBRANCH   1   6
TORSDOF 6
ENDMDL
MODEL 6
REMARK VINA RESULT:      -6.9      3.942      6.293
REMARK SMILES CNCC[C@H](Oc1cccc2ccccc12)c1cccs1
REMARK SMILES IDX 4 1 3 2 2 3 1 4 5 6 6 7 7 8 8 9 16 10 9 11 15 12 11 13 10 14
REMARK SMILES IDX 14 15 12 16 13 17 17 18 18 19 21 20 19 21 20 22
REMARK H PARENT 2 5
ROOT
ATOM      1  C   UNL     1      16.104 -29.363  -8.454  1.00  0.00     0.066 C 
ENDROOT
BRANCH   1   2
ATOM      2  C   UNL     1      15.076 -29.580  -7.434  1.00  0.00     0.085 C 
BRANCH   2   3
ATOM      3  N   UNL     1      15.369 -29.659  -6.074  1.00  0.00    -0.320 NA
ATOM      4  C   UNL     1      15.661 -28.510  -5.317  1.00  0.00     0.101 C 
ATOM      5  H   UNL     1      15.035 -30.451  -5.524  1.00  0.00     0.122 HD
ENDBRANCH   2   3
ENDBRANCH   1   2
BRANCH   1   6
ATOM      6  C   UNL     1      17.543 -29.562  -8.172  1.00  0.00     0.215 C 
BRANCH   6   7
ATOM      7  O   UNL     1      18.452 -28.677  -8.741  1.00  0.00    -0.484 OA
BRANCH   7   8
ATOM      8  C   UNL     1      19.588 -28.250  -8.099  1.00  0.00     0.128 A 
ATOM      9  C   UNL     1      20.837 -28.727  -8.341  1.00  0.00     0.047 A 
ATOM     10  C   UNL     1      19.423 -27.243  -7.127  1.00  0.00     0.024 A 
ATOM     11  C   UNL     1      21.920 -28.215  -7.626  1.00  0.00     0.004 A 
ATOM     12  C   UNL     1      18.155 -26.744  -6.875  1.00  0.00     0.012 A 
ATOM     13  C   UNL     1      20.483 -26.723  -6.408  1.00  0.00    -0.015 A 
ATOM     14  C   UNL     1      21.756 -27.235  -6.679  1.00  0.00     0.009 A 
ATOM     15  C   UNL     1      17.998 -25.756  -5.928  1.00  0.00     0.001 A 
ATOM     16  C   UNL     1      20.316 -25.735  -5.461  1.00  0.00     0.009 A 
ATOM     17  C   UNL     1      19.061 -25.243  -5.215  1.00  0.00     0.001 A 
ENDBRANCH   7   8
ENDBRANCH   6   7
BRANCH   6  18
ATOM     18  C   UNL     1      17.856 -30.963  -8.674  1.00  0.00     0.045 A 
ATOM     19  C   UNL     1      19.037 -31.566  -8.915  1.00  0.00     0.019 A 
ATOM     20  S   UNL     1      16.671 -32.223  -9.088  1.00  0.00    -0.145 S 
ATOM     21  C   UNL     1      19.080 -32.819  -9.356  1.00  0.00     0.012 A 
ATOM     22  C   UNL     1      17.880 -33.457  -9.551  1.00  0.00     0.065 A 
ENDBRANCH   6  18
ENDBRANCH   1   6
TORSDOF 6
ENDMDL
MODEL 7
REMARK VINA RESULT:      -6.8      2.411      6.122
REMARK SMILES CNCC[C@H](Oc1cccc2ccccc12)c1cccs1
REMARK SMILES IDX 4 1 3 2 2 3 1 4 5 6 6 7 7 8 8 9 16 10 9 11 15 12 11 13 10 14
REMARK SMILES IDX 14 15 12 16 13 17 17 18 18 19 21 20 19 21 20 22
REMARK H PARENT 2 5
ROOT
ATOM      1  C   UNL     1      16.716 -26.770  -5.487  1.00  0.00     0.066 C 
ENDROOT
BRANCH   1   2
ATOM      2  C   UNL     1      15.838 -27.827  -5.991  1.00  0.00     0.085 C 
BRANCH   2   3
ATOM      3  N   UNL     1      16.062 -28.479  -7.202  1.00  0.00    -0.320 NA
ATOM      4  C   UNL     1      16.379 -29.848  -7.252  1.00  0.00     0.101 C 
ATOM      5  H   UNL     1      15.662 -28.109  -8.065  1.00  0.00     0.122 HD
ENDBRANCH   2   3
ENDBRANCH   1   2
BRANCH   1   6
ATOM      6  C   UNL     1      16.933 -25.508  -6.229  1.00  0.00     0.215 C 
BRANCH   6   7
ATOM      7  O   UNL     1      18.200 -25.258  -6.742  1.00  0.00    -0.484 OA
BRANCH   7   8
ATOM      8  C   UNL     1      19.071 -26.253  -7.113  1.00  0.00     0.128 A 
ATOM      9  C   UNL     1      18.900 -27.066  -8.189  1.00  0.00     0.047 A 
ATOM     10  C   UNL     1      20.216 -26.422  -6.310  1.00  0.00     0.024 A 
ATOM     11  C   UNL     1      19.854 -28.044  -8.469  1.00  0.00     0.004 A 
ATOM     12  C   UNL     1      20.405 -25.595  -5.214  1.00  0.00     0.012 A 
ATOM     13  C   UNL     1      21.172 -27.384  -6.572  1.00  0.00    -0.015 A 
ATOM     14  C   UNL     1      20.968 -28.207  -7.685  1.00  0.00     0.009 A 
ATOM     15  C   UNL     1      21.528 -25.759  -4.434  1.00  0.00     0.001 A 
ATOM     16  C   UNL     1      22.293 -27.542  -5.785  1.00  0.00     0.009 A 
ATOM     17  C   UNL     1      22.477 -26.723  -4.702  1.00  0.00     0.001 A 
ENDBRANCH   7   8
ENDBRANCH   6   7
BRANCH   6  18
ATOM     18  C   UNL     1      16.584 -24.403  -5.244  1.00  0.00     0.045 A 
ATOM     19  C   UNL     1      17.287 -23.890  -4.215  1.00  0.00     0.019 A 
ATOM     20  S   UNL     1      15.075 -23.463  -5.206  1.00  0.00    -0.145 S 
ATOM     21  C   UNL     1      16.783 -22.911  -3.472  1.00  0.00     0.012 A 
ATOM     22  C   UNL     1      15.530 -22.455  -3.800  1.00  0.00     0.065 A 
ENDBRANCH   6  18
ENDBRANCH   1   6
TORSDOF 6
ENDMDL
MODEL 8
REMARK VINA RESULT:      -6.8      2.981      6.562
REMARK SMILES CNCC[C@H](Oc1cccc2ccccc12)c1cccs1
REMARK SMILES IDX 4 1 3 2 2 3 1 4 5 6 6 7 7 8 8 9 16 10 9 11 15 12 11 13 10 14
REMARK SMILES IDX 14 15 12 16 13 17 17 18 18 19 21 20 19 21 20 22
REMARK H PARENT 2 5
ROOT
ATOM      1  C   UNL     1      16.872 -28.094  -7.116  1.00  0.00     0.066 C 
ENDROOT
BRANCH   1   2
ATOM      2  C   UNL     1      16.273 -28.942  -8.149  1.00  0.00     0.085 C 
BRANCH   2   3
ATOM      3  N   UNL     1      16.935 -30.036  -8.702  1.00  0.00    -0.320 NA
ATOM      4  C   UNL     1      17.424 -31.082  -7.901  1.00  0.00     0.101 C 
ATOM      5  H   UNL     1      16.771 -30.294  -9.676  1.00  0.00     0.122 HD
ENDBRANCH   2   3
ENDBRANCH   1   2
BRANCH   1   6
ATOM      6  C   UNL     1      17.079 -26.642  -7.316  1.00  0.00     0.215 C 
BRANCH   6   7
ATOM      7  O   UNL     1      18.346 -26.205  -7.683  1.00  0.00    -0.484 OA
BRANCH   7   8
ATOM      8  C   UNL     1      19.455 -26.362  -6.888  1.00  0.00     0.128 A 
ATOM      9  C   UNL     1      19.724 -25.618  -5.782  1.00  0.00     0.047 A 
ATOM     10  C   UNL     1      20.363 -27.371  -7.264  1.00  0.00     0.024 A 
ATOM     11  C   UNL     1      20.884 -25.870  -5.051  1.00  0.00     0.004 A 
ATOM     12  C   UNL     1      20.098 -28.140  -8.386  1.00  0.00     0.012 A 
ATOM     13  C   UNL     1      21.518 -27.635  -6.552  1.00  0.00    -0.015 A 
ATOM     14  C   UNL     1      21.767 -26.853  -5.419  1.00  0.00     0.009 A 
ATOM     15  C   UNL     1      20.984 -29.130  -8.747  1.00  0.00     0.001 A 
ATOM     16  C   UNL     1      22.400 -28.628  -6.921  1.00  0.00     0.009 A 
ATOM     17  C   UNL     1      22.135 -29.386  -8.031  1.00  0.00     0.001 A 
ENDBRANCH   7   8
ENDBRANCH   6   7
BRANCH   6  18
ATOM     18  C   UNL     1      16.715 -26.003  -5.984  1.00  0.00     0.045 A 
ATOM     19  C   UNL     1      16.630 -26.536  -4.749  1.00  0.00     0.019 A 
ATOM     20  S   UNL     1      16.288 -24.298  -5.715  1.00  0.00    -0.145 S 
ATOM     21  C   UNL     1      16.291 -25.783  -3.709  1.00  0.00     0.012 A 
ATOM     22  C   UNL     1      16.034 -24.455  -3.952  1.00  0.00     0.065 A 
ENDBRANCH   6  18
ENDBRANCH   1   6
TORSDOF 6
ENDMDL
MODEL 9
REMARK VINA RESULT:      -6.6      3.114      6.874
REMARK SMILES CNCC[C@H](Oc1cccc2ccccc12)c1cccs1
REMARK SMILES IDX 4 1 3 2 2 3 1 4 5 6 6 7 7 8 8 9 16 10 9 11 15 12 11 13 10 14
REMARK SMILES IDX 14 15 12 16 13 17 17 18 18 19 21 20 19 21 20 22
REMARK H PARENT 2 5
ROOT
ATOM      1  C   UNL     1      19.984 -25.211  -5.314  1.00  0.00     0.066 C 
ENDROOT
BRANCH   1   2
ATOM      2  C   UNL     1      21.177 -25.907  -4.830  1.00  0.00     0.085 C 
BRANCH   2   3
ATOM      3  N   UNL     1      22.445 -25.692  -5.366  1.00  0.00    -0.320 NA
ATOM      4  C   UNL     1      23.396 -24.891  -4.708  1.00  0.00     0.101 C 
ATOM      5  H   UNL     1      22.844 -26.364  -6.023  1.00  0.00     0.122 HD
ENDBRANCH   2   3
ENDBRANCH   1   2
BRANCH   1   6
ATOM      6  C   UNL     1      18.780 -25.941  -5.771  1.00  0.00     0.215 C 
BRANCH   6   7
ATOM      7  O   UNL     1      18.682 -26.263  -7.119  1.00  0.00    -0.484 OA
BRANCH   7   8
ATOM      8  C   UNL     1      18.353 -27.519  -7.570  1.00  0.00     0.128 A 
ATOM      9  C   UNL     1      17.083 -27.995  -7.669  1.00  0.00     0.047 A 
ATOM     10  C   UNL     1      19.422 -28.352  -7.953  1.00  0.00     0.024 A 
ATOM     11  C   UNL     1      16.870 -29.289  -8.143  1.00  0.00     0.004 A 
ATOM     12  C   UNL     1      20.720 -27.876  -7.863  1.00  0.00     0.012 A 
ATOM     13  C   UNL     1      19.231 -29.637  -8.425  1.00  0.00    -0.015 A 
ATOM     14  C   UNL     1      17.914 -30.099  -8.515  1.00  0.00     0.009 A 
ATOM     15  C   UNL     1      21.763 -28.691  -8.244  1.00  0.00     0.001 A 
ATOM     16  C   UNL     1      20.281 -30.446  -8.804  1.00  0.00     0.009 A 
ATOM     17  C   UNL     1      21.563 -29.972  -8.713  1.00  0.00     0.001 A 
ENDBRANCH   7   8
ENDBRANCH   6   7
BRANCH   6  18
ATOM     18  C   UNL     1      17.609 -25.044  -5.402  1.00  0.00     0.045 A 
ATOM     19  C   UNL     1      16.491 -24.733  -6.089  1.00  0.00     0.019 A 
ATOM     20  S   UNL     1      17.415 -24.133  -3.887  1.00  0.00    -0.145 S 
ATOM     21  C   UNL     1      15.582 -23.917  -5.568  1.00  0.00     0.012 A 
ATOM     22  C   UNL     1      15.835 -23.412  -4.316  1.00  0.00     0.065 A 
ENDBRANCH   6  18
ENDBRANCH   1   6
TORSDOF 6
ENDMDL
