MODEL 1
REMARK VINA RESULT:      -8.5      0.000      0.000
REMARK SMILES Nc1nc(N)c(C(=O)NC(=[NH2+])Nc2ccccc2)nc1Cl
REMARK SMILES IDX 2 1 3 2 4 3 6 4 19 5 20 6 21 7 1 8 5 11 7 14 8 15 9 16 10 17
REMARK SMILES IDX 11 18 12 19 13 24 14 25 18 26 15 27 17 28 16 29
REMARK H PARENT 1 9 1 10 5 12 5 13 9 20 11 21 11 22 12 23
ROOT
ATOM      1  C   UNL     1     147.674 167.230 162.104  1.00  0.00     0.163 A 
ATOM      2  N   UNL     1     147.526 166.675 163.318  1.00  0.00    -0.209 NA
ATOM      3  C   UNL     1     148.617 166.160 163.957  1.00  0.00     0.159 A 
ATOM      4  C   UNL     1     149.861 166.202 163.378  1.00  0.00     0.188 A 
ATOM      5  N   UNL     1     150.008 166.762 162.156  1.00  0.00    -0.222 NA
ATOM      6  C   UNL     1     148.925 167.270 161.527  1.00  0.00     0.172 A 
ATOM      7  Cl  UNL     1     149.143 167.994 159.934  1.00  0.00    -0.058 Cl
ENDROOT
BRANCH   1   8
ATOM      8  N   UNL     1     146.579 167.786 161.380  1.00  0.00    -0.381 N 
ATOM      9  H   UNL     1     146.522 167.797 160.337  1.00  0.00     0.158 HD
ATOM     10  H   UNL     1     145.760 168.218 161.880  1.00  0.00     0.158 HD
ENDBRANCH   1   8
BRANCH   3  11
ATOM     11  N   UNL     1     148.520 165.566 165.234  1.00  0.00    -0.382 N 
ATOM     12  H   UNL     1     149.328 165.056 165.620  1.00  0.00     0.158 HD
ATOM     13  H   UNL     1     147.644 165.647 165.768  1.00  0.00     0.158 HD
ENDBRANCH   3  11
BRANCH   4  14
ATOM     14  C   UNL     1     151.034 165.647 164.068  1.00  0.00     0.336 C 
ATOM     15  O   UNL     1     151.272 166.053 165.219  1.00  0.00    -0.248 OA
ATOM     16  N   UNL     1     151.872 164.693 163.466  1.00  0.00    -0.209 N 
ATOM     17  C   UNL     1     153.014 164.118 164.068  1.00  0.00     0.353 C 
ATOM     18  N   UNL     1     153.380 164.439 165.246  1.00  0.00    -0.290 N 
ATOM     19  N   UNL     1     153.810 163.142 163.380  1.00  0.00    -0.245 N 
ATOM     20  H   UNL     1     151.609 164.405 162.492  1.00  0.00     0.270 HD
ATOM     21  H   UNL     1     152.936 165.109 165.886  1.00  0.00     0.256 HD
ATOM     22  H   UNL     1     154.258 164.001 165.680  1.00  0.00     0.256 HD
ATOM     23  H   UNL     1     153.973 163.339 162.352  1.00  0.00     0.267 HD
BRANCH  19  24
ATOM     24  C   UNL     1     154.335 161.979 163.987  1.00  0.00     0.099 A 
ATOM     25  C   UNL     1     153.659 160.856 164.313  1.00  0.00     0.043 A 
ATOM     26  C   UNL     1     155.700 161.999 164.298  1.00  0.00     0.043 A 
ATOM     27  C   UNL     1     154.309 159.779 164.931  1.00  0.00     0.004 A 
ATOM     28  C   UNL     1     156.349 160.952 164.902  1.00  0.00     0.004 A 
ATOM     29  C   UNL     1     155.654 159.814 165.231  1.00  0.00     0.000 A 
ENDBRANCH  19  24
ENDBRANCH   4  14
TORSDOF 4
ENDMDL
MODEL 2
REMARK VINA RESULT:      -8.4      0.305      1.061
REMARK SMILES Nc1nc(N)c(C(=O)NC(=[NH2+])Nc2ccccc2)nc1Cl
REMARK SMILES IDX 2 1 3 2 4 3 6 4 19 5 20 6 21 7 1 8 5 11 7 14 8 15 9 16 10 17
REMARK SMILES IDX 11 18 12 19 13 24 14 25 18 26 15 27 17 28 16 29
REMARK H PARENT 1 9 1 10 5 12 5 13 9 20 11 21 11 22 12 23
ROOT
ATOM      1  C   UNL     1     147.671 167.223 162.086  1.00  0.00     0.163 A 
ATOM      2  N   UNL     1     147.522 166.684 163.307  1.00  0.00    -0.209 NA
ATOM      3  C   UNL     1     148.608 166.158 163.944  1.00  0.00     0.159 A 
ATOM      4  C   UNL     1     149.848 166.172 163.357  1.00  0.00     0.188 A 
ATOM      5  N   UNL     1     149.996 166.715 162.127  1.00  0.00    -0.222 NA
ATOM      6  C   UNL     1     148.918 167.235 161.499  1.00  0.00     0.172 A 
ATOM      7  Cl  UNL     1     149.138 167.937 159.896  1.00  0.00    -0.058 Cl
ENDROOT
BRANCH   1   8
ATOM      8  N   UNL     1     146.581 167.790 161.363  1.00  0.00    -0.381 N 
ATOM      9  H   UNL     1     146.684 168.578 160.685  1.00  0.00     0.158 HD
ATOM     10  H   UNL     1     145.600 167.426 161.483  1.00  0.00     0.158 HD
ENDBRANCH   1   8
BRANCH   3  11
ATOM     11  N   UNL     1     148.510 165.580 165.228  1.00  0.00    -0.382 N 
ATOM     12  H   UNL     1     147.689 165.005 165.466  1.00  0.00     0.158 HD
ATOM     13  H   UNL     1     149.260 165.737 165.915  1.00  0.00     0.158 HD
ENDBRANCH   3  11
BRANCH   4  14
ATOM     14  C   UNL     1     151.017 165.604 164.044  1.00  0.00     0.336 C 
ATOM     15  O   UNL     1     151.276 166.027 165.184  1.00  0.00    -0.248 OA
ATOM     16  N   UNL     1     151.827 164.620 163.453  1.00  0.00    -0.209 N 
ATOM     17  C   UNL     1     152.963 164.032 164.054  1.00  0.00     0.353 C 
ATOM     18  N   UNL     1     153.348 164.367 165.222  1.00  0.00    -0.290 N 
ATOM     19  N   UNL     1     153.729 163.025 163.377  1.00  0.00    -0.245 N 
ATOM     20  H   UNL     1     151.547 164.319 162.487  1.00  0.00     0.270 HD
ATOM     21  H   UNL     1     152.926 165.060 165.853  1.00  0.00     0.256 HD
ATOM     22  H   UNL     1     154.221 163.918 165.655  1.00  0.00     0.256 HD
ATOM     23  H   UNL     1     153.885 163.198 162.343  1.00  0.00     0.267 HD
BRANCH  19  24
ATOM     24  C   UNL     1     154.235 161.862 164.001  1.00  0.00     0.099 A 
ATOM     25  C   UNL     1     155.509 161.634 164.386  1.00  0.00     0.043 A 
ATOM     26  C   UNL     1     153.318 160.828 164.229  1.00  0.00     0.043 A 
ATOM     27  C   UNL     1     155.874 160.419 164.982  1.00  0.00     0.004 A 
ATOM     28  C   UNL     1     153.661 159.635 164.812  1.00  0.00     0.004 A 
ATOM     29  C   UNL     1     154.960 159.410 165.200  1.00  0.00     0.000 A 
ENDBRANCH  19  24
ENDBRANCH   4  14
TORSDOF 4
ENDMDL
MODEL 3
REMARK VINA RESULT:      -8.1      3.499      7.969
REMARK SMILES Nc1nc(N)c(C(=O)NC(=[NH2+])Nc2ccccc2)nc1Cl
REMARK SMILES IDX 2 1 3 2 4 3 6 4 19 5 20 6 21 7 1 8 5 11 7 14 8 15 9 16 10 17
REMARK SMILES IDX 11 18 12 19 13 24 14 25 18 26 15 27 17 28 16 29
REMARK H PARENT 1 9 1 10 5 12 5 13 9 20 11 21 11 22 12 23
ROOT
ATOM      1  C   UNL     1     154.332 159.341 165.461  1.00  0.00     0.163 A 
ATOM      2  N   UNL     1     153.027 159.585 165.665  1.00  0.00    -0.209 NA
ATOM      3  C   UNL     1     152.542 160.845 165.468  1.00  0.00     0.159 A 
ATOM      4  C   UNL     1     153.367 161.866 165.064  1.00  0.00     0.188 A 
ATOM      5  N   UNL     1     154.680 161.618 164.860  1.00  0.00    -0.222 NA
ATOM      6  C   UNL     1     155.157 160.368 165.056  1.00  0.00     0.172 A 
ATOM      7  Cl  UNL     1     156.874 160.072 164.783  1.00  0.00    -0.058 Cl
ENDROOT
BRANCH   1   8
ATOM      8  N   UNL     1     154.906 158.050 165.649  1.00  0.00    -0.381 N 
ATOM      9  H   UNL     1     155.109 157.388 164.866  1.00  0.00     0.158 HD
ATOM     10  H   UNL     1     155.159 157.701 166.609  1.00  0.00     0.158 HD
ENDBRANCH   1   8
BRANCH   3  11
ATOM     11  N   UNL     1     151.180 161.158 165.666  1.00  0.00    -0.382 N 
ATOM     12  H   UNL     1     150.576 161.338 164.852  1.00  0.00     0.158 HD
ATOM     13  H   UNL     1     150.803 161.204 166.623  1.00  0.00     0.158 HD
ENDBRANCH   3  11
BRANCH   4  14
ATOM     14  C   UNL     1     152.843 163.222 164.853  1.00  0.00     0.336 C 
ATOM     15  O   UNL     1     153.481 164.170 165.345  1.00  0.00    -0.248 OA
ATOM     16  N   UNL     1     151.665 163.464 164.127  1.00  0.00    -0.209 N 
ATOM     17  C   UNL     1     151.104 164.739 163.886  1.00  0.00     0.353 C 
ATOM     18  N   UNL     1     151.650 165.802 164.329  1.00  0.00    -0.290 N 
ATOM     19  N   UNL     1     149.897 164.892 163.124  1.00  0.00    -0.245 N 
ATOM     20  H   UNL     1     151.180 162.614 163.749  1.00  0.00     0.270 HD
ATOM     21  H   UNL     1     152.511 165.887 164.884  1.00  0.00     0.256 HD
ATOM     22  H   UNL     1     151.201 166.759 164.146  1.00  0.00     0.256 HD
ATOM     23  H   UNL     1     149.146 164.171 163.322  1.00  0.00     0.267 HD
BRANCH  19  24
ATOM     24  C   UNL     1     149.695 165.901 162.156  1.00  0.00     0.099 A 
ATOM     25  C   UNL     1     148.944 167.016 162.287  1.00  0.00     0.043 A 
ATOM     26  C   UNL     1     150.331 165.717 160.922  1.00  0.00     0.043 A 
ATOM     27  C   UNL     1     148.819 167.928 161.230  1.00  0.00     0.004 A 
ATOM     28  C   UNL     1     150.218 166.602 159.879  1.00  0.00     0.004 A 
ATOM     29  C   UNL     1     149.450 167.732 160.020  1.00  0.00     0.000 A 
ENDBRANCH  19  24
ENDBRANCH   4  14
TORSDOF 4
ENDMDL
MODEL 4
REMARK VINA RESULT:      -7.9      3.488      8.031
REMARK SMILES Nc1nc(N)c(C(=O)NC(=[NH2+])Nc2ccccc2)nc1Cl
REMARK SMILES IDX 2 1 3 2 4 3 6 4 19 5 20 6 21 7 1 8 5 11 7 14 8 15 9 16 10 17
REMARK SMILES IDX 11 18 12 19 13 24 14 25 18 26 15 27 17 28 16 29
REMARK H PARENT 1 9 1 10 5 12 5 13 9 20 11 21 11 22 12 23
ROOT
ATOM      1  C   UNL     1     154.312 159.327 165.464  1.00  0.00     0.163 A 
ATOM      2  N   UNL     1     153.016 159.607 165.678  1.00  0.00    -0.209 NA
ATOM      3  C   UNL     1     152.556 160.871 165.446  1.00  0.00     0.159 A 
ATOM      4  C   UNL     1     153.397 161.858 164.997  1.00  0.00     0.188 A 
ATOM      5  N   UNL     1     154.701 161.574 164.781  1.00  0.00    -0.222 NA
ATOM      6  C   UNL     1     155.153 160.321 165.013  1.00  0.00     0.172 A 
ATOM      7  Cl  UNL     1     156.858 159.977 164.725  1.00  0.00    -0.058 Cl
ENDROOT
BRANCH   1   8
ATOM      8  N   UNL     1     154.860 158.030 165.686  1.00  0.00    -0.381 N 
ATOM      9  H   UNL     1     155.881 157.818 165.635  1.00  0.00     0.158 HD
ATOM     10  H   UNL     1     154.242 157.211 165.920  1.00  0.00     0.158 HD
ENDBRANCH   1   8
BRANCH   3  11
ATOM     11  N   UNL     1     151.204 161.221 165.653  1.00  0.00    -0.382 N 
ATOM     12  H   UNL     1     150.484 160.876 165.003  1.00  0.00     0.158 HD
ATOM     13  H   UNL     1     150.950 161.817 166.453  1.00  0.00     0.158 HD
ENDBRANCH   3  11
BRANCH   4  14
ATOM     14  C   UNL     1     152.900 163.219 164.747  1.00  0.00     0.336 C 
ATOM     15  O   UNL     1     153.577 164.168 165.179  1.00  0.00    -0.248 OA
ATOM     16  N   UNL     1     151.704 163.462 164.050  1.00  0.00    -0.209 N 
ATOM     17  C   UNL     1     151.168 164.740 163.776  1.00  0.00     0.353 C 
ATOM     18  N   UNL     1     151.754 165.805 164.158  1.00  0.00    -0.290 N 
ATOM     19  N   UNL     1     149.940 164.895 163.049  1.00  0.00    -0.245 N 
ATOM     20  H   UNL     1     151.186 162.610 163.723  1.00  0.00     0.270 HD
ATOM     21  H   UNL     1     152.635 165.891 164.681  1.00  0.00     0.256 HD
ATOM     22  H   UNL     1     151.323 166.767 163.951  1.00  0.00     0.256 HD
ATOM     23  H   UNL     1     149.179 164.202 163.300  1.00  0.00     0.267 HD
BRANCH  19  24
ATOM     24  C   UNL     1     149.731 165.870 162.047  1.00  0.00     0.099 A 
ATOM     25  C   UNL     1     150.256 165.882 160.802  1.00  0.00     0.043 A 
ATOM     26  C   UNL     1     148.904 166.947 162.388  1.00  0.00     0.043 A 
ATOM     27  C   UNL     1     149.974 166.929 159.914  1.00  0.00     0.004 A 
ATOM     28  C   UNL     1     148.620 167.977 161.528  1.00  0.00     0.004 A 
ATOM     29  C   UNL     1     149.158 167.983 160.264  1.00  0.00     0.000 A 
ENDBRANCH  19  24
ENDBRANCH   4  14
TORSDOF 4
ENDMDL
MODEL 5
REMARK VINA RESULT:      -7.8      3.454      8.265
REMARK SMILES Nc1nc(N)c(C(=O)NC(=[NH2+])Nc2ccccc2)nc1Cl
REMARK SMILES IDX 2 1 3 2 4 3 6 4 19 5 20 6 21 7 1 8 5 11 7 14 8 15 9 16 10 17
REMARK SMILES IDX 11 18 12 19 13 24 14 25 18 26 15 27 17 28 16 29
REMARK H PARENT 1 9 1 10 5 12 5 13 9 20 11 21 11 22 12 23
ROOT
ATOM      1  C   UNL     1     155.956 160.987 164.985  1.00  0.00     0.163 A 
ATOM      2  N   UNL     1     155.789 162.313 164.858  1.00  0.00    -0.209 NA
ATOM      3  C   UNL     1     154.577 162.802 164.465  1.00  0.00     0.159 A 
ATOM      4  C   UNL     1     153.527 161.959 164.199  1.00  0.00     0.188 A 
ATOM      5  N   UNL     1     153.697 160.624 164.328  1.00  0.00    -0.222 NA
ATOM      6  C   UNL     1     154.899 160.144 164.717  1.00  0.00     0.172 A 
ATOM      7  Cl  UNL     1     155.095 158.398 164.877  1.00  0.00    -0.058 Cl
ENDROOT
BRANCH   1   8
ATOM      8  N   UNL     1     157.194 160.407 165.390  1.00  0.00    -0.381 N 
ATOM      9  H   UNL     1     157.868 160.876 166.036  1.00  0.00     0.158 HD
ATOM     10  H   UNL     1     157.488 159.456 165.047  1.00  0.00     0.158 HD
ENDBRANCH   1   8
BRANCH   3  11
ATOM     11  N   UNL     1     154.346 164.186 164.316  1.00  0.00    -0.382 N 
ATOM     12  H   UNL     1     153.395 164.560 164.450  1.00  0.00     0.158 HD
ATOM     13  H   UNL     1     155.128 164.810 164.074  1.00  0.00     0.158 HD
ENDBRANCH   3  11
BRANCH   4  14
ATOM     14  C   UNL     1     152.223 162.487 163.776  1.00  0.00     0.336 C 
ATOM     15  O   UNL     1     151.205 161.986 164.286  1.00  0.00    -0.248 OA
ATOM     16  N   UNL     1     152.105 163.518 162.829  1.00  0.00    -0.209 N 
ATOM     17  C   UNL     1     150.886 164.072 162.376  1.00  0.00     0.353 C 
ATOM     18  N   UNL     1     149.763 163.657 162.812  1.00  0.00    -0.290 N 
ATOM     19  N   UNL     1     150.861 165.132 161.409  1.00  0.00    -0.245 N 
ATOM     20  H   UNL     1     153.008 163.885 162.440  1.00  0.00     0.270 HD
ATOM     21  H   UNL     1     149.586 162.918 163.503  1.00  0.00     0.256 HD
ATOM     22  H   UNL     1     148.848 164.083 162.446  1.00  0.00     0.256 HD
ATOM     23  H   UNL     1     151.559 165.035 160.617  1.00  0.00     0.267 HD
BRANCH  19  24
ATOM     24  C   UNL     1     150.002 166.252 161.484  1.00  0.00     0.099 A 
ATOM     25  C   UNL     1     149.372 166.721 162.582  1.00  0.00     0.043 A 
ATOM     26  C   UNL     1     149.768 166.939 160.286  1.00  0.00     0.043 A 
ATOM     27  C   UNL     1     148.530 167.839 162.506  1.00  0.00     0.004 A 
ATOM     28  C   UNL     1     148.947 168.035 160.197  1.00  0.00     0.004 A 
ATOM     29  C   UNL     1     148.308 168.505 161.319  1.00  0.00     0.000 A 
ENDBRANCH  19  24
ENDBRANCH   4  14
TORSDOF 4
ENDMDL
MODEL 6
REMARK VINA RESULT:      -7.8      1.939      2.410
REMARK SMILES Nc1nc(N)c(C(=O)NC(=[NH2+])Nc2ccccc2)nc1Cl
REMARK SMILES IDX 2 1 3 2 4 3 6 4 19 5 20 6 21 7 1 8 5 11 7 14 8 15 9 16 10 17
REMARK SMILES IDX 11 18 12 19 13 24 14 25 18 26 15 27 17 28 16 29
REMARK H PARENT 1 9 1 10 5 12 5 13 9 20 11 21 11 22 12 23
ROOT
ATOM      1  C   UNL     1     148.702 167.574 164.579  1.00  0.00     0.163 A 
ATOM      2  N   UNL     1     149.832 167.266 165.237  1.00  0.00    -0.209 NA
ATOM      3  C   UNL     1     150.575 166.197 164.829  1.00  0.00     0.159 A 
ATOM      4  C   UNL     1     150.186 165.433 163.757  1.00  0.00     0.188 A 
ATOM      5  N   UNL     1     149.048 165.744 163.096  1.00  0.00    -0.222 NA
ATOM      6  C   UNL     1     148.315 166.804 163.503  1.00  0.00     0.172 A 
ATOM      7  Cl  UNL     1     146.835 167.189 162.624  1.00  0.00    -0.058 Cl
ENDROOT
BRANCH   1   8
ATOM      8  N   UNL     1     147.877 168.675 164.951  1.00  0.00    -0.381 N 
ATOM      9  H   UNL     1     147.083 169.026 164.369  1.00  0.00     0.158 HD
ATOM     10  H   UNL     1     148.036 169.195 165.853  1.00  0.00     0.158 HD
ENDBRANCH   1   8
BRANCH   3  11
ATOM     11  N   UNL     1     151.771 165.829 165.482  1.00  0.00    -0.382 N 
ATOM     12  H   UNL     1     151.728 165.243 166.328  1.00  0.00     0.158 HD
ATOM     13  H   UNL     1     152.674 166.148 165.107  1.00  0.00     0.158 HD
ENDBRANCH   3  11
BRANCH   4  14
ATOM     14  C   UNL     1     150.988 164.282 163.319  1.00  0.00     0.336 C 
ATOM     15  O   UNL     1     151.244 164.185 162.106  1.00  0.00    -0.248 OA
ATOM     16  N   UNL     1     151.456 163.311 164.220  1.00  0.00    -0.209 N 
ATOM     17  C   UNL     1     152.229 162.181 163.869  1.00  0.00     0.353 C 
ATOM     18  N   UNL     1     152.568 161.953 162.662  1.00  0.00    -0.290 N 
ATOM     19  N   UNL     1     152.672 161.242 164.861  1.00  0.00    -0.245 N 
ATOM     20  H   UNL     1     151.194 163.458 165.225  1.00  0.00     0.270 HD
ATOM     21  H   UNL     1     152.349 162.511 161.827  1.00  0.00     0.256 HD
ATOM     22  H   UNL     1     153.144 161.082 162.415  1.00  0.00     0.256 HD
ATOM     23  H   UNL     1     151.957 161.005 165.606  1.00  0.00     0.267 HD
BRANCH  19  24
ATOM     24  C   UNL     1     153.964 160.672 164.889  1.00  0.00     0.099 A 
ATOM     25  C   UNL     1     154.274 159.357 164.893  1.00  0.00     0.043 A 
ATOM     26  C   UNL     1     155.040 161.568 164.936  1.00  0.00     0.043 A 
ATOM     27  C   UNL     1     155.609 158.933 164.941  1.00  0.00     0.004 A 
ATOM     28  C   UNL     1     156.351 161.166 164.982  1.00  0.00     0.004 A 
ATOM     29  C   UNL     1     156.657 159.827 164.987  1.00  0.00     0.000 A 
ENDBRANCH  19  24
ENDBRANCH   4  14
TORSDOF 4
ENDMDL
MODEL 7
REMARK VINA RESULT:      -7.7      1.179      1.632
REMARK SMILES Nc1nc(N)c(C(=O)NC(=[NH2+])Nc2ccccc2)nc1Cl
REMARK SMILES IDX 2 1 3 2 4 3 6 4 19 5 20 6 21 7 1 8 5 11 7 14 8 15 9 16 10 17
REMARK SMILES IDX 11 18 12 19 13 24 14 25 18 26 15 27 17 28 16 29
REMARK H PARENT 1 9 1 10 5 12 5 13 9 20 11 21 11 22 12 23
ROOT
ATOM      1  C   UNL     1     146.840 167.524 161.259  1.00  0.00     0.163 A 
ATOM      2  N   UNL     1     146.593 166.583 162.185  1.00  0.00    -0.209 NA
ATOM      3  C   UNL     1     147.616 166.123 162.963  1.00  0.00     0.159 A 
ATOM      4  C   UNL     1     148.891 166.608 162.813  1.00  0.00     0.188 A 
ATOM      5  N   UNL     1     149.138 167.555 161.881  1.00  0.00    -0.222 NA
ATOM      6  C   UNL     1     148.122 168.008 161.112  1.00  0.00     0.172 A 
ATOM      7  Cl  UNL     1     148.470 169.243 159.903  1.00  0.00    -0.058 Cl
ENDROOT
BRANCH   1   8
ATOM      8  N   UNL     1     145.820 168.049 160.413  1.00  0.00    -0.381 N 
ATOM      9  H   UNL     1     144.906 168.410 160.764  1.00  0.00     0.158 HD
ATOM     10  H   UNL     1     145.951 168.098 159.369  1.00  0.00     0.158 HD
ENDBRANCH   1   8
BRANCH   3  11
ATOM     11  N   UNL     1     147.414 165.136 163.952  1.00  0.00    -0.382 N 
ATOM     12  H   UNL     1     147.851 165.247 164.877  1.00  0.00     0.158 HD
ATOM     13  H   UNL     1     146.830 164.315 163.739  1.00  0.00     0.158 HD
ENDBRANCH   3  11
BRANCH   4  14
ATOM     14  C   UNL     1     149.992 166.111 163.651  1.00  0.00     0.336 C 
ATOM     15  O   UNL     1     149.945 166.357 164.870  1.00  0.00    -0.248 OA
ATOM     16  N   UNL     1     151.069 165.385 163.117  1.00  0.00    -0.209 N 
ATOM     17  C   UNL     1     152.159 164.879 163.862  1.00  0.00     0.353 C 
ATOM     18  N   UNL     1     152.244 165.054 165.121  1.00  0.00    -0.290 N 
ATOM     19  N   UNL     1     153.215 164.140 163.231  1.00  0.00    -0.245 N 
ATOM     20  H   UNL     1     151.041 165.224 162.080  1.00  0.00     0.270 HD
ATOM     21  H   UNL     1     151.587 165.549 165.737  1.00  0.00     0.256 HD
ATOM     22  H   UNL     1     153.087 164.673 165.666  1.00  0.00     0.256 HD
ATOM     23  H   UNL     1     153.531 164.518 162.293  1.00  0.00     0.267 HD
BRANCH  19  24
ATOM     24  C   UNL     1     153.800 162.975 163.777  1.00  0.00     0.099 A 
ATOM     25  C   UNL     1     155.064 162.837 164.233  1.00  0.00     0.043 A 
ATOM     26  C   UNL     1     152.986 161.837 163.836  1.00  0.00     0.043 A 
ATOM     27  C   UNL     1     155.517 161.609 164.734  1.00  0.00     0.004 A 
ATOM     28  C   UNL     1     153.417 160.630 164.325  1.00  0.00     0.004 A 
ATOM     29  C   UNL     1     154.704 160.497 164.786  1.00  0.00     0.000 A 
ENDBRANCH  19  24
ENDBRANCH   4  14
TORSDOF 4
ENDMDL
MODEL 8
REMARK VINA RESULT:      -7.7      3.310      8.271
REMARK SMILES Nc1nc(N)c(C(=O)NC(=[NH2+])Nc2ccccc2)nc1Cl
REMARK SMILES IDX 2 1 3 2 4 3 6 4 19 5 20 6 21 7 1 8 5 11 7 14 8 15 9 16 10 17
REMARK SMILES IDX 11 18 12 19 13 24 14 25 18 26 15 27 17 28 16 29
REMARK H PARENT 1 9 1 10 5 12 5 13 9 20 11 21 11 22 12 23
ROOT
ATOM      1  C   UNL     1     154.927 161.578 164.685  1.00  0.00     0.163 A 
ATOM      2  N   UNL     1     154.923 162.796 164.119  1.00  0.00    -0.209 NA
ATOM      3  C   UNL     1     153.760 163.296 163.609  1.00  0.00     0.159 A 
ATOM      4  C   UNL     1     152.595 162.572 163.666  1.00  0.00     0.188 A 
ATOM      5  N   UNL     1     152.600 161.346 164.236  1.00  0.00    -0.222 NA
ATOM      6  C   UNL     1     153.755 160.855 164.741  1.00  0.00     0.172 A 
ATOM      7  Cl  UNL     1     153.735 159.254 165.479  1.00  0.00    -0.058 Cl
ENDROOT
BRANCH   1   8
ATOM      8  N   UNL     1     156.105 160.995 165.236  1.00  0.00    -0.381 N 
ATOM      9  H   UNL     1     156.098 160.153 165.854  1.00  0.00     0.158 HD
ATOM     10  H   UNL     1     157.057 161.399 165.037  1.00  0.00     0.158 HD
ENDBRANCH   1   8
BRANCH   3  11
ATOM     11  N   UNL     1     153.699 164.569 163.004  1.00  0.00    -0.382 N 
ATOM     12  H   UNL     1     153.602 165.408 163.593  1.00  0.00     0.158 HD
ATOM     13  H   UNL     1     153.752 164.649 161.979  1.00  0.00     0.158 HD
ENDBRANCH   3  11
BRANCH   4  14
ATOM     14  C   UNL     1     151.343 163.111 163.116  1.00  0.00     0.336 C 
ATOM     15  O   UNL     1     150.278 162.590 163.489  1.00  0.00    -0.248 OA
ATOM     16  N   UNL     1     151.327 164.175 162.199  1.00  0.00    -0.209 N 
ATOM     17  C   UNL     1     150.163 164.741 161.630  1.00  0.00     0.353 C 
ATOM     18  N   UNL     1     149.001 164.308 161.921  1.00  0.00    -0.290 N 
ATOM     19  N   UNL     1     150.241 165.835 160.704  1.00  0.00    -0.245 N 
ATOM     20  H   UNL     1     152.266 164.558 161.928  1.00  0.00     0.270 HD
ATOM     21  H   UNL     1     148.751 163.544 162.561  1.00  0.00     0.256 HD
ATOM     22  H   UNL     1     148.130 164.744 161.468  1.00  0.00     0.256 HD
ATOM     23  H   UNL     1     151.025 165.768 159.994  1.00  0.00     0.267 HD
BRANCH  19  24
ATOM     24  C   UNL     1     149.372 166.949 160.720  1.00  0.00     0.099 A 
ATOM     25  C   UNL     1     148.992 167.669 161.797  1.00  0.00     0.043 A 
ATOM     26  C   UNL     1     148.833 167.338 159.487  1.00  0.00     0.043 A 
ATOM     27  C   UNL     1     148.104 168.745 161.667  1.00  0.00     0.004 A 
ATOM     28  C   UNL     1     147.964 168.389 159.344  1.00  0.00     0.004 A 
ATOM     29  C   UNL     1     147.582 169.116 160.446  1.00  0.00     0.000 A 
ENDBRANCH  19  24
ENDBRANCH   4  14
TORSDOF 4
ENDMDL
MODEL 9
REMARK VINA RESULT:      -7.7      3.328      8.211
REMARK SMILES Nc1nc(N)c(C(=O)NC(=[NH2+])Nc2ccccc2)nc1Cl
REMARK SMILES IDX 2 1 3 2 4 3 6 4 19 5 20 6 21 7 1 8 5 11 7 14 8 15 9 16 10 17
REMARK SMILES IDX 11 18 12 19 13 24 14 25 18 26 15 27 17 28 16 29
REMARK H PARENT 1 9 1 10 5 12 5 13 9 20 11 21 11 22 12 23
ROOT
ATOM      1  C   UNL     1     154.929 161.536 164.765  1.00  0.00     0.163 A 
ATOM      2  N   UNL     1     154.931 162.761 164.215  1.00  0.00    -0.209 NA
ATOM      3  C   UNL     1     153.779 163.258 163.677  1.00  0.00     0.159 A 
ATOM      4  C   UNL     1     152.619 162.524 163.690  1.00  0.00     0.188 A 
ATOM      5  N   UNL     1     152.618 161.291 164.245  1.00  0.00    -0.222 NA
ATOM      6  C   UNL     1     153.761 160.803 164.777  1.00  0.00     0.172 A 
ATOM      7  Cl  UNL     1     153.733 159.193 165.494  1.00  0.00    -0.058 Cl
ENDROOT
BRANCH   1   8
ATOM      8  N   UNL     1     156.094 160.956 165.344  1.00  0.00    -0.381 N 
ATOM      9  H   UNL     1     156.678 160.232 164.868  1.00  0.00     0.158 HD
ATOM     10  H   UNL     1     156.427 161.242 166.301  1.00  0.00     0.158 HD
ENDBRANCH   1   8
BRANCH   3  11
ATOM     11  N   UNL     1     153.725 164.538 163.086  1.00  0.00    -0.382 N 
ATOM     12  H   UNL     1     153.399 164.636 162.114  1.00  0.00     0.158 HD
ATOM     13  H   UNL     1     154.010 165.363 163.632  1.00  0.00     0.158 HD
ENDBRANCH   3  11
BRANCH   4  14
ATOM     14  C   UNL     1     151.380 163.060 163.110  1.00  0.00     0.336 C 
ATOM     15  O   UNL     1     150.305 162.550 163.474  1.00  0.00    -0.248 OA
ATOM     16  N   UNL     1     151.384 164.108 162.175  1.00  0.00    -0.209 N 
ATOM     17  C   UNL     1     150.233 164.670 161.577  1.00  0.00     0.353 C 
ATOM     18  N   UNL     1     149.064 164.248 161.855  1.00  0.00    -0.290 N 
ATOM     19  N   UNL     1     150.332 165.747 160.634  1.00  0.00    -0.245 N 
ATOM     20  H   UNL     1     152.329 164.482 161.913  1.00  0.00     0.270 HD
ATOM     21  H   UNL     1     148.800 163.495 162.504  1.00  0.00     0.256 HD
ATOM     22  H   UNL     1     148.203 164.679 161.380  1.00  0.00     0.256 HD
ATOM     23  H   UNL     1     151.127 165.664 159.939  1.00  0.00     0.267 HD
BRANCH  19  24
ATOM     24  C   UNL     1     149.468 166.866 160.617  1.00  0.00     0.099 A 
ATOM     25  C   UNL     1     148.958 167.483 159.529  1.00  0.00     0.043 A 
ATOM     26  C   UNL     1     149.117 167.402 161.862  1.00  0.00     0.043 A 
ATOM     27  C   UNL     1     148.122 168.600 159.661  1.00  0.00     0.004 A 
ATOM     28  C   UNL     1     148.299 168.494 162.006  1.00  0.00     0.004 A 
ATOM     29  C   UNL     1     147.785 169.117 160.894  1.00  0.00     0.000 A 
ENDBRANCH  19  24
ENDBRANCH   4  14
TORSDOF 4
ENDMDL
