MODEL 1
REMARK VINA RESULT:      -6.6      0.000      0.000
REMARK SMILES COc1ccc(-c2cc(=O)c3c(O)c(OC)c(O)cc3o2)cc1
REMARK SMILES IDX 7 1 8 2 9 3 10 4 11 5 12 6 14 7 17 8 19 9 20 10 21 11 6 12
REMARK SMILES IDX 3 13 4 14 23 15 5 16 22 17 2 18 1 19 13 20 18 22 15 24 16 25
REMARK H PARENT 13 21 18 23
ROOT
ATOM      1  C   UNL     1       4.475  22.903  26.054  1.00  0.00     0.138 A 
ATOM      2  C   UNL     1       5.376  22.863  25.012  1.00  0.00     0.100 A 
ATOM      3  C   UNL     1       5.787  21.621  24.516  1.00  0.00     0.197 A 
ATOM      4  O   UNL     1       6.612  21.540  23.563  1.00  0.00    -0.289 OA
ATOM      5  C   UNL     1       5.295  20.454  25.064  1.00  0.00     0.111 A 
ATOM      6  C   UNL     1       5.675  19.203  24.602  1.00  0.00     0.176 A 
ATOM      7  C   UNL     1       5.184  18.034  25.149  1.00  0.00     0.203 A 
ATOM      8  C   UNL     1       4.286  18.159  26.188  1.00  0.00     0.165 A 
ATOM      9  C   UNL     1       3.901  19.398  26.654  1.00  0.00     0.098 A 
ATOM     10  C   UNL     1       4.398  20.581  26.102  1.00  0.00     0.146 A 
ATOM     11  O   UNL     1       4.051  21.751  26.523  1.00  0.00    -0.456 OA
ENDROOT
BRANCH   1  12
ATOM     12  C   UNL     1       3.995  24.169  26.631  1.00  0.00     0.018 A 
ATOM     13  C   UNL     1       2.996  26.531  27.804  1.00  0.00     0.118 A 
ATOM     14  C   UNL     1       3.998  26.566  26.862  1.00  0.00     0.047 A 
ATOM     15  C   UNL     1       2.493  25.300  28.159  1.00  0.00     0.047 A 
ATOM     16  C   UNL     1       4.496  25.395  26.277  1.00  0.00     0.016 A 
ATOM     17  C   UNL     1       2.995  24.135  27.572  1.00  0.00     0.016 A 
BRANCH  13  18
ATOM     18  O   UNL     1       2.509  27.715  28.380  1.00  0.00    -0.497 OA
ATOM     19  C   UNL     1       3.256  28.440  29.319  1.00  0.00     0.278 C 
ENDBRANCH  13  18
ENDBRANCH   1  12
BRANCH   6  20
ATOM     20  O   UNL     1       6.575  19.108  23.561  1.00  0.00    -0.504 OA
ATOM     21  H   UNL     1       6.326  19.152  22.584  1.00  0.00     0.293 HD
ENDBRANCH   6  20
BRANCH   8  22
ATOM     22  O   UNL     1       3.794  16.974  26.735  1.00  0.00    -0.504 OA
ATOM     23  H   UNL     1       4.343  16.392  27.364  1.00  0.00     0.293 HD
ENDBRANCH   8  22
BRANCH   7  24
ATOM     24  O   UNL     1       5.589  16.798  24.659  1.00  0.00    -0.490 OA
ATOM     25  C   UNL     1       6.684  16.140  25.277  1.00  0.00     0.278 C 
ENDBRANCH   7  24
TORSDOF 5
ENDMDL
MODEL 2
REMARK VINA RESULT:      -6.4      1.670      7.918
REMARK SMILES COc1ccc(-c2cc(=O)c3c(O)c(OC)c(O)cc3o2)cc1
REMARK SMILES IDX 7 1 8 2 9 3 10 4 11 5 12 6 14 7 17 8 19 9 20 10 21 11 6 12
REMARK SMILES IDX 3 13 4 14 23 15 5 16 22 17 2 18 1 19 13 20 18 22 15 24 16 25
REMARK H PARENT 13 21 18 23
ROOT
ATOM      1  C   UNL     1       4.996  22.908  26.157  1.00  0.00     0.138 A 
ATOM      2  C   UNL     1       5.126  24.017  25.348  1.00  0.00     0.100 A 
ATOM      3  C   UNL     1       4.818  25.278  25.871  1.00  0.00     0.197 A 
ATOM      4  O   UNL     1       4.922  26.318  25.164  1.00  0.00    -0.289 OA
ATOM      5  C   UNL     1       4.392  25.407  27.177  1.00  0.00     0.111 A 
ATOM      6  C   UNL     1       4.078  26.637  27.734  1.00  0.00     0.176 A 
ATOM      7  C   UNL     1       3.652  26.769  29.040  1.00  0.00     0.203 A 
ATOM      8  C   UNL     1       3.549  25.612  29.783  1.00  0.00     0.165 A 
ATOM      9  C   UNL     1       3.859  24.384  29.240  1.00  0.00     0.098 A 
ATOM     10  C   UNL     1       4.290  24.250  27.918  1.00  0.00     0.146 A 
ATOM     11  O   UNL     1       4.586  23.110  27.389  1.00  0.00    -0.456 OA
ENDROOT
BRANCH   1  12
ATOM     12  C   UNL     1       5.300  21.548  25.682  1.00  0.00     0.018 A 
ATOM     13  C   UNL     1       5.924  18.992  24.667  1.00  0.00     0.118 A 
ATOM     14  C   UNL     1       5.375  19.153  25.919  1.00  0.00     0.047 A 
ATOM     15  C   UNL     1       6.160  20.124  23.920  1.00  0.00     0.047 A 
ATOM     16  C   UNL     1       5.064  20.421  26.425  1.00  0.00     0.016 A 
ATOM     17  C   UNL     1       5.847  21.386  24.433  1.00  0.00     0.016 A 
BRANCH  13  18
ATOM     18  O   UNL     1       6.230  17.713  24.175  1.00  0.00    -0.497 OA
ATOM     19  C   UNL     1       6.499  16.637  25.033  1.00  0.00     0.278 C 
ENDBRANCH  13  18
ENDBRANCH   1  12
BRANCH   6  20
ATOM     20  O   UNL     1       4.190  27.779  26.966  1.00  0.00    -0.504 OA
ATOM     21  H   UNL     1       4.489  27.792  26.002  1.00  0.00     0.293 HD
ENDBRANCH   6  20
BRANCH   8  22
ATOM     22  O   UNL     1       3.118  25.752  31.103  1.00  0.00    -0.504 OA
ATOM     23  H   UNL     1       2.148  25.615  31.379  1.00  0.00     0.293 HD
ENDBRANCH   8  22
BRANCH   7  24
ATOM     24  O   UNL     1       3.346  28.020  29.563  1.00  0.00    -0.490 OA
ATOM     25  C   UNL     1       4.381  28.785  30.162  1.00  0.00     0.278 C 
ENDBRANCH   7  24
TORSDOF 5
ENDMDL
MODEL 3
REMARK VINA RESULT:      -6.3      2.914      5.664
REMARK SMILES COc1ccc(-c2cc(=O)c3c(O)c(OC)c(O)cc3o2)cc1
REMARK SMILES IDX 7 1 8 2 9 3 10 4 11 5 12 6 14 7 17 8 19 9 20 10 21 11 6 12
REMARK SMILES IDX 3 13 4 14 23 15 5 16 22 17 2 18 1 19 13 20 18 22 15 24 16 25
REMARK H PARENT 13 21 18 23
ROOT
ATOM      1  C   UNL     1       4.101  26.864  28.635  1.00  0.00     0.138 A 
ATOM      2  C   UNL     1       3.879  25.624  29.195  1.00  0.00     0.100 A 
ATOM      3  C   UNL     1       3.899  24.494  28.370  1.00  0.00     0.197 A 
ATOM      4  O   UNL     1       3.700  23.340  28.843  1.00  0.00    -0.289 OA
ATOM      5  C   UNL     1       4.138  24.621  27.018  1.00  0.00     0.111 A 
ATOM      6  C   UNL     1       4.166  23.527  26.166  1.00  0.00     0.176 A 
ATOM      7  C   UNL     1       4.405  23.652  24.812  1.00  0.00     0.203 A 
ATOM      8  C   UNL     1       4.618  24.926  24.330  1.00  0.00     0.165 A 
ATOM      9  C   UNL     1       4.592  26.020  25.168  1.00  0.00     0.098 A 
ATOM     10  C   UNL     1       4.350  25.895  26.538  1.00  0.00     0.146 A 
ATOM     11  O   UNL     1       4.321  26.906  27.340  1.00  0.00    -0.456 OA
ENDROOT
BRANCH   1  12
ATOM     12  C   UNL     1       4.096  28.100  29.435  1.00  0.00     0.018 A 
ATOM     13  C   UNL     1       4.194  30.433  31.017  1.00  0.00     0.118 A 
ATOM     14  C   UNL     1       3.157  30.202  30.142  1.00  0.00     0.047 A 
ATOM     15  C   UNL     1       5.189  29.484  31.097  1.00  0.00     0.047 A 
ATOM     16  C   UNL     1       3.106  29.044  29.356  1.00  0.00     0.016 A 
ATOM     17  C   UNL     1       5.130  28.332  30.308  1.00  0.00     0.016 A 
BRANCH  13  18
ATOM     18  O   UNL     1       4.229  31.598  31.798  1.00  0.00    -0.497 OA
ATOM     19  C   UNL     1       4.464  32.859  31.232  1.00  0.00     0.278 C 
ENDBRANCH  13  18
ENDBRANCH   1  12
BRANCH   6  20
ATOM     20  O   UNL     1       3.950  22.263  26.676  1.00  0.00    -0.504 OA
ATOM     21  H   UNL     1       4.502  21.451  26.443  1.00  0.00     0.293 HD
ENDBRANCH   6  20
BRANCH   8  22
ATOM     22  O   UNL     1       4.858  25.046  22.961  1.00  0.00    -0.504 OA
ATOM     23  H   UNL     1       5.458  25.771  22.571  1.00  0.00     0.293 HD
ENDBRANCH   8  22
BRANCH   7  24
ATOM     24  O   UNL     1       4.426  22.532  23.990  1.00  0.00    -0.490 OA
ATOM     25  C   UNL     1       5.521  21.633  24.083  1.00  0.00     0.278 C 
ENDBRANCH   7  24
TORSDOF 5
ENDMDL
MODEL 4
REMARK VINA RESULT:      -6.2      1.770      7.740
REMARK SMILES COc1ccc(-c2cc(=O)c3c(O)c(OC)c(O)cc3o2)cc1
REMARK SMILES IDX 7 1 8 2 9 3 10 4 11 5 12 6 14 7 17 8 19 9 20 10 21 11 6 12
REMARK SMILES IDX 3 13 4 14 23 15 5 16 22 17 2 18 1 19 13 20 18 22 15 24 16 25
REMARK H PARENT 13 21 18 23
ROOT
ATOM      1  C   UNL     1       4.489  22.044  25.488  1.00  0.00     0.138 A 
ATOM      2  C   UNL     1       4.936  23.039  24.645  1.00  0.00     0.100 A 
ATOM      3  C   UNL     1       4.931  24.364  25.095  1.00  0.00     0.197 A 
ATOM      4  O   UNL     1       5.331  25.305  24.354  1.00  0.00    -0.289 OA
ATOM      5  C   UNL     1       4.487  24.668  26.366  1.00  0.00     0.111 A 
ATOM      6  C   UNL     1       4.467  25.966  26.851  1.00  0.00     0.176 A 
ATOM      7  C   UNL     1       4.023  26.272  28.122  1.00  0.00     0.203 A 
ATOM      8  C   UNL     1       3.594  25.221  28.904  1.00  0.00     0.165 A 
ATOM      9  C   UNL     1       3.610  23.926  28.431  1.00  0.00     0.098 A 
ATOM     10  C   UNL     1       4.059  23.616  27.145  1.00  0.00     0.146 A 
ATOM     11  O   UNL     1       4.082  22.411  26.683  1.00  0.00    -0.456 OA
ENDROOT
BRANCH   1  12
ATOM     12  C   UNL     1       4.463  20.628  25.089  1.00  0.00     0.018 A 
ATOM     13  C   UNL     1       4.533  17.909  24.343  1.00  0.00     0.118 A 
ATOM     14  C   UNL     1       3.355  18.620  24.352  1.00  0.00     0.047 A 
ATOM     15  C   UNL     1       5.684  18.570  24.711  1.00  0.00     0.047 A 
ATOM     16  C   UNL     1       3.318  19.971  24.722  1.00  0.00     0.016 A 
ATOM     17  C   UNL     1       5.638  19.917  25.079  1.00  0.00     0.016 A 
BRANCH  13  18
ATOM     18  O   UNL     1       4.553  16.556  23.969  1.00  0.00    -0.497 OA
ATOM     19  C   UNL     1       3.372  15.835  23.744  1.00  0.00     0.278 C 
ENDBRANCH  13  18
ENDBRANCH   1  12
BRANCH   6  20
ATOM     20  O   UNL     1       4.902  26.999  26.046  1.00  0.00    -0.504 OA
ATOM     21  H   UNL     1       4.601  27.148  25.095  1.00  0.00     0.293 HD
ENDBRANCH   6  20
BRANCH   8  22
ATOM     22  O   UNL     1       3.146  25.537  30.187  1.00  0.00    -0.504 OA
ATOM     23  H   UNL     1       3.312  26.445  30.617  1.00  0.00     0.293 HD
ENDBRANCH   8  22
BRANCH   7  24
ATOM     24  O   UNL     1       4.018  27.587  28.573  1.00  0.00    -0.490 OA
ATOM     25  C   UNL     1       2.817  28.338  28.482  1.00  0.00     0.278 C 
ENDBRANCH   7  24
TORSDOF 5
ENDMDL
MODEL 5
REMARK VINA RESULT:      -6.2      1.612      7.834
REMARK SMILES COc1ccc(-c2cc(=O)c3c(O)c(OC)c(O)cc3o2)cc1
REMARK SMILES IDX 7 1 8 2 9 3 10 4 11 5 12 6 14 7 17 8 19 9 20 10 21 11 6 12
REMARK SMILES IDX 3 13 4 14 23 15 5 16 22 17 2 18 1 19 13 20 18 22 15 24 16 25
REMARK H PARENT 13 21 18 23
ROOT
ATOM      1  C   UNL     1       4.999  22.943  26.121  1.00  0.00     0.138 A 
ATOM      2  C   UNL     1       5.266  24.088  25.400  1.00  0.00     0.100 A 
ATOM      3  C   UNL     1       4.922  25.329  25.946  1.00  0.00     0.197 A 
ATOM      4  O   UNL     1       5.148  26.401  25.318  1.00  0.00    -0.289 OA
ATOM      5  C   UNL     1       4.326  25.405  27.188  1.00  0.00     0.111 A 
ATOM      6  C   UNL     1       3.970  26.614  27.765  1.00  0.00     0.176 A 
ATOM      7  C   UNL     1       3.374  26.692  29.007  1.00  0.00     0.203 A 
ATOM      8  C   UNL     1       3.141  25.503  29.665  1.00  0.00     0.165 A 
ATOM      9  C   UNL     1       3.491  24.295  29.100  1.00  0.00     0.098 A 
ATOM     10  C   UNL     1       4.095  24.215  27.843  1.00  0.00     0.146 A 
ATOM     11  O   UNL     1       4.430  23.095  27.296  1.00  0.00    -0.456 OA
ENDROOT
BRANCH   1  12
ATOM     12  C   UNL     1       5.330  21.601  25.617  1.00  0.00     0.018 A 
ATOM     13  C   UNL     1       5.923  18.982  24.755  1.00  0.00     0.118 A 
ATOM     14  C   UNL     1       6.166  20.073  23.953  1.00  0.00     0.047 A 
ATOM     15  C   UNL     1       5.378  19.209  25.999  1.00  0.00     0.047 A 
ATOM     16  C   UNL     1       5.873  21.375  24.379  1.00  0.00     0.016 A 
ATOM     17  C   UNL     1       5.088  20.511  26.416  1.00  0.00     0.016 A 
BRANCH  13  18
ATOM     18  O   UNL     1       6.223  17.684  24.313  1.00  0.00    -0.497 OA
ATOM     19  C   UNL     1       5.728  16.548  24.969  1.00  0.00     0.278 C 
ENDBRANCH  13  18
ENDBRANCH   1  12
BRANCH   6  20
ATOM     20  O   UNL     1       4.214  27.789  27.084  1.00  0.00    -0.504 OA
ATOM     21  H   UNL     1       3.627  28.157  26.350  1.00  0.00     0.293 HD
ENDBRANCH   6  20
BRANCH   8  22
ATOM     22  O   UNL     1       2.538  25.588  30.920  1.00  0.00    -0.504 OA
ATOM     23  H   UNL     1       1.709  26.154  31.092  1.00  0.00     0.293 HD
ENDBRANCH   8  22
BRANCH   7  24
ATOM     24  O   UNL     1       3.031  27.924  29.553  1.00  0.00    -0.490 OA
ATOM     25  C   UNL     1       3.992  28.620  30.332  1.00  0.00     0.278 C 
ENDBRANCH   7  24
TORSDOF 5
ENDMDL
MODEL 6
REMARK VINA RESULT:      -6.2      2.514      4.701
REMARK SMILES COc1ccc(-c2cc(=O)c3c(O)c(OC)c(O)cc3o2)cc1
REMARK SMILES IDX 7 1 8 2 9 3 10 4 11 5 12 6 14 7 17 8 19 9 20 10 21 11 6 12
REMARK SMILES IDX 3 13 4 14 23 15 5 16 22 17 2 18 1 19 13 20 18 22 15 24 16 25
REMARK H PARENT 13 21 18 23
ROOT
ATOM      1  C   UNL     1       4.217  26.674  28.090  1.00  0.00     0.138 A 
ATOM      2  C   UNL     1       3.827  26.972  26.802  1.00  0.00     0.100 A 
ATOM      3  C   UNL     1       3.911  25.980  25.819  1.00  0.00     0.197 A 
ATOM      4  O   UNL     1       3.564  26.212  24.628  1.00  0.00    -0.289 OA
ATOM      5  C   UNL     1       4.377  24.721  26.137  1.00  0.00     0.111 A 
ATOM      6  C   UNL     1       4.476  23.709  25.195  1.00  0.00     0.176 A 
ATOM      7  C   UNL     1       4.943  22.449  25.511  1.00  0.00     0.203 A 
ATOM      8  C   UNL     1       5.313  22.230  26.821  1.00  0.00     0.165 A 
ATOM      9  C   UNL     1       5.218  23.229  27.766  1.00  0.00     0.098 A 
ATOM     10  C   UNL     1       4.747  24.505  27.447  1.00  0.00     0.146 A 
ATOM     11  O   UNL     1       4.650  25.454  28.316  1.00  0.00    -0.456 OA
ENDROOT
BRANCH   1  12
ATOM     12  C   UNL     1       4.159  27.663  29.179  1.00  0.00     0.018 A 
ATOM     13  C   UNL     1       4.136  29.495  31.322  1.00  0.00     0.118 A 
ATOM     14  C   UNL     1       3.298  29.645  30.241  1.00  0.00     0.047 A 
ATOM     15  C   UNL     1       4.991  28.416  31.326  1.00  0.00     0.047 A 
ATOM     16  C   UNL     1       3.307  28.736  29.175  1.00  0.00     0.016 A 
ATOM     17  C   UNL     1       4.995  27.514  30.258  1.00  0.00     0.016 A 
BRANCH  13  18
ATOM     18  O   UNL     1       4.113  30.415  32.382  1.00  0.00    -0.497 OA
ATOM     19  C   UNL     1       4.523  31.745  32.213  1.00  0.00     0.278 C 
ENDBRANCH  13  18
ENDBRANCH   1  12
BRANCH   6  20
ATOM     20  O   UNL     1       4.098  23.956  23.891  1.00  0.00    -0.504 OA
ATOM     21  H   UNL     1       3.884  23.241  23.213  1.00  0.00     0.293 HD
ENDBRANCH   6  20
BRANCH   8  22
ATOM     22  O   UNL     1       5.783  20.954  27.134  1.00  0.00    -0.504 OA
ATOM     23  H   UNL     1       6.345  20.766  27.962  1.00  0.00     0.293 HD
ENDBRANCH   8  22
BRANCH   7  24
ATOM     24  O   UNL     1       5.027  21.460  24.538  1.00  0.00    -0.490 OA
ATOM     25  C   UNL     1       3.942  20.558  24.380  1.00  0.00     0.278 C 
ENDBRANCH   7  24
TORSDOF 5
ENDMDL
MODEL 7
REMARK VINA RESULT:      -6.1      2.504      4.596
REMARK SMILES COc1ccc(-c2cc(=O)c3c(O)c(OC)c(O)cc3o2)cc1
REMARK SMILES IDX 7 1 8 2 9 3 10 4 11 5 12 6 14 7 17 8 19 9 20 10 21 11 6 12
REMARK SMILES IDX 3 13 4 14 23 15 5 16 22 17 2 18 1 19 13 20 18 22 15 24 16 25
REMARK H PARENT 13 21 18 23
ROOT
ATOM      1  C   UNL     1       4.233  26.566  28.126  1.00  0.00     0.138 A 
ATOM      2  C   UNL     1       3.889  26.876  26.828  1.00  0.00     0.100 A 
ATOM      3  C   UNL     1       3.921  25.868  25.857  1.00  0.00     0.197 A 
ATOM      4  O   UNL     1       3.615  26.111  24.657  1.00  0.00    -0.289 OA
ATOM      5  C   UNL     1       4.291  24.583  26.198  1.00  0.00     0.111 A 
ATOM      6  C   UNL     1       4.336  23.556  25.268  1.00  0.00     0.176 A 
ATOM      7  C   UNL     1       4.705  22.270  25.607  1.00  0.00     0.203 A 
ATOM      8  C   UNL     1       5.034  22.041  26.926  1.00  0.00     0.165 A 
ATOM      9  C   UNL     1       4.993  23.055  27.859  1.00  0.00     0.098 A 
ATOM     10  C   UNL     1       4.619  24.357  27.517  1.00  0.00     0.146 A 
ATOM     11  O   UNL     1       4.574  25.321  28.374  1.00  0.00    -0.456 OA
ENDROOT
BRANCH   1  12
ATOM     12  C   UNL     1       4.224  27.569  29.203  1.00  0.00     0.018 A 
ATOM     13  C   UNL     1       4.111  29.544  31.213  1.00  0.00     0.118 A 
ATOM     14  C   UNL     1       5.059  28.548  31.239  1.00  0.00     0.047 A 
ATOM     15  C   UNL     1       3.213  29.548  30.168  1.00  0.00     0.047 A 
ATOM     16  C   UNL     1       5.117  27.566  30.242  1.00  0.00     0.016 A 
ATOM     17  C   UNL     1       3.278  28.564  29.178  1.00  0.00     0.016 A 
BRANCH  13  18
ATOM     18  O   UNL     1       4.066  30.521  32.220  1.00  0.00    -0.497 OA
ATOM     19  C   UNL     1       3.957  30.179  33.575  1.00  0.00     0.278 C 
ENDBRANCH  13  18
ENDBRANCH   1  12
BRANCH   6  20
ATOM     20  O   UNL     1       4.002  23.814  23.955  1.00  0.00    -0.504 OA
ATOM     21  H   UNL     1       4.515  24.434  23.346  1.00  0.00     0.293 HD
ENDBRANCH   6  20
BRANCH   8  22
ATOM     22  O   UNL     1       5.407  20.739  27.262  1.00  0.00    -0.504 OA
ATOM     23  H   UNL     1       5.121  19.929  26.715  1.00  0.00     0.293 HD
ENDBRANCH   8  22
BRANCH   7  24
ATOM     24  O   UNL     1       4.738  21.266  24.647  1.00  0.00    -0.490 OA
ATOM     25  C   UNL     1       5.984  20.912  24.066  1.00  0.00     0.278 C 
ENDBRANCH   7  24
TORSDOF 5
ENDMDL
MODEL 8
REMARK VINA RESULT:      -5.9      1.135      1.350
REMARK SMILES COc1ccc(-c2cc(=O)c3c(O)c(OC)c(O)cc3o2)cc1
REMARK SMILES IDX 7 1 8 2 9 3 10 4 11 5 12 6 14 7 17 8 19 9 20 10 21 11 6 12
REMARK SMILES IDX 3 13 4 14 23 15 5 16 22 17 2 18 1 19 13 20 18 22 15 24 16 25
REMARK H PARENT 13 21 18 23
ROOT
ATOM      1  C   UNL     1       4.735  22.451  26.887  1.00  0.00     0.138 A 
ATOM      2  C   UNL     1       5.356  22.576  25.663  1.00  0.00     0.100 A 
ATOM      3  C   UNL     1       5.722  21.419  24.966  1.00  0.00     0.197 A 
ATOM      4  O   UNL     1       6.294  21.490  23.842  1.00  0.00    -0.289 OA
ATOM      5  C   UNL     1       5.465  20.173  25.498  1.00  0.00     0.111 A 
ATOM      6  C   UNL     1       5.810  19.002  24.841  1.00  0.00     0.176 A 
ATOM      7  C   UNL     1       5.553  17.754  25.372  1.00  0.00     0.203 A 
ATOM      8  C   UNL     1       4.929  17.714  26.600  1.00  0.00     0.165 A 
ATOM      9  C   UNL     1       4.581  18.872  27.262  1.00  0.00     0.098 A 
ATOM     10  C   UNL     1       4.841  20.135  26.726  1.00  0.00     0.146 A 
ATOM     11  O   UNL     1       4.523  21.232  27.329  1.00  0.00    -0.456 OA
ENDROOT
BRANCH   1  12
ATOM     12  C   UNL     1       4.319  23.619  27.681  1.00  0.00     0.018 A 
ATOM     13  C   UNL     1       3.475  25.905  29.100  1.00  0.00     0.118 A 
ATOM     14  C   UNL     1       4.128  24.870  29.730  1.00  0.00     0.047 A 
ATOM     15  C   UNL     1       3.245  25.789  27.747  1.00  0.00     0.047 A 
ATOM     16  C   UNL     1       4.549  23.734  29.027  1.00  0.00     0.016 A 
ATOM     17  C   UNL     1       3.667  24.652  27.054  1.00  0.00     0.016 A 
BRANCH  13  18
ATOM     18  O   UNL     1       3.060  27.037  29.819  1.00  0.00    -0.497 OA
ATOM     19  C   UNL     1       3.735  27.469  30.970  1.00  0.00     0.278 C 
ENDBRANCH  13  18
ENDBRANCH   1  12
BRANCH   6  20
ATOM     20  O   UNL     1       6.435  19.072  23.612  1.00  0.00    -0.504 OA
ATOM     21  H   UNL     1       5.988  18.864  22.732  1.00  0.00     0.293 HD
ENDBRANCH   6  20
BRANCH   8  22
ATOM     22  O   UNL     1       4.672  16.450  27.131  1.00  0.00    -0.504 OA
ATOM     23  H   UNL     1       3.950  16.285  27.830  1.00  0.00     0.293 HD
ENDBRANCH   8  22
BRANCH   7  24
ATOM     24  O   UNL     1       5.915  16.603  24.682  1.00  0.00    -0.490 OA
ATOM     25  C   UNL     1       7.043  15.863  25.127  1.00  0.00     0.278 C 
ENDBRANCH   7  24
TORSDOF 5
ENDMDL
MODEL 9
REMARK VINA RESULT:      -5.9      1.936      8.080
REMARK SMILES COc1ccc(-c2cc(=O)c3c(O)c(OC)c(O)cc3o2)cc1
REMARK SMILES IDX 7 1 8 2 9 3 10 4 11 5 12 6 14 7 17 8 19 9 20 10 21 11 6 12
REMARK SMILES IDX 3 13 4 14 23 15 5 16 22 17 2 18 1 19 13 20 18 22 15 24 16 25
REMARK H PARENT 13 21 18 23
ROOT
ATOM      1  C   UNL     1       4.630  23.705  26.885  1.00  0.00     0.138 A 
ATOM      2  C   UNL     1       4.498  24.925  26.256  1.00  0.00     0.100 A 
ATOM      3  C   UNL     1       4.144  26.045  27.016  1.00  0.00     0.197 A 
ATOM      4  O   UNL     1       4.012  27.180  26.479  1.00  0.00    -0.289 OA
ATOM      5  C   UNL     1       3.930  25.929  28.374  1.00  0.00     0.111 A 
ATOM      6  C   UNL     1       3.578  27.013  29.163  1.00  0.00     0.176 A 
ATOM      7  C   UNL     1       3.364  26.899  30.521  1.00  0.00     0.203 A 
ATOM      8  C   UNL     1       3.516  25.645  31.075  1.00  0.00     0.165 A 
ATOM      9  C   UNL     1       3.866  24.560  30.300  1.00  0.00     0.098 A 
ATOM     10  C   UNL     1       4.083  24.675  28.924  1.00  0.00     0.146 A 
ATOM     11  O   UNL     1       4.411  23.672  28.180  1.00  0.00    -0.456 OA
ENDROOT
BRANCH   1  12
ATOM     12  C   UNL     1       5.000  22.480  26.157  1.00  0.00     0.018 A 
ATOM     13  C   UNL     1       5.686  20.070  24.863  1.00  0.00     0.118 A 
ATOM     14  C   UNL     1       5.727  21.276  24.202  1.00  0.00     0.047 A 
ATOM     15  C   UNL     1       5.298  20.076  26.184  1.00  0.00     0.047 A 
ATOM     16  C   UNL     1       5.387  22.475  24.842  1.00  0.00     0.016 A 
ATOM     17  C   UNL     1       4.959  21.276  26.816  1.00  0.00     0.016 A 
BRANCH  13  18
ATOM     18  O   UNL     1       6.031  18.878  24.206  1.00  0.00    -0.497 OA
ATOM     19  C   UNL     1       6.247  17.684  24.909  1.00  0.00     0.278 C 
ENDBRANCH  13  18
ENDBRANCH   1  12
BRANCH   6  20
ATOM     20  O   UNL     1       3.433  28.256  28.582  1.00  0.00    -0.504 OA
ATOM     21  H   UNL     1       3.874  28.540  27.720  1.00  0.00     0.293 HD
ENDBRANCH   6  20
BRANCH   8  22
ATOM     22  O   UNL     1       3.299  25.536  32.448  1.00  0.00    -0.504 OA
ATOM     23  H   UNL     1       2.377  25.360  32.845  1.00  0.00     0.293 HD
ENDBRANCH   8  22
BRANCH   7  24
ATOM     24  O   UNL     1       3.012  28.009  31.279  1.00  0.00    -0.490 OA
ATOM     25  C   UNL     1       4.040  28.791  31.868  1.00  0.00     0.278 C 
ENDBRANCH   7  24
TORSDOF 5
ENDMDL
