MODEL 1
REMARK VINA RESULT:      -9.8      0.000      0.000
REMARK SMILES O=C(CCC[NH+]1CCC(O)(c2ccc(Cl)cc2)CC1)c1ccc(F)cc1
REMARK SMILES IDX 4 1 3 2 2 3 1 4 20 5 21 6 26 7 22 8 25 9 23 10 24 11 5 12
REMARK SMILES IDX 6 13 7 14 19 15 8 16 18 17 9 18 10 20 11 22 12 23 17 24
REMARK SMILES IDX 13 25 16 26 14 27 15 28
REMARK H PARENT 6 19 10 21
ROOT
ATOM      1  C   UNL     1      -9.429   3.871  55.386  1.00  0.00     0.070 C 
ENDROOT
BRANCH   1   2
ATOM      2  C   UNL     1      -9.256   5.362  55.195  1.00  0.00     0.087 C 
BRANCH   2   3
ATOM      3  C   UNL     1      -9.454   5.820  53.818  1.00  0.00     0.163 C 
ATOM      4  O   UNL     1      -9.549   5.008  52.862  1.00  0.00    -0.294 OA
BRANCH   3   5
ATOM      5  C   UNL     1      -9.556   7.252  53.468  1.00  0.00     0.018 A 
ATOM      6  C   UNL     1     -10.216   8.135  54.304  1.00  0.00     0.015 A 
ATOM      7  C   UNL     1      -9.000   7.738  52.311  1.00  0.00     0.015 A 
ATOM      8  C   UNL     1     -10.306   9.466  53.971  1.00  0.00     0.040 A 
ATOM      9  C   UNL     1      -9.087   9.062  51.974  1.00  0.00     0.040 A 
ATOM     10  C   UNL     1      -9.742   9.925  52.809  1.00  0.00     0.123 A 
ATOM     11  F   UNL     1      -9.810  11.243  52.436  1.00  0.00    -0.207 F 
ENDBRANCH   3   5
ENDBRANCH   2   3
ENDBRANCH   1   2
BRANCH   1  12
ATOM     12  C   UNL     1      -9.665   3.606  56.833  1.00  0.00     0.262 C 
BRANCH  12  13
ATOM     13  N   UNL     1      -8.486   3.076  57.508  1.00  0.00    -0.335 N 
ATOM     14  C   UNL     1      -7.520   4.092  57.798  1.00  0.00     0.265 C 
ATOM     15  C   UNL     1      -8.870   2.387  58.697  1.00  0.00     0.265 C 
ATOM     16  C   UNL     1      -8.092   5.161  58.688  1.00  0.00     0.102 C 
ATOM     17  C   UNL     1      -8.605   3.061  59.976  1.00  0.00     0.102 C 
ATOM     18  C   UNL     1      -8.529   4.543  59.983  1.00  0.00     0.100 C 
ATOM     19  H   UNL     1      -8.037   2.430  56.793  1.00  0.00     0.348 HD
BRANCH  18  20
ATOM     20  O   UNL     1      -7.546   4.902  60.937  1.00  0.00    -0.385 OA
ATOM     21  H   UNL     1      -8.020   5.371  61.668  1.00  0.00     0.211 HD
ENDBRANCH  18  20
BRANCH  18  22
ATOM     22  C   UNL     1      -9.790   5.187  60.498  1.00  0.00    -0.016 A 
ATOM     23  C   UNL     1      -9.936   5.557  61.819  1.00  0.00     0.008 A 
ATOM     24  C   UNL     1     -10.873   5.447  59.687  1.00  0.00     0.008 A 
ATOM     25  C   UNL     1     -11.070   6.147  62.329  1.00  0.00     0.021 A 
ATOM     26  C   UNL     1     -12.022   6.037  60.177  1.00  0.00     0.021 A 
ATOM     27  C   UNL     1     -12.119   6.387  61.497  1.00  0.00     0.041 A 
ATOM     28  Cl  UNL     1     -13.567   7.136  62.124  1.00  0.00    -0.084 Cl
ENDBRANCH  18  22
ENDBRANCH  12  13
ENDBRANCH   1  12
TORSDOF 7
ENDMDL
MODEL 2
REMARK VINA RESULT:      -9.7      4.526      8.372
REMARK SMILES O=C(CCC[NH+]1CCC(O)(c2ccc(Cl)cc2)CC1)c1ccc(F)cc1
REMARK SMILES IDX 4 1 3 2 2 3 1 4 20 5 21 6 26 7 22 8 25 9 23 10 24 11 5 12
REMARK SMILES IDX 6 13 7 14 19 15 8 16 18 17 9 18 10 20 11 22 12 23 17 24
REMARK SMILES IDX 13 25 16 26 14 27 15 28
REMARK H PARENT 6 19 10 21
ROOT
ATOM      1  C   UNL     1     -11.990   5.983  60.090  1.00  0.00     0.070 C 
ENDROOT
BRANCH   1   2
ATOM      2  C   UNL     1     -11.833   6.227  61.575  1.00  0.00     0.087 C 
BRANCH   2   3
ATOM      3  C   UNL     1     -13.078   6.575  62.264  1.00  0.00     0.163 C 
ATOM      4  O   UNL     1     -13.239   7.702  62.800  1.00  0.00    -0.294 OA
BRANCH   3   5
ATOM      5  C   UNL     1     -14.213   5.634  62.371  1.00  0.00     0.018 A 
ATOM      6  C   UNL     1     -15.483   6.018  61.978  1.00  0.00     0.015 A 
ATOM      7  C   UNL     1     -14.036   4.365  62.859  1.00  0.00     0.015 A 
ATOM      8  C   UNL     1     -16.534   5.139  62.081  1.00  0.00     0.040 A 
ATOM      9  C   UNL     1     -15.078   3.484  62.964  1.00  0.00     0.040 A 
ATOM     10  C   UNL     1     -16.329   3.875  62.573  1.00  0.00     0.123 A 
ATOM     11  F   UNL     1     -17.348   2.966  62.695  1.00  0.00    -0.207 F 
ENDBRANCH   3   5
ENDBRANCH   2   3
ENDBRANCH   1   2
BRANCH   1  12
ATOM     12  C   UNL     1     -10.641   6.033  59.460  1.00  0.00     0.262 C 
BRANCH  12  13
ATOM     13  N   UNL     1      -9.753   4.984  59.945  1.00  0.00    -0.335 N 
ATOM     14  C   UNL     1     -10.261   3.672  59.681  1.00  0.00     0.265 C 
ATOM     15  C   UNL     1      -8.451   5.145  59.384  1.00  0.00     0.265 C 
ATOM     16  C   UNL     1     -10.452   3.438  58.208  1.00  0.00     0.102 C 
ATOM     17  C   UNL     1      -8.058   4.207  58.323  1.00  0.00     0.102 C 
ATOM     18  C   UNL     1      -9.131   3.581  57.511  1.00  0.00     0.100 C 
ATOM     19  H   UNL     1      -9.755   5.100  61.002  1.00  0.00     0.348 HD
BRANCH  18  20
ATOM     20  O   UNL     1      -8.706   2.264  57.210  1.00  0.00    -0.385 OA
ATOM     21  H   UNL     1      -8.021   2.027  57.884  1.00  0.00     0.211 HD
ENDBRANCH  18  20
BRANCH  18  22
ATOM     22  C   UNL     1      -9.291   4.230  56.162  1.00  0.00    -0.016 A 
ATOM     23  C   UNL     1      -9.647   3.510  55.040  1.00  0.00     0.008 A 
ATOM     24  C   UNL     1      -9.094   5.579  55.961  1.00  0.00     0.008 A 
ATOM     25  C   UNL     1      -9.803   4.064  53.790  1.00  0.00     0.021 A 
ATOM     26  C   UNL     1      -9.245   6.157  54.716  1.00  0.00     0.021 A 
ATOM     27  C   UNL     1      -9.599   5.400  53.632  1.00  0.00     0.041 A 
ATOM     28  Cl  UNL     1      -9.794   6.124  52.054  1.00  0.00    -0.084 Cl
ENDBRANCH  18  22
ENDBRANCH  12  13
ENDBRANCH   1  12
TORSDOF 7
ENDMDL
MODEL 3
REMARK VINA RESULT:      -9.7      0.521      1.064
REMARK SMILES O=C(CCC[NH+]1CCC(O)(c2ccc(Cl)cc2)CC1)c1ccc(F)cc1
REMARK SMILES IDX 4 1 3 2 2 3 1 4 20 5 21 6 26 7 22 8 25 9 23 10 24 11 5 12
REMARK SMILES IDX 6 13 7 14 19 15 8 16 18 17 9 18 10 20 11 22 12 23 17 24
REMARK SMILES IDX 13 25 16 26 14 27 15 28
REMARK H PARENT 6 19 10 21
ROOT
ATOM      1  C   UNL     1      -9.067   3.633  55.476  1.00  0.00     0.070 C 
ENDROOT
BRANCH   1   2
ATOM      2  C   UNL     1      -9.410   5.096  55.300  1.00  0.00     0.087 C 
BRANCH   2   3
ATOM      3  C   UNL     1      -9.412   5.551  53.908  1.00  0.00     0.163 C 
ATOM      4  O   UNL     1      -9.360   4.736  52.950  1.00  0.00    -0.294 OA
BRANCH   3   5
ATOM      5  C   UNL     1      -9.478   6.981  53.542  1.00  0.00     0.018 A 
ATOM      6  C   UNL     1      -8.994   7.417  52.322  1.00  0.00     0.015 A 
ATOM      7  C   UNL     1     -10.017   7.906  54.399  1.00  0.00     0.015 A 
ATOM      8  C   UNL     1      -9.058   8.749  51.988  1.00  0.00     0.040 A 
ATOM      9  C   UNL     1     -10.084   9.234  54.074  1.00  0.00     0.040 A 
ATOM     10  C   UNL     1      -9.603   9.653  52.864  1.00  0.00     0.123 A 
ATOM     11  F   UNL     1      -9.685  10.991  52.575  1.00  0.00    -0.207 F 
ENDBRANCH   3   5
ENDBRANCH   2   3
ENDBRANCH   1   2
BRANCH   1  12
ATOM     12  C   UNL     1      -9.400   3.237  56.874  1.00  0.00     0.262 C 
BRANCH  12  13
ATOM     13  N   UNL     1      -8.223   2.862  57.648  1.00  0.00    -0.335 N 
ATOM     14  C   UNL     1      -7.399   3.987  57.970  1.00  0.00     0.265 C 
ATOM     15  C   UNL     1      -8.615   2.167  58.831  1.00  0.00     0.265 C 
ATOM     16  C   UNL     1      -8.149   5.009  58.780  1.00  0.00     0.102 C 
ATOM     17  C   UNL     1      -8.522   2.900  60.101  1.00  0.00     0.102 C 
ATOM     18  C   UNL     1      -8.611   4.381  60.061  1.00  0.00     0.100 C 
ATOM     19  H   UNL     1      -7.654   2.252  56.990  1.00  0.00     0.348 HD
BRANCH  18  20
ATOM     20  O   UNL     1      -7.746   4.874  61.069  1.00  0.00    -0.385 OA
ATOM     21  H   UNL     1      -7.134   5.514  60.627  1.00  0.00     0.211 HD
ENDBRANCH  18  20
BRANCH  18  22
ATOM     22  C   UNL     1      -9.969   4.892  60.463  1.00  0.00    -0.016 A 
ATOM     23  C   UNL     1     -10.559   4.541  61.660  1.00  0.00     0.008 A 
ATOM     24  C   UNL     1     -10.707   5.740  59.667  1.00  0.00     0.008 A 
ATOM     25  C   UNL     1     -11.797   4.985  62.064  1.00  0.00     0.021 A 
ATOM     26  C   UNL     1     -11.952   6.198  60.051  1.00  0.00     0.021 A 
ATOM     27  C   UNL     1     -12.495   5.820  61.249  1.00  0.00     0.041 A 
ATOM     28  Cl  UNL     1     -14.068   6.397  61.745  1.00  0.00    -0.084 Cl
ENDBRANCH  18  22
ENDBRANCH  12  13
ENDBRANCH   1  12
TORSDOF 7
ENDMDL
MODEL 4
REMARK VINA RESULT:      -9.7      3.728      5.597
REMARK SMILES O=C(CCC[NH+]1CCC(O)(c2ccc(Cl)cc2)CC1)c1ccc(F)cc1
REMARK SMILES IDX 4 1 3 2 2 3 1 4 20 5 21 6 26 7 22 8 25 9 23 10 24 11 5 12
REMARK SMILES IDX 6 13 7 14 19 15 8 16 18 17 9 18 10 20 11 22 12 23 17 24
REMARK SMILES IDX 13 25 16 26 14 27 15 28
REMARK H PARENT 6 19 10 21
ROOT
ATOM      1  C   UNL     1     -11.826   5.753  59.263  1.00  0.00     0.070 C 
ENDROOT
BRANCH   1   2
ATOM      2  C   UNL     1     -10.422   6.190  58.908  1.00  0.00     0.087 C 
BRANCH   2   3
ATOM      3  C   UNL     1      -9.610   5.151  58.272  1.00  0.00     0.163 C 
ATOM      4  O   UNL     1      -8.909   4.357  58.952  1.00  0.00    -0.294 OA
BRANCH   3   5
ATOM      5  C   UNL     1      -9.562   4.969  56.806  1.00  0.00     0.018 A 
ATOM      6  C   UNL     1      -9.285   6.039  55.974  1.00  0.00     0.015 A 
ATOM      7  C   UNL     1      -9.790   3.742  56.238  1.00  0.00     0.015 A 
ATOM      8  C   UNL     1      -9.242   5.863  54.612  1.00  0.00     0.040 A 
ATOM      9  C   UNL     1      -9.749   3.559  54.882  1.00  0.00     0.040 A 
ATOM     10  C   UNL     1      -9.474   4.625  54.070  1.00  0.00     0.123 A 
ATOM     11  F   UNL     1      -9.444   4.403  52.717  1.00  0.00    -0.207 F 
ENDBRANCH   3   5
ENDBRANCH   2   3
ENDBRANCH   1   2
BRANCH   1  12
ATOM     12  C   UNL     1     -12.090   6.124  60.682  1.00  0.00     0.262 C 
BRANCH  12  13
ATOM     13  N   UNL     1     -11.375   5.277  61.628  1.00  0.00    -0.335 N 
ATOM     14  C   UNL     1     -11.516   5.727  62.980  1.00  0.00     0.265 C 
ATOM     15  C   UNL     1     -11.807   3.923  61.498  1.00  0.00     0.265 C 
ATOM     16  C   UNL     1     -12.957   5.746  63.410  1.00  0.00     0.102 C 
ATOM     17  C   UNL     1     -12.684   3.396  62.553  1.00  0.00     0.102 C 
ATOM     18  C   UNL     1     -13.518   4.359  63.314  1.00  0.00     0.100 C 
ATOM     19  H   UNL     1     -10.350   5.400  61.376  1.00  0.00     0.348 HD
BRANCH  18  20
ATOM     20  O   UNL     1     -13.593   3.877  64.644  1.00  0.00    -0.385 OA
ATOM     21  H   UNL     1     -12.684   3.964  65.028  1.00  0.00     0.211 HD
ENDBRANCH  18  20
BRANCH  18  22
ATOM     22  C   UNL     1     -14.951   4.378  62.852  1.00  0.00    -0.016 A 
ATOM     23  C   UNL     1     -15.508   5.481  62.239  1.00  0.00     0.008 A 
ATOM     24  C   UNL     1     -15.795   3.301  63.011  1.00  0.00     0.008 A 
ATOM     25  C   UNL     1     -16.812   5.540  61.803  1.00  0.00     0.021 A 
ATOM     26  C   UNL     1     -17.107   3.336  62.581  1.00  0.00     0.021 A 
ATOM     27  C   UNL     1     -17.614   4.455  61.978  1.00  0.00     0.041 A 
ATOM     28  Cl  UNL     1     -19.272   4.508  61.429  1.00  0.00    -0.084 Cl
ENDBRANCH  18  22
ENDBRANCH  12  13
ENDBRANCH   1  12
TORSDOF 7
ENDMDL
MODEL 5
REMARK VINA RESULT:      -9.7      2.167      2.647
REMARK SMILES O=C(CCC[NH+]1CCC(O)(c2ccc(Cl)cc2)CC1)c1ccc(F)cc1
REMARK SMILES IDX 4 1 3 2 2 3 1 4 20 5 21 6 26 7 22 8 25 9 23 10 24 11 5 12
REMARK SMILES IDX 6 13 7 14 19 15 8 16 18 17 9 18 10 20 11 22 12 23 17 24
REMARK SMILES IDX 13 25 16 26 14 27 15 28
REMARK H PARENT 6 19 10 21
ROOT
ATOM      1  C   UNL     1      -9.765   3.945  55.239  1.00  0.00     0.070 C 
ENDROOT
BRANCH   1   2
ATOM      2  C   UNL     1      -9.297   5.375  55.078  1.00  0.00     0.087 C 
BRANCH   2   3
ATOM      3  C   UNL     1      -9.389   5.889  53.710  1.00  0.00     0.163 C 
ATOM      4  O   UNL     1      -9.364   5.118  52.715  1.00  0.00    -0.294 OA
BRANCH   3   5
ATOM      5  C   UNL     1      -9.517   7.331  53.413  1.00  0.00     0.018 A 
ATOM      6  C   UNL     1     -10.133   8.181  54.313  1.00  0.00     0.015 A 
ATOM      7  C   UNL     1      -9.032   7.858  52.243  1.00  0.00     0.015 A 
ATOM      8  C   UNL     1     -10.250   9.521  54.031  1.00  0.00     0.040 A 
ATOM      9  C   UNL     1      -9.144   9.191  51.955  1.00  0.00     0.040 A 
ATOM     10  C   UNL     1      -9.755  10.023  52.854  1.00  0.00     0.123 A 
ATOM     11  F   UNL     1      -9.850  11.351  52.529  1.00  0.00    -0.207 F 
ENDBRANCH   3   5
ENDBRANCH   2   3
ENDBRANCH   1   2
BRANCH   1  12
ATOM     12  C   UNL     1      -9.528   3.528  56.650  1.00  0.00     0.262 C 
BRANCH  12  13
ATOM     13  N   UNL     1      -8.123   3.257  56.929  1.00  0.00    -0.335 N 
ATOM     14  C   UNL     1      -7.595   4.106  57.953  1.00  0.00     0.265 C 
ATOM     15  C   UNL     1      -7.946   1.883  57.269  1.00  0.00     0.265 C 
ATOM     16  C   UNL     1      -8.340   3.939  59.249  1.00  0.00     0.102 C 
ATOM     17  C   UNL     1      -7.705   1.570  58.685  1.00  0.00     0.102 C 
ATOM     18  C   UNL     1      -8.218   2.516  59.707  1.00  0.00     0.100 C 
ATOM     19  H   UNL     1      -7.617   3.519  56.031  1.00  0.00     0.348 HD
BRANCH  18  20
ATOM     20  O   UNL     1      -7.277   2.528  60.766  1.00  0.00    -0.385 OA
ATOM     21  H   UNL     1      -7.515   1.776  61.364  1.00  0.00     0.211 HD
ENDBRANCH  18  20
BRANCH  18  22
ATOM     22  C   UNL     1      -9.491   2.038  60.355  1.00  0.00    -0.016 A 
ATOM     23  C   UNL     1      -9.583   0.804  60.965  1.00  0.00     0.008 A 
ATOM     24  C   UNL     1     -10.639   2.798  60.379  1.00  0.00     0.008 A 
ATOM     25  C   UNL     1     -10.727   0.330  61.567  1.00  0.00     0.021 A 
ATOM     26  C   UNL     1     -11.798   2.344  60.977  1.00  0.00     0.021 A 
ATOM     27  C   UNL     1     -11.841   1.111  61.570  1.00  0.00     0.041 A 
ATOM     28  Cl  UNL     1     -13.302   0.529  62.330  1.00  0.00    -0.084 Cl
ENDBRANCH  18  22
ENDBRANCH  12  13
ENDBRANCH   1  12
TORSDOF 7
ENDMDL
MODEL 6
REMARK VINA RESULT:      -9.7      3.825      5.859
REMARK SMILES O=C(CCC[NH+]1CCC(O)(c2ccc(Cl)cc2)CC1)c1ccc(F)cc1
REMARK SMILES IDX 4 1 3 2 2 3 1 4 20 5 21 6 26 7 22 8 25 9 23 10 24 11 5 12
REMARK SMILES IDX 6 13 7 14 19 15 8 16 18 17 9 18 10 20 11 22 12 23 17 24
REMARK SMILES IDX 13 25 16 26 14 27 15 28
REMARK H PARENT 6 19 10 21
ROOT
ATOM      1  C   UNL     1     -12.065   5.857  59.982  1.00  0.00     0.070 C 
ENDROOT
BRANCH   1   2
ATOM      2  C   UNL     1     -10.924   6.460  59.193  1.00  0.00     0.087 C 
BRANCH   2   3
ATOM      3  C   UNL     1      -9.907   5.495  58.771  1.00  0.00     0.163 C 
ATOM      4  O   UNL     1      -9.109   4.978  59.596  1.00  0.00    -0.294 OA
BRANCH   3   5
ATOM      5  C   UNL     1      -9.754   5.069  57.364  1.00  0.00     0.018 A 
ATOM      6  C   UNL     1      -9.479   5.996  56.376  1.00  0.00     0.015 A 
ATOM      7  C   UNL     1      -9.881   3.751  57.007  1.00  0.00     0.015 A 
ATOM      8  C   UNL     1      -9.338   5.593  55.069  1.00  0.00     0.040 A 
ATOM      9  C   UNL     1      -9.742   3.342  55.708  1.00  0.00     0.040 A 
ATOM     10  C   UNL     1      -9.470   4.269  54.739  1.00  0.00     0.123 A 
ATOM     11  F   UNL     1      -9.341   3.822  53.449  1.00  0.00    -0.207 F 
ENDBRANCH   3   5
ENDBRANCH   2   3
ENDBRANCH   1   2
BRANCH   1  12
ATOM     12  C   UNL     1     -11.850   6.156  61.426  1.00  0.00     0.262 C 
BRANCH  12  13
ATOM     13  N   UNL     1     -11.258   5.039  62.150  1.00  0.00    -0.335 N 
ATOM     14  C   UNL     1     -11.463   5.133  63.563  1.00  0.00     0.265 C 
ATOM     15  C   UNL     1     -11.763   3.803  61.646  1.00  0.00     0.265 C 
ATOM     16  C   UNL     1     -12.926   5.153  63.910  1.00  0.00     0.102 C 
ATOM     17  C   UNL     1     -12.743   3.092  62.479  1.00  0.00     0.102 C 
ATOM     18  C   UNL     1     -13.566   3.887  63.424  1.00  0.00     0.100 C 
ATOM     19  H   UNL     1     -10.211   5.142  61.991  1.00  0.00     0.348 HD
BRANCH  18  20
ATOM     20  O   UNL     1     -13.763   3.085  64.575  1.00  0.00    -0.385 OA
ATOM     21  H   UNL     1     -14.680   2.718  64.510  1.00  0.00     0.211 HD
ENDBRANCH  18  20
BRANCH  18  22
ATOM     22  C   UNL     1     -14.959   4.139  62.911  1.00  0.00    -0.016 A 
ATOM     23  C   UNL     1     -15.950   3.181  62.983  1.00  0.00     0.008 A 
ATOM     24  C   UNL     1     -15.333   5.335  62.340  1.00  0.00     0.008 A 
ATOM     25  C   UNL     1     -17.234   3.371  62.526  1.00  0.00     0.021 A 
ATOM     26  C   UNL     1     -16.616   5.549  61.875  1.00  0.00     0.021 A 
ATOM     27  C   UNL     1     -17.565   4.567  61.968  1.00  0.00     0.041 A 
ATOM     28  Cl  UNL     1     -19.190   4.829  61.384  1.00  0.00    -0.084 Cl
ENDBRANCH  18  22
ENDBRANCH  12  13
ENDBRANCH   1  12
TORSDOF 7
ENDMDL
MODEL 7
REMARK VINA RESULT:      -9.7      4.412      8.305
REMARK SMILES O=C(CCC[NH+]1CCC(O)(c2ccc(Cl)cc2)CC1)c1ccc(F)cc1
REMARK SMILES IDX 4 1 3 2 2 3 1 4 20 5 21 6 26 7 22 8 25 9 23 10 24 11 5 12
REMARK SMILES IDX 6 13 7 14 19 15 8 16 18 17 9 18 10 20 11 22 12 23 17 24
REMARK SMILES IDX 13 25 16 26 14 27 15 28
REMARK H PARENT 6 19 10 21
ROOT
ATOM      1  C   UNL     1     -11.989   5.983  59.990  1.00  0.00     0.070 C 
ENDROOT
BRANCH   1   2
ATOM      2  C   UNL     1     -12.130   6.572  61.376  1.00  0.00     0.087 C 
BRANCH   2   3
ATOM      3  C   UNL     1     -12.557   5.613  62.397  1.00  0.00     0.163 C 
ATOM      4  O   UNL     1     -11.761   5.190  63.275  1.00  0.00    -0.294 OA
BRANCH   3   5
ATOM      5  C   UNL     1     -13.937   5.087  62.462  1.00  0.00     0.018 A 
ATOM      6  C   UNL     1     -14.178   3.800  62.908  1.00  0.00     0.015 A 
ATOM      7  C   UNL     1     -15.006   5.859  62.084  1.00  0.00     0.015 A 
ATOM      8  C   UNL     1     -15.463   3.317  62.965  1.00  0.00     0.040 A 
ATOM      9  C   UNL     1     -16.289   5.385  62.139  1.00  0.00     0.040 A 
ATOM     10  C   UNL     1     -16.515   4.110  62.582  1.00  0.00     0.123 A 
ATOM     11  F   UNL     1     -17.813   3.670  62.620  1.00  0.00    -0.207 F 
ENDBRANCH   3   5
ENDBRANCH   2   3
ENDBRANCH   1   2
BRANCH   1  12
ATOM     12  C   UNL     1     -10.570   6.129  59.559  1.00  0.00     0.262 C 
BRANCH  12  13
ATOM     13  N   UNL     1      -9.716   5.059  60.058  1.00  0.00    -0.335 N 
ATOM     14  C   UNL     1     -10.270   3.761  59.821  1.00  0.00     0.265 C 
ATOM     15  C   UNL     1      -8.412   5.165  59.490  1.00  0.00     0.265 C 
ATOM     16  C   UNL     1     -10.476   3.508  58.353  1.00  0.00     0.102 C 
ATOM     17  C   UNL     1      -8.057   4.195  58.444  1.00  0.00     0.102 C 
ATOM     18  C   UNL     1      -9.155   3.593  57.648  1.00  0.00     0.100 C 
ATOM     19  H   UNL     1      -9.709   5.194  61.113  1.00  0.00     0.348 HD
BRANCH  18  20
ATOM     20  O   UNL     1      -8.777   2.256  57.369  1.00  0.00    -0.385 OA
ATOM     21  H   UNL     1      -9.088   1.709  58.132  1.00  0.00     0.211 HD
ENDBRANCH  18  20
BRANCH  18  22
ATOM     22  C   UNL     1      -9.299   4.223  56.287  1.00  0.00    -0.016 A 
ATOM     23  C   UNL     1      -9.121   5.576  56.085  1.00  0.00     0.008 A 
ATOM     24  C   UNL     1      -9.617   3.493  55.163  1.00  0.00     0.008 A 
ATOM     25  C   UNL     1      -9.244   6.191  54.860  1.00  0.00     0.021 A 
ATOM     26  C   UNL     1      -9.746   4.088  53.924  1.00  0.00     0.021 A 
ATOM     27  C   UNL     1      -9.559   5.436  53.773  1.00  0.00     0.041 A 
ATOM     28  Cl  UNL     1      -9.719   6.196  52.208  1.00  0.00    -0.084 Cl
ENDBRANCH  18  22
ENDBRANCH  12  13
ENDBRANCH   1  12
TORSDOF 7
ENDMDL
MODEL 8
REMARK VINA RESULT:      -9.7      3.270      4.978
REMARK SMILES O=C(CCC[NH+]1CCC(O)(c2ccc(Cl)cc2)CC1)c1ccc(F)cc1
REMARK SMILES IDX 4 1 3 2 2 3 1 4 20 5 21 6 26 7 22 8 25 9 23 10 24 11 5 12
REMARK SMILES IDX 6 13 7 14 19 15 8 16 18 17 9 18 10 20 11 22 12 23 17 24
REMARK SMILES IDX 13 25 16 26 14 27 15 28
REMARK H PARENT 6 19 10 21
ROOT
ATOM      1  C   UNL     1     -10.848   6.120  58.666  1.00  0.00     0.070 C 
ENDROOT
BRANCH   1   2
ATOM      2  C   UNL     1      -9.511   5.459  58.411  1.00  0.00     0.087 C 
BRANCH   2   3
ATOM      3  C   UNL     1      -9.547   4.393  57.408  1.00  0.00     0.163 C 
ATOM      4  O   UNL     1      -9.599   3.180  57.739  1.00  0.00    -0.294 OA
BRANCH   3   5
ATOM      5  C   UNL     1      -9.526   4.672  55.956  1.00  0.00     0.018 A 
ATOM      6  C   UNL     1      -9.184   5.927  55.487  1.00  0.00     0.015 A 
ATOM      7  C   UNL     1      -9.842   3.697  55.045  1.00  0.00     0.015 A 
ATOM      8  C   UNL     1      -9.166   6.179  54.135  1.00  0.00     0.040 A 
ATOM      9  C   UNL     1      -9.827   3.940  53.698  1.00  0.00     0.040 A 
ATOM     10  C   UNL     1      -9.487   5.186  53.245  1.00  0.00     0.123 A 
ATOM     11  F   UNL     1      -9.485   5.392  51.890  1.00  0.00    -0.207 F 
ENDBRANCH   3   5
ENDBRANCH   2   3
ENDBRANCH   1   2
BRANCH   1  12
ATOM     12  C   UNL     1     -11.390   5.605  59.955  1.00  0.00     0.262 C 
BRANCH  12  13
ATOM     13  N   UNL     1     -10.702   6.156  61.116  1.00  0.00    -0.335 N 
ATOM     14  C   UNL     1     -11.246   7.415  61.526  1.00  0.00     0.265 C 
ATOM     15  C   UNL     1     -10.726   5.219  62.192  1.00  0.00     0.265 C 
ATOM     16  C   UNL     1     -12.699   7.297  61.893  1.00  0.00     0.102 C 
ATOM     17  C   UNL     1     -11.642   5.502  63.305  1.00  0.00     0.102 C 
ATOM     18  C   UNL     1     -12.844   6.328  63.029  1.00  0.00     0.100 C 
ATOM     19  H   UNL     1      -9.715   6.353  60.773  1.00  0.00     0.348 HD
BRANCH  18  20
ATOM     20  O   UNL     1     -13.078   7.115  64.183  1.00  0.00    -0.385 OA
ATOM     21  H   UNL     1     -12.259   7.056  64.736  1.00  0.00     0.211 HD
ENDBRANCH  18  20
BRANCH  18  22
ATOM     22  C   UNL     1     -14.096   5.503  62.890  1.00  0.00    -0.016 A 
ATOM     23  C   UNL     1     -14.183   4.216  63.378  1.00  0.00     0.008 A 
ATOM     24  C   UNL     1     -15.230   5.978  62.268  1.00  0.00     0.008 A 
ATOM     25  C   UNL     1     -15.308   3.430  63.271  1.00  0.00     0.021 A 
ATOM     26  C   UNL     1     -16.370   5.207  62.148  1.00  0.00     0.021 A 
ATOM     27  C   UNL     1     -16.407   3.935  62.650  1.00  0.00     0.041 A 
ATOM     28  Cl  UNL     1     -17.846   2.953  62.505  1.00  0.00    -0.084 Cl
ENDBRANCH  18  22
ENDBRANCH  12  13
ENDBRANCH   1  12
TORSDOF 7
ENDMDL
MODEL 9
REMARK VINA RESULT:      -9.6      5.084      8.337
REMARK SMILES O=C(CCC[NH+]1CCC(O)(c2ccc(Cl)cc2)CC1)c1ccc(F)cc1
REMARK SMILES IDX 4 1 3 2 2 3 1 4 20 5 21 6 26 7 22 8 25 9 23 10 24 11 5 12
REMARK SMILES IDX 6 13 7 14 19 15 8 16 18 17 9 18 10 20 11 22 12 23 17 24
REMARK SMILES IDX 13 25 16 26 14 27 15 28
REMARK H PARENT 6 19 10 21
ROOT
ATOM      1  C   UNL     1     -11.326   4.970  61.288  1.00  0.00     0.070 C 
ENDROOT
BRANCH   1   2
ATOM      2  C   UNL     1     -12.027   5.393  62.559  1.00  0.00     0.087 C 
BRANCH   2   3
ATOM      3  C   UNL     1     -13.345   5.996  62.348  1.00  0.00     0.163 C 
ATOM      4  O   UNL     1     -13.474   7.220  62.088  1.00  0.00    -0.294 OA
BRANCH   3   5
ATOM      5  C   UNL     1     -14.596   5.212  62.425  1.00  0.00     0.018 A 
ATOM      6  C   UNL     1     -15.793   5.755  61.995  1.00  0.00     0.015 A 
ATOM      7  C   UNL     1     -14.599   3.933  62.922  1.00  0.00     0.015 A 
ATOM      8  C   UNL     1     -16.953   5.021  62.070  1.00  0.00     0.040 A 
ATOM      9  C   UNL     1     -15.750   3.196  62.999  1.00  0.00     0.040 A 
ATOM     10  C   UNL     1     -16.928   3.744  62.570  1.00  0.00     0.123 A 
ATOM     11  F   UNL     1     -18.059   2.976  62.666  1.00  0.00    -0.207 F 
ENDBRANCH   3   5
ENDBRANCH   2   3
ENDBRANCH   1   2
BRANCH   1  12
ATOM     12  C   UNL     1     -10.971   3.527  61.404  1.00  0.00     0.262 C 
BRANCH  12  13
ATOM     13  N   UNL     1      -9.639   3.318  61.958  1.00  0.00    -0.335 N 
ATOM     14  C   UNL     1      -9.185   1.970  61.795  1.00  0.00     0.265 C 
ATOM     15  C   UNL     1      -8.716   4.237  61.377  1.00  0.00     0.265 C 
ATOM     16  C   UNL     1      -9.123   1.579  60.344  1.00  0.00     0.102 C 
ATOM     17  C   UNL     1      -7.773   3.702  60.385  1.00  0.00     0.102 C 
ATOM     18  C   UNL     1      -8.168   2.487  59.629  1.00  0.00     0.100 C 
ATOM     19  H   UNL     1      -9.758   3.470  63.004  1.00  0.00     0.348 HD
BRANCH  18  20
ATOM     20  O   UNL     1      -6.991   1.729  59.422  1.00  0.00    -0.385 OA
ATOM     21  H   UNL     1      -6.931   1.089  60.175  1.00  0.00     0.211 HD
ENDBRANCH  18  20
BRANCH  18  22
ATOM     22  C   UNL     1      -8.650   2.801  58.237  1.00  0.00    -0.016 A 
ATOM     23  C   UNL     1      -8.132   2.172  57.124  1.00  0.00     0.008 A 
ATOM     24  C   UNL     1      -9.633   3.733  57.986  1.00  0.00     0.008 A 
ATOM     25  C   UNL     1      -8.544   2.429  55.836  1.00  0.00     0.021 A 
ATOM     26  C   UNL     1     -10.062   4.008  56.702  1.00  0.00     0.021 A 
ATOM     27  C   UNL     1      -9.518   3.357  55.629  1.00  0.00     0.041 A 
ATOM     28  Cl  UNL     1     -10.056   3.698  54.002  1.00  0.00    -0.084 Cl
ENDBRANCH  18  22
ENDBRANCH  12  13
ENDBRANCH   1  12
TORSDOF 7
ENDMDL
