MODEL 1
REMARK VINA RESULT:      -6.0      0.000      0.000
REMARK SMILES O=C(CCC[NH+]1CCC(O)(c2ccc(Cl)cc2)CC1)c1ccc(F)cc1
REMARK SMILES IDX 4 1 3 2 2 3 1 4 20 5 21 6 26 7 22 8 25 9 23 10 24 11 5 12
REMARK SMILES IDX 6 13 7 14 19 15 8 16 18 17 9 18 10 20 11 22 12 23 17 24
REMARK SMILES IDX 13 25 16 26 14 27 15 28
REMARK H PARENT 6 19 10 21
ROOT
ATOM      1  C   UNL     1      15.624  -2.755  11.685  1.00  0.00     0.070 C 
ENDROOT
BRANCH   1   2
ATOM      2  C   UNL     1      15.348  -2.204  10.304  1.00  0.00     0.087 C 
BRANCH   2   3
ATOM      3  C   UNL     1      14.974  -3.216   9.314  1.00  0.00     0.163 C 
ATOM      4  O   UNL     1      15.778  -3.591   8.422  1.00  0.00    -0.294 OA
BRANCH   3   5
ATOM      5  C   UNL     1      13.642  -3.856   9.301  1.00  0.00     0.018 A 
ATOM      6  C   UNL     1      13.216  -4.614  10.377  1.00  0.00     0.015 A 
ATOM      7  C   UNL     1      12.800  -3.715   8.227  1.00  0.00     0.015 A 
ATOM      8  C   UNL     1      11.976  -5.207  10.358  1.00  0.00     0.040 A 
ATOM      9  C   UNL     1      11.564  -4.303   8.201  1.00  0.00     0.040 A 
ATOM     10  C   UNL     1      11.154  -5.050   9.271  1.00  0.00     0.123 A 
ATOM     11  F   UNL     1       9.911  -5.624   9.207  1.00  0.00    -0.207 F 
ENDBRANCH   3   5
ENDBRANCH   2   3
ENDBRANCH   1   2
BRANCH   1  12
ATOM     12  C   UNL     1      14.856  -1.950  12.676  1.00  0.00     0.262 C 
BRANCH  12  13
ATOM     13  N   UNL     1      15.483  -1.927  13.991  1.00  0.00    -0.335 N 
ATOM     14  C   UNL     1      14.546  -2.159  15.048  1.00  0.00     0.265 C 
ATOM     15  C   UNL     1      16.550  -2.874  14.042  1.00  0.00     0.265 C 
ATOM     16  C   UNL     1      13.873  -3.496  14.906  1.00  0.00     0.102 C 
ATOM     17  C   UNL     1      16.310  -4.111  14.800  1.00  0.00     0.102 C 
ATOM     18  C   UNL     1      14.910  -4.578  14.951  1.00  0.00     0.100 C 
ATOM     19  H   UNL     1      15.825  -0.927  14.107  1.00  0.00     0.348 HD
BRANCH  18  20
ATOM     20  O   UNL     1      14.806  -5.164  16.236  1.00  0.00    -0.385 OA
ATOM     21  H   UNL     1      14.850  -6.144  16.105  1.00  0.00     0.211 HD
ENDBRANCH  18  20
BRANCH  18  22
ATOM     22  C   UNL     1      14.569  -5.703  14.009  1.00  0.00    -0.016 A 
ATOM     23  C   UNL     1      15.482  -6.203  13.104  1.00  0.00     0.008 A 
ATOM     24  C   UNL     1      13.328  -6.302  13.990  1.00  0.00     0.008 A 
ATOM     25  C   UNL     1      15.211  -7.228  12.227  1.00  0.00     0.021 A 
ATOM     26  C   UNL     1      13.032  -7.332  13.118  1.00  0.00     0.021 A 
ATOM     27  C   UNL     1      13.974  -7.794  12.239  1.00  0.00     0.041 A 
ATOM     28  Cl  UNL     1      13.609  -9.098  11.134  1.00  0.00    -0.084 Cl
ENDBRANCH  18  22
ENDBRANCH  12  13
ENDBRANCH   1  12
TORSDOF 7
ENDMDL
MODEL 2
REMARK VINA RESULT:      -5.9      0.918      1.306
REMARK SMILES O=C(CCC[NH+]1CCC(O)(c2ccc(Cl)cc2)CC1)c1ccc(F)cc1
REMARK SMILES IDX 4 1 3 2 2 3 1 4 20 5 21 6 26 7 22 8 25 9 23 10 24 11 5 12
REMARK SMILES IDX 6 13 7 14 19 15 8 16 18 17 9 18 10 20 11 22 12 23 17 24
REMARK SMILES IDX 13 25 16 26 14 27 15 28
REMARK H PARENT 6 19 10 21
ROOT
ATOM      1  C   UNL     1      15.602  -2.381  11.511  1.00  0.00     0.070 C 
ENDROOT
BRANCH   1   2
ATOM      2  C   UNL     1      15.359  -3.754  10.924  1.00  0.00     0.087 C 
BRANCH   2   3
ATOM      3  C   UNL     1      14.706  -3.741   9.614  1.00  0.00     0.163 C 
ATOM      4  O   UNL     1      15.318  -3.375   8.578  1.00  0.00    -0.294 OA
BRANCH   3   5
ATOM      5  C   UNL     1      13.299  -4.156   9.426  1.00  0.00     0.018 A 
ATOM      6  C   UNL     1      12.601  -4.758  10.458  1.00  0.00     0.015 A 
ATOM      7  C   UNL     1      12.657  -3.956   8.231  1.00  0.00     0.015 A 
ATOM      8  C   UNL     1      11.293  -5.141  10.276  1.00  0.00     0.040 A 
ATOM      9  C   UNL     1      11.355  -4.335   8.043  1.00  0.00     0.040 A 
ATOM     10  C   UNL     1      10.674  -4.929   9.071  1.00  0.00     0.123 A 
ATOM     11  F   UNL     1       9.373  -5.297   8.844  1.00  0.00    -0.207 F 
ENDBRANCH   3   5
ENDBRANCH   2   3
ENDBRANCH   1   2
BRANCH   1  12
ATOM     12  C   UNL     1      14.622  -2.159  12.611  1.00  0.00     0.262 C 
BRANCH  12  13
ATOM     13  N   UNL     1      15.261  -1.827  13.878  1.00  0.00    -0.335 N 
ATOM     14  C   UNL     1      14.503  -2.275  15.007  1.00  0.00     0.265 C 
ATOM     15  C   UNL     1      16.585  -2.359  13.914  1.00  0.00     0.265 C 
ATOM     16  C   UNL     1      14.313  -3.767  14.989  1.00  0.00     0.102 C 
ATOM     17  C   UNL     1      16.809  -3.542  14.756  1.00  0.00     0.102 C 
ATOM     18  C   UNL     1      15.655  -4.435  15.027  1.00  0.00     0.100 C 
ATOM     19  H   UNL     1      15.252  -0.765  13.912  1.00  0.00     0.348 HD
BRANCH  18  20
ATOM     20  O   UNL     1      15.810  -4.920  16.349  1.00  0.00    -0.385 OA
ATOM     21  H   UNL     1      15.122  -4.467  16.899  1.00  0.00     0.211 HD
ENDBRANCH  18  20
BRANCH  18  22
ATOM     22  C   UNL     1      15.671  -5.679  14.178  1.00  0.00    -0.016 A 
ATOM     23  C   UNL     1      14.616  -6.018  13.355  1.00  0.00     0.008 A 
ATOM     24  C   UNL     1      16.734  -6.555  14.167  1.00  0.00     0.008 A 
ATOM     25  C   UNL     1      14.592  -7.144  12.564  1.00  0.00     0.021 A 
ATOM     26  C   UNL     1      16.732  -7.691  13.382  1.00  0.00     0.021 A 
ATOM     27  C   UNL     1      15.661  -7.984  12.582  1.00  0.00     0.041 A 
ATOM     28  Cl  UNL     1      15.651  -9.418  11.584  1.00  0.00    -0.084 Cl
ENDBRANCH  18  22
ENDBRANCH  12  13
ENDBRANCH   1  12
TORSDOF 7
ENDMDL
MODEL 3
REMARK VINA RESULT:      -5.8      3.243      4.939
REMARK SMILES O=C(CCC[NH+]1CCC(O)(c2ccc(Cl)cc2)CC1)c1ccc(F)cc1
REMARK SMILES IDX 4 1 3 2 2 3 1 4 20 5 21 6 26 7 22 8 25 9 23 10 24 11 5 12
REMARK SMILES IDX 6 13 7 14 19 15 8 16 18 17 9 18 10 20 11 22 12 23 17 24
REMARK SMILES IDX 13 25 16 26 14 27 15 28
REMARK H PARENT 6 19 10 21
ROOT
ATOM      1  C   UNL     1      11.486  -5.268  10.844  1.00  0.00     0.070 C 
ENDROOT
BRANCH   1   2
ATOM      2  C   UNL     1      12.934  -5.024  10.478  1.00  0.00     0.087 C 
BRANCH   2   3
ATOM      3  C   UNL     1      13.128  -4.042   9.409  1.00  0.00     0.163 C 
ATOM      4  O   UNL     1      12.169  -3.646   8.698  1.00  0.00    -0.294 OA
BRANCH   3   5
ATOM      5  C   UNL     1      14.451  -3.460   9.100  1.00  0.00     0.018 A 
ATOM      6  C   UNL     1      15.001  -2.491   9.921  1.00  0.00     0.015 A 
ATOM      7  C   UNL     1      15.162  -3.863   7.999  1.00  0.00     0.015 A 
ATOM      8  C   UNL     1      16.232  -1.953   9.628  1.00  0.00     0.040 A 
ATOM      9  C   UNL     1      16.388  -3.332   7.700  1.00  0.00     0.040 A 
ATOM     10  C   UNL     1      16.921  -2.375   8.520  1.00  0.00     0.123 A 
ATOM     11  F   UNL     1      18.150  -1.865   8.187  1.00  0.00    -0.207 F 
ENDBRANCH   3   5
ENDBRANCH   2   3
ENDBRANCH   1   2
BRANCH   1  12
ATOM     12  C   UNL     1      11.348  -6.678  11.304  1.00  0.00     0.262 C 
BRANCH  12  13
ATOM     13  N   UNL     1      10.478  -6.809  12.466  1.00  0.00    -0.335 N 
ATOM     14  C   UNL     1      11.061  -7.612  13.498  1.00  0.00     0.265 C 
ATOM     15  C   UNL     1      10.129  -5.519  12.965  1.00  0.00     0.265 C 
ATOM     16  C   UNL     1      12.359  -7.030  13.985  1.00  0.00     0.102 C 
ATOM     17  C   UNL     1      10.782  -5.082  14.207  1.00  0.00     0.102 C 
ATOM     18  C   UNL     1      12.108  -5.659  14.540  1.00  0.00     0.100 C 
ATOM     19  H   UNL     1       9.633  -7.347  12.109  1.00  0.00     0.348 HD
BRANCH  18  20
ATOM     20  O   UNL     1      12.156  -5.796  15.949  1.00  0.00    -0.385 OA
ATOM     21  H   UNL     1      13.103  -5.672  16.212  1.00  0.00     0.211 HD
ENDBRANCH  18  20
BRANCH  18  22
ATOM     22  C   UNL     1      13.245  -4.723  14.224  1.00  0.00    -0.016 A 
ATOM     23  C   UNL     1      14.389  -5.152  13.584  1.00  0.00     0.008 A 
ATOM     24  C   UNL     1      13.216  -3.386  14.553  1.00  0.00     0.008 A 
ATOM     25  C   UNL     1      15.449  -4.330  13.277  1.00  0.00     0.021 A 
ATOM     26  C   UNL     1      14.268  -2.542  14.257  1.00  0.00     0.021 A 
ATOM     27  C   UNL     1      15.383  -3.015  13.619  1.00  0.00     0.041 A 
ATOM     28  Cl  UNL     1      16.718  -1.953  13.238  1.00  0.00    -0.084 Cl
ENDBRANCH  18  22
ENDBRANCH  12  13
ENDBRANCH   1  12
TORSDOF 7
ENDMDL
MODEL 4
REMARK VINA RESULT:      -5.5      2.273      3.030
REMARK SMILES O=C(CCC[NH+]1CCC(O)(c2ccc(Cl)cc2)CC1)c1ccc(F)cc1
REMARK SMILES IDX 4 1 3 2 2 3 1 4 20 5 21 6 26 7 22 8 25 9 23 10 24 11 5 12
REMARK SMILES IDX 6 13 7 14 19 15 8 16 18 17 9 18 10 20 11 22 12 23 17 24
REMARK SMILES IDX 13 25 16 26 14 27 15 28
REMARK H PARENT 6 19 10 21
ROOT
ATOM      1  C   UNL     1      15.476  -3.165  10.290  1.00  0.00     0.070 C 
ENDROOT
BRANCH   1   2
ATOM      2  C   UNL     1      14.333  -2.782   9.377  1.00  0.00     0.087 C 
BRANCH   2   3
ATOM      3  C   UNL     1      13.749  -3.904   8.638  1.00  0.00     0.163 C 
ATOM      4  O   UNL     1      14.245  -4.306   7.553  1.00  0.00    -0.294 OA
BRANCH   3   5
ATOM      5  C   UNL     1      12.554  -4.631   9.116  1.00  0.00     0.018 A 
ATOM      6  C   UNL     1      12.652  -5.537  10.157  1.00  0.00     0.015 A 
ATOM      7  C   UNL     1      11.326  -4.425   8.542  1.00  0.00     0.015 A 
ATOM      8  C   UNL     1      11.537  -6.209  10.597  1.00  0.00     0.040 A 
ATOM      9  C   UNL     1      10.210  -5.091   8.975  1.00  0.00     0.040 A 
ATOM     10  C   UNL     1      10.320  -5.984  10.005  1.00  0.00     0.123 A 
ATOM     11  F   UNL     1       9.182  -6.634  10.409  1.00  0.00    -0.207 F 
ENDBRANCH   3   5
ENDBRANCH   2   3
ENDBRANCH   1   2
BRANCH   1  12
ATOM     12  C   UNL     1      15.033  -2.985  11.701  1.00  0.00     0.262 C 
BRANCH  12  13
ATOM     13  N   UNL     1      16.020  -3.451  12.666  1.00  0.00    -0.335 N 
ATOM     14  C   UNL     1      16.171  -2.554  13.771  1.00  0.00     0.265 C 
ATOM     15  C   UNL     1      15.682  -4.761  13.120  1.00  0.00     0.265 C 
ATOM     16  C   UNL     1      14.878  -2.374  14.518  1.00  0.00     0.102 C 
ATOM     17  C   UNL     1      15.129  -4.877  14.477  1.00  0.00     0.102 C 
ATOM     18  C   UNL     1      14.426  -3.701  15.049  1.00  0.00     0.100 C 
ATOM     19  H   UNL     1      16.941  -3.432  12.136  1.00  0.00     0.348 HD
BRANCH  18  20
ATOM     20  O   UNL     1      14.712  -3.684  16.436  1.00  0.00    -0.385 OA
ATOM     21  H   UNL     1      15.698  -3.704  16.521  1.00  0.00     0.211 HD
ENDBRANCH  18  20
BRANCH  18  22
ATOM     22  C   UNL     1      12.927  -3.834  14.986  1.00  0.00    -0.016 A 
ATOM     23  C   UNL     1      12.272  -4.190  13.826  1.00  0.00     0.008 A 
ATOM     24  C   UNL     1      12.118  -3.610  16.078  1.00  0.00     0.008 A 
ATOM     25  C   UNL     1      10.905  -4.322  13.727  1.00  0.00     0.021 A 
ATOM     26  C   UNL     1      10.745  -3.736  16.003  1.00  0.00     0.021 A 
ATOM     27  C   UNL     1      10.140  -4.092  14.828  1.00  0.00     0.041 A 
ATOM     28  Cl  UNL     1       8.404  -4.256  14.724  1.00  0.00    -0.084 Cl
ENDBRANCH  18  22
ENDBRANCH  12  13
ENDBRANCH   1  12
TORSDOF 7
ENDMDL
MODEL 5
REMARK VINA RESULT:      -5.5      3.118      4.727
REMARK SMILES O=C(CCC[NH+]1CCC(O)(c2ccc(Cl)cc2)CC1)c1ccc(F)cc1
REMARK SMILES IDX 4 1 3 2 2 3 1 4 20 5 21 6 26 7 22 8 25 9 23 10 24 11 5 12
REMARK SMILES IDX 6 13 7 14 19 15 8 16 18 17 9 18 10 20 11 22 12 23 17 24
REMARK SMILES IDX 13 25 16 26 14 27 15 28
REMARK H PARENT 6 19 10 21
ROOT
ATOM      1  C   UNL     1      10.584  -5.822  10.832  1.00  0.00     0.070 C 
ENDROOT
BRANCH   1   2
ATOM      2  C   UNL     1      11.797  -5.911   9.932  1.00  0.00     0.087 C 
BRANCH   2   3
ATOM      3  C   UNL     1      12.106  -4.673   9.213  1.00  0.00     0.163 C 
ATOM      4  O   UNL     1      11.220  -4.041   8.582  1.00  0.00    -0.294 OA
BRANCH   3   5
ATOM      5  C   UNL     1      13.465  -4.093   9.184  1.00  0.00     0.018 A 
ATOM      6  C   UNL     1      14.026  -3.560  10.331  1.00  0.00     0.015 A 
ATOM      7  C   UNL     1      14.199  -4.069   8.026  1.00  0.00     0.015 A 
ATOM      8  C   UNL     1      15.290  -3.022  10.297  1.00  0.00     0.040 A 
ATOM      9  C   UNL     1      15.459  -3.535   7.984  1.00  0.00     0.040 A 
ATOM     10  C   UNL     1      16.003  -3.011   9.125  1.00  0.00     0.123 A 
ATOM     11  F   UNL     1      17.266  -2.483   9.044  1.00  0.00    -0.207 F 
ENDBRANCH   3   5
ENDBRANCH   2   3
ENDBRANCH   1   2
BRANCH   1  12
ATOM     12  C   UNL     1      10.910  -4.919  11.972  1.00  0.00     0.262 C 
BRANCH  12  13
ATOM     13  N   UNL     1      10.325  -5.367  13.230  1.00  0.00    -0.335 N 
ATOM     14  C   UNL     1      10.986  -6.521  13.760  1.00  0.00     0.265 C 
ATOM     15  C   UNL     1      10.327  -4.301  14.179  1.00  0.00     0.265 C 
ATOM     16  C   UNL     1      12.442  -6.251  14.024  1.00  0.00     0.102 C 
ATOM     17  C   UNL     1      11.316  -4.373  15.263  1.00  0.00     0.102 C 
ATOM     18  C   UNL     1      12.564  -5.138  15.022  1.00  0.00     0.100 C 
ATOM     19  H   UNL     1       9.341  -5.677  12.972  1.00  0.00     0.348 HD
BRANCH  18  20
ATOM     20  O   UNL     1      12.915  -5.753  16.249  1.00  0.00    -0.385 OA
ATOM     21  H   UNL     1      13.283  -6.644  16.024  1.00  0.00     0.211 HD
ENDBRANCH  18  20
BRANCH  18  22
ATOM     22  C   UNL     1      13.739  -4.250  14.709  1.00  0.00    -0.016 A 
ATOM     23  C   UNL     1      14.883  -4.733  14.108  1.00  0.00     0.008 A 
ATOM     24  C   UNL     1      13.748  -2.904  15.002  1.00  0.00     0.008 A 
ATOM     25  C   UNL     1      15.977  -3.955  13.806  1.00  0.00     0.021 A 
ATOM     26  C   UNL     1      14.835  -2.104  14.709  1.00  0.00     0.021 A 
ATOM     27  C   UNL     1      15.948  -2.630  14.111  1.00  0.00     0.041 A 
ATOM     28  Cl  UNL     1      17.326  -1.624  13.735  1.00  0.00    -0.084 Cl
ENDBRANCH  18  22
ENDBRANCH  12  13
ENDBRANCH   1  12
TORSDOF 7
ENDMDL
MODEL 6
REMARK VINA RESULT:      -5.4      2.142      2.909
REMARK SMILES O=C(CCC[NH+]1CCC(O)(c2ccc(Cl)cc2)CC1)c1ccc(F)cc1
REMARK SMILES IDX 4 1 3 2 2 3 1 4 20 5 21 6 26 7 22 8 25 9 23 10 24 11 5 12
REMARK SMILES IDX 6 13 7 14 19 15 8 16 18 17 9 18 10 20 11 22 12 23 17 24
REMARK SMILES IDX 13 25 16 26 14 27 15 28
REMARK H PARENT 6 19 10 21
ROOT
ATOM      1  C   UNL     1      15.986  -2.224  11.041  1.00  0.00     0.070 C 
ENDROOT
BRANCH   1   2
ATOM      2  C   UNL     1      14.841  -2.072  10.064  1.00  0.00     0.087 C 
BRANCH   2   3
ATOM      3  C   UNL     1      14.586  -3.258   9.245  1.00  0.00     0.163 C 
ATOM      4  O   UNL     1      15.445  -3.696   8.437  1.00  0.00    -0.294 OA
BRANCH   3   5
ATOM      5  C   UNL     1      13.316  -4.010   9.315  1.00  0.00     0.018 A 
ATOM      6  C   UNL     1      13.076  -4.889  10.356  1.00  0.00     0.015 A 
ATOM      7  C   UNL     1      12.349  -3.856   8.355  1.00  0.00     0.015 A 
ATOM      8  C   UNL     1      11.893  -5.586  10.415  1.00  0.00     0.040 A 
ATOM      9  C   UNL     1      11.167  -4.546   8.407  1.00  0.00     0.040 A 
ATOM     10  C   UNL     1      10.942  -5.412   9.442  1.00  0.00     0.123 A 
ATOM     11  F   UNL     1       9.749  -6.087   9.459  1.00  0.00    -0.207 F 
ENDBRANCH   3   5
ENDBRANCH   2   3
ENDBRANCH   1   2
BRANCH   1  12
ATOM     12  C   UNL     1      15.421  -2.337  12.415  1.00  0.00     0.262 C 
BRANCH  12  13
ATOM     13  N   UNL     1      16.292  -3.069  13.325  1.00  0.00    -0.335 N 
ATOM     14  C   UNL     1      16.342  -2.479  14.628  1.00  0.00     0.265 C 
ATOM     15  C   UNL     1      15.886  -4.435  13.403  1.00  0.00     0.265 C 
ATOM     16  C   UNL     1      14.981  -2.433  15.267  1.00  0.00     0.102 C 
ATOM     17  C   UNL     1      15.191  -4.858  14.627  1.00  0.00     0.102 C 
ATOM     18  C   UNL     1      14.453  -3.830  15.403  1.00  0.00     0.100 C 
ATOM     19  H   UNL     1      17.265  -2.960  12.909  1.00  0.00     0.348 HD
BRANCH  18  20
ATOM     20  O   UNL     1      14.591  -4.167  16.771  1.00  0.00    -0.385 OA
ATOM     21  H   UNL     1      15.558  -4.121  16.977  1.00  0.00     0.211 HD
ENDBRANCH  18  20
BRANCH  18  22
ATOM     22  C   UNL     1      12.966  -3.878  15.163  1.00  0.00    -0.016 A 
ATOM     23  C   UNL     1      12.055  -3.669  16.177  1.00  0.00     0.008 A 
ATOM     24  C   UNL     1      12.424  -4.134  13.923  1.00  0.00     0.008 A 
ATOM     25  C   UNL     1      10.690  -3.705  16.000  1.00  0.00     0.021 A 
ATOM     26  C   UNL     1      11.059  -4.175  13.721  1.00  0.00     0.021 A 
ATOM     27  C   UNL     1      10.193  -3.961  14.760  1.00  0.00     0.041 A 
ATOM     28  Cl  UNL     1       8.464  -4.009  14.514  1.00  0.00    -0.084 Cl
ENDBRANCH  18  22
ENDBRANCH  12  13
ENDBRANCH   1  12
TORSDOF 7
ENDMDL
MODEL 7
REMARK VINA RESULT:      -5.4      1.377      1.902
REMARK SMILES O=C(CCC[NH+]1CCC(O)(c2ccc(Cl)cc2)CC1)c1ccc(F)cc1
REMARK SMILES IDX 4 1 3 2 2 3 1 4 20 5 21 6 26 7 22 8 25 9 23 10 24 11 5 12
REMARK SMILES IDX 6 13 7 14 19 15 8 16 18 17 9 18 10 20 11 22 12 23 17 24
REMARK SMILES IDX 13 25 16 26 14 27 15 28
REMARK H PARENT 6 19 10 21
ROOT
ATOM      1  C   UNL     1      15.047  -1.847  11.063  1.00  0.00     0.070 C 
ENDROOT
BRANCH   1   2
ATOM      2  C   UNL     1      15.610  -1.989   9.666  1.00  0.00     0.087 C 
BRANCH   2   3
ATOM      3  C   UNL     1      15.224  -3.226   8.984  1.00  0.00     0.163 C 
ATOM      4  O   UNL     1      15.978  -3.772   8.137  1.00  0.00    -0.294 OA
BRANCH   3   5
ATOM      5  C   UNL     1      13.938  -3.906   9.244  1.00  0.00     0.018 A 
ATOM      6  C   UNL     1      12.869  -3.740   8.383  1.00  0.00     0.015 A 
ATOM      7  C   UNL     1      13.775  -4.714  10.340  1.00  0.00     0.015 A 
ATOM      8  C   UNL     1      11.675  -4.376   8.631  1.00  0.00     0.040 A 
ATOM      9  C   UNL     1      12.590  -5.351  10.594  1.00  0.00     0.040 A 
ATOM     10  C   UNL     1      11.539  -5.179   9.735  1.00  0.00     0.123 A 
ATOM     11  F   UNL     1      10.368  -5.830  10.023  1.00  0.00    -0.207 F 
ENDBRANCH   3   5
ENDBRANCH   2   3
ENDBRANCH   1   2
BRANCH   1  12
ATOM     12  C   UNL     1      16.051  -2.371  12.031  1.00  0.00     0.262 C 
BRANCH  12  13
ATOM     13  N   UNL     1      15.817  -1.907  13.392  1.00  0.00    -0.335 N 
ATOM     14  C   UNL     1      14.544  -2.320  13.899  1.00  0.00     0.265 C 
ATOM     15  C   UNL     1      16.870  -2.346  14.249  1.00  0.00     0.265 C 
ATOM     16  C   UNL     1      14.416  -3.819  13.919  1.00  0.00     0.102 C 
ATOM     17  C   UNL     1      16.566  -3.448  15.173  1.00  0.00     0.102 C 
ATOM     18  C   UNL     1      15.484  -4.393  14.802  1.00  0.00     0.100 C 
ATOM     19  H   UNL     1      15.778  -0.848  13.311  1.00  0.00     0.348 HD
BRANCH  18  20
ATOM     20  O   UNL     1      14.834  -4.769  16.003  1.00  0.00    -0.385 OA
ATOM     21  H   UNL     1      14.510  -3.934  16.423  1.00  0.00     0.211 HD
ENDBRANCH  18  20
BRANCH  18  22
ATOM     22  C   UNL     1      16.011  -5.691  14.249  1.00  0.00    -0.016 A 
ATOM     23  C   UNL     1      17.146  -6.293  14.751  1.00  0.00     0.008 A 
ATOM     24  C   UNL     1      15.396  -6.359  13.213  1.00  0.00     0.008 A 
ATOM     25  C   UNL     1      17.661  -7.477  14.275  1.00  0.00     0.021 A 
ATOM     26  C   UNL     1      15.894  -7.548  12.718  1.00  0.00     0.021 A 
ATOM     27  C   UNL     1      17.025  -8.106  13.250  1.00  0.00     0.041 A 
ATOM     28  Cl  UNL     1      17.661  -9.612  12.632  1.00  0.00    -0.084 Cl
ENDBRANCH  18  22
ENDBRANCH  12  13
ENDBRANCH   1  12
TORSDOF 7
ENDMDL
MODEL 8
REMARK VINA RESULT:      -5.4      1.718      2.228
REMARK SMILES O=C(CCC[NH+]1CCC(O)(c2ccc(Cl)cc2)CC1)c1ccc(F)cc1
REMARK SMILES IDX 4 1 3 2 2 3 1 4 20 5 21 6 26 7 22 8 25 9 23 10 24 11 5 12
REMARK SMILES IDX 6 13 7 14 19 15 8 16 18 17 9 18 10 20 11 22 12 23 17 24
REMARK SMILES IDX 13 25 16 26 14 27 15 28
REMARK H PARENT 6 19 10 21
ROOT
ATOM      1  C   UNL     1      15.882  -2.162  10.937  1.00  0.00     0.070 C 
ENDROOT
BRANCH   1   2
ATOM      2  C   UNL     1      14.827  -2.030   9.861  1.00  0.00     0.087 C 
BRANCH   2   3
ATOM      3  C   UNL     1      14.560  -3.266   9.123  1.00  0.00     0.163 C 
ATOM      4  O   UNL     1      15.429  -3.786   8.376  1.00  0.00    -0.294 OA
BRANCH   3   5
ATOM      5  C   UNL     1      13.267  -3.976   9.209  1.00  0.00     0.018 A 
ATOM      6  C   UNL     1      12.967  -4.760  10.309  1.00  0.00     0.015 A 
ATOM      7  C   UNL     1      12.337  -3.875   8.205  1.00  0.00     0.015 A 
ATOM      8  C   UNL     1      11.762  -5.418  10.382  1.00  0.00     0.040 A 
ATOM      9  C   UNL     1      11.135  -4.527   8.272  1.00  0.00     0.040 A 
ATOM     10  C   UNL     1      10.850  -5.299   9.365  1.00  0.00     0.123 A 
ATOM     11  F   UNL     1       9.638  -5.939   9.394  1.00  0.00    -0.207 F 
ENDBRANCH   3   5
ENDBRANCH   2   3
ENDBRANCH   1   2
BRANCH   1  12
ATOM     12  C   UNL     1      15.218  -2.608  12.195  1.00  0.00     0.262 C 
BRANCH  12  13
ATOM     13  N   UNL     1      15.515  -1.740  13.327  1.00  0.00    -0.335 N 
ATOM     14  C   UNL     1      14.687  -2.016  14.461  1.00  0.00     0.265 C 
ATOM     15  C   UNL     1      16.896  -1.839  13.672  1.00  0.00     0.265 C 
ATOM     16  C   UNL     1      14.857  -3.432  14.938  1.00  0.00     0.102 C 
ATOM     17  C   UNL     1      17.229  -2.595  14.888  1.00  0.00     0.102 C 
ATOM     18  C   UNL     1      16.286  -3.651  15.335  1.00  0.00     0.100 C 
ATOM     19  H   UNL     1      15.251  -0.765  12.993  1.00  0.00     0.348 HD
BRANCH  18  20
ATOM     20  O   UNL     1      16.302  -3.645  16.751  1.00  0.00    -0.385 OA
ATOM     21  H   UNL     1      17.116  -4.136  17.027  1.00  0.00     0.211 HD
ENDBRANCH  18  20
BRANCH  18  22
ATOM     22  C   UNL     1      16.751  -5.036  14.970  1.00  0.00    -0.016 A 
ATOM     23  C   UNL     1      16.082  -5.813  14.046  1.00  0.00     0.008 A 
ATOM     24  C   UNL     1      17.867  -5.615  15.532  1.00  0.00     0.008 A 
ATOM     25  C   UNL     1      16.473  -7.082  13.685  1.00  0.00     0.021 A 
ATOM     26  C   UNL     1      18.278  -6.887  15.186  1.00  0.00     0.021 A 
ATOM     27  C   UNL     1      17.581  -7.619  14.263  1.00  0.00     0.041 A 
ATOM     28  Cl  UNL     1      18.095  -9.229  13.818  1.00  0.00    -0.084 Cl
ENDBRANCH  18  22
ENDBRANCH  12  13
ENDBRANCH   1  12
TORSDOF 7
ENDMDL
MODEL 9
REMARK VINA RESULT:      -5.4      2.124      2.866
REMARK SMILES O=C(CCC[NH+]1CCC(O)(c2ccc(Cl)cc2)CC1)c1ccc(F)cc1
REMARK SMILES IDX 4 1 3 2 2 3 1 4 20 5 21 6 26 7 22 8 25 9 23 10 24 11 5 12
REMARK SMILES IDX 6 13 7 14 19 15 8 16 18 17 9 18 10 20 11 22 12 23 17 24
REMARK SMILES IDX 13 25 16 26 14 27 15 28
REMARK H PARENT 6 19 10 21
ROOT
ATOM      1  C   UNL     1      15.146  -3.632  10.408  1.00  0.00     0.070 C 
ENDROOT
BRANCH   1   2
ATOM      2  C   UNL     1      14.102  -3.096   9.454  1.00  0.00     0.087 C 
BRANCH   2   3
ATOM      3  C   UNL     1      13.440  -4.123   8.646  1.00  0.00     0.163 C 
ATOM      4  O   UNL     1      13.838  -4.405   7.487  1.00  0.00    -0.294 OA
BRANCH   3   5
ATOM      5  C   UNL     1      12.274  -4.887   9.138  1.00  0.00     0.018 A 
ATOM      6  C   UNL     1      10.993  -4.543   8.746  1.00  0.00     0.015 A 
ATOM      7  C   UNL     1      12.434  -5.949   9.991  1.00  0.00     0.015 A 
ATOM      8  C   UNL     1       9.913  -5.258   9.207  1.00  0.00     0.040 A 
ATOM      9  C   UNL     1      11.363  -6.666  10.454  1.00  0.00     0.040 A 
ATOM     10  C   UNL     1      10.100  -6.316  10.059  1.00  0.00     0.123 A 
ATOM     11  F   UNL     1       9.054  -7.055  10.546  1.00  0.00    -0.207 F 
ENDBRANCH   3   5
ENDBRANCH   2   3
ENDBRANCH   1   2
BRANCH   1  12
ATOM     12  C   UNL     1      14.887  -3.058  11.759  1.00  0.00     0.262 C 
BRANCH  12  13
ATOM     13  N   UNL     1      15.813  -3.554  12.769  1.00  0.00    -0.335 N 
ATOM     14  C   UNL     1      15.641  -2.908  14.034  1.00  0.00     0.265 C 
ATOM     15  C   UNL     1      15.684  -4.969  12.900  1.00  0.00     0.265 C 
ATOM     16  C   UNL     1      14.252  -3.113  14.574  1.00  0.00     0.102 C 
ATOM     17  C   UNL     1      14.993  -5.470  14.097  1.00  0.00     0.102 C 
ATOM     18  C   UNL     1      14.005  -4.581  14.757  1.00  0.00     0.100 C 
ATOM     19  H   UNL     1      16.774  -3.268  12.414  1.00  0.00     0.348 HD
BRANCH  18  20
ATOM     20  O   UNL     1      14.099  -4.820  16.150  1.00  0.00    -0.385 OA
ATOM     21  H   UNL     1      14.944  -4.402  16.452  1.00  0.00     0.211 HD
ENDBRANCH  18  20
BRANCH  18  22
ATOM     22  C   UNL     1      12.582  -4.943  14.420  1.00  0.00    -0.016 A 
ATOM     23  C   UNL     1      11.990  -6.097  14.890  1.00  0.00     0.008 A 
ATOM     24  C   UNL     1      11.785  -4.150  13.624  1.00  0.00     0.008 A 
ATOM     25  C   UNL     1      10.694  -6.464  14.605  1.00  0.00     0.021 A 
ATOM     26  C   UNL     1      10.483  -4.498  13.324  1.00  0.00     0.021 A 
ATOM     27  C   UNL     1       9.939  -5.654  13.815  1.00  0.00     0.041 A 
ATOM     28  Cl  UNL     1       8.291  -6.101  13.443  1.00  0.00    -0.084 Cl
ENDBRANCH  18  22
ENDBRANCH  12  13
ENDBRANCH   1  12
TORSDOF 7
ENDMDL
