MODEL 1
REMARK VINA RESULT:      -5.6      0.000      0.000
REMARK SMILES O=S(=O)([N-]CC[NH2+]C/C=C/c1ccc(Br)cc1)c1cccc2cnccc12
REMARK SMILES IDX 6 1 5 2 4 3 2 4 1 5 3 6 18 7 19 8 27 9 20 10 26 11 22 12
REMARK SMILES IDX 21 13 25 14 23 15 24 16 7 17 8 20 9 21 10 22 11 23 12 24
REMARK SMILES IDX 17 25 13 26 16 27 14 28 15 29
REMARK H PARENT 7 18 7 19
ROOT
ATOM      1  C   UNL     1      -4.345 -29.343  74.547  1.00  0.00     0.238 C 
ENDROOT
BRANCH   1   2
ATOM      2  C   UNL     1      -5.852 -29.273  74.476  1.00  0.00    -0.070 C 
BRANCH   2   3
ATOM      3  N   UNL     1      -6.304 -29.365  73.104  1.00  0.00    -0.540 NA
BRANCH   3   4
ATOM      4  S   UNL     1      -7.311 -30.789  72.893  1.00  0.00     0.102 S 
ATOM      5  O   UNL     1      -6.885 -31.698  73.939  1.00  0.00    -0.244 OA
ATOM      6  O   UNL     1      -6.900 -31.352  71.559  1.00  0.00    -0.244 OA
BRANCH   4   7
ATOM      7  C   UNL     1      -8.915 -30.247  72.809  1.00  0.00     0.056 A 
ATOM      8  C   UNL     1      -9.188 -28.900  72.694  1.00  0.00     0.019 A 
ATOM      9  C   UNL     1      -9.986 -31.113  72.854  1.00  0.00     0.002 A 
ATOM     10  C   UNL     1     -10.501 -28.461  72.627  1.00  0.00     0.002 A 
ATOM     11  C   UNL     1      -9.710 -32.458  72.968  1.00  0.00     0.030 A 
ATOM     12  C   UNL     1     -11.316 -30.698  72.789  1.00  0.00     0.001 A 
ATOM     13  C   UNL     1     -11.564 -29.341  72.674  1.00  0.00     0.010 A 
ATOM     14  C   UNL     1     -10.748 -33.343  73.014  1.00  0.00     0.111 A 
ATOM     15  C   UNL     1     -12.345 -31.618  72.839  1.00  0.00     0.119 A 
ATOM     16  N   UNL     1     -12.016 -32.913  72.950  1.00  0.00    -0.264 NA
ENDBRANCH   4   7
ENDBRANCH   3   4
ENDBRANCH   2   3
ENDBRANCH   1   2
BRANCH   1  17
ATOM     17  N   UNL     1      -3.838 -30.673  74.377  1.00  0.00    -0.344 N 
ATOM     18  H   UNL     1      -4.323 -31.323  75.003  1.00  0.00     0.346 HD
ATOM     19  H   UNL     1      -3.957 -30.947  73.373  1.00  0.00     0.346 HD
BRANCH  17  20
ATOM     20  C   UNL     1      -2.413 -30.644  74.627  1.00  0.00     0.289 C 
BRANCH  20  21
ATOM     21  C   UNL     1      -1.608 -30.655  73.402  1.00  0.00     0.034 C 
ATOM     22  C   UNL     1      -0.308 -30.869  73.476  1.00  0.00     0.009 C 
BRANCH  22  23
ATOM     23  C   UNL     1       0.595 -30.904  72.332  1.00  0.00    -0.026 A 
ATOM     24  C   UNL     1       1.808 -30.255  72.391  1.00  0.00     0.009 A 
ATOM     25  C   UNL     1       0.304 -31.563  71.163  1.00  0.00     0.009 A 
ATOM     26  C   UNL     1       2.705 -30.254  71.338  1.00  0.00     0.016 A 
ATOM     27  C   UNL     1       1.205 -31.568  70.090  1.00  0.00     0.016 A 
ATOM     28  C   UNL     1       2.410 -30.916  70.167  1.00  0.00     0.018 A 
ATOM     29  Br  UNL     1       3.627 -30.937  68.687  1.00  0.00    -0.051 Br
ENDBRANCH  22  23
ENDBRANCH  20  21
ENDBRANCH  17  20
ENDBRANCH   1  17
TORSDOF 8
ENDMDL
MODEL 2
REMARK VINA RESULT:      -5.3      6.421     10.776
REMARK SMILES O=S(=O)([N-]CC[NH2+]C/C=C/c1ccc(Br)cc1)c1cccc2cnccc12
REMARK SMILES IDX 6 1 5 2 4 3 2 4 1 5 3 6 18 7 19 8 27 9 20 10 26 11 22 12
REMARK SMILES IDX 21 13 25 14 23 15 24 16 7 17 8 20 9 21 10 22 11 23 12 24
REMARK SMILES IDX 17 25 13 26 16 27 14 28 15 29
REMARK H PARENT 7 18 7 19
ROOT
ATOM      1  C   UNL     1      -2.151 -30.436  73.092  1.00  0.00     0.238 C 
ENDROOT
BRANCH   1   2
ATOM      2  C   UNL     1      -0.893 -30.855  73.816  1.00  0.00    -0.070 C 
BRANCH   2   3
ATOM      3  N   UNL     1       0.282 -30.476  73.061  1.00  0.00    -0.540 NA
BRANCH   3   4
ATOM      4  S   UNL     1       0.983 -31.889  72.285  1.00  0.00     0.102 S 
ATOM      5  O   UNL     1      -0.147 -32.753  72.006  1.00  0.00    -0.244 OA
ATOM      6  O   UNL     1       1.834 -32.527  73.352  1.00  0.00    -0.244 OA
BRANCH   4   7
ATOM      7  C   UNL     1       1.976 -31.320  71.034  1.00  0.00     0.056 A 
ATOM      8  C   UNL     1       2.492 -30.043  71.084  1.00  0.00     0.019 A 
ATOM      9  C   UNL     1       2.295 -32.095  69.940  1.00  0.00     0.002 A 
ATOM     10  C   UNL     1       3.301 -29.580  70.058  1.00  0.00     0.002 A 
ATOM     11  C   UNL     1       1.779 -33.371  69.894  1.00  0.00     0.030 A 
ATOM     12  C   UNL     1       3.108 -31.655  68.895  1.00  0.00     0.001 A 
ATOM     13  C   UNL     1       3.613 -30.368  68.969  1.00  0.00     0.010 A 
ATOM     14  C   UNL     1       2.078 -34.166  68.826  1.00  0.00     0.111 A 
ATOM     15  C   UNL     1       3.391 -32.483  67.827  1.00  0.00     0.119 A 
ATOM     16  N   UNL     1       2.861 -33.714  67.836  1.00  0.00    -0.264 NA
ENDBRANCH   4   7
ENDBRANCH   3   4
ENDBRANCH   2   3
ENDBRANCH   1   2
BRANCH   1  17
ATOM     17  N   UNL     1      -2.919 -29.469  73.820  1.00  0.00    -0.344 N 
ATOM     18  H   UNL     1      -2.786 -28.534  73.422  1.00  0.00     0.346 HD
ATOM     19  H   UNL     1      -3.926 -29.758  73.794  1.00  0.00     0.346 HD
BRANCH  17  20
ATOM     20  C   UNL     1      -2.512 -29.529  75.207  1.00  0.00     0.289 C 
BRANCH  20  21
ATOM     21  C   UNL     1      -2.769 -28.286  75.941  1.00  0.00     0.034 C 
ATOM     22  C   UNL     1      -3.733 -27.477  75.542  1.00  0.00     0.009 C 
BRANCH  22  23
ATOM     23  C   UNL     1      -4.082 -26.218  76.187  1.00  0.00    -0.026 A 
ATOM     24  C   UNL     1      -3.090 -25.379  76.644  1.00  0.00     0.009 A 
ATOM     25  C   UNL     1      -5.378 -25.801  76.374  1.00  0.00     0.009 A 
ATOM     26  C   UNL     1      -3.361 -24.173  77.263  1.00  0.00     0.016 A 
ATOM     27  C   UNL     1      -5.663 -24.581  77.001  1.00  0.00     0.016 A 
ATOM     28  C   UNL     1      -4.661 -23.758  77.450  1.00  0.00     0.018 A 
ATOM     29  Br  UNL     1      -5.076 -22.093  78.304  1.00  0.00    -0.051 Br
ENDBRANCH  22  23
ENDBRANCH  20  21
ENDBRANCH  17  20
ENDBRANCH   1  17
TORSDOF 8
ENDMDL
MODEL 3
REMARK VINA RESULT:      -5.2      1.970      2.466
REMARK SMILES O=S(=O)([N-]CC[NH2+]C/C=C/c1ccc(Br)cc1)c1cccc2cnccc12
REMARK SMILES IDX 6 1 5 2 4 3 2 4 1 5 3 6 18 7 19 8 27 9 20 10 26 11 22 12
REMARK SMILES IDX 21 13 25 14 23 15 24 16 7 17 8 20 9 21 10 22 11 23 12 24
REMARK SMILES IDX 17 25 13 26 16 27 14 28 15 29
REMARK H PARENT 7 18 7 19
ROOT
ATOM      1  C   UNL     1      -5.699 -32.310  72.505  1.00  0.00     0.238 C 
ENDROOT
BRANCH   1   2
ATOM      2  C   UNL     1      -6.907 -32.766  73.290  1.00  0.00    -0.070 C 
BRANCH   2   3
ATOM      3  N   UNL     1      -7.675 -31.631  73.751  1.00  0.00    -0.540 NA
BRANCH   3   4
ATOM      4  S   UNL     1      -8.677 -31.009  72.448  1.00  0.00     0.102 S 
ATOM      5  O   UNL     1      -8.984 -32.169  71.636  1.00  0.00    -0.244 OA
ATOM      6  O   UNL     1      -7.766 -30.096  71.669  1.00  0.00    -0.244 OA
BRANCH   4   7
ATOM      7  C   UNL     1      -9.910 -30.097  73.169  1.00  0.00     0.056 A 
ATOM      8  C   UNL     1      -9.871 -29.821  74.519  1.00  0.00     0.019 A 
ATOM      9  C   UNL     1     -10.979 -29.608  72.449  1.00  0.00     0.002 A 
ATOM     10  C   UNL     1     -10.883 -29.077  75.106  1.00  0.00     0.002 A 
ATOM     11  C   UNL     1     -11.014 -29.884  71.100  1.00  0.00     0.030 A 
ATOM     12  C   UNL     1     -12.010 -28.857  73.014  1.00  0.00     0.001 A 
ATOM     13  C   UNL     1     -11.947 -28.594  74.371  1.00  0.00     0.010 A 
ATOM     14  C   UNL     1     -12.058 -29.414  70.357  1.00  0.00     0.111 A 
ATOM     15  C   UNL     1     -13.053 -28.395  72.236  1.00  0.00     0.119 A 
ATOM     16  N   UNL     1     -13.034 -28.695  70.929  1.00  0.00    -0.264 NA
ENDBRANCH   4   7
ENDBRANCH   3   4
ENDBRANCH   2   3
ENDBRANCH   1   2
BRANCH   1  17
ATOM     17  N   UNL     1      -4.932 -31.311  73.189  1.00  0.00    -0.344 N 
ATOM     18  H   UNL     1      -4.644 -30.573  72.539  1.00  0.00     0.346 HD
ATOM     19  H   UNL     1      -5.512 -30.926  73.972  1.00  0.00     0.346 HD
BRANCH  17  20
ATOM     20  C   UNL     1      -3.796 -31.963  73.804  1.00  0.00     0.289 C 
BRANCH  20  21
ATOM     21  C   UNL     1      -2.613 -32.003  72.940  1.00  0.00     0.034 C 
ATOM     22  C   UNL     1      -1.565 -31.254  73.232  1.00  0.00     0.009 C 
BRANCH  22  23
ATOM     23  C   UNL     1      -0.334 -31.207  72.452  1.00  0.00    -0.026 A 
ATOM     24  C   UNL     1       0.769 -30.546  72.945  1.00  0.00     0.009 A 
ATOM     25  C   UNL     1      -0.200 -31.799  71.220  1.00  0.00     0.009 A 
ATOM     26  C   UNL     1       1.963 -30.469  72.251  1.00  0.00     0.016 A 
ATOM     27  C   UNL     1       1.005 -31.727  70.509  1.00  0.00     0.016 A 
ATOM     28  C   UNL     1       2.094 -31.063  71.016  1.00  0.00     0.018 A 
ATOM     29  Br  UNL     1       3.732 -30.978  70.025  1.00  0.00    -0.051 Br
ENDBRANCH  22  23
ENDBRANCH  20  21
ENDBRANCH  17  20
ENDBRANCH   1  17
TORSDOF 8
ENDMDL
MODEL 4
REMARK VINA RESULT:      -5.2      6.155     10.485
REMARK SMILES O=S(=O)([N-]CC[NH2+]C/C=C/c1ccc(Br)cc1)c1cccc2cnccc12
REMARK SMILES IDX 6 1 5 2 4 3 2 4 1 5 3 6 18 7 19 8 27 9 20 10 26 11 22 12
REMARK SMILES IDX 21 13 25 14 23 15 24 16 7 17 8 20 9 21 10 22 11 23 12 24
REMARK SMILES IDX 17 25 13 26 16 27 14 28 15 29
REMARK H PARENT 7 18 7 19
ROOT
ATOM      1  C   UNL     1      -3.010 -30.831  73.038  1.00  0.00     0.238 C 
ENDROOT
BRANCH   1   2
ATOM      2  C   UNL     1      -1.647 -31.283  72.566  1.00  0.00    -0.070 C 
BRANCH   2   3
ATOM      3  N   UNL     1      -1.015 -32.122  73.560  1.00  0.00    -0.540 NA
BRANCH   3   4
ATOM      4  S   UNL     1       0.340 -32.986  72.849  1.00  0.00     0.102 S 
ATOM      5  O   UNL     1      -0.270 -34.046  72.070  1.00  0.00    -0.244 OA
ATOM      6  O   UNL     1       1.061 -33.596  74.022  1.00  0.00    -0.244 OA
BRANCH   4   7
ATOM      7  C   UNL     1       1.333 -31.825  72.115  1.00  0.00     0.056 A 
ATOM      8  C   UNL     1       1.656 -30.665  72.786  1.00  0.00     0.019 A 
ATOM      9  C   UNL     1       1.841 -31.990  70.845  1.00  0.00     0.002 A 
ATOM     10  C   UNL     1       2.467 -29.716  72.182  1.00  0.00     0.002 A 
ATOM     11  C   UNL     1       1.517 -33.151  70.178  1.00  0.00     0.030 A 
ATOM     12  C   UNL     1       2.659 -31.053  70.214  1.00  0.00     0.001 A 
ATOM     13  C   UNL     1       2.969 -29.896  70.909  1.00  0.00     0.010 A 
ATOM     14  C   UNL     1       2.005 -33.348  68.919  1.00  0.00     0.111 A 
ATOM     15  C   UNL     1       3.137 -31.280  68.939  1.00  0.00     0.119 A 
ATOM     16  N   UNL     1       2.788 -32.426  68.339  1.00  0.00    -0.264 NA
ENDBRANCH   4   7
ENDBRANCH   3   4
ENDBRANCH   2   3
ENDBRANCH   1   2
BRANCH   1  17
ATOM     17  N   UNL     1      -3.005 -29.500  73.568  1.00  0.00    -0.344 N 
ATOM     18  H   UNL     1      -2.150 -29.007  73.292  1.00  0.00     0.346 HD
ATOM     19  H   UNL     1      -3.861 -29.003  73.226  1.00  0.00     0.346 HD
BRANCH  17  20
ATOM     20  C   UNL     1      -3.133 -29.592  75.007  1.00  0.00     0.289 C 
BRANCH  20  21
ATOM     21  C   UNL     1      -3.471 -28.315  75.642  1.00  0.00     0.034 C 
ATOM     22  C   UNL     1      -4.349 -27.512  75.071  1.00  0.00     0.009 C 
BRANCH  22  23
ATOM     23  C   UNL     1      -4.766 -26.222  75.605  1.00  0.00    -0.026 A 
ATOM     24  C   UNL     1      -4.340 -25.057  75.005  1.00  0.00     0.009 A 
ATOM     25  C   UNL     1      -5.583 -26.088  76.701  1.00  0.00     0.009 A 
ATOM     26  C   UNL     1      -4.703 -23.805  75.466  1.00  0.00     0.016 A 
ATOM     27  C   UNL     1      -5.956 -24.824  77.177  1.00  0.00     0.016 A 
ATOM     28  C   UNL     1      -5.521 -23.675  76.566  1.00  0.00     0.018 A 
ATOM     29  Br  UNL     1      -6.045 -21.957  77.235  1.00  0.00    -0.051 Br
ENDBRANCH  22  23
ENDBRANCH  20  21
ENDBRANCH  17  20
ENDBRANCH   1  17
TORSDOF 8
ENDMDL
MODEL 5
REMARK VINA RESULT:      -5.1      7.261     11.112
REMARK SMILES O=S(=O)([N-]CC[NH2+]C/C=C/c1ccc(Br)cc1)c1cccc2cnccc12
REMARK SMILES IDX 6 1 5 2 4 3 2 4 1 5 3 6 18 7 19 8 27 9 20 10 26 11 22 12
REMARK SMILES IDX 21 13 25 14 23 15 24 16 7 17 8 20 9 21 10 22 11 23 12 24
REMARK SMILES IDX 17 25 13 26 16 27 14 28 15 29
REMARK H PARENT 7 18 7 19
ROOT
ATOM      1  C   UNL     1       1.803 -34.422  69.182  1.00  0.00     0.238 C 
ENDROOT
BRANCH   1   2
ATOM      2  C   UNL     1       2.634 -33.571  68.250  1.00  0.00    -0.070 C 
BRANCH   2   3
ATOM      3  N   UNL     1       4.043 -33.718  68.544  1.00  0.00    -0.540 NA
BRANCH   3   4
ATOM      4  S   UNL     1       4.747 -32.155  68.930  1.00  0.00     0.102 S 
ATOM      5  O   UNL     1       4.700 -31.415  67.685  1.00  0.00    -0.244 OA
ATOM      6  O   UNL     1       6.184 -32.456  69.265  1.00  0.00    -0.244 OA
BRANCH   4   7
ATOM      7  C   UNL     1       3.949 -31.586  70.313  1.00  0.00     0.056 A 
ATOM      8  C   UNL     1       3.314 -30.362  70.294  1.00  0.00     0.019 A 
ATOM      9  C   UNL     1       3.909 -32.307  71.486  1.00  0.00     0.002 A 
ATOM     10  C   UNL     1       2.664 -29.899  71.428  1.00  0.00     0.002 A 
ATOM     11  C   UNL     1       4.544 -33.529  71.502  1.00  0.00     0.030 A 
ATOM     12  C   UNL     1       3.263 -31.865  72.641  1.00  0.00     0.001 A 
ATOM     13  C   UNL     1       2.632 -30.634  72.596  1.00  0.00     0.010 A 
ATOM     14  C   UNL     1       4.521 -34.271  72.647  1.00  0.00     0.111 A 
ATOM     15  C   UNL     1       3.258 -32.638  73.785  1.00  0.00     0.119 A 
ATOM     16  N   UNL     1       3.892 -33.818  73.742  1.00  0.00    -0.264 NA
ENDBRANCH   4   7
ENDBRANCH   3   4
ENDBRANCH   2   3
ENDBRANCH   1   2
BRANCH   1  17
ATOM     17  N   UNL     1       0.933 -33.649  70.019  1.00  0.00    -0.344 N 
ATOM     18  H   UNL     1       1.267 -32.683  70.086  1.00  0.00     0.346 HD
ATOM     19  H   UNL     1      -0.035 -33.694  69.622  1.00  0.00     0.346 HD
BRANCH  17  20
ATOM     20  C   UNL     1       0.874 -34.291  71.314  1.00  0.00     0.289 C 
BRANCH  20  21
ATOM     21  C   UNL     1      -0.076 -33.656  72.233  1.00  0.00     0.034 C 
ATOM     22  C   UNL     1      -0.347 -32.370  72.109  1.00  0.00     0.009 C 
BRANCH  22  23
ATOM     23  C   UNL     1      -1.270 -31.629  72.959  1.00  0.00    -0.026 A 
ATOM     24  C   UNL     1      -2.560 -32.079  73.132  1.00  0.00     0.009 A 
ATOM     25  C   UNL     1      -0.925 -30.476  73.620  1.00  0.00     0.009 A 
ATOM     26  C   UNL     1      -3.480 -31.418  73.926  1.00  0.00     0.016 A 
ATOM     27  C   UNL     1      -1.848 -29.798  74.427  1.00  0.00     0.016 A 
ATOM     28  C   UNL     1      -3.130 -30.262  74.587  1.00  0.00     0.018 A 
ATOM     29  Br  UNL     1      -4.376 -29.319  75.696  1.00  0.00    -0.051 Br
ENDBRANCH  22  23
ENDBRANCH  20  21
ENDBRANCH  17  20
ENDBRANCH   1  17
TORSDOF 8
ENDMDL
MODEL 6
REMARK VINA RESULT:      -5.1      5.736      7.465
REMARK SMILES O=S(=O)([N-]CC[NH2+]C/C=C/c1ccc(Br)cc1)c1cccc2cnccc12
REMARK SMILES IDX 6 1 5 2 4 3 2 4 1 5 3 6 18 7 19 8 27 9 20 10 26 11 22 12
REMARK SMILES IDX 21 13 25 14 23 15 24 16 7 17 8 20 9 21 10 22 11 23 12 24
REMARK SMILES IDX 17 25 13 26 16 27 14 28 15 29
REMARK H PARENT 7 18 7 19
ROOT
ATOM      1  C   UNL     1      -4.913 -27.544  75.447  1.00  0.00     0.238 C 
ENDROOT
BRANCH   1   2
ATOM      2  C   UNL     1      -4.345 -28.894  75.077  1.00  0.00    -0.070 C 
BRANCH   2   3
ATOM      3  N   UNL     1      -4.635 -29.210  73.695  1.00  0.00    -0.540 NA
BRANCH   3   4
ATOM      4  S   UNL     1      -5.431 -30.773  73.586  1.00  0.00     0.102 S 
ATOM      5  O   UNL     1      -5.142 -31.420  74.850  1.00  0.00    -0.244 OA
ATOM      6  O   UNL     1      -4.698 -31.498  72.488  1.00  0.00    -0.244 OA
BRANCH   4   7
ATOM      7  C   UNL     1      -7.028 -30.478  73.102  1.00  0.00     0.056 A 
ATOM      8  C   UNL     1      -7.546 -29.201  73.156  1.00  0.00     0.019 A 
ATOM      9  C   UNL     1      -7.855 -31.483  72.648  1.00  0.00     0.002 A 
ATOM     10  C   UNL     1      -8.853 -28.965  72.761  1.00  0.00     0.002 A 
ATOM     11  C   UNL     1      -7.335 -32.757  72.594  1.00  0.00     0.030 A 
ATOM     12  C   UNL     1      -9.174 -31.273  72.244  1.00  0.00     0.001 A 
ATOM     13  C   UNL     1      -9.670 -29.982  72.308  1.00  0.00     0.010 A 
ATOM     14  C   UNL     1      -8.126 -33.775  72.147  1.00  0.00     0.111 A 
ATOM     15  C   UNL     1      -9.950 -32.323  71.798  1.00  0.00     0.119 A 
ATOM     16  N   UNL     1      -9.391 -33.541  71.767  1.00  0.00    -0.264 NA
ENDBRANCH   4   7
ENDBRANCH   3   4
ENDBRANCH   2   3
ENDBRANCH   1   2
BRANCH   1  17
ATOM     17  N   UNL     1      -4.148 -26.452  74.921  1.00  0.00    -0.344 N 
ATOM     18  H   UNL     1      -3.623 -26.750  74.093  1.00  0.00     0.346 HD
ATOM     19  H   UNL     1      -4.803 -25.665  74.697  1.00  0.00     0.346 HD
BRANCH  17  20
ATOM     20  C   UNL     1      -3.275 -25.972  75.970  1.00  0.00     0.289 C 
BRANCH  20  21
ATOM     21  C   UNL     1      -3.343 -24.521  76.162  1.00  0.00     0.034 C 
ATOM     22  C   UNL     1      -4.303 -23.827  75.579  1.00  0.00     0.009 C 
BRANCH  22  23
ATOM     23  C   UNL     1      -4.474 -22.385  75.695  1.00  0.00    -0.026 A 
ATOM     24  C   UNL     1      -4.120 -21.739  76.859  1.00  0.00     0.009 A 
ATOM     25  C   UNL     1      -4.981 -21.603  74.685  1.00  0.00     0.009 A 
ATOM     26  C   UNL     1      -4.259 -20.374  77.026  1.00  0.00     0.016 A 
ATOM     27  C   UNL     1      -5.126 -20.218  74.844  1.00  0.00     0.016 A 
ATOM     28  C   UNL     1      -4.768 -19.593  76.012  1.00  0.00     0.018 A 
ATOM     29  Br  UNL     1      -4.975 -17.697  76.206  1.00  0.00    -0.051 Br
ENDBRANCH  22  23
ENDBRANCH  20  21
ENDBRANCH  17  20
ENDBRANCH   1  17
TORSDOF 8
ENDMDL
MODEL 7
REMARK VINA RESULT:      -5.1      1.293      1.618
REMARK SMILES O=S(=O)([N-]CC[NH2+]C/C=C/c1ccc(Br)cc1)c1cccc2cnccc12
REMARK SMILES IDX 6 1 5 2 4 3 2 4 1 5 3 6 18 7 19 8 27 9 20 10 26 11 22 12
REMARK SMILES IDX 21 13 25 14 23 15 24 16 7 17 8 20 9 21 10 22 11 23 12 24
REMARK SMILES IDX 17 25 13 26 16 27 14 28 15 29
REMARK H PARENT 7 18 7 19
ROOT
ATOM      1  C   UNL     1      -4.336 -30.300  73.746  1.00  0.00     0.238 C 
ENDROOT
BRANCH   1   2
ATOM      2  C   UNL     1      -4.666 -31.651  73.153  1.00  0.00    -0.070 C 
BRANCH   2   3
ATOM      3  N   UNL     1      -5.617 -31.514  72.071  1.00  0.00    -0.540 NA
BRANCH   3   4
ATOM      4  S   UNL     1      -7.055 -32.467  72.406  1.00  0.00     0.102 S 
ATOM      5  O   UNL     1      -6.708 -33.258  73.569  1.00  0.00    -0.244 OA
ATOM      6  O   UNL     1      -7.192 -33.382  71.217  1.00  0.00    -0.244 OA
BRANCH   4   7
ATOM      7  C   UNL     1      -8.361 -31.387  72.443  1.00  0.00     0.056 A 
ATOM      8  C   UNL     1      -8.145 -30.032  72.316  1.00  0.00     0.019 A 
ATOM      9  C   UNL     1      -9.662 -31.814  72.602  1.00  0.00     0.002 A 
ATOM     10  C   UNL     1      -9.216 -29.152  72.349  1.00  0.00     0.002 A 
ATOM     11  C   UNL     1      -9.874 -33.169  72.728  1.00  0.00     0.030 A 
ATOM     12  C   UNL     1     -10.757 -30.950  72.638  1.00  0.00     0.001 A 
ATOM     13  C   UNL     1     -10.514 -29.594  72.509  1.00  0.00     0.010 A 
ATOM     14  C   UNL     1     -11.151 -33.625  72.884  1.00  0.00     0.111 A 
ATOM     15  C   UNL     1     -12.037 -31.443  72.799  1.00  0.00     0.119 A 
ATOM     16  N   UNL     1     -12.183 -32.770  72.916  1.00  0.00    -0.264 NA
ENDBRANCH   4   7
ENDBRANCH   3   4
ENDBRANCH   2   3
ENDBRANCH   1   2
BRANCH   1  17
ATOM     17  N   UNL     1      -2.926 -30.085  73.893  1.00  0.00    -0.344 N 
ATOM     18  H   UNL     1      -2.589 -29.425  73.186  1.00  0.00     0.346 HD
ATOM     19  H   UNL     1      -2.744 -29.733  74.863  1.00  0.00     0.346 HD
BRANCH  17  20
ATOM     20  C   UNL     1      -2.265 -31.368  73.792  1.00  0.00     0.289 C 
BRANCH  20  21
ATOM     21  C   UNL     1      -0.901 -31.278  73.264  1.00  0.00     0.034 C 
ATOM     22  C   UNL     1      -0.642 -31.715  72.045  1.00  0.00     0.009 C 
BRANCH  22  23
ATOM     23  C   UNL     1       0.670 -31.680  71.411  1.00  0.00    -0.026 A 
ATOM     24  C   UNL     1       0.772 -31.593  70.041  1.00  0.00     0.009 A 
ATOM     25  C   UNL     1       1.849 -31.728  72.116  1.00  0.00     0.009 A 
ATOM     26  C   UNL     1       1.988 -31.555  69.384  1.00  0.00     0.016 A 
ATOM     27  C   UNL     1       3.087 -31.691  71.461  1.00  0.00     0.016 A 
ATOM     28  C   UNL     1       3.168 -31.605  70.094  1.00  0.00     0.018 A 
ATOM     29  Br  UNL     1       4.873 -31.554  69.219  1.00  0.00    -0.051 Br
ENDBRANCH  22  23
ENDBRANCH  20  21
ENDBRANCH  17  20
ENDBRANCH   1  17
TORSDOF 8
ENDMDL
MODEL 8
REMARK VINA RESULT:      -5.1      6.095      8.368
REMARK SMILES O=S(=O)([N-]CC[NH2+]C/C=C/c1ccc(Br)cc1)c1cccc2cnccc12
REMARK SMILES IDX 6 1 5 2 4 3 2 4 1 5 3 6 18 7 19 8 27 9 20 10 26 11 22 12
REMARK SMILES IDX 21 13 25 14 23 15 24 16 7 17 8 20 9 21 10 22 11 23 12 24
REMARK SMILES IDX 17 25 13 26 16 27 14 28 15 29
REMARK H PARENT 7 18 7 19
ROOT
ATOM      1  C   UNL     1     -15.241 -30.185  71.145  1.00  0.00     0.238 C 
ENDROOT
BRANCH   1   2
ATOM      2  C   UNL     1     -14.803 -31.462  71.823  1.00  0.00    -0.070 C 
BRANCH   2   3
ATOM      3  N   UNL     1     -14.682 -31.266  73.251  1.00  0.00    -0.540 NA
BRANCH   3   4
ATOM      4  S   UNL     1     -13.361 -32.237  73.885  1.00  0.00     0.102 S 
ATOM      5  O   UNL     1     -12.917 -33.032  72.758  1.00  0.00    -0.244 OA
ATOM      6  O   UNL     1     -14.006 -33.144  74.899  1.00  0.00    -0.244 OA
BRANCH   4   7
ATOM      7  C   UNL     1     -12.302 -31.171  74.671  1.00  0.00     0.056 A 
ATOM      8  C   UNL     1     -12.639 -29.842  74.820  1.00  0.00     0.019 A 
ATOM      9  C   UNL     1     -11.090 -31.582  75.180  1.00  0.00     0.002 A 
ATOM     10  C   UNL     1     -11.770 -28.973  75.462  1.00  0.00     0.002 A 
ATOM     11  C   UNL     1     -10.758 -32.911  75.031  1.00  0.00     0.030 A 
ATOM     12  C   UNL     1     -10.197 -30.730  75.830  1.00  0.00     0.001 A 
ATOM     13  C   UNL     1     -10.558 -29.400  75.966  1.00  0.00     0.010 A 
ATOM     14  C   UNL     1      -9.565 -33.352  75.526  1.00  0.00     0.111 A 
ATOM     15  C   UNL     1      -8.997 -31.206  76.319  1.00  0.00     0.119 A 
ATOM     16  N   UNL     1      -8.727 -32.508  76.145  1.00  0.00    -0.264 NA
ENDBRANCH   4   7
ENDBRANCH   3   4
ENDBRANCH   2   3
ENDBRANCH   1   2
BRANCH   1  17
ATOM     17  N   UNL     1     -14.702 -29.010  71.764  1.00  0.00    -0.344 N 
ATOM     18  H   UNL     1     -15.426 -28.290  71.857  1.00  0.00     0.346 HD
ATOM     19  H   UNL     1     -14.305 -29.278  72.696  1.00  0.00     0.346 HD
BRANCH  17  20
ATOM     20  C   UNL     1     -13.588 -28.553  70.961  1.00  0.00     0.289 C 
BRANCH  20  21
ATOM     21  C   UNL     1     -12.289 -28.731  71.616  1.00  0.00     0.034 C 
ATOM     22  C   UNL     1     -11.528 -29.760  71.292  1.00  0.00     0.009 C 
BRANCH  22  23
ATOM     23  C   UNL     1     -10.221 -30.041  71.872  1.00  0.00    -0.026 A 
ATOM     24  C   UNL     1      -9.472 -29.020  72.414  1.00  0.00     0.009 A 
ATOM     25  C   UNL     1      -9.671 -31.300  71.915  1.00  0.00     0.009 A 
ATOM     26  C   UNL     1      -8.227 -29.227  72.978  1.00  0.00     0.016 A 
ATOM     27  C   UNL     1      -8.410 -31.521  72.484  1.00  0.00     0.016 A 
ATOM     28  C   UNL     1      -7.679 -30.490  73.019  1.00  0.00     0.018 A 
ATOM     29  Br  UNL     1      -5.956 -30.817  73.792  1.00  0.00    -0.051 Br
ENDBRANCH  22  23
ENDBRANCH  20  21
ENDBRANCH  17  20
ENDBRANCH   1  17
TORSDOF 8
ENDMDL
MODEL 9
REMARK VINA RESULT:      -5.1      3.985      5.466
REMARK SMILES O=S(=O)([N-]CC[NH2+]C/C=C/c1ccc(Br)cc1)c1cccc2cnccc12
REMARK SMILES IDX 6 1 5 2 4 3 2 4 1 5 3 6 18 7 19 8 27 9 20 10 26 11 22 12
REMARK SMILES IDX 21 13 25 14 23 15 24 16 7 17 8 20 9 21 10 22 11 23 12 24
REMARK SMILES IDX 17 25 13 26 16 27 14 28 15 29
REMARK H PARENT 7 18 7 19
ROOT
ATOM      1  C   UNL     1      -2.571 -30.142  74.454  1.00  0.00     0.238 C 
ENDROOT
BRANCH   1   2
ATOM      2  C   UNL     1      -3.753 -30.252  73.518  1.00  0.00    -0.070 C 
BRANCH   2   3
ATOM      3  N   UNL     1      -4.996 -30.143  74.251  1.00  0.00    -0.540 NA
BRANCH   3   4
ATOM      4  S   UNL     1      -5.726 -28.569  73.973  1.00  0.00     0.102 S 
ATOM      5  O   UNL     1      -6.794 -28.822  73.026  1.00  0.00    -0.244 OA
ATOM      6  O   UNL     1      -4.650 -27.765  73.291  1.00  0.00    -0.244 OA
BRANCH   4   7
ATOM      7  C   UNL     1      -6.051 -27.903  75.497  1.00  0.00     0.056 A 
ATOM      8  C   UNL     1      -6.688 -28.655  76.462  1.00  0.00     0.019 A 
ATOM      9  C   UNL     1      -5.702 -26.611  75.824  1.00  0.00     0.002 A 
ATOM     10  C   UNL     1      -6.954 -28.106  77.707  1.00  0.00     0.002 A 
ATOM     11  C   UNL     1      -5.065 -25.863  74.858  1.00  0.00     0.030 A 
ATOM     12  C   UNL     1      -5.957 -26.034  77.068  1.00  0.00     0.001 A 
ATOM     13  C   UNL     1      -6.598 -26.810  78.019  1.00  0.00     0.010 A 
ATOM     14  C   UNL     1      -4.702 -24.580  75.149  1.00  0.00     0.111 A 
ATOM     15  C   UNL     1      -5.579 -24.733  77.332  1.00  0.00     0.119 A 
ATOM     16  N   UNL     1      -4.963 -24.053  76.355  1.00  0.00    -0.264 NA
ENDBRANCH   4   7
ENDBRANCH   3   4
ENDBRANCH   2   3
ENDBRANCH   1   2
BRANCH   1  17
ATOM     17  N   UNL     1      -1.351 -29.813  73.777  1.00  0.00    -0.344 N 
ATOM     18  H   UNL     1      -1.509 -29.750  72.767  1.00  0.00     0.346 HD
ATOM     19  H   UNL     1      -0.989 -28.911  74.167  1.00  0.00     0.346 HD
BRANCH  17  20
ATOM     20  C   UNL     1      -0.371 -30.825  74.108  1.00  0.00     0.289 C 
BRANCH  20  21
ATOM     21  C   UNL     1       0.471 -31.210  72.972  1.00  0.00     0.034 C 
ATOM     22  C   UNL     1       1.603 -30.568  72.748  1.00  0.00     0.009 C 
BRANCH  22  23
ATOM     23  C   UNL     1       2.521 -30.858  71.654  1.00  0.00    -0.026 A 
ATOM     24  C   UNL     1       2.759 -29.911  70.683  1.00  0.00     0.009 A 
ATOM     25  C   UNL     1       3.186 -32.054  71.526  1.00  0.00     0.009 A 
ATOM     26  C   UNL     1       3.619 -30.130  69.623  1.00  0.00     0.016 A 
ATOM     27  C   UNL     1       4.060 -32.286  70.456  1.00  0.00     0.016 A 
ATOM     28  C   UNL     1       4.284 -31.330  69.498  1.00  0.00     0.018 A 
ATOM     29  Br  UNL     1       5.485 -31.670  68.043  1.00  0.00    -0.051 Br
ENDBRANCH  22  23
ENDBRANCH  20  21
ENDBRANCH  17  20
ENDBRANCH   1  17
TORSDOF 8
ENDMDL
