MODEL 1
REMARK VINA RESULT:      -5.4      0.000      0.000
REMARK SMILES O=c1cc(-c2ccccc2)oc2cc(O)cc(O)c12
REMARK SMILES IDX 1 1 2 2 3 3 4 4 11 5 12 6 13 7 14 8 16 9 17 10 19 11 5 12
REMARK SMILES IDX 6 13 10 14 7 15 9 16 8 17 18 18 15 20
REMARK H PARENT 18 19 15 21
ROOT
ATOM      1  O   UNL     1       6.155 -19.053   5.127  1.00  0.00    -0.289 OA
ATOM      2  C   UNL     1       6.693 -18.169   4.413  1.00  0.00     0.197 A 
ATOM      3  C   UNL     1       6.305 -17.930   3.087  1.00  0.00     0.100 A 
ATOM      4  C   UNL     1       6.907 -16.957   2.325  1.00  0.00     0.138 A 
ATOM      5  O   UNL     1       7.861 -16.266   2.901  1.00  0.00    -0.456 OA
ATOM      6  C   UNL     1       8.267 -16.442   4.134  1.00  0.00     0.146 A 
ATOM      7  C   UNL     1       9.285 -15.675   4.688  1.00  0.00     0.094 A 
ATOM      8  C   UNL     1       9.734 -15.833   5.976  1.00  0.00     0.123 A 
ATOM      9  C   UNL     1       9.158 -16.796   6.773  1.00  0.00     0.093 A 
ATOM     10  C   UNL     1       8.145 -17.578   6.261  1.00  0.00     0.134 A 
ATOM     11  C   UNL     1       7.701 -17.402   4.946  1.00  0.00     0.107 A 
ENDROOT
BRANCH   4  12
ATOM     12  C   UNL     1       6.509 -16.700   0.938  1.00  0.00     0.017 A 
ATOM     13  C   UNL     1       5.259 -16.283   0.564  1.00  0.00     0.012 A 
ATOM     14  C   UNL     1       7.436 -16.884  -0.072  1.00  0.00     0.012 A 
ATOM     15  C   UNL     1       4.926 -16.050  -0.772  1.00  0.00     0.001 A 
ATOM     16  C   UNL     1       7.135 -16.661  -1.407  1.00  0.00     0.001 A 
ATOM     17  C   UNL     1       5.862 -16.237  -1.766  1.00  0.00     0.000 A 
ENDBRANCH   4  12
BRANCH  10  18
ATOM     18  O   UNL     1       7.571 -18.539   7.058  1.00  0.00    -0.507 OA
ATOM     19  H   UNL     1       6.759 -19.041   6.745  1.00  0.00     0.293 HD
ENDBRANCH  10  18
BRANCH   8  20
ATOM     20  O   UNL     1      10.762 -15.038   6.490  1.00  0.00    -0.508 OA
ATOM     21  H   UNL     1      11.677 -14.983   6.067  1.00  0.00     0.293 HD
ENDBRANCH   8  20
TORSDOF 3
ENDMDL
MODEL 2
REMARK VINA RESULT:      -5.4      3.184      7.495
REMARK SMILES O=c1cc(-c2ccccc2)oc2cc(O)cc(O)c12
REMARK SMILES IDX 1 1 2 2 3 3 4 4 11 5 12 6 13 7 14 8 16 9 17 10 19 11 5 12
REMARK SMILES IDX 6 13 10 14 7 15 9 16 8 17 18 18 15 20
REMARK H PARENT 18 19 15 21
ROOT
ATOM      1  O   UNL     1       7.412 -17.696   6.700  1.00  0.00    -0.289 OA
ATOM      2  C   UNL     1       8.650 -17.621   6.494  1.00  0.00     0.197 A 
ATOM      3  C   UNL     1       9.599 -17.905   7.487  1.00  0.00     0.100 A 
ATOM      4  C   UNL     1      10.948 -17.817   7.239  1.00  0.00     0.138 A 
ATOM      5  O   UNL     1      11.301 -17.452   6.030  1.00  0.00    -0.456 OA
ATOM      6  C   UNL     1      10.463 -17.174   5.062  1.00  0.00     0.146 A 
ATOM      7  C   UNL     1      10.902 -16.793   3.799  1.00  0.00     0.094 A 
ATOM      8  C   UNL     1      10.051 -16.494   2.763  1.00  0.00     0.123 A 
ATOM      9  C   UNL     1       8.692 -16.571   2.969  1.00  0.00     0.093 A 
ATOM     10  C   UNL     1       8.217 -16.945   4.207  1.00  0.00     0.134 A 
ATOM     11  C   UNL     1       9.100 -17.245   5.251  1.00  0.00     0.107 A 
ENDROOT
BRANCH   4  12
ATOM     12  C   UNL     1      11.947 -18.112   8.270  1.00  0.00     0.017 A 
ATOM     13  C   UNL     1      11.652 -18.663   9.489  1.00  0.00     0.012 A 
ATOM     14  C   UNL     1      13.277 -17.827   8.018  1.00  0.00     0.012 A 
ATOM     15  C   UNL     1      12.639 -18.927  10.441  1.00  0.00     0.001 A 
ATOM     16  C   UNL     1      14.279 -18.078   8.942  1.00  0.00     0.001 A 
ATOM     17  C   UNL     1      13.960 -18.636  10.173  1.00  0.00     0.000 A 
ENDBRANCH   4  12
BRANCH  10  18
ATOM     18  O   UNL     1       6.860 -17.021   4.411  1.00  0.00    -0.507 OA
ATOM     19  H   UNL     1       6.236 -17.163   3.637  1.00  0.00     0.293 HD
ENDBRANCH  10  18
BRANCH   8  20
ATOM     20  O   UNL     1      10.538 -16.115   1.510  1.00  0.00    -0.508 OA
ATOM     21  H   UNL     1      11.340 -15.513   1.391  1.00  0.00     0.293 HD
ENDBRANCH   8  20
TORSDOF 3
ENDMDL
MODEL 3
REMARK VINA RESULT:      -5.4      3.316      7.684
REMARK SMILES O=c1cc(-c2ccccc2)oc2cc(O)cc(O)c12
REMARK SMILES IDX 1 1 2 2 3 3 4 4 11 5 12 6 13 7 14 8 16 9 17 10 19 11 5 12
REMARK SMILES IDX 6 13 10 14 7 15 9 16 8 17 18 18 15 20
REMARK H PARENT 18 19 15 21
ROOT
ATOM      1  O   UNL     1       7.657 -17.572   7.019  1.00  0.00    -0.289 OA
ATOM      2  C   UNL     1       8.879 -17.531   6.728  1.00  0.00     0.197 A 
ATOM      3  C   UNL     1       9.888 -17.814   7.660  1.00  0.00     0.100 A 
ATOM      4  C   UNL     1      11.218 -17.763   7.319  1.00  0.00     0.138 A 
ATOM      5  O   UNL     1      11.495 -17.435   6.080  1.00  0.00    -0.456 OA
ATOM      6  C   UNL     1      10.599 -17.159   5.165  1.00  0.00     0.146 A 
ATOM      7  C   UNL     1      10.958 -16.818   3.866  1.00  0.00     0.094 A 
ATOM      8  C   UNL     1      10.045 -16.524   2.883  1.00  0.00     0.123 A 
ATOM      9  C   UNL     1       8.701 -16.563   3.184  1.00  0.00     0.093 A 
ATOM     10  C   UNL     1       8.305 -16.897   4.460  1.00  0.00     0.134 A 
ATOM     11  C   UNL     1       9.251 -17.194   5.448  1.00  0.00     0.107 A 
ENDROOT
BRANCH   4  12
ATOM     12  C   UNL     1      12.279 -18.058   8.286  1.00  0.00     0.017 A 
ATOM     13  C   UNL     1      13.617 -17.946   8.014  1.00  0.00     0.012 A 
ATOM     14  C   UNL     1      11.932 -18.475   9.559  1.00  0.00     0.012 A 
ATOM     15  C   UNL     1      14.594 -18.238   8.969  1.00  0.00     0.001 A 
ATOM     16  C   UNL     1      12.878 -18.772  10.527  1.00  0.00     0.001 A 
ATOM     17  C   UNL     1      14.230 -18.653  10.232  1.00  0.00     0.000 A 
ENDBRANCH   4  12
BRANCH  10  18
ATOM     18  O   UNL     1       6.963 -16.937   4.758  1.00  0.00    -0.507 OA
ATOM     19  H   UNL     1       6.640 -17.399   5.589  1.00  0.00     0.293 HD
ENDBRANCH  10  18
BRANCH   8  20
ATOM     20  O   UNL     1      10.452 -16.185   1.591  1.00  0.00    -0.508 OA
ATOM     21  H   UNL     1      11.006 -15.365   1.387  1.00  0.00     0.293 HD
ENDBRANCH   8  20
TORSDOF 3
ENDMDL
MODEL 4
REMARK VINA RESULT:      -5.4      0.099      1.087
REMARK SMILES O=c1cc(-c2ccccc2)oc2cc(O)cc(O)c12
REMARK SMILES IDX 1 1 2 2 3 3 4 4 11 5 12 6 13 7 14 8 16 9 17 10 19 11 5 12
REMARK SMILES IDX 6 13 10 14 7 15 9 16 8 17 18 18 15 20
REMARK H PARENT 18 19 15 21
ROOT
ATOM      1  O   UNL     1       6.165 -19.096   5.112  1.00  0.00    -0.289 OA
ATOM      2  C   UNL     1       6.697 -18.211   4.397  1.00  0.00     0.197 A 
ATOM      3  C   UNL     1       6.314 -17.982   3.067  1.00  0.00     0.100 A 
ATOM      4  C   UNL     1       6.911 -17.007   2.304  1.00  0.00     0.138 A 
ATOM      5  O   UNL     1       7.856 -16.305   2.880  1.00  0.00    -0.456 OA
ATOM      6  C   UNL     1       8.257 -16.471   4.117  1.00  0.00     0.146 A 
ATOM      7  C   UNL     1       9.266 -15.691   4.671  1.00  0.00     0.094 A 
ATOM      8  C   UNL     1       9.710 -15.839   5.962  1.00  0.00     0.123 A 
ATOM      9  C   UNL     1       9.139 -16.804   6.761  1.00  0.00     0.093 A 
ATOM     10  C   UNL     1       8.136 -17.597   6.249  1.00  0.00     0.134 A 
ATOM     11  C   UNL     1       7.697 -17.431   4.930  1.00  0.00     0.107 A 
ENDROOT
BRANCH   4  12
ATOM     12  C   UNL     1       6.517 -16.761   0.914  1.00  0.00     0.017 A 
ATOM     13  C   UNL     1       7.354 -16.916  -0.159  1.00  0.00     0.012 A 
ATOM     14  C   UNL     1       5.224 -16.347   0.644  1.00  0.00     0.012 A 
ATOM     15  C   UNL     1       6.933 -16.670  -1.469  1.00  0.00     0.001 A 
ATOM     16  C   UNL     1       4.778 -16.094  -0.644  1.00  0.00     0.001 A 
ATOM     17  C   UNL     1       5.642 -16.257  -1.719  1.00  0.00     0.000 A 
ENDBRANCH   4  12
BRANCH  10  18
ATOM     18  O   UNL     1       7.566 -18.560   7.048  1.00  0.00    -0.507 OA
ATOM     19  H   UNL     1       7.268 -18.336   7.980  1.00  0.00     0.293 HD
ENDBRANCH  10  18
BRANCH   8  20
ATOM     20  O   UNL     1      10.728 -15.032   6.477  1.00  0.00    -0.508 OA
ATOM     21  H   UNL     1      10.596 -14.418   7.268  1.00  0.00     0.293 HD
ENDBRANCH   8  20
TORSDOF 3
ENDMDL
MODEL 5
REMARK VINA RESULT:      -5.3      2.744      5.678
REMARK SMILES O=c1cc(-c2ccccc2)oc2cc(O)cc(O)c12
REMARK SMILES IDX 1 1 2 2 3 3 4 4 11 5 12 6 13 7 14 8 16 9 17 10 19 11 5 12
REMARK SMILES IDX 6 13 10 14 7 15 9 16 8 17 18 18 15 20
REMARK H PARENT 18 19 15 21
ROOT
ATOM      1  O   UNL     1       6.445 -17.494   2.613  1.00  0.00    -0.289 OA
ATOM      2  C   UNL     1       6.692 -17.797   3.808  1.00  0.00     0.197 A 
ATOM      3  C   UNL     1       5.961 -18.768   4.507  1.00  0.00     0.100 A 
ATOM      4  C   UNL     1       6.249 -19.083   5.814  1.00  0.00     0.138 A 
ATOM      5  O   UNL     1       7.240 -18.429   6.372  1.00  0.00    -0.456 OA
ATOM      6  C   UNL     1       7.958 -17.513   5.771  1.00  0.00     0.146 A 
ATOM      7  C   UNL     1       8.997 -16.855   6.419  1.00  0.00     0.094 A 
ATOM      8  C   UNL     1       9.770 -15.890   5.819  1.00  0.00     0.123 A 
ATOM      9  C   UNL     1       9.514 -15.545   4.511  1.00  0.00     0.093 A 
ATOM     10  C   UNL     1       8.492 -16.174   3.834  1.00  0.00     0.134 A 
ATOM     11  C   UNL     1       7.716 -17.155   4.463  1.00  0.00     0.107 A 
ENDROOT
BRANCH   4  12
ATOM     12  C   UNL     1       5.491 -20.096   6.553  1.00  0.00     0.017 A 
ATOM     13  C   UNL     1       5.000 -19.915   7.819  1.00  0.00     0.012 A 
ATOM     14  C   UNL     1       5.244 -21.320   5.955  1.00  0.00     0.012 A 
ATOM     15  C   UNL     1       4.282 -20.911   8.485  1.00  0.00     0.001 A 
ATOM     16  C   UNL     1       4.534 -22.327   6.591  1.00  0.00     0.001 A 
ATOM     17  C   UNL     1       4.044 -22.123   7.874  1.00  0.00     0.000 A 
ENDBRANCH   4  12
BRANCH  10  18
ATOM     18  O   UNL     1       8.238 -15.828   2.528  1.00  0.00    -0.507 OA
ATOM     19  H   UNL     1       7.295 -15.792   2.185  1.00  0.00     0.293 HD
ENDBRANCH  10  18
BRANCH   8  20
ATOM     20  O   UNL     1      10.804 -15.255   6.510  1.00  0.00    -0.508 OA
ATOM     21  H   UNL     1      11.703 -15.058   6.095  1.00  0.00     0.293 HD
ENDBRANCH   8  20
TORSDOF 3
ENDMDL
MODEL 6
REMARK VINA RESULT:      -5.2      2.683      5.624
REMARK SMILES O=c1cc(-c2ccccc2)oc2cc(O)cc(O)c12
REMARK SMILES IDX 1 1 2 2 3 3 4 4 11 5 12 6 13 7 14 8 16 9 17 10 19 11 5 12
REMARK SMILES IDX 6 13 10 14 7 15 9 16 8 17 18 18 15 20
REMARK H PARENT 18 19 15 21
ROOT
ATOM      1  O   UNL     1       6.505 -17.473   2.378  1.00  0.00    -0.289 OA
ATOM      2  C   UNL     1       6.717 -17.786   3.577  1.00  0.00     0.197 A 
ATOM      3  C   UNL     1       5.974 -18.773   4.242  1.00  0.00     0.100 A 
ATOM      4  C   UNL     1       6.223 -19.099   5.553  1.00  0.00     0.138 A 
ATOM      5  O   UNL     1       7.188 -18.441   6.150  1.00  0.00    -0.456 OA
ATOM      6  C   UNL     1       7.916 -17.511   5.583  1.00  0.00     0.146 A 
ATOM      7  C   UNL     1       8.927 -16.850   6.271  1.00  0.00     0.094 A 
ATOM      8  C   UNL     1       9.708 -15.871   5.707  1.00  0.00     0.123 A 
ATOM      9  C   UNL     1       9.491 -15.514   4.395  1.00  0.00     0.093 A 
ATOM     10  C   UNL     1       8.498 -16.146   3.679  1.00  0.00     0.134 A 
ATOM     11  C   UNL     1       7.713 -17.141   4.271  1.00  0.00     0.107 A 
ENDROOT
BRANCH   4  12
ATOM     12  C   UNL     1       5.453 -20.128   6.257  1.00  0.00     0.017 A 
ATOM     13  C   UNL     1       4.963 -21.261   5.661  1.00  0.00     0.012 A 
ATOM     14  C   UNL     1       5.193 -19.969   7.607  1.00  0.00     0.012 A 
ATOM     15  C   UNL     1       4.233 -22.215   6.373  1.00  0.00     0.001 A 
ATOM     16  C   UNL     1       4.472 -20.898   8.340  1.00  0.00     0.001 A 
ATOM     17  C   UNL     1       3.983 -22.040   7.718  1.00  0.00     0.000 A 
ENDBRANCH   4  12
BRANCH  10  18
ATOM     18  O   UNL     1       8.283 -15.789   2.369  1.00  0.00    -0.507 OA
ATOM     19  H   UNL     1       7.439 -15.314   2.103  1.00  0.00     0.293 HD
ENDBRANCH  10  18
BRANCH   8  20
ATOM     20  O   UNL     1      10.713 -15.232   6.438  1.00  0.00    -0.508 OA
ATOM     21  H   UNL     1      10.890 -15.425   7.413  1.00  0.00     0.293 HD
ENDBRANCH   8  20
TORSDOF 3
ENDMDL
MODEL 7
REMARK VINA RESULT:      -5.1      3.796      8.031
REMARK SMILES O=c1cc(-c2ccccc2)oc2cc(O)cc(O)c12
REMARK SMILES IDX 1 1 2 2 3 3 4 4 11 5 12 6 13 7 14 8 16 9 17 10 19 11 5 12
REMARK SMILES IDX 6 13 10 14 7 15 9 16 8 17 18 18 15 20
REMARK H PARENT 18 19 15 21
ROOT
ATOM      1  O   UNL     1       9.202 -15.325   5.588  1.00  0.00    -0.289 OA
ATOM      2  C   UNL     1      10.070 -16.229   5.690  1.00  0.00     0.197 A 
ATOM      3  C   UNL     1      10.600 -16.630   6.925  1.00  0.00     0.100 A 
ATOM      4  C   UNL     1      11.548 -17.621   7.013  1.00  0.00     0.138 A 
ATOM      5  O   UNL     1      11.932 -18.170   5.885  1.00  0.00    -0.456 OA
ATOM      6  C   UNL     1      11.475 -17.838   4.703  1.00  0.00     0.146 A 
ATOM      7  C   UNL     1      11.922 -18.459   3.543  1.00  0.00     0.094 A 
ATOM      8  C   UNL     1      11.464 -18.136   2.289  1.00  0.00     0.123 A 
ATOM      9  C   UNL     1      10.514 -17.149   2.157  1.00  0.00     0.093 A 
ATOM     10  C   UNL     1      10.044 -16.509   3.283  1.00  0.00     0.134 A 
ATOM     11  C   UNL     1      10.524 -16.852   4.552  1.00  0.00     0.107 A 
ENDROOT
BRANCH   4  12
ATOM     12  C   UNL     1      12.108 -18.048   8.298  1.00  0.00     0.017 A 
ATOM     13  C   UNL     1      13.416 -17.864   8.664  1.00  0.00     0.012 A 
ATOM     14  C   UNL     1      11.284 -18.676   9.215  1.00  0.00     0.012 A 
ATOM     15  C   UNL     1      13.905 -18.288   9.902  1.00  0.00     0.001 A 
ATOM     16  C   UNL     1      11.740 -19.107  10.451  1.00  0.00     0.001 A 
ATOM     17  C   UNL     1      13.069 -18.912  10.804  1.00  0.00     0.000 A 
ENDBRANCH   4  12
BRANCH  10  18
ATOM     18  O   UNL     1       9.095 -15.524   3.149  1.00  0.00    -0.507 OA
ATOM     19  H   UNL     1       8.162 -15.666   3.492  1.00  0.00     0.293 HD
ENDBRANCH  10  18
BRANCH   8  20
ATOM     20  O   UNL     1      11.944 -18.788   1.150  1.00  0.00    -0.508 OA
ATOM     21  H   UNL     1      11.418 -18.850   0.290  1.00  0.00     0.293 HD
ENDBRANCH   8  20
TORSDOF 3
ENDMDL
MODEL 8
REMARK VINA RESULT:      -5.1      3.241      7.767
REMARK SMILES O=c1cc(-c2ccccc2)oc2cc(O)cc(O)c12
REMARK SMILES IDX 1 1 2 2 3 3 4 4 11 5 12 6 13 7 14 8 16 9 17 10 19 11 5 12
REMARK SMILES IDX 6 13 10 14 7 15 9 16 8 17 18 18 15 20
REMARK H PARENT 18 19 15 21
ROOT
ATOM      1  O   UNL     1       9.152 -15.279   5.447  1.00  0.00    -0.289 OA
ATOM      2  C   UNL     1       9.317 -16.408   5.976  1.00  0.00     0.197 A 
ATOM      3  C   UNL     1      10.342 -16.667   6.897  1.00  0.00     0.100 A 
ATOM      4  C   UNL     1      10.503 -17.909   7.463  1.00  0.00     0.138 A 
ATOM      5  O   UNL     1       9.651 -18.837   7.098  1.00  0.00    -0.456 OA
ATOM      6  C   UNL     1       8.674 -18.656   6.244  1.00  0.00     0.146 A 
ATOM      7  C   UNL     1       7.803 -19.682   5.898  1.00  0.00     0.094 A 
ATOM      8  C   UNL     1       6.769 -19.526   5.007  1.00  0.00     0.123 A 
ATOM      9  C   UNL     1       6.573 -18.297   4.417  1.00  0.00     0.093 A 
ATOM     10  C   UNL     1       7.415 -17.254   4.734  1.00  0.00     0.134 A 
ATOM     11  C   UNL     1       8.464 -17.433   5.644  1.00  0.00     0.107 A 
ENDROOT
BRANCH   4  12
ATOM     12  C   UNL     1      11.572 -18.191   8.426  1.00  0.00     0.017 A 
ATOM     13  C   UNL     1      11.376 -18.820   9.627  1.00  0.00     0.012 A 
ATOM     14  C   UNL     1      12.866 -17.806   8.125  1.00  0.00     0.012 A 
ATOM     15  C   UNL     1      12.426 -19.068  10.513  1.00  0.00     0.001 A 
ATOM     16  C   UNL     1      13.929 -18.038   8.984  1.00  0.00     0.001 A 
ATOM     17  C   UNL     1      13.710 -18.678  10.197  1.00  0.00     0.000 A 
ENDBRANCH   4  12
BRANCH  10  18
ATOM     18  O   UNL     1       7.218 -16.028   4.145  1.00  0.00    -0.507 OA
ATOM     19  H   UNL     1       6.811 -15.273   4.666  1.00  0.00     0.293 HD
ENDBRANCH  10  18
BRANCH   8  20
ATOM     20  O   UNL     1       5.918 -20.587   4.689  1.00  0.00    -0.508 OA
ATOM     21  H   UNL     1       4.912 -20.500   4.676  1.00  0.00     0.293 HD
ENDBRANCH   8  20
TORSDOF 3
ENDMDL
MODEL 9
REMARK VINA RESULT:      -5.1      4.151      8.094
REMARK SMILES O=c1cc(-c2ccccc2)oc2cc(O)cc(O)c12
REMARK SMILES IDX 1 1 2 2 3 3 4 4 11 5 12 6 13 7 14 8 16 9 17 10 19 11 5 12
REMARK SMILES IDX 6 13 10 14 7 15 9 16 8 17 18 18 15 20
REMARK H PARENT 18 19 15 21
ROOT
ATOM      1  O   UNL     1      11.102 -18.679   3.728  1.00  0.00    -0.289 OA
ATOM      2  C   UNL     1      11.313 -18.153   4.850  1.00  0.00     0.197 A 
ATOM      3  C   UNL     1      12.439 -18.460   5.628  1.00  0.00     0.100 A 
ATOM      4  C   UNL     1      12.649 -17.872   6.853  1.00  0.00     0.138 A 
ATOM      5  O   UNL     1      11.744 -17.013   7.256  1.00  0.00    -0.456 OA
ATOM      6  C   UNL     1      10.673 -16.686   6.575  1.00  0.00     0.146 A 
ATOM      7  C   UNL     1       9.750 -15.766   7.058  1.00  0.00     0.094 A 
ATOM      8  C   UNL     1       8.618 -15.400   6.371  1.00  0.00     0.123 A 
ATOM      9  C   UNL     1       8.370 -15.965   5.140  1.00  0.00     0.093 A 
ATOM     10  C   UNL     1       9.261 -16.882   4.626  1.00  0.00     0.134 A 
ATOM     11  C   UNL     1      10.410 -17.241   5.342  1.00  0.00     0.107 A 
ENDROOT
BRANCH   4  12
ATOM     12  C   UNL     1      13.822 -18.186   7.674  1.00  0.00     0.017 A 
ATOM     13  C   UNL     1      14.990 -18.702   7.176  1.00  0.00     0.012 A 
ATOM     14  C   UNL     1      13.770 -17.955   9.037  1.00  0.00     0.012 A 
ATOM     15  C   UNL     1      16.083 -18.985   7.998  1.00  0.00     0.001 A 
ATOM     16  C   UNL     1      14.839 -18.226   9.877  1.00  0.00     0.001 A 
ATOM     17  C   UNL     1      16.014 -18.748   9.354  1.00  0.00     0.000 A 
ENDBRANCH   4  12
BRANCH  10  18
ATOM     18  O   UNL     1       9.013 -17.445   3.398  1.00  0.00    -0.507 OA
ATOM     19  H   UNL     1       9.724 -17.976   2.928  1.00  0.00     0.293 HD
ENDBRANCH  10  18
BRANCH   8  20
ATOM     20  O   UNL     1       7.718 -14.470   6.897  1.00  0.00    -0.508 OA
ATOM     21  H   UNL     1       7.191 -14.634   7.743  1.00  0.00     0.293 HD
ENDBRANCH   8  20
TORSDOF 3
ENDMDL
