MODEL 1
REMARK VINA RESULT:      -6.3      0.000      0.000
REMARK SMILES Clc1ccc(COC(Cn2ccnc2)c2ccc(Cl)cc2Cl)c(Cl)c1
REMARK SMILES IDX 7 1 6 2 5 3 2 4 3 5 25 6 4 7 23 8 1 9 24 10 8 11 9 12 10 13
REMARK SMILES IDX 11 14 14 15 12 16 13 17 15 18 16 19 21 20 17 21 20 22 18 23
REMARK SMILES IDX 22 24 19 25
REMARK H PARENT
ROOT
ATOM      1  O   UNL     1      -1.998  -0.153  -3.536  1.00  0.00    -0.367 OA
ENDROOT
BRANCH   1   2
ATOM      2  C   UNL     1      -2.721  -0.379  -2.428  1.00  0.00     0.198 C 
BRANCH   2   3
ATOM      3  C   UNL     1      -3.377   0.824  -1.870  1.00  0.00    -0.004 A 
ATOM      4  C   UNL     1      -4.353   3.243  -0.750  1.00  0.00     0.042 A 
ATOM      5  C   UNL     1      -3.176   3.195  -1.476  1.00  0.00     0.021 A 
ATOM      6  C   UNL     1      -5.025   2.055  -0.600  1.00  0.00     0.041 A 
ATOM      7  C   UNL     1      -2.684   2.036  -2.027  1.00  0.00     0.009 A 
ATOM      8  C   UNL     1      -4.536   0.864  -1.158  1.00  0.00     0.048 A 
ATOM      9  Cl  UNL     1      -4.954   4.739  -0.049  1.00  0.00    -0.084 Cl
ATOM     10  Cl  UNL     1      -5.493  -0.608  -1.017  1.00  0.00    -0.084 Cl
ENDBRANCH   2   3
ENDBRANCH   1   2
BRANCH   1  11
ATOM     11  C   UNL     1      -0.704  -0.316  -3.722  1.00  0.00     0.170 C 
BRANCH  11  12
ATOM     12  C   UNL     1      -0.393  -1.818  -3.504  1.00  0.00     0.160 C 
BRANCH  12  13
ATOM     13  N   UNL     1       0.960  -1.940  -3.058  1.00  0.00    -0.335 N 
ATOM     14  C   UNL     1       2.073  -1.985  -3.807  1.00  0.00     0.107 A 
ATOM     15  C   UNL     1       1.307  -2.032  -1.757  1.00  0.00     0.199 A 
ATOM     16  C   UNL     1       3.118  -2.110  -2.916  1.00  0.00     0.130 A 
ATOM     17  N   UNL     1       2.624  -2.137  -1.668  1.00  0.00    -0.245 NA
ENDBRANCH  12  13
ENDBRANCH  11  12
BRANCH  11  18
ATOM     18  C   UNL     1      -0.266   0.030  -5.133  1.00  0.00     0.001 A 
ATOM     19  C   UNL     1      -0.154  -0.933  -6.108  1.00  0.00     0.009 A 
ATOM     20  C   UNL     1       0.032   1.329  -5.456  1.00  0.00     0.048 A 
ATOM     21  C   UNL     1       0.258  -0.578  -7.400  1.00  0.00     0.021 A 
ATOM     22  C   UNL     1       0.441   1.693  -6.738  1.00  0.00     0.041 A 
ATOM     23  C   UNL     1       0.554   0.727  -7.719  1.00  0.00     0.042 A 
ATOM     24  Cl  UNL     1      -0.116   2.543  -4.199  1.00  0.00    -0.084 Cl
ATOM     25  Cl  UNL     1       1.074   1.174  -9.336  1.00  0.00    -0.084 Cl
ENDBRANCH  11  18
ENDBRANCH   1  11
TORSDOF 6
ENDMDL
MODEL 2
REMARK VINA RESULT:      -5.9     14.460     15.677
REMARK SMILES Clc1ccc(COC(Cn2ccnc2)c2ccc(Cl)cc2Cl)c(Cl)c1
REMARK SMILES IDX 7 1 6 2 5 3 2 4 3 5 25 6 4 7 23 8 1 9 24 10 8 11 9 12 10 13
REMARK SMILES IDX 11 14 14 15 12 16 13 17 15 18 16 19 21 20 17 21 20 22 18 23
REMARK SMILES IDX 22 24 19 25
REMARK H PARENT
ROOT
ATOM      1  O   UNL     1      -9.775   8.848 -12.099  1.00  0.00    -0.367 OA
ENDROOT
BRANCH   1   2
ATOM      2  C   UNL     1     -11.049   8.807 -12.517  1.00  0.00     0.198 C 
BRANCH   2   3
ATOM      3  C   UNL     1     -11.707  10.129 -12.607  1.00  0.00    -0.004 A 
ATOM      4  C   UNL     1     -13.162  12.565 -12.561  1.00  0.00     0.042 A 
ATOM      5  C   UNL     1     -12.993  11.792 -11.426  1.00  0.00     0.021 A 
ATOM      6  C   UNL     1     -12.586  12.090 -13.714  1.00  0.00     0.041 A 
ATOM      7  C   UNL     1     -12.293  10.610 -11.425  1.00  0.00     0.009 A 
ATOM      8  C   UNL     1     -11.867  10.885 -13.727  1.00  0.00     0.048 A 
ATOM      9  Cl  UNL     1     -14.069  14.071 -12.536  1.00  0.00    -0.084 Cl
ATOM     10  Cl  UNL     1     -11.068  10.377 -15.212  1.00  0.00    -0.084 Cl
ENDBRANCH   2   3
ENDBRANCH   1   2
BRANCH   1  11
ATOM     11  C   UNL     1      -8.746   8.139 -12.519  1.00  0.00     0.170 C 
BRANCH  11  12
ATOM     12  C   UNL     1      -9.055   6.652 -12.209  1.00  0.00     0.160 C 
BRANCH  12  13
ATOM     13  N   UNL     1      -8.457   6.319 -10.953  1.00  0.00    -0.335 N 
ATOM     14  C   UNL     1      -8.488   5.139 -10.314  1.00  0.00     0.107 A 
ATOM     15  C   UNL     1      -7.751   7.197 -10.212  1.00  0.00     0.199 A 
ATOM     16  C   UNL     1      -7.774   5.326  -9.150  1.00  0.00     0.130 A 
ATOM     17  N   UNL     1      -7.333   6.594  -9.110  1.00  0.00    -0.245 NA
ENDBRANCH  12  13
ENDBRANCH  11  12
BRANCH  11  18
ATOM     18  C   UNL     1      -8.534   8.247 -14.018  1.00  0.00     0.001 A 
ATOM     19  C   UNL     1      -9.077   7.333 -14.890  1.00  0.00     0.009 A 
ATOM     20  C   UNL     1      -7.780   9.273 -14.528  1.00  0.00     0.048 A 
ATOM     21  C   UNL     1      -8.855   7.461 -16.268  1.00  0.00     0.021 A 
ATOM     22  C   UNL     1      -7.554   9.411 -15.896  1.00  0.00     0.041 A 
ATOM     23  C   UNL     1      -8.100   8.493 -16.774  1.00  0.00     0.042 A 
ATOM     24  Cl  UNL     1      -7.094  10.428 -13.400  1.00  0.00    -0.084 Cl
ATOM     25  Cl  UNL     1      -7.817   8.655 -18.501  1.00  0.00    -0.084 Cl
ENDBRANCH  11  18
ENDBRANCH   1  11
TORSDOF 6
ENDMDL
MODEL 3
REMARK VINA RESULT:      -5.9     11.481     12.858
REMARK SMILES Clc1ccc(COC(Cn2ccnc2)c2ccc(Cl)cc2Cl)c(Cl)c1
REMARK SMILES IDX 7 1 6 2 5 3 2 4 3 5 25 6 4 7 23 8 1 9 24 10 8 11 9 12 10 13
REMARK SMILES IDX 11 14 14 15 12 16 13 17 15 18 16 19 21 20 17 21 20 22 18 23
REMARK SMILES IDX 22 24 19 25
REMARK H PARENT
ROOT
ATOM      1  O   UNL     1      -7.058   3.488 -12.644  1.00  0.00    -0.367 OA
ENDROOT
BRANCH   1   2
ATOM      2  C   UNL     1      -7.827   3.784 -11.584  1.00  0.00     0.198 C 
BRANCH   2   3
ATOM      3  C   UNL     1      -8.119   5.226 -11.424  1.00  0.00    -0.004 A 
ATOM      4  C   UNL     1      -8.582   8.026 -11.406  1.00  0.00     0.042 A 
ATOM      5  C   UNL     1      -8.722   7.268 -12.555  1.00  0.00     0.021 A 
ATOM      6  C   UNL     1      -8.205   7.349 -10.271  1.00  0.00     0.041 A 
ATOM      7  C   UNL     1      -8.504   5.912 -12.587  1.00  0.00     0.009 A 
ATOM      8  C   UNL     1      -7.980   5.964 -10.289  1.00  0.00     0.048 A 
ATOM      9  Cl  UNL     1      -8.860   9.762 -11.395  1.00  0.00    -0.084 Cl
ATOM     10  Cl  UNL     1      -7.597   5.136  -8.783  1.00  0.00    -0.084 Cl
ENDBRANCH   2   3
ENDBRANCH   1   2
BRANCH   1  11
ATOM     11  C   UNL     1      -7.265   2.589 -13.585  1.00  0.00     0.170 C 
BRANCH  11  12
ATOM     12  C   UNL     1      -8.788   2.314 -13.633  1.00  0.00     0.160 C 
BRANCH  12  13
ATOM     13  N   UNL     1      -9.041   1.056 -13.001  1.00  0.00    -0.335 N 
ATOM     14  C   UNL     1      -8.151   0.106 -12.673  1.00  0.00     0.107 A 
ATOM     15  C   UNL     1     -10.272   0.643 -12.637  1.00  0.00     0.199 A 
ATOM     16  C   UNL     1      -8.884  -0.908 -12.094  1.00  0.00     0.130 A 
ATOM     17  N   UNL     1     -10.180  -0.556 -12.084  1.00  0.00    -0.245 NA
ENDBRANCH  12  13
ENDBRANCH  11  12
BRANCH  11  18
ATOM     18  C   UNL     1      -6.856   3.078 -14.963  1.00  0.00     0.001 A 
ATOM     19  C   UNL     1      -6.837   4.417 -15.274  1.00  0.00     0.009 A 
ATOM     20  C   UNL     1      -6.501   2.174 -15.931  1.00  0.00     0.048 A 
ATOM     21  C   UNL     1      -6.459   4.832 -16.559  1.00  0.00     0.021 A 
ATOM     22  C   UNL     1      -6.122   2.576 -17.210  1.00  0.00     0.041 A 
ATOM     23  C   UNL     1      -6.102   3.921 -17.525  1.00  0.00     0.042 A 
ATOM     24  Cl  UNL     1      -6.533   0.470 -15.515  1.00  0.00    -0.084 Cl
ATOM     25  Cl  UNL     1      -5.631   4.439 -19.137  1.00  0.00    -0.084 Cl
ENDBRANCH  11  18
ENDBRANCH   1  11
TORSDOF 6
ENDMDL
MODEL 4
REMARK VINA RESULT:      -5.8     12.434     13.792
REMARK SMILES Clc1ccc(COC(Cn2ccnc2)c2ccc(Cl)cc2Cl)c(Cl)c1
REMARK SMILES IDX 7 1 6 2 5 3 2 4 3 5 25 6 4 7 23 8 1 9 24 10 8 11 9 12 10 13
REMARK SMILES IDX 11 14 14 15 12 16 13 17 15 18 16 19 21 20 17 21 20 22 18 23
REMARK SMILES IDX 22 24 19 25
REMARK H PARENT
ROOT
ATOM      1  O   UNL     1      -9.800   5.510 -13.510  1.00  0.00    -0.367 OA
ENDROOT
BRANCH   1   2
ATOM      2  C   UNL     1      -9.912   6.659 -14.195  1.00  0.00     0.198 C 
BRANCH   2   3
ATOM      3  C   UNL     1     -10.476   7.783 -13.415  1.00  0.00    -0.004 A 
ATOM      4  C   UNL     1     -11.825   9.880 -12.059  1.00  0.00     0.042 A 
ATOM      5  C   UNL     1     -12.466   8.707 -12.416  1.00  0.00     0.021 A 
ATOM      6  C   UNL     1     -10.496   9.975 -12.397  1.00  0.00     0.041 A 
ATOM      7  C   UNL     1     -11.833   7.679 -13.073  1.00  0.00     0.009 A 
ATOM      8  C   UNL     1      -9.837   8.933 -13.066  1.00  0.00     0.048 A 
ATOM      9  Cl  UNL     1     -12.661  11.182 -11.226  1.00  0.00    -0.084 Cl
ATOM     10  Cl  UNL     1      -8.110   9.072 -13.383  1.00  0.00    -0.084 Cl
ENDBRANCH   2   3
ENDBRANCH   1   2
BRANCH   1  11
ATOM     11  C   UNL     1      -8.778   5.068 -12.804  1.00  0.00     0.170 C 
BRANCH  11  12
ATOM     12  C   UNL     1      -9.297   4.781 -11.373  1.00  0.00     0.160 C 
BRANCH  12  13
ATOM     13  N   UNL     1      -8.469   5.482 -10.442  1.00  0.00    -0.335 N 
ATOM     14  C   UNL     1      -8.026   5.055  -9.249  1.00  0.00     0.107 A 
ATOM     15  C   UNL     1      -8.006   6.731 -10.656  1.00  0.00     0.199 A 
ATOM     16  C   UNL     1      -7.272   6.090  -8.738  1.00  0.00     0.130 A 
ATOM     17  N   UNL     1      -7.276   7.105  -9.617  1.00  0.00    -0.245 NA
ENDBRANCH  12  13
ENDBRANCH  11  12
BRANCH  11  18
ATOM     18  C   UNL     1      -8.212   3.767 -13.343  1.00  0.00     0.001 A 
ATOM     19  C   UNL     1      -8.582   2.550 -12.820  1.00  0.00     0.009 A 
ATOM     20  C   UNL     1      -7.307   3.791 -14.373  1.00  0.00     0.048 A 
ATOM     21  C   UNL     1      -8.035   1.369 -13.340  1.00  0.00     0.021 A 
ATOM     22  C   UNL     1      -6.758   2.623 -14.898  1.00  0.00     0.041 A 
ATOM     23  C   UNL     1      -7.128   1.398 -14.373  1.00  0.00     0.042 A 
ATOM     24  Cl  UNL     1      -6.846   5.352 -15.026  1.00  0.00    -0.084 Cl
ATOM     25  Cl  UNL     1      -6.439  -0.080 -15.025  1.00  0.00    -0.084 Cl
ENDBRANCH  11  18
ENDBRANCH   1  11
TORSDOF 6
ENDMDL
MODEL 5
REMARK VINA RESULT:      -5.8     14.194     15.377
REMARK SMILES Clc1ccc(COC(Cn2ccnc2)c2ccc(Cl)cc2Cl)c(Cl)c1
REMARK SMILES IDX 7 1 6 2 5 3 2 4 3 5 25 6 4 7 23 8 1 9 24 10 8 11 9 12 10 13
REMARK SMILES IDX 11 14 14 15 12 16 13 17 15 18 16 19 21 20 17 21 20 22 18 23
REMARK SMILES IDX 22 24 19 25
REMARK H PARENT
ROOT
ATOM      1  O   UNL     1     -10.160   8.144 -12.017  1.00  0.00    -0.367 OA
ENDROOT
BRANCH   1   2
ATOM      2  C   UNL     1     -10.884   9.267 -12.142  1.00  0.00     0.198 C 
BRANCH   2   3
ATOM      3  C   UNL     1     -12.342   9.044 -12.262  1.00  0.00    -0.004 A 
ATOM      4  C   UNL     1     -15.075   8.442 -12.734  1.00  0.00     0.042 A 
ATOM      5  C   UNL     1     -14.067   7.535 -13.010  1.00  0.00     0.021 A 
ATOM      6  C   UNL     1     -14.681   9.652 -12.217  1.00  0.00     0.041 A 
ATOM      7  C   UNL     1     -12.737   7.805 -12.789  1.00  0.00     0.009 A 
ATOM      8  C   UNL     1     -13.328   9.941 -11.986  1.00  0.00     0.048 A 
ATOM      9  Cl  UNL     1     -16.767   8.072 -13.033  1.00  0.00    -0.084 Cl
ATOM     10  Cl  UNL     1     -12.893  11.471 -11.230  1.00  0.00    -0.084 Cl
ENDBRANCH   2   3
ENDBRANCH   1   2
BRANCH   1  11
ATOM     11  C   UNL     1      -8.910   7.927 -12.373  1.00  0.00     0.170 C 
BRANCH  11  12
ATOM     12  C   UNL     1      -8.633   6.415 -12.181  1.00  0.00     0.160 C 
BRANCH  12  13
ATOM     13  N   UNL     1      -8.222   6.198 -10.829  1.00  0.00    -0.335 N 
ATOM     14  C   UNL     1      -7.591   7.057 -10.012  1.00  0.00     0.107 A 
ATOM     15  C   UNL     1      -8.426   5.039 -10.169  1.00  0.00     0.199 A 
ATOM     16  C   UNL     1      -7.415   6.380  -8.823  1.00  0.00     0.130 A 
ATOM     17  N   UNL     1      -7.933   5.148  -8.944  1.00  0.00    -0.245 NA
ENDBRANCH  12  13
ENDBRANCH  11  12
BRANCH  11  18
ATOM     18  C   UNL     1      -8.653   8.246 -13.835  1.00  0.00     0.001 A 
ATOM     19  C   UNL     1      -9.248   7.526 -14.843  1.00  0.00     0.009 A 
ATOM     20  C   UNL     1      -7.804   9.270 -14.171  1.00  0.00     0.048 A 
ATOM     21  C   UNL     1      -8.984   7.846 -16.182  1.00  0.00     0.021 A 
ATOM     22  C   UNL     1      -7.535   9.596 -15.499  1.00  0.00     0.041 A 
ATOM     23  C   UNL     1      -8.134   8.875 -16.514  1.00  0.00     0.042 A 
ATOM     24  Cl  UNL     1      -7.052  10.175 -12.870  1.00  0.00    -0.084 Cl
ATOM     25  Cl  UNL     1      -7.798   9.275 -18.191  1.00  0.00    -0.084 Cl
ENDBRANCH  11  18
ENDBRANCH   1  11
TORSDOF 6
ENDMDL
MODEL 6
REMARK VINA RESULT:      -5.8     13.139     15.850
REMARK SMILES Clc1ccc(COC(Cn2ccnc2)c2ccc(Cl)cc2Cl)c(Cl)c1
REMARK SMILES IDX 7 1 6 2 5 3 2 4 3 5 25 6 4 7 23 8 1 9 24 10 8 11 9 12 10 13
REMARK SMILES IDX 11 14 14 15 12 16 13 17 15 18 16 19 21 20 17 21 20 22 18 23
REMARK SMILES IDX 22 24 19 25
REMARK H PARENT
ROOT
ATOM      1  O   UNL     1      -8.678   6.626 -14.552  1.00  0.00    -0.367 OA
ENDROOT
BRANCH   1   2
ATOM      2  C   UNL     1      -7.483   6.511 -15.152  1.00  0.00     0.198 C 
BRANCH   2   3
ATOM      3  C   UNL     1      -7.197   5.163 -15.692  1.00  0.00    -0.004 A 
ATOM      4  C   UNL     1      -6.468   2.536 -16.481  1.00  0.00     0.042 A 
ATOM      5  C   UNL     1      -6.588   2.894 -15.150  1.00  0.00     0.021 A 
ATOM      6  C   UNL     1      -6.722   3.523 -17.402  1.00  0.00     0.041 A 
ATOM      7  C   UNL     1      -6.939   4.159 -14.744  1.00  0.00     0.009 A 
ATOM      8  C   UNL     1      -7.083   4.819 -17.003  1.00  0.00     0.048 A 
ATOM      9  Cl  UNL     1      -6.010   0.911 -16.971  1.00  0.00    -0.084 Cl
ATOM     10  Cl  UNL     1      -7.493   6.013 -18.231  1.00  0.00    -0.084 Cl
ENDBRANCH   2   3
ENDBRANCH   1   2
BRANCH   1  11
ATOM     11  C   UNL     1      -9.051   7.475 -13.615  1.00  0.00     0.170 C 
BRANCH  11  12
ATOM     12  C   UNL     1     -10.600   7.506 -13.612  1.00  0.00     0.160 C 
BRANCH  12  13
ATOM     13  N   UNL     1     -11.025   8.860 -13.443  1.00  0.00    -0.335 N 
ATOM     14  C   UNL     1     -10.980   9.856 -14.343  1.00  0.00     0.107 A 
ATOM     15  C   UNL     1     -11.551   9.334 -12.295  1.00  0.00     0.199 A 
ATOM     16  C   UNL     1     -11.499  10.962 -13.702  1.00  0.00     0.130 A 
ATOM     17  N   UNL     1     -11.841  10.617 -12.450  1.00  0.00    -0.245 NA
ENDBRANCH  12  13
ENDBRANCH  11  12
BRANCH  11  18
ATOM     18  C   UNL     1      -8.610   7.047 -12.227  1.00  0.00     0.001 A 
ATOM     19  C   UNL     1      -8.749   5.749 -11.797  1.00  0.00     0.009 A 
ATOM     20  C   UNL     1      -8.063   7.968 -11.371  1.00  0.00     0.048 A 
ATOM     21  C   UNL     1      -8.335   5.391 -10.506  1.00  0.00     0.021 A 
ATOM     22  C   UNL     1      -7.647   7.623 -10.086  1.00  0.00     0.041 A 
ATOM     23  C   UNL     1      -7.786   6.318  -9.652  1.00  0.00     0.042 A 
ATOM     24  Cl  UNL     1      -7.895   9.619 -11.938  1.00  0.00    -0.084 Cl
ATOM     25  Cl  UNL     1      -7.270   5.873  -8.033  1.00  0.00    -0.084 Cl
ENDBRANCH  11  18
ENDBRANCH   1  11
TORSDOF 6
ENDMDL
MODEL 7
REMARK VINA RESULT:      -5.8     14.326     16.713
REMARK SMILES Clc1ccc(COC(Cn2ccnc2)c2ccc(Cl)cc2Cl)c(Cl)c1
REMARK SMILES IDX 7 1 6 2 5 3 2 4 3 5 25 6 4 7 23 8 1 9 24 10 8 11 9 12 10 13
REMARK SMILES IDX 11 14 14 15 12 16 13 17 15 18 16 19 21 20 17 21 20 22 18 23
REMARK SMILES IDX 22 24 19 25
REMARK H PARENT
ROOT
ATOM      1  O   UNL     1      -9.763   9.965 -13.780  1.00  0.00    -0.367 OA
ENDROOT
BRANCH   1   2
ATOM      2  C   UNL     1      -9.607   9.703 -15.087  1.00  0.00     0.198 C 
BRANCH   2   3
ATOM      3  C   UNL     1      -8.923   8.423 -15.376  1.00  0.00    -0.004 A 
ATOM      4  C   UNL     1      -7.874   5.830 -15.854  1.00  0.00     0.042 A 
ATOM      5  C   UNL     1      -9.206   6.132 -16.071  1.00  0.00     0.021 A 
ATOM      6  C   UNL     1      -7.084   6.855 -15.394  1.00  0.00     0.041 A 
ATOM      7  C   UNL     1      -9.736   7.380 -15.847  1.00  0.00     0.009 A 
ATOM      8  C   UNL     1      -7.611   8.135 -15.162  1.00  0.00     0.048 A 
ATOM      9  Cl  UNL     1      -7.224   4.222 -16.143  1.00  0.00    -0.084 Cl
ATOM     10  Cl  UNL     1      -6.528   9.433 -14.668  1.00  0.00    -0.084 Cl
ENDBRANCH   2   3
ENDBRANCH   1   2
BRANCH   1  11
ATOM     11  C   UNL     1     -10.262   9.189 -12.838  1.00  0.00     0.170 C 
BRANCH  11  12
ATOM     12  C   UNL     1      -9.336   9.311 -11.602  1.00  0.00     0.160 C 
BRANCH  12  13
ATOM     13  N   UNL     1      -8.811   8.016 -11.300  1.00  0.00    -0.335 N 
ATOM     14  C   UNL     1      -8.021   7.667 -10.272  1.00  0.00     0.107 A 
ATOM     15  C   UNL     1      -9.055   6.923 -12.052  1.00  0.00     0.199 A 
ATOM     16  C   UNL     1      -7.788   6.316 -10.422  1.00  0.00     0.130 A 
ATOM     17  N   UNL     1      -8.431   5.884 -11.518  1.00  0.00    -0.245 NA
ENDBRANCH  12  13
ENDBRANCH  11  12
BRANCH  11  18
ATOM     18  C   UNL     1     -11.650   9.617 -12.399  1.00  0.00     0.001 A 
ATOM     19  C   UNL     1     -11.870  10.830 -11.792  1.00  0.00     0.009 A 
ATOM     20  C   UNL     1     -12.719   8.782 -12.604  1.00  0.00     0.048 A 
ATOM     21  C   UNL     1     -13.166  11.191 -11.396  1.00  0.00     0.021 A 
ATOM     22  C   UNL     1     -14.011   9.130 -12.215  1.00  0.00     0.041 A 
ATOM     23  C   UNL     1     -14.234  10.350 -11.604  1.00  0.00     0.042 A 
ATOM     24  Cl  UNL     1     -12.418   7.237 -13.378  1.00  0.00    -0.084 Cl
ATOM     25  Cl  UNL     1     -15.858  10.798 -11.105  1.00  0.00    -0.084 Cl
ENDBRANCH  11  18
ENDBRANCH   1  11
TORSDOF 6
ENDMDL
MODEL 8
REMARK VINA RESULT:      -5.7     13.480     15.085
REMARK SMILES Clc1ccc(COC(Cn2ccnc2)c2ccc(Cl)cc2Cl)c(Cl)c1
REMARK SMILES IDX 7 1 6 2 5 3 2 4 3 5 25 6 4 7 23 8 1 9 24 10 8 11 9 12 10 13
REMARK SMILES IDX 11 14 14 15 12 16 13 17 15 18 16 19 21 20 17 21 20 22 18 23
REMARK SMILES IDX 22 24 19 25
REMARK H PARENT
ROOT
ATOM      1  O   UNL     1     -10.169   6.169 -14.066  1.00  0.00    -0.367 OA
ENDROOT
BRANCH   1   2
ATOM      2  C   UNL     1     -10.556   7.296 -14.684  1.00  0.00     0.198 C 
BRANCH   2   3
ATOM      3  C   UNL     1     -11.075   8.343 -13.777  1.00  0.00    -0.004 A 
ATOM      4  C   UNL     1     -12.353  10.248 -12.105  1.00  0.00     0.042 A 
ATOM      5  C   UNL     1     -12.871   8.979 -12.299  1.00  0.00     0.021 A 
ATOM      6  C   UNL     1     -11.184  10.537 -12.766  1.00  0.00     0.041 A 
ATOM      7  C   UNL     1     -12.270   8.042 -13.103  1.00  0.00     0.009 A 
ATOM      8  C   UNL     1     -10.558   9.588 -13.590  1.00  0.00     0.048 A 
ATOM      9  Cl  UNL     1     -13.147  11.431 -11.075  1.00  0.00    -0.084 Cl
ATOM     10  Cl  UNL     1      -9.011   9.983 -14.332  1.00  0.00    -0.084 Cl
ENDBRANCH   2   3
ENDBRANCH   1   2
BRANCH   1  11
ATOM     11  C   UNL     1      -8.947   5.743 -13.819  1.00  0.00     0.170 C 
BRANCH  11  12
ATOM     12  C   UNL     1      -7.972   6.665 -14.594  1.00  0.00     0.160 C 
BRANCH  12  13
ATOM     13  N   UNL     1      -7.430   5.929 -15.693  1.00  0.00    -0.335 N 
ATOM     14  C   UNL     1      -6.521   4.941 -15.653  1.00  0.00     0.107 A 
ATOM     15  C   UNL     1      -7.779   6.147 -16.977  1.00  0.00     0.199 A 
ATOM     16  C   UNL     1      -6.326   4.561 -16.964  1.00  0.00     0.130 A 
ATOM     17  N   UNL     1      -7.106   5.314 -17.756  1.00  0.00    -0.245 NA
ENDBRANCH  12  13
ENDBRANCH  11  12
BRANCH  11  18
ATOM     18  C   UNL     1      -8.578   5.839 -12.350  1.00  0.00     0.001 A 
ATOM     19  C   UNL     1      -8.391   7.053 -11.733  1.00  0.00     0.009 A 
ATOM     20  C   UNL     1      -8.420   4.695 -11.610  1.00  0.00     0.048 A 
ATOM     21  C   UNL     1      -8.046   7.103 -10.375  1.00  0.00     0.021 A 
ATOM     22  C   UNL     1      -8.079   4.733 -10.259  1.00  0.00     0.041 A 
ATOM     23  C   UNL     1      -7.891   5.953  -9.637  1.00  0.00     0.042 A 
ATOM     24  Cl  UNL     1      -8.661   3.155 -12.415  1.00  0.00    -0.084 Cl
ATOM     25  Cl  UNL     1      -7.456   6.013  -7.936  1.00  0.00    -0.084 Cl
ENDBRANCH  11  18
ENDBRANCH   1  11
TORSDOF 6
ENDMDL
MODEL 9
REMARK VINA RESULT:      -5.6     13.800     16.573
REMARK SMILES Clc1ccc(COC(Cn2ccnc2)c2ccc(Cl)cc2Cl)c(Cl)c1
REMARK SMILES IDX 7 1 6 2 5 3 2 4 3 5 25 6 4 7 23 8 1 9 24 10 8 11 9 12 10 13
REMARK SMILES IDX 11 14 14 15 12 16 13 17 15 18 16 19 21 20 17 21 20 22 18 23
REMARK SMILES IDX 22 24 19 25
REMARK H PARENT
ROOT
ATOM      1  O   UNL     1      -8.575   6.981 -14.740  1.00  0.00    -0.367 OA
ENDROOT
BRANCH   1   2
ATOM      2  C   UNL     1      -8.829   7.080 -16.054  1.00  0.00     0.198 C 
BRANCH   2   3
ATOM      3  C   UNL     1      -7.945   6.260 -16.911  1.00  0.00    -0.004 A 
ATOM      4  C   UNL     1      -6.040   4.706 -18.329  1.00  0.00     0.042 A 
ATOM      5  C   UNL     1      -6.136   4.666 -16.949  1.00  0.00     0.021 A 
ATOM      6  C   UNL     1      -6.918   5.540 -18.978  1.00  0.00     0.041 A 
ATOM      7  C   UNL     1      -7.050   5.409 -16.242  1.00  0.00     0.009 A 
ATOM      8  C   UNL     1      -7.858   6.304 -18.268  1.00  0.00     0.048 A 
ATOM      9  Cl  UNL     1      -4.856   3.749 -19.208  1.00  0.00    -0.084 Cl
ATOM     10  Cl  UNL     1      -9.022   7.278 -19.160  1.00  0.00    -0.084 Cl
ENDBRANCH   2   3
ENDBRANCH   1   2
BRANCH   1  11
ATOM     11  C   UNL     1      -9.030   7.730 -13.755  1.00  0.00     0.170 C 
BRANCH  11  12
ATOM     12  C   UNL     1     -10.576   7.635 -13.781  1.00  0.00     0.160 C 
BRANCH  12  13
ATOM     13  N   UNL     1     -11.114   8.917 -13.442  1.00  0.00    -0.335 N 
ATOM     14  C   UNL     1     -11.819   9.251 -12.349  1.00  0.00     0.107 A 
ATOM     15  C   UNL     1     -10.974  10.009 -14.221  1.00  0.00     0.199 A 
ATOM     16  C   UNL     1     -12.107  10.592 -12.487  1.00  0.00     0.130 A 
ATOM     17  N   UNL     1     -11.580  11.033 -13.641  1.00  0.00    -0.245 NA
ENDBRANCH  12  13
ENDBRANCH  11  12
BRANCH  11  18
ATOM     18  C   UNL     1      -8.577   7.242 -12.390  1.00  0.00     0.001 A 
ATOM     19  C   UNL     1      -8.608   5.909 -12.056  1.00  0.00     0.009 A 
ATOM     20  C   UNL     1      -8.127   8.143 -11.459  1.00  0.00     0.048 A 
ATOM     21  C   UNL     1      -8.186   5.496 -10.784  1.00  0.00     0.021 A 
ATOM     22  C   UNL     1      -7.704   7.743 -10.192  1.00  0.00     0.041 A 
ATOM     23  C   UNL     1      -7.735   6.403  -9.854  1.00  0.00     0.042 A 
ATOM     24  Cl  UNL     1      -8.097   9.839 -11.903  1.00  0.00    -0.084 Cl
ATOM     25  Cl  UNL     1      -7.209   5.888  -8.259  1.00  0.00    -0.084 Cl
ENDBRANCH  11  18
ENDBRANCH   1  11
TORSDOF 6
ENDMDL
