MODEL 1
REMARK VINA RESULT:      -6.1      0.000      0.000
REMARK SMILES CNCC[C@H](Oc1cccc2ccccc12)c1cccs1
REMARK SMILES IDX 4 1 3 2 2 3 1 4 5 6 6 7 7 8 8 9 16 10 9 11 15 12 11 13 10 14
REMARK SMILES IDX 14 15 12 16 13 17 17 18 18 19 21 20 19 21 20 22
REMARK H PARENT 2 5
ROOT
ATOM      1  C   UNL     1     -37.909 -17.081 120.852  1.00  0.00     0.066 C 
ENDROOT
BRANCH   1   2
ATOM      2  C   UNL     1     -38.702 -17.504 119.696  1.00  0.00     0.085 C 
BRANCH   2   3
ATOM      3  N   UNL     1     -38.501 -16.992 118.416  1.00  0.00    -0.320 NA
ATOM      4  C   UNL     1     -39.581 -16.655 117.580  1.00  0.00     0.101 C 
ATOM      5  H   UNL     1     -37.628 -16.516 118.187  1.00  0.00     0.122 HD
ENDBRANCH   2   3
ENDBRANCH   1   2
BRANCH   1   6
ATOM      6  C   UNL     1     -38.262 -17.477 122.233  1.00  0.00     0.215 C 
BRANCH   6   7
ATOM      7  O   UNL     1     -37.898 -16.628 123.272  1.00  0.00    -0.484 OA
BRANCH   7   8
ATOM      8  C   UNL     1     -38.732 -15.664 123.783  1.00  0.00     0.128 A 
ATOM      9  C   UNL     1     -39.973 -15.905 124.284  1.00  0.00     0.047 A 
ATOM     10  C   UNL     1     -38.246 -14.342 123.781  1.00  0.00     0.024 A 
ATOM     11  C   UNL     1     -40.732 -14.844 124.778  1.00  0.00     0.004 A 
ATOM     12  C   UNL     1     -36.980 -14.085 123.279  1.00  0.00     0.012 A 
ATOM     13  C   UNL     1     -38.982 -13.278 124.267  1.00  0.00    -0.015 A 
ATOM     14  C   UNL     1     -40.256 -13.557 124.775  1.00  0.00     0.009 A 
ATOM     15  C   UNL     1     -36.506 -12.792 123.284  1.00  0.00     0.001 A 
ATOM     16  C   UNL     1     -38.499 -11.987 124.266  1.00  0.00     0.009 A 
ATOM     17  C   UNL     1     -37.248 -11.737 123.769  1.00  0.00     0.001 A 
ENDBRANCH   7   8
ENDBRANCH   6   7
BRANCH   6  18
ATOM     18  C   UNL     1     -37.583 -18.821 122.447  1.00  0.00     0.045 A 
ATOM     19  C   UNL     1     -36.311 -19.206 122.224  1.00  0.00     0.019 A 
ATOM     20  S   UNL     1     -38.344 -20.297 123.080  1.00  0.00    -0.145 S 
ATOM     21  C   UNL     1     -35.924 -20.450 122.487  1.00  0.00     0.012 A 
ATOM     22  C   UNL     1     -36.872 -21.308 122.990  1.00  0.00     0.065 A 
ENDBRANCH   6  18
ENDBRANCH   1   6
TORSDOF 6
ENDMDL
MODEL 2
REMARK VINA RESULT:      -5.9      1.428      1.590
REMARK SMILES CNCC[C@H](Oc1cccc2ccccc12)c1cccs1
REMARK SMILES IDX 4 1 3 2 2 3 1 4 5 6 6 7 7 8 8 9 16 10 9 11 15 12 11 13 10 14
REMARK SMILES IDX 14 15 12 16 13 17 17 18 18 19 21 20 19 21 20 22
REMARK H PARENT 2 5
ROOT
ATOM      1  C   UNL     1     -36.502 -17.781 120.179  1.00  0.00     0.066 C 
ENDROOT
BRANCH   1   2
ATOM      2  C   UNL     1     -36.733 -17.883 118.737  1.00  0.00     0.085 C 
BRANCH   2   3
ATOM      3  N   UNL     1     -37.982 -18.180 118.193  1.00  0.00    -0.320 NA
ATOM      4  C   UNL     1     -38.527 -17.419 117.144  1.00  0.00     0.101 C 
ATOM      5  H   UNL     1     -38.361 -19.124 118.269  1.00  0.00     0.122 HD
ENDBRANCH   2   3
ENDBRANCH   1   2
BRANCH   1   6
ATOM      6  C   UNL     1     -37.612 -17.605 121.141  1.00  0.00     0.215 C 
BRANCH   6   7
ATOM      7  O   UNL     1     -37.564 -16.520 122.008  1.00  0.00    -0.484 OA
BRANCH   7   8
ATOM      8  C   UNL     1     -38.658 -15.744 122.303  1.00  0.00     0.128 A 
ATOM      9  C   UNL     1     -39.948 -16.113 122.081  1.00  0.00     0.047 A 
ATOM     10  C   UNL     1     -38.403 -14.484 122.878  1.00  0.00     0.024 A 
ATOM     11  C   UNL     1     -40.981 -15.240 122.424  1.00  0.00     0.004 A 
ATOM     12  C   UNL     1     -37.093 -14.099 123.116  1.00  0.00     0.012 A 
ATOM     13  C   UNL     1     -39.412 -13.606 123.225  1.00  0.00    -0.015 A 
ATOM     14  C   UNL     1     -40.729 -14.013 122.984  1.00  0.00     0.009 A 
ATOM     15  C   UNL     1     -36.846 -12.869 123.683  1.00  0.00     0.001 A 
ATOM     16  C   UNL     1     -39.156 -12.376 123.792  1.00  0.00     0.009 A 
ATOM     17  C   UNL     1     -37.860 -11.998 124.025  1.00  0.00     0.001 A 
ENDBRANCH   7   8
ENDBRANCH   6   7
BRANCH   6  18
ATOM     18  C   UNL     1     -37.626 -18.882 121.968  1.00  0.00     0.045 A 
ATOM     19  C   UNL     1     -38.581 -19.402 122.764  1.00  0.00     0.019 A 
ATOM     20  S   UNL     1     -36.309 -20.070 122.093  1.00  0.00    -0.145 S 
ATOM     21  C   UNL     1     -38.380 -20.550 123.402  1.00  0.00     0.012 A 
ATOM     22  C   UNL     1     -37.169 -21.169 123.212  1.00  0.00     0.065 A 
ENDBRANCH   6  18
ENDBRANCH   1   6
TORSDOF 6
ENDMDL
MODEL 3
REMARK VINA RESULT:      -5.8      3.133      4.801
REMARK SMILES CNCC[C@H](Oc1cccc2ccccc12)c1cccs1
REMARK SMILES IDX 4 1 3 2 2 3 1 4 5 6 6 7 7 8 8 9 16 10 9 11 15 12 11 13 10 14
REMARK SMILES IDX 14 15 12 16 13 17 17 18 18 19 21 20 19 21 20 22
REMARK H PARENT 2 5
ROOT
ATOM      1  C   UNL     1     -37.677 -15.082 123.966  1.00  0.00     0.066 C 
ENDROOT
BRANCH   1   2
ATOM      2  C   UNL     1     -37.081 -13.842 124.467  1.00  0.00     0.085 C 
BRANCH   2   3
ATOM      3  N   UNL     1     -36.900 -12.716 123.668  1.00  0.00    -0.320 NA
ATOM      4  C   UNL     1     -37.146 -11.420 124.155  1.00  0.00     0.101 C 
ATOM      5  H   UNL     1     -36.264 -12.751 122.870  1.00  0.00     0.122 HD
ENDBRANCH   2   3
ENDBRANCH   1   2
BRANCH   1   6
ATOM      6  C   UNL     1     -38.449 -15.127 122.704  1.00  0.00     0.215 C 
BRANCH   6   7
ATOM      7  O   UNL     1     -39.832 -15.001 122.776  1.00  0.00    -0.484 OA
BRANCH   7   8
ATOM      8  C   UNL     1     -40.496 -13.832 122.495  1.00  0.00     0.128 A 
ATOM      9  C   UNL     1     -40.524 -12.745 123.311  1.00  0.00     0.047 A 
ATOM     10  C   UNL     1     -41.186 -13.778 121.268  1.00  0.00     0.024 A 
ATOM     11  C   UNL     1     -41.233 -11.610 122.918  1.00  0.00     0.004 A 
ATOM     12  C   UNL     1     -41.159 -14.877 120.425  1.00  0.00     0.012 A 
ATOM     13  C   UNL     1     -41.893 -12.662 120.861  1.00  0.00    -0.015 A 
ATOM     14  C   UNL     1     -41.905 -11.560 121.723  1.00  0.00     0.009 A 
ATOM     15  C   UNL     1     -41.830 -14.818 119.223  1.00  0.00     0.001 A 
ATOM     16  C   UNL     1     -42.563 -12.613 119.657  1.00  0.00     0.009 A 
ATOM     17  C   UNL     1     -42.534 -13.702 118.826  1.00  0.00     0.001 A 
ENDBRANCH   7   8
ENDBRANCH   6   7
BRANCH   6  18
ATOM     18  C   UNL     1     -38.120 -16.477 122.086  1.00  0.00     0.045 A 
ATOM     19  C   UNL     1     -37.382 -16.789 121.002  1.00  0.00     0.019 A 
ATOM     20  S   UNL     1     -38.658 -18.066 122.675  1.00  0.00    -0.145 S 
ATOM     21  C   UNL     1     -37.220 -18.055 120.635  1.00  0.00     0.012 A 
ATOM     22  C   UNL     1     -37.834 -19.015 121.402  1.00  0.00     0.065 A 
ENDBRANCH   6  18
ENDBRANCH   1   6
TORSDOF 6
ENDMDL
MODEL 4
REMARK VINA RESULT:      -5.8      2.185      3.932
REMARK SMILES CNCC[C@H](Oc1cccc2ccccc12)c1cccs1
REMARK SMILES IDX 4 1 3 2 2 3 1 4 5 6 6 7 7 8 8 9 16 10 9 11 15 12 11 13 10 14
REMARK SMILES IDX 14 15 12 16 13 17 17 18 18 19 21 20 19 21 20 22
REMARK H PARENT 2 5
ROOT
ATOM      1  C   UNL     1     -37.231 -18.209 122.166  1.00  0.00     0.066 C 
ENDROOT
BRANCH   1   2
ATOM      2  C   UNL     1     -38.193 -19.253 122.525  1.00  0.00     0.085 C 
BRANCH   2   3
ATOM      3  N   UNL     1     -39.363 -18.988 123.232  1.00  0.00    -0.320 NA
ATOM      4  C   UNL     1     -40.229 -20.020 123.635  1.00  0.00     0.101 C 
ATOM      5  H   UNL     1     -39.447 -18.131 123.781  1.00  0.00     0.122 HD
ENDBRANCH   2   3
ENDBRANCH   1   2
BRANCH   1   6
ATOM      6  C   UNL     1     -37.662 -16.857 121.744  1.00  0.00     0.215 C 
BRANCH   6   7
ATOM      7  O   UNL     1     -38.616 -16.202 122.515  1.00  0.00    -0.484 OA
BRANCH   7   8
ATOM      8  C   UNL     1     -38.371 -15.022 123.172  1.00  0.00     0.128 A 
ATOM      9  C   UNL     1     -37.267 -14.773 123.926  1.00  0.00     0.047 A 
ATOM     10  C   UNL     1     -39.344 -14.012 123.041  1.00  0.00     0.024 A 
ATOM     11  C   UNL     1     -37.125 -13.533 124.548  1.00  0.00     0.004 A 
ATOM     12  C   UNL     1     -40.470 -14.251 122.270  1.00  0.00     0.012 A 
ATOM     13  C   UNL     1     -39.220 -12.777 123.649  1.00  0.00    -0.015 A 
ATOM     14  C   UNL     1     -38.074 -12.551 124.418  1.00  0.00     0.009 A 
ATOM     15  C   UNL     1     -41.417 -13.259 122.139  1.00  0.00     0.001 A 
ATOM     16  C   UNL     1     -40.174 -11.790 123.512  1.00  0.00     0.009 A 
ATOM     17  C   UNL     1     -41.287 -12.030 122.750  1.00  0.00     0.001 A 
ENDBRANCH   7   8
ENDBRANCH   6   7
BRANCH   6  18
ATOM     18  C   UNL     1     -38.216 -17.037 120.340  1.00  0.00     0.045 A 
ATOM     19  C   UNL     1     -39.314 -16.517 119.756  1.00  0.00     0.019 A 
ATOM     20  S   UNL     1     -37.511 -18.036 119.049  1.00  0.00    -0.145 S 
ATOM     21  C   UNL     1     -39.615 -16.812 118.496  1.00  0.00     0.012 A 
ATOM     22  C   UNL     1     -38.765 -17.660 117.830  1.00  0.00     0.065 A 
ENDBRANCH   6  18
ENDBRANCH   1   6
TORSDOF 6
ENDMDL
MODEL 5
REMARK VINA RESULT:      -5.8      3.187      5.057
REMARK SMILES CNCC[C@H](Oc1cccc2ccccc12)c1cccs1
REMARK SMILES IDX 4 1 3 2 2 3 1 4 5 6 6 7 7 8 8 9 16 10 9 11 15 12 11 13 10 14
REMARK SMILES IDX 14 15 12 16 13 17 17 18 18 19 21 20 19 21 20 22
REMARK H PARENT 2 5
ROOT
ATOM      1  C   UNL     1     -37.976 -15.095 122.828  1.00  0.00     0.066 C 
ENDROOT
BRANCH   1   2
ATOM      2  C   UNL     1     -37.597 -15.933 121.689  1.00  0.00     0.085 C 
BRANCH   2   3
ATOM      3  N   UNL     1     -37.980 -17.268 121.575  1.00  0.00    -0.320 NA
ATOM      4  C   UNL     1     -37.163 -18.311 122.047  1.00  0.00     0.101 C 
ATOM      5  H   UNL     1     -38.968 -17.512 121.495  1.00  0.00     0.122 HD
ENDBRANCH   2   3
ENDBRANCH   1   2
BRANCH   1   6
ATOM      6  C   UNL     1     -39.013 -15.512 123.799  1.00  0.00     0.215 C 
BRANCH   6   7
ATOM      7  O   UNL     1     -40.328 -15.136 123.555  1.00  0.00    -0.484 OA
BRANCH   7   8
ATOM      8  C   UNL     1     -40.679 -13.898 123.074  1.00  0.00     0.128 A 
ATOM      9  C   UNL     1     -40.591 -12.741 123.783  1.00  0.00     0.047 A 
ATOM     10  C   UNL     1     -41.160 -13.848 121.750  1.00  0.00     0.024 A 
ATOM     11  C   UNL     1     -40.977 -11.540 123.187  1.00  0.00     0.004 A 
ATOM     12  C   UNL     1     -41.248 -15.019 121.016  1.00  0.00     0.012 A 
ATOM     13  C   UNL     1     -41.546 -12.668 121.144  1.00  0.00    -0.015 A 
ATOM     14  C   UNL     1     -41.444 -11.494 121.898  1.00  0.00     0.009 A 
ATOM     15  C   UNL     1     -41.712 -14.966 119.720  1.00  0.00     0.001 A 
ATOM     16  C   UNL     1     -42.010 -12.625 119.846  1.00  0.00     0.009 A 
ATOM     17  C   UNL     1     -42.097 -13.785 119.123  1.00  0.00     0.001 A 
ENDBRANCH   7   8
ENDBRANCH   6   7
BRANCH   6  18
ATOM     18  C   UNL     1     -38.577 -14.912 125.127  1.00  0.00     0.045 A 
ATOM     19  C   UNL     1     -37.466 -14.224 125.457  1.00  0.00     0.019 A 
ATOM     20  S   UNL     1     -39.479 -14.976 126.658  1.00  0.00    -0.145 S 
ATOM     21  C   UNL     1     -37.286 -13.784 126.697  1.00  0.00     0.012 A 
ATOM     22  C   UNL     1     -38.272 -14.062 127.611  1.00  0.00     0.065 A 
ENDBRANCH   6  18
ENDBRANCH   1   6
TORSDOF 6
ENDMDL
MODEL 6
REMARK VINA RESULT:      -5.7      3.242      4.954
REMARK SMILES CNCC[C@H](Oc1cccc2ccccc12)c1cccs1
REMARK SMILES IDX 4 1 3 2 2 3 1 4 5 6 6 7 7 8 8 9 16 10 9 11 15 12 11 13 10 14
REMARK SMILES IDX 14 15 12 16 13 17 17 18 18 19 21 20 19 21 20 22
REMARK H PARENT 2 5
ROOT
ATOM      1  C   UNL     1     -38.344 -15.574 122.124  1.00  0.00     0.066 C 
ENDROOT
BRANCH   1   2
ATOM      2  C   UNL     1     -38.327 -16.441 120.944  1.00  0.00     0.085 C 
BRANCH   2   3
ATOM      3  N   UNL     1     -37.150 -16.803 120.292  1.00  0.00    -0.320 NA
ATOM      4  C   UNL     1     -36.599 -18.090 120.429  1.00  0.00     0.101 C 
ATOM      5  H   UNL     1     -36.861 -16.310 119.446  1.00  0.00     0.122 HD
ENDBRANCH   2   3
ENDBRANCH   1   2
BRANCH   1   6
ATOM      6  C   UNL     1     -39.300 -15.780 123.235  1.00  0.00     0.215 C 
BRANCH   6   7
ATOM      7  O   UNL     1     -40.583 -15.265 123.100  1.00  0.00    -0.484 OA
BRANCH   7   8
ATOM      8  C   UNL     1     -40.837 -13.969 122.721  1.00  0.00     0.128 A 
ATOM      9  C   UNL     1     -40.610 -12.879 123.502  1.00  0.00     0.047 A 
ATOM     10  C   UNL     1     -41.367 -13.780 121.430  1.00  0.00     0.024 A 
ATOM     11  C   UNL     1     -40.906 -11.608 123.009  1.00  0.00     0.004 A 
ATOM     12  C   UNL     1     -41.597 -14.882 120.623  1.00  0.00     0.012 A 
ATOM     13  C   UNL     1     -41.666 -12.529 120.925  1.00  0.00    -0.015 A 
ATOM     14  C   UNL     1     -41.422 -11.427 121.751  1.00  0.00     0.009 A 
ATOM     15  C   UNL     1     -42.109 -14.694 119.358  1.00  0.00     0.001 A 
ATOM     16  C   UNL     1     -42.180 -12.350 119.658  1.00  0.00     0.009 A 
ATOM     17  C   UNL     1     -42.407 -13.442 118.863  1.00  0.00     0.001 A 
ENDBRANCH   7   8
ENDBRANCH   6   7
BRANCH   6  18
ATOM     18  C   UNL     1     -38.645 -15.134 124.446  1.00  0.00     0.045 A 
ATOM     19  C   UNL     1     -39.002 -15.143 125.746  1.00  0.00     0.019 A 
ATOM     20  S   UNL     1     -37.164 -14.151 124.444  1.00  0.00    -0.145 S 
ATOM     21  C   UNL     1     -38.272 -14.503 126.653  1.00  0.00     0.012 A 
ATOM     22  C   UNL     1     -37.155 -13.840 126.205  1.00  0.00     0.065 A 
ENDBRANCH   6  18
ENDBRANCH   1   6
TORSDOF 6
ENDMDL
MODEL 7
REMARK VINA RESULT:      -5.7      2.939      6.462
REMARK SMILES CNCC[C@H](Oc1cccc2ccccc12)c1cccs1
REMARK SMILES IDX 4 1 3 2 2 3 1 4 5 6 6 7 7 8 8 9 16 10 9 11 15 12 11 13 10 14
REMARK SMILES IDX 14 15 12 16 13 17 17 18 18 19 21 20 19 21 20 22
REMARK H PARENT 2 5
ROOT
ATOM      1  C   UNL     1     -38.017 -14.722 123.089  1.00  0.00     0.066 C 
ENDROOT
BRANCH   1   2
ATOM      2  C   UNL     1     -37.285 -14.623 124.353  1.00  0.00     0.085 C 
BRANCH   2   3
ATOM      3  N   UNL     1     -37.054 -13.410 124.998  1.00  0.00    -0.320 NA
ATOM      4  C   UNL     1     -37.616 -12.209 124.529  1.00  0.00     0.101 C 
ATOM      5  H   UNL     1     -36.797 -13.396 125.986  1.00  0.00     0.122 HD
ENDBRANCH   2   3
ENDBRANCH   1   2
BRANCH   1   6
ATOM      6  C   UNL     1     -39.244 -15.538 122.954  1.00  0.00     0.215 C 
BRANCH   6   7
ATOM      7  O   UNL     1     -39.173 -16.712 122.214  1.00  0.00    -0.484 OA
BRANCH   7   8
ATOM      8  C   UNL     1     -39.400 -17.955 122.753  1.00  0.00     0.128 A 
ATOM      9  C   UNL     1     -40.574 -18.350 123.313  1.00  0.00     0.047 A 
ATOM     10  C   UNL     1     -38.328 -18.868 122.708  1.00  0.00     0.024 A 
ATOM     11  C   UNL     1     -40.689 -19.642 123.828  1.00  0.00     0.004 A 
ATOM     12  C   UNL     1     -37.129 -18.480 122.134  1.00  0.00     0.012 A 
ATOM     13  C   UNL     1     -38.423 -20.152 123.213  1.00  0.00    -0.015 A 
ATOM     14  C   UNL     1     -39.643 -20.529 123.784  1.00  0.00     0.009 A 
ATOM     15  C   UNL     1     -36.085 -19.377 122.086  1.00  0.00     0.001 A 
ATOM     16  C   UNL     1     -37.372 -21.042 123.162  1.00  0.00     0.009 A 
ATOM     17  C   UNL     1     -36.188 -20.654 122.594  1.00  0.00     0.001 A 
ENDBRANCH   7   8
ENDBRANCH   6   7
BRANCH   6  18
ATOM     18  C   UNL     1     -40.263 -14.617 122.301  1.00  0.00     0.045 A 
ATOM     19  C   UNL     1     -40.666 -13.375 122.636  1.00  0.00     0.019 A 
ATOM     20  S   UNL     1     -41.229 -14.974 120.851  1.00  0.00    -0.145 S 
ATOM     21  C   UNL     1     -41.583 -12.743 121.913  1.00  0.00     0.012 A 
ATOM     22  C   UNL     1     -42.093 -13.408 120.824  1.00  0.00     0.065 A 
ENDBRANCH   6  18
ENDBRANCH   1   6
TORSDOF 6
ENDMDL
MODEL 8
REMARK VINA RESULT:      -5.7      3.443      5.029
REMARK SMILES CNCC[C@H](Oc1cccc2ccccc12)c1cccs1
REMARK SMILES IDX 4 1 3 2 2 3 1 4 5 6 6 7 7 8 8 9 16 10 9 11 15 12 11 13 10 14
REMARK SMILES IDX 14 15 12 16 13 17 17 18 18 19 21 20 19 21 20 22
REMARK H PARENT 2 5
ROOT
ATOM      1  C   UNL     1     -37.491 -15.082 123.866  1.00  0.00     0.066 C 
ENDROOT
BRANCH   1   2
ATOM      2  C   UNL     1     -38.000 -14.783 125.206  1.00  0.00     0.085 C 
BRANCH   2   3
ATOM      3  N   UNL     1     -37.401 -13.848 126.048  1.00  0.00    -0.320 NA
ATOM      4  C   UNL     1     -37.382 -14.020 127.443  1.00  0.00     0.101 C 
ATOM      5  H   UNL     1     -36.670 -13.232 125.690  1.00  0.00     0.122 HD
ENDBRANCH   2   3
ENDBRANCH   1   2
BRANCH   1   6
ATOM      6  C   UNL     1     -38.391 -15.241 122.702  1.00  0.00     0.215 C 
BRANCH   6   7
ATOM      7  O   UNL     1     -39.752 -15.031 122.892  1.00  0.00    -0.484 OA
BRANCH   7   8
ATOM      8  C   UNL     1     -40.373 -13.837 122.619  1.00  0.00     0.128 A 
ATOM      9  C   UNL     1     -40.303 -12.732 123.408  1.00  0.00     0.047 A 
ATOM     10  C   UNL     1     -41.129 -13.775 121.432  1.00  0.00     0.024 A 
ATOM     11  C   UNL     1     -40.977 -11.572 123.027  1.00  0.00     0.004 A 
ATOM     12  C   UNL     1     -41.203 -14.892 120.615  1.00  0.00     0.012 A 
ATOM     13  C   UNL     1     -41.803 -12.635 121.037  1.00  0.00    -0.015 A 
ATOM     14  C   UNL     1     -41.713 -11.515 121.871  1.00  0.00     0.009 A 
ATOM     15  C   UNL     1     -41.937 -14.827 119.452  1.00  0.00     0.001 A 
ATOM     16  C   UNL     1     -42.537 -12.579 119.872  1.00  0.00     0.009 A 
ATOM     17  C   UNL     1     -42.608 -13.686 119.067  1.00  0.00     0.001 A 
ENDBRANCH   7   8
ENDBRANCH   6   7
BRANCH   6  18
ATOM     18  C   UNL     1     -38.185 -16.673 122.233  1.00  0.00     0.045 A 
ATOM     19  C   UNL     1     -38.429 -17.844 122.855  1.00  0.00     0.019 A 
ATOM     20  S   UNL     1     -37.534 -17.183 120.659  1.00  0.00    -0.145 S 
ATOM     21  C   UNL     1     -38.171 -18.998 122.250  1.00  0.00     0.012 A 
ATOM     22  C   UNL     1     -37.651 -18.939 120.980  1.00  0.00     0.065 A 
ENDBRANCH   6  18
ENDBRANCH   1   6
TORSDOF 6
ENDMDL
MODEL 9
REMARK VINA RESULT:      -5.7      1.317      2.313
REMARK SMILES CNCC[C@H](Oc1cccc2ccccc12)c1cccs1
REMARK SMILES IDX 4 1 3 2 2 3 1 4 5 6 6 7 7 8 8 9 16 10 9 11 15 12 11 13 10 14
REMARK SMILES IDX 14 15 12 16 13 17 17 18 18 19 21 20 19 21 20 22
REMARK H PARENT 2 5
ROOT
ATOM      1  C   UNL     1     -38.393 -16.601 120.804  1.00  0.00     0.066 C 
ENDROOT
BRANCH   1   2
ATOM      2  C   UNL     1     -38.777 -16.812 119.407  1.00  0.00     0.085 C 
BRANCH   2   3
ATOM      3  N   UNL     1     -38.013 -17.569 118.522  1.00  0.00    -0.320 NA
ATOM      4  C   UNL     1     -36.629 -17.740 118.704  1.00  0.00     0.101 C 
ATOM      5  H   UNL     1     -38.455 -18.294 117.955  1.00  0.00     0.122 HD
ENDBRANCH   2   3
ENDBRANCH   1   2
BRANCH   1   6
ATOM      6  C   UNL     1     -39.079 -17.291 121.919  1.00  0.00     0.215 C 
BRANCH   6   7
ATOM      7  O   UNL     1     -39.313 -16.576 123.088  1.00  0.00    -0.484 OA
BRANCH   7   8
ATOM      8  C   UNL     1     -38.712 -15.373 123.367  1.00  0.00     0.128 A 
ATOM      9  C   UNL     1     -37.406 -15.226 123.717  1.00  0.00     0.047 A 
ATOM     10  C   UNL     1     -39.523 -14.225 123.276  1.00  0.00     0.024 A 
ATOM     11  C   UNL     1     -36.904 -13.951 123.977  1.00  0.00     0.004 A 
ATOM     12  C   UNL     1     -40.854 -14.362 122.915  1.00  0.00     0.012 A 
ATOM     13  C   UNL     1     -39.044 -12.954 123.530  1.00  0.00    -0.015 A 
ATOM     14  C   UNL     1     -37.697 -12.835 123.888  1.00  0.00     0.009 A 
ATOM     15  C   UNL     1     -41.643 -13.237 122.821  1.00  0.00     0.001 A 
ATOM     16  C   UNL     1     -39.842 -11.834 123.434  1.00  0.00     0.009 A 
ATOM     17  C   UNL     1     -41.157 -11.972 123.077  1.00  0.00     0.001 A 
ENDBRANCH   7   8
ENDBRANCH   6   7
BRANCH   6  18
ATOM     18  C   UNL     1     -38.194 -18.483 122.252  1.00  0.00     0.045 A 
ATOM     19  C   UNL     1     -36.863 -18.650 122.126  1.00  0.00     0.019 A 
ATOM     20  S   UNL     1     -38.731 -20.037 122.928  1.00  0.00    -0.145 S 
ATOM     21  C   UNL     1     -36.287 -19.792 122.485  1.00  0.00     0.012 A 
ATOM     22  C   UNL     1     -37.104 -20.778 122.983  1.00  0.00     0.065 A 
ENDBRANCH   6  18
ENDBRANCH   1   6
TORSDOF 6
ENDMDL
