MODEL 1
REMARK VINA RESULT:      -7.4      0.000      0.000
REMARK SMILES O=C(CCC[NH+]1CCC(O)(c2ccc(Cl)cc2)CC1)c1ccc(F)cc1
REMARK SMILES IDX 4 1 3 2 2 3 1 4 20 5 21 6 26 7 22 8 25 9 23 10 24 11 5 12
REMARK SMILES IDX 6 13 7 14 19 15 8 16 18 17 9 18 10 20 11 22 12 23 17 24
REMARK SMILES IDX 13 25 16 26 14 27 15 28
REMARK H PARENT 6 19 10 21
ROOT
ATOM      1  C   UNL     1     134.824 112.927 146.632  1.00  0.00     0.070 C 
ENDROOT
BRANCH   1   2
ATOM      2  C   UNL     1     133.505 112.339 146.183  1.00  0.00     0.087 C 
BRANCH   2   3
ATOM      3  C   UNL     1     133.306 112.342 144.732  1.00  0.00     0.163 C 
ATOM      4  O   UNL     1     133.704 113.297 144.016  1.00  0.00    -0.294 OA
BRANCH   3   5
ATOM      5  C   UNL     1     132.635 111.232 144.022  1.00  0.00     0.018 A 
ATOM      6  C   UNL     1     131.466 110.686 144.520  1.00  0.00     0.015 A 
ATOM      7  C   UNL     1     133.152 110.722 142.859  1.00  0.00     0.015 A 
ATOM      8  C   UNL     1     130.847 109.654 143.855  1.00  0.00     0.040 A 
ATOM      9  C   UNL     1     132.541 109.694 142.191  1.00  0.00     0.040 A 
ATOM     10  C   UNL     1     131.385 109.162 142.694  1.00  0.00     0.123 A 
ATOM     11  F   UNL     1     130.804 108.133 141.999  1.00  0.00    -0.207 F 
ENDBRANCH   3   5
ENDBRANCH   2   3
ENDBRANCH   1   2
BRANCH   1  12
ATOM     12  C   UNL     1     134.553 114.217 147.327  1.00  0.00     0.262 C 
BRANCH  12  13
ATOM     13  N   UNL     1     135.466 114.462 148.436  1.00  0.00    -0.335 N 
ATOM     14  C   UNL     1     134.794 114.959 149.598  1.00  0.00     0.265 C 
ATOM     15  C   UNL     1     136.196 113.275 148.743  1.00  0.00     0.265 C 
ATOM     16  C   UNL     1     133.754 113.991 150.092  1.00  0.00     0.102 C 
ATOM     17  C   UNL     1     135.810 112.546 149.959  1.00  0.00     0.102 C 
ATOM     18  C   UNL     1     134.417 112.695 150.450  1.00  0.00     0.100 C 
ATOM     19  H   UNL     1     136.096 115.247 148.095  1.00  0.00     0.348 HD
BRANCH  18  20
ATOM     20  O   UNL     1     134.473 112.664 151.865  1.00  0.00    -0.385 OA
ATOM     21  H   UNL     1     135.428 112.579 152.109  1.00  0.00     0.211 HD
ENDBRANCH  18  20
BRANCH  18  22
ATOM     22  C   UNL     1     133.547 111.518 150.094  1.00  0.00    -0.016 A 
ATOM     23  C   UNL     1     132.253 111.674 149.643  1.00  0.00     0.008 A 
ATOM     24  C   UNL     1     133.986 110.216 150.194  1.00  0.00     0.008 A 
ATOM     25  C   UNL     1     131.426 110.626 149.308  1.00  0.00     0.021 A 
ATOM     26  C   UNL     1     133.174 109.149 149.863  1.00  0.00     0.021 A 
ATOM     27  C   UNL     1     131.896 109.355 149.420  1.00  0.00     0.041 A 
ATOM     28  Cl  UNL     1     130.863 108.010 148.998  1.00  0.00    -0.084 Cl
ENDBRANCH  18  22
ENDBRANCH  12  13
ENDBRANCH   1  12
TORSDOF 7
ENDMDL
MODEL 2
REMARK VINA RESULT:      -7.4      0.103      1.310
REMARK SMILES O=C(CCC[NH+]1CCC(O)(c2ccc(Cl)cc2)CC1)c1ccc(F)cc1
REMARK SMILES IDX 4 1 3 2 2 3 1 4 20 5 21 6 26 7 22 8 25 9 23 10 24 11 5 12
REMARK SMILES IDX 6 13 7 14 19 15 8 16 18 17 9 18 10 20 11 22 12 23 17 24
REMARK SMILES IDX 13 25 16 26 14 27 15 28
REMARK H PARENT 6 19 10 21
ROOT
ATOM      1  C   UNL     1     134.782 112.740 146.737  1.00  0.00     0.070 C 
ENDROOT
BRANCH   1   2
ATOM      2  C   UNL     1     133.422 112.299 146.243  1.00  0.00     0.087 C 
BRANCH   2   3
ATOM      3  C   UNL     1     133.280 112.303 144.786  1.00  0.00     0.163 C 
ATOM      4  O   UNL     1     133.711 113.256 144.086  1.00  0.00    -0.294 OA
BRANCH   3   5
ATOM      5  C   UNL     1     132.630 111.198 144.051  1.00  0.00     0.018 A 
ATOM      6  C   UNL     1     133.231 110.648 142.933  1.00  0.00     0.015 A 
ATOM      7  C   UNL     1     131.421 110.694 144.458  1.00  0.00     0.015 A 
ATOM      8  C   UNL     1     132.620 109.620 142.254  1.00  0.00     0.040 A 
ATOM      9  C   UNL     1     130.807 109.670 143.787  1.00  0.00     0.040 A 
ATOM     10  C   UNL     1     131.411 109.134 142.683  1.00  0.00     0.123 A 
ATOM     11  F   UNL     1     130.765 108.113 142.036  1.00  0.00    -0.207 F 
ENDBRANCH   3   5
ENDBRANCH   2   3
ENDBRANCH   1   2
BRANCH   1  12
ATOM     12  C   UNL     1     134.656 114.113 147.302  1.00  0.00     0.262 C 
BRANCH  12  13
ATOM     13  N   UNL     1     135.547 114.341 148.433  1.00  0.00    -0.335 N 
ATOM     14  C   UNL     1     134.862 114.879 149.569  1.00  0.00     0.265 C 
ATOM     15  C   UNL     1     136.225 113.133 148.775  1.00  0.00     0.265 C 
ATOM     16  C   UNL     1     133.775 113.956 150.047  1.00  0.00     0.102 C 
ATOM     17  C   UNL     1     135.780 112.437 149.990  1.00  0.00     0.102 C 
ATOM     18  C   UNL     1     134.381 112.642 150.440  1.00  0.00     0.100 C 
ATOM     19  H   UNL     1     136.214 115.099 148.099  1.00  0.00     0.348 HD
BRANCH  18  20
ATOM     20  O   UNL     1     134.397 112.629 151.856  1.00  0.00    -0.385 OA
ATOM     21  H   UNL     1     135.089 111.976 152.126  1.00  0.00     0.211 HD
ENDBRANCH  18  20
BRANCH  18  22
ATOM     22  C   UNL     1     133.479 111.492 150.075  1.00  0.00    -0.016 A 
ATOM     23  C   UNL     1     133.905 110.181 150.132  1.00  0.00     0.008 A 
ATOM     24  C   UNL     1     132.177 111.673 149.663  1.00  0.00     0.008 A 
ATOM     25  C   UNL     1     133.114 109.103 149.807  1.00  0.00     0.021 A 
ATOM     26  C   UNL     1     131.365 110.607 149.331  1.00  0.00     0.021 A 
ATOM     27  C   UNL     1     131.834 109.323 149.404  1.00  0.00     0.041 A 
ATOM     28  Cl  UNL     1     130.812 107.968 148.989  1.00  0.00    -0.084 Cl
ENDBRANCH  18  22
ENDBRANCH  12  13
ENDBRANCH   1  12
TORSDOF 7
ENDMDL
MODEL 3
REMARK VINA RESULT:      -7.1      0.651      1.126
REMARK SMILES O=C(CCC[NH+]1CCC(O)(c2ccc(Cl)cc2)CC1)c1ccc(F)cc1
REMARK SMILES IDX 4 1 3 2 2 3 1 4 20 5 21 6 26 7 22 8 25 9 23 10 24 11 5 12
REMARK SMILES IDX 6 13 7 14 19 15 8 16 18 17 9 18 10 20 11 22 12 23 17 24
REMARK SMILES IDX 13 25 16 26 14 27 15 28
REMARK H PARENT 6 19 10 21
ROOT
ATOM      1  C   UNL     1     134.950 112.892 146.775  1.00  0.00     0.070 C 
ENDROOT
BRANCH   1   2
ATOM      2  C   UNL     1     133.880 112.672 145.728  1.00  0.00     0.087 C 
BRANCH   2   3
ATOM      3  C   UNL     1     134.184 111.608 144.769  1.00  0.00     0.163 C 
ATOM      4  O   UNL     1     135.370 111.281 144.506  1.00  0.00    -0.294 OA
BRANCH   3   5
ATOM      5  C   UNL     1     133.129 110.858 144.056  1.00  0.00     0.018 A 
ATOM      6  C   UNL     1     131.849 110.781 144.576  1.00  0.00     0.015 A 
ATOM      7  C   UNL     1     133.391 110.225 142.868  1.00  0.00     0.015 A 
ATOM      8  C   UNL     1     130.872 110.081 143.909  1.00  0.00     0.040 A 
ATOM      9  C   UNL     1     132.423 109.527 142.197  1.00  0.00     0.040 A 
ATOM     10  C   UNL     1     131.161 109.458 142.722  1.00  0.00     0.123 A 
ATOM     11  F   UNL     1     130.220 108.747 142.023  1.00  0.00    -0.207 F 
ENDBRANCH   3   5
ENDBRANCH   2   3
ENDBRANCH   1   2
BRANCH   1  12
ATOM     12  C   UNL     1     134.717 114.217 147.415  1.00  0.00     0.262 C 
BRANCH  12  13
ATOM     13  N   UNL     1     135.572 114.442 148.573  1.00  0.00    -0.335 N 
ATOM     14  C   UNL     1     134.848 114.953 149.697  1.00  0.00     0.265 C 
ATOM     15  C   UNL     1     136.259 113.239 148.917  1.00  0.00     0.265 C 
ATOM     16  C   UNL     1     133.762 114.008 150.131  1.00  0.00     0.102 C 
ATOM     17  C   UNL     1     135.790 112.518 150.109  1.00  0.00     0.102 C 
ATOM     18  C   UNL     1     134.375 112.697 150.523  1.00  0.00     0.100 C 
ATOM     19  H   UNL     1     136.238 115.213 148.269  1.00  0.00     0.348 HD
BRANCH  18  20
ATOM     20  O   UNL     1     134.352 112.665 151.938  1.00  0.00    -0.385 OA
ATOM     21  H   UNL     1     133.769 113.410 152.228  1.00  0.00     0.211 HD
ENDBRANCH  18  20
BRANCH  18  22
ATOM     22  C   UNL     1     133.501 111.540 150.116  1.00  0.00    -0.016 A 
ATOM     23  C   UNL     1     133.923 110.231 150.224  1.00  0.00     0.008 A 
ATOM     24  C   UNL     1     132.230 111.713 149.613  1.00  0.00     0.008 A 
ATOM     25  C   UNL     1     133.156 109.146 149.864  1.00  0.00     0.021 A 
ATOM     26  C   UNL     1     131.443 110.640 149.245  1.00  0.00     0.021 A 
ATOM     27  C   UNL     1     131.906 109.358 149.371  1.00  0.00     0.041 A 
ATOM     28  Cl  UNL     1     130.915 107.995 148.909  1.00  0.00    -0.084 Cl
ENDBRANCH  18  22
ENDBRANCH  12  13
ENDBRANCH   1  12
TORSDOF 7
ENDMDL
MODEL 4
REMARK VINA RESULT:      -6.9     13.843     17.552
REMARK SMILES O=C(CCC[NH+]1CCC(O)(c2ccc(Cl)cc2)CC1)c1ccc(F)cc1
REMARK SMILES IDX 4 1 3 2 2 3 1 4 20 5 21 6 26 7 22 8 25 9 23 10 24 11 5 12
REMARK SMILES IDX 6 13 7 14 19 15 8 16 18 17 9 18 10 20 11 22 12 23 17 24
REMARK SMILES IDX 13 25 16 26 14 27 15 28
REMARK H PARENT 6 19 10 21
ROOT
ATOM      1  C   UNL     1     132.193 108.925 130.524  1.00  0.00     0.070 C 
ENDROOT
BRANCH   1   2
ATOM      2  C   UNL     1     131.691 110.155 131.246  1.00  0.00     0.087 C 
BRANCH   2   3
ATOM      3  C   UNL     1     132.465 110.513 132.436  1.00  0.00     0.163 C 
ATOM      4  O   UNL     1     133.441 109.818 132.819  1.00  0.00    -0.294 OA
BRANCH   3   5
ATOM      5  C   UNL     1     132.153 111.704 133.255  1.00  0.00     0.018 A 
ATOM      6  C   UNL     1     130.887 112.261 133.230  1.00  0.00     0.015 A 
ATOM      7  C   UNL     1     133.106 112.281 134.055  1.00  0.00     0.015 A 
ATOM      8  C   UNL     1     130.604 113.368 133.994  1.00  0.00     0.040 A 
ATOM      9  C   UNL     1     132.831 113.383 134.819  1.00  0.00     0.040 A 
ATOM     10  C   UNL     1     131.575 113.926 134.786  1.00  0.00     0.123 A 
ATOM     11  F   UNL     1     131.339 115.031 135.562  1.00  0.00    -0.207 F 
ENDBRANCH   3   5
ENDBRANCH   2   3
ENDBRANCH   1   2
BRANCH   1  12
ATOM     12  C   UNL     1     132.099 109.169 129.056  1.00  0.00     0.262 C 
BRANCH  12  13
ATOM     13  N   UNL     1     133.370 108.977 128.371  1.00  0.00    -0.335 N 
ATOM     14  C   UNL     1     133.459 109.735 127.160  1.00  0.00     0.265 C 
ATOM     15  C   UNL     1     134.453 109.291 129.245  1.00  0.00     0.265 C 
ATOM     16  C   UNL     1     133.320 111.210 127.420  1.00  0.00     0.102 C 
ATOM     17  C   UNL     1     135.160 110.558 129.007  1.00  0.00     0.102 C 
ATOM     18  C   UNL     1     134.420 111.655 128.336  1.00  0.00     0.100 C 
ATOM     19  H   UNL     1     133.367 107.953 128.083  1.00  0.00     0.348 HD
BRANCH  18  20
ATOM     20  O   UNL     1     135.352 112.342 127.520  1.00  0.00    -0.385 OA
ATOM     21  H   UNL     1     135.551 111.745 126.755  1.00  0.00     0.211 HD
ENDBRANCH  18  20
BRANCH  18  22
ATOM     22  C   UNL     1     133.937 112.706 129.302  1.00  0.00    -0.016 A 
ATOM     23  C   UNL     1     134.778 113.294 130.224  1.00  0.00     0.008 A 
ATOM     24  C   UNL     1     132.632 113.145 129.326  1.00  0.00     0.008 A 
ATOM     25  C   UNL     1     134.377 114.255 131.123  1.00  0.00     0.021 A 
ATOM     26  C   UNL     1     132.206 114.108 130.220  1.00  0.00     0.021 A 
ATOM     27  C   UNL     1     133.079 114.662 131.116  1.00  0.00     0.041 A 
ATOM     28  Cl  UNL     1     132.549 115.884 132.248  1.00  0.00    -0.084 Cl
ENDBRANCH  18  22
ENDBRANCH  12  13
ENDBRANCH   1  12
TORSDOF 7
ENDMDL
MODEL 5
REMARK VINA RESULT:      -6.9     14.639     16.703
REMARK SMILES O=C(CCC[NH+]1CCC(O)(c2ccc(Cl)cc2)CC1)c1ccc(F)cc1
REMARK SMILES IDX 4 1 3 2 2 3 1 4 20 5 21 6 26 7 22 8 25 9 23 10 24 11 5 12
REMARK SMILES IDX 6 13 7 14 19 15 8 16 18 17 9 18 10 20 11 22 12 23 17 24
REMARK SMILES IDX 13 25 16 26 14 27 15 28
REMARK H PARENT 6 19 10 21
ROOT
ATOM      1  C   UNL     1     130.223 113.780 133.625  1.00  0.00     0.070 C 
ENDROOT
BRANCH   1   2
ATOM      2  C   UNL     1     129.985 112.290 133.520  1.00  0.00     0.087 C 
BRANCH   2   3
ATOM      3  C   UNL     1     131.201 111.478 133.597  1.00  0.00     0.163 C 
ATOM      4  O   UNL     1     131.924 111.473 134.627  1.00  0.00    -0.294 OA
BRANCH   3   5
ATOM      5  C   UNL     1     131.652 110.619 132.482  1.00  0.00     0.018 A 
ATOM      6  C   UNL     1     130.784 110.283 131.459  1.00  0.00     0.015 A 
ATOM      7  C   UNL     1     132.936 110.138 132.435  1.00  0.00     0.015 A 
ATOM      8  C   UNL     1     131.210 109.484 130.425  1.00  0.00     0.040 A 
ATOM      9  C   UNL     1     133.367 109.342 131.408  1.00  0.00     0.040 A 
ATOM     10  C   UNL     1     132.499 109.016 130.402  1.00  0.00     0.123 A 
ATOM     11  F   UNL     1     132.967 108.215 129.393  1.00  0.00    -0.207 F 
ENDBRANCH   3   5
ENDBRANCH   2   3
ENDBRANCH   1   2
BRANCH   1  12
ATOM     12  C   UNL     1     130.948 114.228 132.403  1.00  0.00     0.262 C 
BRANCH  12  13
ATOM     13  N   UNL     1     131.918 115.281 132.677  1.00  0.00    -0.335 N 
ATOM     14  C   UNL     1     133.061 114.799 133.390  1.00  0.00     0.265 C 
ATOM     15  C   UNL     1     132.310 115.916 131.461  1.00  0.00     0.265 C 
ATOM     16  C   UNL     1     133.783 113.728 132.619  1.00  0.00     0.102 C 
ATOM     17  C   UNL     1     133.647 115.598 130.940  1.00  0.00     0.102 C 
ATOM     18  C   UNL     1     134.248 114.292 131.310  1.00  0.00     0.100 C 
ATOM     19  H   UNL     1     131.412 115.945 133.335  1.00  0.00     0.348 HD
BRANCH  18  20
ATOM     20  O   UNL     1     135.641 114.504 131.450  1.00  0.00    -0.385 OA
ATOM     21  H   UNL     1     135.967 114.829 130.574  1.00  0.00     0.211 HD
ENDBRANCH  18  20
BRANCH  18  22
ATOM     22  C   UNL     1     134.143 113.272 130.206  1.00  0.00    -0.016 A 
ATOM     23  C   UNL     1     132.964 113.047 129.527  1.00  0.00     0.008 A 
ATOM     24  C   UNL     1     135.212 112.501 129.806  1.00  0.00     0.008 A 
ATOM     25  C   UNL     1     132.826 112.125 128.514  1.00  0.00     0.021 A 
ATOM     26  C   UNL     1     135.098 111.570 128.793  1.00  0.00     0.021 A 
ATOM     27  C   UNL     1     133.905 111.383 128.148  1.00  0.00     0.041 A 
ATOM     28  Cl  UNL     1     133.752 110.209 126.864  1.00  0.00    -0.084 Cl
ENDBRANCH  18  22
ENDBRANCH  12  13
ENDBRANCH   1  12
TORSDOF 7
ENDMDL
MODEL 6
REMARK VINA RESULT:      -6.8     14.096     18.005
REMARK SMILES O=C(CCC[NH+]1CCC(O)(c2ccc(Cl)cc2)CC1)c1ccc(F)cc1
REMARK SMILES IDX 4 1 3 2 2 3 1 4 20 5 21 6 26 7 22 8 25 9 23 10 24 11 5 12
REMARK SMILES IDX 6 13 7 14 19 15 8 16 18 17 9 18 10 20 11 22 12 23 17 24
REMARK SMILES IDX 13 25 16 26 14 27 15 28
REMARK H PARENT 6 19 10 21
ROOT
ATOM      1  C   UNL     1     132.394 109.891 129.743  1.00  0.00     0.070 C 
ENDROOT
BRANCH   1   2
ATOM      2  C   UNL     1     131.644 109.686 131.040  1.00  0.00     0.087 C 
BRANCH   2   3
ATOM      3  C   UNL     1     132.365 110.140 132.232  1.00  0.00     0.163 C 
ATOM      4  O   UNL     1     133.395 109.545 132.642  1.00  0.00    -0.294 OA
BRANCH   3   5
ATOM      5  C   UNL     1     131.935 111.314 133.019  1.00  0.00     0.018 A 
ATOM      6  C   UNL     1     132.844 112.012 133.794  1.00  0.00     0.015 A 
ATOM      7  C   UNL     1     130.630 111.737 133.001  1.00  0.00     0.015 A 
ATOM      8  C   UNL     1     132.436 113.103 134.524  1.00  0.00     0.040 A 
ATOM      9  C   UNL     1     130.217 112.823 133.725  1.00  0.00     0.040 A 
ATOM     10  C   UNL     1     131.126 113.506 134.488  1.00  0.00     0.123 A 
ATOM     11  F   UNL     1     130.674 114.586 135.201  1.00  0.00    -0.207 F 
ENDBRANCH   3   5
ENDBRANCH   2   3
ENDBRANCH   1   2
BRANCH   1  12
ATOM     12  C   UNL     1     131.402 110.152 128.662  1.00  0.00     0.262 C 
BRANCH  12  13
ATOM     13  N   UNL     1     132.025 110.334 127.357  1.00  0.00    -0.335 N 
ATOM     14  C   UNL     1     131.398 111.368 126.591  1.00  0.00     0.265 C 
ATOM     15  C   UNL     1     133.419 110.592 127.511  1.00  0.00     0.265 C 
ATOM     16  C   UNL     1     131.462 112.695 127.296  1.00  0.00     0.102 C 
ATOM     17  C   UNL     1     133.873 111.973 127.293  1.00  0.00     0.102 C 
ATOM     18  C   UNL     1     132.898 113.071 127.510  1.00  0.00     0.100 C 
ATOM     19  H   UNL     1     131.837 109.423 126.842  1.00  0.00     0.348 HD
BRANCH  18  20
ATOM     20  O   UNL     1     133.184 114.072 126.550  1.00  0.00    -0.385 OA
ATOM     21  H   UNL     1     132.325 114.517 126.341  1.00  0.00     0.211 HD
ENDBRANCH  18  20
BRANCH  18  22
ATOM     22  C   UNL     1     133.091 113.766 128.832  1.00  0.00    -0.016 A 
ATOM     23  C   UNL     1     134.246 114.457 129.133  1.00  0.00     0.008 A 
ATOM     24  C   UNL     1     132.132 113.757 129.821  1.00  0.00     0.008 A 
ATOM     25  C   UNL     1     134.462 115.105 130.328  1.00  0.00     0.021 A 
ATOM     26  C   UNL     1     132.327 114.399 131.028  1.00  0.00     0.021 A 
ATOM     27  C   UNL     1     133.491 115.072 131.280  1.00  0.00     0.041 A 
ATOM     28  Cl  UNL     1     133.744 115.890 132.803  1.00  0.00    -0.084 Cl
ENDBRANCH  18  22
ENDBRANCH  12  13
ENDBRANCH   1  12
TORSDOF 7
ENDMDL
MODEL 7
REMARK VINA RESULT:      -6.8     13.947     16.740
REMARK SMILES O=C(CCC[NH+]1CCC(O)(c2ccc(Cl)cc2)CC1)c1ccc(F)cc1
REMARK SMILES IDX 4 1 3 2 2 3 1 4 20 5 21 6 26 7 22 8 25 9 23 10 24 11 5 12
REMARK SMILES IDX 6 13 7 14 19 15 8 16 18 17 9 18 10 20 11 22 12 23 17 24
REMARK SMILES IDX 13 25 16 26 14 27 15 28
REMARK H PARENT 6 19 10 21
ROOT
ATOM      1  C   UNL     1     132.094 110.871 134.031  1.00  0.00     0.070 C 
ENDROOT
BRANCH   1   2
ATOM      2  C   UNL     1     131.842 110.813 132.541  1.00  0.00     0.087 C 
BRANCH   2   3
ATOM      3  C   UNL     1     132.805 109.997 131.798  1.00  0.00     0.163 C 
ATOM      4  O   UNL     1     133.614 109.235 132.388  1.00  0.00    -0.294 OA
BRANCH   3   5
ATOM      5  C   UNL     1     132.887 110.016 130.322  1.00  0.00     0.018 A 
ATOM      6  C   UNL     1     131.748 109.852 129.554  1.00  0.00     0.015 A 
ATOM      7  C   UNL     1     134.087 110.195 129.683  1.00  0.00     0.015 A 
ATOM      8  C   UNL     1     131.831 109.871 128.182  1.00  0.00     0.040 A 
ATOM      9  C   UNL     1     134.177 110.214 128.317  1.00  0.00     0.040 A 
ATOM     10  C   UNL     1     133.044 110.052 127.568  1.00  0.00     0.123 A 
ATOM     11  F   UNL     1     133.175 110.074 126.203  1.00  0.00    -0.207 F 
ENDBRANCH   3   5
ENDBRANCH   2   3
ENDBRANCH   1   2
BRANCH   1  12
ATOM     12  C   UNL     1     132.925 112.074 134.321  1.00  0.00     0.262 C 
BRANCH  12  13
ATOM     13  N   UNL     1     132.144 113.182 134.855  1.00  0.00    -0.335 N 
ATOM     14  C   UNL     1     132.930 114.364 135.045  1.00  0.00     0.265 C 
ATOM     15  C   UNL     1     131.026 113.448 134.009  1.00  0.00     0.265 C 
ATOM     16  C   UNL     1     133.537 114.838 133.753  1.00  0.00     0.102 C 
ATOM     17  C   UNL     1     131.098 114.646 133.161  1.00  0.00     0.102 C 
ATOM     18  C   UNL     1     132.440 115.153 132.780  1.00  0.00     0.100 C 
ATOM     19  H   UNL     1     131.849 112.859 135.825  1.00  0.00     0.348 HD
BRANCH  18  20
ATOM     20  O   UNL     1     132.352 116.565 132.738  1.00  0.00    -0.385 OA
ATOM     21  H   UNL     1     132.699 116.844 131.853  1.00  0.00     0.211 HD
ENDBRANCH  18  20
BRANCH  18  22
ATOM     22  C   UNL     1     132.828 114.769 131.376  1.00  0.00    -0.016 A 
ATOM     23  C   UNL     1     132.070 113.900 130.618  1.00  0.00     0.008 A 
ATOM     24  C   UNL     1     133.959 115.258 130.760  1.00  0.00     0.008 A 
ATOM     25  C   UNL     1     132.389 113.524 129.334  1.00  0.00     0.021 A 
ATOM     26  C   UNL     1     134.300 114.895 129.472  1.00  0.00     0.021 A 
ATOM     27  C   UNL     1     133.515 114.029 128.760  1.00  0.00     0.041 A 
ATOM     28  Cl  UNL     1     133.937 113.566 127.129  1.00  0.00    -0.084 Cl
ENDBRANCH  18  22
ENDBRANCH  12  13
ENDBRANCH   1  12
TORSDOF 7
ENDMDL
MODEL 8
REMARK VINA RESULT:      -6.8     13.703     17.214
REMARK SMILES O=C(CCC[NH+]1CCC(O)(c2ccc(Cl)cc2)CC1)c1ccc(F)cc1
REMARK SMILES IDX 4 1 3 2 2 3 1 4 20 5 21 6 26 7 22 8 25 9 23 10 24 11 5 12
REMARK SMILES IDX 6 13 7 14 19 15 8 16 18 17 9 18 10 20 11 22 12 23 17 24
REMARK SMILES IDX 13 25 16 26 14 27 15 28
REMARK H PARENT 6 19 10 21
ROOT
ATOM      1  C   UNL     1     131.425 109.177 131.362  1.00  0.00     0.070 C 
ENDROOT
BRANCH   1   2
ATOM      2  C   UNL     1     131.134 110.342 132.281  1.00  0.00     0.087 C 
BRANCH   2   3
ATOM      3  C   UNL     1     132.280 110.781 133.079  1.00  0.00     0.163 C 
ATOM      4  O   UNL     1     133.307 110.065 133.204  1.00  0.00    -0.294 OA
BRANCH   3   5
ATOM      5  C   UNL     1     132.306 112.083 133.779  1.00  0.00     0.018 A 
ATOM      6  C   UNL     1     131.158 112.849 133.879  1.00  0.00     0.015 A 
ATOM      7  C   UNL     1     133.461 112.559 134.344  1.00  0.00     0.015 A 
ATOM      8  C   UNL     1     131.189 114.059 134.531  1.00  0.00     0.040 A 
ATOM      9  C   UNL     1     133.499 113.763 134.996  1.00  0.00     0.040 A 
ATOM     10  C   UNL     1     132.357 114.512 135.088  1.00  0.00     0.123 A 
ATOM     11  F   UNL     1     132.435 115.712 135.745  1.00  0.00    -0.207 F 
ENDBRANCH   3   5
ENDBRANCH   2   3
ENDBRANCH   1   2
BRANCH   1  12
ATOM     12  C   UNL     1     131.329 109.653 129.953  1.00  0.00     0.262 C 
BRANCH  12  13
ATOM     13  N   UNL     1     132.375 109.104 129.100  1.00  0.00    -0.335 N 
ATOM     14  C   UNL     1     132.438 109.752 127.825  1.00  0.00     0.265 C 
ATOM     15  C   UNL     1     133.635 109.168 129.764  1.00  0.00     0.265 C 
ATOM     16  C   UNL     1     132.717 111.223 127.967  1.00  0.00     0.102 C 
ATOM     17  C   UNL     1     134.583 110.193 129.305  1.00  0.00     0.102 C 
ATOM     18  C   UNL     1     134.035 111.411 128.658  1.00  0.00     0.100 C 
ATOM     19  H   UNL     1     132.067 108.103 128.912  1.00  0.00     0.348 HD
BRANCH  18  20
ATOM     20  O   UNL     1     134.952 111.791 127.648  1.00  0.00    -0.385 OA
ATOM     21  H   UNL     1     135.297 110.952 127.249  1.00  0.00     0.211 HD
ENDBRANCH  18  20
BRANCH  18  22
ATOM     22  C   UNL     1     134.002 112.597 129.586  1.00  0.00    -0.016 A 
ATOM     23  C   UNL     1     132.818 113.168 130.004  1.00  0.00     0.008 A 
ATOM     24  C   UNL     1     135.148 113.187 130.074  1.00  0.00     0.008 A 
ATOM     25  C   UNL     1     132.745 114.251 130.850  1.00  0.00     0.021 A 
ATOM     26  C   UNL     1     135.099 114.274 130.924  1.00  0.00     0.021 A 
ATOM     27  C   UNL     1     133.898 114.805 131.311  1.00  0.00     0.041 A 
ATOM     28  Cl  UNL     1     133.828 116.179 132.387  1.00  0.00    -0.084 Cl
ENDBRANCH  18  22
ENDBRANCH  12  13
ENDBRANCH   1  12
TORSDOF 7
ENDMDL
MODEL 9
REMARK VINA RESULT:      -6.7     14.404     16.921
REMARK SMILES O=C(CCC[NH+]1CCC(O)(c2ccc(Cl)cc2)CC1)c1ccc(F)cc1
REMARK SMILES IDX 4 1 3 2 2 3 1 4 20 5 21 6 26 7 22 8 25 9 23 10 24 11 5 12
REMARK SMILES IDX 6 13 7 14 19 15 8 16 18 17 9 18 10 20 11 22 12 23 17 24
REMARK SMILES IDX 13 25 16 26 14 27 15 28
REMARK H PARENT 6 19 10 21
ROOT
ATOM      1  C   UNL     1     134.108 115.895 131.308  1.00  0.00     0.070 C 
ENDROOT
BRANCH   1   2
ATOM      2  C   UNL     1     134.205 117.112 130.414  1.00  0.00     0.087 C 
BRANCH   2   3
ATOM      3  C   UNL     1     134.421 118.370 131.131  1.00  0.00     0.163 C 
ATOM      4  O   UNL     1     135.397 118.524 131.910  1.00  0.00    -0.294 OA
BRANCH   3   5
ATOM      5  C   UNL     1     133.515 119.529 130.987  1.00  0.00     0.018 A 
ATOM      6  C   UNL     1     132.178 119.423 131.326  1.00  0.00     0.015 A 
ATOM      7  C   UNL     1     133.976 120.732 130.515  1.00  0.00     0.015 A 
ATOM      8  C   UNL     1     131.341 120.505 131.189  1.00  0.00     0.040 A 
ATOM      9  C   UNL     1     133.149 121.814 130.376  1.00  0.00     0.040 A 
ATOM     10  C   UNL     1     131.828 121.696 130.715  1.00  0.00     0.123 A 
ATOM     11  F   UNL     1     131.031 122.800 130.559  1.00  0.00    -0.207 F 
ENDBRANCH   3   5
ENDBRANCH   2   3
ENDBRANCH   1   2
BRANCH   1  12
ATOM     12  C   UNL     1     132.804 115.942 132.027  1.00  0.00     0.262 C 
BRANCH  12  13
ATOM     13  N   UNL     1     132.938 115.680 133.454  1.00  0.00    -0.335 N 
ATOM     14  C   UNL     1     131.694 115.315 134.063  1.00  0.00     0.265 C 
ATOM     15  C   UNL     1     133.925 114.674 133.678  1.00  0.00     0.265 C 
ATOM     16  C   UNL     1     131.117 114.073 133.441  1.00  0.00     0.102 C 
ATOM     17  C   UNL     1     133.445 113.336 134.050  1.00  0.00     0.102 C 
ATOM     18  C   UNL     1     132.081 112.938 133.621  1.00  0.00     0.100 C 
ATOM     19  H   UNL     1     133.213 116.617 133.874  1.00  0.00     0.348 HD
BRANCH  18  20
ATOM     20  O   UNL     1     131.542 112.132 134.653  1.00  0.00    -0.385 OA
ATOM     21  H   UNL     1     131.321 112.740 135.402  1.00  0.00     0.211 HD
ENDBRANCH  18  20
BRANCH  18  22
ATOM     22  C   UNL     1     132.091 112.032 132.418  1.00  0.00    -0.016 A 
ATOM     23  C   UNL     1     131.656 110.725 132.482  1.00  0.00     0.008 A 
ATOM     24  C   UNL     1     132.534 112.449 131.182  1.00  0.00     0.008 A 
ATOM     25  C   UNL     1     131.649 109.866 131.407  1.00  0.00     0.021 A 
ATOM     26  C   UNL     1     132.538 111.604 130.089  1.00  0.00     0.021 A 
ATOM     27  C   UNL     1     132.095 110.314 130.203  1.00  0.00     0.041 A 
ATOM     28  Cl  UNL     1     132.094 109.240 128.825  1.00  0.00    -0.084 Cl
ENDBRANCH  18  22
ENDBRANCH  12  13
ENDBRANCH   1  12
TORSDOF 7
ENDMDL
