MODEL 1
REMARK VINA RESULT:     -11.0      0.000      0.000
REMARK SMILES O=C1NCN(c2ccccc2)C12CC[NH+](CCCC(c1ccc(F)cc1)c1ccc(F)cc1)CC2
REMARK SMILES IDX 17 1 16 2 15 3 1 4 2 5 3 6 12 7 4 8 5 9 13 10 35 11 14 12
REMARK SMILES IDX 34 13 6 16 7 17 11 18 8 19 10 20 9 21 18 22 19 23 20 24
REMARK SMILES IDX 21 25 26 26 22 27 25 28 23 29 24 30 27 31 28 32 33 33 29 34
REMARK SMILES IDX 32 35 30 36 31 37
REMARK H PARENT 3 14 15 15
ROOT
ATOM      1  C   UNL     1      90.608 122.800 120.026  1.00  0.00     0.062 C 
ENDROOT
BRANCH   1   2
ATOM      2  C   UNL     1      89.256 122.323 119.584  1.00  0.00     0.262 C 
BRANCH   2   3
ATOM      3  N   UNL     1      88.213 123.162 120.163  1.00  0.00    -0.335 N 
ATOM      4  O   UNL     1      85.960 125.417 119.643  1.00  0.00    -0.272 OA
ATOM      5  C   UNL     1      85.896 125.571 120.880  1.00  0.00     0.247 C 
ATOM      6  N   UNL     1      85.050 126.493 121.522  1.00  0.00    -0.336 N 
ATOM      7  C   UNL     1      86.705 124.806 121.902  1.00  0.00     0.131 C 
ATOM      8  C   UNL     1      84.928 126.049 122.875  1.00  0.00     0.238 C 
ATOM      9  N   UNL     1      86.213 125.388 123.149  1.00  0.00    -0.339 N 
ATOM     10  C   UNL     1      88.175 125.098 121.674  1.00  0.00     0.100 C 
ATOM     11  C   UNL     1      86.390 123.362 121.741  1.00  0.00     0.100 C 
ATOM     12  C   UNL     1      88.651 124.528 120.358  1.00  0.00     0.265 C 
ATOM     13  C   UNL     1      87.617 122.606 121.350  1.00  0.00     0.265 C 
ATOM     14  H   UNL     1      84.605 127.337 121.069  1.00  0.00     0.165 HD
ATOM     15  H   UNL     1      87.471 123.185 119.429  1.00  0.00     0.348 HD
BRANCH   9  16
ATOM     16  C   UNL     1      86.782 125.401 124.448  1.00  0.00     0.039 A 
ATOM     17  C   UNL     1      86.790 126.546 125.208  1.00  0.00     0.026 A 
ATOM     18  C   UNL     1      87.310 124.257 124.965  1.00  0.00     0.026 A 
ATOM     19  C   UNL     1      87.330 126.565 126.498  1.00  0.00     0.002 A 
ATOM     20  C   UNL     1      87.842 124.254 126.224  1.00  0.00     0.002 A 
ATOM     21  C   UNL     1      87.856 125.390 126.991  1.00  0.00     0.000 A 
ENDBRANCH   9  16
ENDBRANCH   2   3
ENDBRANCH   1   2
BRANCH   1  22
ATOM     22  C   UNL     1      91.501 123.331 118.990  1.00  0.00     0.019 C 
BRANCH  22  23
ATOM     23  C   UNL     1      92.496 122.513 118.310  1.00  0.00     0.049 C 
BRANCH  23  24
ATOM     24  C   UNL     1      92.187 122.170 116.876  1.00  0.00    -0.040 A 
ATOM     25  C   UNL     1      90.942 122.529 116.410  1.00  0.00     0.007 A 
ATOM     26  C   UNL     1      93.075 121.513 116.067  1.00  0.00     0.007 A 
ATOM     27  C   UNL     1      90.576 122.230 115.122  1.00  0.00     0.039 A 
ATOM     28  C   UNL     1      92.706 121.217 114.782  1.00  0.00     0.039 A 
ATOM     29  C   UNL     1      91.446 121.571 114.284  1.00  0.00     0.123 A 
ATOM     30  F   UNL     1      91.073 121.281 113.012  1.00  0.00    -0.207 F 
ENDBRANCH  23  24
BRANCH  23  31
ATOM     31  C   UNL     1      93.916 122.772 118.482  1.00  0.00    -0.040 A 
ATOM     32  C   UNL     1      94.942 121.910 118.215  1.00  0.00     0.007 A 
ATOM     33  C   UNL     1      94.238 124.038 118.989  1.00  0.00     0.007 A 
ATOM     34  C   UNL     1      96.257 122.326 118.461  1.00  0.00     0.039 A 
ATOM     35  C   UNL     1      95.507 124.453 119.230  1.00  0.00     0.039 A 
ATOM     36  C   UNL     1      96.531 123.575 118.959  1.00  0.00     0.123 A 
ATOM     37  F   UNL     1      97.798 124.004 119.205  1.00  0.00    -0.207 F 
ENDBRANCH  23  31
ENDBRANCH  22  23
ENDBRANCH   1  22
TORSDOF 7
ENDMDL
MODEL 2
REMARK VINA RESULT:     -10.9      2.097      3.225
REMARK SMILES O=C1NCN(c2ccccc2)C12CC[NH+](CCCC(c1ccc(F)cc1)c1ccc(F)cc1)CC2
REMARK SMILES IDX 17 1 16 2 15 3 1 4 2 5 3 6 12 7 4 8 5 9 13 10 35 11 14 12
REMARK SMILES IDX 34 13 6 16 7 17 11 18 8 19 10 20 9 21 18 22 19 23 20 24
REMARK SMILES IDX 21 25 26 26 22 27 25 28 23 29 24 30 27 31 28 32 33 33 29 34
REMARK SMILES IDX 32 35 30 36 31 37
REMARK H PARENT 3 14 15 15
ROOT
ATOM      1  C   UNL     1      93.745 123.885 119.122  1.00  0.00     0.062 C 
ENDROOT
BRANCH   1   2
ATOM      2  C   UNL     1      93.123 124.361 120.401  1.00  0.00     0.262 C 
BRANCH   2   3
ATOM      3  N   UNL     1      91.881 123.641 120.656  1.00  0.00    -0.335 N 
ATOM      4  O   UNL     1      89.564 121.739 119.453  1.00  0.00    -0.272 OA
ATOM      5  C   UNL     1      88.889 121.997 120.470  1.00  0.00     0.247 C 
ATOM      6  N   UNL     1      87.599 121.494 120.714  1.00  0.00    -0.336 N 
ATOM      7  C   UNL     1      89.328 122.886 121.611  1.00  0.00     0.131 C 
ATOM      8  C   UNL     1      87.379 121.625 122.120  1.00  0.00     0.238 C 
ATOM      9  N   UNL     1      88.167 122.808 122.495  1.00  0.00    -0.339 N 
ATOM     10  C   UNL     1      89.549 124.287 121.078  1.00  0.00     0.100 C 
ATOM     11  C   UNL     1      90.569 122.304 122.187  1.00  0.00     0.100 C 
ATOM     12  C   UNL     1      90.725 124.335 120.129  1.00  0.00     0.265 C 
ATOM     13  C   UNL     1      91.707 123.259 122.033  1.00  0.00     0.265 C 
ATOM     14  H   UNL     1      86.944 121.103 119.984  1.00  0.00     0.165 HD
ATOM     15  H   UNL     1      91.981 122.761 120.104  1.00  0.00     0.348 HD
BRANCH   9  16
ATOM     16  C   UNL     1      87.751 123.662 123.548  1.00  0.00     0.039 A 
ATOM     17  C   UNL     1      88.669 124.307 124.344  1.00  0.00     0.026 A 
ATOM     18  C   UNL     1      86.424 123.868 123.766  1.00  0.00     0.026 A 
ATOM     19  C   UNL     1      88.270 125.167 125.372  1.00  0.00     0.002 A 
ATOM     20  C   UNL     1      86.012 124.705 124.766  1.00  0.00     0.002 A 
ATOM     21  C   UNL     1      86.918 125.353 125.565  1.00  0.00     0.000 A 
ENDBRANCH   9  16
ENDBRANCH   2   3
ENDBRANCH   1   2
BRANCH   1  22
ATOM     22  C   UNL     1      93.968 122.441 118.985  1.00  0.00     0.019 C 
BRANCH  22  23
ATOM     23  C   UNL     1      94.329 121.814 117.721  1.00  0.00     0.049 C 
BRANCH  23  24
ATOM     24  C   UNL     1      93.256 121.813 116.664  1.00  0.00    -0.040 A 
ATOM     25  C   UNL     1      91.992 122.182 117.067  1.00  0.00     0.007 A 
ATOM     26  C   UNL     1      93.497 121.444 115.367  1.00  0.00     0.007 A 
ATOM     27  C   UNL     1      90.955 122.183 116.169  1.00  0.00     0.039 A 
ATOM     28  C   UNL     1      92.459 121.447 114.474  1.00  0.00     0.039 A 
ATOM     29  C   UNL     1      91.165 121.818 114.859  1.00  0.00     0.123 A 
ATOM     30  F   UNL     1      90.132 121.823 113.980  1.00  0.00    -0.207 F 
ENDBRANCH  23  24
BRANCH  23  31
ATOM     31  C   UNL     1      95.636 122.040 117.125  1.00  0.00    -0.040 A 
ATOM     32  C   UNL     1      96.257 123.245 116.947  1.00  0.00     0.007 A 
ATOM     33  C   UNL     1      96.299 120.889 116.680  1.00  0.00     0.007 A 
ATOM     34  C   UNL     1      97.515 123.274 116.333  1.00  0.00     0.039 A 
ATOM     35  C   UNL     1      97.519 120.904 116.085  1.00  0.00     0.039 A 
ATOM     36  C   UNL     1      98.132 122.123 115.911  1.00  0.00     0.123 A 
ATOM     37  F   UNL     1      99.354 122.123 115.313  1.00  0.00    -0.207 F 
ENDBRANCH  23  31
ENDBRANCH  22  23
ENDBRANCH   1  22
TORSDOF 7
ENDMDL
MODEL 3
REMARK VINA RESULT:     -10.9      2.040      2.804
REMARK SMILES O=C1NCN(c2ccccc2)C12CC[NH+](CCCC(c1ccc(F)cc1)c1ccc(F)cc1)CC2
REMARK SMILES IDX 17 1 16 2 15 3 1 4 2 5 3 6 12 7 4 8 5 9 13 10 35 11 14 12
REMARK SMILES IDX 34 13 6 16 7 17 11 18 8 19 10 20 9 21 18 22 19 23 20 24
REMARK SMILES IDX 21 25 26 26 22 27 25 28 23 29 24 30 27 31 28 32 33 33 29 34
REMARK SMILES IDX 32 35 30 36 31 37
REMARK H PARENT 3 14 15 15
ROOT
ATOM      1  C   UNL     1      92.458 123.522 120.163  1.00  0.00     0.062 C 
ENDROOT
BRANCH   1   2
ATOM      2  C   UNL     1      91.529 122.378 120.445  1.00  0.00     0.262 C 
BRANCH   2   3
ATOM      3  N   UNL     1      90.275 122.874 121.001  1.00  0.00    -0.335 N 
ATOM      4  O   UNL     1      87.102 122.394 121.363  1.00  0.00    -0.272 OA
ATOM      5  C   UNL     1      87.015 123.577 121.751  1.00  0.00     0.247 C 
ATOM      6  N   UNL     1      85.813 124.200 122.131  1.00  0.00    -0.336 N 
ATOM      7  C   UNL     1      88.169 124.545 121.881  1.00  0.00     0.131 C 
ATOM      8  C   UNL     1      86.182 125.331 122.922  1.00  0.00     0.238 C 
ATOM      9  N   UNL     1      87.486 125.738 122.375  1.00  0.00    -0.339 N 
ATOM     10  C   UNL     1      88.779 124.759 120.510  1.00  0.00     0.100 C 
ATOM     11  C   UNL     1      89.142 123.961 122.841  1.00  0.00     0.100 C 
ATOM     12  C   UNL     1      89.438 123.500 119.998  1.00  0.00     0.265 C 
ATOM     13  C   UNL     1      90.448 123.707 122.162  1.00  0.00     0.265 C 
ATOM     14  H   UNL     1      84.843 123.875 121.870  1.00  0.00     0.165 HD
ATOM     15  H   UNL     1      89.778 122.011 121.312  1.00  0.00     0.348 HD
BRANCH   9  16
ATOM     16  C   UNL     1      87.887 127.098 122.370  1.00  0.00     0.039 A 
ATOM     17  C   UNL     1      87.093 128.070 121.809  1.00  0.00     0.026 A 
ATOM     18  C   UNL     1      89.065 127.456 122.949  1.00  0.00     0.026 A 
ATOM     19  C   UNL     1      87.469 129.417 121.817  1.00  0.00     0.002 A 
ATOM     20  C   UNL     1      89.452 128.768 122.968  1.00  0.00     0.002 A 
ATOM     21  C   UNL     1      88.668 129.745 122.411  1.00  0.00     0.000 A 
ENDBRANCH   9  16
ENDBRANCH   2   3
ENDBRANCH   1   2
BRANCH   1  22
ATOM     22  C   UNL     1      92.996 123.626 118.802  1.00  0.00     0.019 C 
BRANCH  22  23
ATOM     23  C   UNL     1      93.370 122.462 118.010  1.00  0.00     0.049 C 
BRANCH  23  24
ATOM     24  C   UNL     1      92.479 122.163 116.832  1.00  0.00    -0.040 A 
ATOM     25  C   UNL     1      93.083 121.602 115.729  1.00  0.00     0.007 A 
ATOM     26  C   UNL     1      91.140 122.449 116.828  1.00  0.00     0.007 A 
ATOM     27  C   UNL     1      92.344 121.322 114.607  1.00  0.00     0.039 A 
ATOM     28  C   UNL     1      90.407 122.167 115.707  1.00  0.00     0.039 A 
ATOM     29  C   UNL     1      90.996 121.597 114.573  1.00  0.00     0.123 A 
ATOM     30  F   UNL     1      90.276 121.315 113.457  1.00  0.00    -0.207 F 
ENDBRANCH  23  24
BRANCH  23  31
ATOM     31  C   UNL     1      94.761 122.202 117.680  1.00  0.00    -0.040 A 
ATOM     32  C   UNL     1      95.288 121.024 117.228  1.00  0.00     0.007 A 
ATOM     33  C   UNL     1      95.635 123.281 117.870  1.00  0.00     0.007 A 
ATOM     34  C   UNL     1      96.664 120.950 116.979  1.00  0.00     0.039 A 
ATOM     35  C   UNL     1      96.970 123.221 117.630  1.00  0.00     0.039 A 
ATOM     36  C   UNL     1      97.487 122.030 117.177  1.00  0.00     0.123 A 
ATOM     37  F   UNL     1      98.826 121.984 116.941  1.00  0.00    -0.207 F 
ENDBRANCH  23  31
ENDBRANCH  22  23
ENDBRANCH   1  22
TORSDOF 7
ENDMDL
MODEL 4
REMARK VINA RESULT:     -10.9      1.868      2.376
REMARK SMILES O=C1NCN(c2ccccc2)C12CC[NH+](CCCC(c1ccc(F)cc1)c1ccc(F)cc1)CC2
REMARK SMILES IDX 17 1 16 2 15 3 1 4 2 5 3 6 12 7 4 8 5 9 13 10 35 11 14 12
REMARK SMILES IDX 34 13 6 16 7 17 11 18 8 19 10 20 9 21 18 22 19 23 20 24
REMARK SMILES IDX 21 25 26 26 22 27 25 28 23 29 24 30 27 31 28 32 33 33 29 34
REMARK SMILES IDX 32 35 30 36 31 37
REMARK H PARENT 3 14 15 15
ROOT
ATOM      1  C   UNL     1      91.223 122.255 120.471  1.00  0.00     0.062 C 
ENDROOT
BRANCH   1   2
ATOM      2  C   UNL     1      89.846 121.662 120.516  1.00  0.00     0.262 C 
BRANCH   2   3
ATOM      3  N   UNL     1      88.928 122.571 121.192  1.00  0.00    -0.335 N 
ATOM      4  O   UNL     1      85.855 123.327 121.833  1.00  0.00    -0.272 OA
ATOM      5  C   UNL     1      86.262 124.432 122.247  1.00  0.00     0.247 C 
ATOM      6  N   UNL     1      85.427 125.448 122.746  1.00  0.00    -0.336 N 
ATOM      7  C   UNL     1      87.706 124.875 122.287  1.00  0.00     0.131 C 
ATOM      8  C   UNL     1      86.265 126.310 123.518  1.00  0.00     0.238 C 
ATOM      9  N   UNL     1      87.578 126.213 122.861  1.00  0.00    -0.339 N 
ATOM     10  C   UNL     1      88.243 124.908 120.870  1.00  0.00     0.100 C 
ATOM     11  C   UNL     1      88.450 123.916 123.145  1.00  0.00     0.100 C 
ATOM     12  C   UNL     1      88.323 123.520 120.280  1.00  0.00     0.265 C 
ATOM     13  C   UNL     1      89.499 123.214 122.346  1.00  0.00     0.265 C 
ATOM     14  H   UNL     1      84.390 125.533 122.569  1.00  0.00     0.165 HD
ATOM     15  H   UNL     1      88.162 121.951 121.533  1.00  0.00     0.348 HD
BRANCH   9  16
ATOM     16  C   UNL     1      88.471 127.314 122.843  1.00  0.00     0.039 A 
ATOM     17  C   UNL     1      89.818 127.138 123.057  1.00  0.00     0.026 A 
ATOM     18  C   UNL     1      87.997 128.564 122.587  1.00  0.00     0.026 A 
ATOM     19  C   UNL     1      90.711 128.214 123.021  1.00  0.00     0.002 A 
ATOM     20  C   UNL     1      88.853 129.629 122.547  1.00  0.00     0.002 A 
ATOM     21  C   UNL     1      90.198 129.466 122.760  1.00  0.00     0.000 A 
ENDBRANCH   9  16
ENDBRANCH   2   3
ENDBRANCH   1   2
BRANCH   1  22
ATOM     22  C   UNL     1      91.658 122.838 119.196  1.00  0.00     0.019 C 
BRANCH  22  23
ATOM     23  C   UNL     1      92.685 122.231 118.361  1.00  0.00     0.049 C 
BRANCH  23  24
ATOM     24  C   UNL     1      92.334 122.079 116.904  1.00  0.00    -0.040 A 
ATOM     25  C   UNL     1      91.066 122.468 116.531  1.00  0.00     0.007 A 
ATOM     26  C   UNL     1      93.205 121.560 115.984  1.00  0.00     0.007 A 
ATOM     27  C   UNL     1      90.661 122.338 115.227  1.00  0.00     0.039 A 
ATOM     28  C   UNL     1      92.797 121.433 114.684  1.00  0.00     0.039 A 
ATOM     29  C   UNL     1      91.514 121.821 114.279  1.00  0.00     0.123 A 
ATOM     30  F   UNL     1      91.102 121.697 112.992  1.00  0.00    -0.207 F 
ENDBRANCH  23  24
BRANCH  23  31
ATOM     31  C   UNL     1      94.084 122.598 118.515  1.00  0.00    -0.040 A 
ATOM     32  C   UNL     1      95.169 121.808 118.260  1.00  0.00     0.007 A 
ATOM     33  C   UNL     1      94.314 123.895 118.992  1.00  0.00     0.007 A 
ATOM     34  C   UNL     1      96.451 122.325 118.486  1.00  0.00     0.039 A 
ATOM     35  C   UNL     1      95.551 124.408 119.214  1.00  0.00     0.039 A 
ATOM     36  C   UNL     1      96.636 123.601 118.955  1.00  0.00     0.123 A 
ATOM     37  F   UNL     1      97.869 124.128 119.181  1.00  0.00    -0.207 F 
ENDBRANCH  23  31
ENDBRANCH  22  23
ENDBRANCH   1  22
TORSDOF 7
ENDMDL
MODEL 5
REMARK VINA RESULT:     -10.8      2.050      3.347
REMARK SMILES O=C1NCN(c2ccccc2)C12CC[NH+](CCCC(c1ccc(F)cc1)c1ccc(F)cc1)CC2
REMARK SMILES IDX 17 1 16 2 15 3 1 4 2 5 3 6 12 7 4 8 5 9 13 10 35 11 14 12
REMARK SMILES IDX 34 13 6 16 7 17 11 18 8 19 10 20 9 21 18 22 19 23 20 24
REMARK SMILES IDX 21 25 26 26 22 27 25 28 23 29 24 30 27 31 28 32 33 33 29 34
REMARK SMILES IDX 32 35 30 36 31 37
REMARK H PARENT 3 14 15 15
ROOT
ATOM      1  C   UNL     1      93.900 123.845 119.201  1.00  0.00     0.062 C 
ENDROOT
BRANCH   1   2
ATOM      2  C   UNL     1      93.222 124.366 120.434  1.00  0.00     0.262 C 
BRANCH   2   3
ATOM      3  N   UNL     1      91.977 123.642 120.667  1.00  0.00    -0.335 N 
ATOM      4  O   UNL     1      89.745 121.645 119.459  1.00  0.00    -0.272 OA
ATOM      5  C   UNL     1      89.017 121.949 120.427  1.00  0.00     0.247 C 
ATOM      6  N   UNL     1      87.723 121.441 120.635  1.00  0.00    -0.336 N 
ATOM      7  C   UNL     1      89.388 122.905 121.537  1.00  0.00     0.131 C 
ATOM      8  C   UNL     1      87.432 121.646 122.019  1.00  0.00     0.238 C 
ATOM      9  N   UNL     1      88.186 122.859 122.366  1.00  0.00    -0.339 N 
ATOM     10  C   UNL     1      89.620 124.278 120.938  1.00  0.00     0.100 C 
ATOM     11  C   UNL     1      90.606 122.373 122.204  1.00  0.00     0.100 C 
ATOM     12  C   UNL     1      90.840 124.291 120.047  1.00  0.00     0.265 C 
ATOM     13  C   UNL     1      91.739 123.335 122.053  1.00  0.00     0.265 C 
ATOM     14  H   UNL     1      87.109 121.001 119.896  1.00  0.00     0.165 HD
ATOM     15  H   UNL     1      92.115 122.735 120.170  1.00  0.00     0.348 HD
BRANCH   9  16
ATOM     16  C   UNL     1      87.709 123.764 123.348  1.00  0.00     0.039 A 
ATOM     17  C   UNL     1      86.598 124.540 123.118  1.00  0.00     0.026 A 
ATOM     18  C   UNL     1      88.344 123.853 124.549  1.00  0.00     0.026 A 
ATOM     19  C   UNL     1      86.106 125.420 124.087  1.00  0.00     0.002 A 
ATOM     20  C   UNL     1      87.880 124.708 125.510  1.00  0.00     0.002 A 
ATOM     21  C   UNL     1      86.773 125.487 125.291  1.00  0.00     0.000 A 
ENDBRANCH   9  16
ENDBRANCH   2   3
ENDBRANCH   1   2
BRANCH   1  22
ATOM     22  C   UNL     1      93.933 122.389 119.021  1.00  0.00     0.019 C 
BRANCH  22  23
ATOM     23  C   UNL     1      94.217 121.758 117.740  1.00  0.00     0.049 C 
BRANCH  23  24
ATOM     24  C   UNL     1      93.109 121.824 116.721  1.00  0.00    -0.040 A 
ATOM     25  C   UNL     1      93.416 121.399 115.448  1.00  0.00     0.007 A 
ATOM     26  C   UNL     1      91.861 122.301 117.018  1.00  0.00     0.007 A 
ATOM     27  C   UNL     1      92.468 121.451 114.457  1.00  0.00     0.039 A 
ATOM     28  C   UNL     1      90.918 122.350 116.028  1.00  0.00     0.039 A 
ATOM     29  C   UNL     1      91.204 121.924 114.725  1.00  0.00     0.123 A 
ATOM     30  F   UNL     1      90.274 121.971 113.737  1.00  0.00    -0.207 F 
ENDBRANCH  23  24
BRANCH  23  31
ATOM     31  C   UNL     1      95.512 121.922 117.100  1.00  0.00    -0.040 A 
ATOM     32  C   UNL     1      96.179 123.097 116.893  1.00  0.00     0.007 A 
ATOM     33  C   UNL     1      96.110 120.740 116.644  1.00  0.00     0.007 A 
ATOM     34  C   UNL     1      97.417 123.067 116.238  1.00  0.00     0.039 A 
ATOM     35  C   UNL     1      97.309 120.698 116.009  1.00  0.00     0.039 A 
ATOM     36  C   UNL     1      97.969 121.887 115.805  1.00  0.00     0.123 A 
ATOM     37  F   UNL     1      99.170 121.830 115.169  1.00  0.00    -0.207 F 
ENDBRANCH  23  31
ENDBRANCH  22  23
ENDBRANCH   1  22
TORSDOF 7
ENDMDL
MODEL 6
REMARK VINA RESULT:     -10.8      1.810      2.544
REMARK SMILES O=C1NCN(c2ccccc2)C12CC[NH+](CCCC(c1ccc(F)cc1)c1ccc(F)cc1)CC2
REMARK SMILES IDX 17 1 16 2 15 3 1 4 2 5 3 6 12 7 4 8 5 9 13 10 35 11 14 12
REMARK SMILES IDX 34 13 6 16 7 17 11 18 8 19 10 20 9 21 18 22 19 23 20 24
REMARK SMILES IDX 21 25 26 26 22 27 25 28 23 29 24 30 27 31 28 32 33 33 29 34
REMARK SMILES IDX 32 35 30 36 31 37
REMARK H PARENT 3 14 15 15
ROOT
ATOM      1  C   UNL     1      92.690 122.617 119.860  1.00  0.00     0.062 C 
ENDROOT
BRANCH   1   2
ATOM      2  C   UNL     1      92.103 123.766 120.626  1.00  0.00     0.262 C 
BRANCH   2   3
ATOM      3  N   UNL     1      90.707 123.493 120.950  1.00  0.00    -0.335 N 
ATOM      4  O   UNL     1      87.782 122.692 119.841  1.00  0.00    -0.272 OA
ATOM      5  C   UNL     1      87.320 123.030 120.951  1.00  0.00     0.247 C 
ATOM      6  N   UNL     1      85.957 122.977 121.291  1.00  0.00    -0.336 N 
ATOM      7  C   UNL     1      88.130 123.550 122.116  1.00  0.00     0.131 C 
ATOM      8  C   UNL     1      85.902 122.986 122.719  1.00  0.00     0.238 C 
ATOM      9  N   UNL     1      87.087 123.761 123.116  1.00  0.00    -0.339 N 
ATOM     10  C   UNL     1      88.799 124.845 121.702  1.00  0.00     0.100 C 
ATOM     11  C   UNL     1      89.120 122.502 122.483  1.00  0.00     0.100 C 
ATOM     12  C   UNL     1      89.841 124.609 120.633  1.00  0.00     0.265 C 
ATOM     13  C   UNL     1      90.509 123.015 122.293  1.00  0.00     0.265 C 
ATOM     14  H   UNL     1      85.154 122.938 120.607  1.00  0.00     0.165 HD
ATOM     15  H   UNL     1      90.445 122.716 120.305  1.00  0.00     0.348 HD
BRANCH   9  16
ATOM     16  C   UNL     1      87.083 124.557 124.290  1.00  0.00     0.039 A 
ATOM     17  C   UNL     1      87.822 124.200 125.392  1.00  0.00     0.026 A 
ATOM     18  C   UNL     1      86.354 125.706 124.323  1.00  0.00     0.026 A 
ATOM     19  C   UNL     1      87.842 124.988 126.547  1.00  0.00     0.002 A 
ATOM     20  C   UNL     1      86.359 126.491 125.443  1.00  0.00     0.002 A 
ATOM     21  C   UNL     1      87.092 126.145 126.548  1.00  0.00     0.000 A 
ENDBRANCH   9  16
ENDBRANCH   2   3
ENDBRANCH   1   2
BRANCH   1  22
ATOM     22  C   UNL     1      93.555 122.946 118.721  1.00  0.00     0.019 C 
BRANCH  22  23
ATOM     23  C   UNL     1      93.870 121.992 117.667  1.00  0.00     0.049 C 
BRANCH  23  24
ATOM     24  C   UNL     1      92.866 121.904 116.547  1.00  0.00    -0.040 A 
ATOM     25  C   UNL     1      91.570 122.257 116.851  1.00  0.00     0.007 A 
ATOM     26  C   UNL     1      93.198 121.472 115.291  1.00  0.00     0.007 A 
ATOM     27  C   UNL     1      90.592 122.180 115.892  1.00  0.00     0.039 A 
ATOM     28  C   UNL     1      92.219 121.398 114.337  1.00  0.00     0.039 A 
ATOM     29  C   UNL     1      90.895 121.752 114.620  1.00  0.00     0.123 A 
ATOM     30  F   UNL     1      89.919 121.680 113.679  1.00  0.00    -0.207 F 
ENDBRANCH  23  24
BRANCH  23  31
ATOM     31  C   UNL     1      95.224 121.871 117.153  1.00  0.00    -0.040 A 
ATOM     32  C   UNL     1      96.141 122.876 117.017  1.00  0.00     0.007 A 
ATOM     33  C   UNL     1      95.598 120.583 116.746  1.00  0.00     0.007 A 
ATOM     34  C   UNL     1      97.399 122.576 116.481  1.00  0.00     0.039 A 
ATOM     35  C   UNL     1      96.815 120.281 116.226  1.00  0.00     0.039 A 
ATOM     36  C   UNL     1      97.728 121.302 116.094  1.00  0.00     0.123 A 
ATOM     37  F   UNL     1      98.943 120.984 115.572  1.00  0.00    -0.207 F 
ENDBRANCH  23  31
ENDBRANCH  22  23
ENDBRANCH   1  22
TORSDOF 7
ENDMDL
MODEL 7
REMARK VINA RESULT:     -10.7      1.586      2.069
REMARK SMILES O=C1NCN(c2ccccc2)C12CC[NH+](CCCC(c1ccc(F)cc1)c1ccc(F)cc1)CC2
REMARK SMILES IDX 17 1 16 2 15 3 1 4 2 5 3 6 12 7 4 8 5 9 13 10 35 11 14 12
REMARK SMILES IDX 34 13 6 16 7 17 11 18 8 19 10 20 9 21 18 22 19 23 20 24
REMARK SMILES IDX 21 25 26 26 22 27 25 28 23 29 24 30 27 31 28 32 33 33 29 34
REMARK SMILES IDX 32 35 30 36 31 37
REMARK H PARENT 3 14 15 15
ROOT
ATOM      1  C   UNL     1      92.460 123.698 120.257  1.00  0.00     0.062 C 
ENDROOT
BRANCH   1   2
ATOM      2  C   UNL     1      91.965 122.360 120.721  1.00  0.00     0.262 C 
BRANCH   2   3
ATOM      3  N   UNL     1      90.550 122.440 121.066  1.00  0.00    -0.335 N 
ATOM      4  O   UNL     1      87.499 122.167 120.041  1.00  0.00    -0.272 OA
ATOM      5  C   UNL     1      87.143 122.729 121.098  1.00  0.00     0.247 C 
ATOM      6  N   UNL     1      85.808 123.016 121.432  1.00  0.00    -0.336 N 
ATOM      7  C   UNL     1      88.070 123.197 122.196  1.00  0.00     0.131 C 
ATOM      8  C   UNL     1      85.784 123.210 122.848  1.00  0.00     0.238 C 
ATOM      9  N   UNL     1      87.117 123.751 123.156  1.00  0.00    -0.339 N 
ATOM     10  C   UNL     1      88.996 124.256 121.632  1.00  0.00     0.100 C 
ATOM     11  C   UNL     1      88.815 122.012 122.697  1.00  0.00     0.100 C 
ATOM     12  C   UNL     1      89.941 123.671 120.608  1.00  0.00     0.265 C 
ATOM     13  C   UNL     1      90.279 122.183 122.456  1.00  0.00     0.265 C 
ATOM     14  H   UNL     1      85.003 123.071 120.752  1.00  0.00     0.165 HD
ATOM     15  H   UNL     1      90.112 121.666 120.519  1.00  0.00     0.348 HD
BRANCH   9  16
ATOM     16  C   UNL     1      87.309 124.665 124.223  1.00  0.00     0.039 A 
ATOM     17  C   UNL     1      87.750 124.238 125.452  1.00  0.00     0.026 A 
ATOM     18  C   UNL     1      87.074 125.991 124.026  1.00  0.00     0.026 A 
ATOM     19  C   UNL     1      87.962 125.133 126.506  1.00  0.00     0.002 A 
ATOM     20  C   UNL     1      87.275 126.884 125.042  1.00  0.00     0.002 A 
ATOM     21  C   UNL     1      87.714 126.469 126.273  1.00  0.00     0.000 A 
ENDBRANCH   9  16
ENDBRANCH   2   3
ENDBRANCH   1   2
BRANCH   1  22
ATOM     22  C   UNL     1      93.014 123.772 118.901  1.00  0.00     0.019 C 
BRANCH  22  23
ATOM     23  C   UNL     1      93.479 122.599 118.173  1.00  0.00     0.049 C 
BRANCH  23  24
ATOM     24  C   UNL     1      92.668 122.219 116.962  1.00  0.00    -0.040 A 
ATOM     25  C   UNL     1      91.342 122.592 116.966  1.00  0.00     0.007 A 
ATOM     26  C   UNL     1      93.194 121.517 115.911  1.00  0.00     0.007 A 
ATOM     27  C   UNL     1      90.530 122.262 115.910  1.00  0.00     0.039 A 
ATOM     28  C   UNL     1      92.381 121.190 114.860  1.00  0.00     0.039 A 
ATOM     29  C   UNL     1      91.031 121.558 114.839  1.00  0.00     0.123 A 
ATOM     30  F   UNL     1      90.218 121.237 113.800  1.00  0.00    -0.207 F 
ENDBRANCH  23  24
BRANCH  23  31
ATOM     31  C   UNL     1      94.897 122.389 117.927  1.00  0.00    -0.040 A 
ATOM     32  C   UNL     1      95.454 121.455 117.099  1.00  0.00     0.007 A 
ATOM     33  C   UNL     1      95.760 123.234 118.637  1.00  0.00     0.007 A 
ATOM     34  C   UNL     1      96.849 121.385 117.000  1.00  0.00     0.039 A 
ATOM     35  C   UNL     1      97.113 123.176 118.549  1.00  0.00     0.039 A 
ATOM     36  C   UNL     1      97.661 122.231 117.713  1.00  0.00     0.123 A 
ATOM     37  F   UNL     1      99.018 122.184 117.634  1.00  0.00    -0.207 F 
ENDBRANCH  23  31
ENDBRANCH  22  23
ENDBRANCH   1  22
TORSDOF 7
ENDMDL
MODEL 8
REMARK VINA RESULT:     -10.7      1.779      2.391
REMARK SMILES O=C1NCN(c2ccccc2)C12CC[NH+](CCCC(c1ccc(F)cc1)c1ccc(F)cc1)CC2
REMARK SMILES IDX 17 1 16 2 15 3 1 4 2 5 3 6 12 7 4 8 5 9 13 10 35 11 14 12
REMARK SMILES IDX 34 13 6 16 7 17 11 18 8 19 10 20 9 21 18 22 19 23 20 24
REMARK SMILES IDX 21 25 26 26 22 27 25 28 23 29 24 30 27 31 28 32 33 33 29 34
REMARK SMILES IDX 32 35 30 36 31 37
REMARK H PARENT 3 14 15 15
ROOT
ATOM      1  C   UNL     1      92.720 122.380 119.969  1.00  0.00     0.062 C 
ENDROOT
BRANCH   1   2
ATOM      2  C   UNL     1      92.212 123.498 120.832  1.00  0.00     0.262 C 
BRANCH   2   3
ATOM      3  N   UNL     1      90.794 123.310 121.116  1.00  0.00    -0.335 N 
ATOM      4  O   UNL     1      87.864 122.655 119.927  1.00  0.00    -0.272 OA
ATOM      5  C   UNL     1      87.388 123.038 121.015  1.00  0.00     0.247 C 
ATOM      6  N   UNL     1      86.014 123.068 121.313  1.00  0.00    -0.336 N 
ATOM      7  C   UNL     1      88.190 123.533 122.197  1.00  0.00     0.131 C 
ATOM      8  C   UNL     1      85.915 123.107 122.738  1.00  0.00     0.238 C 
ATOM      9  N   UNL     1      87.130 123.821 123.160  1.00  0.00    -0.339 N 
ATOM     10  C   UNL     1      88.944 124.781 121.783  1.00  0.00     0.100 C 
ATOM     11  C   UNL     1      89.106 122.438 122.613  1.00  0.00     0.100 C 
ATOM     12  C   UNL     1      90.003 124.467 120.752  1.00  0.00     0.265 C 
ATOM     13  C   UNL     1      90.528 122.869 122.459  1.00  0.00     0.265 C 
ATOM     14  H   UNL     1      85.232 123.062 120.604  1.00  0.00     0.165 HD
ATOM     15  H   UNL     1      90.508 122.537 120.476  1.00  0.00     0.348 HD
BRANCH   9  16
ATOM     16  C   UNL     1      87.134 124.637 124.320  1.00  0.00     0.039 A 
ATOM     17  C   UNL     1      86.491 125.852 124.335  1.00  0.00     0.026 A 
ATOM     18  C   UNL     1      87.766 124.207 125.446  1.00  0.00     0.026 A 
ATOM     19  C   UNL     1      86.471 126.656 125.479  1.00  0.00     0.002 A 
ATOM     20  C   UNL     1      87.760 124.978 126.575  1.00  0.00     0.002 A 
ATOM     21  C   UNL     1      87.121 126.190 126.602  1.00  0.00     0.000 A 
ENDBRANCH   9  16
ENDBRANCH   2   3
ENDBRANCH   1   2
BRANCH   1  22
ATOM     22  C   UNL     1      93.565 122.748 118.828  1.00  0.00     0.019 C 
BRANCH  22  23
ATOM     23  C   UNL     1      93.819 121.848 117.711  1.00  0.00     0.049 C 
BRANCH  23  24
ATOM     24  C   UNL     1      92.785 121.860 116.616  1.00  0.00    -0.040 A 
ATOM     25  C   UNL     1      93.186 121.395 115.384  1.00  0.00     0.007 A 
ATOM     26  C   UNL     1      91.513 122.329 116.808  1.00  0.00     0.007 A 
ATOM     27  C   UNL     1      92.309 121.395 114.329  1.00  0.00     0.039 A 
ATOM     28  C   UNL     1      90.641 122.327 115.753  1.00  0.00     0.039 A 
ATOM     29  C   UNL     1      91.023 121.859 114.490  1.00  0.00     0.123 A 
ATOM     30  F   UNL     1      90.164 121.855 113.439  1.00  0.00    -0.207 F 
ENDBRANCH  23  24
BRANCH  23  31
ATOM     31  C   UNL     1      95.155 121.713 117.153  1.00  0.00    -0.040 A 
ATOM     32  C   UNL     1      95.735 120.566 116.689  1.00  0.00     0.007 A 
ATOM     33  C   UNL     1      95.911 122.892 117.114  1.00  0.00     0.007 A 
ATOM     34  C   UNL     1      97.047 120.621 116.202  1.00  0.00     0.039 A 
ATOM     35  C   UNL     1      97.182 122.958 116.642  1.00  0.00     0.039 A 
ATOM     36  C   UNL     1      97.755 121.796 116.180  1.00  0.00     0.123 A 
ATOM     37  F   UNL     1      99.029 121.876 115.710  1.00  0.00    -0.207 F 
ENDBRANCH  23  31
ENDBRANCH  22  23
ENDBRANCH   1  22
TORSDOF 7
ENDMDL
MODEL 9
REMARK VINA RESULT:     -10.7      2.002      3.148
REMARK SMILES O=C1NCN(c2ccccc2)C12CC[NH+](CCCC(c1ccc(F)cc1)c1ccc(F)cc1)CC2
REMARK SMILES IDX 17 1 16 2 15 3 1 4 2 5 3 6 12 7 4 8 5 9 13 10 35 11 14 12
REMARK SMILES IDX 34 13 6 16 7 17 11 18 8 19 10 20 9 21 18 22 19 23 20 24
REMARK SMILES IDX 21 25 26 26 22 27 25 28 23 29 24 30 27 31 28 32 33 33 29 34
REMARK SMILES IDX 32 35 30 36 31 37
REMARK H PARENT 3 14 15 15
ROOT
ATOM      1  C   UNL     1      93.523 123.741 118.991  1.00  0.00     0.062 C 
ENDROOT
BRANCH   1   2
ATOM      2  C   UNL     1      92.985 124.187 120.318  1.00  0.00     0.262 C 
BRANCH   2   3
ATOM      3  N   UNL     1      91.688 123.567 120.568  1.00  0.00    -0.335 N 
ATOM      4  O   UNL     1      89.229 121.860 119.356  1.00  0.00    -0.272 OA
ATOM      5  C   UNL     1      88.574 122.169 120.373  1.00  0.00     0.247 C 
ATOM      6  N   UNL     1      87.248 121.771 120.613  1.00  0.00    -0.336 N 
ATOM      7  C   UNL     1      89.081 123.018 121.517  1.00  0.00     0.131 C 
ATOM      8  C   UNL     1      87.036 121.915 122.019  1.00  0.00     0.238 C 
ATOM      9  N   UNL     1      87.916 123.031 122.399  1.00  0.00    -0.339 N 
ATOM     10  C   UNL     1      89.415 124.397 120.987  1.00  0.00     0.100 C 
ATOM     11  C   UNL     1      90.270 122.336 122.094  1.00  0.00     0.100 C 
ATOM     12  C   UNL     1      90.592 124.353 120.042  1.00  0.00     0.265 C 
ATOM     13  C   UNL     1      91.481 123.198 121.944  1.00  0.00     0.265 C 
ATOM     14  H   UNL     1      86.565 121.435 119.881  1.00  0.00     0.165 HD
ATOM     15  H   UNL     1      91.719 122.684 120.014  1.00  0.00     0.348 HD
BRANCH   9  16
ATOM     16  C   UNL     1      87.567 123.913 123.453  1.00  0.00     0.039 A 
ATOM     17  C   UNL     1      88.263 123.911 124.639  1.00  0.00     0.026 A 
ATOM     18  C   UNL     1      86.542 124.793 123.286  1.00  0.00     0.026 A 
ATOM     19  C   UNL     1      87.941 124.791 125.677  1.00  0.00     0.002 A 
ATOM     20  C   UNL     1      86.211 125.661 124.289  1.00  0.00     0.002 A 
ATOM     21  C   UNL     1      86.897 125.669 125.475  1.00  0.00     0.000 A 
ENDBRANCH   9  16
ENDBRANCH   2   3
ENDBRANCH   1   2
BRANCH   1  22
ATOM     22  C   UNL     1      94.172 122.426 118.941  1.00  0.00     0.019 C 
BRANCH  22  23
ATOM     23  C   UNL     1      94.312 121.661 117.709  1.00  0.00     0.049 C 
BRANCH  23  24
ATOM     24  C   UNL     1      93.158 121.761 116.746  1.00  0.00    -0.040 A 
ATOM     25  C   UNL     1      93.425 121.454 115.430  1.00  0.00     0.007 A 
ATOM     26  C   UNL     1      91.907 122.159 117.132  1.00  0.00     0.007 A 
ATOM     27  C   UNL     1      92.433 121.545 114.486  1.00  0.00     0.039 A 
ATOM     28  C   UNL     1      90.919 122.247 116.188  1.00  0.00     0.039 A 
ATOM     29  C   UNL     1      91.164 121.941 114.844  1.00  0.00     0.123 A 
ATOM     30  F   UNL     1      90.191 122.027 113.902  1.00  0.00    -0.207 F 
ENDBRANCH  23  24
BRANCH  23  31
ATOM     31  C   UNL     1      95.577 121.627 116.994  1.00  0.00    -0.040 A 
ATOM     32  C   UNL     1      96.169 120.531 116.431  1.00  0.00     0.007 A 
ATOM     33  C   UNL     1      96.246 122.854 116.899  1.00  0.00     0.007 A 
ATOM     34  C   UNL     1      97.406 120.683 115.793  1.00  0.00     0.039 A 
ATOM     35  C   UNL     1      97.444 123.014 116.283  1.00  0.00     0.039 A 
ATOM     36  C   UNL     1      98.030 121.903 115.722  1.00  0.00     0.123 A 
ATOM     37  F   UNL     1      99.231 122.078 115.107  1.00  0.00    -0.207 F 
ENDBRANCH  23  31
ENDBRANCH  22  23
ENDBRANCH   1  22
TORSDOF 7
ENDMDL
