MODEL 1
REMARK VINA RESULT:      -7.1      0.000      0.000
REMARK SMILES Clc1ccccc1C(c1ccccc1)(c1ccccc1)n1ccnc1
REMARK SMILES IDX 1 1 2 2 3 3 4 4 5 5 6 6 7 7 8 8 9 9 10 10 14 11 11 12 13 13
REMARK SMILES IDX 12 14 15 15 16 16 20 17 17 18 19 19 18 20 21 21 22 22 25 23
REMARK SMILES IDX 23 24 24 25
REMARK H PARENT
ROOT
ATOM      1  Cl  UNL     1      87.487 123.436 123.168  1.00  0.00    -0.084 Cl
ATOM      2  C   UNL     1      87.796 124.531 124.496  1.00  0.00     0.047 A 
ATOM      3  C   UNL     1      87.371 124.251 125.775  1.00  0.00     0.021 A 
ATOM      4  C   UNL     1      87.642 125.095 126.830  1.00  0.00     0.002 A 
ATOM      5  C   UNL     1      88.355 126.240 126.573  1.00  0.00     0.001 A 
ATOM      6  C   UNL     1      88.788 126.524 125.270  1.00  0.00     0.008 A 
ATOM      7  C   UNL     1      88.516 125.686 124.234  1.00  0.00     0.006 A 
ENDROOT
BRANCH   7   8
ATOM      8  C   UNL     1      88.963 126.020 122.854  1.00  0.00     0.123 C 
BRANCH   8   9
ATOM      9  C   UNL     1      89.976 125.007 122.445  1.00  0.00    -0.013 A 
ATOM     10  C   UNL     1      90.711 124.236 123.284  1.00  0.00     0.007 A 
ATOM     11  C   UNL     1      90.138 124.863 121.054  1.00  0.00     0.007 A 
ATOM     12  C   UNL     1      91.607 123.321 122.758  1.00  0.00     0.000 A 
ATOM     13  C   UNL     1      91.026 123.954 120.540  1.00  0.00     0.000 A 
ATOM     14  C   UNL     1      91.777 123.168 121.382  1.00  0.00     0.000 A 
ENDBRANCH   8   9
BRANCH   8  15
ATOM     15  C   UNL     1      89.712 127.305 122.827  1.00  0.00    -0.013 A 
ATOM     16  C   UNL     1      91.076 127.385 122.936  1.00  0.00     0.007 A 
ATOM     17  C   UNL     1      89.008 128.470 122.658  1.00  0.00     0.007 A 
ATOM     18  C   UNL     1      91.751 128.598 122.883  1.00  0.00     0.000 A 
ATOM     19  C   UNL     1      89.669 129.709 122.602  1.00  0.00     0.000 A 
ATOM     20  C   UNL     1      91.031 129.756 122.715  1.00  0.00     0.000 A 
ENDBRANCH   8  15
BRANCH   8  21
ATOM     21  N   UNL     1      87.834 126.102 121.976  1.00  0.00    -0.319 N 
ATOM     22  C   UNL     1      87.807 125.707 120.672  1.00  0.00     0.109 A 
ATOM     23  C   UNL     1      86.614 126.550 122.270  1.00  0.00     0.200 A 
ATOM     24  C   UNL     1      86.545 125.922 120.165  1.00  0.00     0.131 A 
ATOM     25  N   UNL     1      85.835 126.438 121.161  1.00  0.00    -0.245 NA
ENDBRANCH   8  21
ENDBRANCH   7   8
TORSDOF 4
ENDMDL
MODEL 2
REMARK VINA RESULT:      -7.1      0.864      1.389
REMARK SMILES Clc1ccccc1C(c1ccccc1)(c1ccccc1)n1ccnc1
REMARK SMILES IDX 1 1 2 2 3 3 4 4 5 5 6 6 7 7 8 8 9 9 10 10 14 11 11 12 13 13
REMARK SMILES IDX 12 14 15 15 16 16 20 17 17 18 19 19 18 20 21 21 22 22 25 23
REMARK SMILES IDX 23 24 24 25
REMARK H PARENT
ROOT
ATOM      1  Cl  UNL     1      87.167 123.515 122.850  1.00  0.00    -0.084 Cl
ATOM      2  C   UNL     1      87.682 124.466 124.225  1.00  0.00     0.047 A 
ATOM      3  C   UNL     1      87.108 124.309 125.465  1.00  0.00     0.021 A 
ATOM      4  C   UNL     1      87.533 125.033 126.558  1.00  0.00     0.002 A 
ATOM      5  C   UNL     1      88.558 125.929 126.378  1.00  0.00     0.001 A 
ATOM      6  C   UNL     1      89.142 126.088 125.115  1.00  0.00     0.008 A 
ATOM      7  C   UNL     1      88.716 125.370 124.040  1.00  0.00     0.006 A 
ENDROOT
BRANCH   7   8
ATOM      8  C   UNL     1      89.334 125.574 122.702  1.00  0.00     0.123 C 
BRANCH   8   9
ATOM      9  C   UNL     1      90.016 124.306 122.317  1.00  0.00    -0.013 A 
ATOM     10  C   UNL     1      90.176 123.844 121.051  1.00  0.00     0.007 A 
ATOM     11  C   UNL     1      90.536 123.565 123.394  1.00  0.00     0.007 A 
ATOM     12  C   UNL     1      90.848 122.652 120.843  1.00  0.00     0.000 A 
ATOM     13  C   UNL     1      91.201 122.385 123.179  1.00  0.00     0.000 A 
ATOM     14  C   UNL     1      91.368 121.908 121.901  1.00  0.00     0.000 A 
ENDBRANCH   8   9
BRANCH   8  15
ATOM     15  C   UNL     1      90.438 126.569 122.763  1.00  0.00    -0.013 A 
ATOM     16  C   UNL     1      91.759 126.238 122.616  1.00  0.00     0.007 A 
ATOM     17  C   UNL     1      90.120 127.889 122.953  1.00  0.00     0.007 A 
ATOM     18  C   UNL     1      92.769 127.192 122.654  1.00  0.00     0.000 A 
ATOM     19  C   UNL     1      91.123 128.872 122.996  1.00  0.00     0.000 A 
ATOM     20  C   UNL     1      92.433 128.511 122.846  1.00  0.00     0.000 A 
ENDBRANCH   8  15
BRANCH   8  21
ATOM     21  N   UNL     1      88.344 126.010 121.762  1.00  0.00    -0.319 N 
ATOM     22  C   UNL     1      88.182 125.536 120.496  1.00  0.00     0.109 A 
ATOM     23  C   UNL     1      87.399 126.930 121.956  1.00  0.00     0.200 A 
ATOM     24  C   UNL     1      87.117 126.182 119.908  1.00  0.00     0.131 A 
ATOM     25  N   UNL     1      86.656 127.029 120.821  1.00  0.00    -0.245 NA
ENDBRANCH   8  21
ENDBRANCH   7   8
TORSDOF 4
ENDMDL
MODEL 3
REMARK VINA RESULT:      -6.9      0.755      1.417
REMARK SMILES Clc1ccccc1C(c1ccccc1)(c1ccccc1)n1ccnc1
REMARK SMILES IDX 1 1 2 2 3 3 4 4 5 5 6 6 7 7 8 8 9 9 10 10 14 11 11 12 13 13
REMARK SMILES IDX 12 14 15 15 16 16 20 17 17 18 19 19 18 20 21 21 22 22 25 23
REMARK SMILES IDX 23 24 24 25
REMARK H PARENT
ROOT
ATOM      1  Cl  UNL     1      87.242 123.597 123.485  1.00  0.00    -0.084 Cl
ATOM      2  C   UNL     1      87.703 124.689 124.772  1.00  0.00     0.047 A 
ATOM      3  C   UNL     1      87.563 124.343 126.096  1.00  0.00     0.021 A 
ATOM      4  C   UNL     1      87.955 125.187 127.112  1.00  0.00     0.002 A 
ATOM      5  C   UNL     1      88.498 126.401 126.768  1.00  0.00     0.001 A 
ATOM      6  C   UNL     1      88.641 126.752 125.419  1.00  0.00     0.008 A 
ATOM      7  C   UNL     1      88.250 125.913 124.421  1.00  0.00     0.006 A 
ENDROOT
BRANCH   7   8
ATOM      8  C   UNL     1      88.388 126.319 122.996  1.00  0.00     0.123 C 
BRANCH   8   9
ATOM      9  C   UNL     1      89.360 125.391 122.350  1.00  0.00    -0.013 A 
ATOM     10  C   UNL     1      89.362 125.029 121.043  1.00  0.00     0.007 A 
ATOM     11  C   UNL     1      90.352 124.884 123.211  1.00  0.00     0.007 A 
ATOM     12  C   UNL     1      90.341 124.168 120.579  1.00  0.00     0.000 A 
ATOM     13  C   UNL     1      91.318 124.032 122.742  1.00  0.00     0.000 A 
ATOM     14  C   UNL     1      91.330 123.658 121.420  1.00  0.00     0.000 A 
ENDBRANCH   8   9
BRANCH   8  15
ATOM     15  C   UNL     1      89.033 127.653 122.874  1.00  0.00    -0.013 A 
ATOM     16  C   UNL     1      90.383 127.852 122.999  1.00  0.00     0.007 A 
ATOM     17  C   UNL     1      88.242 128.740 122.598  1.00  0.00     0.007 A 
ATOM     18  C   UNL     1      90.961 129.108 122.857  1.00  0.00     0.000 A 
ATOM     19  C   UNL     1      88.804 130.019 122.451  1.00  0.00     0.000 A 
ATOM     20  C   UNL     1      90.155 130.186 122.582  1.00  0.00     0.000 A 
ENDBRANCH   8  15
BRANCH   8  21
ATOM     21  N   UNL     1      87.102 126.345 122.364  1.00  0.00    -0.319 N 
ATOM     22  C   UNL     1      85.926 126.684 122.961  1.00  0.00     0.109 A 
ATOM     23  C   UNL     1      86.824 126.070 121.090  1.00  0.00     0.200 A 
ATOM     24  C   UNL     1      84.913 126.611 122.031  1.00  0.00     0.131 A 
ATOM     25  N   UNL     1      85.489 126.234 120.895  1.00  0.00    -0.245 NA
ENDBRANCH   8  21
ENDBRANCH   7   8
TORSDOF 4
ENDMDL
MODEL 4
REMARK VINA RESULT:      -6.8      1.535      4.489
REMARK SMILES Clc1ccccc1C(c1ccccc1)(c1ccccc1)n1ccnc1
REMARK SMILES IDX 1 1 2 2 3 3 4 4 5 5 6 6 7 7 8 8 9 9 10 10 14 11 11 12 13 13
REMARK SMILES IDX 12 14 15 15 16 16 20 17 17 18 19 19 18 20 21 21 22 22 25 23
REMARK SMILES IDX 23 24 24 25
REMARK H PARENT
ROOT
ATOM      1  Cl  UNL     1      90.384 124.846 119.973  1.00  0.00    -0.084 Cl
ATOM      2  C   UNL     1      90.567 123.730 121.308  1.00  0.00     0.047 A 
ATOM      3  C   UNL     1      91.498 122.718 121.279  1.00  0.00     0.021 A 
ATOM      4  C   UNL     1      91.668 121.857 122.341  1.00  0.00     0.002 A 
ATOM      5  C   UNL     1      90.873 122.035 123.447  1.00  0.00     0.001 A 
ATOM      6  C   UNL     1      89.925 123.066 123.476  1.00  0.00     0.008 A 
ATOM      7  C   UNL     1      89.763 123.911 122.422  1.00  0.00     0.006 A 
ENDROOT
BRANCH   7   8
ATOM      8  C   UNL     1      88.732 124.984 122.465  1.00  0.00     0.123 C 
BRANCH   8   9
ATOM      9  C   UNL     1      89.436 126.288 122.621  1.00  0.00    -0.013 A 
ATOM     10  C   UNL     1      90.775 126.455 122.763  1.00  0.00     0.007 A 
ATOM     11  C   UNL     1      88.597 127.418 122.599  1.00  0.00     0.007 A 
ATOM     12  C   UNL     1      91.291 127.733 122.882  1.00  0.00     0.000 A 
ATOM     13  C   UNL     1      89.117 128.681 122.718  1.00  0.00     0.000 A 
ATOM     14  C   UNL     1      90.472 128.861 122.862  1.00  0.00     0.000 A 
ENDBRANCH   8   9
BRANCH   8  15
ATOM     15  C   UNL     1      87.896 124.880 123.692  1.00  0.00    -0.013 A 
ATOM     16  C   UNL     1      88.356 125.190 124.945  1.00  0.00     0.007 A 
ATOM     17  C   UNL     1      86.591 124.478 123.562  1.00  0.00     0.007 A 
ATOM     18  C   UNL     1      87.545 125.106 126.070  1.00  0.00     0.000 A 
ATOM     19  C   UNL     1      85.753 124.386 124.686  1.00  0.00     0.000 A 
ATOM     20  C   UNL     1      86.240 124.701 125.924  1.00  0.00     0.000 A 
ENDBRANCH   8  15
BRANCH   8  21
ATOM     21  N   UNL     1      87.895 124.910 121.304  1.00  0.00    -0.319 N 
ATOM     22  C   UNL     1      87.315 123.783 120.808  1.00  0.00     0.109 A 
ATOM     23  C   UNL     1      87.516 125.918 120.519  1.00  0.00     0.200 A 
ATOM     24  C   UNL     1      86.570 124.112 119.698  1.00  0.00     0.131 A 
ATOM     25  N   UNL     1      86.709 125.424 119.543  1.00  0.00    -0.245 NA
ENDBRANCH   8  21
ENDBRANCH   7   8
TORSDOF 4
ENDMDL
MODEL 5
REMARK VINA RESULT:      -6.7      1.833      4.690
REMARK SMILES Clc1ccccc1C(c1ccccc1)(c1ccccc1)n1ccnc1
REMARK SMILES IDX 1 1 2 2 3 3 4 4 5 5 6 6 7 7 8 8 9 9 10 10 14 11 11 12 13 13
REMARK SMILES IDX 12 14 15 15 16 16 20 17 17 18 19 19 18 20 21 21 22 22 25 23
REMARK SMILES IDX 23 24 24 25
REMARK H PARENT
ROOT
ATOM      1  Cl  UNL     1      89.979 124.873 120.093  1.00  0.00    -0.084 Cl
ATOM      2  C   UNL     1      90.075 123.773 121.451  1.00  0.00     0.047 A 
ATOM      3  C   UNL     1      91.098 122.861 121.568  1.00  0.00     0.021 A 
ATOM      4  C   UNL     1      91.195 122.015 122.652  1.00  0.00     0.002 A 
ATOM      5  C   UNL     1      90.233 122.106 123.627  1.00  0.00     0.001 A 
ATOM      6  C   UNL     1      89.192 123.035 123.507  1.00  0.00     0.008 A 
ATOM      7  C   UNL     1      89.102 123.866 122.433  1.00  0.00     0.006 A 
ENDROOT
BRANCH   7   8
ATOM      8  C   UNL     1      87.973 124.828 122.314  1.00  0.00     0.123 C 
BRANCH   8   9
ATOM      9  C   UNL     1      88.529 126.203 122.453  1.00  0.00    -0.013 A 
ATOM     10  C   UNL     1      87.877 127.356 122.160  1.00  0.00     0.007 A 
ATOM     11  C   UNL     1      89.845 126.260 122.949  1.00  0.00     0.007 A 
ATOM     12  C   UNL     1      88.518 128.567 122.355  1.00  0.00     0.000 A 
ATOM     13  C   UNL     1      90.472 127.464 123.141  1.00  0.00     0.000 A 
ATOM     14  C   UNL     1      89.821 128.638 122.847  1.00  0.00     0.000 A 
ENDBRANCH   8   9
BRANCH   8  15
ATOM     15  C   UNL     1      87.035 124.704 123.461  1.00  0.00    -0.013 A 
ATOM     16  C   UNL     1      87.365 125.050 124.745  1.00  0.00     0.007 A 
ATOM     17  C   UNL     1      85.765 124.243 123.222  1.00  0.00     0.007 A 
ATOM     18  C   UNL     1      86.460 124.946 125.795  1.00  0.00     0.000 A 
ATOM     19  C   UNL     1      84.833 124.129 124.268  1.00  0.00     0.000 A 
ATOM     20  C   UNL     1      85.193 124.482 125.539  1.00  0.00     0.000 A 
ENDBRANCH   8  15
BRANCH   8  21
ATOM     21  N   UNL     1      87.265 124.608 121.087  1.00  0.00    -0.319 N 
ATOM     22  C   UNL     1      86.995 123.397 120.527  1.00  0.00     0.109 A 
ATOM     23  C   UNL     1      86.728 125.531 120.290  1.00  0.00     0.200 A 
ATOM     24  C   UNL     1      86.281 123.589 119.365  1.00  0.00     0.131 A 
ATOM     25  N   UNL     1      86.131 124.902 119.243  1.00  0.00    -0.245 NA
ENDBRANCH   8  21
ENDBRANCH   7   8
TORSDOF 4
ENDMDL
MODEL 6
REMARK VINA RESULT:      -6.7      1.046      1.251
REMARK SMILES Clc1ccccc1C(c1ccccc1)(c1ccccc1)n1ccnc1
REMARK SMILES IDX 1 1 2 2 3 3 4 4 5 5 6 6 7 7 8 8 9 9 10 10 14 11 11 12 13 13
REMARK SMILES IDX 12 14 15 15 16 16 20 17 17 18 19 19 18 20 21 21 22 22 25 23
REMARK SMILES IDX 23 24 24 25
REMARK H PARENT
ROOT
ATOM      1  Cl  UNL     1      86.686 123.936 122.880  1.00  0.00    -0.084 Cl
ATOM      2  C   UNL     1      87.419 124.713 124.265  1.00  0.00     0.047 A 
ATOM      3  C   UNL     1      86.863 124.625 125.520  1.00  0.00     0.021 A 
ATOM      4  C   UNL     1      87.455 125.208 126.619  1.00  0.00     0.002 A 
ATOM      5  C   UNL     1      88.632 125.891 126.430  1.00  0.00     0.001 A 
ATOM      6  C   UNL     1      89.197 125.980 125.152  1.00  0.00     0.008 A 
ATOM      7  C   UNL     1      88.606 125.402 124.071  1.00  0.00     0.006 A 
ENDROOT
BRANCH   7   8
ATOM      8  C   UNL     1      89.212 125.532 122.718  1.00  0.00     0.123 C 
BRANCH   8   9
ATOM      9  C   UNL     1      89.718 124.190 122.315  1.00  0.00    -0.013 A 
ATOM     10  C   UNL     1      90.075 123.189 123.158  1.00  0.00     0.007 A 
ATOM     11  C   UNL     1      89.802 123.985 120.924  1.00  0.00     0.007 A 
ATOM     12  C   UNL     1      90.514 121.985 122.637  1.00  0.00     0.000 A 
ATOM     13  C   UNL     1      90.238 122.788 120.416  1.00  0.00     0.000 A 
ATOM     14  C   UNL     1      90.601 121.768 121.262  1.00  0.00     0.000 A 
ENDBRANCH   8   9
BRANCH   8  15
ATOM     15  C   UNL     1      90.435 126.379 122.753  1.00  0.00    -0.013 A 
ATOM     16  C   UNL     1      91.695 125.892 122.524  1.00  0.00     0.007 A 
ATOM     17  C   UNL     1      90.295 127.720 123.004  1.00  0.00     0.007 A 
ATOM     18  C   UNL     1      92.817 126.712 122.540  1.00  0.00     0.000 A 
ATOM     19  C   UNL     1      91.415 128.568 123.026  1.00  0.00     0.000 A 
ATOM     20  C   UNL     1      92.660 128.053 122.794  1.00  0.00     0.000 A 
ENDBRANCH   8  15
BRANCH   8  21
ATOM     21  N   UNL     1      88.263 126.095 121.804  1.00  0.00    -0.319 N 
ATOM     22  C   UNL     1      88.065 125.700 120.516  1.00  0.00     0.109 A 
ATOM     23  C   UNL     1      87.395 127.076 122.046  1.00  0.00     0.200 A 
ATOM     24  C   UNL     1      87.058 126.459 119.963  1.00  0.00     0.131 A 
ATOM     25  N   UNL     1      86.665 127.293 120.920  1.00  0.00    -0.245 NA
ENDBRANCH   8  21
ENDBRANCH   7   8
TORSDOF 4
ENDMDL
MODEL 7
REMARK VINA RESULT:      -6.7      1.254      4.622
REMARK SMILES Clc1ccccc1C(c1ccccc1)(c1ccccc1)n1ccnc1
REMARK SMILES IDX 1 1 2 2 3 3 4 4 5 5 6 6 7 7 8 8 9 9 10 10 14 11 11 12 13 13
REMARK SMILES IDX 12 14 15 15 16 16 20 17 17 18 19 19 18 20 21 21 22 22 25 23
REMARK SMILES IDX 23 24 24 25
REMARK H PARENT
ROOT
ATOM      1  Cl  UNL     1      87.056 127.969 122.902  1.00  0.00    -0.084 Cl
ATOM      2  C   UNL     1      88.802 128.051 122.828  1.00  0.00     0.047 A 
ATOM      3  C   UNL     1      89.469 129.254 122.862  1.00  0.00     0.021 A 
ATOM      4  C   UNL     1      90.845 129.321 122.837  1.00  0.00     0.002 A 
ATOM      5  C   UNL     1      91.547 128.142 122.776  1.00  0.00     0.001 A 
ATOM      6  C   UNL     1      90.866 126.918 122.741  1.00  0.00     0.008 A 
ATOM      7  C   UNL     1      89.507 126.860 122.765  1.00  0.00     0.006 A 
ENDROOT
BRANCH   7   8
ATOM      8  C   UNL     1      88.805 125.549 122.701  1.00  0.00     0.123 C 
BRANCH   8   9
ATOM      9  C   UNL     1      88.172 125.305 124.028  1.00  0.00    -0.013 A 
ATOM     10  C   UNL     1      87.032 124.604 124.247  1.00  0.00     0.007 A 
ATOM     11  C   UNL     1      88.864 125.860 125.122  1.00  0.00     0.007 A 
ATOM     12  C   UNL     1      86.570 124.446 125.541  1.00  0.00     0.000 A 
ATOM     13  C   UNL     1      88.399 125.698 126.401  1.00  0.00     0.000 A 
ATOM     14  C   UNL     1      87.245 124.989 126.634  1.00  0.00     0.000 A 
ENDBRANCH   8   9
BRANCH   8  15
ATOM     15  C   UNL     1      89.770 124.426 122.555  1.00  0.00    -0.013 A 
ATOM     16  C   UNL     1      89.859 123.388 123.444  1.00  0.00     0.007 A 
ATOM     17  C   UNL     1      90.599 124.414 121.461  1.00  0.00     0.007 A 
ATOM     18  C   UNL     1      90.755 122.340 123.270  1.00  0.00     0.000 A 
ATOM     19  C   UNL     1      91.513 123.365 121.264  1.00  0.00     0.000 A 
ATOM     20  C   UNL     1      91.579 122.343 122.170  1.00  0.00     0.000 A 
ENDBRANCH   8  15
BRANCH   8  21
ATOM     21  N   UNL     1      87.882 125.536 121.606  1.00  0.00    -0.319 N 
ATOM     22  C   UNL     1      86.643 124.970 121.613  1.00  0.00     0.109 A 
ATOM     23  C   UNL     1      88.049 126.086 120.403  1.00  0.00     0.200 A 
ATOM     24  C   UNL     1      86.047 125.179 120.388  1.00  0.00     0.131 A 
ATOM     25  N   UNL     1      86.928 125.863 119.668  1.00  0.00    -0.245 NA
ENDBRANCH   8  21
ENDBRANCH   7   8
TORSDOF 4
ENDMDL
MODEL 8
REMARK VINA RESULT:      -6.7      1.817      2.764
REMARK SMILES Clc1ccccc1C(c1ccccc1)(c1ccccc1)n1ccnc1
REMARK SMILES IDX 1 1 2 2 3 3 4 4 5 5 6 6 7 7 8 8 9 9 10 10 14 11 11 12 13 13
REMARK SMILES IDX 12 14 15 15 16 16 20 17 17 18 19 19 18 20 21 21 22 22 25 23
REMARK SMILES IDX 23 24 24 25
REMARK H PARENT
ROOT
ATOM      1  Cl  UNL     1      85.478 125.719 122.773  1.00  0.00    -0.084 Cl
ATOM      2  C   UNL     1      86.582 125.591 124.124  1.00  0.00     0.047 A 
ATOM      3  C   UNL     1      86.132 125.352 125.402  1.00  0.00     0.021 A 
ATOM      4  C   UNL     1      87.000 125.218 126.463  1.00  0.00     0.002 A 
ATOM      5  C   UNL     1      88.346 125.331 126.213  1.00  0.00     0.001 A 
ATOM      6  C   UNL     1      88.803 125.575 124.911  1.00  0.00     0.008 A 
ATOM      7  C   UNL     1      87.939 125.707 123.868  1.00  0.00     0.006 A 
ENDROOT
BRANCH   7   8
ATOM      8  C   UNL     1      88.446 125.992 122.499  1.00  0.00     0.123 C 
BRANCH   8   9
ATOM      9  C   UNL     1      88.151 124.804 121.648  1.00  0.00    -0.013 A 
ATOM     10  C   UNL     1      87.949 124.820 120.306  1.00  0.00     0.007 A 
ATOM     11  C   UNL     1      88.103 123.579 122.340  1.00  0.00     0.007 A 
ATOM     12  C   UNL     1      87.699 123.631 119.644  1.00  0.00     0.000 A 
ATOM     13  C   UNL     1      87.856 122.406 121.675  1.00  0.00     0.000 A 
ATOM     14  C   UNL     1      87.649 122.411 120.317  1.00  0.00     0.000 A 
ENDBRANCH   8   9
BRANCH   8  15
ATOM     15  C   UNL     1      89.931 126.084 122.481  1.00  0.00    -0.013 A 
ATOM     16  C   UNL     1      90.744 125.063 122.064  1.00  0.00     0.007 A 
ATOM     17  C   UNL     1      90.518 127.258 122.878  1.00  0.00     0.007 A 
ATOM     18  C   UNL     1      92.128 125.185 122.036  1.00  0.00     0.000 A 
ATOM     19  C   UNL     1      91.916 127.405 122.858  1.00  0.00     0.000 A 
ATOM     20  C   UNL     1      92.701 126.368 122.438  1.00  0.00     0.000 A 
ENDBRANCH   8  15
BRANCH   8  21
ATOM     21  N   UNL     1      87.881 127.213 122.007  1.00  0.00    -0.319 N 
ATOM     22  C   UNL     1      87.796 128.386 122.694  1.00  0.00     0.109 A 
ATOM     23  C   UNL     1      87.363 127.434 120.799  1.00  0.00     0.200 A 
ATOM     24  C   UNL     1      87.212 129.338 121.887  1.00  0.00     0.131 A 
ATOM     25  N   UNL     1      86.958 128.729 120.734  1.00  0.00    -0.245 NA
ENDBRANCH   8  21
ENDBRANCH   7   8
TORSDOF 4
ENDMDL
MODEL 9
REMARK VINA RESULT:      -6.5      2.274      3.481
REMARK SMILES Clc1ccccc1C(c1ccccc1)(c1ccccc1)n1ccnc1
REMARK SMILES IDX 1 1 2 2 3 3 4 4 5 5 6 6 7 7 8 8 9 9 10 10 14 11 11 12 13 13
REMARK SMILES IDX 12 14 15 15 16 16 20 17 17 18 19 19 18 20 21 21 22 22 25 23
REMARK SMILES IDX 23 24 24 25
REMARK H PARENT
ROOT
ATOM      1  Cl  UNL     1      87.154 128.842 125.819  1.00  0.00    -0.084 Cl
ATOM      2  C   UNL     1      87.377 127.109 125.724  1.00  0.00     0.047 A 
ATOM      3  C   UNL     1      87.667 126.357 126.839  1.00  0.00     0.021 A 
ATOM      4  C   UNL     1      87.811 124.988 126.774  1.00  0.00     0.002 A 
ATOM      5  C   UNL     1      87.657 124.382 125.552  1.00  0.00     0.001 A 
ATOM      6  C   UNL     1      87.362 125.148 124.417  1.00  0.00     0.008 A 
ATOM      7  C   UNL     1      87.222 126.500 124.489  1.00  0.00     0.006 A 
ENDROOT
BRANCH   7   8
ATOM      8  C   UNL     1      86.934 127.296 123.265  1.00  0.00     0.123 C 
BRANCH   8   9
ATOM      9  C   UNL     1      87.023 126.380 122.093  1.00  0.00    -0.013 A 
ATOM     10  C   UNL     1      85.976 125.913 121.369  1.00  0.00     0.007 A 
ATOM     11  C   UNL     1      88.333 126.005 121.736  1.00  0.00     0.007 A 
ATOM     12  C   UNL     1      86.213 125.077 120.292  1.00  0.00     0.000 A 
ATOM     13  C   UNL     1      88.559 125.178 120.667  1.00  0.00     0.000 A 
ATOM     14  C   UNL     1      87.505 124.699 119.927  1.00  0.00     0.000 A 
ENDBRANCH   8   9
BRANCH   8  15
ATOM     15  C   UNL     1      87.999 128.304 123.013  1.00  0.00    -0.013 A 
ATOM     16  C   UNL     1      87.762 129.519 122.426  1.00  0.00     0.007 A 
ATOM     17  C   UNL     1      89.280 128.015 123.408  1.00  0.00     0.007 A 
ATOM     18  C   UNL     1      88.773 130.451 122.224  1.00  0.00     0.000 A 
ATOM     19  C   UNL     1      90.319 128.941 123.214  1.00  0.00     0.000 A 
ATOM     20  C   UNL     1      90.052 130.146 122.625  1.00  0.00     0.000 A 
ENDBRANCH   8  15
BRANCH   8  21
ATOM     21  N   UNL     1      85.668 127.955 123.392  1.00  0.00    -0.319 N 
ATOM     22  C   UNL     1      85.348 129.176 122.881  1.00  0.00     0.109 A 
ATOM     23  C   UNL     1      84.577 127.495 124.005  1.00  0.00     0.200 A 
ATOM     24  C   UNL     1      84.038 129.464 123.190  1.00  0.00     0.131 A 
ATOM     25  N   UNL     1      83.589 128.420 123.878  1.00  0.00    -0.245 NA
ENDBRANCH   8  21
ENDBRANCH   7   8
TORSDOF 4
ENDMDL
