MODEL 1
REMARK VINA RESULT:      -8.0      0.000      0.000
REMARK SMILES O=S(=O)([N-]CC[NH2+]C/C=C/c1ccc(Br)cc1)c1cccc2cnccc12
REMARK SMILES IDX 6 1 5 2 4 3 2 4 1 5 3 6 18 7 19 8 27 9 20 10 26 11 22 12
REMARK SMILES IDX 21 13 25 14 23 15 24 16 7 17 8 20 9 21 10 22 11 23 12 24
REMARK SMILES IDX 17 25 13 26 16 27 14 28 15 29
REMARK H PARENT 7 18 7 19
ROOT
ATOM      1  C   UNL     1       0.443  11.262   7.119  1.00  0.00     0.238 C 
ENDROOT
BRANCH   1   2
ATOM      2  C   UNL     1      -0.762  11.697   6.318  1.00  0.00    -0.070 C 
BRANCH   2   3
ATOM      3  N   UNL     1      -1.964  11.618   7.119  1.00  0.00    -0.540 NA
BRANCH   3   4
ATOM      4  S   UNL     1      -2.762  10.074   6.861  1.00  0.00     0.102 S 
ATOM      5  O   UNL     1      -2.295   9.234   7.946  1.00  0.00    -0.244 OA
ATOM      6  O   UNL     1      -2.190   9.561   5.566  1.00  0.00    -0.244 OA
BRANCH   4   7
ATOM      7  C   UNL     1      -4.413  10.402   6.661  1.00  0.00     0.056 A 
ATOM      8  C   UNL     1      -4.902  10.777   5.428  1.00  0.00     0.019 A 
ATOM      9  C   UNL     1      -5.311  10.311   7.703  1.00  0.00     0.002 A 
ATOM     10  C   UNL     1      -6.252  11.047   5.269  1.00  0.00     0.002 A 
ATOM     11  C   UNL     1      -4.819   9.936   8.933  1.00  0.00     0.030 A 
ATOM     12  C   UNL     1      -6.674  10.577   7.570  1.00  0.00     0.001 A 
ATOM     13  C   UNL     1      -7.140  10.952   6.321  1.00  0.00     0.010 A 
ATOM     14  C   UNL     1      -5.682   9.834   9.985  1.00  0.00     0.111 A 
ATOM     15  C   UNL     1      -7.522  10.466   8.654  1.00  0.00     0.119 A 
ATOM     16  N   UNL     1      -6.988  10.096   9.827  1.00  0.00    -0.264 NA
ENDBRANCH   4   7
ENDBRANCH   3   4
ENDBRANCH   2   3
ENDBRANCH   1   2
BRANCH   1  17
ATOM     17  N   UNL     1       0.963  12.303   7.957  1.00  0.00    -0.344 N 
ATOM     18  H   UNL     1       1.861  12.638   7.596  1.00  0.00     0.346 HD
ATOM     19  H   UNL     1       0.256  13.075   8.003  1.00  0.00     0.346 HD
BRANCH  17  20
ATOM     20  C   UNL     1       1.083  11.777   9.300  1.00  0.00     0.289 C 
BRANCH  20  21
ATOM     21  C   UNL     1       1.056  10.312   9.354  1.00  0.00     0.034 C 
ATOM     22  C   UNL     1       1.113   9.700  10.521  1.00  0.00     0.009 C 
BRANCH  22  23
ATOM     23  C   UNL     1       1.095   8.254  10.703  1.00  0.00    -0.026 A 
ATOM     24  C   UNL     1       0.301   7.468   9.898  1.00  0.00     0.009 A 
ATOM     25  C   UNL     1       1.842   7.604  11.655  1.00  0.00     0.009 A 
ATOM     26  C   UNL     1       0.242   6.092  10.023  1.00  0.00     0.016 A 
ATOM     27  C   UNL     1       1.790   6.211  11.791  1.00  0.00     0.016 A 
ATOM     28  C   UNL     1       0.992   5.444  10.979  1.00  0.00     0.018 A 
ATOM     29  Br  UNL     1       0.938   3.539  11.183  1.00  0.00    -0.051 Br
ENDBRANCH  22  23
ENDBRANCH  20  21
ENDBRANCH  17  20
ENDBRANCH   1  17
TORSDOF 8
ENDMDL
MODEL 2
REMARK VINA RESULT:      -7.9      1.456      1.932
REMARK SMILES O=S(=O)([N-]CC[NH2+]C/C=C/c1ccc(Br)cc1)c1cccc2cnccc12
REMARK SMILES IDX 6 1 5 2 4 3 2 4 1 5 3 6 18 7 19 8 27 9 20 10 26 11 22 12
REMARK SMILES IDX 21 13 25 14 23 15 24 16 7 17 8 20 9 21 10 22 11 23 12 24
REMARK SMILES IDX 17 25 13 26 16 27 14 28 15 29
REMARK H PARENT 7 18 7 19
ROOT
ATOM      1  C   UNL     1      -0.733  13.391   6.439  1.00  0.00     0.238 C 
ENDROOT
BRANCH   1   2
ATOM      2  C   UNL     1      -1.643  13.210   5.247  1.00  0.00    -0.070 C 
BRANCH   2   3
ATOM      3  N   UNL     1      -2.987  12.885   5.675  1.00  0.00    -0.540 NA
BRANCH   3   4
ATOM      4  S   UNL     1      -3.423  11.273   5.126  1.00  0.00     0.102 S 
ATOM      5  O   UNL     1      -2.237  10.473   5.359  1.00  0.00    -0.244 OA
ATOM      6  O   UNL     1      -3.628  11.419   3.641  1.00  0.00    -0.244 OA
BRANCH   4   7
ATOM      7  C   UNL     1      -4.897  10.885   5.866  1.00  0.00     0.056 A 
ATOM      8  C   UNL     1      -6.023  10.668   5.100  1.00  0.00     0.019 A 
ATOM      9  C   UNL     1      -5.026  10.775   7.234  1.00  0.00     0.002 A 
ATOM     10  C   UNL     1      -7.228  10.353   5.710  1.00  0.00     0.002 A 
ATOM     11  C   UNL     1      -3.899  10.990   7.996  1.00  0.00     0.030 A 
ATOM     12  C   UNL     1      -6.225  10.458   7.872  1.00  0.00     0.001 A 
ATOM     13  C   UNL     1      -7.341  10.246   7.081  1.00  0.00     0.010 A 
ATOM     14  C   UNL     1      -3.990  10.887   9.353  1.00  0.00     0.111 A 
ATOM     15  C   UNL     1      -6.286  10.362   9.248  1.00  0.00     0.119 A 
ATOM     16  N   UNL     1      -5.158  10.582   9.938  1.00  0.00    -0.264 NA
ENDBRANCH   4   7
ENDBRANCH   3   4
ENDBRANCH   2   3
ENDBRANCH   1   2
BRANCH   1  17
ATOM     17  N   UNL     1      -0.147  12.161   6.887  1.00  0.00    -0.344 N 
ATOM     18  H   UNL     1      -0.561  11.366   6.390  1.00  0.00     0.346 HD
ATOM     19  H   UNL     1       0.888  12.212   6.736  1.00  0.00     0.346 HD
BRANCH  17  20
ATOM     20  C   UNL     1      -0.347  12.067   8.317  1.00  0.00     0.289 C 
BRANCH  20  21
ATOM     21  C   UNL     1       0.441  11.001   8.944  1.00  0.00     0.034 C 
ATOM     22  C   UNL     1      -0.169   9.936   9.430  1.00  0.00     0.009 C 
BRANCH  22  23
ATOM     23  C   UNL     1       0.504   8.815  10.074  1.00  0.00    -0.026 A 
ATOM     24  C   UNL     1       1.312   9.032  11.168  1.00  0.00     0.009 A 
ATOM     25  C   UNL     1       0.379   7.515   9.647  1.00  0.00     0.009 A 
ATOM     26  C   UNL     1       1.975   8.009  11.820  1.00  0.00     0.016 A 
ATOM     27  C   UNL     1       1.047   6.471  10.300  1.00  0.00     0.016 A 
ATOM     28  C   UNL     1       1.848   6.707  11.388  1.00  0.00     0.018 A 
ATOM     29  Br  UNL     1       2.751   5.261  12.266  1.00  0.00    -0.051 Br
ENDBRANCH  22  23
ENDBRANCH  20  21
ENDBRANCH  17  20
ENDBRANCH   1  17
TORSDOF 8
ENDMDL
MODEL 3
REMARK VINA RESULT:      -7.8      1.371      2.457
REMARK SMILES O=S(=O)([N-]CC[NH2+]C/C=C/c1ccc(Br)cc1)c1cccc2cnccc12
REMARK SMILES IDX 6 1 5 2 4 3 2 4 1 5 3 6 18 7 19 8 27 9 20 10 26 11 22 12
REMARK SMILES IDX 21 13 25 14 23 15 24 16 7 17 8 20 9 21 10 22 11 23 12 24
REMARK SMILES IDX 17 25 13 26 16 27 14 28 15 29
REMARK H PARENT 7 18 7 19
ROOT
ATOM      1  C   UNL     1      -0.424  12.785   7.824  1.00  0.00     0.238 C 
ENDROOT
BRANCH   1   2
ATOM      2  C   UNL     1      -1.317  12.058   6.845  1.00  0.00    -0.070 C 
BRANCH   2   3
ATOM      3  N   UNL     1      -2.707  12.196   7.223  1.00  0.00    -0.540 NA
BRANCH   3   4
ATOM      4  S   UNL     1      -3.200  10.837   8.223  1.00  0.00     0.102 S 
ATOM      5  O   UNL     1      -2.631  11.116   9.526  1.00  0.00    -0.244 OA
ATOM      6  O   UNL     1      -2.494   9.649   7.626  1.00  0.00    -0.244 OA
BRANCH   4   7
ATOM      7  C   UNL     1      -4.874  10.661   8.021  1.00  0.00     0.056 A 
ATOM      8  C   UNL     1      -5.684  10.430   9.112  1.00  0.00     0.019 A 
ATOM      9  C   UNL     1      -5.476  10.739   6.784  1.00  0.00     0.002 A 
ATOM     10  C   UNL     1      -7.053  10.285   8.942  1.00  0.00     0.002 A 
ATOM     11  C   UNL     1      -4.664  10.972   5.696  1.00  0.00     0.030 A 
ATOM     12  C   UNL     1      -6.850  10.597   6.585  1.00  0.00     0.001 A 
ATOM     13  C   UNL     1      -7.642  10.365   7.697  1.00  0.00     0.010 A 
ATOM     14  C   UNL     1      -5.229  11.056   4.457  1.00  0.00     0.111 A 
ATOM     15  C   UNL     1      -7.391  10.687   5.318  1.00  0.00     0.119 A 
ATOM     16  N   UNL     1      -6.553  10.914   4.298  1.00  0.00    -0.264 NA
ENDBRANCH   4   7
ENDBRANCH   3   4
ENDBRANCH   2   3
ENDBRANCH   1   2
BRANCH   1  17
ATOM     17  N   UNL     1       0.855  12.158   7.986  1.00  0.00    -0.344 N 
ATOM     18  H   UNL     1       0.982  11.420   7.286  1.00  0.00     0.346 HD
ATOM     19  H   UNL     1       1.597  12.893   7.908  1.00  0.00     0.346 HD
BRANCH  17  20
ATOM     20  C   UNL     1       0.930  11.641   9.335  1.00  0.00     0.289 C 
BRANCH  20  21
ATOM     21  C   UNL     1       0.751  10.188   9.411  1.00  0.00     0.034 C 
ATOM     22  C   UNL     1       1.270   9.517  10.422  1.00  0.00     0.009 C 
BRANCH  22  23
ATOM     23  C   UNL     1       1.159   8.075  10.607  1.00  0.00    -0.026 A 
ATOM     24  C   UNL     1       1.927   7.441  11.559  1.00  0.00     0.009 A 
ATOM     25  C   UNL     1       0.312   7.284   9.870  1.00  0.00     0.009 A 
ATOM     26  C   UNL     1       1.865   6.077  11.779  1.00  0.00     0.016 A 
ATOM     27  C   UNL     1       0.241   5.901  10.085  1.00  0.00     0.016 A 
ATOM     28  C   UNL     1       1.014   5.287  11.038  1.00  0.00     0.018 A 
ATOM     29  Br  UNL     1       0.900   3.394  11.314  1.00  0.00    -0.051 Br
ENDBRANCH  22  23
ENDBRANCH  20  21
ENDBRANCH  17  20
ENDBRANCH   1  17
TORSDOF 8
ENDMDL
MODEL 4
REMARK VINA RESULT:      -7.8      3.013      4.453
REMARK SMILES O=S(=O)([N-]CC[NH2+]C/C=C/c1ccc(Br)cc1)c1cccc2cnccc12
REMARK SMILES IDX 6 1 5 2 4 3 2 4 1 5 3 6 18 7 19 8 27 9 20 10 26 11 22 12
REMARK SMILES IDX 21 13 25 14 23 15 24 16 7 17 8 20 9 21 10 22 11 23 12 24
REMARK SMILES IDX 17 25 13 26 16 27 14 28 15 29
REMARK H PARENT 7 18 7 19
ROOT
ATOM      1  C   UNL     1      -3.876  10.639   8.468  1.00  0.00     0.238 C 
ENDROOT
BRANCH   1   2
ATOM      2  C   UNL     1      -5.005  10.200   7.565  1.00  0.00    -0.070 C 
BRANCH   2   3
ATOM      3  N   UNL     1      -5.897  11.305   7.288  1.00  0.00    -0.540 NA
BRANCH   3   4
ATOM      4  S   UNL     1      -7.497  10.703   6.879  1.00  0.00     0.102 S 
ATOM      5  O   UNL     1      -8.391  11.802   7.186  1.00  0.00    -0.244 OA
ATOM      6  O   UNL     1      -7.744   9.585   7.857  1.00  0.00    -0.244 OA
BRANCH   4   7
ATOM      7  C   UNL     1      -7.397  10.071   5.310  1.00  0.00     0.056 A 
ATOM      8  C   UNL     1      -7.593   8.724   5.090  1.00  0.00     0.019 A 
ATOM      9  C   UNL     1      -7.120  10.862   4.216  1.00  0.00     0.002 A 
ATOM     10  C   UNL     1      -7.509   8.211   3.805  1.00  0.00     0.002 A 
ATOM     11  C   UNL     1      -6.926  12.207   4.439  1.00  0.00     0.030 A 
ATOM     12  C   UNL     1      -7.030  10.372   2.913  1.00  0.00     0.001 A 
ATOM     13  C   UNL     1      -7.230   9.016   2.719  1.00  0.00     0.010 A 
ATOM     14  C   UNL     1      -6.652  13.020   3.377  1.00  0.00     0.111 A 
ATOM     15  C   UNL     1      -6.750  11.219   1.859  1.00  0.00     0.119 A 
ATOM     16  N   UNL     1      -6.571  12.518   2.136  1.00  0.00    -0.264 NA
ENDBRANCH   4   7
ENDBRANCH   3   4
ENDBRANCH   2   3
ENDBRANCH   1   2
BRANCH   1  17
ATOM     17  N   UNL     1      -3.017  11.612   7.858  1.00  0.00    -0.344 N 
ATOM     18  H   UNL     1      -3.554  12.220   7.232  1.00  0.00     0.346 HD
ATOM     19  H   UNL     1      -2.547  12.161   8.616  1.00  0.00     0.346 HD
BRANCH  17  20
ATOM     20  C   UNL     1      -1.970  10.903   7.155  1.00  0.00     0.289 C 
BRANCH  20  21
ATOM     21  C   UNL     1      -1.373   9.820   7.942  1.00  0.00     0.034 C 
ATOM     22  C   UNL     1      -0.289  10.053   8.659  1.00  0.00     0.009 C 
BRANCH  22  23
ATOM     23  C   UNL     1       0.394   9.061   9.479  1.00  0.00    -0.026 A 
ATOM     24  C   UNL     1       0.989   9.436  10.663  1.00  0.00     0.009 A 
ATOM     25  C   UNL     1       0.485   7.733   9.137  1.00  0.00     0.009 A 
ATOM     26  C   UNL     1       1.650   8.540  11.482  1.00  0.00     0.016 A 
ATOM     27  C   UNL     1       1.152   6.817   9.959  1.00  0.00     0.016 A 
ATOM     28  C   UNL     1       1.739   7.210  11.136  1.00  0.00     0.018 A 
ATOM     29  Br  UNL     1       2.647   5.937  12.245  1.00  0.00    -0.051 Br
ENDBRANCH  22  23
ENDBRANCH  20  21
ENDBRANCH  17  20
ENDBRANCH   1  17
TORSDOF 8
ENDMDL
MODEL 5
REMARK VINA RESULT:      -7.8      1.254      2.147
REMARK SMILES O=S(=O)([N-]CC[NH2+]C/C=C/c1ccc(Br)cc1)c1cccc2cnccc12
REMARK SMILES IDX 6 1 5 2 4 3 2 4 1 5 3 6 18 7 19 8 27 9 20 10 26 11 22 12
REMARK SMILES IDX 21 13 25 14 23 15 24 16 7 17 8 20 9 21 10 22 11 23 12 24
REMARK SMILES IDX 17 25 13 26 16 27 14 28 15 29
REMARK H PARENT 7 18 7 19
ROOT
ATOM      1  C   UNL     1       0.083  13.233   7.921  1.00  0.00     0.238 C 
ENDROOT
BRANCH   1   2
ATOM      2  C   UNL     1      -0.695  12.771   6.711  1.00  0.00    -0.070 C 
BRANCH   2   3
ATOM      3  N   UNL     1      -1.255  11.457   6.936  1.00  0.00    -0.540 NA
BRANCH   3   4
ATOM      4  S   UNL     1      -2.896  11.384   6.309  1.00  0.00     0.102 S 
ATOM      5  O   UNL     1      -2.814  10.489   5.172  1.00  0.00    -0.244 OA
ATOM      6  O   UNL     1      -3.177  12.778   5.815  1.00  0.00    -0.244 OA
BRANCH   4   7
ATOM      7  C   UNL     1      -3.908  11.034   7.623  1.00  0.00     0.056 A 
ATOM      8  C   UNL     1      -3.439  11.160   8.914  1.00  0.00     0.019 A 
ATOM      9  C   UNL     1      -5.210  10.616   7.456  1.00  0.00     0.002 A 
ATOM     10  C   UNL     1      -4.269  10.871   9.986  1.00  0.00     0.002 A 
ATOM     11  C   UNL     1      -5.676  10.492   6.166  1.00  0.00     0.030 A 
ATOM     12  C   UNL     1      -6.067  10.319   8.516  1.00  0.00     0.001 A 
ATOM     13  C   UNL     1      -5.572  10.454   9.802  1.00  0.00     0.010 A 
ATOM     14  C   UNL     1      -6.962  10.083   5.964  1.00  0.00     0.111 A 
ATOM     15  C   UNL     1      -7.363   9.906   8.280  1.00  0.00     0.119 A 
ATOM     16  N   UNL     1      -7.761   9.804   7.004  1.00  0.00    -0.264 NA
ENDBRANCH   4   7
ENDBRANCH   3   4
ENDBRANCH   2   3
ENDBRANCH   1   2
BRANCH   1  17
ATOM     17  N   UNL     1       1.245  12.433   8.178  1.00  0.00    -0.344 N 
ATOM     18  H   UNL     1       1.327  11.687   7.480  1.00  0.00     0.346 HD
ATOM     19  H   UNL     1       2.086  13.057   8.173  1.00  0.00     0.346 HD
BRANCH  17  20
ATOM     20  C   UNL     1       1.135  11.905   9.521  1.00  0.00     0.289 C 
BRANCH  20  21
ATOM     21  C   UNL     1       0.915  10.456   9.559  1.00  0.00     0.034 C 
ATOM     22  C   UNL     1       1.462   9.737  10.522  1.00  0.00     0.009 C 
BRANCH  22  23
ATOM     23  C   UNL     1       1.316   8.294  10.665  1.00  0.00    -0.026 A 
ATOM     24  C   UNL     1       0.543   7.586   9.772  1.00  0.00     0.009 A 
ATOM     25  C   UNL     1       1.921   7.571  11.665  1.00  0.00     0.009 A 
ATOM     26  C   UNL     1       0.369   6.217   9.857  1.00  0.00     0.016 A 
ATOM     27  C   UNL     1       1.751   6.184  11.761  1.00  0.00     0.016 A 
ATOM     28  C   UNL     1       0.976   5.496  10.862  1.00  0.00     0.018 A 
ATOM     29  Br  UNL     1       0.759   3.598  11.013  1.00  0.00    -0.051 Br
ENDBRANCH  22  23
ENDBRANCH  20  21
ENDBRANCH  17  20
ENDBRANCH   1  17
TORSDOF 8
ENDMDL
MODEL 6
REMARK VINA RESULT:      -7.7      0.835      1.307
REMARK SMILES O=S(=O)([N-]CC[NH2+]C/C=C/c1ccc(Br)cc1)c1cccc2cnccc12
REMARK SMILES IDX 6 1 5 2 4 3 2 4 1 5 3 6 18 7 19 8 27 9 20 10 26 11 22 12
REMARK SMILES IDX 21 13 25 14 23 15 24 16 7 17 8 20 9 21 10 22 11 23 12 24
REMARK SMILES IDX 17 25 13 26 16 27 14 28 15 29
REMARK H PARENT 7 18 7 19
ROOT
ATOM      1  C   UNL     1       0.653  10.507   7.098  1.00  0.00     0.238 C 
ENDROOT
BRANCH   1   2
ATOM      2  C   UNL     1      -0.552  10.482   6.187  1.00  0.00    -0.070 C 
BRANCH   2   3
ATOM      3  N   UNL     1      -1.527  11.466   6.604  1.00  0.00    -0.540 NA
BRANCH   3   4
ATOM      4  S   UNL     1      -2.706  10.731   7.681  1.00  0.00     0.102 S 
ATOM      5  O   UNL     1      -2.481  11.371   8.962  1.00  0.00    -0.244 OA
ATOM      6  O   UNL     1      -2.287   9.288   7.776  1.00  0.00    -0.244 OA
BRANCH   4   7
ATOM      7  C   UNL     1      -4.210  10.835   6.907  1.00  0.00     0.056 A 
ATOM      8  C   UNL     1      -4.279  11.112   5.558  1.00  0.00     0.019 A 
ATOM      9  C   UNL     1      -5.398  10.653   7.581  1.00  0.00     0.002 A 
ATOM     10  C   UNL     1      -5.511  11.198   4.928  1.00  0.00     0.002 A 
ATOM     11  C   UNL     1      -5.325  10.375   8.929  1.00  0.00     0.030 A 
ATOM     12  C   UNL     1      -6.650  10.733   6.973  1.00  0.00     0.001 A 
ATOM     13  C   UNL     1      -6.692  11.013   5.617  1.00  0.00     0.010 A 
ATOM     14  C   UNL     1      -6.483  10.187   9.627  1.00  0.00     0.111 A 
ATOM     15  C   UNL     1      -7.803  10.539   7.706  1.00  0.00     0.119 A 
ATOM     16  N   UNL     1      -7.672  10.272   9.013  1.00  0.00    -0.264 NA
ENDBRANCH   4   7
ENDBRANCH   3   4
ENDBRANCH   2   3
ENDBRANCH   1   2
BRANCH   1  17
ATOM     17  N   UNL     1       0.727  11.695   7.896  1.00  0.00    -0.344 N 
ATOM     18  H   UNL     1       1.486  12.300   7.569  1.00  0.00     0.346 HD
ATOM     19  H   UNL     1      -0.199  12.183   7.851  1.00  0.00     0.346 HD
BRANCH  17  20
ATOM     20  C   UNL     1       0.911  11.296   9.275  1.00  0.00     0.289 C 
BRANCH  20  21
ATOM     21  C   UNL     1       0.653   9.871   9.506  1.00  0.00     0.034 C 
ATOM     22  C   UNL     1       1.481   9.170  10.257  1.00  0.00     0.009 C 
BRANCH  22  23
ATOM     23  C   UNL     1       1.332   7.752  10.558  1.00  0.00    -0.026 A 
ATOM     24  C   UNL     1       2.102   7.171  11.541  1.00  0.00     0.009 A 
ATOM     25  C   UNL     1       0.443   6.932   9.905  1.00  0.00     0.009 A 
ATOM     26  C   UNL     1       2.004   5.831  11.871  1.00  0.00     0.016 A 
ATOM     27  C   UNL     1       0.336   5.574  10.231  1.00  0.00     0.016 A 
ATOM     28  C   UNL     1       1.112   5.013  11.213  1.00  0.00     0.018 A 
ATOM     29  Br  UNL     1       0.947   3.152  11.643  1.00  0.00    -0.051 Br
ENDBRANCH  22  23
ENDBRANCH  20  21
ENDBRANCH  17  20
ENDBRANCH   1  17
TORSDOF 8
ENDMDL
MODEL 7
REMARK VINA RESULT:      -7.7      3.583      7.525
REMARK SMILES O=S(=O)([N-]CC[NH2+]C/C=C/c1ccc(Br)cc1)c1cccc2cnccc12
REMARK SMILES IDX 6 1 5 2 4 3 2 4 1 5 3 6 18 7 19 8 27 9 20 10 26 11 22 12
REMARK SMILES IDX 21 13 25 14 23 15 24 16 7 17 8 20 9 21 10 22 11 23 12 24
REMARK SMILES IDX 17 25 13 26 16 27 14 28 15 29
REMARK H PARENT 7 18 7 19
ROOT
ATOM      1  C   UNL     1      -1.579  11.357   7.400  1.00  0.00     0.238 C 
ENDROOT
BRANCH   1   2
ATOM      2  C   UNL     1      -0.135  11.365   6.956  1.00  0.00    -0.070 C 
BRANCH   2   3
ATOM      3  N   UNL     1       0.333  10.017   6.714  1.00  0.00    -0.540 NA
BRANCH   3   4
ATOM      4  S   UNL     1       1.069   9.362   8.169  1.00  0.00     0.102 S 
ATOM      5  O   UNL     1       1.260  10.511   9.032  1.00  0.00    -0.244 OA
ATOM      6  O   UNL     1       2.416   8.858   7.721  1.00  0.00    -0.244 OA
BRANCH   4   7
ATOM      7  C   UNL     1       0.109   8.053   8.658  1.00  0.00     0.056 A 
ATOM      8  C   UNL     1      -1.092   7.800   8.029  1.00  0.00     0.019 A 
ATOM      9  C   UNL     1       0.482   7.212   9.684  1.00  0.00     0.002 A 
ATOM     10  C   UNL     1      -1.875   6.730   8.433  1.00  0.00     0.002 A 
ATOM     11  C   UNL     1       1.682   7.468  10.309  1.00  0.00     0.030 A 
ATOM     12  C   UNL     1      -0.287   6.129  10.110  1.00  0.00     0.001 A 
ATOM     13  C   UNL     1      -1.488   5.895   9.462  1.00  0.00     0.010 A 
ATOM     14  C   UNL     1       2.082   6.652  11.327  1.00  0.00     0.111 A 
ATOM     15  C   UNL     1       0.145   5.322  11.144  1.00  0.00     0.119 A 
ATOM     16  N   UNL     1       1.321   5.619  11.715  1.00  0.00    -0.264 NA
ENDBRANCH   4   7
ENDBRANCH   3   4
ENDBRANCH   2   3
ENDBRANCH   1   2
BRANCH   1  17
ATOM     17  N   UNL     1      -1.733  11.584   8.807  1.00  0.00    -0.344 N 
ATOM     18  H   UNL     1      -1.039  11.046   9.334  1.00  0.00     0.346 HD
ATOM     19  H   UNL     1      -1.641  12.612   8.989  1.00  0.00     0.346 HD
BRANCH  17  20
ATOM     20  C   UNL     1      -3.086  11.225   9.171  1.00  0.00     0.289 C 
BRANCH  20  21
ATOM     21  C   UNL     1      -3.810  10.529   8.103  1.00  0.00     0.034 C 
ATOM     22  C   UNL     1      -4.905  11.066   7.597  1.00  0.00     0.009 C 
BRANCH  22  23
ATOM     23  C   UNL     1      -5.707  10.472   6.536  1.00  0.00    -0.026 A 
ATOM     24  C   UNL     1      -5.556  10.899   5.235  1.00  0.00     0.009 A 
ATOM     25  C   UNL     1      -6.634   9.481   6.756  1.00  0.00     0.009 A 
ATOM     26  C   UNL     1      -6.289  10.373   4.188  1.00  0.00     0.016 A 
ATOM     27  C   UNL     1      -7.382   8.941   5.702  1.00  0.00     0.016 A 
ATOM     28  C   UNL     1      -7.218   9.380   4.412  1.00  0.00     0.018 A 
ATOM     29  Br  UNL     1      -8.252   8.626   2.986  1.00  0.00    -0.051 Br
ENDBRANCH  22  23
ENDBRANCH  20  21
ENDBRANCH  17  20
ENDBRANCH   1  17
TORSDOF 8
ENDMDL
MODEL 8
REMARK VINA RESULT:      -7.6      1.844      2.707
REMARK SMILES O=S(=O)([N-]CC[NH2+]C/C=C/c1ccc(Br)cc1)c1cccc2cnccc12
REMARK SMILES IDX 6 1 5 2 4 3 2 4 1 5 3 6 18 7 19 8 27 9 20 10 26 11 22 12
REMARK SMILES IDX 21 13 25 14 23 15 24 16 7 17 8 20 9 21 10 22 11 23 12 24
REMARK SMILES IDX 17 25 13 26 16 27 14 28 15 29
REMARK H PARENT 7 18 7 19
ROOT
ATOM      1  C   UNL     1       0.641  11.129   6.823  1.00  0.00     0.238 C 
ENDROOT
BRANCH   1   2
ATOM      2  C   UNL     1      -0.311  11.731   5.815  1.00  0.00    -0.070 C 
BRANCH   2   3
ATOM      3  N   UNL     1      -1.053  10.694   5.131  1.00  0.00    -0.540 NA
BRANCH   3   4
ATOM      4  S   UNL     1      -2.606  11.318   4.592  1.00  0.00     0.102 S 
ATOM      5  O   UNL     1      -2.694  10.927   3.200  1.00  0.00    -0.244 OA
ATOM      6  O   UNL     1      -2.464  12.815   4.672  1.00  0.00    -0.244 OA
BRANCH   4   7
ATOM      7  C   UNL     1      -3.761  10.798   5.719  1.00  0.00     0.056 A 
ATOM      8  C   UNL     1      -3.396   9.958   6.750  1.00  0.00     0.019 A 
ATOM      9  C   UNL     1      -5.081  11.184   5.648  1.00  0.00     0.002 A 
ATOM     10  C   UNL     1      -4.344   9.533   7.668  1.00  0.00     0.002 A 
ATOM     11  C   UNL     1      -5.442  12.024   4.618  1.00  0.00     0.030 A 
ATOM     12  C   UNL     1      -6.055  10.773   6.558  1.00  0.00     0.001 A 
ATOM     13  C   UNL     1      -5.664   9.929   7.584  1.00  0.00     0.010 A 
ATOM     14  C   UNL     1      -6.742  12.429   4.520  1.00  0.00     0.111 A 
ATOM     15  C   UNL     1      -7.362  11.198   6.431  1.00  0.00     0.119 A 
ATOM     16  N   UNL     1      -7.655  12.014   5.410  1.00  0.00    -0.264 NA
ENDBRANCH   4   7
ENDBRANCH   3   4
ENDBRANCH   2   3
ENDBRANCH   1   2
BRANCH   1  17
ATOM     17  N   UNL     1       0.716  11.882   8.040  1.00  0.00    -0.344 N 
ATOM     18  H   UNL     1       1.633  11.758   8.481  1.00  0.00     0.346 HD
ATOM     19  H   UNL     1       0.529  12.889   7.820  1.00  0.00     0.346 HD
BRANCH  17  20
ATOM     20  C   UNL     1      -0.361  11.445   8.902  1.00  0.00     0.289 C 
BRANCH  20  21
ATOM     21  C   UNL     1      -0.367   9.998   9.135  1.00  0.00     0.034 C 
ATOM     22  C   UNL     1       0.517   9.464   9.957  1.00  0.00     0.009 C 
BRANCH  22  23
ATOM     23  C   UNL     1       0.611   8.043  10.268  1.00  0.00    -0.026 A 
ATOM     24  C   UNL     1       1.573   7.591  11.144  1.00  0.00     0.009 A 
ATOM     25  C   UNL     1      -0.226   7.097   9.729  1.00  0.00     0.009 A 
ATOM     26  C   UNL     1       1.709   6.256  11.477  1.00  0.00     0.016 A 
ATOM     27  C   UNL     1      -0.097   5.742  10.060  1.00  0.00     0.016 A 
ATOM     28  C   UNL     1       0.868   5.310  10.934  1.00  0.00     0.018 A 
ATOM     29  Br  UNL     1       1.026   3.451  11.372  1.00  0.00    -0.051 Br
ENDBRANCH  22  23
ENDBRANCH  20  21
ENDBRANCH  17  20
ENDBRANCH   1  17
TORSDOF 8
ENDMDL
MODEL 9
REMARK VINA RESULT:      -7.6      2.185      3.401
REMARK SMILES O=S(=O)([N-]CC[NH2+]C/C=C/c1ccc(Br)cc1)c1cccc2cnccc12
REMARK SMILES IDX 6 1 5 2 4 3 2 4 1 5 3 6 18 7 19 8 27 9 20 10 26 11 22 12
REMARK SMILES IDX 21 13 25 14 23 15 24 16 7 17 8 20 9 21 10 22 11 23 12 24
REMARK SMILES IDX 17 25 13 26 16 27 14 28 15 29
REMARK H PARENT 7 18 7 19
ROOT
ATOM      1  C   UNL     1       0.396  13.392   8.004  1.00  0.00     0.238 C 
ENDROOT
BRANCH   1   2
ATOM      2  C   UNL     1      -0.577  13.502   6.854  1.00  0.00    -0.070 C 
BRANCH   2   3
ATOM      3  N   UNL     1      -0.002  12.953   5.645  1.00  0.00    -0.540 NA
BRANCH   3   4
ATOM      4  S   UNL     1      -1.148  11.868   4.869  1.00  0.00     0.102 S 
ATOM      5  O   UNL     1      -0.854  11.977   3.454  1.00  0.00    -0.244 OA
ATOM      6  O   UNL     1      -2.496  12.484   5.137  1.00  0.00    -0.244 OA
BRANCH   4   7
ATOM      7  C   UNL     1      -1.035  10.379   5.672  1.00  0.00     0.056 A 
ATOM      8  C   UNL     1       0.157   9.686   5.683  1.00  0.00     0.019 A 
ATOM      9  C   UNL     1      -2.107   9.816   6.327  1.00  0.00     0.002 A 
ATOM     10  C   UNL     1       0.245   8.467   6.339  1.00  0.00     0.002 A 
ATOM     11  C   UNL     1      -3.296  10.512   6.315  1.00  0.00     0.030 A 
ATOM     12  C   UNL     1      -2.047   8.592   6.995  1.00  0.00     0.001 A 
ATOM     13  C   UNL     1      -0.839   7.915   6.991  1.00  0.00     0.010 A 
ATOM     14  C   UNL     1      -4.378   9.983   6.956  1.00  0.00     0.111 A 
ATOM     15  C   UNL     1      -3.159   8.083   7.634  1.00  0.00     0.119 A 
ATOM     16  N   UNL     1      -4.288   8.804   7.588  1.00  0.00    -0.264 NA
ENDBRANCH   4   7
ENDBRANCH   3   4
ENDBRANCH   2   3
ENDBRANCH   1   2
BRANCH   1  17
ATOM     17  N   UNL     1       0.979  12.087   8.121  1.00  0.00    -0.344 N 
ATOM     18  H   UNL     1       1.008  11.625   7.207  1.00  0.00     0.346 HD
ATOM     19  H   UNL     1       1.938  12.187   8.531  1.00  0.00     0.346 HD
BRANCH  17  20
ATOM     20  C   UNL     1       0.200  11.335   9.081  1.00  0.00     0.289 C 
BRANCH  20  21
ATOM     21  C   UNL     1       0.901  10.158   9.602  1.00  0.00     0.034 C 
ATOM     22  C   UNL     1       0.207   9.119  10.031  1.00  0.00     0.009 C 
BRANCH  22  23
ATOM     23  C   UNL     1       0.789   7.896  10.569  1.00  0.00    -0.026 A 
ATOM     24  C   UNL     1       0.289   6.670  10.190  1.00  0.00     0.009 A 
ATOM     25  C   UNL     1       1.837   7.887  11.457  1.00  0.00     0.009 A 
ATOM     26  C   UNL     1       0.800   5.477  10.666  1.00  0.00     0.016 A 
ATOM     27  C   UNL     1       2.362   6.684  11.946  1.00  0.00     0.016 A 
ATOM     28  C   UNL     1       1.850   5.472  11.557  1.00  0.00     0.018 A 
ATOM     29  Br  UNL     1       2.586   3.838  12.239  1.00  0.00    -0.051 Br
ENDBRANCH  22  23
ENDBRANCH  20  21
ENDBRANCH  17  20
ENDBRANCH   1  17
TORSDOF 8
ENDMDL
