MODEL 1
REMARK VINA RESULT:      -4.0      0.000      0.000
REMARK SMILES O=C(CCC[NH+]1CCC(O)(c2ccc(Cl)cc2)CC1)c1ccc(F)cc1
REMARK SMILES IDX 4 1 3 2 2 3 1 4 20 5 21 6 26 7 22 8 25 9 23 10 24 11 5 12
REMARK SMILES IDX 6 13 7 14 19 15 8 16 18 17 9 18 10 20 11 22 12 23 17 24
REMARK SMILES IDX 13 25 16 26 14 27 15 28
REMARK H PARENT 6 19 10 21
ROOT
ATOM      1  C   UNL     1     -15.086  36.071  -3.112  1.00  0.00     0.070 C 
ENDROOT
BRANCH   1   2
ATOM      2  C   UNL     1     -13.827  35.676  -3.851  1.00  0.00     0.087 C 
BRANCH   2   3
ATOM      3  C   UNL     1     -13.249  34.402  -3.418  1.00  0.00     0.163 C 
ATOM      4  O   UNL     1     -13.482  33.331  -4.037  1.00  0.00    -0.294 OA
BRANCH   3   5
ATOM      5  C   UNL     1     -12.362  34.293  -2.241  1.00  0.00     0.018 A 
ATOM      6  C   UNL     1     -12.654  33.406  -1.221  1.00  0.00     0.015 A 
ATOM      7  C   UNL     1     -11.234  35.066  -2.132  1.00  0.00     0.015 A 
ATOM      8  C   UNL     1     -11.826  33.310  -0.128  1.00  0.00     0.040 A 
ATOM      9  C   UNL     1     -10.404  34.976  -1.047  1.00  0.00     0.040 A 
ATOM     10  C   UNL     1     -10.703  34.095  -0.044  1.00  0.00     0.123 A 
ATOM     11  F   UNL     1      -9.850  34.035   1.027  1.00  0.00    -0.207 F 
ENDBRANCH   3   5
ENDBRANCH   2   3
ENDBRANCH   1   2
BRANCH   1  12
ATOM     12  C   UNL     1     -15.871  34.837  -2.827  1.00  0.00     0.262 C 
BRANCH  12  13
ATOM     13  N   UNL     1     -17.192  34.854  -3.442  1.00  0.00    -0.335 N 
ATOM     14  C   UNL     1     -17.279  33.981  -4.573  1.00  0.00     0.265 C 
ATOM     15  C   UNL     1     -18.189  34.531  -2.474  1.00  0.00     0.265 C 
ATOM     16  C   UNL     1     -16.991  32.554  -4.194  1.00  0.00     0.102 C 
ATOM     17  C   UNL     1     -18.789  33.191  -2.553  1.00  0.00     0.102 C 
ATOM     18  C   UNL     1     -17.992  32.103  -3.172  1.00  0.00     0.100 C 
ATOM     19  H   UNL     1     -17.299  35.843  -3.818  1.00  0.00     0.348 HD
BRANCH  18  20
ATOM     20  O   UNL     1     -18.902  31.266  -3.862  1.00  0.00    -0.385 OA
ATOM     21  H   UNL     1     -19.727  31.233  -3.315  1.00  0.00     0.211 HD
ENDBRANCH  18  20
BRANCH  18  22
ATOM     22  C   UNL     1     -17.361  31.193  -2.151  1.00  0.00    -0.016 A 
ATOM     23  C   UNL     1     -15.993  31.077  -2.021  1.00  0.00     0.008 A 
ATOM     24  C   UNL     1     -18.105  30.422  -1.286  1.00  0.00     0.008 A 
ATOM     25  C   UNL     1     -15.377  30.258  -1.103  1.00  0.00     0.021 A 
ATOM     26  C   UNL     1     -17.510  29.593  -0.357  1.00  0.00     0.021 A 
ATOM     27  C   UNL     1     -16.146  29.512  -0.266  1.00  0.00     0.041 A 
ATOM     28  Cl  UNL     1     -15.384  28.466   0.909  1.00  0.00    -0.084 Cl
ENDBRANCH  18  22
ENDBRANCH  12  13
ENDBRANCH   1  12
TORSDOF 7
ENDMDL
MODEL 2
REMARK VINA RESULT:      -4.0      3.374      5.207
REMARK SMILES O=C(CCC[NH+]1CCC(O)(c2ccc(Cl)cc2)CC1)c1ccc(F)cc1
REMARK SMILES IDX 4 1 3 2 2 3 1 4 20 5 21 6 26 7 22 8 25 9 23 10 24 11 5 12
REMARK SMILES IDX 6 13 7 14 19 15 8 16 18 17 9 18 10 20 11 22 12 23 17 24
REMARK SMILES IDX 13 25 16 26 14 27 15 28
REMARK H PARENT 6 19 10 21
ROOT
ATOM      1  C   UNL     1     -14.861  32.279   1.835  1.00  0.00     0.070 C 
ENDROOT
BRANCH   1   2
ATOM      2  C   UNL     1     -15.999  33.263   1.991  1.00  0.00     0.087 C 
BRANCH   2   3
ATOM      3  C   UNL     1     -16.261  34.076   0.802  1.00  0.00     0.163 C 
ATOM      4  O   UNL     1     -17.422  34.467   0.516  1.00  0.00    -0.294 OA
BRANCH   3   5
ATOM      5  C   UNL     1     -15.189  34.486  -0.129  1.00  0.00     0.018 A 
ATOM      6  C   UNL     1     -15.379  35.546  -0.997  1.00  0.00     0.015 A 
ATOM      7  C   UNL     1     -13.985  33.830  -0.153  1.00  0.00     0.015 A 
ATOM      8  C   UNL     1     -14.378  35.922  -1.861  1.00  0.00     0.040 A 
ATOM      9  C   UNL     1     -12.982  34.199  -1.010  1.00  0.00     0.040 A 
ATOM     10  C   UNL     1     -13.183  35.249  -1.864  1.00  0.00     0.123 A 
ATOM     11  F   UNL     1     -12.157  35.587  -2.709  1.00  0.00    -0.207 F 
ENDBRANCH   3   5
ENDBRANCH   2   3
ENDBRANCH   1   2
BRANCH   1  12
ATOM     12  C   UNL     1     -15.428  30.901   1.836  1.00  0.00     0.262 C 
BRANCH  12  13
ATOM     13  N   UNL     1     -14.460  29.894   1.420  1.00  0.00    -0.335 N 
ATOM     14  C   UNL     1     -15.072  28.797   0.734  1.00  0.00     0.265 C 
ATOM     15  C   UNL     1     -13.444  30.492   0.616  1.00  0.00     0.265 C 
ATOM     16  C   UNL     1     -15.790  29.253  -0.507  1.00  0.00     0.102 C 
ATOM     17  C   UNL     1     -13.493  30.228  -0.829  1.00  0.00     0.102 C 
ATOM     18  C   UNL     1     -14.808  29.901  -1.436  1.00  0.00     0.100 C 
ATOM     19  H   UNL     1     -14.075  29.501   2.330  1.00  0.00     0.348 HD
BRANCH  18  20
ATOM     20  O   UNL     1     -14.565  28.957  -2.464  1.00  0.00    -0.385 OA
ATOM     21  H   UNL     1     -14.036  29.425  -3.158  1.00  0.00     0.211 HD
ENDBRANCH  18  20
BRANCH  18  22
ATOM     22  C   UNL     1     -15.424  31.073  -2.154  1.00  0.00    -0.016 A 
ATOM     23  C   UNL     1     -16.693  31.527  -1.860  1.00  0.00     0.008 A 
ATOM     24  C   UNL     1     -14.764  31.763  -3.146  1.00  0.00     0.008 A 
ATOM     25  C   UNL     1     -17.292  32.592  -2.492  1.00  0.00     0.021 A 
ATOM     26  C   UNL     1     -15.345  32.835  -3.795  1.00  0.00     0.021 A 
ATOM     27  C   UNL     1     -16.607  33.249  -3.467  1.00  0.00     0.041 A 
ATOM     28  Cl  UNL     1     -17.349  34.605  -4.281  1.00  0.00    -0.084 Cl
ENDBRANCH  18  22
ENDBRANCH  12  13
ENDBRANCH   1  12
TORSDOF 7
ENDMDL
MODEL 3
REMARK VINA RESULT:      -4.0      3.057      5.736
REMARK SMILES O=C(CCC[NH+]1CCC(O)(c2ccc(Cl)cc2)CC1)c1ccc(F)cc1
REMARK SMILES IDX 4 1 3 2 2 3 1 4 20 5 21 6 26 7 22 8 25 9 23 10 24 11 5 12
REMARK SMILES IDX 6 13 7 14 19 15 8 16 18 17 9 18 10 20 11 22 12 23 17 24
REMARK SMILES IDX 13 25 16 26 14 27 15 28
REMARK H PARENT 6 19 10 21
ROOT
ATOM      1  C   UNL     1     -17.504  33.674  -0.243  1.00  0.00     0.070 C 
ENDROOT
BRANCH   1   2
ATOM      2  C   UNL     1     -18.222  32.382  -0.566  1.00  0.00     0.087 C 
BRANCH   2   3
ATOM      3  C   UNL     1     -17.558  31.561  -1.581  1.00  0.00     0.163 C 
ATOM      4  O   UNL     1     -17.820  31.690  -2.804  1.00  0.00    -0.294 OA
BRANCH   3   5
ATOM      5  C   UNL     1     -16.547  30.539  -1.236  1.00  0.00     0.018 A 
ATOM      6  C   UNL     1     -16.828  29.561  -0.299  1.00  0.00     0.015 A 
ATOM      7  C   UNL     1     -15.312  30.537  -1.833  1.00  0.00     0.015 A 
ATOM      8  C   UNL     1     -15.883  28.614   0.018  1.00  0.00     0.040 A 
ATOM      9  C   UNL     1     -14.366  29.597  -1.524  1.00  0.00     0.040 A 
ATOM     10  C   UNL     1     -14.656  28.634  -0.595  1.00  0.00     0.123 A 
ATOM     11  F   UNL     1     -13.682  27.712  -0.310  1.00  0.00    -0.207 F 
ENDBRANCH   3   5
ENDBRANCH   2   3
ENDBRANCH   1   2
BRANCH   1  12
ATOM     12  C   UNL     1     -16.332  33.358   0.621  1.00  0.00     0.262 C 
BRANCH  12  13
ATOM     13  N   UNL     1     -15.500  34.524   0.889  1.00  0.00    -0.335 N 
ATOM     14  C   UNL     1     -14.110  34.268   0.663  1.00  0.00     0.265 C 
ATOM     15  C   UNL     1     -15.944  35.634   0.111  1.00  0.00     0.265 C 
ATOM     16  C   UNL     1     -13.847  33.861  -0.761  1.00  0.00     0.102 C 
ATOM     17  C   UNL     1     -15.119  36.014  -1.045  1.00  0.00     0.102 C 
ATOM     18  C   UNL     1     -14.278  34.967  -1.677  1.00  0.00     0.100 C 
ATOM     19  H   UNL     1     -15.607  34.694   1.934  1.00  0.00     0.348 HD
BRANCH  18  20
ATOM     20  O   UNL     1     -13.086  35.600  -2.109  1.00  0.00    -0.385 OA
ATOM     21  H   UNL     1     -12.550  35.778  -1.296  1.00  0.00     0.211 HD
ENDBRANCH  18  20
BRANCH  18  22
ATOM     22  C   UNL     1     -14.883  34.424  -2.945  1.00  0.00    -0.016 A 
ATOM     23  C   UNL     1     -14.277  33.420  -3.673  1.00  0.00     0.008 A 
ATOM     24  C   UNL     1     -16.073  34.891  -3.457  1.00  0.00     0.008 A 
ATOM     25  C   UNL     1     -14.796  32.896  -4.835  1.00  0.00     0.021 A 
ATOM     26  C   UNL     1     -16.613  34.381  -4.621  1.00  0.00     0.021 A 
ATOM     27  C   UNL     1     -15.974  33.385  -5.309  1.00  0.00     0.041 A 
ATOM     28  Cl  UNL     1     -16.651  32.732  -6.782  1.00  0.00    -0.084 Cl
ENDBRANCH  18  22
ENDBRANCH  12  13
ENDBRANCH   1  12
TORSDOF 7
ENDMDL
MODEL 4
REMARK VINA RESULT:      -3.6      3.260      5.094
REMARK SMILES O=C(CCC[NH+]1CCC(O)(c2ccc(Cl)cc2)CC1)c1ccc(F)cc1
REMARK SMILES IDX 4 1 3 2 2 3 1 4 20 5 21 6 26 7 22 8 25 9 23 10 24 11 5 12
REMARK SMILES IDX 6 13 7 14 19 15 8 16 18 17 9 18 10 20 11 22 12 23 17 24
REMARK SMILES IDX 13 25 16 26 14 27 15 28
REMARK H PARENT 6 19 10 21
ROOT
ATOM      1  C   UNL     1     -15.523  28.393   0.097  1.00  0.00     0.070 C 
ENDROOT
BRANCH   1   2
ATOM      2  C   UNL     1     -14.276  29.138  -0.326  1.00  0.00     0.087 C 
BRANCH   2   3
ATOM      3  C   UNL     1     -13.711  30.004   0.711  1.00  0.00     0.163 C 
ATOM      4  O   UNL     1     -13.306  29.539   1.807  1.00  0.00    -0.294 OA
BRANCH   3   5
ATOM      5  C   UNL     1     -13.581  31.466   0.536  1.00  0.00     0.018 A 
ATOM      6  C   UNL     1     -14.300  32.336   1.336  1.00  0.00     0.015 A 
ATOM      7  C   UNL     1     -12.748  31.992  -0.418  1.00  0.00     0.015 A 
ATOM      8  C   UNL     1     -14.175  33.694   1.168  1.00  0.00     0.040 A 
ATOM      9  C   UNL     1     -12.617  33.344  -0.591  1.00  0.00     0.040 A 
ATOM     10  C   UNL     1     -13.334  34.195   0.206  1.00  0.00     0.123 A 
ATOM     11  F   UNL     1     -13.179  35.541   0.002  1.00  0.00    -0.207 F 
ENDBRANCH   3   5
ENDBRANCH   2   3
ENDBRANCH   1   2
BRANCH   1  12
ATOM     12  C   UNL     1     -16.273  29.241   1.065  1.00  0.00     0.262 C 
BRANCH  12  13
ATOM     13  N   UNL     1     -17.700  28.949   1.084  1.00  0.00    -0.335 N 
ATOM     14  C   UNL     1     -18.483  30.070   1.507  1.00  0.00     0.265 C 
ATOM     15  C   UNL     1     -18.124  28.491  -0.200  1.00  0.00     0.265 C 
ATOM     16  C   UNL     1     -18.290  31.254   0.600  1.00  0.00     0.102 C 
ATOM     17  C   UNL     1     -18.900  29.430  -1.022  1.00  0.00     0.102 C 
ATOM     18  C   UNL     1     -18.711  30.884  -0.790  1.00  0.00     0.100 C 
ATOM     19  H   UNL     1     -17.811  28.204   1.835  1.00  0.00     0.348 HD
BRANCH  18  20
ATOM     20  O   UNL     1     -19.970  31.501  -0.992  1.00  0.00    -0.385 OA
ATOM     21  H   UNL     1     -20.233  31.307  -1.927  1.00  0.00     0.211 HD
ENDBRANCH  18  20
BRANCH  18  22
ATOM     22  C   UNL     1     -17.821  31.525  -1.822  1.00  0.00    -0.016 A 
ATOM     23  C   UNL     1     -18.271  31.832  -3.089  1.00  0.00     0.008 A 
ATOM     24  C   UNL     1     -16.505  31.845  -1.568  1.00  0.00     0.008 A 
ATOM     25  C   UNL     1     -17.490  32.417  -4.059  1.00  0.00     0.021 A 
ATOM     26  C   UNL     1     -15.702  32.432  -2.526  1.00  0.00     0.021 A 
ATOM     27  C   UNL     1     -16.196  32.718  -3.770  1.00  0.00     0.041 A 
ATOM     28  Cl  UNL     1     -15.188  33.463  -4.987  1.00  0.00    -0.084 Cl
ENDBRANCH  18  22
ENDBRANCH  12  13
ENDBRANCH   1  12
TORSDOF 7
ENDMDL
MODEL 5
REMARK VINA RESULT:      -3.6      3.070      5.550
REMARK SMILES O=C(CCC[NH+]1CCC(O)(c2ccc(Cl)cc2)CC1)c1ccc(F)cc1
REMARK SMILES IDX 4 1 3 2 2 3 1 4 20 5 21 6 26 7 22 8 25 9 23 10 24 11 5 12
REMARK SMILES IDX 6 13 7 14 19 15 8 16 18 17 9 18 10 20 11 22 12 23 17 24
REMARK SMILES IDX 13 25 16 26 14 27 15 28
REMARK H PARENT 6 19 10 21
ROOT
ATOM      1  C   UNL     1     -14.374  35.008  -2.866  1.00  0.00     0.070 C 
ENDROOT
BRANCH   1   2
ATOM      2  C   UNL     1     -15.117  34.174  -3.886  1.00  0.00     0.087 C 
BRANCH   2   3
ATOM      3  C   UNL     1     -15.687  32.936  -3.351  1.00  0.00     0.163 C 
ATOM      4  O   UNL     1     -15.287  31.808  -3.738  1.00  0.00    -0.294 OA
BRANCH   3   5
ATOM      5  C   UNL     1     -16.758  32.932  -2.332  1.00  0.00     0.018 A 
ATOM      6  C   UNL     1     -16.716  32.044  -1.272  1.00  0.00     0.015 A 
ATOM      7  C   UNL     1     -17.813  33.805  -2.411  1.00  0.00     0.015 A 
ATOM      8  C   UNL     1     -17.715  32.046  -0.328  1.00  0.00     0.040 A 
ATOM      9  C   UNL     1     -18.811  33.813  -1.475  1.00  0.00     0.040 A 
ATOM     10  C   UNL     1     -18.758  32.930  -0.431  1.00  0.00     0.123 A 
ATOM     11  F   UNL     1     -19.777  32.966   0.485  1.00  0.00    -0.207 F 
ENDBRANCH   3   5
ENDBRANCH   2   3
ENDBRANCH   1   2
BRANCH   1  12
ATOM     12  C   UNL     1     -13.096  34.317  -2.535  1.00  0.00     0.262 C 
BRANCH  12  13
ATOM     13  N   UNL     1     -12.383  34.949  -1.432  1.00  0.00    -0.335 N 
ATOM     14  C   UNL     1     -13.243  35.258  -0.330  1.00  0.00     0.265 C 
ATOM     15  C   UNL     1     -11.298  34.124  -1.011  1.00  0.00     0.265 C 
ATOM     16  C   UNL     1     -13.899  34.023   0.222  1.00  0.00     0.102 C 
ATOM     17  C   UNL     1     -11.462  33.395   0.255  1.00  0.00     0.102 C 
ATOM     18  C   UNL     1     -12.841  33.075   0.703  1.00  0.00     0.100 C 
ATOM     19  H   UNL     1     -12.053  35.881  -1.825  1.00  0.00     0.348 HD
BRANCH  18  20
ATOM     20  O   UNL     1     -12.847  33.169   2.116  1.00  0.00    -0.385 OA
ATOM     21  H   UNL     1     -12.551  34.086   2.340  1.00  0.00     0.211 HD
ENDBRANCH  18  20
BRANCH  18  22
ATOM     22  C   UNL     1     -13.222  31.644   0.429  1.00  0.00    -0.016 A 
ATOM     23  C   UNL     1     -13.346  31.152  -0.853  1.00  0.00     0.008 A 
ATOM     24  C   UNL     1     -13.471  30.739   1.437  1.00  0.00     0.008 A 
ATOM     25  C   UNL     1     -13.692  29.852  -1.146  1.00  0.00     0.021 A 
ATOM     26  C   UNL     1     -13.821  29.430   1.168  1.00  0.00     0.021 A 
ATOM     27  C   UNL     1     -13.930  28.988  -0.123  1.00  0.00     0.041 A 
ATOM     28  Cl  UNL     1     -14.370  27.334  -0.472  1.00  0.00    -0.084 Cl
ENDBRANCH  18  22
ENDBRANCH  12  13
ENDBRANCH   1  12
TORSDOF 7
ENDMDL
MODEL 6
REMARK VINA RESULT:      -3.4      3.839      5.854
REMARK SMILES O=C(CCC[NH+]1CCC(O)(c2ccc(Cl)cc2)CC1)c1ccc(F)cc1
REMARK SMILES IDX 4 1 3 2 2 3 1 4 20 5 21 6 26 7 22 8 25 9 23 10 24 11 5 12
REMARK SMILES IDX 6 13 7 14 19 15 8 16 18 17 9 18 10 20 11 22 12 23 17 24
REMARK SMILES IDX 13 25 16 26 14 27 15 28
REMARK H PARENT 6 19 10 21
ROOT
ATOM      1  C   UNL     1     -14.332  30.158  -1.988  1.00  0.00     0.070 C 
ENDROOT
BRANCH   1   2
ATOM      2  C   UNL     1     -15.086  31.151  -2.845  1.00  0.00     0.087 C 
BRANCH   2   3
ATOM      3  C   UNL     1     -14.344  32.379  -3.138  1.00  0.00     0.163 C 
ATOM      4  O   UNL     1     -13.272  32.658  -2.541  1.00  0.00    -0.294 OA
BRANCH   3   5
ATOM      5  C   UNL     1     -14.803  33.360  -4.144  1.00  0.00     0.018 A 
ATOM      6  C   UNL     1     -15.878  33.073  -4.966  1.00  0.00     0.015 A 
ATOM      7  C   UNL     1     -14.177  34.572  -4.286  1.00  0.00     0.015 A 
ATOM      8  C   UNL     1     -16.299  33.990  -5.900  1.00  0.00     0.040 A 
ATOM      9  C   UNL     1     -14.590  35.490  -5.213  1.00  0.00     0.040 A 
ATOM     10  C   UNL     1     -15.655  35.195  -6.020  1.00  0.00     0.123 A 
ATOM     11  F   UNL     1     -16.038  36.138  -6.939  1.00  0.00    -0.207 F 
ENDBRANCH   3   5
ENDBRANCH   2   3
ENDBRANCH   1   2
BRANCH   1  12
ATOM     12  C   UNL     1     -13.330  30.903  -1.175  1.00  0.00     0.262 C 
BRANCH  12  13
ATOM     13  N   UNL     1     -13.535  30.741   0.258  1.00  0.00    -0.335 N 
ATOM     14  C   UNL     1     -12.978  31.820   1.016  1.00  0.00     0.265 C 
ATOM     15  C   UNL     1     -14.925  30.587   0.542  1.00  0.00     0.265 C 
ATOM     16  C   UNL     1     -13.590  33.139   0.633  1.00  0.00     0.102 C 
ATOM     17  C   UNL     1     -15.616  31.736   1.144  1.00  0.00     0.102 C 
ATOM     18  C   UNL     1     -15.066  33.092   0.894  1.00  0.00     0.100 C 
ATOM     19  H   UNL     1     -12.972  29.874   0.512  1.00  0.00     0.348 HD
BRANCH  18  20
ATOM     20  O   UNL     1     -15.276  33.846   2.075  1.00  0.00    -0.385 OA
ATOM     21  H   UNL     1     -14.608  34.577   2.065  1.00  0.00     0.211 HD
ENDBRANCH  18  20
BRANCH  18  22
ATOM     22  C   UNL     1     -15.834  33.844  -0.161  1.00  0.00    -0.016 A 
ATOM     23  C   UNL     1     -15.401  35.057  -0.655  1.00  0.00     0.008 A 
ATOM     24  C   UNL     1     -17.011  33.372  -0.698  1.00  0.00     0.008 A 
ATOM     25  C   UNL     1     -16.072  35.776  -1.618  1.00  0.00     0.021 A 
ATOM     26  C   UNL     1     -17.702  34.076  -1.665  1.00  0.00     0.021 A 
ATOM     27  C   UNL     1     -17.232  35.276  -2.124  1.00  0.00     0.041 A 
ATOM     28  Cl  UNL     1     -18.099  36.172  -3.348  1.00  0.00    -0.084 Cl
ENDBRANCH  18  22
ENDBRANCH  12  13
ENDBRANCH   1  12
TORSDOF 7
ENDMDL
MODEL 7
REMARK VINA RESULT:      -3.3      3.646      6.343
REMARK SMILES O=C(CCC[NH+]1CCC(O)(c2ccc(Cl)cc2)CC1)c1ccc(F)cc1
REMARK SMILES IDX 4 1 3 2 2 3 1 4 20 5 21 6 26 7 22 8 25 9 23 10 24 11 5 12
REMARK SMILES IDX 6 13 7 14 19 15 8 16 18 17 9 18 10 20 11 22 12 23 17 24
REMARK SMILES IDX 13 25 16 26 14 27 15 28
REMARK H PARENT 6 19 10 21
ROOT
ATOM      1  C   UNL     1     -15.691  30.307  -1.637  1.00  0.00     0.070 C 
ENDROOT
BRANCH   1   2
ATOM      2  C   UNL     1     -16.905  30.322  -0.734  1.00  0.00     0.087 C 
BRANCH   2   3
ATOM      3  C   UNL     1     -16.659  29.808   0.615  1.00  0.00     0.163 C 
ATOM      4  O   UNL     1     -17.553  29.832   1.500  1.00  0.00    -0.294 OA
BRANCH   3   5
ATOM      5  C   UNL     1     -15.359  29.233   1.019  1.00  0.00     0.018 A 
ATOM      6  C   UNL     1     -14.493  29.951   1.824  1.00  0.00     0.015 A 
ATOM      7  C   UNL     1     -14.982  27.980   0.607  1.00  0.00     0.015 A 
ATOM      8  C   UNL     1     -13.285  29.410   2.195  1.00  0.00     0.040 A 
ATOM      9  C   UNL     1     -13.781  27.434   0.974  1.00  0.00     0.040 A 
ATOM     10  C   UNL     1     -12.933  28.154   1.770  1.00  0.00     0.123 A 
ATOM     11  F   UNL     1     -11.738  27.576   2.114  1.00  0.00    -0.207 F 
ENDBRANCH   3   5
ENDBRANCH   2   3
ENDBRANCH   1   2
BRANCH   1  12
ATOM     12  C   UNL     1     -15.758  31.493  -2.537  1.00  0.00     0.262 C 
BRANCH  12  13
ATOM     13  N   UNL     1     -14.946  32.606  -2.063  1.00  0.00    -0.335 N 
ATOM     14  C   UNL     1     -13.877  32.923  -2.960  1.00  0.00     0.265 C 
ATOM     15  C   UNL     1     -15.768  33.749  -1.830  1.00  0.00     0.265 C 
ATOM     16  C   UNL     1     -14.391  33.304  -4.321  1.00  0.00     0.102 C 
ATOM     17  C   UNL     1     -15.687  34.842  -2.810  1.00  0.00     0.102 C 
ATOM     18  C   UNL     1     -15.274  34.509  -4.196  1.00  0.00     0.100 C 
ATOM     19  H   UNL     1     -14.492  32.246  -1.171  1.00  0.00     0.348 HD
BRANCH  18  20
ATOM     20  O   UNL     1     -14.509  35.602  -4.672  1.00  0.00    -0.385 OA
ATOM     21  H   UNL     1     -13.702  35.652  -4.101  1.00  0.00     0.211 HD
ENDBRANCH  18  20
BRANCH  18  22
ATOM     22  C   UNL     1     -16.439  34.437  -5.148  1.00  0.00    -0.016 A 
ATOM     23  C   UNL     1     -17.121  33.261  -5.381  1.00  0.00     0.008 A 
ATOM     24  C   UNL     1     -16.896  35.534  -5.844  1.00  0.00     0.008 A 
ATOM     25  C   UNL     1     -18.189  33.152  -6.242  1.00  0.00     0.021 A 
ATOM     26  C   UNL     1     -17.965  35.449  -6.713  1.00  0.00     0.021 A 
ATOM     27  C   UNL     1     -18.611  34.258  -6.911  1.00  0.00     0.041 A 
ATOM     28  Cl  UNL     1     -19.966  34.142  -8.008  1.00  0.00    -0.084 Cl
ENDBRANCH  18  22
ENDBRANCH  12  13
ENDBRANCH   1  12
TORSDOF 7
ENDMDL
MODEL 8
REMARK VINA RESULT:      -3.3      3.514      6.206
REMARK SMILES O=C(CCC[NH+]1CCC(O)(c2ccc(Cl)cc2)CC1)c1ccc(F)cc1
REMARK SMILES IDX 4 1 3 2 2 3 1 4 20 5 21 6 26 7 22 8 25 9 23 10 24 11 5 12
REMARK SMILES IDX 6 13 7 14 19 15 8 16 18 17 9 18 10 20 11 22 12 23 17 24
REMARK SMILES IDX 13 25 16 26 14 27 15 28
REMARK H PARENT 6 19 10 21
ROOT
ATOM      1  C   UNL     1     -17.221  31.482  -0.983  1.00  0.00     0.070 C 
ENDROOT
BRANCH   1   2
ATOM      2  C   UNL     1     -17.440  30.123  -0.357  1.00  0.00     0.087 C 
BRANCH   2   3
ATOM      3  C   UNL     1     -16.593  29.851   0.807  1.00  0.00     0.163 C 
ATOM      4  O   UNL     1     -16.859  30.332   1.939  1.00  0.00    -0.294 OA
BRANCH   3   5
ATOM      5  C   UNL     1     -15.386  29.003   0.727  1.00  0.00     0.018 A 
ATOM      6  C   UNL     1     -15.254  28.061  -0.277  1.00  0.00     0.015 A 
ATOM      7  C   UNL     1     -14.371  29.130   1.642  1.00  0.00     0.015 A 
ATOM      8  C   UNL     1     -14.128  27.275  -0.345  1.00  0.00     0.040 A 
ATOM      9  C   UNL     1     -13.247  28.351   1.580  1.00  0.00     0.040 A 
ATOM     10  C   UNL     1     -13.129  27.422   0.582  1.00  0.00     0.123 A 
ATOM     11  F   UNL     1     -11.990  26.660   0.555  1.00  0.00    -0.207 F 
ENDBRANCH   3   5
ENDBRANCH   2   3
ENDBRANCH   1   2
BRANCH   1  12
ATOM     12  C   UNL     1     -15.755  31.744  -1.038  1.00  0.00     0.262 C 
BRANCH  12  13
ATOM     13  N   UNL     1     -15.377  32.977  -0.360  1.00  0.00    -0.335 N 
ATOM     14  C   UNL     1     -14.159  33.531  -0.871  1.00  0.00     0.265 C 
ATOM     15  C   UNL     1     -16.438  33.927  -0.441  1.00  0.00     0.265 C 
ATOM     16  C   UNL     1     -14.270  33.852  -2.336  1.00  0.00     0.102 C 
ATOM     17  C   UNL     1     -16.263  35.050  -1.374  1.00  0.00     0.102 C 
ATOM     18  C   UNL     1     -15.365  34.855  -2.540  1.00  0.00     0.100 C 
ATOM     19  H   UNL     1     -15.175  32.681   0.641  1.00  0.00     0.348 HD
BRANCH  18  20
ATOM     20  O   UNL     1     -14.720  36.094  -2.774  1.00  0.00    -0.385 OA
ATOM     21  H   UNL     1     -15.040  36.717  -2.075  1.00  0.00     0.211 HD
ENDBRANCH  18  20
BRANCH  18  22
ATOM     22  C   UNL     1     -16.121  34.590  -3.816  1.00  0.00    -0.016 A 
ATOM     23  C   UNL     1     -15.627  34.962  -5.049  1.00  0.00     0.008 A 
ATOM     24  C   UNL     1     -17.347  33.962  -3.833  1.00  0.00     0.008 A 
ATOM     25  C   UNL     1     -16.285  34.738  -6.237  1.00  0.00     0.021 A 
ATOM     26  C   UNL     1     -18.026  33.728  -5.013  1.00  0.00     0.021 A 
ATOM     27  C   UNL     1     -17.494  34.115  -6.213  1.00  0.00     0.041 A 
ATOM     28  Cl  UNL     1     -18.345  33.821  -7.710  1.00  0.00    -0.084 Cl
ENDBRANCH  18  22
ENDBRANCH  12  13
ENDBRANCH   1  12
TORSDOF 7
ENDMDL
MODEL 9
REMARK VINA RESULT:      -3.2      3.030      5.891
REMARK SMILES O=C(CCC[NH+]1CCC(O)(c2ccc(Cl)cc2)CC1)c1ccc(F)cc1
REMARK SMILES IDX 4 1 3 2 2 3 1 4 20 5 21 6 26 7 22 8 25 9 23 10 24 11 5 12
REMARK SMILES IDX 6 13 7 14 19 15 8 16 18 17 9 18 10 20 11 22 12 23 17 24
REMARK SMILES IDX 13 25 16 26 14 27 15 28
REMARK H PARENT 6 19 10 21
ROOT
ATOM      1  C   UNL     1     -18.202  32.587  -3.947  1.00  0.00     0.070 C 
ENDROOT
BRANCH   1   2
ATOM      2  C   UNL     1     -19.134  31.419  -3.717  1.00  0.00     0.087 C 
BRANCH   2   3
ATOM      3  C   UNL     1     -19.064  30.849  -2.369  1.00  0.00     0.163 C 
ATOM      4  O   UNL     1     -19.970  30.095  -1.927  1.00  0.00    -0.294 OA
BRANCH   3   5
ATOM      5  C   UNL     1     -17.936  31.118  -1.453  1.00  0.00     0.018 A 
ATOM      6  C   UNL     1     -17.215  30.074  -0.900  1.00  0.00     0.015 A 
ATOM      7  C   UNL     1     -17.579  32.402  -1.130  1.00  0.00     0.015 A 
ATOM      8  C   UNL     1     -16.168  30.332  -0.048  1.00  0.00     0.040 A 
ATOM      9  C   UNL     1     -16.536  32.666  -0.283  1.00  0.00     0.040 A 
ATOM     10  C   UNL     1     -15.831  31.626   0.257  1.00  0.00     0.123 A 
ATOM     11  F   UNL     1     -14.796  31.930   1.103  1.00  0.00    -0.207 F 
ENDBRANCH   3   5
ENDBRANCH   2   3
ENDBRANCH   1   2
BRANCH   1  12
ATOM     12  C   UNL     1     -18.997  33.724  -4.490  1.00  0.00     0.262 C 
BRANCH  12  13
ATOM     13  N   UNL     1     -18.919  33.825  -5.942  1.00  0.00    -0.335 N 
ATOM     14  C   UNL     1     -18.937  35.181  -6.398  1.00  0.00     0.265 C 
ATOM     15  C   UNL     1     -17.758  33.146  -6.419  1.00  0.00     0.265 C 
ATOM     16  C   UNL     1     -17.782  35.968  -5.841  1.00  0.00     0.102 C 
ATOM     17  C   UNL     1     -16.631  33.978  -6.864  1.00  0.00     0.102 C 
ATOM     18  C   UNL     1     -16.496  35.338  -6.286  1.00  0.00     0.100 C 
ATOM     19  H   UNL     1     -19.819  33.379  -6.290  1.00  0.00     0.348 HD
BRANCH  18  20
ATOM     20  O   UNL     1     -15.990  36.173  -7.312  1.00  0.00    -0.385 OA
ATOM     21  H   UNL     1     -15.908  35.610  -8.121  1.00  0.00     0.211 HD
ENDBRANCH  18  20
BRANCH  18  22
ATOM     22  C   UNL     1     -15.449  35.410  -5.206  1.00  0.00    -0.016 A 
ATOM     23  C   UNL     1     -14.259  36.084  -5.385  1.00  0.00     0.008 A 
ATOM     24  C   UNL     1     -15.610  34.809  -3.977  1.00  0.00     0.008 A 
ATOM     25  C   UNL     1     -13.276  36.173  -4.425  1.00  0.00     0.021 A 
ATOM     26  C   UNL     1     -14.639  34.884  -2.999  1.00  0.00     0.021 A 
ATOM     27  C   UNL     1     -13.473  35.566  -3.223  1.00  0.00     0.041 A 
ATOM     28  Cl  UNL     1     -12.239  35.667  -1.990  1.00  0.00    -0.084 Cl
ENDBRANCH  18  22
ENDBRANCH  12  13
ENDBRANCH   1  12
TORSDOF 7
ENDMDL
