MODEL 1
REMARK VINA RESULT:      -3.2      0.000      0.000
REMARK SMILES O=C1NCN(c2ccccc2)C12CC[NH+](CCCC(c1ccc(F)cc1)c1ccc(F)cc1)CC2
REMARK SMILES IDX 17 1 16 2 15 3 1 4 2 5 3 6 12 7 4 8 5 9 13 10 35 11 14 12
REMARK SMILES IDX 34 13 6 16 7 17 11 18 8 19 10 20 9 21 18 22 19 23 20 24
REMARK SMILES IDX 21 25 26 26 22 27 25 28 23 29 24 30 27 31 28 32 33 33 29 34
REMARK SMILES IDX 32 35 30 36 31 37
REMARK H PARENT 3 14 15 15
ROOT
ATOM      1  C   UNL     1     -17.247  31.322   1.015  1.00  0.00     0.062 C 
ENDROOT
BRANCH   1   2
ATOM      2  C   UNL     1     -17.919  32.658   0.895  1.00  0.00     0.262 C 
BRANCH   2   3
ATOM      3  N   UNL     1     -17.726  33.199  -0.446  1.00  0.00    -0.335 N 
ATOM      4  O   UNL     1     -18.743  33.254  -3.510  1.00  0.00    -0.272 OA
ATOM      5  C   UNL     1     -17.672  33.824  -3.806  1.00  0.00     0.247 C 
ATOM      6  N   UNL     1     -17.317  34.217  -5.109  1.00  0.00    -0.336 N 
ATOM      7  C   UNL     1     -16.576  34.192  -2.832  1.00  0.00     0.131 C 
ATOM      8  C   UNL     1     -16.297  35.207  -4.963  1.00  0.00     0.238 C 
ATOM      9  N   UNL     1     -15.606  34.826  -3.721  1.00  0.00    -0.339 N 
ATOM     10  C   UNL     1     -16.037  32.921  -2.208  1.00  0.00     0.100 C 
ATOM     11  C   UNL     1     -17.161  35.109  -1.819  1.00  0.00     0.100 C 
ATOM     12  C   UNL     1     -17.072  32.257  -1.330  1.00  0.00     0.265 C 
ATOM     13  C   UNL     1     -17.090  34.490  -0.461  1.00  0.00     0.265 C 
ATOM     14  H   UNL     1     -17.738  33.839  -6.001  1.00  0.00     0.165 HD
ATOM     15  H   UNL     1     -18.695  33.329  -0.808  1.00  0.00     0.348 HD
BRANCH   9  16
ATOM     16  C   UNL     1     -14.221  35.073  -3.548  1.00  0.00     0.039 A 
ATOM     17  C   UNL     1     -13.417  35.391  -4.618  1.00  0.00     0.026 A 
ATOM     18  C   UNL     1     -13.676  35.018  -2.302  1.00  0.00     0.026 A 
ATOM     19  C   UNL     1     -12.054  35.656  -4.456  1.00  0.00     0.002 A 
ATOM     20  C   UNL     1     -12.345  35.274  -2.122  1.00  0.00     0.002 A 
ATOM     21  C   UNL     1     -11.534  35.591  -3.181  1.00  0.00     0.000 A 
ENDBRANCH   9  16
ENDBRANCH   2   3
ENDBRANCH   1   2
BRANCH   1  22
ATOM     22  C   UNL     1     -15.884  31.306   1.559  1.00  0.00     0.019 C 
BRANCH  22  23
ATOM     23  C   UNL     1     -14.718  30.959   0.757  1.00  0.00     0.049 C 
BRANCH  23  24
ATOM     24  C   UNL     1     -13.536  31.883   0.892  1.00  0.00    -0.040 A 
ATOM     25  C   UNL     1     -13.495  32.670   2.022  1.00  0.00     0.007 A 
ATOM     26  C   UNL     1     -12.555  31.971  -0.058  1.00  0.00     0.007 A 
ATOM     27  C   UNL     1     -12.463  33.556   2.207  1.00  0.00     0.039 A 
ATOM     28  C   UNL     1     -11.527  32.855   0.130  1.00  0.00     0.039 A 
ATOM     29  C   UNL     1     -11.461  33.666   1.269  1.00  0.00     0.123 A 
ATOM     30  F   UNL     1     -10.446  34.545   1.463  1.00  0.00    -0.207 F 
ENDBRANCH  23  24
BRANCH  23  31
ATOM     31  C   UNL     1     -14.279  29.578   0.641  1.00  0.00    -0.040 A 
ATOM     32  C   UNL     1     -13.121  29.044   1.131  1.00  0.00     0.007 A 
ATOM     33  C   UNL     1     -15.143  28.732  -0.066  1.00  0.00     0.007 A 
ATOM     34  C   UNL     1     -12.852  27.689   0.906  1.00  0.00     0.039 A 
ATOM     35  C   UNL     1     -14.894  27.416  -0.290  1.00  0.00     0.039 A 
ATOM     36  C   UNL     1     -13.724  26.892   0.208  1.00  0.00     0.123 A 
ATOM     37  F   UNL     1     -13.488  25.573  -0.024  1.00  0.00    -0.207 F 
ENDBRANCH  23  31
ENDBRANCH  22  23
ENDBRANCH   1  22
TORSDOF 7
ENDMDL
MODEL 2
REMARK VINA RESULT:      -2.8      3.613      6.234
REMARK SMILES O=C1NCN(c2ccccc2)C12CC[NH+](CCCC(c1ccc(F)cc1)c1ccc(F)cc1)CC2
REMARK SMILES IDX 17 1 16 2 15 3 1 4 2 5 3 6 12 7 4 8 5 9 13 10 35 11 14 12
REMARK SMILES IDX 34 13 6 16 7 17 11 18 8 19 10 20 9 21 18 22 19 23 20 24
REMARK SMILES IDX 21 25 26 26 22 27 25 28 23 29 24 30 27 31 28 32 33 33 29 34
REMARK SMILES IDX 32 35 30 36 31 37
REMARK H PARENT 3 14 15 15
ROOT
ATOM      1  C   UNL     1     -12.607  33.701  -3.604  1.00  0.00     0.062 C 
ENDROOT
BRANCH   1   2
ATOM      2  C   UNL     1     -13.174  34.815  -4.435  1.00  0.00     0.262 C 
BRANCH   2   3
ATOM      3  N   UNL     1     -14.533  34.489  -4.853  1.00  0.00    -0.335 N 
ATOM      4  O   UNL     1     -16.973  35.149  -6.862  1.00  0.00    -0.272 OA
ATOM      5  C   UNL     1     -17.706  34.458  -6.124  1.00  0.00     0.247 C 
ATOM      6  N   UNL     1     -19.077  34.241  -6.347  1.00  0.00    -0.336 N 
ATOM      7  C   UNL     1     -17.260  33.738  -4.872  1.00  0.00     0.131 C 
ATOM      8  C   UNL     1     -19.424  33.075  -5.597  1.00  0.00     0.238 C 
ATOM      9  N   UNL     1     -18.506  33.105  -4.448  1.00  0.00    -0.339 N 
ATOM     10  C   UNL     1     -16.768  34.764  -3.871  1.00  0.00     0.100 C 
ATOM     11  C   UNL     1     -16.193  32.777  -5.259  1.00  0.00     0.100 C 
ATOM     12  C   UNL     1     -15.504  35.439  -4.352  1.00  0.00     0.265 C 
ATOM     13  C   UNL     1     -14.911  33.128  -4.578  1.00  0.00     0.265 C 
ATOM     14  H   UNL     1     -19.703  34.837  -6.954  1.00  0.00     0.165 HD
ATOM     15  H   UNL     1     -14.511  34.599  -5.890  1.00  0.00     0.348 HD
BRANCH   9  16
ATOM     16  C   UNL     1     -18.895  32.589  -3.186  1.00  0.00     0.039 A 
ATOM     17  C   UNL     1     -18.562  31.310  -2.809  1.00  0.00     0.026 A 
ATOM     18  C   UNL     1     -19.591  33.376  -2.320  1.00  0.00     0.026 A 
ATOM     19  C   UNL     1     -18.923  30.798  -1.559  1.00  0.00     0.002 A 
ATOM     20  C   UNL     1     -19.954  32.895  -1.093  1.00  0.00     0.002 A 
ATOM     21  C   UNL     1     -19.628  31.621  -0.707  1.00  0.00     0.000 A 
ENDBRANCH   9  16
ENDBRANCH   2   3
ENDBRANCH   1   2
BRANCH   1  22
ATOM     22  C   UNL     1     -13.130  33.551  -2.242  1.00  0.00     0.019 C 
BRANCH  22  23
ATOM     23  C   UNL     1     -13.238  34.666  -1.311  1.00  0.00     0.049 C 
BRANCH  23  24
ATOM     24  C   UNL     1     -14.560  34.795  -0.600  1.00  0.00    -0.040 A 
ATOM     25  C   UNL     1     -14.749  35.935   0.150  1.00  0.00     0.007 A 
ATOM     26  C   UNL     1     -15.529  33.830  -0.663  1.00  0.00     0.007 A 
ATOM     27  C   UNL     1     -15.917  36.115   0.847  1.00  0.00     0.039 A 
ATOM     28  C   UNL     1     -16.693  34.015   0.033  1.00  0.00     0.039 A 
ATOM     29  C   UNL     1     -16.910  35.164   0.803  1.00  0.00     0.123 A 
ATOM     30  F   UNL     1     -18.061  35.354   1.496  1.00  0.00    -0.207 F 
ENDBRANCH  23  24
BRANCH  23  31
ATOM     31  C   UNL     1     -12.141  34.999  -0.417  1.00  0.00    -0.040 A 
ATOM     32  C   UNL     1     -12.112  34.834   0.940  1.00  0.00     0.007 A 
ATOM     33  C   UNL     1     -11.015  35.560  -1.033  1.00  0.00     0.007 A 
ATOM     34  C   UNL     1     -10.970  35.232   1.645  1.00  0.00     0.039 A 
ATOM     35  C   UNL     1      -9.902  35.948  -0.360  1.00  0.00     0.039 A 
ATOM     36  C   UNL     1      -9.886  35.778   1.005  1.00  0.00     0.123 A 
ATOM     37  F   UNL     1      -8.765  36.171   1.667  1.00  0.00    -0.207 F 
ENDBRANCH  23  31
ENDBRANCH  22  23
ENDBRANCH   1  22
TORSDOF 7
ENDMDL
MODEL 3
REMARK VINA RESULT:      -1.8      2.499      4.066
REMARK SMILES O=C1NCN(c2ccccc2)C12CC[NH+](CCCC(c1ccc(F)cc1)c1ccc(F)cc1)CC2
REMARK SMILES IDX 17 1 16 2 15 3 1 4 2 5 3 6 12 7 4 8 5 9 13 10 35 11 14 12
REMARK SMILES IDX 34 13 6 16 7 17 11 18 8 19 10 20 9 21 18 22 19 23 20 24
REMARK SMILES IDX 21 25 26 26 22 27 25 28 23 29 24 30 27 31 28 32 33 33 29 34
REMARK SMILES IDX 32 35 30 36 31 37
REMARK H PARENT 3 14 15 15
ROOT
ATOM      1  C   UNL     1     -13.708  30.238  -2.149  1.00  0.00     0.062 C 
ENDROOT
BRANCH   1   2
ATOM      2  C   UNL     1     -15.195  30.082  -2.028  1.00  0.00     0.262 C 
BRANCH   2   3
ATOM      3  N   UNL     1     -15.851  31.375  -2.189  1.00  0.00    -0.335 N 
ATOM      4  O   UNL     1     -17.454  33.788  -0.762  1.00  0.00    -0.272 OA
ATOM      5  C   UNL     1     -17.757  34.198  -1.901  1.00  0.00     0.247 C 
ATOM      6  N   UNL     1     -18.546  35.335  -2.151  1.00  0.00    -0.336 N 
ATOM      7  C   UNL     1     -17.338  33.556  -3.204  1.00  0.00     0.131 C 
ATOM      8  C   UNL     1     -18.274  35.720  -3.500  1.00  0.00     0.238 C 
ATOM      9  N   UNL     1     -17.959  34.452  -4.176  1.00  0.00    -0.339 N 
ATOM     10  C   UNL     1     -17.916  32.156  -3.263  1.00  0.00     0.100 C 
ATOM     11  C   UNL     1     -15.852  33.550  -3.248  1.00  0.00     0.100 C 
ATOM     12  C   UNL     1     -17.294  31.259  -2.219  1.00  0.00     0.265 C 
ATOM     13  C   UNL     1     -15.343  32.146  -3.293  1.00  0.00     0.265 C 
ATOM     14  H   UNL     1     -19.199  35.793  -1.460  1.00  0.00     0.165 HD
ATOM     15  H   UNL     1     -15.609  31.891  -1.315  1.00  0.00     0.348 HD
BRANCH   9  16
ATOM     16  C   UNL     1     -18.275  34.253  -5.544  1.00  0.00     0.039 A 
ATOM     17  C   UNL     1     -19.581  34.204  -5.971  1.00  0.00     0.026 A 
ATOM     18  C   UNL     1     -17.273  34.130  -6.457  1.00  0.00     0.026 A 
ATOM     19  C   UNL     1     -19.903  34.029  -7.321  1.00  0.00     0.002 A 
ATOM     20  C   UNL     1     -17.566  33.957  -7.781  1.00  0.00     0.002 A 
ATOM     21  C   UNL     1     -18.864  33.907  -8.219  1.00  0.00     0.000 A 
ENDBRANCH   9  16
ENDBRANCH   2   3
ENDBRANCH   1   2
BRANCH   1  22
ATOM     22  C   UNL     1     -13.017  30.927  -1.053  1.00  0.00     0.019 C 
BRANCH  22  23
ATOM     23  C   UNL     1     -13.594  31.072   0.277  1.00  0.00     0.049 C 
BRANCH  23  24
ATOM     24  C   UNL     1     -14.082  32.453   0.628  1.00  0.00    -0.040 A 
ATOM     25  C   UNL     1     -14.780  32.579   1.808  1.00  0.00     0.007 A 
ATOM     26  C   UNL     1     -13.876  33.537  -0.183  1.00  0.00     0.007 A 
ATOM     27  C   UNL     1     -15.279  33.800   2.187  1.00  0.00     0.039 A 
ATOM     28  C   UNL     1     -14.374  34.753   0.199  1.00  0.00     0.039 A 
ATOM     29  C   UNL     1     -15.087  34.908   1.394  1.00  0.00     0.123 A 
ATOM     30  F   UNL     1     -15.585  36.111   1.779  1.00  0.00    -0.207 F 
ENDBRANCH  23  24
BRANCH  23  31
ATOM     31  C   UNL     1     -14.488  30.059   0.815  1.00  0.00    -0.040 A 
ATOM     32  C   UNL     1     -14.139  28.819   1.271  1.00  0.00     0.007 A 
ATOM     33  C   UNL     1     -15.844  30.410   0.843  1.00  0.00     0.007 A 
ATOM     34  C   UNL     1     -15.143  27.963   1.739  1.00  0.00     0.039 A 
ATOM     35  C   UNL     1     -16.826  29.590   1.296  1.00  0.00     0.039 A 
ATOM     36  C   UNL     1     -16.461  28.344   1.750  1.00  0.00     0.123 A 
ATOM     37  F   UNL     1     -17.455  27.532   2.201  1.00  0.00    -0.207 F 
ENDBRANCH  23  31
ENDBRANCH  22  23
ENDBRANCH   1  22
TORSDOF 7
ENDMDL
MODEL 4
REMARK VINA RESULT:      -1.7      3.183      5.864
REMARK SMILES O=C1NCN(c2ccccc2)C12CC[NH+](CCCC(c1ccc(F)cc1)c1ccc(F)cc1)CC2
REMARK SMILES IDX 17 1 16 2 15 3 1 4 2 5 3 6 12 7 4 8 5 9 13 10 35 11 14 12
REMARK SMILES IDX 34 13 6 16 7 17 11 18 8 19 10 20 9 21 18 22 19 23 20 24
REMARK SMILES IDX 21 25 26 26 22 27 25 28 23 29 24 30 27 31 28 32 33 33 29 34
REMARK SMILES IDX 32 35 30 36 31 37
REMARK H PARENT 3 14 15 15
ROOT
ATOM      1  C   UNL     1     -13.208  31.241   1.265  1.00  0.00     0.062 C 
ENDROOT
BRANCH   1   2
ATOM      2  C   UNL     1     -14.059  30.342   2.113  1.00  0.00     0.262 C 
BRANCH   2   3
ATOM      3  N   UNL     1     -15.314  30.047   1.431  1.00  0.00    -0.335 N 
ATOM      4  O   UNL     1     -17.520  27.812   0.677  1.00  0.00    -0.272 OA
ATOM      5  C   UNL     1     -17.982  28.618  -0.157  1.00  0.00     0.247 C 
ATOM      6  N   UNL     1     -19.080  28.350  -0.995  1.00  0.00    -0.336 N 
ATOM      7  C   UNL     1     -17.455  30.011  -0.417  1.00  0.00     0.131 C 
ATOM      8  C   UNL     1     -19.569  29.619  -1.431  1.00  0.00     0.238 C 
ATOM      9  N   UNL     1     -18.371  30.472  -1.458  1.00  0.00    -0.339 N 
ATOM     10  C   UNL     1     -16.028  29.904  -0.915  1.00  0.00     0.100 C 
ATOM     11  C   UNL     1     -17.548  30.774   0.855  1.00  0.00     0.100 C 
ATOM     12  C   UNL     1     -15.107  29.380   0.163  1.00  0.00     0.265 C 
ATOM     13  C   UNL     1     -16.187  31.185   1.311  1.00  0.00     0.265 C 
ATOM     14  H   UNL     1     -19.448  27.390  -1.235  1.00  0.00     0.165 HD
ATOM     15  H   UNL     1     -15.788  29.361   2.059  1.00  0.00     0.348 HD
BRANCH   9  16
ATOM     16  C   UNL     1     -18.241  31.524  -2.400  1.00  0.00     0.039 A 
ATOM     17  C   UNL     1     -17.011  31.877  -2.904  1.00  0.00     0.026 A 
ATOM     18  C   UNL     1     -19.350  32.184  -2.831  1.00  0.00     0.026 A 
ATOM     19  C   UNL     1     -16.874  32.899  -3.849  1.00  0.00     0.002 A 
ATOM     20  C   UNL     1     -19.237  33.187  -3.754  1.00  0.00     0.002 A 
ATOM     21  C   UNL     1     -18.017  33.547  -4.264  1.00  0.00     0.000 A 
ENDBRANCH   9  16
ENDBRANCH   2   3
ENDBRANCH   1   2
BRANCH   1  22
ATOM     22  C   UNL     1     -13.896  32.056   0.257  1.00  0.00     0.019 C 
BRANCH  22  23
ATOM     23  C   UNL     1     -13.900  33.512   0.288  1.00  0.00     0.049 C 
BRANCH  23  24
ATOM     24  C   UNL     1     -13.025  34.188  -0.735  1.00  0.00    -0.040 A 
ATOM     25  C   UNL     1     -13.663  34.957  -1.682  1.00  0.00     0.007 A 
ATOM     26  C   UNL     1     -11.664  34.038  -0.756  1.00  0.00     0.007 A 
ATOM     27  C   UNL     1     -12.938  35.586  -2.662  1.00  0.00     0.039 A 
ATOM     28  C   UNL     1     -10.944  34.667  -1.736  1.00  0.00     0.039 A 
ATOM     29  C   UNL     1     -11.569  35.455  -2.709  1.00  0.00     0.123 A 
ATOM     30  F   UNL     1     -10.862  36.082  -3.684  1.00  0.00    -0.207 F 
ENDBRANCH  23  24
BRANCH  23  31
ATOM     31  C   UNL     1     -15.140  34.250   0.470  1.00  0.00    -0.040 A 
ATOM     32  C   UNL     1     -15.559  34.877   1.610  1.00  0.00     0.007 A 
ATOM     33  C   UNL     1     -15.981  34.293  -0.649  1.00  0.00     0.007 A 
ATOM     34  C   UNL     1     -16.799  35.527   1.608  1.00  0.00     0.039 A 
ATOM     35  C   UNL     1     -17.185  34.920  -0.664  1.00  0.00     0.039 A 
ATOM     36  C   UNL     1     -17.595  35.546   0.490  1.00  0.00     0.123 A 
ATOM     37  F   UNL     1     -18.803  36.171   0.462  1.00  0.00    -0.207 F 
ENDBRANCH  23  31
ENDBRANCH  22  23
ENDBRANCH   1  22
TORSDOF 7
ENDMDL
MODEL 5
REMARK VINA RESULT:      -1.5      3.056      4.912
REMARK SMILES O=C1NCN(c2ccccc2)C12CC[NH+](CCCC(c1ccc(F)cc1)c1ccc(F)cc1)CC2
REMARK SMILES IDX 17 1 16 2 15 3 1 4 2 5 3 6 12 7 4 8 5 9 13 10 35 11 14 12
REMARK SMILES IDX 34 13 6 16 7 17 11 18 8 19 10 20 9 21 18 22 19 23 20 24
REMARK SMILES IDX 21 25 26 26 22 27 25 28 23 29 24 30 27 31 28 32 33 33 29 34
REMARK SMILES IDX 32 35 30 36 31 37
REMARK H PARENT 3 14 15 15
ROOT
ATOM      1  C   UNL     1     -13.997  31.068   0.821  1.00  0.00     0.062 C 
ENDROOT
BRANCH   1   2
ATOM      2  C   UNL     1     -14.322  32.529   0.913  1.00  0.00     0.262 C 
BRANCH   2   3
ATOM      3  N   UNL     1     -14.065  33.183  -0.365  1.00  0.00    -0.335 N 
ATOM      4  O   UNL     1     -12.179  35.199  -2.039  1.00  0.00    -0.272 OA
ATOM      5  C   UNL     1     -13.066  35.228  -2.916  1.00  0.00     0.247 C 
ATOM      6  N   UNL     1     -12.986  35.980  -4.101  1.00  0.00    -0.336 N 
ATOM      7  C   UNL     1     -14.373  34.468  -2.866  1.00  0.00     0.131 C 
ATOM      8  C   UNL     1     -13.927  35.399  -5.007  1.00  0.00     0.238 C 
ATOM      9  N   UNL     1     -14.983  34.868  -4.132  1.00  0.00    -0.339 N 
ATOM     10  C   UNL     1     -15.167  34.949  -1.669  1.00  0.00     0.100 C 
ATOM     11  C   UNL     1     -14.051  33.019  -2.779  1.00  0.00     0.100 C 
ATOM     12  C   UNL     1     -14.494  34.566  -0.371  1.00  0.00     0.265 C 
ATOM     13  C   UNL     1     -14.569  32.452  -1.498  1.00  0.00     0.265 C 
ATOM     14  H   UNL     1     -12.348  36.805  -4.263  1.00  0.00     0.165 HD
ATOM     15  H   UNL     1     -13.025  33.189  -0.442  1.00  0.00     0.348 HD
BRANCH   9  16
ATOM     16  C   UNL     1     -16.335  34.824  -4.558  1.00  0.00     0.039 A 
ATOM     17  C   UNL     1     -17.233  35.791  -4.173  1.00  0.00     0.026 A 
ATOM     18  C   UNL     1     -16.750  33.821  -5.380  1.00  0.00     0.026 A 
ATOM     19  C   UNL     1     -18.563  35.768  -4.604  1.00  0.00     0.002 A 
ATOM     20  C   UNL     1     -18.047  33.780  -5.812  1.00  0.00     0.002 A 
ATOM     21  C   UNL     1     -18.951  34.739  -5.435  1.00  0.00     0.000 A 
ENDBRANCH   9  16
ENDBRANCH   2   3
ENDBRANCH   1   2
BRANCH   1  22
ATOM     22  C   UNL     1     -15.055  30.177   0.332  1.00  0.00     0.019 C 
BRANCH  22  23
ATOM     23  C   UNL     1     -16.452  30.323   0.719  1.00  0.00     0.049 C 
BRANCH  23  24
ATOM     24  C   UNL     1     -17.229  31.372  -0.033  1.00  0.00    -0.040 A 
ATOM     25  C   UNL     1     -17.317  32.615   0.555  1.00  0.00     0.007 A 
ATOM     26  C   UNL     1     -17.846  31.118  -1.229  1.00  0.00     0.007 A 
ATOM     27  C   UNL     1     -18.028  33.617  -0.056  1.00  0.00     0.039 A 
ATOM     28  C   UNL     1     -18.554  32.121  -1.835  1.00  0.00     0.039 A 
ATOM     29  C   UNL     1     -18.658  33.393  -1.259  1.00  0.00     0.123 A 
ATOM     30  F   UNL     1     -19.359  34.392  -1.853  1.00  0.00    -0.207 F 
ENDBRANCH  23  24
BRANCH  23  31
ATOM     31  C   UNL     1     -17.280  29.156   0.974  1.00  0.00    -0.040 A 
ATOM     32  C   UNL     1     -17.096  28.222   1.955  1.00  0.00     0.007 A 
ATOM     33  C   UNL     1     -18.362  28.986   0.101  1.00  0.00     0.007 A 
ATOM     34  C   UNL     1     -17.988  27.146   2.040  1.00  0.00     0.039 A 
ATOM     35  C   UNL     1     -19.234  27.948   0.175  1.00  0.00     0.039 A 
ATOM     36  C   UNL     1     -19.037  27.014   1.166  1.00  0.00     0.123 A 
ATOM     37  F   UNL     1     -19.918  25.980   1.228  1.00  0.00    -0.207 F 
ENDBRANCH  23  31
ENDBRANCH  22  23
ENDBRANCH   1  22
TORSDOF 7
ENDMDL
