MODEL 1
REMARK VINA RESULT:      -3.7      0.000      0.000
REMARK SMILES COc1cc2ccc(=O)oc2cc1[O-]
REMARK SMILES IDX 3 1 4 2 5 3 6 4 7 5 8 6 9 7 10 8 11 9 12 10 13 11 14 12 2 13
REMARK SMILES IDX 1 14
REMARK H PARENT
ROOT
ATOM      1  C   UNL     1     -14.321  20.732  -8.288  1.00  0.00     0.111 A 
ATOM      2  C   UNL     1     -13.974  19.560  -8.907  1.00  0.00     0.057 A 
ATOM      3  C   UNL     1     -13.775  18.419  -8.153  1.00  0.00     0.021 A 
ATOM      4  C   UNL     1     -13.428  17.254  -8.806  1.00  0.00     0.019 A 
ATOM      5  C   UNL     1     -13.237  16.133  -8.019  1.00  0.00     0.094 A 
ATOM      6  C   UNL     1     -13.401  16.237  -6.661  1.00  0.00     0.336 A 
ATOM      7  O   UNL     1     -13.223  15.205  -5.966  1.00  0.00    -0.246 OA
ATOM      8  O   UNL     1     -13.735  17.379  -6.099  1.00  0.00    -0.423 OA
ATOM      9  C   UNL     1     -13.930  18.479  -6.790  1.00  0.00     0.138 A 
ATOM     10  C   UNL     1     -14.277  19.643  -6.144  1.00  0.00     0.043 A 
ATOM     11  C   UNL     1     -14.473  20.772  -6.899  1.00  0.00    -0.062 A 
ATOM     12  O   UNL     1     -14.825  21.965  -6.276  1.00  0.00    -0.870 OA
ENDROOT
BRANCH   1  13
ATOM     13  O   UNL     1     -14.531  21.897  -8.987  1.00  0.00    -0.497 OA
ATOM     14  C   UNL     1     -14.335  22.038 -10.363  1.00  0.00     0.278 C 
ENDBRANCH   1  13
TORSDOF 1
ENDMDL
MODEL 2
REMARK VINA RESULT:      -3.4     24.545     26.222
REMARK SMILES COc1cc2ccc(=O)oc2cc1[O-]
REMARK SMILES IDX 3 1 4 2 5 3 6 4 7 5 8 6 9 7 10 8 11 9 12 10 13 11 14 12 2 13
REMARK SMILES IDX 1 14
REMARK H PARENT
ROOT
ATOM      1  C   UNL     1     -27.716   0.676   3.051  1.00  0.00     0.111 A 
ATOM      2  C   UNL     1     -28.719   1.062   2.200  1.00  0.00     0.057 A 
ATOM      3  C   UNL     1     -29.907   1.546   2.714  1.00  0.00     0.021 A 
ATOM      4  C   UNL     1     -30.896   1.926   1.831  1.00  0.00     0.019 A 
ATOM      5  C   UNL     1     -32.071   2.406   2.382  1.00  0.00     0.094 A 
ATOM      6  C   UNL     1     -32.186   2.476   3.747  1.00  0.00     0.336 A 
ATOM      7  O   UNL     1     -33.262   2.915   4.225  1.00  0.00    -0.246 OA
ATOM      8  O   UNL     1     -31.203   2.098   4.536  1.00  0.00    -0.423 OA
ATOM      9  C   UNL     1     -30.064   1.634   4.075  1.00  0.00     0.138 A 
ATOM     10  C   UNL     1     -29.073   1.253   4.952  1.00  0.00     0.043 A 
ATOM     11  C   UNL     1     -27.896   0.773   4.434  1.00  0.00    -0.062 A 
ATOM     12  O   UNL     1     -26.875   0.381   5.293  1.00  0.00    -0.870 OA
ENDROOT
BRANCH   1  13
ATOM     13  O   UNL     1     -26.515   0.188   2.596  1.00  0.00    -0.497 OA
ATOM     14  C   UNL     1     -26.202  -0.010   1.249  1.00  0.00     0.278 C 
ENDBRANCH   1  13
TORSDOF 1
ENDMDL
MODEL 3
REMARK VINA RESULT:      -3.4     22.625     23.157
REMARK SMILES COc1cc2ccc(=O)oc2cc1[O-]
REMARK SMILES IDX 3 1 4 2 5 3 6 4 7 5 8 6 9 7 10 8 11 9 12 10 13 11 14 12 2 13
REMARK SMILES IDX 1 14
REMARK H PARENT
ROOT
ATOM      1  C   UNL     1     -33.340  10.014 -13.810  1.00  0.00     0.111 A 
ATOM      2  C   UNL     1     -34.199   8.981 -14.081  1.00  0.00     0.057 A 
ATOM      3  C   UNL     1     -33.747   7.879 -14.781  1.00  0.00     0.021 A 
ATOM      4  C   UNL     1     -34.636   6.856 -15.038  1.00  0.00     0.019 A 
ATOM      5  C   UNL     1     -34.147   5.768 -15.740  1.00  0.00     0.094 A 
ATOM      6  C   UNL     1     -32.833   5.767 -16.134  1.00  0.00     0.336 A 
ATOM      7  O   UNL     1     -32.412   4.768 -16.770  1.00  0.00    -0.246 OA
ATOM      8  O   UNL     1     -32.035   6.775 -15.856  1.00  0.00    -0.423 OA
ATOM      9  C   UNL     1     -32.438   7.835 -15.193  1.00  0.00     0.138 A 
ATOM     10  C   UNL     1     -31.555   8.859 -14.934  1.00  0.00     0.043 A 
ATOM     11  C   UNL     1     -32.011   9.951 -14.239  1.00  0.00    -0.062 A 
ATOM     12  O   UNL     1     -31.144  11.002 -13.960  1.00  0.00    -0.870 OA
ENDROOT
BRANCH   1  13
ATOM     13  O   UNL     1     -33.736  11.135 -13.118  1.00  0.00    -0.497 OA
ATOM     14  C   UNL     1     -34.974  11.762 -13.273  1.00  0.00     0.278 C 
ENDBRANCH   1  13
TORSDOF 1
ENDMDL
MODEL 4
REMARK VINA RESULT:      -3.4     22.822     23.375
REMARK SMILES COc1cc2ccc(=O)oc2cc1[O-]
REMARK SMILES IDX 3 1 4 2 5 3 6 4 7 5 8 6 9 7 10 8 11 9 12 10 13 11 14 12 2 13
REMARK SMILES IDX 1 14
REMARK H PARENT
ROOT
ATOM      1  C   UNL     1     -34.344   9.544 -13.802  1.00  0.00     0.111 A 
ATOM      2  C   UNL     1     -33.670   9.377 -12.621  1.00  0.00     0.057 A 
ATOM      3  C   UNL     1     -33.309   8.107 -12.211  1.00  0.00     0.021 A 
ATOM      4  C   UNL     1     -32.631   7.973 -11.017  1.00  0.00     0.019 A 
ATOM      5  C   UNL     1     -32.285   6.687 -10.639  1.00  0.00     0.094 A 
ATOM      6  C   UNL     1     -32.628   5.639 -11.456  1.00  0.00     0.336 A 
ATOM      7  O   UNL     1     -32.303   4.481 -11.092  1.00  0.00    -0.246 OA
ATOM      8  O   UNL     1     -33.275   5.835 -12.585  1.00  0.00    -0.423 OA
ATOM      9  C   UNL     1     -33.631   7.030 -12.998  1.00  0.00     0.138 A 
ATOM     10  C   UNL     1     -34.307   7.170 -14.189  1.00  0.00     0.043 A 
ATOM     11  C   UNL     1     -34.664   8.433 -14.590  1.00  0.00    -0.062 A 
ATOM     12  O   UNL     1     -35.347   8.609 -15.788  1.00  0.00    -0.870 OA
ENDROOT
BRANCH   1  13
ATOM     13  O   UNL     1     -34.729  10.782 -14.259  1.00  0.00    -0.497 OA
ATOM     14  C   UNL     1     -35.194  11.815 -13.442  1.00  0.00     0.278 C 
ENDBRANCH   1  13
TORSDOF 1
ENDMDL
MODEL 5
REMARK VINA RESULT:      -3.3     26.122     27.087
REMARK SMILES COc1cc2ccc(=O)oc2cc1[O-]
REMARK SMILES IDX 3 1 4 2 5 3 6 4 7 5 8 6 9 7 10 8 11 9 12 10 13 11 14 12 2 13
REMARK SMILES IDX 1 14
REMARK H PARENT
ROOT
ATOM      1  C   UNL     1     -31.113   1.443   4.171  1.00  0.00     0.111 A 
ATOM      2  C   UNL     1     -31.355   2.638   4.799  1.00  0.00     0.057 A 
ATOM      3  C   UNL     1     -32.108   3.607   4.164  1.00  0.00     0.021 A 
ATOM      4  C   UNL     1     -32.333   4.798   4.822  1.00  0.00     0.019 A 
ATOM      5  C   UNL     1     -33.090   5.744   4.155  1.00  0.00     0.094 A 
ATOM      6  C   UNL     1     -33.567   5.452   2.902  1.00  0.00     0.336 A 
ATOM      7  O   UNL     1     -34.253   6.327   2.316  1.00  0.00    -0.246 OA
ATOM      8  O   UNL     1     -33.317   4.295   2.329  1.00  0.00    -0.423 OA
ATOM      9  C   UNL     1     -32.605   3.356   2.909  1.00  0.00     0.138 A 
ATOM     10  C   UNL     1     -32.377   2.166   2.256  1.00  0.00     0.043 A 
ATOM     11  C   UNL     1     -31.628   1.208   2.893  1.00  0.00    -0.062 A 
ATOM     12  O   UNL     1     -31.380  -0.006   2.261  1.00  0.00    -0.870 OA
ENDROOT
BRANCH   1  13
ATOM     13  O   UNL     1     -30.372   0.444   4.756  1.00  0.00    -0.497 OA
ATOM     14  C   UNL     1     -29.115   0.630   5.336  1.00  0.00     0.278 C 
ENDBRANCH   1  13
TORSDOF 1
ENDMDL
MODEL 6
REMARK VINA RESULT:      -2.9     22.586     23.498
REMARK SMILES COc1cc2ccc(=O)oc2cc1[O-]
REMARK SMILES IDX 3 1 4 2 5 3 6 4 7 5 8 6 9 7 10 8 11 9 12 10 13 11 14 12 2 13
REMARK SMILES IDX 1 14
REMARK H PARENT
ROOT
ATOM      1  C   UNL     1     -33.273   6.909 -11.642  1.00  0.00     0.111 A 
ATOM      2  C   UNL     1     -32.591   8.050 -11.977  1.00  0.00     0.057 A 
ATOM      3  C   UNL     1     -33.275   9.127 -12.509  1.00  0.00     0.021 A 
ATOM      4  C   UNL     1     -32.560  10.261 -12.835  1.00  0.00     0.019 A 
ATOM      5  C   UNL     1     -33.278  11.318 -13.365  1.00  0.00     0.094 A 
ATOM      6  C   UNL     1     -34.634  11.184 -13.532  1.00  0.00     0.336 A 
ATOM      7  O   UNL     1     -35.265  12.158 -14.014  1.00  0.00    -0.246 OA
ATOM      8  O   UNL     1     -35.257  10.075 -13.199  1.00  0.00    -0.423 OA
ATOM      9  C   UNL     1     -34.633   9.036 -12.692  1.00  0.00     0.138 A 
ATOM     10  C   UNL     1     -35.341   7.902 -12.365  1.00  0.00     0.043 A 
ATOM     11  C   UNL     1     -34.655   6.837 -11.838  1.00  0.00    -0.062 A 
ATOM     12  O   UNL     1     -35.342   5.677 -11.496  1.00  0.00    -0.870 OA
ENDROOT
BRANCH   1  13
ATOM     13  O   UNL     1     -32.644   5.808 -11.111  1.00  0.00    -0.497 OA
ATOM     14  C   UNL     1     -31.482   5.859 -10.338  1.00  0.00     0.278 C 
ENDBRANCH   1  13
TORSDOF 1
ENDMDL
MODEL 7
REMARK VINA RESULT:      -2.9     23.037     23.928
REMARK SMILES COc1cc2ccc(=O)oc2cc1[O-]
REMARK SMILES IDX 3 1 4 2 5 3 6 4 7 5 8 6 9 7 10 8 11 9 12 10 13 11 14 12 2 13
REMARK SMILES IDX 1 14
REMARK H PARENT
ROOT
ATOM      1  C   UNL     1     -33.698   6.648 -12.032  1.00  0.00     0.111 A 
ATOM      2  C   UNL     1     -34.413   6.657 -13.201  1.00  0.00     0.057 A 
ATOM      3  C   UNL     1     -34.528   7.828 -13.926  1.00  0.00     0.021 A 
ATOM      4  C   UNL     1     -35.254   7.804 -15.098  1.00  0.00     0.019 A 
ATOM      5  C   UNL     1     -35.347   8.995 -15.796  1.00  0.00     0.094 A 
ATOM      6  C   UNL     1     -34.725  10.111 -15.296  1.00  0.00     0.336 A 
ATOM      7  O   UNL     1     -34.823  11.181 -15.947  1.00  0.00    -0.246 OA
ATOM      8  O   UNL     1     -34.046  10.067 -14.170  1.00  0.00    -0.423 OA
ATOM      9  C   UNL     1     -33.920   8.968 -13.461  1.00  0.00     0.138 A 
ATOM     10  C   UNL     1     -33.197   8.987 -12.290  1.00  0.00     0.043 A 
ATOM     11  C   UNL     1     -33.087   7.820 -11.575  1.00  0.00    -0.062 A 
ATOM     12  O   UNL     1     -32.362   7.804 -10.388  1.00  0.00    -0.870 OA
ENDROOT
BRANCH   1  13
ATOM     13  O   UNL     1     -33.550   5.512 -11.271  1.00  0.00    -0.497 OA
ATOM     14  C   UNL     1     -32.358   4.796 -11.144  1.00  0.00     0.278 C 
ENDBRANCH   1  13
TORSDOF 1
ENDMDL
MODEL 8
REMARK VINA RESULT:      -2.8      2.782      4.515
REMARK SMILES COc1cc2ccc(=O)oc2cc1[O-]
REMARK SMILES IDX 3 1 4 2 5 3 6 4 7 5 8 6 9 7 10 8 11 9 12 10 13 11 14 12 2 13
REMARK SMILES IDX 1 14
REMARK H PARENT
ROOT
ATOM      1  C   UNL     1     -14.660  20.580  -7.102  1.00  0.00     0.111 A 
ATOM      2  C   UNL     1     -15.052  21.465  -6.132  1.00  0.00     0.057 A 
ATOM      3  C   UNL     1     -14.761  21.203  -4.807  1.00  0.00     0.021 A 
ATOM      4  C   UNL     1     -15.169  22.113  -3.854  1.00  0.00     0.019 A 
ATOM      5  C   UNL     1     -14.860  21.818  -2.538  1.00  0.00     0.094 A 
ATOM      6  C   UNL     1     -14.180  20.660  -2.258  1.00  0.00     0.336 A 
ATOM      7  O   UNL     1     -13.910  20.412  -1.056  1.00  0.00    -0.246 OA
ATOM      8  O   UNL     1     -13.818  19.832  -3.215  1.00  0.00    -0.423 OA
ATOM      9  C   UNL     1     -14.081  20.056  -4.482  1.00  0.00     0.138 A 
ATOM     10  C   UNL     1     -13.676  19.150  -5.437  1.00  0.00     0.043 A 
ATOM     11  C   UNL     1     -13.968  19.416  -6.751  1.00  0.00    -0.062 A 
ATOM     12  O   UNL     1     -13.573  18.522  -7.740  1.00  0.00    -0.870 OA
ENDROOT
BRANCH   1  13
ATOM     13  O   UNL     1     -14.922  20.789  -8.436  1.00  0.00    -0.497 OA
ATOM     14  C   UNL     1     -14.445  21.875  -9.173  1.00  0.00     0.278 C 
ENDBRANCH   1  13
TORSDOF 1
ENDMDL
MODEL 9
REMARK VINA RESULT:      -2.7     25.661     26.978
REMARK SMILES COc1cc2ccc(=O)oc2cc1[O-]
REMARK SMILES IDX 3 1 4 2 5 3 6 4 7 5 8 6 9 7 10 8 11 9 12 10 13 11 14 12 2 13
REMARK SMILES IDX 1 14
REMARK H PARENT
ROOT
ATOM      1  C   UNL     1     -32.367   2.313   4.654  1.00  0.00     0.111 A 
ATOM      2  C   UNL     1     -31.464   1.504   5.293  1.00  0.00     0.057 A 
ATOM      3  C   UNL     1     -30.289   1.150   4.658  1.00  0.00     0.021 A 
ATOM      4  C   UNL     1     -29.401   0.335   5.328  1.00  0.00     0.019 A 
ATOM      5  C   UNL     1     -28.236   0.002   4.660  1.00  0.00     0.094 A 
ATOM      6  C   UNL     1     -28.031   0.492   3.395  1.00  0.00     0.336 A 
ATOM      7  O   UNL     1     -26.965   0.176   2.808  1.00  0.00    -0.246 OA
ATOM      8  O   UNL     1     -28.919   1.267   2.810  1.00  0.00    -0.423 OA
ATOM      9  C   UNL     1     -30.043   1.618   3.391  1.00  0.00     0.138 A 
ATOM     10  C   UNL     1     -30.933   2.432   2.726  1.00  0.00     0.043 A 
ATOM     11  C   UNL     1     -32.098   2.779   3.363  1.00  0.00    -0.062 A 
ATOM     12  O   UNL     1     -33.017   3.600   2.719  1.00  0.00    -0.870 OA
ENDROOT
BRANCH   1  13
ATOM     13  O   UNL     1     -33.551   2.696   5.238  1.00  0.00    -0.497 OA
ATOM     14  C   UNL     1     -34.769   2.036   5.059  1.00  0.00     0.278 C 
ENDBRANCH   1  13
TORSDOF 1
ENDMDL
