MODEL 1
REMARK VINA RESULT:      -4.3      0.000      0.000
REMARK SMILES Clc1ccccc1C(c1ccccc1)(c1ccccc1)n1ccnc1
REMARK SMILES IDX 1 1 2 2 3 3 4 4 5 5 6 6 7 7 8 8 9 9 10 10 14 11 11 12 13 13
REMARK SMILES IDX 12 14 15 15 16 16 20 17 17 18 19 19 18 20 21 21 22 22 25 23
REMARK SMILES IDX 23 24 24 25
REMARK H PARENT
ROOT
ATOM      1  Cl  UNL     1      28.190   7.143  53.518  1.00  0.00    -0.084 Cl
ATOM      2  C   UNL     1      27.998   8.293  54.822  1.00  0.00     0.047 A 
ATOM      3  C   UNL     1      27.001   9.242  54.806  1.00  0.00     0.021 A 
ATOM      4  C   UNL     1      26.826  10.128  55.847  1.00  0.00     0.002 A 
ATOM      5  C   UNL     1      27.683  10.042  56.916  1.00  0.00     0.001 A 
ATOM      6  C   UNL     1      28.697   9.076  56.932  1.00  0.00     0.008 A 
ATOM      7  C   UNL     1      28.864   8.205  55.900  1.00  0.00     0.006 A 
ENDROOT
BRANCH   7   8
ATOM      8  C   UNL     1      29.964   7.203  55.927  1.00  0.00     0.123 C 
BRANCH   8   9
ATOM      9  C   UNL     1      29.347   5.847  55.926  1.00  0.00    -0.013 A 
ATOM     10  C   UNL     1      29.867   4.738  55.343  1.00  0.00     0.007 A 
ATOM     11  C   UNL     1      28.123   5.755  56.617  1.00  0.00     0.007 A 
ATOM     12  C   UNL     1      29.186   3.538  55.438  1.00  0.00     0.000 A 
ATOM     13  C   UNL     1      27.456   4.561  56.707  1.00  0.00     0.000 A 
ATOM     14  C   UNL     1      27.974   3.432  56.119  1.00  0.00     0.000 A 
ENDBRANCH   8   9
BRANCH   8  15
ATOM     15  C   UNL     1      30.710   7.255  57.213  1.00  0.00    -0.013 A 
ATOM     16  C   UNL     1      30.563   6.324  58.207  1.00  0.00     0.007 A 
ATOM     17  C   UNL     1      31.610   8.272  57.408  1.00  0.00     0.007 A 
ATOM     18  C   UNL     1      31.291   6.384  59.390  1.00  0.00     0.000 A 
ATOM     19  C   UNL     1      32.356   8.355  58.595  1.00  0.00     0.000 A 
ATOM     20  C   UNL     1      32.187   7.410  59.570  1.00  0.00     0.000 A 
ENDBRANCH   8  15
BRANCH   8  21
ATOM     21  N   UNL     1      30.866   7.432  54.838  1.00  0.00    -0.319 N 
ATOM     22  C   UNL     1      31.665   6.496  54.253  1.00  0.00     0.109 A 
ATOM     23  C   UNL     1      31.073   8.577  54.189  1.00  0.00     0.200 A 
ATOM     24  C   UNL     1      32.372   7.087  53.229  1.00  0.00     0.131 A 
ATOM     25  N   UNL     1      31.992   8.359  53.211  1.00  0.00    -0.245 NA
ENDBRANCH   8  21
ENDBRANCH   7   8
TORSDOF 4
ENDMDL
MODEL 2
REMARK VINA RESULT:      -4.3     10.607     13.524
REMARK SMILES Clc1ccccc1C(c1ccccc1)(c1ccccc1)n1ccnc1
REMARK SMILES IDX 1 1 2 2 3 3 4 4 5 5 6 6 7 7 8 8 9 9 10 10 14 11 11 12 13 13
REMARK SMILES IDX 12 14 15 15 16 16 20 17 17 18 19 19 18 20 21 21 22 22 25 23
REMARK SMILES IDX 23 24 24 25
REMARK H PARENT
ROOT
ATOM      1  Cl  UNL     1      40.609  15.440  57.979  1.00  0.00    -0.084 Cl
ATOM      2  C   UNL     1      39.030  14.693  58.079  1.00  0.00     0.047 A 
ATOM      3  C   UNL     1      38.349  14.294  56.952  1.00  0.00     0.021 A 
ATOM      4  C   UNL     1      37.120  13.675  57.028  1.00  0.00     0.002 A 
ATOM      5  C   UNL     1      36.582  13.463  58.274  1.00  0.00     0.001 A 
ATOM      6  C   UNL     1      37.276  13.870  59.421  1.00  0.00     0.008 A 
ATOM      7  C   UNL     1      38.489  14.481  59.337  1.00  0.00     0.006 A 
ENDROOT
BRANCH   7   8
ATOM      8  C   UNL     1      39.197  14.928  60.568  1.00  0.00     0.123 C 
BRANCH   8   9
ATOM      9  C   UNL     1      38.303  14.659  61.730  1.00  0.00    -0.013 A 
ATOM     10  C   UNL     1      37.129  15.287  61.990  1.00  0.00     0.007 A 
ATOM     11  C   UNL     1      38.753  13.646  62.598  1.00  0.00     0.007 A 
ATOM     12  C   UNL     1      36.395  14.919  63.104  1.00  0.00     0.000 A 
ATOM     13  C   UNL     1      38.019  13.288  63.699  1.00  0.00     0.000 A 
ATOM     14  C   UNL     1      36.828  13.917  63.972  1.00  0.00     0.000 A 
ENDBRANCH   8   9
BRANCH   8  15
ATOM     15  C   UNL     1      39.371  16.405  60.585  1.00  0.00    -0.013 A 
ATOM     16  C   UNL     1      38.830  17.238  59.642  1.00  0.00     0.007 A 
ATOM     17  C   UNL     1      40.088  16.967  61.610  1.00  0.00     0.007 A 
ATOM     18  C   UNL     1      38.989  18.618  59.696  1.00  0.00     0.000 A 
ATOM     19  C   UNL     1      40.263  18.360  61.686  1.00  0.00     0.000 A 
ATOM     20  C   UNL     1      39.711  19.166  60.729  1.00  0.00     0.000 A 
ENDBRANCH   8  15
BRANCH   8  21
ATOM     21  N   UNL     1      40.477  14.291  60.660  1.00  0.00    -0.319 N 
ATOM     22  C   UNL     1      41.634  14.880  61.070  1.00  0.00     0.109 A 
ATOM     23  C   UNL     1      40.766  13.019  60.387  1.00  0.00     0.200 A 
ATOM     24  C   UNL     1      42.647  13.947  61.044  1.00  0.00     0.131 A 
ATOM     25  N   UNL     1      42.089  12.817  60.623  1.00  0.00    -0.245 NA
ENDBRANCH   8  21
ENDBRANCH   7   8
TORSDOF 4
ENDMDL
MODEL 3
REMARK VINA RESULT:      -4.3     10.571     13.282
REMARK SMILES Clc1ccccc1C(c1ccccc1)(c1ccccc1)n1ccnc1
REMARK SMILES IDX 1 1 2 2 3 3 4 4 5 5 6 6 7 7 8 8 9 9 10 10 14 11 11 12 13 13
REMARK SMILES IDX 12 14 15 15 16 16 20 17 17 18 19 19 18 20 21 21 22 22 25 23
REMARK SMILES IDX 23 24 24 25
REMARK H PARENT
ROOT
ATOM      1  Cl  UNL     1      40.791  14.984  57.893  1.00  0.00    -0.084 Cl
ATOM      2  C   UNL     1      39.142  14.404  57.976  1.00  0.00     0.047 A 
ATOM      3  C   UNL     1      38.451  14.032  56.846  1.00  0.00     0.021 A 
ATOM      4  C   UNL     1      37.164  13.544  56.911  1.00  0.00     0.002 A 
ATOM      5  C   UNL     1      36.577  13.436  58.148  1.00  0.00     0.001 A 
ATOM      6  C   UNL     1      37.282  13.815  59.298  1.00  0.00     0.008 A 
ATOM      7  C   UNL     1      38.553  14.297  59.226  1.00  0.00     0.006 A 
ENDROOT
BRANCH   7   8
ATOM      8  C   UNL     1      39.273  14.717  60.458  1.00  0.00     0.123 C 
BRANCH   8   9
ATOM      9  C   UNL     1      40.474  13.848  60.603  1.00  0.00    -0.013 A 
ATOM     10  C   UNL     1      41.678  14.233  61.097  1.00  0.00     0.007 A 
ATOM     11  C   UNL     1      40.290  12.514  60.192  1.00  0.00     0.007 A 
ATOM     12  C   UNL     1      42.702  13.308  61.187  1.00  0.00     0.000 A 
ATOM     13  C   UNL     1      41.311  11.603  60.286  1.00  0.00     0.000 A 
ATOM     14  C   UNL     1      42.534  11.983  60.784  1.00  0.00     0.000 A 
ENDBRANCH   8   9
BRANCH   8  15
ATOM     15  C   UNL     1      38.472  14.425  61.677  1.00  0.00    -0.013 A 
ATOM     16  C   UNL     1      38.845  13.506  62.622  1.00  0.00     0.007 A 
ATOM     17  C   UNL     1      37.312  15.129  61.882  1.00  0.00     0.007 A 
ATOM     18  C   UNL     1      38.088  13.270  63.764  1.00  0.00     0.000 A 
ATOM     19  C   UNL     1      36.530  14.908  63.029  1.00  0.00     0.000 A 
ATOM     20  C   UNL     1      36.928  13.982  63.953  1.00  0.00     0.000 A 
ENDBRANCH   8  15
BRANCH   8  21
ATOM     21  N   UNL     1      39.572  16.117  60.402  1.00  0.00    -0.319 N 
ATOM     22  C   UNL     1      38.920  17.043  59.646  1.00  0.00     0.109 A 
ATOM     23  C   UNL     1      40.514  16.768  61.084  1.00  0.00     0.200 A 
ATOM     24  C   UNL     1      39.478  18.282  59.872  1.00  0.00     0.131 A 
ATOM     25  N   UNL     1      40.450  18.086  60.755  1.00  0.00    -0.245 NA
ENDBRANCH   8  21
ENDBRANCH   7   8
TORSDOF 4
ENDMDL
MODEL 4
REMARK VINA RESULT:      -4.2      0.511      1.074
REMARK SMILES Clc1ccccc1C(c1ccccc1)(c1ccccc1)n1ccnc1
REMARK SMILES IDX 1 1 2 2 3 3 4 4 5 5 6 6 7 7 8 8 9 9 10 10 14 11 11 12 13 13
REMARK SMILES IDX 12 14 15 15 16 16 20 17 17 18 19 19 18 20 21 21 22 22 25 23
REMARK SMILES IDX 23 24 24 25
REMARK H PARENT
ROOT
ATOM      1  Cl  UNL     1      28.726   6.875  53.612  1.00  0.00    -0.084 Cl
ATOM      2  C   UNL     1      28.405   8.045  54.872  1.00  0.00     0.047 A 
ATOM      3  C   UNL     1      27.345   8.919  54.791  1.00  0.00     0.021 A 
ATOM      4  C   UNL     1      27.069   9.821  55.796  1.00  0.00     0.002 A 
ATOM      5  C   UNL     1      27.889   9.828  56.897  1.00  0.00     0.001 A 
ATOM      6  C   UNL     1      28.968   8.938  56.979  1.00  0.00     0.008 A 
ATOM      7  C   UNL     1      29.234   8.051  55.982  1.00  0.00     0.006 A 
ENDROOT
BRANCH   7   8
ATOM      8  C   UNL     1      30.401   7.133  56.079  1.00  0.00     0.123 C 
BRANCH   8   9
ATOM      9  C   UNL     1      29.880   5.737  56.127  1.00  0.00    -0.013 A 
ATOM     10  C   UNL     1      30.506   4.639  55.633  1.00  0.00     0.007 A 
ATOM     11  C   UNL     1      28.632   5.595  56.763  1.00  0.00     0.007 A 
ATOM     12  C   UNL     1      29.906   3.399  55.765  1.00  0.00     0.000 A 
ATOM     13  C   UNL     1      28.046   4.362  56.890  1.00  0.00     0.000 A 
ATOM     14  C   UNL     1      28.671   3.244  56.393  1.00  0.00     0.000 A 
ENDBRANCH   8   9
BRANCH   8  15
ATOM     15  C   UNL     1      31.109   7.294  57.378  1.00  0.00    -0.013 A 
ATOM     16  C   UNL     1      32.002   8.303  57.628  1.00  0.00     0.007 A 
ATOM     17  C   UNL     1      30.837   6.405  58.386  1.00  0.00     0.007 A 
ATOM     18  C   UNL     1      32.631   8.443  58.860  1.00  0.00     0.000 A 
ATOM     19  C   UNL     1      31.461   6.526  59.639  1.00  0.00     0.000 A 
ATOM     20  C   UNL     1      32.349   7.543  59.859  1.00  0.00     0.000 A 
ENDBRANCH   8  15
BRANCH   8  21
ATOM     21  N   UNL     1      31.312   7.376  55.000  1.00  0.00    -0.319 N 
ATOM     22  C   UNL     1      32.242   6.501  54.528  1.00  0.00     0.109 A 
ATOM     23  C   UNL     1      31.404   8.478  54.256  1.00  0.00     0.200 A 
ATOM     24  C   UNL     1      32.913   7.083  53.476  1.00  0.00     0.131 A 
ATOM     25  N   UNL     1      32.381   8.291  53.330  1.00  0.00    -0.245 NA
ENDBRANCH   8  21
ENDBRANCH   7   8
TORSDOF 4
ENDMDL
MODEL 5
REMARK VINA RESULT:      -4.2      1.533      4.223
REMARK SMILES Clc1ccccc1C(c1ccccc1)(c1ccccc1)n1ccnc1
REMARK SMILES IDX 1 1 2 2 3 3 4 4 5 5 6 6 7 7 8 8 9 9 10 10 14 11 11 12 13 13
REMARK SMILES IDX 12 14 15 15 16 16 20 17 17 18 19 19 18 20 21 21 22 22 25 23
REMARK SMILES IDX 23 24 24 25
REMARK H PARENT
ROOT
ATOM      1  Cl  UNL     1      29.117   6.202  54.023  1.00  0.00    -0.084 Cl
ATOM      2  C   UNL     1      28.781   7.531  55.111  1.00  0.00     0.047 A 
ATOM      3  C   UNL     1      27.723   8.385  54.900  1.00  0.00     0.021 A 
ATOM      4  C   UNL     1      27.436   9.413  55.772  1.00  0.00     0.002 A 
ATOM      5  C   UNL     1      28.242   9.568  56.872  1.00  0.00     0.001 A 
ATOM      6  C   UNL     1      29.320   8.698  57.086  1.00  0.00     0.008 A 
ATOM      7  C   UNL     1      29.597   7.686  56.219  1.00  0.00     0.006 A 
ENDROOT
BRANCH   7   8
ATOM      8  C   UNL     1      30.762   6.790  56.453  1.00  0.00     0.123 C 
BRANCH   8   9
ATOM      9  C   UNL     1      31.430   7.229  57.711  1.00  0.00    -0.013 A 
ATOM     10  C   UNL     1      32.222   8.322  57.849  1.00  0.00     0.007 A 
ATOM     11  C   UNL     1      31.175   6.414  58.830  1.00  0.00     0.007 A 
ATOM     12  C   UNL     1      32.764   8.616  59.088  1.00  0.00     0.000 A 
ATOM     13  C   UNL     1      31.715   6.713  60.054  1.00  0.00     0.000 A 
ATOM     14  C   UNL     1      32.519   7.818  60.205  1.00  0.00     0.000 A 
ENDBRANCH   8   9
BRANCH   8  15
ATOM     15  C   UNL     1      31.806   6.978  55.410  1.00  0.00    -0.013 A 
ATOM     16  C   UNL     1      31.716   7.915  54.415  1.00  0.00     0.007 A 
ATOM     17  C   UNL     1      32.929   6.192  55.459  1.00  0.00     0.007 A 
ATOM     18  C   UNL     1      32.719   8.085  53.467  1.00  0.00     0.000 A 
ATOM     19  C   UNL     1      33.955   6.344  54.511  1.00  0.00     0.000 A 
ATOM     20  C   UNL     1      33.837   7.288  53.529  1.00  0.00     0.000 A 
ENDBRANCH   8  15
BRANCH   8  21
ATOM     21  N   UNL     1      30.337   5.422  56.468  1.00  0.00    -0.319 N 
ATOM     22  C   UNL     1      30.988   4.378  55.884  1.00  0.00     0.109 A 
ATOM     23  C   UNL     1      29.257   4.920  57.065  1.00  0.00     0.200 A 
ATOM     24  C   UNL     1      30.286   3.218  56.130  1.00  0.00     0.131 A 
ATOM     25  N   UNL     1      29.233   3.577  56.854  1.00  0.00    -0.245 NA
ENDBRANCH   8  21
ENDBRANCH   7   8
TORSDOF 4
ENDMDL
MODEL 6
REMARK VINA RESULT:      -4.1     10.461     13.339
REMARK SMILES Clc1ccccc1C(c1ccccc1)(c1ccccc1)n1ccnc1
REMARK SMILES IDX 1 1 2 2 3 3 4 4 5 5 6 6 7 7 8 8 9 9 10 10 14 11 11 12 13 13
REMARK SMILES IDX 12 14 15 15 16 16 20 17 17 18 19 19 18 20 21 21 22 22 25 23
REMARK SMILES IDX 23 24 24 25
REMARK H PARENT
ROOT
ATOM      1  Cl  UNL     1      40.742  14.866  57.641  1.00  0.00    -0.084 Cl
ATOM      2  C   UNL     1      39.102  14.287  57.826  1.00  0.00     0.047 A 
ATOM      3  C   UNL     1      38.342  13.915  56.740  1.00  0.00     0.021 A 
ATOM      4  C   UNL     1      37.061  13.428  56.884  1.00  0.00     0.002 A 
ATOM      5  C   UNL     1      36.551  13.321  58.155  1.00  0.00     0.001 A 
ATOM      6  C   UNL     1      37.325  13.701  59.259  1.00  0.00     0.008 A 
ATOM      7  C   UNL     1      38.589  14.182  59.109  1.00  0.00     0.006 A 
ENDROOT
BRANCH   7   8
ATOM      8  C   UNL     1      39.383  14.603  60.295  1.00  0.00     0.123 C 
BRANCH   8   9
ATOM      9  C   UNL     1      38.530  14.420  61.503  1.00  0.00    -0.013 A 
ATOM     10  C   UNL     1      38.776  13.564  62.526  1.00  0.00     0.007 A 
ATOM     11  C   UNL     1      37.388  15.242  61.548  1.00  0.00     0.007 A 
ATOM     12  C   UNL     1      37.899  13.514  63.595  1.00  0.00     0.000 A 
ATOM     13  C   UNL     1      36.524  15.186  62.611  1.00  0.00     0.000 A 
ATOM     14  C   UNL     1      36.763  14.322  63.653  1.00  0.00     0.000 A 
ENDBRANCH   8   9
BRANCH   8  15
ATOM     15  C   UNL     1      39.659  16.064  60.270  1.00  0.00    -0.013 A 
ATOM     16  C   UNL     1      40.514  16.685  61.142  1.00  0.00     0.007 A 
ATOM     17  C   UNL     1      39.045  16.830  59.311  1.00  0.00     0.007 A 
ATOM     18  C   UNL     1      40.770  18.050  61.080  1.00  0.00     0.000 A 
ATOM     19  C   UNL     1      39.288  18.211  59.229  1.00  0.00     0.000 A 
ATOM     20  C   UNL     1      40.147  18.802  60.114  1.00  0.00     0.000 A 
ENDBRANCH   8  15
BRANCH   8  21
ATOM     21  N   UNL     1      40.620  13.880  60.342  1.00  0.00    -0.319 N 
ATOM     22  C   UNL     1      40.775  12.547  60.112  1.00  0.00     0.109 A 
ATOM     23  C   UNL     1      41.832  14.373  60.595  1.00  0.00     0.200 A 
ATOM     24  C   UNL     1      42.108  12.223  60.228  1.00  0.00     0.131 A 
ATOM     25  N   UNL     1      42.733  13.357  60.524  1.00  0.00    -0.245 NA
ENDBRANCH   8  21
ENDBRANCH   7   8
TORSDOF 4
ENDMDL
MODEL 7
REMARK VINA RESULT:      -4.0     11.470     14.214
REMARK SMILES Clc1ccccc1C(c1ccccc1)(c1ccccc1)n1ccnc1
REMARK SMILES IDX 1 1 2 2 3 3 4 4 5 5 6 6 7 7 8 8 9 9 10 10 14 11 11 12 13 13
REMARK SMILES IDX 12 14 15 15 16 16 20 17 17 18 19 19 18 20 21 21 22 22 25 23
REMARK SMILES IDX 23 24 24 25
REMARK H PARENT
ROOT
ATOM      1  Cl  UNL     1      37.173  11.641  69.299  1.00  0.00    -0.084 Cl
ATOM      2  C   UNL     1      35.515  11.085  69.359  1.00  0.00     0.047 A 
ATOM      3  C   UNL     1      34.568  11.724  70.126  1.00  0.00     0.021 A 
ATOM      4  C   UNL     1      33.255  11.309  70.151  1.00  0.00     0.002 A 
ATOM      5  C   UNL     1      32.906  10.226  69.381  1.00  0.00     0.001 A 
ATOM      6  C   UNL     1      33.871   9.576  68.601  1.00  0.00     0.008 A 
ATOM      7  C   UNL     1      35.167   9.991  68.582  1.00  0.00     0.006 A 
ENDROOT
BRANCH   7   8
ATOM      8  C   UNL     1      36.180   9.270  67.765  1.00  0.00     0.123 C 
BRANCH   8   9
ATOM      9  C   UNL     1      36.671  10.207  66.716  1.00  0.00    -0.013 A 
ATOM     10  C   UNL     1      37.949  10.300  66.270  1.00  0.00     0.007 A 
ATOM     11  C   UNL     1      35.682  11.038  66.158  1.00  0.00     0.007 A 
ATOM     12  C   UNL     1      38.256  11.210  65.274  1.00  0.00     0.000 A 
ATOM     13  C   UNL     1      35.995  11.937  65.171  1.00  0.00     0.000 A 
ATOM     14  C   UNL     1      37.286  12.040  64.712  1.00  0.00     0.000 A 
ENDBRANCH   8   9
BRANCH   8  15
ATOM     15  C   UNL     1      35.560   8.161  66.992  1.00  0.00    -0.013 A 
ATOM     16  C   UNL     1      35.534   8.120  65.623  1.00  0.00     0.007 A 
ATOM     17  C   UNL     1      35.006   7.112  67.681  1.00  0.00     0.007 A 
ATOM     18  C   UNL     1      34.967   7.059  64.926  1.00  0.00     0.000 A 
ATOM     19  C   UNL     1      34.427   6.029  66.998  1.00  0.00     0.000 A 
ATOM     20  C   UNL     1      34.416   6.017  65.631  1.00  0.00     0.000 A 
ENDBRANCH   8  15
BRANCH   8  21
ATOM     21  N   UNL     1      37.214   8.749  68.609  1.00  0.00    -0.319 N 
ATOM     22  C   UNL     1      37.088   8.441  69.930  1.00  0.00     0.109 A 
ATOM     23  C   UNL     1      38.466   8.452  68.261  1.00  0.00     0.200 A 
ATOM     24  C   UNL     1      38.288   7.948  70.393  1.00  0.00     0.131 A 
ATOM     25  N   UNL     1      39.113   7.966  69.353  1.00  0.00    -0.245 NA
ENDBRANCH   8  21
ENDBRANCH   7   8
TORSDOF 4
ENDMDL
MODEL 8
REMARK VINA RESULT:      -4.0     11.473     14.018
REMARK SMILES Clc1ccccc1C(c1ccccc1)(c1ccccc1)n1ccnc1
REMARK SMILES IDX 1 1 2 2 3 3 4 4 5 5 6 6 7 7 8 8 9 9 10 10 14 11 11 12 13 13
REMARK SMILES IDX 12 14 15 15 16 16 20 17 17 18 19 19 18 20 21 21 22 22 25 23
REMARK SMILES IDX 23 24 24 25
REMARK H PARENT
ROOT
ATOM      1  Cl  UNL     1      40.074  16.218  64.377  1.00  0.00    -0.084 Cl
ATOM      2  C   UNL     1      39.207  17.200  63.218  1.00  0.00     0.047 A 
ATOM      3  C   UNL     1      38.870  18.506  63.489  1.00  0.00     0.021 A 
ATOM      4  C   UNL     1      38.216  19.293  62.565  1.00  0.00     0.002 A 
ATOM      5  C   UNL     1      37.903  18.735  61.350  1.00  0.00     0.001 A 
ATOM      6  C   UNL     1      38.248  17.405  61.075  1.00  0.00     0.008 A 
ATOM      7  C   UNL     1      38.892  16.634  61.993  1.00  0.00     0.006 A 
ENDROOT
BRANCH   7   8
ATOM      8  C   UNL     1      39.225  15.216  61.688  1.00  0.00     0.123 C 
BRANCH   8   9
ATOM      9  C   UNL     1      38.594  14.870  60.383  1.00  0.00    -0.013 A 
ATOM     10  C   UNL     1      37.413  14.222  60.220  1.00  0.00     0.007 A 
ATOM     11  C   UNL     1      39.317  15.286  59.249  1.00  0.00     0.007 A 
ATOM     12  C   UNL     1      36.941  13.982  58.941  1.00  0.00     0.000 A 
ATOM     13  C   UNL     1      38.841  15.045  57.986  1.00  0.00     0.000 A 
ATOM     14  C   UNL     1      37.646  14.389  57.809  1.00  0.00     0.000 A 
ENDBRANCH   8   9
BRANCH   8  15
ATOM     15  C   UNL     1      38.578  14.289  62.654  1.00  0.00    -0.013 A 
ATOM     16  C   UNL     1      39.183  13.158  63.134  1.00  0.00     0.007 A 
ATOM     17  C   UNL     1      37.320  14.593  63.110  1.00  0.00     0.007 A 
ATOM     18  C   UNL     1      38.563  12.322  64.055  1.00  0.00     0.000 A 
ATOM     19  C   UNL     1      36.673  13.763  64.041  1.00  0.00     0.000 A 
ATOM     20  C   UNL     1      37.303  12.639  64.501  1.00  0.00     0.000 A 
ENDBRANCH   8  15
BRANCH   8  21
ATOM     21  N   UNL     1      40.645  15.026  61.714  1.00  0.00    -0.319 N 
ATOM     22  C   UNL     1      41.288  13.837  61.881  1.00  0.00     0.109 A 
ATOM     23  C   UNL     1      41.586  15.957  61.562  1.00  0.00     0.200 A 
ATOM     24  C   UNL     1      42.648  14.051  61.830  1.00  0.00     0.131 A 
ATOM     25  N   UNL     1      42.803  15.355  61.634  1.00  0.00    -0.245 NA
ENDBRANCH   8  21
ENDBRANCH   7   8
TORSDOF 4
ENDMDL
MODEL 9
REMARK VINA RESULT:      -4.0     11.515     14.064
REMARK SMILES Clc1ccccc1C(c1ccccc1)(c1ccccc1)n1ccnc1
REMARK SMILES IDX 1 1 2 2 3 3 4 4 5 5 6 6 7 7 8 8 9 9 10 10 14 11 11 12 13 13
REMARK SMILES IDX 12 14 15 15 16 16 20 17 17 18 19 19 18 20 21 21 22 22 25 23
REMARK SMILES IDX 23 24 24 25
REMARK H PARENT
ROOT
ATOM      1  Cl  UNL     1      39.590  16.411  64.555  1.00  0.00    -0.084 Cl
ATOM      2  C   UNL     1      38.918  17.401  63.279  1.00  0.00     0.047 A 
ATOM      3  C   UNL     1      38.535  18.703  63.503  1.00  0.00     0.021 A 
ATOM      4  C   UNL     1      38.035  19.497  62.493  1.00  0.00     0.002 A 
ATOM      5  C   UNL     1      37.926  18.949  61.238  1.00  0.00     0.001 A 
ATOM      6  C   UNL     1      38.316  17.623  61.011  1.00  0.00     0.008 A 
ATOM      7  C   UNL     1      38.807  16.845  62.014  1.00  0.00     0.006 A 
ENDROOT
BRANCH   7   8
ATOM      8  C   UNL     1      39.191  15.431  61.754  1.00  0.00     0.123 C 
BRANCH   8   9
ATOM      9  C   UNL     1      38.706  15.069  60.393  1.00  0.00    -0.013 A 
ATOM     10  C   UNL     1      39.335  15.352  59.225  1.00  0.00     0.007 A 
ATOM     11  C   UNL     1      37.490  14.360  60.370  1.00  0.00     0.007 A 
ATOM     12  C   UNL     1      38.770  14.937  58.032  1.00  0.00     0.000 A 
ATOM     13  C   UNL     1      36.938  13.952  59.183  1.00  0.00     0.000 A 
ATOM     14  C   UNL     1      37.566  14.233  57.994  1.00  0.00     0.000 A 
ENDBRANCH   8   9
BRANCH   8  15
ATOM     15  C   UNL     1      38.460  14.499  62.654  1.00  0.00    -0.013 A 
ATOM     16  C   UNL     1      39.008  13.345  63.150  1.00  0.00     0.007 A 
ATOM     17  C   UNL     1      37.180  14.820  63.028  1.00  0.00     0.007 A 
ATOM     18  C   UNL     1      38.309  12.505  64.007  1.00  0.00     0.000 A 
ATOM     19  C   UNL     1      36.454  13.986  63.894  1.00  0.00     0.000 A 
ATOM     20  C   UNL     1      37.027  12.840  64.372  1.00  0.00     0.000 A 
ENDBRANCH   8  15
BRANCH   8  21
ATOM     21  N   UNL     1      40.604  15.263  61.931  1.00  0.00    -0.319 N 
ATOM     22  C   UNL     1      41.246  14.082  62.149  1.00  0.00     0.109 A 
ATOM     23  C   UNL     1      41.539  16.211  61.895  1.00  0.00     0.200 A 
ATOM     24  C   UNL     1      42.599  14.318  62.248  1.00  0.00     0.131 A 
ATOM     25  N   UNL     1      42.751  15.628  62.088  1.00  0.00    -0.245 NA
ENDBRANCH   8  21
ENDBRANCH   7   8
TORSDOF 4
ENDMDL
