MODEL 1
REMARK VINA RESULT:      -6.8      0.000      0.000
REMARK SMILES Clc1ccc(COC(Cn2ccnc2)c2ccc(Cl)cc2Cl)c(Cl)c1
REMARK SMILES IDX 7 1 6 2 5 3 2 4 3 5 25 6 4 7 23 8 1 9 24 10 8 11 9 12 10 13
REMARK SMILES IDX 11 14 14 15 12 16 13 17 15 18 16 19 21 20 17 21 20 22 18 23
REMARK SMILES IDX 22 24 19 25
REMARK H PARENT
ROOT
ATOM      1  O   UNL     1     106.147 132.416 125.340  1.00  0.00    -0.367 OA
ENDROOT
BRANCH   1   2
ATOM      2  C   UNL     1     106.844 132.368 124.194  1.00  0.00     0.198 C 
BRANCH   2   3
ATOM      3  C   UNL     1     106.320 133.241 123.121  1.00  0.00    -0.004 A 
ATOM      4  C   UNL     1     105.119 134.689 120.996  1.00  0.00     0.042 A 
ATOM      5  C   UNL     1     104.400 133.799 121.774  1.00  0.00     0.021 A 
ATOM      6  C   UNL     1     106.449 134.835 121.309  1.00  0.00     0.041 A 
ATOM      7  C   UNL     1     104.960 133.087 122.808  1.00  0.00     0.009 A 
ATOM      8  C   UNL     1     107.034 134.116 122.362  1.00  0.00     0.048 A 
ATOM      9  Cl  UNL     1     104.378 135.581 119.675  1.00  0.00    -0.084 Cl
ATOM     10  Cl  UNL     1     108.718 134.419 122.777  1.00  0.00    -0.084 Cl
ENDBRANCH   2   3
ENDBRANCH   1   2
BRANCH   1  11
ATOM     11  C   UNL     1     106.075 131.515 126.299  1.00  0.00     0.170 C 
BRANCH  11  12
ATOM     12  C   UNL     1     104.833 131.857 127.160  1.00  0.00     0.160 C 
BRANCH  12  13
ATOM     13  N   UNL     1     104.330 133.129 126.742  1.00  0.00    -0.335 N 
ATOM     14  C   UNL     1     104.776 134.346 127.091  1.00  0.00     0.107 A 
ATOM     15  C   UNL     1     103.285 133.272 125.902  1.00  0.00     0.199 A 
ATOM     16  C   UNL     1     103.963 135.244 126.432  1.00  0.00     0.130 A 
ATOM     17  N   UNL     1     103.058 134.563 125.711  1.00  0.00    -0.245 NA
ENDBRANCH  12  13
ENDBRANCH  11  12
BRANCH  11  18
ATOM     18  C   UNL     1     105.875 130.108 125.767  1.00  0.00     0.001 A 
ATOM     19  C   UNL     1     105.044 129.852 124.703  1.00  0.00     0.009 A 
ATOM     20  C   UNL     1     106.530 129.056 126.356  1.00  0.00     0.048 A 
ATOM     21  C   UNL     1     104.880 128.539 124.241  1.00  0.00     0.021 A 
ATOM     22  C   UNL     1     106.375 127.747 125.905  1.00  0.00     0.041 A 
ATOM     23  C   UNL     1     105.539 127.488 124.834  1.00  0.00     0.042 A 
ATOM     24  Cl  UNL     1     107.585 129.401 127.714  1.00  0.00    -0.084 Cl
ATOM     25  Cl  UNL     1     105.333 125.841 124.260  1.00  0.00    -0.084 Cl
ENDBRANCH  11  18
ENDBRANCH   1  11
TORSDOF 6
ENDMDL
MODEL 2
REMARK VINA RESULT:      -6.5      2.922      6.057
REMARK SMILES Clc1ccc(COC(Cn2ccnc2)c2ccc(Cl)cc2Cl)c(Cl)c1
REMARK SMILES IDX 7 1 6 2 5 3 2 4 3 5 25 6 4 7 23 8 1 9 24 10 8 11 9 12 10 13
REMARK SMILES IDX 11 14 14 15 12 16 13 17 15 18 16 19 21 20 17 21 20 22 18 23
REMARK SMILES IDX 22 24 19 25
REMARK H PARENT
ROOT
ATOM      1  O   UNL     1     107.009 131.702 123.627  1.00  0.00    -0.367 OA
ENDROOT
BRANCH   1   2
ATOM      2  C   UNL     1     107.977 131.660 124.555  1.00  0.00     0.198 C 
BRANCH   2   3
ATOM      3  C   UNL     1     107.923 130.478 125.443  1.00  0.00    -0.004 A 
ATOM      4  C   UNL     1     107.794 128.040 126.891  1.00  0.00     0.042 A 
ATOM      5  C   UNL     1     108.379 128.119 125.640  1.00  0.00     0.021 A 
ATOM      6  C   UNL     1     107.278 129.209 127.397  1.00  0.00     0.041 A 
ATOM      7  C   UNL     1     108.453 129.287 124.921  1.00  0.00     0.009 A 
ATOM      8  C   UNL     1     107.348 130.410 126.674  1.00  0.00     0.048 A 
ATOM      9  Cl  UNL     1     107.707 126.530 127.786  1.00  0.00    -0.084 Cl
ATOM     10  Cl  UNL     1     106.758 131.894 127.416  1.00  0.00    -0.084 Cl
ENDBRANCH   2   3
ENDBRANCH   1   2
BRANCH   1  11
ATOM     11  C   UNL     1     106.105 132.639 123.421  1.00  0.00     0.170 C 
BRANCH  11  12
ATOM     12  C   UNL     1     105.480 132.378 122.028  1.00  0.00     0.160 C 
BRANCH  12  13
ATOM     13  N   UNL     1     105.234 133.638 121.399  1.00  0.00    -0.335 N 
ATOM     14  C   UNL     1     104.253 133.951 120.538  1.00  0.00     0.107 A 
ATOM     15  C   UNL     1     106.001 134.729 121.601  1.00  0.00     0.199 A 
ATOM     16  C   UNL     1     104.446 135.278 120.217  1.00  0.00     0.130 A 
ATOM     17  N   UNL     1     105.522 135.732 120.880  1.00  0.00    -0.245 NA
ENDBRANCH  12  13
ENDBRANCH  11  12
BRANCH  11  18
ATOM     18  C   UNL     1     104.975 132.596 124.433  1.00  0.00     0.001 A 
ATOM     19  C   UNL     1     104.597 133.713 125.138  1.00  0.00     0.009 A 
ATOM     20  C   UNL     1     104.308 131.419 124.661  1.00  0.00     0.048 A 
ATOM     21  C   UNL     1     103.552 133.635 126.068  1.00  0.00     0.021 A 
ATOM     22  C   UNL     1     103.266 131.330 125.583  1.00  0.00     0.041 A 
ATOM     23  C   UNL     1     102.886 132.453 126.293  1.00  0.00     0.042 A 
ATOM     24  Cl  UNL     1     104.805 130.003 123.753  1.00  0.00    -0.084 Cl
ATOM     25  Cl  UNL     1     101.577 132.351 127.460  1.00  0.00    -0.084 Cl
ENDBRANCH  11  18
ENDBRANCH   1  11
TORSDOF 6
ENDMDL
MODEL 3
REMARK VINA RESULT:      -6.5      2.432      6.323
REMARK SMILES Clc1ccc(COC(Cn2ccnc2)c2ccc(Cl)cc2Cl)c(Cl)c1
REMARK SMILES IDX 7 1 6 2 5 3 2 4 3 5 25 6 4 7 23 8 1 9 24 10 8 11 9 12 10 13
REMARK SMILES IDX 11 14 14 15 12 16 13 17 15 18 16 19 21 20 17 21 20 22 18 23
REMARK SMILES IDX 22 24 19 25
REMARK H PARENT
ROOT
ATOM      1  O   UNL     1     105.142 131.222 123.725  1.00  0.00    -0.367 OA
ENDROOT
BRANCH   1   2
ATOM      2  C   UNL     1     104.424 130.576 124.657  1.00  0.00     0.198 C 
BRANCH   2   3
ATOM      3  C   UNL     1     105.167 129.518 125.377  1.00  0.00    -0.004 A 
ATOM      4  C   UNL     1     106.768 127.714 126.873  1.00  0.00     0.042 A 
ATOM      5  C   UNL     1     106.496 128.996 127.319  1.00  0.00     0.021 A 
ATOM      6  C   UNL     1     106.219 127.361 125.664  1.00  0.00     0.041 A 
ATOM      7  C   UNL     1     105.724 129.886 126.612  1.00  0.00     0.009 A 
ATOM      8  C   UNL     1     105.428 128.259 124.932  1.00  0.00     0.048 A 
ATOM      9  Cl  UNL     1     107.765 126.599 127.795  1.00  0.00    -0.084 Cl
ATOM     10  Cl  UNL     1     104.670 127.716 123.438  1.00  0.00    -0.084 Cl
ENDBRANCH   2   3
ENDBRANCH   1   2
BRANCH   1  11
ATOM     11  C   UNL     1     105.493 132.492 123.690  1.00  0.00     0.170 C 
BRANCH  11  12
ATOM     12  C   UNL     1     104.215 133.314 123.389  1.00  0.00     0.160 C 
BRANCH  12  13
ATOM     13  N   UNL     1     104.382 133.965 122.127  1.00  0.00    -0.335 N 
ATOM     14  C   UNL     1     104.662 135.258 121.898  1.00  0.00     0.107 A 
ATOM     15  C   UNL     1     104.270 133.328 120.944  1.00  0.00     0.199 A 
ATOM     16  C   UNL     1     104.718 135.391 120.527  1.00  0.00     0.130 A 
ATOM     17  N   UNL     1     104.474 134.196 119.965  1.00  0.00    -0.245 NA
ENDBRANCH  12  13
ENDBRANCH  11  12
BRANCH  11  18
ATOM     18  C   UNL     1     106.040 132.986 125.017  1.00  0.00     0.001 A 
ATOM     19  C   UNL     1     105.231 133.598 125.945  1.00  0.00     0.009 A 
ATOM     20  C   UNL     1     107.371 132.829 125.307  1.00  0.00     0.048 A 
ATOM     21  C   UNL     1     105.772 134.046 127.158  1.00  0.00     0.021 A 
ATOM     22  C   UNL     1     107.918 133.270 126.510  1.00  0.00     0.041 A 
ATOM     23  C   UNL     1     107.107 133.885 127.445  1.00  0.00     0.042 A 
ATOM     24  Cl  UNL     1     108.387 132.048 124.109  1.00  0.00    -0.084 Cl
ATOM     25  Cl  UNL     1     107.788 134.449 128.963  1.00  0.00    -0.084 Cl
ENDBRANCH  11  18
ENDBRANCH   1  11
TORSDOF 6
ENDMDL
MODEL 4
REMARK VINA RESULT:      -6.4      2.697      6.371
REMARK SMILES Clc1ccc(COC(Cn2ccnc2)c2ccc(Cl)cc2Cl)c(Cl)c1
REMARK SMILES IDX 7 1 6 2 5 3 2 4 3 5 25 6 4 7 23 8 1 9 24 10 8 11 9 12 10 13
REMARK SMILES IDX 11 14 14 15 12 16 13 17 15 18 16 19 21 20 17 21 20 22 18 23
REMARK SMILES IDX 22 24 19 25
REMARK H PARENT
ROOT
ATOM      1  O   UNL     1     105.913 130.164 123.970  1.00  0.00    -0.367 OA
ENDROOT
BRANCH   1   2
ATOM      2  C   UNL     1     105.602 129.399 125.028  1.00  0.00     0.198 C 
BRANCH   2   3
ATOM      3  C   UNL     1     106.759 129.016 125.867  1.00  0.00    -0.004 A 
ATOM      4  C   UNL     1     109.002 128.032 127.300  1.00  0.00     0.042 A 
ATOM      5  C   UNL     1     108.848 127.816 125.942  1.00  0.00     0.021 A 
ATOM      6  C   UNL     1     108.008 128.751 127.919  1.00  0.00     0.041 A 
ATOM      7  C   UNL     1     107.771 128.283 125.228  1.00  0.00     0.009 A 
ATOM      8  C   UNL     1     106.903 129.234 127.203  1.00  0.00     0.048 A 
ATOM      9  Cl  UNL     1     110.388 127.417 128.190  1.00  0.00    -0.084 Cl
ATOM     10  Cl  UNL     1     105.713 130.233 128.031  1.00  0.00    -0.084 Cl
ENDBRANCH   2   3
ENDBRANCH   1   2
BRANCH   1  11
ATOM     11  C   UNL     1     105.801 131.471 123.838  1.00  0.00     0.170 C 
BRANCH  11  12
ATOM     12  C   UNL     1     105.186 131.741 122.442  1.00  0.00     0.160 C 
BRANCH  12  13
ATOM     13  N   UNL     1     105.465 133.095 122.079  1.00  0.00    -0.335 N 
ATOM     14  C   UNL     1     104.623 133.997 121.550  1.00  0.00     0.107 A 
ATOM     15  C   UNL     1     106.678 133.668 122.228  1.00  0.00     0.199 A 
ATOM     16  C   UNL     1     105.365 135.146 121.379  1.00  0.00     0.130 A 
ATOM     17  N   UNL     1     106.620 134.920 121.801  1.00  0.00    -0.245 NA
ENDBRANCH  12  13
ENDBRANCH  11  12
BRANCH  11  18
ATOM     18  C   UNL     1     104.866 132.086 124.864  1.00  0.00     0.001 A 
ATOM     19  C   UNL     1     103.511 131.857 124.831  1.00  0.00     0.009 A 
ATOM     20  C   UNL     1     105.372 132.895 125.850  1.00  0.00     0.048 A 
ATOM     21  C   UNL     1     102.678 132.446 125.793  1.00  0.00     0.021 A 
ATOM     22  C   UNL     1     104.553 133.484 126.811  1.00  0.00     0.041 A 
ATOM     23  C   UNL     1     103.190 133.254 126.780  1.00  0.00     0.042 A 
ATOM     24  Cl  UNL     1     107.103 133.176 125.874  1.00  0.00    -0.084 Cl
ATOM     25  Cl  UNL     1     102.148 133.996 127.983  1.00  0.00    -0.084 Cl
ENDBRANCH  11  18
ENDBRANCH   1  11
TORSDOF 6
ENDMDL
MODEL 5
REMARK VINA RESULT:      -6.3      2.928      4.355
REMARK SMILES Clc1ccc(COC(Cn2ccnc2)c2ccc(Cl)cc2Cl)c(Cl)c1
REMARK SMILES IDX 7 1 6 2 5 3 2 4 3 5 25 6 4 7 23 8 1 9 24 10 8 11 9 12 10 13
REMARK SMILES IDX 11 14 14 15 12 16 13 17 15 18 16 19 21 20 17 21 20 22 18 23
REMARK SMILES IDX 22 24 19 25
REMARK H PARENT
ROOT
ATOM      1  O   UNL     1     106.789 132.670 124.563  1.00  0.00    -0.367 OA
ENDROOT
BRANCH   1   2
ATOM      2  C   UNL     1     107.970 133.131 125.003  1.00  0.00     0.198 C 
BRANCH   2   3
ATOM      3  C   UNL     1     108.954 132.077 125.332  1.00  0.00    -0.004 A 
ATOM      4  C   UNL     1     110.670 129.863 125.793  1.00  0.00     0.042 A 
ATOM      5  C   UNL     1     109.976 130.017 124.606  1.00  0.00     0.021 A 
ATOM      6  C   UNL     1     110.483 130.842 126.739  1.00  0.00     0.041 A 
ATOM      7  C   UNL     1     109.140 131.080 124.361  1.00  0.00     0.009 A 
ATOM      8  C   UNL     1     109.634 131.934 126.502  1.00  0.00     0.048 A 
ATOM      9  Cl  UNL     1     111.727 128.489 126.083  1.00  0.00    -0.084 Cl
ATOM     10  Cl  UNL     1     109.512 133.206 127.713  1.00  0.00    -0.084 Cl
ENDBRANCH   2   3
ENDBRANCH   1   2
BRANCH   1  11
ATOM     11  C   UNL     1     105.792 132.162 125.259  1.00  0.00     0.170 C 
BRANCH  11  12
ATOM     12  C   UNL     1     104.502 132.901 124.824  1.00  0.00     0.160 C 
BRANCH  12  13
ATOM     13  N   UNL     1     103.528 132.761 125.861  1.00  0.00    -0.335 N 
ATOM     14  C   UNL     1     103.618 133.173 127.136  1.00  0.00     0.107 A 
ATOM     15  C   UNL     1     102.332 132.163 125.680  1.00  0.00     0.199 A 
ATOM     16  C   UNL     1     102.430 132.804 127.732  1.00  0.00     0.130 A 
ATOM     17  N   UNL     1     101.660 132.187 126.821  1.00  0.00    -0.245 NA
ENDBRANCH  12  13
ENDBRANCH  11  12
BRANCH  11  18
ATOM     18  C   UNL     1     105.575 130.685 124.981  1.00  0.00     0.001 A 
ATOM     19  C   UNL     1     105.042 130.248 123.792  1.00  0.00     0.009 A 
ATOM     20  C   UNL     1     105.911 129.755 125.932  1.00  0.00     0.048 A 
ATOM     21  C   UNL     1     104.852 128.877 123.572  1.00  0.00     0.021 A 
ATOM     22  C   UNL     1     105.727 128.390 125.722  1.00  0.00     0.041 A 
ATOM     23  C   UNL     1     105.191 127.948 124.527  1.00  0.00     0.042 A 
ATOM     24  Cl  UNL     1     106.588 130.333 127.443  1.00  0.00    -0.084 Cl
ATOM     25  Cl  UNL     1     104.951 126.230 124.255  1.00  0.00    -0.084 Cl
ENDBRANCH  11  18
ENDBRANCH   1  11
TORSDOF 6
ENDMDL
MODEL 6
REMARK VINA RESULT:      -6.3      2.149      3.291
REMARK SMILES Clc1ccc(COC(Cn2ccnc2)c2ccc(Cl)cc2Cl)c(Cl)c1
REMARK SMILES IDX 7 1 6 2 5 3 2 4 3 5 25 6 4 7 23 8 1 9 24 10 8 11 9 12 10 13
REMARK SMILES IDX 11 14 14 15 12 16 13 17 15 18 16 19 21 20 17 21 20 22 18 23
REMARK SMILES IDX 22 24 19 25
REMARK H PARENT
ROOT
ATOM      1  O   UNL     1     107.426 132.226 125.981  1.00  0.00    -0.367 OA
ENDROOT
BRANCH   1   2
ATOM      2  C   UNL     1     107.739 133.143 125.052  1.00  0.00     0.198 C 
BRANCH   2   3
ATOM      3  C   UNL     1     108.709 132.679 124.037  1.00  0.00    -0.004 A 
ATOM      4  C   UNL     1     110.758 131.719 122.323  1.00  0.00     0.042 A 
ATOM      5  C   UNL     1     110.539 131.177 123.578  1.00  0.00     0.021 A 
ATOM      6  C   UNL     1     109.928 132.748 121.951  1.00  0.00     0.041 A 
ATOM      7  C   UNL     1     109.554 131.626 124.424  1.00  0.00     0.009 A 
ATOM      8  C   UNL     1     108.917 133.215 122.804  1.00  0.00     0.048 A 
ATOM      9  Cl  UNL     1     112.031 131.130 121.264  1.00  0.00    -0.084 Cl
ATOM     10  Cl  UNL     1     107.822 134.470 122.231  1.00  0.00    -0.084 Cl
ENDBRANCH   2   3
ENDBRANCH   1   2
BRANCH   1  11
ATOM     11  C   UNL     1     106.235 131.789 126.339  1.00  0.00     0.170 C 
BRANCH  11  12
ATOM     12  C   UNL     1     105.196 132.824 125.840  1.00  0.00     0.160 C 
BRANCH  12  13
ATOM     13  N   UNL     1     104.157 132.930 126.817  1.00  0.00    -0.335 N 
ATOM     14  C   UNL     1     102.836 132.785 126.632  1.00  0.00     0.107 A 
ATOM     15  C   UNL     1     104.387 133.207 128.117  1.00  0.00     0.199 A 
ATOM     16  C   UNL     1     102.261 132.983 127.870  1.00  0.00     0.130 A 
ATOM     17  N   UNL     1     103.232 133.240 128.762  1.00  0.00    -0.245 NA
ENDBRANCH  12  13
ENDBRANCH  11  12
BRANCH  11  18
ATOM     18  C   UNL     1     105.882 130.459 125.700  1.00  0.00     0.001 A 
ATOM     19  C   UNL     1     105.319 130.389 124.449  1.00  0.00     0.009 A 
ATOM     20  C   UNL     1     106.120 129.291 126.379  1.00  0.00     0.048 A 
ATOM     21  C   UNL     1     105.001 129.142 123.892  1.00  0.00     0.021 A 
ATOM     22  C   UNL     1     105.809 128.046 125.835  1.00  0.00     0.041 A 
ATOM     23  C   UNL     1     105.243 127.974 124.576  1.00  0.00     0.042 A 
ATOM     24  Cl  UNL     1     106.837 129.401 127.976  1.00  0.00    -0.084 Cl
ATOM     25  Cl  UNL     1     104.843 126.411 123.882  1.00  0.00    -0.084 Cl
ENDBRANCH  11  18
ENDBRANCH   1  11
TORSDOF 6
ENDMDL
MODEL 7
REMARK VINA RESULT:      -6.3      2.660      4.764
REMARK SMILES Clc1ccc(COC(Cn2ccnc2)c2ccc(Cl)cc2Cl)c(Cl)c1
REMARK SMILES IDX 7 1 6 2 5 3 2 4 3 5 25 6 4 7 23 8 1 9 24 10 8 11 9 12 10 13
REMARK SMILES IDX 11 14 14 15 12 16 13 17 15 18 16 19 21 20 17 21 20 22 18 23
REMARK SMILES IDX 22 24 19 25
REMARK H PARENT
ROOT
ATOM      1  O   UNL     1     106.917 131.965 124.877  1.00  0.00    -0.367 OA
ENDROOT
BRANCH   1   2
ATOM      2  C   UNL     1     106.988 131.830 123.544  1.00  0.00     0.198 C 
BRANCH   2   3
ATOM      3  C   UNL     1     106.369 132.938 122.783  1.00  0.00    -0.004 A 
ATOM      4  C   UNL     1     104.997 134.853 121.199  1.00  0.00     0.042 A 
ATOM      5  C   UNL     1     104.364 133.731 121.704  1.00  0.00     0.021 A 
ATOM      6  C   UNL     1     106.329 134.991 121.507  1.00  0.00     0.041 A 
ATOM      7  C   UNL     1     105.008 132.791 122.473  1.00  0.00     0.009 A 
ATOM      8  C   UNL     1     106.999 134.040 122.292  1.00  0.00     0.048 A 
ATOM      9  Cl  UNL     1     104.151 136.035 120.212  1.00  0.00    -0.084 Cl
ATOM     10  Cl  UNL     1     108.680 134.323 122.736  1.00  0.00    -0.084 Cl
ENDBRANCH   2   3
ENDBRANCH   1   2
BRANCH   1  11
ATOM     11  C   UNL     1     106.112 131.356 125.725  1.00  0.00     0.170 C 
BRANCH  11  12
ATOM     12  C   UNL     1     106.968 130.919 126.940  1.00  0.00     0.160 C 
BRANCH  12  13
ATOM     13  N   UNL     1     107.055 129.492 126.941  1.00  0.00    -0.335 N 
ATOM     14  C   UNL     1     106.049 128.605 127.017  1.00  0.00     0.107 A 
ATOM     15  C   UNL     1     108.222 128.820 126.864  1.00  0.00     0.199 A 
ATOM     16  C   UNL     1     106.645 127.362 126.985  1.00  0.00     0.130 A 
ATOM     17  N   UNL     1     107.975 127.519 126.891  1.00  0.00    -0.245 NA
ENDBRANCH  12  13
ENDBRANCH  11  12
BRANCH  11  18
ATOM     18  C   UNL     1     105.019 132.268 126.254  1.00  0.00     0.001 A 
ATOM     19  C   UNL     1     105.303 133.314 127.100  1.00  0.00     0.009 A 
ATOM     20  C   UNL     1     103.715 132.052 125.891  1.00  0.00     0.048 A 
ATOM     21  C   UNL     1     104.267 134.133 127.573  1.00  0.00     0.021 A 
ATOM     22  C   UNL     1     102.678 132.860 126.354  1.00  0.00     0.041 A 
ATOM     23  C   UNL     1     102.961 133.913 127.204  1.00  0.00     0.042 A 
ATOM     24  Cl  UNL     1     103.373 130.712 124.812  1.00  0.00    -0.084 Cl
ATOM     25  Cl  UNL     1     101.662 134.935 127.798  1.00  0.00    -0.084 Cl
ENDBRANCH  11  18
ENDBRANCH   1  11
TORSDOF 6
ENDMDL
MODEL 8
REMARK VINA RESULT:      -6.2      2.541      6.016
REMARK SMILES Clc1ccc(COC(Cn2ccnc2)c2ccc(Cl)cc2Cl)c(Cl)c1
REMARK SMILES IDX 7 1 6 2 5 3 2 4 3 5 25 6 4 7 23 8 1 9 24 10 8 11 9 12 10 13
REMARK SMILES IDX 11 14 14 15 12 16 13 17 15 18 16 19 21 20 17 21 20 22 18 23
REMARK SMILES IDX 22 24 19 25
REMARK H PARENT
ROOT
ATOM      1  O   UNL     1     106.498 131.264 125.608  1.00  0.00    -0.367 OA
ENDROOT
BRANCH   1   2
ATOM      2  C   UNL     1     106.519 129.926 125.514  1.00  0.00     0.198 C 
BRANCH   2   3
ATOM      3  C   UNL     1     107.875 129.338 125.453  1.00  0.00    -0.004 A 
ATOM      4  C   UNL     1     110.509 128.353 125.066  1.00  0.00     0.042 A 
ATOM      5  C   UNL     1     110.115 129.595 124.598  1.00  0.00     0.021 A 
ATOM      6  C   UNL     1     109.554 127.621 125.729  1.00  0.00     0.041 A 
ATOM      7  C   UNL     1     108.846 130.092 124.774  1.00  0.00     0.009 A 
ATOM      8  C   UNL     1     108.255 128.116 125.917  1.00  0.00     0.048 A 
ATOM      9  Cl  UNL     1     112.138 127.739 124.820  1.00  0.00    -0.084 Cl
ATOM     10  Cl  UNL     1     107.105 127.174 126.861  1.00  0.00    -0.084 Cl
ENDBRANCH   2   3
ENDBRANCH   1   2
BRANCH   1  11
ATOM     11  C   UNL     1     105.462 132.077 125.558  1.00  0.00     0.170 C 
BRANCH  11  12
ATOM     12  C   UNL     1     105.721 133.218 126.573  1.00  0.00     0.160 C 
BRANCH  12  13
ATOM     13  N   UNL     1     104.470 133.608 127.144  1.00  0.00    -0.335 N 
ATOM     14  C   UNL     1     103.752 134.711 126.878  1.00  0.00     0.107 A 
ATOM     15  C   UNL     1     103.820 132.880 128.075  1.00  0.00     0.199 A 
ATOM     16  C   UNL     1     102.634 134.632 127.682  1.00  0.00     0.130 A 
ATOM     17  N   UNL     1     102.699 133.502 128.405  1.00  0.00    -0.245 NA
ENDBRANCH  12  13
ENDBRANCH  11  12
BRANCH  11  18
ATOM     18  C   UNL     1     105.290 132.724 124.195  1.00  0.00     0.001 A 
ATOM     19  C   UNL     1     106.368 133.183 123.476  1.00  0.00     0.009 A 
ATOM     20  C   UNL     1     104.035 132.864 123.659  1.00  0.00     0.048 A 
ATOM     21  C   UNL     1     106.171 133.779 122.222  1.00  0.00     0.021 A 
ATOM     22  C   UNL     1     103.828 133.454 122.414  1.00  0.00     0.041 A 
ATOM     23  C   UNL     1     104.911 133.916 121.689  1.00  0.00     0.042 A 
ATOM     24  Cl  UNL     1     102.672 132.274 124.593  1.00  0.00    -0.084 Cl
ATOM     25  Cl  UNL     1     104.661 134.666 120.120  1.00  0.00    -0.084 Cl
ENDBRANCH  11  18
ENDBRANCH   1  11
TORSDOF 6
ENDMDL
MODEL 9
REMARK VINA RESULT:      -6.2      2.417      3.361
REMARK SMILES Clc1ccc(COC(Cn2ccnc2)c2ccc(Cl)cc2Cl)c(Cl)c1
REMARK SMILES IDX 7 1 6 2 5 3 2 4 3 5 25 6 4 7 23 8 1 9 24 10 8 11 9 12 10 13
REMARK SMILES IDX 11 14 14 15 12 16 13 17 15 18 16 19 21 20 17 21 20 22 18 23
REMARK SMILES IDX 22 24 19 25
REMARK H PARENT
ROOT
ATOM      1  O   UNL     1     106.416 133.286 124.508  1.00  0.00    -0.367 OA
ENDROOT
BRANCH   1   2
ATOM      2  C   UNL     1     106.862 132.862 123.315  1.00  0.00     0.198 C 
BRANCH   2   3
ATOM      3  C   UNL     1     108.315 133.041 123.106  1.00  0.00    -0.004 A 
ATOM      4  C   UNL     1     111.033 133.502 122.430  1.00  0.00     0.042 A 
ATOM      5  C   UNL     1     110.018 134.332 121.989  1.00  0.00     0.021 A 
ATOM      6  C   UNL     1     110.654 132.440 123.214  1.00  0.00     0.041 A 
ATOM      7  C   UNL     1     108.696 134.129 122.304  1.00  0.00     0.009 A 
ATOM      8  C   UNL     1     109.308 132.220 123.545  1.00  0.00     0.048 A 
ATOM      9  Cl  UNL     1     112.716 133.782 122.006  1.00  0.00    -0.084 Cl
ATOM     10  Cl  UNL     1     108.896 130.900 124.635  1.00  0.00    -0.084 Cl
ENDBRANCH   2   3
ENDBRANCH   1   2
BRANCH   1  11
ATOM     11  C   UNL     1     105.589 132.685 125.339  1.00  0.00     0.170 C 
BRANCH  11  12
ATOM     12  C   UNL     1     104.193 133.327 125.144  1.00  0.00     0.160 C 
BRANCH  12  13
ATOM     13  N   UNL     1     103.446 133.163 126.352  1.00  0.00    -0.335 N 
ATOM     14  C   UNL     1     102.361 132.398 126.552  1.00  0.00     0.107 A 
ATOM     15  C   UNL     1     103.754 133.792 127.505  1.00  0.00     0.199 A 
ATOM     16  C   UNL     1     102.013 132.582 127.874  1.00  0.00     0.130 A 
ATOM     17  N   UNL     1     102.880 133.440 128.436  1.00  0.00    -0.245 NA
ENDBRANCH  12  13
ENDBRANCH  11  12
BRANCH  11  18
ATOM     18  C   UNL     1     105.443 131.202 125.051  1.00  0.00     0.001 A 
ATOM     19  C   UNL     1     104.956 130.748 123.848  1.00  0.00     0.009 A 
ATOM     20  C   UNL     1     105.796 130.283 126.006  1.00  0.00     0.048 A 
ATOM     21  C   UNL     1     104.829 129.371 123.619  1.00  0.00     0.021 A 
ATOM     22  C   UNL     1     105.676 128.912 125.787  1.00  0.00     0.041 A 
ATOM     23  C   UNL     1     105.187 128.453 124.579  1.00  0.00     0.042 A 
ATOM     24  Cl  UNL     1     106.414 130.882 127.534  1.00  0.00    -0.084 Cl
ATOM     25  Cl  UNL     1     105.027 126.727 124.295  1.00  0.00    -0.084 Cl
ENDBRANCH  11  18
ENDBRANCH   1  11
TORSDOF 6
ENDMDL
