MODEL 1
REMARK VINA RESULT:      -6.7      0.000      0.000
REMARK SMILES O=C1c2c([O-])ccc(O)c2C(=O)c2c(NCC[NH2+]CCO)ccc(NCCNCCO)c21
REMARK SMILES IDX 1 1 2 2 3 3 4 4 5 5 6 6 7 7 8 8 10 9 11 10 12 11 13 12 14 13
REMARK SMILES IDX 22 14 23 15 24 16 32 17 25 18 26 20 27 21 28 22 29 24 30 25
REMARK SMILES IDX 31 26 9 28 15 30 16 32 17 33 18 34 19 37 20 38 21 39
REMARK H PARENT 25 19 28 23 31 27 9 29 15 31 18 35 18 36 21 40
ROOT
ATOM      1  O   UNL     1     103.692 134.596 124.631  1.00  0.00    -0.288 OA
ATOM      2  C   UNL     1     104.461 133.728 125.112  1.00  0.00     0.196 C 
ATOM      3  C   UNL     1     104.151 133.189 126.457  1.00  0.00     0.030 A 
ATOM      4  C   UNL     1     103.030 133.676 127.101  1.00  0.00    -0.097 A 
ATOM      5  O   UNL     1     102.243 134.638 126.476  1.00  0.00    -0.872 OA
ATOM      6  C   UNL     1     102.720 133.189 128.352  1.00  0.00    -0.004 A 
ATOM      7  C   UNL     1     103.510 132.242 128.942  1.00  0.00     0.046 A 
ATOM      8  C   UNL     1     104.633 131.744 128.318  1.00  0.00     0.127 A 
ATOM      9  C   UNL     1     104.935 132.245 127.052  1.00  0.00     0.075 A 
ATOM     10  C   UNL     1     106.121 131.744 126.347  1.00  0.00     0.200 C 
ATOM     11  O   UNL     1     106.783 130.878 126.968  1.00  0.00    -0.288 OA
ATOM     12  C   UNL     1     106.447 132.259 125.024  1.00  0.00     0.059 A 
ATOM     13  C   UNL     1     107.564 131.759 124.415  1.00  0.00     0.046 A 
ATOM     14  C   UNL     1     107.848 132.284 123.138  1.00  0.00     0.028 A 
ATOM     15  C   UNL     1     107.059 133.224 122.553  1.00  0.00     0.028 A 
ATOM     16  C   UNL     1     105.911 133.738 123.178  1.00  0.00     0.046 A 
ATOM     17  C   UNL     1     105.620 133.240 124.421  1.00  0.00     0.059 A 
ENDROOT
BRANCH  16  18
ATOM     18  N   UNL     1     105.138 134.695 122.457  1.00  0.00    -0.383 N 
ATOM     19  H   UNL     1     105.011 135.640 122.790  1.00  0.00     0.160 HD
BRANCH  18  20
ATOM     20  C   UNL     1     104.483 134.365 121.204  1.00  0.00     0.128 C 
BRANCH  20  21
ATOM     21  C   UNL     1     104.549 135.429 120.168  1.00  0.00     0.102 C 
BRANCH  21  22
ATOM     22  N   UNL     1     103.991 136.697 120.655  1.00  0.00    -0.313 NA
ATOM     23  H   UNL     1     103.195 136.441 121.289  1.00  0.00     0.122 HD
BRANCH  22  24
ATOM     24  C   UNL     1     103.397 137.362 119.505  1.00  0.00     0.109 C 
BRANCH  24  25
ATOM     25  C   UNL     1     102.579 138.559 119.926  1.00  0.00     0.171 C 
BRANCH  25  26
ATOM     26  O   UNL     1     101.385 138.640 119.214  1.00  0.00    -0.395 OA
ATOM     27  H   UNL     1     101.368 139.529 118.761  1.00  0.00     0.210 HD
ENDBRANCH  25  26
ENDBRANCH  24  25
ENDBRANCH  22  24
ENDBRANCH  21  22
ENDBRANCH  20  21
ENDBRANCH  18  20
ENDBRANCH  16  18
BRANCH   8  28
ATOM     28  O   UNL     1     105.440 130.774 128.926  1.00  0.00    -0.507 OA
ATOM     29  H   UNL     1     106.224 130.345 128.432  1.00  0.00     0.293 HD
ENDBRANCH   8  28
BRANCH  13  30
ATOM     30  N   UNL     1     108.437 130.786 124.944  1.00  0.00    -0.379 N 
ATOM     31  H   UNL     1     108.176 130.033 125.563  1.00  0.00     0.160 HD
BRANCH  30  32
ATOM     32  C   UNL     1     109.875 130.812 124.605  1.00  0.00     0.174 C 
BRANCH  32  33
ATOM     33  C   UNL     1     110.443 129.452 124.425  1.00  0.00     0.281 C 
BRANCH  33  34
ATOM     34  N   UNL     1     110.114 128.522 125.461  1.00  0.00    -0.343 N 
ATOM     35  H   UNL     1     110.541 128.756 126.386  1.00  0.00     0.346 HD
ATOM     36  H   UNL     1     109.076 128.563 125.608  1.00  0.00     0.346 HD
BRANCH  34  37
ATOM     37  C   UNL     1     110.431 127.152 125.137  1.00  0.00     0.289 C 
BRANCH  37  38
ATOM     38  C   UNL     1     111.134 127.027 123.804  1.00  0.00     0.217 C 
BRANCH  38  39
ATOM     39  O   UNL     1     110.428 126.139 123.011  1.00  0.00    -0.391 OA
ATOM     40  H   UNL     1     111.089 125.476 122.656  1.00  0.00     0.210 HD
ENDBRANCH  38  39
ENDBRANCH  37  38
ENDBRANCH  34  37
ENDBRANCH  33  34
ENDBRANCH  32  33
ENDBRANCH  30  32
ENDBRANCH  13  30
TORSDOF 15
ENDMDL
MODEL 2
REMARK VINA RESULT:      -6.6      2.452      7.481
REMARK SMILES O=C1c2c([O-])ccc(O)c2C(=O)c2c(NCC[NH2+]CCO)ccc(NCCNCCO)c21
REMARK SMILES IDX 1 1 2 2 3 3 4 4 5 5 6 6 7 7 8 8 10 9 11 10 12 11 13 12 14 13
REMARK SMILES IDX 22 14 23 15 24 16 32 17 25 18 26 20 27 21 28 22 29 24 30 25
REMARK SMILES IDX 31 26 9 28 15 30 16 32 17 33 18 34 19 37 20 38 21 39
REMARK H PARENT 25 19 28 23 31 27 9 29 15 31 18 35 18 36 21 40
ROOT
ATOM      1  O   UNL     1     105.351 130.369 126.706  1.00  0.00    -0.288 OA
ATOM      2  C   UNL     1     105.896 130.945 125.733  1.00  0.00     0.196 C 
ATOM      3  C   UNL     1     107.349 130.738 125.525  1.00  0.00     0.030 A 
ATOM      4  C   UNL     1     108.015 129.919 126.417  1.00  0.00    -0.097 A 
ATOM      5  O   UNL     1     107.312 129.327 127.462  1.00  0.00    -0.872 OA
ATOM      6  C   UNL     1     109.365 129.710 126.243  1.00  0.00    -0.004 A 
ATOM      7  C   UNL     1     110.031 130.304 125.208  1.00  0.00     0.046 A 
ATOM      8  C   UNL     1     109.387 131.124 124.308  1.00  0.00     0.127 A 
ATOM      9  C   UNL     1     108.020 131.327 124.494  1.00  0.00     0.075 A 
ATOM     10  C   UNL     1     107.289 132.192 123.560  1.00  0.00     0.200 C 
ATOM     11  O   UNL     1     107.984 132.692 122.643  1.00  0.00    -0.288 OA
ATOM     12  C   UNL     1     105.862 132.412 123.744  1.00  0.00     0.059 A 
ATOM     13  C   UNL     1     105.233 133.230 122.846  1.00  0.00     0.046 A 
ATOM     14  C   UNL     1     103.852 133.420 123.059  1.00  0.00     0.028 A 
ATOM     15  C   UNL     1     103.192 132.827 124.089  1.00  0.00     0.028 A 
ATOM     16  C   UNL     1     103.838 131.987 125.012  1.00  0.00     0.046 A 
ATOM     17  C   UNL     1     105.181 131.791 124.821  1.00  0.00     0.059 A 
ENDROOT
BRANCH  16  18
ATOM     18  N   UNL     1     103.041 131.390 126.032  1.00  0.00    -0.383 N 
ATOM     19  H   UNL     1     103.110 130.407 126.258  1.00  0.00     0.160 HD
BRANCH  18  20
ATOM     20  C   UNL     1     102.080 132.157 126.804  1.00  0.00     0.128 C 
BRANCH  20  21
ATOM     21  C   UNL     1     102.533 132.532 128.169  1.00  0.00     0.102 C 
BRANCH  21  22
ATOM     22  N   UNL     1     103.384 133.729 128.149  1.00  0.00    -0.313 NA
ATOM     23  H   UNL     1     103.395 134.096 129.132  1.00  0.00     0.122 HD
BRANCH  22  24
ATOM     24  C   UNL     1     102.684 134.725 127.351  1.00  0.00     0.109 C 
BRANCH  24  25
ATOM     25  C   UNL     1     103.650 135.549 126.535  1.00  0.00     0.171 C 
BRANCH  25  26
ATOM     26  O   UNL     1     102.983 136.421 125.677  1.00  0.00    -0.395 OA
ATOM     27  H   UNL     1     103.289 136.217 124.749  1.00  0.00     0.210 HD
ENDBRANCH  25  26
ENDBRANCH  24  25
ENDBRANCH  22  24
ENDBRANCH  21  22
ENDBRANCH  20  21
ENDBRANCH  18  20
ENDBRANCH  16  18
BRANCH   8  28
ATOM     28  O   UNL     1     110.072 131.730 123.247  1.00  0.00    -0.507 OA
ATOM     29  H   UNL     1     110.159 132.746 123.178  1.00  0.00     0.293 HD
ENDBRANCH   8  28
BRANCH  13  30
ATOM     30  N   UNL     1     105.834 133.883 121.751  1.00  0.00    -0.379 N 
ATOM     31  H   UNL     1     106.611 133.535 121.210  1.00  0.00     0.160 HD
BRANCH  30  32
ATOM     32  C   UNL     1     105.333 135.199 121.303  1.00  0.00     0.174 C 
BRANCH  32  33
ATOM     33  C   UNL     1     104.497 135.104 120.080  1.00  0.00     0.281 C 
BRANCH  33  34
ATOM     34  N   UNL     1     104.287 136.343 119.397  1.00  0.00    -0.343 N 
ATOM     35  H   UNL     1     105.173 136.837 119.145  1.00  0.00     0.346 HD
ATOM     36  H   UNL     1     103.813 136.128 118.485  1.00  0.00     0.346 HD
BRANCH  34  37
ATOM     37  C   UNL     1     103.428 137.262 120.103  1.00  0.00     0.289 C 
BRANCH  37  38
ATOM     38  C   UNL     1     102.784 138.269 119.177  1.00  0.00     0.217 C 
BRANCH  38  39
ATOM     39  O   UNL     1     101.615 138.725 119.762  1.00  0.00    -0.391 OA
ATOM     40  H   UNL     1     100.863 138.207 119.351  1.00  0.00     0.210 HD
ENDBRANCH  38  39
ENDBRANCH  37  38
ENDBRANCH  34  37
ENDBRANCH  33  34
ENDBRANCH  32  33
ENDBRANCH  30  32
ENDBRANCH  13  30
TORSDOF 15
ENDMDL
MODEL 3
REMARK VINA RESULT:      -6.4      1.587      7.739
REMARK SMILES O=C1c2c([O-])ccc(O)c2C(=O)c2c(NCC[NH2+]CCO)ccc(NCCNCCO)c21
REMARK SMILES IDX 1 1 2 2 3 3 4 4 5 5 6 6 7 7 8 8 10 9 11 10 12 11 13 12 14 13
REMARK SMILES IDX 22 14 23 15 24 16 32 17 25 18 26 20 27 21 28 22 29 24 30 25
REMARK SMILES IDX 31 26 9 28 15 30 16 32 17 33 18 34 19 37 20 38 21 39
REMARK H PARENT 25 19 28 23 31 27 9 29 15 31 18 35 18 36 21 40
ROOT
ATOM      1  O   UNL     1     107.050 130.948 127.152  1.00  0.00    -0.288 OA
ATOM      2  C   UNL     1     106.279 131.716 126.528  1.00  0.00     0.196 C 
ATOM      3  C   UNL     1     105.035 132.155 127.203  1.00  0.00     0.030 A 
ATOM      4  C   UNL     1     104.802 131.692 128.484  1.00  0.00    -0.097 A 
ATOM      5  O   UNL     1     105.726 130.843 129.086  1.00  0.00    -0.872 OA
ATOM      6  C   UNL     1     103.653 132.087 129.133  1.00  0.00    -0.004 A 
ATOM      7  C   UNL     1     102.762 132.922 128.518  1.00  0.00     0.046 A 
ATOM      8  C   UNL     1     102.975 133.395 127.242  1.00  0.00     0.127 A 
ATOM      9  C   UNL     1     104.142 132.988 126.596  1.00  0.00     0.075 A 
ATOM     10  C   UNL     1     104.413 133.466 125.235  1.00  0.00     0.200 C 
ATOM     11  O   UNL     1     103.538 134.227 124.755  1.00  0.00    -0.288 OA
ATOM     12  C   UNL     1     105.627 133.048 124.550  1.00  0.00     0.059 A 
ATOM     13  C   UNL     1     105.827 133.522 123.283  1.00  0.00     0.046 A 
ATOM     14  C   UNL     1     107.013 133.094 122.652  1.00  0.00     0.028 A 
ATOM     15  C   UNL     1     107.898 132.265 123.267  1.00  0.00     0.028 A 
ATOM     16  C   UNL     1     107.693 131.777 124.568  1.00  0.00     0.046 A 
ATOM     17  C   UNL     1     106.545 132.183 125.197  1.00  0.00     0.059 A 
ENDROOT
BRANCH  16  18
ATOM     18  N   UNL     1     108.704 130.942 125.128  1.00  0.00    -0.383 N 
ATOM     19  H   UNL     1     109.380 131.293 125.792  1.00  0.00     0.160 HD
BRANCH  18  20
ATOM     20  C   UNL     1     108.826 129.539 124.773  1.00  0.00     0.128 C 
BRANCH  20  21
ATOM     21  C   UNL     1     109.389 128.673 125.841  1.00  0.00     0.102 C 
BRANCH  21  22
ATOM     22  N   UNL     1     108.593 127.452 126.026  1.00  0.00    -0.313 NA
ATOM     23  H   UNL     1     108.944 126.764 125.316  1.00  0.00     0.122 HD
BRANCH  22  24
ATOM     24  C   UNL     1     107.230 127.780 125.636  1.00  0.00     0.109 C 
BRANCH  24  25
ATOM     25  C   UNL     1     106.243 127.382 126.708  1.00  0.00     0.171 C 
BRANCH  25  26
ATOM     26  O   UNL     1     105.412 128.443 127.059  1.00  0.00    -0.395 OA
ATOM     27  H   UNL     1     105.077 128.852 126.213  1.00  0.00     0.210 HD
ENDBRANCH  25  26
ENDBRANCH  24  25
ENDBRANCH  22  24
ENDBRANCH  21  22
ENDBRANCH  20  21
ENDBRANCH  18  20
ENDBRANCH  16  18
BRANCH   8  28
ATOM     28  O   UNL     1     102.060 134.251 126.616  1.00  0.00    -0.507 OA
ATOM     29  H   UNL     1     102.317 134.799 125.793  1.00  0.00     0.293 HD
ENDBRANCH   8  28
BRANCH  13  30
ATOM     30  N   UNL     1     104.968 134.384 122.571  1.00  0.00    -0.379 N 
ATOM     31  H   UNL     1     103.990 134.537 122.768  1.00  0.00     0.160 HD
BRANCH  30  32
ATOM     32  C   UNL     1     105.478 135.160 121.421  1.00  0.00     0.174 C 
BRANCH  32  33
ATOM     33  C   UNL     1     104.721 134.892 120.172  1.00  0.00     0.281 C 
BRANCH  33  34
ATOM     34  N   UNL     1     104.278 136.059 119.475  1.00  0.00    -0.343 N 
ATOM     35  H   UNL     1     105.025 136.516 118.905  1.00  0.00     0.346 HD
ATOM     36  H   UNL     1     103.540 135.761 118.791  1.00  0.00     0.346 HD
BRANCH  34  37
ATOM     37  C   UNL     1     103.672 137.054 120.327  1.00  0.00     0.289 C 
BRANCH  37  38
ATOM     38  C   UNL     1     102.792 138.010 119.554  1.00  0.00     0.217 C 
BRANCH  38  39
ATOM     39  O   UNL     1     103.205 139.305 119.817  1.00  0.00    -0.391 OA
ATOM     40  H   UNL     1     103.830 139.567 119.080  1.00  0.00     0.210 HD
ENDBRANCH  38  39
ENDBRANCH  37  38
ENDBRANCH  34  37
ENDBRANCH  33  34
ENDBRANCH  32  33
ENDBRANCH  30  32
ENDBRANCH  13  30
TORSDOF 15
ENDMDL
MODEL 4
REMARK VINA RESULT:      -6.4      1.557      1.814
REMARK SMILES O=C1c2c([O-])ccc(O)c2C(=O)c2c(NCC[NH2+]CCO)ccc(NCCNCCO)c21
REMARK SMILES IDX 1 1 2 2 3 3 4 4 5 5 6 6 7 7 8 8 10 9 11 10 12 11 13 12 14 13
REMARK SMILES IDX 22 14 23 15 24 16 32 17 25 18 26 20 27 21 28 22 29 24 30 25
REMARK SMILES IDX 31 26 9 28 15 30 16 32 17 33 18 34 19 37 20 38 21 39
REMARK H PARENT 25 19 28 23 31 27 9 29 15 31 18 35 18 36 21 40
ROOT
ATOM      1  O   UNL     1     103.646 133.858 124.398  1.00  0.00    -0.288 OA
ATOM      2  C   UNL     1     104.608 133.342 125.018  1.00  0.00     0.196 C 
ATOM      3  C   UNL     1     104.405 132.974 126.439  1.00  0.00     0.030 A 
ATOM      4  C   UNL     1     103.165 133.220 126.995  1.00  0.00    -0.097 A 
ATOM      5  O   UNL     1     102.165 133.795 126.216  1.00  0.00    -0.872 OA
ATOM      6  C   UNL     1     102.951 132.885 128.314  1.00  0.00    -0.004 A 
ATOM      7  C   UNL     1     103.951 132.320 129.057  1.00  0.00     0.046 A 
ATOM      8  C   UNL     1     105.195 132.067 128.522  1.00  0.00     0.127 A 
ATOM      9  C   UNL     1     105.398 132.410 127.185  1.00  0.00     0.075 A 
ATOM     10  C   UNL     1     106.707 132.159 126.571  1.00  0.00     0.200 C 
ATOM     11  O   UNL     1     107.560 131.639 127.330  1.00  0.00    -0.288 OA
ATOM     12  C   UNL     1     106.931 132.513 125.176  1.00  0.00     0.059 A 
ATOM     13  C   UNL     1     108.170 132.259 124.657  1.00  0.00     0.046 A 
ATOM     14  C   UNL     1     108.349 132.618 123.305  1.00  0.00     0.028 A 
ATOM     15  C   UNL     1     107.353 133.178 122.570  1.00  0.00     0.028 A 
ATOM     16  C   UNL     1     106.079 133.439 123.103  1.00  0.00     0.046 A 
ATOM     17  C   UNL     1     105.887 133.097 124.416  1.00  0.00     0.059 A 
ENDROOT
BRANCH  16  18
ATOM     18  N   UNL     1     105.099 133.996 122.230  1.00  0.00    -0.383 N 
ATOM     19  H   UNL     1     104.200 133.558 122.088  1.00  0.00     0.160 HD
BRANCH  18  20
ATOM     20  C   UNL     1     105.337 135.222 121.491  1.00  0.00     0.128 C 
BRANCH  20  21
ATOM     21  C   UNL     1     104.262 135.590 120.531  1.00  0.00     0.102 C 
BRANCH  21  22
ATOM     22  N   UNL     1     103.760 136.949 120.773  1.00  0.00    -0.313 NA
ATOM     23  H   UNL     1     102.890 136.841 121.349  1.00  0.00     0.122 HD
BRANCH  22  24
ATOM     24  C   UNL     1     103.332 137.471 119.484  1.00  0.00     0.109 C 
BRANCH  24  25
ATOM     25  C   UNL     1     102.267 138.529 119.649  1.00  0.00     0.171 C 
BRANCH  25  26
ATOM     26  O   UNL     1     102.814 139.754 120.023  1.00  0.00    -0.395 OA
ATOM     27  H   UNL     1     102.456 139.977 120.927  1.00  0.00     0.210 HD
ENDBRANCH  25  26
ENDBRANCH  24  25
ENDBRANCH  22  24
ENDBRANCH  21  22
ENDBRANCH  20  21
ENDBRANCH  18  20
ENDBRANCH  16  18
BRANCH   8  28
ATOM     28  O   UNL     1     106.217 131.488 129.285  1.00  0.00    -0.507 OA
ATOM     29  H   UNL     1     106.022 130.767 129.981  1.00  0.00     0.293 HD
ENDBRANCH   8  28
BRANCH  13  30
ATOM     30  N   UNL     1     109.259 131.683 125.342  1.00  0.00    -0.379 N 
ATOM     31  H   UNL     1     109.811 132.132 126.058  1.00  0.00     0.160 HD
BRANCH  30  32
ATOM     32  C   UNL     1     109.687 130.303 125.033  1.00  0.00     0.174 C 
BRANCH  32  33
ATOM     33  C   UNL     1     108.541 129.371 124.884  1.00  0.00     0.281 C 
BRANCH  33  34
ATOM     34  N   UNL     1     108.062 128.805 126.108  1.00  0.00    -0.343 N 
ATOM     35  H   UNL     1     108.693 128.071 126.505  1.00  0.00     0.346 HD
ATOM     36  H   UNL     1     108.033 129.572 126.824  1.00  0.00     0.346 HD
BRANCH  34  37
ATOM     37  C   UNL     1     106.725 128.270 126.021  1.00  0.00     0.289 C 
BRANCH  37  38
ATOM     38  C   UNL     1     105.934 128.888 124.890  1.00  0.00     0.217 C 
BRANCH  38  39
ATOM     39  O   UNL     1     105.143 127.909 124.315  1.00  0.00    -0.391 OA
ATOM     40  H   UNL     1     104.817 127.324 125.058  1.00  0.00     0.210 HD
ENDBRANCH  38  39
ENDBRANCH  37  38
ENDBRANCH  34  37
ENDBRANCH  33  34
ENDBRANCH  32  33
ENDBRANCH  30  32
ENDBRANCH  13  30
TORSDOF 15
ENDMDL
MODEL 5
REMARK VINA RESULT:      -6.4      1.761      1.871
REMARK SMILES O=C1c2c([O-])ccc(O)c2C(=O)c2c(NCC[NH2+]CCO)ccc(NCCNCCO)c21
REMARK SMILES IDX 1 1 2 2 3 3 4 4 5 5 6 6 7 7 8 8 10 9 11 10 12 11 13 12 14 13
REMARK SMILES IDX 22 14 23 15 24 16 32 17 25 18 26 20 27 21 28 22 29 24 30 25
REMARK SMILES IDX 31 26 9 28 15 30 16 32 17 33 18 34 19 37 20 38 21 39
REMARK H PARENT 25 19 28 23 31 27 9 29 15 31 18 35 18 36 21 40
ROOT
ATOM      1  O   UNL     1     103.536 134.486 124.715  1.00  0.00    -0.288 OA
ATOM      2  C   UNL     1     104.343 133.679 125.237  1.00  0.00     0.196 C 
ATOM      3  C   UNL     1     104.051 133.186 126.603  1.00  0.00     0.030 A 
ATOM      4  C   UNL     1     102.903 133.645 127.220  1.00  0.00    -0.097 A 
ATOM      5  O   UNL     1     102.074 134.539 126.549  1.00  0.00    -0.872 OA
ATOM      6  C   UNL     1     102.609 133.199 128.490  1.00  0.00    -0.004 A 
ATOM      7  C   UNL     1     103.441 132.320 129.125  1.00  0.00     0.046 A 
ATOM      8  C   UNL     1     104.590 131.850 128.529  1.00  0.00     0.127 A 
ATOM      9  C   UNL     1     104.876 132.308 127.243  1.00  0.00     0.075 A 
ATOM     10  C   UNL     1     106.089 131.836 126.566  1.00  0.00     0.200 C 
ATOM     11  O   UNL     1     106.789 131.031 127.228  1.00  0.00    -0.288 OA
ATOM     12  C   UNL     1     106.399 132.307 125.223  1.00  0.00     0.059 A 
ATOM     13  C   UNL     1     107.543 131.836 124.642  1.00  0.00     0.046 A 
ATOM     14  C   UNL     1     107.809 132.316 123.343  1.00  0.00     0.028 A 
ATOM     15  C   UNL     1     106.979 133.190 122.714  1.00  0.00     0.028 A 
ATOM     16  C   UNL     1     105.804 133.675 123.311  1.00  0.00     0.046 A 
ATOM     17  C   UNL     1     105.529 133.218 124.573  1.00  0.00     0.059 A 
ENDROOT
BRANCH  16  18
ATOM     18  N   UNL     1     104.989 134.560 122.544  1.00  0.00    -0.383 N 
ATOM     19  H   UNL     1     104.592 135.399 122.942  1.00  0.00     0.160 HD
BRANCH  18  20
ATOM     20  C   UNL     1     104.679 134.303 121.150  1.00  0.00     0.128 C 
BRANCH  20  21
ATOM     21  C   UNL     1     104.759 135.494 120.264  1.00  0.00     0.102 C 
BRANCH  21  22
ATOM     22  N   UNL     1     103.915 136.592 120.753  1.00  0.00    -0.313 NA
ATOM     23  H   UNL     1     103.080 136.141 121.202  1.00  0.00     0.122 HD
BRANCH  22  24
ATOM     24  C   UNL     1     103.417 137.292 119.578  1.00  0.00     0.109 C 
BRANCH  24  25
ATOM     25  C   UNL     1     102.661 138.541 119.964  1.00  0.00     0.171 C 
BRANCH  25  26
ATOM     26  O   UNL     1     101.529 138.720 119.173  1.00  0.00    -0.395 OA
ATOM     27  H   UNL     1     100.820 139.115 119.753  1.00  0.00     0.210 HD
ENDBRANCH  25  26
ENDBRANCH  24  25
ENDBRANCH  22  24
ENDBRANCH  21  22
ENDBRANCH  20  21
ENDBRANCH  18  20
ENDBRANCH  16  18
BRANCH   8  28
ATOM     28  O   UNL     1     105.440 130.948 129.183  1.00  0.00    -0.507 OA
ATOM     29  H   UNL     1     106.317 130.638 128.761  1.00  0.00     0.293 HD
ENDBRANCH   8  28
BRANCH  13  30
ATOM     30  N   UNL     1     108.458 130.930 125.217  1.00  0.00    -0.379 N 
ATOM     31  H   UNL     1     109.108 131.140 125.960  1.00  0.00     0.160 HD
BRANCH  30  32
ATOM     32  C   UNL     1     108.528 129.535 124.736  1.00  0.00     0.174 C 
BRANCH  32  33
ATOM     33  C   UNL     1     107.917 128.573 125.688  1.00  0.00     0.281 C 
BRANCH  33  34
ATOM     34  N   UNL     1     106.583 128.171 125.364  1.00  0.00    -0.343 N 
ATOM     35  H   UNL     1     105.907 128.291 126.152  1.00  0.00     0.346 HD
ATOM     36  H   UNL     1     106.239 128.799 124.596  1.00  0.00     0.346 HD
BRANCH  34  37
ATOM     37  C   UNL     1     106.484 126.820 124.868  1.00  0.00     0.289 C 
BRANCH  37  38
ATOM     38  C   UNL     1     105.092 126.491 124.379  1.00  0.00     0.217 C 
BRANCH  38  39
ATOM     39  O   UNL     1     104.797 127.302 123.297  1.00  0.00    -0.391 OA
ATOM     40  H   UNL     1     103.836 127.144 123.068  1.00  0.00     0.210 HD
ENDBRANCH  38  39
ENDBRANCH  37  38
ENDBRANCH  34  37
ENDBRANCH  33  34
ENDBRANCH  32  33
ENDBRANCH  30  32
ENDBRANCH  13  30
TORSDOF 15
ENDMDL
MODEL 6
REMARK VINA RESULT:      -6.3      1.605      1.740
REMARK SMILES O=C1c2c([O-])ccc(O)c2C(=O)c2c(NCC[NH2+]CCO)ccc(NCCNCCO)c21
REMARK SMILES IDX 1 1 2 2 3 3 4 4 5 5 6 6 7 7 8 8 10 9 11 10 12 11 13 12 14 13
REMARK SMILES IDX 22 14 23 15 24 16 32 17 25 18 26 20 27 21 28 22 29 24 30 25
REMARK SMILES IDX 31 26 9 28 15 30 16 32 17 33 18 34 19 37 20 38 21 39
REMARK H PARENT 25 19 28 23 31 27 9 29 15 31 18 35 18 36 21 40
ROOT
ATOM      1  O   UNL     1     103.695 134.725 124.586  1.00  0.00    -0.288 OA
ATOM      2  C   UNL     1     104.442 133.835 125.059  1.00  0.00     0.196 C 
ATOM      3  C   UNL     1     104.133 133.309 126.410  1.00  0.00     0.030 A 
ATOM      4  C   UNL     1     103.035 133.831 127.066  1.00  0.00    -0.097 A 
ATOM      5  O   UNL     1     102.270 134.816 126.448  1.00  0.00    -0.872 OA
ATOM      6  C   UNL     1     102.726 133.357 128.322  1.00  0.00    -0.004 A 
ATOM      7  C   UNL     1     103.494 132.389 128.905  1.00  0.00     0.046 A 
ATOM      8  C   UNL     1     104.593 131.855 128.269  1.00  0.00     0.127 A 
ATOM      9  C   UNL     1     104.895 132.343 126.998  1.00  0.00     0.075 A 
ATOM     10  C   UNL     1     106.056 131.804 126.280  1.00  0.00     0.200 C 
ATOM     11  O   UNL     1     106.698 130.920 126.896  1.00  0.00    -0.288 OA
ATOM     12  C   UNL     1     106.381 132.305 124.952  1.00  0.00     0.059 A 
ATOM     13  C   UNL     1     107.475 131.770 124.331  1.00  0.00     0.046 A 
ATOM     14  C   UNL     1     107.760 132.282 123.049  1.00  0.00     0.028 A 
ATOM     15  C   UNL     1     106.993 133.244 122.471  1.00  0.00     0.028 A 
ATOM     16  C   UNL     1     105.869 133.795 123.108  1.00  0.00     0.046 A 
ATOM     17  C   UNL     1     105.578 133.309 124.356  1.00  0.00     0.059 A 
ENDROOT
BRANCH  16  18
ATOM     18  N   UNL     1     105.117 134.774 122.394  1.00  0.00    -0.383 N 
ATOM     19  H   UNL     1     105.036 135.727 122.718  1.00  0.00     0.160 HD
BRANCH  18  20
ATOM     20  C   UNL     1     104.419 134.456 121.161  1.00  0.00     0.128 C 
BRANCH  20  21
ATOM     21  C   UNL     1     104.458 135.525 120.129  1.00  0.00     0.102 C 
BRANCH  21  22
ATOM     22  N   UNL     1     103.844 136.769 120.613  1.00  0.00    -0.313 NA
ATOM     23  H   UNL     1     103.010 136.481 121.181  1.00  0.00     0.122 HD
BRANCH  22  24
ATOM     24  C   UNL     1     103.322 137.459 119.444  1.00  0.00     0.109 C 
BRANCH  24  25
ATOM     25  C   UNL     1     102.467 138.639 119.841  1.00  0.00     0.171 C 
BRANCH  25  26
ATOM     26  O   UNL     1     101.375 138.791 118.990  1.00  0.00    -0.395 OA
ATOM     27  H   UNL     1     101.714 139.181 118.137  1.00  0.00     0.210 HD
ENDBRANCH  25  26
ENDBRANCH  24  25
ENDBRANCH  22  24
ENDBRANCH  21  22
ENDBRANCH  20  21
ENDBRANCH  18  20
ENDBRANCH  16  18
BRANCH   8  28
ATOM     28  O   UNL     1     105.377 130.862 128.870  1.00  0.00    -0.507 OA
ATOM     29  H   UNL     1     106.230 131.093 129.383  1.00  0.00     0.293 HD
ENDBRANCH   8  28
BRANCH  13  30
ATOM     30  N   UNL     1     108.324 130.771 124.852  1.00  0.00    -0.379 N 
ATOM     31  H   UNL     1     108.070 129.809 125.017  1.00  0.00     0.160 HD
BRANCH  30  32
ATOM     32  C   UNL     1     109.720 131.094 125.212  1.00  0.00     0.174 C 
BRANCH  32  33
ATOM     33  C   UNL     1     110.240 130.234 126.305  1.00  0.00     0.281 C 
BRANCH  33  34
ATOM     34  N   UNL     1     109.912 128.847 126.187  1.00  0.00    -0.343 N 
ATOM     35  H   UNL     1     109.406 128.610 125.303  1.00  0.00     0.346 HD
ATOM     36  H   UNL     1     110.812 128.308 126.152  1.00  0.00     0.346 HD
BRANCH  34  37
ATOM     37  C   UNL     1     109.163 128.327 127.304  1.00  0.00     0.289 C 
BRANCH  37  38
ATOM     38  C   UNL     1     109.319 129.179 128.544  1.00  0.00     0.217 C 
BRANCH  38  39
ATOM     39  O   UNL     1     108.062 129.564 128.979  1.00  0.00    -0.391 OA
ATOM     40  H   UNL     1     108.164 130.466 129.402  1.00  0.00     0.210 HD
ENDBRANCH  38  39
ENDBRANCH  37  38
ENDBRANCH  34  37
ENDBRANCH  33  34
ENDBRANCH  32  33
ENDBRANCH  30  32
ENDBRANCH  13  30
TORSDOF 15
ENDMDL
MODEL 7
REMARK VINA RESULT:      -6.3      1.526      1.690
REMARK SMILES O=C1c2c([O-])ccc(O)c2C(=O)c2c(NCC[NH2+]CCO)ccc(NCCNCCO)c21
REMARK SMILES IDX 1 1 2 2 3 3 4 4 5 5 6 6 7 7 8 8 10 9 11 10 12 11 13 12 14 13
REMARK SMILES IDX 22 14 23 15 24 16 32 17 25 18 26 20 27 21 28 22 29 24 30 25
REMARK SMILES IDX 31 26 9 28 15 30 16 32 17 33 18 34 19 37 20 38 21 39
REMARK H PARENT 25 19 28 23 31 27 9 29 15 31 18 35 18 36 21 40
ROOT
ATOM      1  O   UNL     1     103.632 134.134 124.744  1.00  0.00    -0.288 OA
ATOM      2  C   UNL     1     104.483 133.413 125.320  1.00  0.00     0.196 C 
ATOM      3  C   UNL     1     104.171 132.918 126.681  1.00  0.00     0.030 A 
ATOM      4  C   UNL     1     102.957 133.281 127.233  1.00  0.00    -0.097 A 
ATOM      5  O   UNL     1     102.084 134.084 126.506  1.00  0.00    -0.872 OA
ATOM      6  C   UNL     1     102.644 132.832 128.498  1.00  0.00    -0.004 A 
ATOM      7  C   UNL     1     103.520 132.044 129.190  1.00  0.00     0.046 A 
ATOM      8  C   UNL     1     104.734 131.671 128.659  1.00  0.00     0.127 A 
ATOM      9  C   UNL     1     105.040 132.131 127.378  1.00  0.00     0.075 A 
ATOM     10  C   UNL     1     106.322 131.760 126.769  1.00  0.00     0.200 C 
ATOM     11  O   UNL     1     107.059 131.035 127.480  1.00  0.00    -0.288 OA
ATOM     12  C   UNL     1     106.653 132.234 125.433  1.00  0.00     0.059 A 
ATOM     13  C   UNL     1     107.862 131.860 124.916  1.00  0.00     0.046 A 
ATOM     14  C   UNL     1     108.147 132.341 123.621  1.00  0.00     0.028 A 
ATOM     15  C   UNL     1     107.273 133.123 122.935  1.00  0.00     0.028 A 
ATOM     16  C   UNL     1     106.030 133.509 123.465  1.00  0.00     0.046 A 
ATOM     17  C   UNL     1     105.737 133.051 124.723  1.00  0.00     0.059 A 
ENDROOT
BRANCH  16  18
ATOM     18  N   UNL     1     105.177 134.302 122.642  1.00  0.00    -0.383 N 
ATOM     19  H   UNL     1     104.342 134.740 123.005  1.00  0.00     0.160 HD
BRANCH  18  20
ATOM     20  C   UNL     1     105.457 134.524 121.235  1.00  0.00     0.128 C 
BRANCH  20  21
ATOM     21  C   UNL     1     104.312 135.051 120.448  1.00  0.00     0.102 C 
BRANCH  21  22
ATOM     22  N   UNL     1     104.167 136.504 120.606  1.00  0.00    -0.313 NA
ATOM     23  H   UNL     1     103.336 136.648 121.230  1.00  0.00     0.122 HD
BRANCH  22  24
ATOM     24  C   UNL     1     103.792 137.031 119.302  1.00  0.00     0.109 C 
BRANCH  24  25
ATOM     25  C   UNL     1     102.743 138.109 119.429  1.00  0.00     0.171 C 
BRANCH  25  26
ATOM     26  O   UNL     1     102.367 138.306 120.755  1.00  0.00    -0.395 OA
ATOM     27  H   UNL     1     101.817 137.520 121.029  1.00  0.00     0.210 HD
ENDBRANCH  25  26
ENDBRANCH  24  25
ENDBRANCH  22  24
ENDBRANCH  21  22
ENDBRANCH  20  21
ENDBRANCH  18  20
ENDBRANCH  16  18
BRANCH   8  28
ATOM     28  O   UNL     1     105.629 130.862 129.371  1.00  0.00    -0.507 OA
ATOM     29  H   UNL     1     106.337 130.300 128.895  1.00  0.00     0.293 HD
ENDBRANCH   8  28
BRANCH  13  30
ATOM     30  N   UNL     1     108.827 131.052 125.553  1.00  0.00    -0.379 N 
ATOM     31  H   UNL     1     109.321 131.282 126.401  1.00  0.00     0.160 HD
BRANCH  30  32
ATOM     32  C   UNL     1     109.195 129.741 124.980  1.00  0.00     0.174 C 
BRANCH  32  33
ATOM     33  C   UNL     1     108.063 128.782 124.977  1.00  0.00     0.281 C 
BRANCH  33  34
ATOM     34  N   UNL     1     108.365 127.493 125.520  1.00  0.00    -0.343 N 
ATOM     35  H   UNL     1     107.518 126.934 125.768  1.00  0.00     0.346 HD
ATOM     36  H   UNL     1     108.861 126.943 124.776  1.00  0.00     0.346 HD
BRANCH  34  37
ATOM     37  C   UNL     1     109.245 127.532 126.662  1.00  0.00     0.289 C 
BRANCH  37  38
ATOM     38  C   UNL     1     108.504 127.327 127.964  1.00  0.00     0.217 C 
BRANCH  38  39
ATOM     39  O   UNL     1     108.106 128.562 128.447  1.00  0.00    -0.391 OA
ATOM     40  H   UNL     1     108.519 128.667 129.353  1.00  0.00     0.210 HD
ENDBRANCH  38  39
ENDBRANCH  37  38
ENDBRANCH  34  37
ENDBRANCH  33  34
ENDBRANCH  32  33
ENDBRANCH  30  32
ENDBRANCH  13  30
TORSDOF 15
ENDMDL
MODEL 8
REMARK VINA RESULT:      -6.2      0.722      8.003
REMARK SMILES O=C1c2c([O-])ccc(O)c2C(=O)c2c(NCC[NH2+]CCO)ccc(NCCNCCO)c21
REMARK SMILES IDX 1 1 2 2 3 3 4 4 5 5 6 6 7 7 8 8 10 9 11 10 12 11 13 12 14 13
REMARK SMILES IDX 22 14 23 15 24 16 32 17 25 18 26 20 27 21 28 22 29 24 30 25
REMARK SMILES IDX 31 26 9 28 15 30 16 32 17 33 18 34 19 37 20 38 21 39
REMARK H PARENT 25 19 28 23 31 27 9 29 15 31 18 35 18 36 21 40
ROOT
ATOM      1  O   UNL     1     107.204 131.050 127.069  1.00  0.00    -0.288 OA
ATOM      2  C   UNL     1     106.405 131.800 126.459  1.00  0.00     0.196 C 
ATOM      3  C   UNL     1     105.155 132.196 127.149  1.00  0.00     0.030 A 
ATOM      4  C   UNL     1     104.947 131.715 128.427  1.00  0.00    -0.097 A 
ATOM      5  O   UNL     1     105.902 130.890 129.013  1.00  0.00    -0.872 OA
ATOM      6  C   UNL     1     103.793 132.071 129.090  1.00  0.00    -0.004 A 
ATOM      7  C   UNL     1     102.872 132.884 128.490  1.00  0.00     0.046 A 
ATOM      8  C   UNL     1     103.059 133.374 127.217  1.00  0.00     0.127 A 
ATOM      9  C   UNL     1     104.231 133.007 126.557  1.00  0.00     0.075 A 
ATOM     10  C   UNL     1     104.476 133.505 125.198  1.00  0.00     0.200 C 
ATOM     11  O   UNL     1     103.575 134.244 124.732  1.00  0.00    -0.288 OA
ATOM     12  C   UNL     1     105.696 133.129 124.498  1.00  0.00     0.059 A 
ATOM     13  C   UNL     1     105.870 133.620 123.234  1.00  0.00     0.046 A 
ATOM     14  C   UNL     1     107.063 133.232 122.589  1.00  0.00     0.028 A 
ATOM     15  C   UNL     1     107.977 132.424 123.188  1.00  0.00     0.028 A 
ATOM     16  C   UNL     1     107.799 131.919 124.487  1.00  0.00     0.046 A 
ATOM     17  C   UNL     1     106.645 132.286 125.130  1.00  0.00     0.059 A 
ENDROOT
BRANCH  16  18
ATOM     18  N   UNL     1     108.839 131.110 125.031  1.00  0.00    -0.383 N 
ATOM     19  H   UNL     1     108.674 130.161 125.335  1.00  0.00     0.160 HD
BRANCH  18  20
ATOM     20  C   UNL     1     110.196 131.604 125.184  1.00  0.00     0.128 C 
BRANCH  20  21
ATOM     21  C   UNL     1     111.251 130.705 124.648  1.00  0.00     0.102 C 
BRANCH  21  22
ATOM     22  N   UNL     1     110.682 129.638 123.814  1.00  0.00    -0.313 NA
ATOM     23  H   UNL     1     109.641 129.701 123.928  1.00  0.00     0.122 HD
BRANCH  22  24
ATOM     24  C   UNL     1     111.081 128.377 124.420  1.00  0.00     0.109 C 
BRANCH  24  25
ATOM     25  C   UNL     1     109.906 127.439 124.558  1.00  0.00     0.171 C 
BRANCH  25  26
ATOM     26  O   UNL     1     109.951 126.417 123.613  1.00  0.00    -0.395 OA
ATOM     27  H   UNL     1     109.856 126.838 122.714  1.00  0.00     0.210 HD
ENDBRANCH  25  26
ENDBRANCH  24  25
ENDBRANCH  22  24
ENDBRANCH  21  22
ENDBRANCH  20  21
ENDBRANCH  18  20
ENDBRANCH  16  18
BRANCH   8  28
ATOM     28  O   UNL     1     102.113 134.207 126.605  1.00  0.00    -0.507 OA
ATOM     29  H   UNL     1     101.912 135.142 126.966  1.00  0.00     0.293 HD
ENDBRANCH   8  28
BRANCH  13  30
ATOM     30  N   UNL     1     104.980 134.461 122.537  1.00  0.00    -0.379 N 
ATOM     31  H   UNL     1     104.023 134.651 122.795  1.00  0.00     0.160 HD
BRANCH  30  32
ATOM     32  C   UNL     1     105.419 135.157 121.310  1.00  0.00     0.174 C 
BRANCH  32  33
ATOM     33  C   UNL     1     104.286 135.513 120.419  1.00  0.00     0.281 C 
BRANCH  33  34
ATOM     34  N   UNL     1     104.295 136.862 119.944  1.00  0.00    -0.343 N 
ATOM     35  H   UNL     1     105.093 137.430 120.310  1.00  0.00     0.346 HD
ATOM     36  H   UNL     1     104.421 136.832 118.903  1.00  0.00     0.346 HD
BRANCH  34  37
ATOM     37  C   UNL     1     103.066 137.577 120.191  1.00  0.00     0.289 C 
BRANCH  37  38
ATOM     38  C   UNL     1     102.685 138.476 119.037  1.00  0.00     0.217 C 
BRANCH  38  39
ATOM     39  O   UNL     1     101.541 139.175 119.377  1.00  0.00    -0.391 OA
ATOM     40  H   UNL     1     100.772 138.708 118.938  1.00  0.00     0.210 HD
ENDBRANCH  38  39
ENDBRANCH  37  38
ENDBRANCH  34  37
ENDBRANCH  33  34
ENDBRANCH  32  33
ENDBRANCH  30  32
ENDBRANCH  13  30
TORSDOF 15
ENDMDL
MODEL 9
REMARK VINA RESULT:      -6.1      0.632      8.290
REMARK SMILES O=C1c2c([O-])ccc(O)c2C(=O)c2c(NCC[NH2+]CCO)ccc(NCCNCCO)c21
REMARK SMILES IDX 1 1 2 2 3 3 4 4 5 5 6 6 7 7 8 8 10 9 11 10 12 11 13 12 14 13
REMARK SMILES IDX 22 14 23 15 24 16 32 17 25 18 26 20 27 21 28 22 29 24 30 25
REMARK SMILES IDX 31 26 9 28 15 30 16 32 17 33 18 34 19 37 20 38 21 39
REMARK H PARENT 25 19 28 23 31 27 9 29 15 31 18 35 18 36 21 40
ROOT
ATOM      1  O   UNL     1     106.247 130.749 126.925  1.00  0.00    -0.288 OA
ATOM      2  C   UNL     1     105.705 131.714 126.333  1.00  0.00     0.196 C 
ATOM      3  C   UNL     1     104.576 132.400 127.005  1.00  0.00     0.030 A 
ATOM      4  C   UNL     1     104.190 131.934 128.246  1.00  0.00    -0.097 A 
ATOM      5  O   UNL     1     104.861 130.856 128.815  1.00  0.00    -0.872 OA
ATOM      6  C   UNL     1     103.144 132.557 128.892  1.00  0.00    -0.004 A 
ATOM      7  C   UNL     1     102.502 133.614 128.311  1.00  0.00     0.046 A 
ATOM      8  C   UNL     1     102.871 134.094 127.073  1.00  0.00     0.127 A 
ATOM      9  C   UNL     1     103.931 133.456 126.431  1.00  0.00     0.075 A 
ATOM     10  C   UNL     1     104.361 133.932 125.111  1.00  0.00     0.200 C 
ATOM     11  O   UNL     1     103.713 134.906 124.660  1.00  0.00    -0.288 OA
ATOM     12  C   UNL     1     105.467 133.274 124.430  1.00  0.00     0.059 A 
ATOM     13  C   UNL     1     105.823 133.757 123.201  1.00  0.00     0.046 A 
ATOM     14  C   UNL     1     106.896 133.093 122.573  1.00  0.00     0.028 A 
ATOM     15  C   UNL     1     107.534 132.042 123.154  1.00  0.00     0.028 A 
ATOM     16  C   UNL     1     107.168 131.544 124.416  1.00  0.00     0.046 A 
ATOM     17  C   UNL     1     106.126 132.178 125.042  1.00  0.00     0.059 A 
ENDROOT
BRANCH  16  18
ATOM     18  N   UNL     1     107.929 130.461 124.945  1.00  0.00    -0.383 N 
ATOM     19  H   UNL     1     107.539 129.810 125.613  1.00  0.00     0.160 HD
BRANCH  18  20
ATOM     20  C   UNL     1     109.309 130.231 124.559  1.00  0.00     0.128 C 
BRANCH  20  21
ATOM     21  C   UNL     1     109.983 129.123 125.286  1.00  0.00     0.102 C 
BRANCH  21  22
ATOM     22  N   UNL     1     111.274 128.780 124.676  1.00  0.00    -0.313 NA
ATOM     23  H   UNL     1     111.207 129.067 123.669  1.00  0.00     0.122 HD
BRANCH  22  24
ATOM     24  C   UNL     1     111.364 127.327 124.679  1.00  0.00     0.109 C 
BRANCH  24  25
ATOM     25  C   UNL     1     111.996 126.815 123.406  1.00  0.00     0.171 C 
BRANCH  25  26
ATOM     26  O   UNL     1     111.611 125.505 123.134  1.00  0.00    -0.395 OA
ATOM     27  H   UNL     1     112.313 124.904 123.509  1.00  0.00     0.210 HD
ENDBRANCH  25  26
ENDBRANCH  24  25
ENDBRANCH  22  24
ENDBRANCH  21  22
ENDBRANCH  20  21
ENDBRANCH  18  20
ENDBRANCH  16  18
BRANCH   8  28
ATOM     28  O   UNL     1     102.211 135.179 126.481  1.00  0.00    -0.507 OA
ATOM     29  H   UNL     1     101.734 135.088 125.583  1.00  0.00     0.293 HD
ENDBRANCH   8  28
BRANCH  13  30
ATOM     30  N   UNL     1     105.223 134.839 122.525  1.00  0.00    -0.379 N 
ATOM     31  H   UNL     1     104.600 135.518 122.935  1.00  0.00     0.160 HD
BRANCH  30  32
ATOM     32  C   UNL     1     105.483 135.054 121.087  1.00  0.00     0.174 C 
BRANCH  32  33
ATOM     33  C   UNL     1     104.282 135.534 120.356  1.00  0.00     0.281 C 
BRANCH  33  34
ATOM     34  N   UNL     1     103.970 136.915 120.554  1.00  0.00    -0.343 N 
ATOM     35  H   UNL     1     103.385 137.096 121.401  1.00  0.00     0.346 HD
ATOM     36  H   UNL     1     104.873 137.426 120.717  1.00  0.00     0.346 HD
BRANCH  34  37
ATOM     37  C   UNL     1     103.342 137.541 119.415  1.00  0.00     0.289 C 
BRANCH  37  38
ATOM     38  C   UNL     1     102.485 138.722 119.812  1.00  0.00     0.217 C 
BRANCH  38  39
ATOM     39  O   UNL     1     101.331 138.709 119.047  1.00  0.00    -0.391 OA
ATOM     40  H   UNL     1     101.005 139.654 118.996  1.00  0.00     0.210 HD
ENDBRANCH  38  39
ENDBRANCH  37  38
ENDBRANCH  34  37
ENDBRANCH  33  34
ENDBRANCH  32  33
ENDBRANCH  30  32
ENDBRANCH  13  30
TORSDOF 15
ENDMDL
