MODEL 1
REMARK VINA RESULT:      -5.7      0.000      0.000
REMARK SMILES CC/C(=C(\c1ccccc1)c1ccc(OCC[NH+](C)C)cc1)c1ccccc1
REMARK SMILES IDX 15 1 14 2 11 3 12 4 22 5 13 6 21 7 4 8 3 9 2 10 1 11 23 12
REMARK SMILES IDX 24 13 28 14 25 15 27 16 26 17 5 18 6 19 10 20 7 21 9 22 8 23
REMARK SMILES IDX 16 24 17 25 18 26 19 27 20 28
REMARK H PARENT 18 29
ROOT
ATOM      1  O   UNL     1     105.643 134.447 120.815  1.00  0.00    -0.488 OA
ENDROOT
BRANCH   1   2
ATOM      2  C   UNL     1     105.854 133.680 121.946  1.00  0.00     0.119 A 
ATOM      3  C   UNL     1     106.185 132.045 124.265  1.00  0.00    -0.017 A 
ATOM      4  C   UNL     1     107.183 132.891 123.823  1.00  0.00     0.012 A 
ATOM      5  C   UNL     1     105.014 132.042 123.514  1.00  0.00     0.012 A 
ATOM      6  C   UNL     1     107.007 133.678 122.696  1.00  0.00     0.047 A 
ATOM      7  C   UNL     1     104.843 132.821 122.400  1.00  0.00     0.047 A 
BRANCH   3   8
ATOM      8  C   UNL     1     106.332 131.228 125.456  1.00  0.00    -0.007 C 
ATOM      9  C   UNL     1     105.770 131.534 126.597  1.00  0.00    -0.033 C 
BRANCH   9  10
ATOM     10  C   UNL     1     105.925 130.759 127.858  1.00  0.00     0.033 C 
ATOM     11  C   UNL     1     106.980 131.412 128.703  1.00  0.00     0.009 C 
ENDBRANCH   9  10
BRANCH   9  12
ATOM     12  C   UNL     1     104.849 132.680 126.707  1.00  0.00    -0.022 A 
ATOM     13  C   UNL     1     105.303 133.971 126.789  1.00  0.00     0.008 A 
ATOM     14  C   UNL     1     103.511 132.430 126.736  1.00  0.00     0.008 A 
ATOM     15  C   UNL     1     104.405 135.002 126.900  1.00  0.00     0.001 A 
ATOM     16  C   UNL     1     102.561 133.450 126.849  1.00  0.00     0.001 A 
ATOM     17  C   UNL     1     103.046 134.735 126.929  1.00  0.00     0.000 A 
ENDBRANCH   9  12
BRANCH   8  18
ATOM     18  C   UNL     1     107.168 130.048 125.370  1.00  0.00    -0.018 A 
ATOM     19  C   UNL     1     108.546 130.121 125.344  1.00  0.00     0.009 A 
ATOM     20  C   UNL     1     106.574 128.794 125.260  1.00  0.00     0.009 A 
ATOM     21  C   UNL     1     109.278 128.969 125.212  1.00  0.00     0.001 A 
ATOM     22  C   UNL     1     107.293 127.628 125.129  1.00  0.00     0.001 A 
ATOM     23  C   UNL     1     108.681 127.729 125.105  1.00  0.00     0.000 A 
ENDBRANCH   8  18
ENDBRANCH   3   8
ENDBRANCH   1   2
BRANCH   1  24
ATOM     24  C   UNL     1     104.449 134.919 120.300  1.00  0.00     0.290 C 
BRANCH  24  25
ATOM     25  C   UNL     1     104.040 136.297 120.751  1.00  0.00     0.303 C 
BRANCH  25  26
ATOM     26  N   UNL     1     103.963 137.237 119.674  1.00  0.00    -0.337 N 
ATOM     27  C   UNL     1     102.758 138.038 119.694  1.00  0.00     0.332 C 
ATOM     28  C   UNL     1     104.035 136.607 118.371  1.00  0.00     0.332 C 
ATOM     29  H   UNL     1     104.774 137.924 119.701  1.00  0.00     0.347 HD
ENDBRANCH  25  26
ENDBRANCH  24  25
ENDBRANCH   1  24
TORSDOF 8
ENDMDL
MODEL 2
REMARK VINA RESULT:      -5.4      0.654      1.451
REMARK SMILES CC/C(=C(\c1ccccc1)c1ccc(OCC[NH+](C)C)cc1)c1ccccc1
REMARK SMILES IDX 15 1 14 2 11 3 12 4 22 5 13 6 21 7 4 8 3 9 2 10 1 11 23 12
REMARK SMILES IDX 24 13 28 14 25 15 27 16 26 17 5 18 6 19 10 20 7 21 9 22 8 23
REMARK SMILES IDX 16 24 17 25 18 26 19 27 20 28
REMARK H PARENT 18 29
ROOT
ATOM      1  O   UNL     1     104.270 134.148 120.715  1.00  0.00    -0.488 OA
ENDROOT
BRANCH   1   2
ATOM      2  C   UNL     1     104.819 133.534 121.826  1.00  0.00     0.119 A 
ATOM      3  C   UNL     1     105.849 132.211 124.139  1.00  0.00    -0.017 A 
ATOM      4  C   UNL     1     106.647 133.005 123.338  1.00  0.00     0.012 A 
ATOM      5  C   UNL     1     104.518 132.100 123.749  1.00  0.00     0.012 A 
ATOM      6  C   UNL     1     106.132 133.640 122.219  1.00  0.00     0.047 A 
ATOM      7  C   UNL     1     104.012 132.728 122.643  1.00  0.00     0.047 A 
BRANCH   3   8
ATOM      8  C   UNL     1     106.355 131.553 125.330  1.00  0.00    -0.007 C 
ATOM      9  C   UNL     1     105.949 131.863 126.535  1.00  0.00    -0.033 C 
BRANCH   9  10
ATOM     10  C   UNL     1     106.467 131.255 127.791  1.00  0.00     0.033 C 
ATOM     11  C   UNL     1     107.574 132.116 128.327  1.00  0.00     0.009 C 
ENDBRANCH   9  10
BRANCH   9  12
ATOM     12  C   UNL     1     104.856 132.830 126.742  1.00  0.00    -0.022 A 
ATOM     13  C   UNL     1     103.580 132.430 127.047  1.00  0.00     0.008 A 
ATOM     14  C   UNL     1     105.136 134.156 126.613  1.00  0.00     0.008 A 
ATOM     15  C   UNL     1     102.596 133.371 127.221  1.00  0.00     0.001 A 
ATOM     16  C   UNL     1     104.165 135.147 126.780  1.00  0.00     0.001 A 
ATOM     17  C   UNL     1     102.894 134.716 127.087  1.00  0.00     0.000 A 
ENDBRANCH   9  12
BRANCH   8  18
ATOM     18  C   UNL     1     107.378 130.541 125.163  1.00  0.00    -0.018 A 
ATOM     19  C   UNL     1     107.095 129.191 125.222  1.00  0.00     0.009 A 
ATOM     20  C   UNL     1     108.702 130.928 124.984  1.00  0.00     0.009 A 
ATOM     21  C   UNL     1     108.118 128.285 125.104  1.00  0.00     0.001 A 
ATOM     22  C   UNL     1     109.740 130.033 124.863  1.00  0.00     0.001 A 
ATOM     23  C   UNL     1     109.429 128.678 124.925  1.00  0.00     0.000 A 
ENDBRANCH   8  18
ENDBRANCH   3   8
ENDBRANCH   1   2
BRANCH   1  24
ATOM     24  C   UNL     1     104.603 135.365 120.146  1.00  0.00     0.290 C 
BRANCH  24  25
ATOM     25  C   UNL     1     103.825 136.555 120.644  1.00  0.00     0.303 C 
BRANCH  25  26
ATOM     26  N   UNL     1     103.677 137.578 119.654  1.00  0.00    -0.337 N 
ATOM     27  C   UNL     1     102.453 138.338 119.790  1.00  0.00     0.332 C 
ATOM     28  C   UNL     1     103.709 137.061 118.301  1.00  0.00     0.332 C 
ATOM     29  H   UNL     1     104.469 138.285 119.705  1.00  0.00     0.347 HD
ENDBRANCH  25  26
ENDBRANCH  24  25
ENDBRANCH   1  24
TORSDOF 8
ENDMDL
MODEL 3
REMARK VINA RESULT:      -5.4      1.280      2.014
REMARK SMILES CC/C(=C(\c1ccccc1)c1ccc(OCC[NH+](C)C)cc1)c1ccccc1
REMARK SMILES IDX 15 1 14 2 11 3 12 4 22 5 13 6 21 7 4 8 3 9 2 10 1 11 23 12
REMARK SMILES IDX 24 13 28 14 25 15 27 16 26 17 5 18 6 19 10 20 7 21 9 22 8 23
REMARK SMILES IDX 16 24 17 25 18 26 19 27 20 28
REMARK H PARENT 18 29
ROOT
ATOM      1  O   UNL     1     105.455 135.102 120.843  1.00  0.00    -0.488 OA
ENDROOT
BRANCH   1   2
ATOM      2  C   UNL     1     105.555 134.162 121.853  1.00  0.00     0.119 A 
ATOM      3  C   UNL     1     105.644 132.213 123.939  1.00  0.00    -0.017 A 
ATOM      4  C   UNL     1     106.795 132.724 123.371  1.00  0.00     0.012 A 
ATOM      5  C   UNL     1     104.446 132.707 123.433  1.00  0.00     0.012 A 
ATOM      6  C   UNL     1     106.735 133.670 122.359  1.00  0.00     0.047 A 
ATOM      7  C   UNL     1     104.389 133.641 122.434  1.00  0.00     0.047 A 
BRANCH   3   8
ATOM      8  C   UNL     1     105.677 131.240 125.016  1.00  0.00    -0.007 C 
ATOM      9  C   UNL     1     105.829 131.579 126.270  1.00  0.00    -0.033 C 
BRANCH   9  10
ATOM     10  C   UNL     1     105.917 130.622 127.407  1.00  0.00     0.033 C 
ATOM     11  C   UNL     1     104.963 131.056 128.482  1.00  0.00     0.009 C 
ENDBRANCH   9  10
BRANCH   9  12
ATOM     12  C   UNL     1     105.861 132.996 126.675  1.00  0.00    -0.022 A 
ATOM     13  C   UNL     1     107.016 133.608 127.090  1.00  0.00     0.008 A 
ATOM     14  C   UNL     1     104.697 133.702 126.639  1.00  0.00     0.008 A 
ATOM     15  C   UNL     1     106.990 134.927 127.466  1.00  0.00     0.001 A 
ATOM     16  C   UNL     1     104.625 135.047 127.014  1.00  0.00     0.001 A 
ATOM     17  C   UNL     1     105.800 135.634 127.425  1.00  0.00     0.000 A 
ENDBRANCH   9  12
BRANCH   8  18
ATOM     18  C   UNL     1     105.571 129.838 124.667  1.00  0.00    -0.018 A 
ATOM     19  C   UNL     1     104.626 129.369 123.776  1.00  0.00     0.009 A 
ATOM     20  C   UNL     1     106.413 128.914 125.278  1.00  0.00     0.009 A 
ATOM     21  C   UNL     1     104.549 128.023 123.525  1.00  0.00     0.001 A 
ATOM     22  C   UNL     1     106.351 127.561 125.038  1.00  0.00     0.001 A 
ATOM     23  C   UNL     1     105.390 127.113 124.136  1.00  0.00     0.000 A 
ENDBRANCH   8  18
ENDBRANCH   3   8
ENDBRANCH   1   2
BRANCH   1  24
ATOM     24  C   UNL     1     104.336 135.487 120.126  1.00  0.00     0.290 C 
BRANCH  24  25
ATOM     25  C   UNL     1     103.980 136.948 120.204  1.00  0.00     0.303 C 
BRANCH  25  26
ATOM     26  N   UNL     1     103.084 137.361 119.167  1.00  0.00    -0.337 N 
ATOM     27  C   UNL     1     103.728 137.521 117.881  1.00  0.00     0.332 C 
ATOM     28  C   UNL     1     102.413 138.609 119.466  1.00  0.00     0.332 C 
ATOM     29  H   UNL     1     102.307 136.649 119.020  1.00  0.00     0.347 HD
ENDBRANCH  25  26
ENDBRANCH  24  25
ENDBRANCH   1  24
TORSDOF 8
ENDMDL
MODEL 4
REMARK VINA RESULT:      -5.4      1.861      2.620
REMARK SMILES CC/C(=C(\c1ccccc1)c1ccc(OCC[NH+](C)C)cc1)c1ccccc1
REMARK SMILES IDX 15 1 14 2 11 3 12 4 22 5 13 6 21 7 4 8 3 9 2 10 1 11 23 12
REMARK SMILES IDX 24 13 28 14 25 15 27 16 26 17 5 18 6 19 10 20 7 21 9 22 8 23
REMARK SMILES IDX 16 24 17 25 18 26 19 27 20 28
REMARK H PARENT 18 29
ROOT
ATOM      1  O   UNL     1     104.631 134.713 122.527  1.00  0.00    -0.488 OA
ENDROOT
BRANCH   1   2
ATOM      2  C   UNL     1     104.966 133.611 123.292  1.00  0.00     0.119 A 
ATOM      3  C   UNL     1     105.551 131.337 124.918  1.00  0.00    -0.017 A 
ATOM      4  C   UNL     1     106.448 131.812 123.982  1.00  0.00     0.012 A 
ATOM      5  C   UNL     1     104.351 132.034 125.018  1.00  0.00     0.012 A 
ATOM      6  C   UNL     1     106.150 132.917 123.200  1.00  0.00     0.047 A 
ATOM      7  C   UNL     1     104.058 133.125 124.244  1.00  0.00     0.047 A 
BRANCH   3   8
ATOM      8  C   UNL     1     105.846 130.197 125.768  1.00  0.00    -0.007 C 
ATOM      9  C   UNL     1     106.468 130.311 126.913  1.00  0.00    -0.033 C 
BRANCH   9  10
ATOM     10  C   UNL     1     106.837 129.174 127.799  1.00  0.00     0.033 C 
ATOM     11  C   UNL     1     108.333 129.084 127.876  1.00  0.00     0.009 C 
ENDBRANCH   9  10
BRANCH   9  12
ATOM     12  C   UNL     1     106.805 131.636 127.465  1.00  0.00    -0.022 A 
ATOM     13  C   UNL     1     107.930 132.319 127.081  1.00  0.00     0.008 A 
ATOM     14  C   UNL     1     105.967 132.179 128.391  1.00  0.00     0.008 A 
ATOM     15  C   UNL     1     108.203 133.545 127.632  1.00  0.00     0.001 A 
ATOM     16  C   UNL     1     106.207 133.425 128.979  1.00  0.00     0.001 A 
ATOM     17  C   UNL     1     107.344 134.087 128.573  1.00  0.00     0.000 A 
ENDBRANCH   9  12
BRANCH   8  18
ATOM     18  C   UNL     1     105.462 128.882 125.296  1.00  0.00    -0.018 A 
ATOM     19  C   UNL     1     105.548 127.758 126.093  1.00  0.00     0.009 A 
ATOM     20  C   UNL     1     105.035 128.724 123.981  1.00  0.00     0.009 A 
ATOM     21  C   UNL     1     105.214 126.536 125.569  1.00  0.00     0.001 A 
ATOM     22  C   UNL     1     104.695 127.506 123.439  1.00  0.00     0.001 A 
ATOM     23  C   UNL     1     104.790 126.388 124.263  1.00  0.00     0.000 A 
ENDBRANCH   8  18
ENDBRANCH   3   8
ENDBRANCH   1   2
BRANCH   1  24
ATOM     24  C   UNL     1     105.238 135.186 121.377  1.00  0.00     0.290 C 
BRANCH  24  25
ATOM     25  C   UNL     1     104.386 135.174 120.135  1.00  0.00     0.303 C 
BRANCH  25  26
ATOM     26  N   UNL     1     104.377 136.432 119.452  1.00  0.00    -0.337 N 
ATOM     27  C   UNL     1     103.347 137.334 119.920  1.00  0.00     0.332 C 
ATOM     28  C   UNL     1     104.204 136.294 118.020  1.00  0.00     0.332 C 
ATOM     29  H   UNL     1     105.299 136.947 119.577  1.00  0.00     0.347 HD
ENDBRANCH  25  26
ENDBRANCH  24  25
ENDBRANCH   1  24
TORSDOF 8
ENDMDL
MODEL 5
REMARK VINA RESULT:      -5.4      4.017      5.751
REMARK SMILES CC/C(=C(\c1ccccc1)c1ccc(OCC[NH+](C)C)cc1)c1ccccc1
REMARK SMILES IDX 15 1 14 2 11 3 12 4 22 5 13 6 21 7 4 8 3 9 2 10 1 11 23 12
REMARK SMILES IDX 24 13 28 14 25 15 27 16 26 17 5 18 6 19 10 20 7 21 9 22 8 23
REMARK SMILES IDX 16 24 17 25 18 26 19 27 20 28
REMARK H PARENT 18 29
ROOT
ATOM      1  O   UNL     1     109.718 135.508 126.519  1.00  0.00    -0.488 OA
ENDROOT
BRANCH   1   2
ATOM      2  C   UNL     1     109.113 134.287 126.287  1.00  0.00     0.119 A 
ATOM      3  C   UNL     1     107.794 131.783 125.899  1.00  0.00    -0.017 A 
ATOM      4  C   UNL     1     108.753 132.244 125.019  1.00  0.00     0.012 A 
ATOM      5  C   UNL     1     107.514 132.611 126.981  1.00  0.00     0.012 A 
ATOM      6  C   UNL     1     109.384 133.461 125.221  1.00  0.00     0.047 A 
ATOM      7  C   UNL     1     108.139 133.814 127.179  1.00  0.00     0.047 A 
BRANCH   3   8
ATOM      8  C   UNL     1     107.134 130.501 125.726  1.00  0.00    -0.007 C 
ATOM      9  C   UNL     1     105.972 130.378 125.138  1.00  0.00    -0.033 C 
BRANCH   9  10
ATOM     10  C   UNL     1     105.229 129.098 124.977  1.00  0.00     0.033 C 
ATOM     11  C   UNL     1     104.825 128.949 123.539  1.00  0.00     0.009 C 
ENDBRANCH   9  10
BRANCH   9  12
ATOM     12  C   UNL     1     105.314 131.537 124.507  1.00  0.00    -0.022 A 
ATOM     13  C   UNL     1     105.713 132.025 123.290  1.00  0.00     0.008 A 
ATOM     14  C   UNL     1     104.287 132.135 125.172  1.00  0.00     0.008 A 
ATOM     15  C   UNL     1     105.074 133.113 122.750  1.00  0.00     0.001 A 
ATOM     16  C   UNL     1     103.609 133.245 124.660  1.00  0.00     0.001 A 
ATOM     17  C   UNL     1     104.031 133.712 123.436  1.00  0.00     0.000 A 
ENDBRANCH   9  12
BRANCH   8  18
ATOM     18  C   UNL     1     107.785 129.325 126.266  1.00  0.00    -0.018 A 
ATOM     19  C   UNL     1     107.591 128.906 127.567  1.00  0.00     0.009 A 
ATOM     20  C   UNL     1     108.677 128.611 125.472  1.00  0.00     0.009 A 
ATOM     21  C   UNL     1     108.275 127.811 128.030  1.00  0.00     0.001 A 
ATOM     22  C   UNL     1     109.371 127.510 125.919  1.00  0.00     0.001 A 
ATOM     23  C   UNL     1     109.157 127.108 127.234  1.00  0.00     0.000 A 
ENDBRANCH   8  18
ENDBRANCH   3   8
ENDBRANCH   1   2
BRANCH   1  24
ATOM     24  C   UNL     1     110.397 135.937 127.646  1.00  0.00     0.290 C 
BRANCH  24  25
ATOM     25  C   UNL     1     111.192 137.206 127.487  1.00  0.00     0.303 C 
BRANCH  25  26
ATOM     26  N   UNL     1     112.263 137.079 126.546  1.00  0.00    -0.337 N 
ATOM     27  C   UNL     1     113.232 136.068 126.910  1.00  0.00     0.332 C 
ATOM     28  C   UNL     1     112.992 138.317 126.352  1.00  0.00     0.332 C 
ATOM     29  H   UNL     1     111.903 136.809 125.583  1.00  0.00     0.347 HD
ENDBRANCH  25  26
ENDBRANCH  24  25
ENDBRANCH   1  24
TORSDOF 8
ENDMDL
MODEL 6
REMARK VINA RESULT:      -5.3      3.437      5.762
REMARK SMILES CC/C(=C(\c1ccccc1)c1ccc(OCC[NH+](C)C)cc1)c1ccccc1
REMARK SMILES IDX 15 1 14 2 11 3 12 4 22 5 13 6 21 7 4 8 3 9 2 10 1 11 23 12
REMARK SMILES IDX 24 13 28 14 25 15 27 16 26 17 5 18 6 19 10 20 7 21 9 22 8 23
REMARK SMILES IDX 16 24 17 25 18 26 19 27 20 28
REMARK H PARENT 18 29
ROOT
ATOM      1  O   UNL     1     105.414 134.525 126.127  1.00  0.00    -0.488 OA
ENDROOT
BRANCH   1   2
ATOM      2  C   UNL     1     105.876 133.226 126.030  1.00  0.00     0.119 A 
ATOM      3  C   UNL     1     106.833 130.535 125.948  1.00  0.00    -0.017 A 
ATOM      4  C   UNL     1     106.483 131.219 124.800  1.00  0.00     0.012 A 
ATOM      5  C   UNL     1     106.691 131.238 127.140  1.00  0.00     0.012 A 
ATOM      6  C   UNL     1     106.020 132.524 124.856  1.00  0.00     0.047 A 
ATOM      7  C   UNL     1     106.233 132.528 127.194  1.00  0.00     0.047 A 
BRANCH   3   8
ATOM      8  C   UNL     1     107.343 129.176 125.918  1.00  0.00    -0.007 C 
ATOM      9  C   UNL     1     108.622 128.901 125.935  1.00  0.00    -0.033 C 
BRANCH   9  10
ATOM     10  C   UNL     1     109.200 127.532 125.858  1.00  0.00     0.033 C 
ATOM     11  C   UNL     1     109.833 127.347 124.510  1.00  0.00     0.009 C 
ENDBRANCH   9  10
BRANCH   9  12
ATOM     12  C   UNL     1     109.625 129.967 126.106  1.00  0.00    -0.022 A 
ATOM     13  C   UNL     1     110.203 130.233 127.321  1.00  0.00     0.008 A 
ATOM     14  C   UNL     1     109.970 130.708 125.017  1.00  0.00     0.008 A 
ATOM     15  C   UNL     1     111.125 131.244 127.429  1.00  0.00     0.001 A 
ATOM     16  C   UNL     1     110.903 131.747 125.082  1.00  0.00     0.001 A 
ATOM     17  C   UNL     1     111.467 131.990 126.313  1.00  0.00     0.000 A 
ENDBRANCH   9  12
BRANCH   8  18
ATOM     18  C   UNL     1     106.385 128.094 125.827  1.00  0.00    -0.018 A 
ATOM     19  C   UNL     1     105.780 127.548 126.941  1.00  0.00     0.009 A 
ATOM     20  C   UNL     1     106.090 127.543 124.583  1.00  0.00     0.009 A 
ATOM     21  C   UNL     1     104.918 126.493 126.789  1.00  0.00     0.001 A 
ATOM     22  C   UNL     1     105.226 126.486 124.412  1.00  0.00     0.001 A 
ATOM     23  C   UNL     1     104.629 125.954 125.551  1.00  0.00     0.000 A 
ENDBRANCH   8  18
ENDBRANCH   3   8
ENDBRANCH   1   2
BRANCH   1  24
ATOM     24  C   UNL     1     104.447 135.040 126.972  1.00  0.00     0.290 C 
BRANCH  24  25
ATOM     25  C   UNL     1     103.022 134.873 126.514  1.00  0.00     0.303 C 
BRANCH  25  26
ATOM     26  N   UNL     1     102.365 133.760 127.129  1.00  0.00    -0.337 N 
ATOM     27  C   UNL     1     102.963 133.360 128.384  1.00  0.00     0.332 C 
ATOM     28  C   UNL     1     102.331 132.587 126.280  1.00  0.00     0.332 C 
ATOM     29  H   UNL     1     101.347 133.982 127.346  1.00  0.00     0.347 HD
ENDBRANCH  25  26
ENDBRANCH  24  25
ENDBRANCH   1  24
TORSDOF 8
ENDMDL
MODEL 7
REMARK VINA RESULT:      -5.3      1.283      1.794
REMARK SMILES CC/C(=C(\c1ccccc1)c1ccc(OCC[NH+](C)C)cc1)c1ccccc1
REMARK SMILES IDX 15 1 14 2 11 3 12 4 22 5 13 6 21 7 4 8 3 9 2 10 1 11 23 12
REMARK SMILES IDX 24 13 28 14 25 15 27 16 26 17 5 18 6 19 10 20 7 21 9 22 8 23
REMARK SMILES IDX 16 24 17 25 18 26 19 27 20 28
REMARK H PARENT 18 29
ROOT
ATOM      1  O   UNL     1     105.369 132.768 121.275  1.00  0.00    -0.488 OA
ENDROOT
BRANCH   1   2
ATOM      2  C   UNL     1     105.522 132.319 122.574  1.00  0.00     0.119 A 
ATOM      3  C   UNL     1     105.748 131.318 125.239  1.00  0.00    -0.017 A 
ATOM      4  C   UNL     1     106.640 132.242 124.731  1.00  0.00     0.012 A 
ATOM      5  C   UNL     1     104.738 130.909 124.375  1.00  0.00     0.012 A 
ATOM      6  C   UNL     1     106.517 132.718 123.435  1.00  0.00     0.047 A 
ATOM      7  C   UNL     1     104.618 131.381 123.095  1.00  0.00     0.047 A 
BRANCH   3   8
ATOM      8  C   UNL     1     105.838 130.819 126.600  1.00  0.00    -0.007 C 
ATOM      9  C   UNL     1     105.343 131.466 127.624  1.00  0.00    -0.033 C 
BRANCH   9  10
ATOM     10  C   UNL     1     105.448 131.026 129.042  1.00  0.00     0.033 C 
ATOM     11  C   UNL     1     106.535 131.812 129.715  1.00  0.00     0.009 C 
ENDBRANCH   9  10
BRANCH   9  12
ATOM     12  C   UNL     1     104.555 132.697 127.435  1.00  0.00    -0.022 A 
ATOM     13  C   UNL     1     105.147 133.926 127.297  1.00  0.00     0.008 A 
ATOM     14  C   UNL     1     103.197 132.594 127.408  1.00  0.00     0.008 A 
ATOM     15  C   UNL     1     104.367 135.043 127.133  1.00  0.00     0.001 A 
ATOM     16  C   UNL     1     102.364 133.705 127.245  1.00  0.00     0.001 A 
ATOM     17  C   UNL     1     102.987 134.925 127.108  1.00  0.00     0.000 A 
ENDBRANCH   9  12
BRANCH   8  18
ATOM     18  C   UNL     1     106.541 129.571 126.820  1.00  0.00    -0.018 A 
ATOM     19  C   UNL     1     105.906 128.347 126.757  1.00  0.00     0.009 A 
ATOM     20  C   UNL     1     107.891 129.595 127.155  1.00  0.00     0.009 A 
ATOM     21  C   UNL     1     106.619 127.206 127.022  1.00  0.00     0.001 A 
ATOM     22  C   UNL     1     108.622 128.461 127.424  1.00  0.00     0.001 A 
ATOM     23  C   UNL     1     107.960 127.239 127.353  1.00  0.00     0.000 A 
ENDBRANCH   8  18
ENDBRANCH   3   8
ENDBRANCH   1   2
BRANCH   1  24
ATOM     24  C   UNL     1     104.438 133.659 120.771  1.00  0.00     0.290 C 
BRANCH  24  25
ATOM     25  C   UNL     1     104.965 135.022 120.409  1.00  0.00     0.303 C 
BRANCH  25  26
ATOM     26  N   UNL     1     104.042 135.788 119.628  1.00  0.00    -0.337 N 
ATOM     27  C   UNL     1     104.497 136.034 118.276  1.00  0.00     0.332 C 
ATOM     28  C   UNL     1     103.739 137.077 120.217  1.00  0.00     0.332 C 
ATOM     29  H   UNL     1     103.106 135.292 119.537  1.00  0.00     0.347 HD
ENDBRANCH  25  26
ENDBRANCH  24  25
ENDBRANCH   1  24
TORSDOF 8
ENDMDL
MODEL 8
REMARK VINA RESULT:      -5.3      3.525      5.878
REMARK SMILES CC/C(=C(\c1ccccc1)c1ccc(OCC[NH+](C)C)cc1)c1ccccc1
REMARK SMILES IDX 15 1 14 2 11 3 12 4 22 5 13 6 21 7 4 8 3 9 2 10 1 11 23 12
REMARK SMILES IDX 24 13 28 14 25 15 27 16 26 17 5 18 6 19 10 20 7 21 9 22 8 23
REMARK SMILES IDX 16 24 17 25 18 26 19 27 20 28
REMARK H PARENT 18 29
ROOT
ATOM      1  O   UNL     1     105.837 134.561 126.701  1.00  0.00    -0.488 OA
ENDROOT
BRANCH   1   2
ATOM      2  C   UNL     1     106.286 133.256 126.615  1.00  0.00     0.119 A 
ATOM      3  C   UNL     1     107.232 130.577 126.323  1.00  0.00    -0.017 A 
ATOM      4  C   UNL     1     106.889 131.097 127.556  1.00  0.00     0.012 A 
ATOM      5  C   UNL     1     107.086 131.437 125.239  1.00  0.00     0.012 A 
ATOM      6  C   UNL     1     106.432 132.399 127.681  1.00  0.00     0.047 A 
ATOM      7  C   UNL     1     106.634 132.723 125.365  1.00  0.00     0.047 A 
BRANCH   3   8
ATOM      8  C   UNL     1     107.692 129.209 126.158  1.00  0.00    -0.007 C 
ATOM      9  C   UNL     1     108.958 128.883 126.173  1.00  0.00    -0.033 C 
BRANCH   9  10
ATOM     10  C   UNL     1     109.486 127.507 125.962  1.00  0.00     0.033 C 
ATOM     11  C   UNL     1     109.936 127.372 124.537  1.00  0.00     0.009 C 
ENDBRANCH   9  10
BRANCH   9  12
ATOM     12  C   UNL     1     109.997 129.883 126.478  1.00  0.00    -0.022 A 
ATOM     13  C   UNL     1     110.553 130.673 125.505  1.00  0.00     0.008 A 
ATOM     14  C   UNL     1     110.412 130.007 127.769  1.00  0.00     0.008 A 
ATOM     15  C   UNL     1     111.525 131.582 125.841  1.00  0.00     0.001 A 
ATOM     16  C   UNL     1     111.398 130.919 128.155  1.00  0.00     0.001 A 
ATOM     17  C   UNL     1     111.938 131.699 127.157  1.00  0.00     0.000 A 
ENDBRANCH   9  12
BRANCH   8  18
ATOM     18  C   UNL     1     106.695 128.182 125.932  1.00  0.00    -0.018 A 
ATOM     19  C   UNL     1     106.227 127.874 124.670  1.00  0.00     0.009 A 
ATOM     20  C   UNL     1     106.148 127.508 127.019  1.00  0.00     0.009 A 
ATOM     21  C   UNL     1     105.248 126.925 124.531  1.00  0.00     0.001 A 
ATOM     22  C   UNL     1     105.167 126.551 126.897  1.00  0.00     0.001 A 
ATOM     23  C   UNL     1     104.711 126.259 125.615  1.00  0.00     0.000 A 
ENDBRANCH   8  18
ENDBRANCH   3   8
ENDBRANCH   1   2
BRANCH   1  24
ATOM     24  C   UNL     1     104.573 135.022 127.026  1.00  0.00     0.290 C 
BRANCH  24  25
ATOM     25  C   UNL     1     103.465 134.605 126.095  1.00  0.00     0.303 C 
BRANCH  25  26
ATOM     26  N   UNL     1     102.599 133.617 126.665  1.00  0.00    -0.337 N 
ATOM     27  C   UNL     1     102.800 133.426 128.085  1.00  0.00     0.332 C 
ATOM     28  C   UNL     1     102.736 132.319 126.037  1.00  0.00     0.332 C 
ATOM     29  H   UNL     1     101.576 133.883 126.545  1.00  0.00     0.347 HD
ENDBRANCH  25  26
ENDBRANCH  24  25
ENDBRANCH   1  24
TORSDOF 8
ENDMDL
MODEL 9
REMARK VINA RESULT:      -5.3      0.455      1.364
REMARK SMILES CC/C(=C(\c1ccccc1)c1ccc(OCC[NH+](C)C)cc1)c1ccccc1
REMARK SMILES IDX 15 1 14 2 11 3 12 4 22 5 13 6 21 7 4 8 3 9 2 10 1 11 23 12
REMARK SMILES IDX 24 13 28 14 25 15 27 16 26 17 5 18 6 19 10 20 7 21 9 22 8 23
REMARK SMILES IDX 16 24 17 25 18 26 19 27 20 28
REMARK H PARENT 18 29
ROOT
ATOM      1  O   UNL     1     105.460 134.603 120.914  1.00  0.00    -0.488 OA
ENDROOT
BRANCH   1   2
ATOM      2  C   UNL     1     105.597 133.810 122.038  1.00  0.00     0.119 A 
ATOM      3  C   UNL     1     105.992 132.208 124.370  1.00  0.00    -0.017 A 
ATOM      4  C   UNL     1     104.761 132.302 123.752  1.00  0.00     0.012 A 
ATOM      5  C   UNL     1     107.022 132.938 123.786  1.00  0.00     0.012 A 
ATOM      6  C   UNL     1     104.585 133.084 122.621  1.00  0.00     0.047 A 
ATOM      7  C   UNL     1     106.846 133.710 122.669  1.00  0.00     0.047 A 
BRANCH   3   8
ATOM      8  C   UNL     1     106.212 131.378 125.542  1.00  0.00    -0.007 C 
ATOM      9  C   UNL     1     105.654 131.627 126.698  1.00  0.00    -0.033 C 
BRANCH   9  10
ATOM     10  C   UNL     1     105.881 130.840 127.941  1.00  0.00     0.033 C 
ATOM     11  C   UNL     1     106.833 131.591 128.825  1.00  0.00     0.009 C 
ENDBRANCH   9  10
BRANCH   9  12
ATOM     12  C   UNL     1     104.668 132.712 126.848  1.00  0.00    -0.022 A 
ATOM     13  C   UNL     1     103.331 132.461 127.020  1.00  0.00     0.008 A 
ATOM     14  C   UNL     1     105.113 133.998 126.800  1.00  0.00     0.008 A 
ATOM     15  C   UNL     1     102.452 133.507 127.144  1.00  0.00     0.001 A 
ATOM     16  C   UNL     1     104.253 135.094 126.922  1.00  0.00     0.001 A 
ATOM     17  C   UNL     1     102.918 134.810 127.095  1.00  0.00     0.000 A 
ENDBRANCH   9  12
BRANCH   8  18
ATOM     18  C   UNL     1     107.117 130.254 125.416  1.00  0.00    -0.018 A 
ATOM     19  C   UNL     1     108.489 130.405 125.451  1.00  0.00     0.009 A 
ATOM     20  C   UNL     1     106.601 128.979 125.204  1.00  0.00     0.009 A 
ATOM     21  C   UNL     1     109.290 129.305 125.278  1.00  0.00     0.001 A 
ATOM     22  C   UNL     1     107.389 127.866 125.030  1.00  0.00     0.001 A 
ATOM     23  C   UNL     1     108.769 128.043 125.070  1.00  0.00     0.000 A 
ENDBRANCH   8  18
ENDBRANCH   3   8
ENDBRANCH   1   2
BRANCH   1  24
ATOM     24  C   UNL     1     104.390 135.398 120.541  1.00  0.00     0.290 C 
BRANCH  24  25
ATOM     25  C   UNL     1     104.326 135.767 119.082  1.00  0.00     0.303 C 
BRANCH  25  26
ATOM     26  N   UNL     1     104.053 137.156 118.869  1.00  0.00    -0.337 N 
ATOM     27  C   UNL     1     103.110 137.709 119.818  1.00  0.00     0.332 C 
ATOM     28  C   UNL     1     103.536 137.432 117.545  1.00  0.00     0.332 C 
ATOM     29  H   UNL     1     104.936 137.742 118.956  1.00  0.00     0.347 HD
ENDBRANCH  25  26
ENDBRANCH  24  25
ENDBRANCH   1  24
TORSDOF 8
ENDMDL
