MODEL 1
REMARK VINA RESULT:      -5.4      0.000      0.000
REMARK SMILES O=C1c2c([O-])ccc(O)c2C(=O)c2c(NCC[NH2+]CCO)ccc(NCCNCCO)c21
REMARK SMILES IDX 1 1 2 2 3 3 4 4 5 5 6 6 7 7 8 8 10 9 11 10 12 11 13 12 14 13
REMARK SMILES IDX 22 14 23 15 24 16 32 17 25 18 26 20 27 21 28 22 29 24 30 25
REMARK SMILES IDX 31 26 9 28 15 30 16 32 17 33 18 34 19 37 20 38 21 39
REMARK H PARENT 25 19 28 23 31 27 9 29 15 31 18 35 18 36 21 40
ROOT
ATOM      1  O   UNL     1     136.658 173.309 106.409  1.00  0.00    -0.288 OA
ATOM      2  C   UNL     1     137.766 172.889 106.822  1.00  0.00     0.196 C 
ATOM      3  C   UNL     1     138.601 172.092 105.892  1.00  0.00     0.030 A 
ATOM      4  C   UNL     1     138.106 171.861 104.623  1.00  0.00    -0.097 A 
ATOM      5  O   UNL     1     136.863 172.376 104.266  1.00  0.00    -0.872 OA
ATOM      6  C   UNL     1     138.864 171.124 103.740  1.00  0.00    -0.004 A 
ATOM      7  C   UNL     1     140.082 170.631 104.116  1.00  0.00     0.046 A 
ATOM      8  C   UNL     1     140.594 170.849 105.376  1.00  0.00     0.127 A 
ATOM      9  C   UNL     1     139.817 171.598 106.260  1.00  0.00     0.075 A 
ATOM     10  C   UNL     1     140.320 171.857 107.614  1.00  0.00     0.200 C 
ATOM     11  O   UNL     1     141.446 171.365 107.867  1.00  0.00    -0.288 OA
ATOM     12  C   UNL     1     139.519 172.637 108.547  1.00  0.00     0.059 A 
ATOM     13  C   UNL     1     140.035 172.845 109.795  1.00  0.00     0.046 A 
ATOM     14  C   UNL     1     139.229 173.603 110.670  1.00  0.00     0.028 A 
ATOM     15  C   UNL     1     138.019 174.093 110.292  1.00  0.00     0.028 A 
ATOM     16  C   UNL     1     137.487 173.878 109.010  1.00  0.00     0.046 A 
ATOM     17  C   UNL     1     138.257 173.144 108.146  1.00  0.00     0.059 A 
ENDROOT
BRANCH  16  18
ATOM     18  N   UNL     1     136.224 174.469 108.710  1.00  0.00    -0.383 N 
ATOM     19  H   UNL     1     136.131 175.221 108.042  1.00  0.00     0.160 HD
BRANCH  18  20
ATOM     20  C   UNL     1     134.999 174.028 109.352  1.00  0.00     0.128 C 
BRANCH  20  21
ATOM     21  C   UNL     1     134.800 172.555 109.369  1.00  0.00     0.102 C 
BRANCH  21  22
ATOM     22  N   UNL     1     134.582 172.021 108.018  1.00  0.00    -0.313 NA
ATOM     23  H   UNL     1     133.547 171.875 107.925  1.00  0.00     0.122 HD
BRANCH  22  24
ATOM     24  C   UNL     1     135.183 170.696 107.992  1.00  0.00     0.109 C 
BRANCH  24  25
ATOM     25  C   UNL     1     135.212 170.136 106.590  1.00  0.00     0.171 C 
BRANCH  25  26
ATOM     26  O   UNL     1     134.731 171.056 105.660  1.00  0.00    -0.395 OA
ATOM     27  H   UNL     1     134.158 170.555 105.016  1.00  0.00     0.210 HD
ENDBRANCH  25  26
ENDBRANCH  24  25
ENDBRANCH  22  24
ENDBRANCH  21  22
ENDBRANCH  20  21
ENDBRANCH  18  20
ENDBRANCH  16  18
BRANCH   8  28
ATOM     28  O   UNL     1     141.843 170.343 105.758  1.00  0.00    -0.507 OA
ATOM     29  H   UNL     1     141.933 169.650 106.503  1.00  0.00     0.293 HD
ENDBRANCH   8  28
BRANCH  13  30
ATOM     30  N   UNL     1     141.278 172.379 110.272  1.00  0.00    -0.379 N 
ATOM     31  H   UNL     1     141.750 171.541 109.966  1.00  0.00     0.160 HD
BRANCH  30  32
ATOM     32  C   UNL     1     142.007 173.133 111.312  1.00  0.00     0.174 C 
BRANCH  32  33
ATOM     33  C   UNL     1     143.118 172.350 111.910  1.00  0.00     0.281 C 
BRANCH  33  34
ATOM     34  N   UNL     1     143.223 172.446 113.333  1.00  0.00    -0.343 N 
ATOM     35  H   UNL     1     144.171 172.735 113.665  1.00  0.00     0.346 HD
ATOM     36  H   UNL     1     142.568 173.202 113.651  1.00  0.00     0.346 HD
BRANCH  34  37
ATOM     37  C   UNL     1     142.835 171.244 114.030  1.00  0.00     0.289 C 
BRANCH  37  38
ATOM     38  C   UNL     1     143.227 169.993 113.276  1.00  0.00     0.217 C 
BRANCH  38  39
ATOM     39  O   UNL     1     142.276 169.015 113.514  1.00  0.00    -0.391 OA
ATOM     40  H   UNL     1     141.636 169.389 114.187  1.00  0.00     0.210 HD
ENDBRANCH  38  39
ENDBRANCH  37  38
ENDBRANCH  34  37
ENDBRANCH  33  34
ENDBRANCH  32  33
ENDBRANCH  30  32
ENDBRANCH  13  30
TORSDOF 15
ENDMDL
MODEL 2
REMARK VINA RESULT:      -5.0      1.063      1.141
REMARK SMILES O=C1c2c([O-])ccc(O)c2C(=O)c2c(NCC[NH2+]CCO)ccc(NCCNCCO)c21
REMARK SMILES IDX 1 1 2 2 3 3 4 4 5 5 6 6 7 7 8 8 10 9 11 10 12 11 13 12 14 13
REMARK SMILES IDX 22 14 23 15 24 16 32 17 25 18 26 20 27 21 28 22 29 24 30 25
REMARK SMILES IDX 31 26 9 28 15 30 16 32 17 33 18 34 19 37 20 38 21 39
REMARK H PARENT 25 19 28 23 31 27 9 29 15 31 18 35 18 36 21 40
ROOT
ATOM      1  O   UNL     1     136.548 173.170 106.259  1.00  0.00    -0.288 OA
ATOM      2  C   UNL     1     137.664 172.788 106.688  1.00  0.00     0.196 C 
ATOM      3  C   UNL     1     138.528 171.999 105.779  1.00  0.00     0.030 A 
ATOM      4  C   UNL     1     138.051 171.733 104.510  1.00  0.00    -0.097 A 
ATOM      5  O   UNL     1     136.798 172.207 104.135  1.00  0.00    -0.872 OA
ATOM      6  C   UNL     1     138.837 171.003 103.646  1.00  0.00    -0.004 A 
ATOM      7  C   UNL     1     140.065 170.550 104.041  1.00  0.00     0.046 A 
ATOM      8  C   UNL     1     140.559 170.803 105.301  1.00  0.00     0.127 A 
ATOM      9  C   UNL     1     139.754 171.544 106.166  1.00  0.00     0.075 A 
ATOM     10  C   UNL     1     140.238 171.839 107.520  1.00  0.00     0.200 C 
ATOM     11  O   UNL     1     141.375 171.383 107.790  1.00  0.00    -0.288 OA
ATOM     12  C   UNL     1     139.407 172.612 108.432  1.00  0.00     0.059 A 
ATOM     13  C   UNL     1     139.907 172.855 109.682  1.00  0.00     0.046 A 
ATOM     14  C   UNL     1     139.072 173.604 110.537  1.00  0.00     0.028 A 
ATOM     15  C   UNL     1     137.852 174.054 110.140  1.00  0.00     0.028 A 
ATOM     16  C   UNL     1     137.338 173.804 108.857  1.00  0.00     0.046 A 
ATOM     17  C   UNL     1     138.136 173.077 108.013  1.00  0.00     0.059 A 
ENDROOT
BRANCH  16  18
ATOM     18  N   UNL     1     136.062 174.355 108.537  1.00  0.00    -0.383 N 
ATOM     19  H   UNL     1     135.959 175.128 107.895  1.00  0.00     0.160 HD
BRANCH  18  20
ATOM     20  C   UNL     1     134.836 173.841 109.120  1.00  0.00     0.128 C 
BRANCH  20  21
ATOM     21  C   UNL     1     134.746 172.358 109.174  1.00  0.00     0.102 C 
BRANCH  21  22
ATOM     22  N   UNL     1     134.537 171.778 107.841  1.00  0.00    -0.313 NA
ATOM     23  H   UNL     1     133.512 171.568 107.770  1.00  0.00     0.122 HD
BRANCH  22  24
ATOM     24  C   UNL     1     135.216 170.491 107.835  1.00  0.00     0.109 C 
BRANCH  24  25
ATOM     25  C   UNL     1     135.222 169.881 106.454  1.00  0.00     0.171 C 
BRANCH  25  26
ATOM     26  O   UNL     1     134.648 170.734 105.514  1.00  0.00    -0.395 OA
ATOM     27  H   UNL     1     133.900 171.215 105.966  1.00  0.00     0.210 HD
ENDBRANCH  25  26
ENDBRANCH  24  25
ENDBRANCH  22  24
ENDBRANCH  21  22
ENDBRANCH  20  21
ENDBRANCH  18  20
ENDBRANCH  16  18
BRANCH   8  28
ATOM     28  O   UNL     1     141.818 170.337 105.702  1.00  0.00    -0.507 OA
ATOM     29  H   UNL     1     142.672 170.856 105.491  1.00  0.00     0.293 HD
ENDBRANCH   8  28
BRANCH  13  30
ATOM     30  N   UNL     1     141.157 172.431 110.176  1.00  0.00    -0.379 N 
ATOM     31  H   UNL     1     141.700 171.657 109.823  1.00  0.00     0.160 HD
BRANCH  30  32
ATOM     32  C   UNL     1     141.785 173.134 111.313  1.00  0.00     0.174 C 
BRANCH  32  33
ATOM     33  C   UNL     1     142.783 172.294 112.023  1.00  0.00     0.281 C 
BRANCH  33  34
ATOM     34  N   UNL     1     142.329 171.735 113.258  1.00  0.00    -0.343 N 
ATOM     35  H   UNL     1     142.110 170.715 113.202  1.00  0.00     0.346 HD
ATOM     36  H   UNL     1     143.111 171.820 113.953  1.00  0.00     0.346 HD
BRANCH  34  37
ATOM     37  C   UNL     1     141.195 172.421 113.828  1.00  0.00     0.289 C 
BRANCH  37  38
ATOM     38  C   UNL     1     140.361 171.517 114.708  1.00  0.00     0.217 C 
BRANCH  38  39
ATOM     39  O   UNL     1     139.368 172.272 115.306  1.00  0.00    -0.391 OA
ATOM     40  H   UNL     1     138.498 171.979 114.906  1.00  0.00     0.210 HD
ENDBRANCH  38  39
ENDBRANCH  37  38
ENDBRANCH  34  37
ENDBRANCH  33  34
ENDBRANCH  32  33
ENDBRANCH  30  32
ENDBRANCH  13  30
TORSDOF 15
ENDMDL
MODEL 3
REMARK VINA RESULT:      -4.9      2.261      4.614
REMARK SMILES O=C1c2c([O-])ccc(O)c2C(=O)c2c(NCC[NH2+]CCO)ccc(NCCNCCO)c21
REMARK SMILES IDX 1 1 2 2 3 3 4 4 5 5 6 6 7 7 8 8 10 9 11 10 12 11 13 12 14 13
REMARK SMILES IDX 22 14 23 15 24 16 32 17 25 18 26 20 27 21 28 22 29 24 30 25
REMARK SMILES IDX 31 26 9 28 15 30 16 32 17 33 18 34 19 37 20 38 21 39
REMARK H PARENT 25 19 28 23 31 27 9 29 15 31 18 35 18 36 21 40
ROOT
ATOM      1  O   UNL     1     137.934 171.026 105.792  1.00  0.00    -0.288 OA
ATOM      2  C   UNL     1     137.818 171.574 106.915  1.00  0.00     0.196 C 
ATOM      3  C   UNL     1     136.453 171.872 107.408  1.00  0.00     0.030 A 
ATOM      4  C   UNL     1     135.388 171.525 106.599  1.00  0.00    -0.097 A 
ATOM      5  O   UNL     1     135.628 170.918 105.371  1.00  0.00    -0.872 OA
ATOM      6  C   UNL     1     134.109 171.791 107.037  1.00  0.00    -0.004 A 
ATOM      7  C   UNL     1     133.901 172.388 108.249  1.00  0.00     0.046 A 
ATOM      8  C   UNL     1     134.948 172.743 109.071  1.00  0.00     0.127 A 
ATOM      9  C   UNL     1     136.238 172.468 108.616  1.00  0.00     0.075 A 
ATOM     10  C   UNL     1     137.387 172.827 109.457  1.00  0.00     0.200 C 
ATOM     11  O   UNL     1     137.097 173.370 110.550  1.00  0.00    -0.288 OA
ATOM     12  C   UNL     1     138.738 172.545 108.994  1.00  0.00     0.059 A 
ATOM     13  C   UNL     1     139.770 172.903 109.816  1.00  0.00     0.046 A 
ATOM     14  C   UNL     1     141.063 172.616 109.332  1.00  0.00     0.028 A 
ATOM     15  C   UNL     1     141.266 172.021 108.127  1.00  0.00     0.028 A 
ATOM     16  C   UNL     1     140.206 171.653 107.281  1.00  0.00     0.046 A 
ATOM     17  C   UNL     1     138.942 171.925 107.735  1.00  0.00     0.059 A 
ENDROOT
BRANCH  16  18
ATOM     18  N   UNL     1     140.534 171.003 106.055  1.00  0.00    -0.383 N 
ATOM     19  H   UNL     1     140.209 170.070 105.841  1.00  0.00     0.160 HD
BRANCH  18  20
ATOM     20  C   UNL     1     141.358 171.640 105.044  1.00  0.00     0.128 C 
BRANCH  20  21
ATOM     21  C   UNL     1     140.632 172.580 104.150  1.00  0.00     0.102 C 
BRANCH  21  22
ATOM     22  N   UNL     1     139.596 171.894 103.367  1.00  0.00    -0.313 NA
ATOM     23  H   UNL     1     140.099 171.378 102.605  1.00  0.00     0.122 HD
BRANCH  22  24
ATOM     24  C   UNL     1     138.815 172.931 102.709  1.00  0.00     0.109 C 
BRANCH  24  25
ATOM     25  C   UNL     1     138.065 173.772 103.714  1.00  0.00     0.171 C 
BRANCH  25  26
ATOM     26  O   UNL     1     136.791 173.265 103.958  1.00  0.00    -0.395 OA
ATOM     27  H   UNL     1     136.237 174.012 104.318  1.00  0.00     0.210 HD
ENDBRANCH  25  26
ENDBRANCH  24  25
ENDBRANCH  22  24
ENDBRANCH  21  22
ENDBRANCH  20  21
ENDBRANCH  18  20
ENDBRANCH  16  18
BRANCH   8  28
ATOM     28  O   UNL     1     134.732 173.354 110.312  1.00  0.00    -0.507 OA
ATOM     29  H   UNL     1     135.417 173.993 110.720  1.00  0.00     0.293 HD
ENDBRANCH   8  28
BRANCH  13  30
ATOM     30  N   UNL     1     139.654 173.521 111.078  1.00  0.00    -0.379 N 
ATOM     31  H   UNL     1     138.800 173.631 111.605  1.00  0.00     0.160 HD
BRANCH  30  32
ATOM     32  C   UNL     1     140.847 174.080 111.746  1.00  0.00     0.174 C 
BRANCH  32  33
ATOM     33  C   UNL     1     141.147 173.407 113.035  1.00  0.00     0.281 C 
BRANCH  33  34
ATOM     34  N   UNL     1     141.599 172.055 112.917  1.00  0.00    -0.343 N 
ATOM     35  H   UNL     1     141.523 171.509 113.805  1.00  0.00     0.346 HD
ATOM     36  H   UNL     1     140.971 171.569 112.230  1.00  0.00     0.346 HD
BRANCH  34  37
ATOM     37  C   UNL     1     142.943 171.931 112.408  1.00  0.00     0.289 C 
BRANCH  37  38
ATOM     38  C   UNL     1     143.590 170.626 112.815  1.00  0.00     0.217 C 
BRANCH  38  39
ATOM     39  O   UNL     1     143.015 169.599 112.086  1.00  0.00    -0.391 OA
ATOM     40  H   UNL     1     143.641 168.820 112.138  1.00  0.00     0.210 HD
ENDBRANCH  38  39
ENDBRANCH  37  38
ENDBRANCH  34  37
ENDBRANCH  33  34
ENDBRANCH  32  33
ENDBRANCH  30  32
ENDBRANCH  13  30
TORSDOF 15
ENDMDL
MODEL 4
REMARK VINA RESULT:      -4.9      7.760      8.682
REMARK SMILES O=C1c2c([O-])ccc(O)c2C(=O)c2c(NCC[NH2+]CCO)ccc(NCCNCCO)c21
REMARK SMILES IDX 1 1 2 2 3 3 4 4 5 5 6 6 7 7 8 8 10 9 11 10 12 11 13 12 14 13
REMARK SMILES IDX 22 14 23 15 24 16 32 17 25 18 26 20 27 21 28 22 29 24 30 25
REMARK SMILES IDX 31 26 9 28 15 30 16 32 17 33 18 34 19 37 20 38 21 39
REMARK H PARENT 25 19 28 23 31 27 9 29 15 31 18 35 18 36 21 40
ROOT
ATOM      1  O   UNL     1     141.308 172.058 115.711  1.00  0.00    -0.288 OA
ATOM      2  C   UNL     1     142.112 172.820 115.122  1.00  0.00     0.196 C 
ATOM      3  C   UNL     1     143.091 172.215 114.189  1.00  0.00     0.030 A 
ATOM      4  C   UNL     1     143.057 170.844 114.023  1.00  0.00    -0.097 A 
ATOM      5  O   UNL     1     142.121 170.091 114.725  1.00  0.00    -0.872 OA
ATOM      6  C   UNL     1     143.956 170.258 113.159  1.00  0.00    -0.004 A 
ATOM      7  C   UNL     1     144.865 171.023 112.482  1.00  0.00     0.046 A 
ATOM      8  C   UNL     1     144.916 172.391 112.633  1.00  0.00     0.127 A 
ATOM      9  C   UNL     1     144.000 172.972 113.509  1.00  0.00     0.075 A 
ATOM     10  C   UNL     1     144.015 174.426 113.703  1.00  0.00     0.200 C 
ATOM     11  O   UNL     1     144.883 175.042 113.039  1.00  0.00    -0.288 OA
ATOM     12  C   UNL     1     143.064 175.045 114.615  1.00  0.00     0.059 A 
ATOM     13  C   UNL     1     143.125 176.403 114.759  1.00  0.00     0.046 A 
ATOM     14  C   UNL     1     142.190 176.964 115.652  1.00  0.00     0.028 A 
ATOM     15  C   UNL     1     141.287 176.201 116.324  1.00  0.00     0.028 A 
ATOM     16  C   UNL     1     141.223 174.806 116.177  1.00  0.00     0.046 A 
ATOM     17  C   UNL     1     142.125 174.243 115.312  1.00  0.00     0.059 A 
ENDROOT
BRANCH  16  18
ATOM     18  N   UNL     1     140.212 174.110 116.903  1.00  0.00    -0.383 N 
ATOM     19  H   UNL     1     140.432 173.521 117.694  1.00  0.00     0.160 HD
BRANCH  18  20
ATOM     20  C   UNL     1     138.809 174.202 116.545  1.00  0.00     0.128 C 
BRANCH  20  21
ATOM     21  C   UNL     1     138.010 172.983 116.836  1.00  0.00     0.102 C 
BRANCH  21  22
ATOM     22  N   UNL     1     138.734 172.056 117.716  1.00  0.00    -0.313 NA
ATOM     23  H   UNL     1     139.744 172.119 117.438  1.00  0.00     0.122 HD
BRANCH  22  24
ATOM     24  C   UNL     1     138.298 170.714 117.359  1.00  0.00     0.109 C 
BRANCH  24  25
ATOM     25  C   UNL     1     138.092 170.584 115.869  1.00  0.00     0.171 C 
BRANCH  25  26
ATOM     26  O   UNL     1     139.241 170.123 115.230  1.00  0.00    -0.395 OA
ATOM     27  H   UNL     1     139.988 170.732 115.486  1.00  0.00     0.210 HD
ENDBRANCH  25  26
ENDBRANCH  24  25
ENDBRANCH  22  24
ENDBRANCH  21  22
ENDBRANCH  20  21
ENDBRANCH  18  20
ENDBRANCH  16  18
BRANCH   8  28
ATOM     28  O   UNL     1     145.848 173.171 111.936  1.00  0.00    -0.507 OA
ATOM     29  H   UNL     1     146.425 173.866 112.413  1.00  0.00     0.293 HD
ENDBRANCH   8  28
BRANCH  13  30
ATOM     30  N   UNL     1     144.024 177.270 114.105  1.00  0.00    -0.379 N 
ATOM     31  H   UNL     1     144.201 177.297 113.112  1.00  0.00     0.160 HD
BRANCH  30  32
ATOM     32  C   UNL     1     144.810 178.252 114.881  1.00  0.00     0.174 C 
BRANCH  32  33
ATOM     33  C   UNL     1     146.217 178.349 114.418  1.00  0.00     0.281 C 
BRANCH  33  34
ATOM     34  N   UNL     1     146.817 177.103 114.052  1.00  0.00    -0.343 N 
ATOM     35  H   UNL     1     147.113 176.524 114.870  1.00  0.00     0.346 HD
ATOM     36  H   UNL     1     146.091 176.536 113.549  1.00  0.00     0.346 HD
BRANCH  34  37
ATOM     37  C   UNL     1     147.935 177.236 113.149  1.00  0.00     0.289 C 
BRANCH  37  38
ATOM     38  C   UNL     1     147.626 176.693 111.772  1.00  0.00     0.217 C 
BRANCH  38  39
ATOM     39  O   UNL     1     147.600 175.311 111.835  1.00  0.00    -0.391 OA
ATOM     40  H   UNL     1     146.884 175.063 112.490  1.00  0.00     0.210 HD
ENDBRANCH  38  39
ENDBRANCH  37  38
ENDBRANCH  34  37
ENDBRANCH  33  34
ENDBRANCH  32  33
ENDBRANCH  30  32
ENDBRANCH  13  30
TORSDOF 15
ENDMDL
MODEL 5
REMARK VINA RESULT:      -4.8      0.992      6.173
REMARK SMILES O=C1c2c([O-])ccc(O)c2C(=O)c2c(NCC[NH2+]CCO)ccc(NCCNCCO)c21
REMARK SMILES IDX 1 1 2 2 3 3 4 4 5 5 6 6 7 7 8 8 10 9 11 10 12 11 13 12 14 13
REMARK SMILES IDX 22 14 23 15 24 16 32 17 25 18 26 20 27 21 28 22 29 24 30 25
REMARK SMILES IDX 31 26 9 28 15 30 16 32 17 33 18 34 19 37 20 38 21 39
REMARK H PARENT 25 19 28 23 31 27 9 29 15 31 18 35 18 36 21 40
ROOT
ATOM      1  O   UNL     1     141.219 171.575 108.163  1.00  0.00    -0.288 OA
ATOM      2  C   UNL     1     140.126 172.048 107.765  1.00  0.00     0.196 C 
ATOM      3  C   UNL     1     139.721 171.783 106.365  1.00  0.00     0.030 A 
ATOM      4  C   UNL     1     140.572 171.028 105.582  1.00  0.00    -0.097 A 
ATOM      5  O   UNL     1     141.761 170.549 106.125  1.00  0.00    -0.872 OA
ATOM      6  C   UNL     1     140.216 170.767 104.277  1.00  0.00    -0.004 A 
ATOM      7  C   UNL     1     139.042 171.249 103.769  1.00  0.00     0.046 A 
ATOM      8  C   UNL     1     138.179 172.004 104.532  1.00  0.00     0.127 A 
ATOM      9  C   UNL     1     138.551 172.261 105.852  1.00  0.00     0.075 A 
ATOM     10  C   UNL     1     137.664 173.061 106.705  1.00  0.00     0.200 C 
ATOM     11  O   UNL     1     136.610 173.458 106.151  1.00  0.00    -0.288 OA
ATOM     12  C   UNL     1     138.040 173.335 108.084  1.00  0.00     0.059 A 
ATOM     13  C   UNL     1     137.178 174.088 108.831  1.00  0.00     0.046 A 
ATOM     14  C   UNL     1     137.578 174.334 110.161  1.00  0.00     0.028 A 
ATOM     15  C   UNL     1     138.746 173.852 110.663  1.00  0.00     0.028 A 
ATOM     16  C   UNL     1     139.633 173.079 109.895  1.00  0.00     0.046 A 
ATOM     17  C   UNL     1     139.260 172.830 108.600  1.00  0.00     0.059 A 
ENDROOT
BRANCH  16  18
ATOM     18  N   UNL     1     140.813 172.596 110.535  1.00  0.00    -0.383 N 
ATOM     19  H   UNL     1     141.261 171.736 110.251  1.00  0.00     0.160 HD
BRANCH  18  20
ATOM     20  C   UNL     1     141.436 173.308 111.636  1.00  0.00     0.128 C 
BRANCH  20  21
ATOM     21  C   UNL     1     141.045 172.831 112.988  1.00  0.00     0.102 C 
BRANCH  21  22
ATOM     22  N   UNL     1     141.842 171.671 113.406  1.00  0.00    -0.313 NA
ATOM     23  H   UNL     1     141.950 171.750 114.447  1.00  0.00     0.122 HD
BRANCH  22  24
ATOM     24  C   UNL     1     143.172 171.854 112.844  1.00  0.00     0.109 C 
BRANCH  24  25
ATOM     25  C   UNL     1     143.863 170.529 112.631  1.00  0.00     0.171 C 
BRANCH  25  26
ATOM     26  O   UNL     1     143.015 169.597 112.037  1.00  0.00    -0.395 OA
ATOM     27  H   UNL     1     142.191 169.546 112.596  1.00  0.00     0.210 HD
ENDBRANCH  25  26
ENDBRANCH  24  25
ENDBRANCH  22  24
ENDBRANCH  21  22
ENDBRANCH  20  21
ENDBRANCH  18  20
ENDBRANCH  16  18
BRANCH   8  28
ATOM     28  O   UNL     1     136.976 172.496 104.009  1.00  0.00    -0.507 OA
ATOM     29  H   UNL     1     136.112 171.955 104.056  1.00  0.00     0.293 HD
ENDBRANCH   8  28
BRANCH  13  30
ATOM     30  N   UNL     1     135.949 174.626 108.396  1.00  0.00    -0.379 N 
ATOM     31  H   UNL     1     135.830 175.300 107.655  1.00  0.00     0.160 HD
BRANCH  30  32
ATOM     32  C   UNL     1     134.685 174.213 109.040  1.00  0.00     0.174 C 
BRANCH  32  33
ATOM     33  C   UNL     1     134.520 172.738 109.077  1.00  0.00     0.281 C 
BRANCH  33  34
ATOM     34  N   UNL     1     134.394 172.114 107.796  1.00  0.00    -0.343 N 
ATOM     35  H   UNL     1     133.405 172.004 107.479  1.00  0.00     0.346 HD
ATOM     36  H   UNL     1     134.850 172.744 107.090  1.00  0.00     0.346 HD
BRANCH  34  37
ATOM     37  C   UNL     1     135.058 170.837 107.700  1.00  0.00     0.289 C 
BRANCH  37  38
ATOM     38  C   UNL     1     135.939 170.558 108.897  1.00  0.00     0.217 C 
BRANCH  38  39
ATOM     39  O   UNL     1     137.112 169.969 108.458  1.00  0.00    -0.391 OA
ATOM     40  H   UNL     1     137.405 169.334 109.174  1.00  0.00     0.210 HD
ENDBRANCH  38  39
ENDBRANCH  37  38
ENDBRANCH  34  37
ENDBRANCH  33  34
ENDBRANCH  32  33
ENDBRANCH  30  32
ENDBRANCH  13  30
TORSDOF 15
ENDMDL
MODEL 6
REMARK VINA RESULT:      -4.8      1.574      6.933
REMARK SMILES O=C1c2c([O-])ccc(O)c2C(=O)c2c(NCC[NH2+]CCO)ccc(NCCNCCO)c21
REMARK SMILES IDX 1 1 2 2 3 3 4 4 5 5 6 6 7 7 8 8 10 9 11 10 12 11 13 12 14 13
REMARK SMILES IDX 22 14 23 15 24 16 32 17 25 18 26 20 27 21 28 22 29 24 30 25
REMARK SMILES IDX 31 26 9 28 15 30 16 32 17 33 18 34 19 37 20 38 21 39
REMARK H PARENT 25 19 28 23 31 27 9 29 15 31 18 35 18 36 21 40
ROOT
ATOM      1  O   UNL     1     141.002 172.142 108.629  1.00  0.00    -0.288 OA
ATOM      2  C   UNL     1     139.800 172.266 108.290  1.00  0.00     0.196 C 
ATOM      3  C   UNL     1     139.408 171.821 106.933  1.00  0.00     0.030 A 
ATOM      4  C   UNL     1     140.394 171.292 106.121  1.00  0.00    -0.097 A 
ATOM      5  O   UNL     1     141.698 171.197 106.598  1.00  0.00    -0.872 OA
ATOM      6  C   UNL     1     140.054 170.869 104.855  1.00  0.00    -0.004 A 
ATOM      7  C   UNL     1     138.764 170.974 104.412  1.00  0.00     0.046 A 
ATOM      8  C   UNL     1     137.767 171.498 105.204  1.00  0.00     0.127 A 
ATOM      9  C   UNL     1     138.124 171.921 106.484  1.00  0.00     0.075 A 
ATOM     10  C   UNL     1     137.096 172.487 107.366  1.00  0.00     0.200 C 
ATOM     11  O   UNL     1     135.944 172.541 106.872  1.00  0.00    -0.288 OA
ATOM     12  C   UNL     1     137.456 172.933 108.704  1.00  0.00     0.059 A 
ATOM     13  C   UNL     1     136.458 173.454 109.481  1.00  0.00     0.046 A 
ATOM     14  C   UNL     1     136.847 173.876 110.769  1.00  0.00     0.028 A 
ATOM     15  C   UNL     1     138.129 173.770 111.207  1.00  0.00     0.028 A 
ATOM     16  C   UNL     1     139.155 173.235 110.409  1.00  0.00     0.046 A 
ATOM     17  C   UNL     1     138.795 172.819 109.153  1.00  0.00     0.059 A 
ENDROOT
BRANCH  16  18
ATOM     18  N   UNL     1     140.457 173.139 110.983  1.00  0.00    -0.383 N 
ATOM     19  H   UNL     1     141.273 172.931 110.425  1.00  0.00     0.160 HD
BRANCH  18  20
ATOM     20  C   UNL     1     140.685 173.327 112.404  1.00  0.00     0.128 C 
BRANCH  20  21
ATOM     21  C   UNL     1     142.023 172.892 112.883  1.00  0.00     0.102 C 
BRANCH  21  22
ATOM     22  N   UNL     1     142.722 172.081 111.878  1.00  0.00    -0.313 NA
ATOM     23  H   UNL     1     142.165 171.197 111.776  1.00  0.00     0.122 HD
BRANCH  22  24
ATOM     24  C   UNL     1     143.996 171.693 112.466  1.00  0.00     0.109 C 
BRANCH  24  25
ATOM     25  C   UNL     1     144.051 170.206 112.720  1.00  0.00     0.171 C 
BRANCH  25  26
ATOM     26  O   UNL     1     142.997 169.540 112.099  1.00  0.00    -0.395 OA
ATOM     27  H   UNL     1     143.209 168.566 112.116  1.00  0.00     0.210 HD
ENDBRANCH  25  26
ENDBRANCH  24  25
ENDBRANCH  22  24
ENDBRANCH  21  22
ENDBRANCH  20  21
ENDBRANCH  18  20
ENDBRANCH  16  18
BRANCH   8  28
ATOM     28  O   UNL     1     136.447 171.603 104.748  1.00  0.00    -0.507 OA
ATOM     29  H   UNL     1     135.775 170.844 104.875  1.00  0.00     0.293 HD
ENDBRANCH   8  28
BRANCH  13  30
ATOM     30  N   UNL     1     135.105 173.600 109.112  1.00  0.00    -0.379 N 
ATOM     31  H   UNL     1     134.598 173.000 108.480  1.00  0.00     0.160 HD
BRANCH  30  32
ATOM     32  C   UNL     1     134.300 174.711 109.661  1.00  0.00     0.174 C 
BRANCH  32  33
ATOM     33  C   UNL     1     132.953 174.273 110.106  1.00  0.00     0.281 C 
BRANCH  33  34
ATOM     34  N   UNL     1     132.654 172.897 109.853  1.00  0.00    -0.343 N 
ATOM     35  H   UNL     1     133.410 172.392 109.337  1.00  0.00     0.346 HD
ATOM     36  H   UNL     1     132.571 172.413 110.781  1.00  0.00     0.346 HD
BRANCH  34  37
ATOM     37  C   UNL     1     131.403 172.688 109.165  1.00  0.00     0.289 C 
BRANCH  37  38
ATOM     38  C   UNL     1     131.588 172.546 107.671  1.00  0.00     0.217 C 
BRANCH  38  39
ATOM     39  O   UNL     1     132.906 172.207 107.417  1.00  0.00    -0.391 OA
ATOM     40  H   UNL     1     132.966 171.210 107.469  1.00  0.00     0.210 HD
ENDBRANCH  38  39
ENDBRANCH  37  38
ENDBRANCH  34  37
ENDBRANCH  33  34
ENDBRANCH  32  33
ENDBRANCH  30  32
ENDBRANCH  13  30
TORSDOF 15
ENDMDL
MODEL 7
REMARK VINA RESULT:      -4.8      1.014      1.096
REMARK SMILES O=C1c2c([O-])ccc(O)c2C(=O)c2c(NCC[NH2+]CCO)ccc(NCCNCCO)c21
REMARK SMILES IDX 1 1 2 2 3 3 4 4 5 5 6 6 7 7 8 8 10 9 11 10 12 11 13 12 14 13
REMARK SMILES IDX 22 14 23 15 24 16 32 17 25 18 26 20 27 21 28 22 29 24 30 25
REMARK SMILES IDX 31 26 9 28 15 30 16 32 17 33 18 34 19 37 20 38 21 39
REMARK H PARENT 25 19 28 23 31 27 9 29 15 31 18 35 18 36 21 40
ROOT
ATOM      1  O   UNL     1     136.599 173.500 106.670  1.00  0.00    -0.288 OA
ATOM      2  C   UNL     1     137.720 173.035 106.991  1.00  0.00     0.196 C 
ATOM      3  C   UNL     1     138.443 172.208 105.997  1.00  0.00     0.030 A 
ATOM      4  C   UNL     1     137.837 172.000 104.773  1.00  0.00    -0.097 A 
ATOM      5  O   UNL     1     136.591 172.565 104.519  1.00  0.00    -0.872 OA
ATOM      6  C   UNL     1     138.490 171.236 103.831  1.00  0.00    -0.004 A 
ATOM      7  C   UNL     1     139.714 170.693 104.107  1.00  0.00     0.046 A 
ATOM      8  C   UNL     1     140.336 170.887 105.321  1.00  0.00     0.127 A 
ATOM      9  C   UNL     1     139.664 171.664 106.265  1.00  0.00     0.075 A 
ATOM     10  C   UNL     1     140.286 171.899 107.573  1.00  0.00     0.200 C 
ATOM     11  O   UNL     1     141.408 171.362 107.733  1.00  0.00    -0.288 OA
ATOM     12  C   UNL     1     139.595 172.708 108.568  1.00  0.00     0.059 A 
ATOM     13  C   UNL     1     140.220 172.892 109.770  1.00  0.00     0.046 A 
ATOM     14  C   UNL     1     139.519 173.678 110.707  1.00  0.00     0.028 A 
ATOM     15  C   UNL     1     138.303 174.217 110.429  1.00  0.00     0.028 A 
ATOM     16  C   UNL     1     137.659 174.028 109.194  1.00  0.00     0.046 A 
ATOM     17  C   UNL     1     138.327 173.266 108.271  1.00  0.00     0.059 A 
ENDROOT
BRANCH  16  18
ATOM     18  N   UNL     1     136.401 174.670 108.999  1.00  0.00    -0.383 N 
ATOM     19  H   UNL     1     136.221 175.261 108.200  1.00  0.00     0.160 HD
BRANCH  18  20
ATOM     20  C   UNL     1     135.306 174.516 109.939  1.00  0.00     0.128 C 
BRANCH  20  21
ATOM     21  C   UNL     1     134.996 173.110 110.309  1.00  0.00     0.102 C 
BRANCH  21  22
ATOM     22  N   UNL     1     134.923 172.241 109.127  1.00  0.00    -0.313 NA
ATOM     23  H   UNL     1     133.905 172.031 108.981  1.00  0.00     0.122 HD
BRANCH  22  24
ATOM     24  C   UNL     1     135.550 170.980 109.496  1.00  0.00     0.109 C 
BRANCH  24  25
ATOM     25  C   UNL     1     136.085 170.260 108.282  1.00  0.00     0.171 C 
BRANCH  25  26
ATOM     26  O   UNL     1     137.394 169.825 108.480  1.00  0.00    -0.395 OA
ATOM     27  H   UNL     1     137.906 170.587 108.868  1.00  0.00     0.210 HD
ENDBRANCH  25  26
ENDBRANCH  24  25
ENDBRANCH  22  24
ENDBRANCH  21  22
ENDBRANCH  20  21
ENDBRANCH  18  20
ENDBRANCH  16  18
BRANCH   8  28
ATOM     28  O   UNL     1     141.590 170.330 105.600  1.00  0.00    -0.507 OA
ATOM     29  H   UNL     1     141.773 169.333 105.472  1.00  0.00     0.293 HD
ENDBRANCH   8  28
BRANCH  13  30
ATOM     30  N   UNL     1     141.478 172.375 110.143  1.00  0.00    -0.379 N 
ATOM     31  H   UNL     1     141.834 171.461 109.905  1.00  0.00     0.160 HD
BRANCH  30  32
ATOM     32  C   UNL     1     142.404 173.186 110.959  1.00  0.00     0.174 C 
BRANCH  32  33
ATOM     33  C   UNL     1     143.163 172.371 111.941  1.00  0.00     0.281 C 
BRANCH  33  34
ATOM     34  N   UNL     1     142.355 171.656 112.881  1.00  0.00    -0.343 N 
ATOM     35  H   UNL     1     141.371 172.003 112.937  1.00  0.00     0.346 HD
ATOM     36  H   UNL     1     142.288 170.662 112.551  1.00  0.00     0.346 HD
BRANCH  34  37
ATOM     37  C   UNL     1     142.909 171.613 114.212  1.00  0.00     0.289 C 
BRANCH  37  38
ATOM     38  C   UNL     1     142.166 170.650 115.110  1.00  0.00     0.217 C 
BRANCH  38  39
ATOM     39  O   UNL     1     141.025 170.221 114.454  1.00  0.00    -0.391 OA
ATOM     40  H   UNL     1     141.240 170.204 113.476  1.00  0.00     0.210 HD
ENDBRANCH  38  39
ENDBRANCH  37  38
ENDBRANCH  34  37
ENDBRANCH  33  34
ENDBRANCH  32  33
ENDBRANCH  30  32
ENDBRANCH  13  30
TORSDOF 15
ENDMDL
MODEL 8
REMARK VINA RESULT:      -4.8      5.951      9.432
REMARK SMILES O=C1c2c([O-])ccc(O)c2C(=O)c2c(NCC[NH2+]CCO)ccc(NCCNCCO)c21
REMARK SMILES IDX 1 1 2 2 3 3 4 4 5 5 6 6 7 7 8 8 10 9 11 10 12 11 13 12 14 13
REMARK SMILES IDX 22 14 23 15 24 16 32 17 25 18 26 20 27 21 28 22 29 24 30 25
REMARK SMILES IDX 31 26 9 28 15 30 16 32 17 33 18 34 19 37 20 38 21 39
REMARK H PARENT 25 19 28 23 31 27 9 29 15 31 18 35 18 36 21 40
ROOT
ATOM      1  O   UNL     1     140.871 172.435 112.353  1.00  0.00    -0.288 OA
ATOM      2  C   UNL     1     140.538 172.896 113.472  1.00  0.00     0.196 C 
ATOM      3  C   UNL     1     139.634 174.069 113.502  1.00  0.00     0.030 A 
ATOM      4  C   UNL     1     139.210 174.584 112.292  1.00  0.00    -0.097 A 
ATOM      5  O   UNL     1     139.638 173.994 111.107  1.00  0.00    -0.872 OA
ATOM      6  C   UNL     1     138.368 175.674 112.294  1.00  0.00    -0.004 A 
ATOM      7  C   UNL     1     137.962 176.234 113.474  1.00  0.00     0.046 A 
ATOM      8  C   UNL     1     138.373 175.737 114.691  1.00  0.00     0.127 A 
ATOM      9  C   UNL     1     139.225 174.633 114.675  1.00  0.00     0.075 A 
ATOM     10  C   UNL     1     139.689 174.067 115.947  1.00  0.00     0.200 C 
ATOM     11  O   UNL     1     139.264 174.647 116.974  1.00  0.00    -0.288 OA
ATOM     12  C   UNL     1     140.579 172.914 115.944  1.00  0.00     0.059 A 
ATOM     13  C   UNL     1     140.982 172.431 117.157  1.00  0.00     0.046 A 
ATOM     14  C   UNL     1     141.845 171.316 117.113  1.00  0.00     0.028 A 
ATOM     15  C   UNL     1     142.246 170.761 115.939  1.00  0.00     0.028 A 
ATOM     16  C   UNL     1     141.832 171.258 114.691  1.00  0.00     0.046 A 
ATOM     17  C   UNL     1     140.993 172.341 114.715  1.00  0.00     0.059 A 
ENDROOT
BRANCH  16  18
ATOM     18  N   UNL     1     142.286 170.575 113.524  1.00  0.00    -0.383 N 
ATOM     19  H   UNL     1     141.643 170.179 112.853  1.00  0.00     0.160 HD
BRANCH  18  20
ATOM     20  C   UNL     1     143.698 170.405 113.235  1.00  0.00     0.128 C 
BRANCH  20  21
ATOM     21  C   UNL     1     144.448 171.670 113.022  1.00  0.00     0.102 C 
BRANCH  21  22
ATOM     22  N   UNL     1     145.724 171.436 112.334  1.00  0.00    -0.313 NA
ATOM     23  H   UNL     1     146.447 171.331 113.087  1.00  0.00     0.122 HD
BRANCH  22  24
ATOM     24  C   UNL     1     146.049 172.666 111.627  1.00  0.00     0.109 C 
BRANCH  24  25
ATOM     25  C   UNL     1     147.541 172.893 111.581  1.00  0.00     0.171 C 
BRANCH  25  26
ATOM     26  O   UNL     1     148.203 172.153 112.558  1.00  0.00    -0.395 OA
ATOM     27  H   UNL     1     148.276 172.729 113.369  1.00  0.00     0.210 HD
ENDBRANCH  25  26
ENDBRANCH  24  25
ENDBRANCH  22  24
ENDBRANCH  21  22
ENDBRANCH  20  21
ENDBRANCH  18  20
ENDBRANCH  16  18
BRANCH   8  28
ATOM     28  O   UNL     1     137.954 176.313 115.897  1.00  0.00    -0.507 OA
ATOM     29  H   UNL     1     137.169 176.965 115.934  1.00  0.00     0.293 HD
ENDBRANCH   8  28
BRANCH  13  30
ATOM     30  N   UNL     1     140.617 172.940 118.421  1.00  0.00    -0.379 N 
ATOM     31  H   UNL     1     140.820 173.867 118.764  1.00  0.00     0.160 HD
BRANCH  30  32
ATOM     32  C   UNL     1     139.874 172.095 119.377  1.00  0.00     0.174 C 
BRANCH  32  33
ATOM     33  C   UNL     1     138.592 171.594 118.819  1.00  0.00     0.281 C 
BRANCH  33  34
ATOM     34  N   UNL     1     137.432 171.923 119.588  1.00  0.00    -0.343 N 
ATOM     35  H   UNL     1     136.747 171.138 119.670  1.00  0.00     0.346 HD
ATOM     36  H   UNL     1     137.748 172.128 120.569  1.00  0.00     0.346 HD
BRANCH  34  37
ATOM     37  C   UNL     1     136.737 173.099 119.124  1.00  0.00     0.289 C 
BRANCH  37  38
ATOM     38  C   UNL     1     136.349 172.996 117.666  1.00  0.00     0.217 C 
BRANCH  38  39
ATOM     39  O   UNL     1     136.235 174.274 117.146  1.00  0.00    -0.391 OA
ATOM     40  H   UNL     1     137.026 174.416 116.548  1.00  0.00     0.210 HD
ENDBRANCH  38  39
ENDBRANCH  37  38
ENDBRANCH  34  37
ENDBRANCH  33  34
ENDBRANCH  32  33
ENDBRANCH  30  32
ENDBRANCH  13  30
TORSDOF 15
ENDMDL
MODEL 9
REMARK VINA RESULT:      -4.8      7.805      8.665
REMARK SMILES O=C1c2c([O-])ccc(O)c2C(=O)c2c(NCC[NH2+]CCO)ccc(NCCNCCO)c21
REMARK SMILES IDX 1 1 2 2 3 3 4 4 5 5 6 6 7 7 8 8 10 9 11 10 12 11 13 12 14 13
REMARK SMILES IDX 22 14 23 15 24 16 32 17 25 18 26 20 27 21 28 22 29 24 30 25
REMARK SMILES IDX 31 26 9 28 15 30 16 32 17 33 18 34 19 37 20 38 21 39
REMARK H PARENT 25 19 28 23 31 27 9 29 15 31 18 35 18 36 21 40
ROOT
ATOM      1  O   UNL     1     140.921 171.349 115.315  1.00  0.00    -0.288 OA
ATOM      2  C   UNL     1     141.773 172.174 114.906  1.00  0.00     0.196 C 
ATOM      3  C   UNL     1     142.859 171.678 114.028  1.00  0.00     0.030 A 
ATOM      4  C   UNL     1     142.865 170.333 113.711  1.00  0.00    -0.097 A 
ATOM      5  O   UNL     1     141.868 169.504 114.218  1.00  0.00    -0.872 OA
ATOM      6  C   UNL     1     143.863 169.849 112.895  1.00  0.00    -0.004 A 
ATOM      7  C   UNL     1     144.830 170.686 112.410  1.00  0.00     0.046 A 
ATOM      8  C   UNL     1     144.843 172.029 112.714  1.00  0.00     0.127 A 
ATOM      9  C   UNL     1     143.826 172.507 113.541  1.00  0.00     0.075 A 
ATOM     10  C   UNL     1     143.798 173.932 113.892  1.00  0.00     0.200 C 
ATOM     11  O   UNL     1     144.725 174.620 113.400  1.00  0.00    -0.288 OA
ATOM     12  C   UNL     1     142.742 174.443 114.754  1.00  0.00     0.059 A 
ATOM     13  C   UNL     1     142.766 175.778 115.051  1.00  0.00     0.046 A 
ATOM     14  C   UNL     1     141.729 176.234 115.890  1.00  0.00     0.028 A 
ATOM     15  C   UNL     1     140.769 175.400 116.369  1.00  0.00     0.028 A 
ATOM     16  C   UNL     1     140.743 174.029 116.065  1.00  0.00     0.046 A 
ATOM     17  C   UNL     1     141.744 173.567 115.251  1.00  0.00     0.059 A 
ENDROOT
BRANCH  16  18
ATOM     18  N   UNL     1     139.669 173.254 116.593  1.00  0.00    -0.383 N 
ATOM     19  H   UNL     1     139.378 172.384 116.169  1.00  0.00     0.160 HD
BRANCH  18  20
ATOM     20  C   UNL     1     138.926 173.672 117.769  1.00  0.00     0.128 C 
BRANCH  20  21
ATOM     21  C   UNL     1     138.416 172.559 118.612  1.00  0.00     0.102 C 
BRANCH  21  22
ATOM     22  N   UNL     1     139.298 171.386 118.554  1.00  0.00    -0.313 NA
ATOM     23  H   UNL     1     139.842 171.473 117.662  1.00  0.00     0.122 HD
BRANCH  22  24
ATOM     24  C   UNL     1     138.437 170.224 118.394  1.00  0.00     0.109 C 
BRANCH  24  25
ATOM     25  C   UNL     1     137.611 170.325 117.135  1.00  0.00     0.171 C 
BRANCH  25  26
ATOM     26  O   UNL     1     138.408 170.281 115.993  1.00  0.00    -0.395 OA
ATOM     27  H   UNL     1     139.337 170.515 116.269  1.00  0.00     0.210 HD
ENDBRANCH  25  26
ENDBRANCH  24  25
ENDBRANCH  22  24
ENDBRANCH  21  22
ENDBRANCH  20  21
ENDBRANCH  18  20
ENDBRANCH  16  18
BRANCH   8  28
ATOM     28  O   UNL     1     145.834 172.884 112.216  1.00  0.00    -0.507 OA
ATOM     29  H   UNL     1     146.826 172.706 112.381  1.00  0.00     0.293 HD
ENDBRANCH   8  28
BRANCH  13  30
ATOM     30  N   UNL     1     143.718 176.715 114.600  1.00  0.00    -0.379 N 
ATOM     31  H   UNL     1     144.713 176.672 114.765  1.00  0.00     0.160 HD
BRANCH  30  32
ATOM     32  C   UNL     1     143.291 177.889 113.811  1.00  0.00     0.174 C 
BRANCH  32  33
ATOM     33  C   UNL     1     144.243 178.220 112.721  1.00  0.00     0.281 C 
BRANCH  33  34
ATOM     34  N   UNL     1     144.804 177.089 112.048  1.00  0.00    -0.343 N 
ATOM     35  H   UNL     1     145.176 176.358 112.695  1.00  0.00     0.346 HD
ATOM     36  H   UNL     1     144.032 176.625 111.508  1.00  0.00     0.346 HD
BRANCH  34  37
ATOM     37  C   UNL     1     145.829 177.427 111.092  1.00  0.00     0.289 C 
BRANCH  37  38
ATOM     38  C   UNL     1     147.019 176.498 111.176  1.00  0.00     0.217 C 
BRANCH  38  39
ATOM     39  O   UNL     1     146.935 175.773 112.352  1.00  0.00    -0.391 OA
ATOM     40  H   UNL     1     146.417 174.942 112.144  1.00  0.00     0.210 HD
ENDBRANCH  38  39
ENDBRANCH  37  38
ENDBRANCH  34  37
ENDBRANCH  33  34
ENDBRANCH  32  33
ENDBRANCH  30  32
ENDBRANCH  13  30
TORSDOF 15
ENDMDL
