MODEL 1
REMARK VINA RESULT:      -7.8      0.000      0.000
REMARK SMILES O=C(CCC[NH+]1CCC(O)(c2ccc(Cl)cc2)CC1)c1ccc(F)cc1
REMARK SMILES IDX 4 1 3 2 2 3 1 4 20 5 21 6 26 7 22 8 25 9 23 10 24 11 5 12
REMARK SMILES IDX 6 13 7 14 19 15 8 16 18 17 9 18 10 20 11 22 12 23 17 24
REMARK SMILES IDX 13 25 16 26 14 27 15 28
REMARK H PARENT 6 19 10 21
ROOT
ATOM      1  C   UNL     1     119.795 156.324 117.895  1.00  0.00     0.070 C 
ENDROOT
BRANCH   1   2
ATOM      2  C   UNL     1     118.514 155.708 117.380  1.00  0.00     0.087 C 
BRANCH   2   3
ATOM      3  C   UNL     1     118.137 154.457 118.044  1.00  0.00     0.163 C 
ATOM      4  O   UNL     1     117.693 153.476 117.393  1.00  0.00    -0.294 OA
BRANCH   3   5
ATOM      5  C   UNL     1     118.256 154.269 119.505  1.00  0.00     0.018 A 
ATOM      6  C   UNL     1     117.476 155.009 120.374  1.00  0.00     0.015 A 
ATOM      7  C   UNL     1     119.138 153.360 120.031  1.00  0.00     0.015 A 
ATOM      8  C   UNL     1     117.591 154.830 121.732  1.00  0.00     0.040 A 
ATOM      9  C   UNL     1     119.258 153.175 121.382  1.00  0.00     0.040 A 
ATOM     10  C   UNL     1     118.481 153.913 122.232  1.00  0.00     0.123 A 
ATOM     11  F   UNL     1     118.632 153.702 123.578  1.00  0.00    -0.207 F 
ENDBRANCH   3   5
ENDBRANCH   2   3
ENDBRANCH   1   2
BRANCH   1  12
ATOM     12  C   UNL     1     120.193 157.424 116.972  1.00  0.00     0.262 C 
BRANCH  12  13
ATOM     13  N   UNL     1     120.323 156.981 115.590  1.00  0.00    -0.335 N 
ATOM     14  C   UNL     1     119.906 157.980 114.653  1.00  0.00     0.265 C 
ATOM     15  C   UNL     1     121.665 156.571 115.330  1.00  0.00     0.265 C 
ATOM     16  C   UNL     1     120.719 159.238 114.788  1.00  0.00     0.102 C 
ATOM     17  C   UNL     1     122.497 157.477 114.525  1.00  0.00     0.102 C 
ATOM     18  C   UNL     1     122.162 158.923 114.530  1.00  0.00     0.100 C 
ATOM     19  H   UNL     1     119.631 156.178 115.500  1.00  0.00     0.348 HD
BRANCH  18  20
ATOM     20  O   UNL     1     122.441 159.415 113.231  1.00  0.00    -0.385 OA
ATOM     21  H   UNL     1     122.110 158.734 112.594  1.00  0.00     0.211 HD
ENDBRANCH  18  20
BRANCH  18  22
ATOM     22  C   UNL     1     123.067 159.726 115.427  1.00  0.00    -0.016 A 
ATOM     23  C   UNL     1     122.713 160.055 116.718  1.00  0.00     0.008 A 
ATOM     24  C   UNL     1     124.301 160.181 115.017  1.00  0.00     0.008 A 
ATOM     25  C   UNL     1     123.510 160.786 117.569  1.00  0.00     0.021 A 
ATOM     26  C   UNL     1     125.118 160.917 115.853  1.00  0.00     0.021 A 
ATOM     27  C   UNL     1     124.722 161.218 117.128  1.00  0.00     0.041 A 
ATOM     28  Cl  UNL     1     125.750 162.147 118.192  1.00  0.00    -0.084 Cl
ENDBRANCH  18  22
ENDBRANCH  12  13
ENDBRANCH   1  12
TORSDOF 7
ENDMDL
MODEL 2
REMARK VINA RESULT:      -7.6      1.628      2.010
REMARK SMILES O=C(CCC[NH+]1CCC(O)(c2ccc(Cl)cc2)CC1)c1ccc(F)cc1
REMARK SMILES IDX 4 1 3 2 2 3 1 4 20 5 21 6 26 7 22 8 25 9 23 10 24 11 5 12
REMARK SMILES IDX 6 13 7 14 19 15 8 16 18 17 9 18 10 20 11 22 12 23 17 24
REMARK SMILES IDX 13 25 16 26 14 27 15 28
REMARK H PARENT 6 19 10 21
ROOT
ATOM      1  C   UNL     1     121.041 156.277 117.646  1.00  0.00     0.070 C 
ENDROOT
BRANCH   1   2
ATOM      2  C   UNL     1     120.689 156.564 119.089  1.00  0.00     0.087 C 
BRANCH   2   3
ATOM      3  C   UNL     1     120.666 155.380 119.950  1.00  0.00     0.163 C 
ATOM      4  O   UNL     1     121.676 155.029 120.613  1.00  0.00    -0.294 OA
BRANCH   3   5
ATOM      5  C   UNL     1     119.465 154.531 120.097  1.00  0.00     0.018 A 
ATOM      6  C   UNL     1     118.222 154.999 119.709  1.00  0.00     0.015 A 
ATOM      7  C   UNL     1     119.553 153.265 120.617  1.00  0.00     0.015 A 
ATOM      8  C   UNL     1     117.109 154.205 119.848  1.00  0.00     0.040 A 
ATOM      9  C   UNL     1     118.449 152.468 120.759  1.00  0.00     0.040 A 
ATOM     10  C   UNL     1     117.225 152.942 120.372  1.00  0.00     0.123 A 
ATOM     11  F   UNL     1     116.143 152.116 120.531  1.00  0.00    -0.207 F 
ENDBRANCH   3   5
ENDBRANCH   2   3
ENDBRANCH   1   2
BRANCH   1  12
ATOM     12  C   UNL     1     120.316 157.252 116.782  1.00  0.00     0.262 C 
BRANCH  12  13
ATOM     13  N   UNL     1     120.439 156.946 115.363  1.00  0.00    -0.335 N 
ATOM     14  C   UNL     1     119.964 158.010 114.531  1.00  0.00     0.265 C 
ATOM     15  C   UNL     1     121.792 156.621 115.046  1.00  0.00     0.265 C 
ATOM     16  C   UNL     1     120.727 159.284 114.773  1.00  0.00     0.102 C 
ATOM     17  C   UNL     1     122.571 157.634 114.319  1.00  0.00     0.102 C 
ATOM     18  C   UNL     1     122.177 159.057 114.466  1.00  0.00     0.100 C 
ATOM     19  H   UNL     1     119.780 156.127 115.207  1.00  0.00     0.348 HD
BRANCH  18  20
ATOM     20  O   UNL     1     122.411 159.681 113.216  1.00  0.00    -0.385 OA
ATOM     21  H   UNL     1     122.281 160.652 113.356  1.00  0.00     0.211 HD
ENDBRANCH  18  20
BRANCH  18  22
ATOM     22  C   UNL     1     123.064 159.810 115.422  1.00  0.00    -0.016 A 
ATOM     23  C   UNL     1     124.333 160.222 115.073  1.00  0.00     0.008 A 
ATOM     24  C   UNL     1     122.667 160.135 116.700  1.00  0.00     0.008 A 
ATOM     25  C   UNL     1     125.175 160.911 115.916  1.00  0.00     0.021 A 
ATOM     26  C   UNL     1     123.494 160.826 117.564  1.00  0.00     0.021 A 
ATOM     27  C   UNL     1     124.746 161.213 117.171  1.00  0.00     0.041 A 
ATOM     28  Cl  UNL     1     125.798 162.089 118.257  1.00  0.00    -0.084 Cl
ENDBRANCH  18  22
ENDBRANCH  12  13
ENDBRANCH   1  12
TORSDOF 7
ENDMDL
MODEL 3
REMARK VINA RESULT:      -7.6      1.033      1.569
REMARK SMILES O=C(CCC[NH+]1CCC(O)(c2ccc(Cl)cc2)CC1)c1ccc(F)cc1
REMARK SMILES IDX 4 1 3 2 2 3 1 4 20 5 21 6 26 7 22 8 25 9 23 10 24 11 5 12
REMARK SMILES IDX 6 13 7 14 19 15 8 16 18 17 9 18 10 20 11 22 12 23 17 24
REMARK SMILES IDX 13 25 16 26 14 27 15 28
REMARK H PARENT 6 19 10 21
ROOT
ATOM      1  C   UNL     1     119.828 156.252 117.736  1.00  0.00     0.070 C 
ENDROOT
BRANCH   1   2
ATOM      2  C   UNL     1     118.558 155.752 117.086  1.00  0.00     0.087 C 
BRANCH   2   3
ATOM      3  C   UNL     1     117.807 154.787 117.892  1.00  0.00     0.163 C 
ATOM      4  O   UNL     1     117.577 153.622 117.477  1.00  0.00    -0.294 OA
BRANCH   3   5
ATOM      5  C   UNL     1     117.277 155.117 119.232  1.00  0.00     0.018 A 
ATOM      6  C   UNL     1     117.947 154.709 120.371  1.00  0.00     0.015 A 
ATOM      7  C   UNL     1     116.115 155.831 119.376  1.00  0.00     0.015 A 
ATOM      8  C   UNL     1     117.449 155.019 121.614  1.00  0.00     0.040 A 
ATOM      9  C   UNL     1     115.613 156.144 120.611  1.00  0.00     0.040 A 
ATOM     10  C   UNL     1     116.285 155.735 121.731  1.00  0.00     0.123 A 
ATOM     11  F   UNL     1     115.750 156.065 122.949  1.00  0.00    -0.207 F 
ENDBRANCH   3   5
ENDBRANCH   2   3
ENDBRANCH   1   2
BRANCH   1  12
ATOM     12  C   UNL     1     120.379 157.359 116.905  1.00  0.00     0.262 C 
BRANCH  12  13
ATOM     13  N   UNL     1     120.474 157.011 115.493  1.00  0.00    -0.335 N 
ATOM     14  C   UNL     1     120.018 158.064 114.638  1.00  0.00     0.265 C 
ATOM     15  C   UNL     1     121.813 156.639 115.169  1.00  0.00     0.265 C 
ATOM     16  C   UNL     1     120.818 159.322 114.834  1.00  0.00     0.102 C 
ATOM     17  C   UNL     1     122.610 157.608 114.404  1.00  0.00     0.102 C 
ATOM     18  C   UNL     1     122.257 159.045 114.514  1.00  0.00     0.100 C 
ATOM     19  H   UNL     1     119.790 156.206 115.370  1.00  0.00     0.348 HD
BRANCH  18  20
ATOM     20  O   UNL     1     122.492 159.627 113.244  1.00  0.00    -0.385 OA
ATOM     21  H   UNL     1     123.327 160.151 113.323  1.00  0.00     0.211 HD
ENDBRANCH  18  20
BRANCH  18  22
ATOM     22  C   UNL     1     123.178 159.800 115.437  1.00  0.00    -0.016 A 
ATOM     23  C   UNL     1     122.826 160.103 116.736  1.00  0.00     0.008 A 
ATOM     24  C   UNL     1     124.426 160.234 115.046  1.00  0.00     0.008 A 
ATOM     25  C   UNL     1     123.637 160.790 117.610  1.00  0.00     0.021 A 
ATOM     26  C   UNL     1     125.257 160.925 115.905  1.00  0.00     0.021 A 
ATOM     27  C   UNL     1     124.862 161.202 117.186  1.00  0.00     0.041 A 
ATOM     28  Cl  UNL     1     125.908 162.074 118.280  1.00  0.00    -0.084 Cl
ENDBRANCH  18  22
ENDBRANCH  12  13
ENDBRANCH   1  12
TORSDOF 7
ENDMDL
MODEL 4
REMARK VINA RESULT:      -7.5      0.774      1.231
REMARK SMILES O=C(CCC[NH+]1CCC(O)(c2ccc(Cl)cc2)CC1)c1ccc(F)cc1
REMARK SMILES IDX 4 1 3 2 2 3 1 4 20 5 21 6 26 7 22 8 25 9 23 10 24 11 5 12
REMARK SMILES IDX 6 13 7 14 19 15 8 16 18 17 9 18 10 20 11 22 12 23 17 24
REMARK SMILES IDX 13 25 16 26 14 27 15 28
REMARK H PARENT 6 19 10 21
ROOT
ATOM      1  C   UNL     1     120.771 156.338 117.709  1.00  0.00     0.070 C 
ENDROOT
BRANCH   1   2
ATOM      2  C   UNL     1     119.864 156.195 118.911  1.00  0.00     0.087 C 
BRANCH   2   3
ATOM      3  C   UNL     1     119.081 154.958 118.932  1.00  0.00     0.163 C 
ATOM      4  O   UNL     1     118.581 154.479 117.882  1.00  0.00    -0.294 OA
BRANCH   3   5
ATOM      5  C   UNL     1     118.832 154.199 120.176  1.00  0.00     0.018 A 
ATOM      6  C   UNL     1     119.291 152.901 120.311  1.00  0.00     0.015 A 
ATOM      7  C   UNL     1     118.145 154.762 121.221  1.00  0.00     0.015 A 
ATOM      8  C   UNL     1     119.056 152.201 121.470  1.00  0.00     0.040 A 
ATOM      9  C   UNL     1     117.907 154.071 122.379  1.00  0.00     0.040 A 
ATOM     10  C   UNL     1     118.366 152.787 122.500  1.00  0.00     0.123 A 
ATOM     11  F   UNL     1     118.106 152.127 123.673  1.00  0.00    -0.207 F 
ENDBRANCH   3   5
ENDBRANCH   2   3
ENDBRANCH   1   2
BRANCH   1  12
ATOM     12  C   UNL     1     120.181 157.352 116.791  1.00  0.00     0.262 C 
BRANCH  12  13
ATOM     13  N   UNL     1     120.306 156.982 115.387  1.00  0.00    -0.335 N 
ATOM     14  C   UNL     1     119.874 158.024 114.506  1.00  0.00     0.265 C 
ATOM     15  C   UNL     1     121.650 156.599 115.098  1.00  0.00     0.265 C 
ATOM     16  C   UNL     1     120.676 159.282 114.701  1.00  0.00     0.102 C 
ATOM     17  C   UNL     1     122.469 157.554 114.337  1.00  0.00     0.102 C 
ATOM     18  C   UNL     1     122.120 158.994 114.418  1.00  0.00     0.100 C 
ATOM     19  H   UNL     1     119.621 156.179 115.260  1.00  0.00     0.348 HD
BRANCH  18  20
ATOM     20  O   UNL     1     122.386 159.555 113.146  1.00  0.00    -0.385 OA
ATOM     21  H   UNL     1     122.613 160.507 113.298  1.00  0.00     0.211 HD
ENDBRANCH  18  20
BRANCH  18  22
ATOM     22  C   UNL     1     123.024 159.758 115.351  1.00  0.00    -0.016 A 
ATOM     23  C   UNL     1     122.642 160.085 116.635  1.00  0.00     0.008 A 
ATOM     24  C   UNL     1     124.283 160.178 114.982  1.00  0.00     0.008 A 
ATOM     25  C   UNL     1     123.436 160.782 117.517  1.00  0.00     0.021 A 
ATOM     26  C   UNL     1     125.098 160.879 115.850  1.00  0.00     0.021 A 
ATOM     27  C   UNL     1     124.674 161.179 117.116  1.00  0.00     0.041 A 
ATOM     28  Cl  UNL     1     125.699 162.063 118.221  1.00  0.00    -0.084 Cl
ENDBRANCH  18  22
ENDBRANCH  12  13
ENDBRANCH   1  12
TORSDOF 7
ENDMDL
MODEL 5
REMARK VINA RESULT:      -7.5     13.017     15.877
REMARK SMILES O=C(CCC[NH+]1CCC(O)(c2ccc(Cl)cc2)CC1)c1ccc(F)cc1
REMARK SMILES IDX 4 1 3 2 2 3 1 4 20 5 21 6 26 7 22 8 25 9 23 10 24 11 5 12
REMARK SMILES IDX 6 13 7 14 19 15 8 16 18 17 9 18 10 20 11 22 12 23 17 24
REMARK SMILES IDX 13 25 16 26 14 27 15 28
REMARK H PARENT 6 19 10 21
ROOT
ATOM      1  C   UNL     1     131.869 170.374 116.036  1.00  0.00     0.070 C 
ENDROOT
BRANCH   1   2
ATOM      2  C   UNL     1     130.718 171.078 115.352  1.00  0.00     0.087 C 
BRANCH   2   3
ATOM      3  C   UNL     1     130.035 172.069 116.187  1.00  0.00     0.163 C 
ATOM      4  O   UNL     1     130.289 173.297 116.089  1.00  0.00    -0.294 OA
BRANCH   3   5
ATOM      5  C   UNL     1     129.014 171.693 117.187  1.00  0.00     0.018 A 
ATOM      6  C   UNL     1     129.000 172.289 118.435  1.00  0.00     0.015 A 
ATOM      7  C   UNL     1     128.060 170.750 116.903  1.00  0.00     0.015 A 
ATOM      8  C   UNL     1     128.048 171.935 119.361  1.00  0.00     0.040 A 
ATOM      9  C   UNL     1     127.107 170.392 117.819  1.00  0.00     0.040 A 
ATOM     10  C   UNL     1     127.104 170.989 119.050  1.00  0.00     0.123 A 
ATOM     11  F   UNL     1     126.137 170.603 119.942  1.00  0.00    -0.207 F 
ENDBRANCH   3   5
ENDBRANCH   2   3
ENDBRANCH   1   2
BRANCH   1  12
ATOM     12  C   UNL     1     131.317 169.265 116.864  1.00  0.00     0.262 C 
BRANCH  12  13
ATOM     13  N   UNL     1     131.147 168.030 116.110  1.00  0.00    -0.335 N 
ATOM     14  C   UNL     1     131.779 166.912 116.743  1.00  0.00     0.265 C 
ATOM     15  C   UNL     1     129.760 167.773 115.895  1.00  0.00     0.265 C 
ATOM     16  C   UNL     1     131.221 166.666 118.118  1.00  0.00     0.102 C 
ATOM     17  C   UNL     1     129.145 166.706 116.697  1.00  0.00     0.102 C 
ATOM     18  C   UNL     1     129.753 166.379 118.011  1.00  0.00     0.100 C 
ATOM     19  H   UNL     1     131.673 168.196 115.202  1.00  0.00     0.348 HD
BRANCH  18  20
ATOM     20  O   UNL     1     129.616 164.982 118.193  1.00  0.00    -0.385 OA
ATOM     21  H   UNL     1     129.069 164.856 119.008  1.00  0.00     0.211 HD
ENDBRANCH  18  20
BRANCH  18  22
ATOM     22  C   UNL     1     128.993 166.975 119.167  1.00  0.00    -0.016 A 
ATOM     23  C   UNL     1     127.622 166.868 119.274  1.00  0.00     0.008 A 
ATOM     24  C   UNL     1     129.614 167.663 120.186  1.00  0.00     0.008 A 
ATOM     25  C   UNL     1     126.890 167.397 120.313  1.00  0.00     0.021 A 
ATOM     26  C   UNL     1     128.901 168.203 121.238  1.00  0.00     0.021 A 
ATOM     27  C   UNL     1     127.540 168.070 121.300  1.00  0.00     0.041 A 
ATOM     28  Cl  UNL     1     126.631 168.748 122.628  1.00  0.00    -0.084 Cl
ENDBRANCH  18  22
ENDBRANCH  12  13
ENDBRANCH   1  12
TORSDOF 7
ENDMDL
MODEL 6
REMARK VINA RESULT:      -7.4      5.229      8.145
REMARK SMILES O=C(CCC[NH+]1CCC(O)(c2ccc(Cl)cc2)CC1)c1ccc(F)cc1
REMARK SMILES IDX 4 1 3 2 2 3 1 4 20 5 21 6 26 7 22 8 25 9 23 10 24 11 5 12
REMARK SMILES IDX 6 13 7 14 19 15 8 16 18 17 9 18 10 20 11 22 12 23 17 24
REMARK SMILES IDX 13 25 16 26 14 27 15 28
REMARK H PARENT 6 19 10 21
ROOT
ATOM      1  C   UNL     1     119.609 157.758 114.663  1.00  0.00     0.070 C 
ENDROOT
BRANCH   1   2
ATOM      2  C   UNL     1     120.676 157.074 115.488  1.00  0.00     0.087 C 
BRANCH   2   3
ATOM      3  C   UNL     1     121.428 157.974 116.366  1.00  0.00     0.163 C 
ATOM      4  O   UNL     1     121.299 157.930 117.617  1.00  0.00    -0.294 OA
BRANCH   3   5
ATOM      5  C   UNL     1     122.377 158.979 115.845  1.00  0.00     0.018 A 
ATOM      6  C   UNL     1     122.573 160.174 116.514  1.00  0.00     0.015 A 
ATOM      7  C   UNL     1     123.083 158.753 114.691  1.00  0.00     0.015 A 
ATOM      8  C   UNL     1     123.458 161.105 116.023  1.00  0.00     0.040 A 
ATOM      9  C   UNL     1     123.966 159.675 114.196  1.00  0.00     0.040 A 
ATOM     10  C   UNL     1     124.151 160.853 114.867  1.00  0.00     0.123 A 
ATOM     11  F   UNL     1     125.041 161.753 114.339  1.00  0.00    -0.207 F 
ENDBRANCH   3   5
ENDBRANCH   2   3
ENDBRANCH   1   2
BRANCH   1  12
ATOM     12  C   UNL     1     118.528 158.218 115.579  1.00  0.00     0.262 C 
BRANCH  12  13
ATOM     13  N   UNL     1     117.431 157.263 115.680  1.00  0.00    -0.335 N 
ATOM     14  C   UNL     1     116.457 157.649 116.655  1.00  0.00     0.265 C 
ATOM     15  C   UNL     1     116.823 157.076 114.403  1.00  0.00     0.265 C 
ATOM     16  C   UNL     1     115.847 158.985 116.328  1.00  0.00     0.102 C 
ATOM     17  C   UNL     1     115.511 157.703 114.188  1.00  0.00     0.102 C 
ATOM     18  C   UNL     1     115.170 158.903 114.992  1.00  0.00     0.100 C 
ATOM     19  H   UNL     1     117.885 156.373 116.045  1.00  0.00     0.348 HD
BRANCH  18  20
ATOM     20  O   UNL     1     113.782 158.837 115.263  1.00  0.00    -0.385 OA
ATOM     21  H   UNL     1     113.488 157.925 115.015  1.00  0.00     0.211 HD
ENDBRANCH  18  20
BRANCH  18  22
ATOM     22  C   UNL     1     115.330 160.185 114.218  1.00  0.00    -0.016 A 
ATOM     23  C   UNL     1     114.636 160.427 113.051  1.00  0.00     0.008 A 
ATOM     24  C   UNL     1     116.177 161.194 114.623  1.00  0.00     0.008 A 
ATOM     25  C   UNL     1     114.753 161.584 112.314  1.00  0.00     0.021 A 
ATOM     26  C   UNL     1     116.312 162.363 113.900  1.00  0.00     0.021 A 
ATOM     27  C   UNL     1     115.600 162.557 112.747  1.00  0.00     0.041 A 
ATOM     28  Cl  UNL     1     115.763 164.033 111.828  1.00  0.00    -0.084 Cl
ENDBRANCH  18  22
ENDBRANCH  12  13
ENDBRANCH   1  12
TORSDOF 7
ENDMDL
MODEL 7
REMARK VINA RESULT:      -7.4      1.657      2.240
REMARK SMILES O=C(CCC[NH+]1CCC(O)(c2ccc(Cl)cc2)CC1)c1ccc(F)cc1
REMARK SMILES IDX 4 1 3 2 2 3 1 4 20 5 21 6 26 7 22 8 25 9 23 10 24 11 5 12
REMARK SMILES IDX 6 13 7 14 19 15 8 16 18 17 9 18 10 20 11 22 12 23 17 24
REMARK SMILES IDX 13 25 16 26 14 27 15 28
REMARK H PARENT 6 19 10 21
ROOT
ATOM      1  C   UNL     1     119.412 156.397 117.913  1.00  0.00     0.070 C 
ENDROOT
BRANCH   1   2
ATOM      2  C   UNL     1     120.154 155.605 118.967  1.00  0.00     0.087 C 
BRANCH   2   3
ATOM      3  C   UNL     1     119.289 154.833 119.861  1.00  0.00     0.163 C 
ATOM      4  O   UNL     1     118.396 155.388 120.552  1.00  0.00    -0.294 OA
BRANCH   3   5
ATOM      5  C   UNL     1     119.406 153.367 120.006  1.00  0.00     0.018 A 
ATOM      6  C   UNL     1     118.488 152.525 119.405  1.00  0.00     0.015 A 
ATOM      7  C   UNL     1     120.424 152.808 120.737  1.00  0.00     0.015 A 
ATOM      8  C   UNL     1     118.603 151.162 119.544  1.00  0.00     0.040 A 
ATOM      9  C   UNL     1     120.546 151.452 120.880  1.00  0.00     0.040 A 
ATOM     10  C   UNL     1     119.631 150.630 120.280  1.00  0.00     0.123 A 
ATOM     11  F   UNL     1     119.784 149.278 120.448  1.00  0.00    -0.207 F 
ENDBRANCH   3   5
ENDBRANCH   2   3
ENDBRANCH   1   2
BRANCH   1  12
ATOM     12  C   UNL     1     120.404 157.199 117.142  1.00  0.00     0.262 C 
BRANCH  12  13
ATOM     13  N   UNL     1     120.449 156.834 115.732  1.00  0.00    -0.335 N 
ATOM     14  C   UNL     1     119.912 157.856 114.885  1.00  0.00     0.265 C 
ATOM     15  C   UNL     1     121.785 156.510 115.351  1.00  0.00     0.265 C 
ATOM     16  C   UNL     1     120.670 159.147 115.029  1.00  0.00     0.102 C 
ATOM     17  C   UNL     1     122.508 157.499 114.538  1.00  0.00     0.102 C 
ATOM     18  C   UNL     1     122.103 158.923 114.647  1.00  0.00     0.100 C 
ATOM     19  H   UNL     1     119.792 156.002 115.650  1.00  0.00     0.348 HD
BRANCH  18  20
ATOM     20  O   UNL     1     122.257 159.495 113.360  1.00  0.00    -0.385 OA
ATOM     21  H   UNL     1     122.583 160.419 113.499  1.00  0.00     0.211 HD
ENDBRANCH  18  20
BRANCH  18  22
ATOM     22  C   UNL     1     123.034 159.726 115.517  1.00  0.00    -0.016 A 
ATOM     23  C   UNL     1     124.274 160.139 115.076  1.00  0.00     0.008 A 
ATOM     24  C   UNL     1     122.709 160.099 116.802  1.00  0.00     0.008 A 
ATOM     25  C   UNL     1     125.154 160.873 115.839  1.00  0.00     0.021 A 
ATOM     26  C   UNL     1     123.575 160.835 117.587  1.00  0.00     0.021 A 
ATOM     27  C   UNL     1     124.796 161.221 117.104  1.00  0.00     0.041 A 
ATOM     28  Cl  UNL     1     125.897 162.154 118.089  1.00  0.00    -0.084 Cl
ENDBRANCH  18  22
ENDBRANCH  12  13
ENDBRANCH   1  12
TORSDOF 7
ENDMDL
MODEL 8
REMARK VINA RESULT:      -7.4      1.475      1.913
REMARK SMILES O=C(CCC[NH+]1CCC(O)(c2ccc(Cl)cc2)CC1)c1ccc(F)cc1
REMARK SMILES IDX 4 1 3 2 2 3 1 4 20 5 21 6 26 7 22 8 25 9 23 10 24 11 5 12
REMARK SMILES IDX 6 13 7 14 19 15 8 16 18 17 9 18 10 20 11 22 12 23 17 24
REMARK SMILES IDX 13 25 16 26 14 27 15 28
REMARK H PARENT 6 19 10 21
ROOT
ATOM      1  C   UNL     1     120.624 156.087 117.428  1.00  0.00     0.070 C 
ENDROOT
BRANCH   1   2
ATOM      2  C   UNL     1     119.661 156.133 118.593  1.00  0.00     0.087 C 
BRANCH   2   3
ATOM      3  C   UNL     1     120.185 155.554 119.832  1.00  0.00     0.163 C 
ATOM      4  O   UNL     1     121.270 155.947 120.333  1.00  0.00    -0.294 OA
BRANCH   3   5
ATOM      5  C   UNL     1     119.478 154.484 120.567  1.00  0.00     0.018 A 
ATOM      6  C   UNL     1     118.895 153.431 119.886  1.00  0.00     0.015 A 
ATOM      7  C   UNL     1     119.384 154.509 121.935  1.00  0.00     0.015 A 
ATOM      8  C   UNL     1     118.239 152.439 120.575  1.00  0.00     0.040 A 
ATOM      9  C   UNL     1     118.733 153.525 122.629  1.00  0.00     0.040 A 
ATOM     10  C   UNL     1     118.161 152.488 121.944  1.00  0.00     0.123 A 
ATOM     11  F   UNL     1     117.515 151.523 122.672  1.00  0.00    -0.207 F 
ENDBRANCH   3   5
ENDBRANCH   2   3
ENDBRANCH   1   2
BRANCH   1  12
ATOM     12  C   UNL     1     120.473 157.344 116.642  1.00  0.00     0.262 C 
BRANCH  12  13
ATOM     13  N   UNL     1     120.585 157.127 115.206  1.00  0.00    -0.335 N 
ATOM     14  C   UNL     1     120.104 158.240 114.445  1.00  0.00     0.265 C 
ATOM     15  C   UNL     1     121.936 156.823 114.859  1.00  0.00     0.265 C 
ATOM     16  C   UNL     1     120.868 159.497 114.760  1.00  0.00     0.102 C 
ATOM     17  C   UNL     1     122.709 157.879 114.190  1.00  0.00     0.102 C 
ATOM     18  C   UNL     1     122.316 159.290 114.427  1.00  0.00     0.100 C 
ATOM     19  H   UNL     1     119.925 156.318 115.005  1.00  0.00     0.348 HD
BRANCH  18  20
ATOM     20  O   UNL     1     122.540 159.990 113.217  1.00  0.00    -0.385 OA
ATOM     21  H   UNL     1     122.666 160.941 113.459  1.00  0.00     0.211 HD
ENDBRANCH  18  20
BRANCH  18  22
ATOM     22  C   UNL     1     123.210 159.983 115.421  1.00  0.00    -0.016 A 
ATOM     23  C   UNL     1     124.505 160.345 115.113  1.00  0.00     0.008 A 
ATOM     24  C   UNL     1     122.795 160.299 116.696  1.00  0.00     0.008 A 
ATOM     25  C   UNL     1     125.354 160.979 115.991  1.00  0.00     0.021 A 
ATOM     26  C   UNL     1     123.629 160.934 117.595  1.00  0.00     0.021 A 
ATOM     27  C   UNL     1     124.907 161.274 117.242  1.00  0.00     0.041 A 
ATOM     28  Cl  UNL     1     125.968 162.079 118.372  1.00  0.00    -0.084 Cl
ENDBRANCH  18  22
ENDBRANCH  12  13
ENDBRANCH   1  12
TORSDOF 7
ENDMDL
MODEL 9
REMARK VINA RESULT:      -7.3      1.627      2.185
REMARK SMILES O=C(CCC[NH+]1CCC(O)(c2ccc(Cl)cc2)CC1)c1ccc(F)cc1
REMARK SMILES IDX 4 1 3 2 2 3 1 4 20 5 21 6 26 7 22 8 25 9 23 10 24 11 5 12
REMARK SMILES IDX 6 13 7 14 19 15 8 16 18 17 9 18 10 20 11 22 12 23 17 24
REMARK SMILES IDX 13 25 16 26 14 27 15 28
REMARK H PARENT 6 19 10 21
ROOT
ATOM      1  C   UNL     1     121.023 156.956 117.728  1.00  0.00     0.070 C 
ENDROOT
BRANCH   1   2
ATOM      2  C   UNL     1     120.304 156.052 118.703  1.00  0.00     0.087 C 
BRANCH   2   3
ATOM      3  C   UNL     1     118.981 155.611 118.254  1.00  0.00     0.163 C 
ATOM      4  O   UNL     1     118.833 154.958 117.189  1.00  0.00    -0.294 OA
BRANCH   3   5
ATOM      5  C   UNL     1     117.748 155.901 119.016  1.00  0.00     0.018 A 
ATOM      6  C   UNL     1     117.483 155.239 120.201  1.00  0.00     0.015 A 
ATOM      7  C   UNL     1     116.843 156.830 118.569  1.00  0.00     0.015 A 
ATOM      8  C   UNL     1     116.335 155.514 120.905  1.00  0.00     0.040 A 
ATOM      9  C   UNL     1     115.697 157.109 119.265  1.00  0.00     0.040 A 
ATOM     10  C   UNL     1     115.446 156.447 120.436  1.00  0.00     0.123 A 
ATOM     11  F   UNL     1     114.288 156.752 121.103  1.00  0.00    -0.207 F 
ENDBRANCH   3   5
ENDBRANCH   2   3
ENDBRANCH   1   2
BRANCH   1  12
ATOM     12  C   UNL     1     120.022 157.509 116.772  1.00  0.00     0.262 C 
BRANCH  12  13
ATOM     13  N   UNL     1     120.229 157.042 115.407  1.00  0.00    -0.335 N 
ATOM     14  C   UNL     1     119.896 158.036 114.432  1.00  0.00     0.265 C 
ATOM     15  C   UNL     1     121.574 156.598 115.238  1.00  0.00     0.265 C 
ATOM     16  C   UNL     1     120.728 159.277 114.602  1.00  0.00     0.102 C 
ATOM     17  C   UNL     1     122.477 157.472 114.476  1.00  0.00     0.102 C 
ATOM     18  C   UNL     1     122.177 158.925 114.440  1.00  0.00     0.100 C 
ATOM     19  H   UNL     1     119.525 156.254 115.284  1.00  0.00     0.348 HD
BRANCH  18  20
ATOM     20  O   UNL     1     122.549 159.391 113.155  1.00  0.00    -0.385 OA
ATOM     21  H   UNL     1     122.860 158.601 112.647  1.00  0.00     0.211 HD
ENDBRANCH  18  20
BRANCH  18  22
ATOM     22  C   UNL     1     123.043 159.721 115.382  1.00  0.00    -0.016 A 
ATOM     23  C   UNL     1     122.632 160.040 116.659  1.00  0.00     0.008 A 
ATOM     24  C   UNL     1     124.293 160.179 115.030  1.00  0.00     0.008 A 
ATOM     25  C   UNL     1     123.392 160.764 117.550  1.00  0.00     0.021 A 
ATOM     26  C   UNL     1     125.073 160.908 115.906  1.00  0.00     0.021 A 
ATOM     27  C   UNL     1     124.621 161.199 117.165  1.00  0.00     0.041 A 
ATOM     28  Cl  UNL     1     125.602 162.119 118.280  1.00  0.00    -0.084 Cl
ENDBRANCH  18  22
ENDBRANCH  12  13
ENDBRANCH   1  12
TORSDOF 7
ENDMDL
