MODEL 1
REMARK VINA RESULT:      -6.4      0.000      0.000
REMARK SMILES COc1ccc(-c2cc(=O)c3c(O)c(OC)c(O)cc3o2)cc1
REMARK SMILES IDX 7 1 8 2 9 3 10 4 11 5 12 6 14 7 17 8 19 9 20 10 21 11 6 12
REMARK SMILES IDX 3 13 4 14 23 15 5 16 22 17 2 18 1 19 13 20 18 22 15 24 16 25
REMARK H PARENT 13 21 18 23
ROOT
ATOM      1  C   UNL     1       4.265  25.628  27.280  1.00  0.00     0.138 A 
ATOM      2  C   UNL     1       4.521  25.677  25.926  1.00  0.00     0.100 A 
ATOM      3  C   UNL     1       4.857  24.495  25.256  1.00  0.00     0.197 A 
ATOM      4  O   UNL     1       5.100  24.497  24.017  1.00  0.00    -0.289 OA
ATOM      5  C   UNL     1       4.930  23.300  25.941  1.00  0.00     0.111 A 
ATOM      6  C   UNL     1       5.258  22.108  25.315  1.00  0.00     0.176 A 
ATOM      7  C   UNL     1       5.331  20.911  25.999  1.00  0.00     0.203 A 
ATOM      8  C   UNL     1       5.061  20.946  27.350  1.00  0.00     0.165 A 
ATOM      9  C   UNL     1       4.733  22.126  27.982  1.00  0.00     0.098 A 
ATOM     10  C   UNL     1       4.659  23.338  27.291  1.00  0.00     0.146 A 
ATOM     11  O   UNL     1       4.354  24.454  27.864  1.00  0.00    -0.456 OA
ENDROOT
BRANCH   1  12
ATOM     12  C   UNL     1       3.906  26.826  28.057  1.00  0.00     0.018 A 
ATOM     13  C   UNL     1       3.308  29.094  29.621  1.00  0.00     0.118 A 
ATOM     14  C   UNL     1       2.584  28.791  28.491  1.00  0.00     0.047 A 
ATOM     15  C   UNL     1       4.340  28.250  29.968  1.00  0.00     0.047 A 
ATOM     16  C   UNL     1       2.879  27.665  27.713  1.00  0.00     0.016 A 
ATOM     17  C   UNL     1       4.628  27.129  29.185  1.00  0.00     0.016 A 
BRANCH  13  18
ATOM     18  O   UNL     1       3.000  30.227  30.391  1.00  0.00    -0.497 OA
ATOM     19  C   UNL     1       3.874  31.320  30.478  1.00  0.00     0.278 C 
ENDBRANCH  13  18
ENDBRANCH   1  12
BRANCH   6  20
ATOM     20  O   UNL     1       5.524  22.103  23.961  1.00  0.00    -0.504 OA
ATOM     21  H   UNL     1       5.847  21.297  23.445  1.00  0.00     0.293 HD
ENDBRANCH   6  20
BRANCH   8  22
ATOM     22  O   UNL     1       5.137  19.733  28.035  1.00  0.00    -0.504 OA
ATOM     23  H   UNL     1       4.955  18.837  27.585  1.00  0.00     0.293 HD
ENDBRANCH   8  22
BRANCH   7  24
ATOM     24  O   UNL     1       5.664  19.736  25.336  1.00  0.00    -0.490 OA
ATOM     25  C   UNL     1       4.624  18.935  24.794  1.00  0.00     0.278 C 
ENDBRANCH   7  24
TORSDOF 5
ENDMDL
MODEL 2
REMARK VINA RESULT:      -6.4      1.676      2.922
REMARK SMILES COc1ccc(-c2cc(=O)c3c(O)c(OC)c(O)cc3o2)cc1
REMARK SMILES IDX 7 1 8 2 9 3 10 4 11 5 12 6 14 7 17 8 19 9 20 10 21 11 6 12
REMARK SMILES IDX 3 13 4 14 23 15 5 16 22 17 2 18 1 19 13 20 18 22 15 24 16 25
REMARK H PARENT 13 21 18 23
ROOT
ATOM      1  C   UNL     1       3.592  23.975  27.301  1.00  0.00     0.138 A 
ATOM      2  C   UNL     1       2.785  22.923  27.677  1.00  0.00     0.100 A 
ATOM      3  C   UNL     1       2.999  21.664  27.103  1.00  0.00     0.197 A 
ATOM      4  O   UNL     1       2.282  20.675  27.420  1.00  0.00    -0.289 OA
ATOM      5  C   UNL     1       4.003  21.482  26.175  1.00  0.00     0.111 A 
ATOM      6  C   UNL     1       4.249  20.253  25.583  1.00  0.00     0.176 A 
ATOM      7  C   UNL     1       5.254  20.069  24.655  1.00  0.00     0.203 A 
ATOM      8  C   UNL     1       6.017  21.171  24.332  1.00  0.00     0.165 A 
ATOM      9  C   UNL     1       5.781  22.397  24.915  1.00  0.00     0.098 A 
ATOM     10  C   UNL     1       4.764  22.585  25.855  1.00  0.00     0.146 A 
ATOM     11  O   UNL     1       4.527  23.725  26.412  1.00  0.00    -0.456 OA
ENDROOT
BRANCH   1  12
ATOM     12  C   UNL     1       3.430  25.328  27.858  1.00  0.00     0.018 A 
ATOM     13  C   UNL     1       3.093  27.960  28.814  1.00  0.00     0.118 A 
ATOM     14  C   UNL     1       3.442  26.930  29.656  1.00  0.00     0.047 A 
ATOM     15  C   UNL     1       2.912  27.665  27.481  1.00  0.00     0.047 A 
ATOM     16  C   UNL     1       3.611  25.622  29.184  1.00  0.00     0.016 A 
ATOM     17  C   UNL     1       3.082  26.357  27.018  1.00  0.00     0.016 A 
BRANCH  13  18
ATOM     18  O   UNL     1       2.928  29.265  29.303  1.00  0.00    -0.497 OA
ATOM     19  C   UNL     1       1.700  29.936  29.218  1.00  0.00     0.278 C 
ENDBRANCH  13  18
ENDBRANCH   1  12
BRANCH   6  20
ATOM     20  O   UNL     1       3.470  19.167  25.925  1.00  0.00    -0.504 OA
ATOM     21  H   UNL     1       2.584  18.942  25.497  1.00  0.00     0.293 HD
ENDBRANCH   6  20
BRANCH   8  22
ATOM     22  O   UNL     1       7.030  20.977  23.393  1.00  0.00    -0.504 OA
ATOM     23  H   UNL     1       6.916  21.210  22.409  1.00  0.00     0.293 HD
ENDBRANCH   8  22
BRANCH   7  24
ATOM     24  O   UNL     1       5.470  18.820  24.083  1.00  0.00    -0.490 OA
ATOM     25  C   UNL     1       6.335  17.906  24.739  1.00  0.00     0.278 C 
ENDBRANCH   7  24
TORSDOF 5
ENDMDL
MODEL 3
REMARK VINA RESULT:      -6.3      1.931      7.701
REMARK SMILES COc1ccc(-c2cc(=O)c3c(O)c(OC)c(O)cc3o2)cc1
REMARK SMILES IDX 7 1 8 2 9 3 10 4 11 5 12 6 14 7 17 8 19 9 20 10 21 11 6 12
REMARK SMILES IDX 3 13 4 14 23 15 5 16 22 17 2 18 1 19 13 20 18 22 15 24 16 25
REMARK H PARENT 13 21 18 23
ROOT
ATOM      1  C   UNL     1       4.943  23.350  26.184  1.00  0.00     0.138 A 
ATOM      2  C   UNL     1       5.055  24.543  25.504  1.00  0.00     0.100 A 
ATOM      3  C   UNL     1       4.684  25.729  26.147  1.00  0.00     0.197 A 
ATOM      4  O   UNL     1       4.771  26.843  25.559  1.00  0.00    -0.289 OA
ATOM      5  C   UNL     1       4.214  25.702  27.444  1.00  0.00     0.111 A 
ATOM      6  C   UNL     1       3.836  26.853  28.118  1.00  0.00     0.176 A 
ATOM      7  C   UNL     1       3.365  26.828  29.415  1.00  0.00     0.203 A 
ATOM      8  C   UNL     1       3.283  25.595  30.027  1.00  0.00     0.165 A 
ATOM      9  C   UNL     1       3.656  24.445  29.366  1.00  0.00     0.098 A 
ATOM     10  C   UNL     1       4.133  24.469  28.053  1.00  0.00     0.146 A 
ATOM     11  O   UNL     1       4.487  23.403  27.416  1.00  0.00    -0.456 OA
ENDROOT
BRANCH   1  12
ATOM     12  C   UNL     1       5.312  22.060  25.578  1.00  0.00     0.018 A 
ATOM     13  C   UNL     1       5.971  19.534  24.512  1.00  0.00     0.118 A 
ATOM     14  C   UNL     1       6.276  20.697  23.842  1.00  0.00     0.047 A 
ATOM     15  C   UNL     1       5.331  19.642  25.726  1.00  0.00     0.047 A 
ATOM     16  C   UNL     1       5.950  21.953  24.370  1.00  0.00     0.016 A 
ATOM     17  C   UNL     1       5.009  20.899  26.245  1.00  0.00     0.016 A 
BRANCH  13  18
ATOM     18  O   UNL     1       6.305  18.283  23.969  1.00  0.00    -0.497 OA
ATOM     19  C   UNL     1       6.533  17.163  24.782  1.00  0.00     0.278 C 
ENDBRANCH  13  18
ENDBRANCH   1  12
BRANCH   6  20
ATOM     20  O   UNL     1       3.929  28.074  27.481  1.00  0.00    -0.504 OA
ATOM     21  H   UNL     1       3.148  28.565  27.070  1.00  0.00     0.293 HD
ENDBRANCH   6  20
BRANCH   8  22
ATOM     22  O   UNL     1       2.807  25.577  31.337  1.00  0.00    -0.504 OA
ATOM     23  H   UNL     1       3.274  25.064  32.083  1.00  0.00     0.293 HD
ENDBRANCH   8  22
BRANCH   7  24
ATOM     24  O   UNL     1       2.996  28.004  30.058  1.00  0.00    -0.490 OA
ATOM     25  C   UNL     1       1.618  28.332  30.150  1.00  0.00     0.278 C 
ENDBRANCH   7  24
TORSDOF 5
ENDMDL
MODEL 4
REMARK VINA RESULT:      -6.3      1.753      3.311
REMARK SMILES COc1ccc(-c2cc(=O)c3c(O)c(OC)c(O)cc3o2)cc1
REMARK SMILES IDX 7 1 8 2 9 3 10 4 11 5 12 6 14 7 17 8 19 9 20 10 21 11 6 12
REMARK SMILES IDX 3 13 4 14 23 15 5 16 22 17 2 18 1 19 13 20 18 22 15 24 16 25
REMARK H PARENT 13 21 18 23
ROOT
ATOM      1  C   UNL     1       3.861  23.363  27.003  1.00  0.00     0.138 A 
ATOM      2  C   UNL     1       3.433  22.318  27.794  1.00  0.00     0.100 A 
ATOM      3  C   UNL     1       3.823  21.015  27.465  1.00  0.00     0.197 A 
ATOM      4  O   UNL     1       3.452  20.030  28.162  1.00  0.00    -0.289 OA
ATOM      5  C   UNL     1       4.624  20.782  26.367  1.00  0.00     0.111 A 
ATOM      6  C   UNL     1       5.034  19.507  26.007  1.00  0.00     0.176 A 
ATOM      7  C   UNL     1       5.835  19.272  24.909  1.00  0.00     0.203 A 
ATOM      8  C   UNL     1       6.221  20.370  24.170  1.00  0.00     0.165 A 
ATOM      9  C   UNL     1       5.820  21.642  24.519  1.00  0.00     0.098 A 
ATOM     10  C   UNL     1       5.008  21.881  25.630  1.00  0.00     0.146 A 
ATOM     11  O   UNL     1       4.622  23.063  25.974  1.00  0.00    -0.456 OA
ENDROOT
BRANCH   1  12
ATOM     12  C   UNL     1       3.494  24.762  27.282  1.00  0.00     0.018 A 
ATOM     13  C   UNL     1       2.715  27.400  27.902  1.00  0.00     0.118 A 
ATOM     14  C   UNL     1       3.656  27.139  26.933  1.00  0.00     0.047 A 
ATOM     15  C   UNL     1       2.161  26.327  28.564  1.00  0.00     0.047 A 
ATOM     16  C   UNL     1       4.044  25.829  26.623  1.00  0.00     0.016 A 
ATOM     17  C   UNL     1       2.555  25.023  28.249  1.00  0.00     0.016 A 
BRANCH  13  18
ATOM     18  O   UNL     1       2.336  28.718  28.200  1.00  0.00    -0.497 OA
ATOM     19  C   UNL     1       2.076  29.132  29.515  1.00  0.00     0.278 C 
ENDBRANCH  13  18
ENDBRANCH   1  12
BRANCH   6  20
ATOM     20  O   UNL     1       4.632  18.426  26.765  1.00  0.00    -0.504 OA
ATOM     21  H   UNL     1       3.670  18.189  26.957  1.00  0.00     0.293 HD
ENDBRANCH   6  20
BRANCH   8  22
ATOM     22  O   UNL     1       7.031  20.125  23.061  1.00  0.00    -0.504 OA
ATOM     23  H   UNL     1       8.026  20.343  23.051  1.00  0.00     0.293 HD
ENDBRANCH   8  22
BRANCH   7  24
ATOM     24  O   UNL     1       6.225  17.979  24.579  1.00  0.00    -0.490 OA
ATOM     25  C   UNL     1       5.337  17.165  23.828  1.00  0.00     0.278 C 
ENDBRANCH   7  24
TORSDOF 5
ENDMDL
MODEL 5
REMARK VINA RESULT:      -6.3      1.776      3.286
REMARK SMILES COc1ccc(-c2cc(=O)c3c(O)c(OC)c(O)cc3o2)cc1
REMARK SMILES IDX 7 1 8 2 9 3 10 4 11 5 12 6 14 7 17 8 19 9 20 10 21 11 6 12
REMARK SMILES IDX 3 13 4 14 23 15 5 16 22 17 2 18 1 19 13 20 18 22 15 24 16 25
REMARK H PARENT 13 21 18 23
ROOT
ATOM      1  C   UNL     1       4.155  26.803  28.702  1.00  0.00     0.138 A 
ATOM      2  C   UNL     1       3.933  25.554  29.240  1.00  0.00     0.100 A 
ATOM      3  C   UNL     1       3.941  24.439  28.394  1.00  0.00     0.197 A 
ATOM      4  O   UNL     1       3.740  23.278  28.846  1.00  0.00    -0.289 OA
ATOM      5  C   UNL     1       4.169  24.591  27.042  1.00  0.00     0.111 A 
ATOM      6  C   UNL     1       4.186  23.513  26.169  1.00  0.00     0.176 A 
ATOM      7  C   UNL     1       4.414  23.663  24.816  1.00  0.00     0.203 A 
ATOM      8  C   UNL     1       4.629  24.945  24.356  1.00  0.00     0.165 A 
ATOM      9  C   UNL     1       4.614  26.023  25.215  1.00  0.00     0.098 A 
ATOM     10  C   UNL     1       4.383  25.873  26.585  1.00  0.00     0.146 A 
ATOM     11  O   UNL     1       4.365  26.868  27.406  1.00  0.00    -0.456 OA
ENDROOT
BRANCH   1  12
ATOM     12  C   UNL     1       4.162  28.024  29.524  1.00  0.00     0.018 A 
ATOM     13  C   UNL     1       4.280  30.323  31.153  1.00  0.00     0.118 A 
ATOM     14  C   UNL     1       3.262  30.137  30.247  1.00  0.00     0.047 A 
ATOM     15  C   UNL     1       5.247  29.346  31.241  1.00  0.00     0.047 A 
ATOM     16  C   UNL     1       3.201  28.996  29.437  1.00  0.00     0.016 A 
ATOM     17  C   UNL     1       5.179  28.211  30.428  1.00  0.00     0.016 A 
BRANCH  13  18
ATOM     18  O   UNL     1       4.327  31.473  31.957  1.00  0.00    -0.497 OA
ATOM     19  C   UNL     1       4.321  32.761  31.403  1.00  0.00     0.278 C 
ENDBRANCH  13  18
ENDBRANCH   1  12
BRANCH   6  20
ATOM     20  O   UNL     1       3.968  22.241  26.657  1.00  0.00    -0.504 OA
ATOM     21  H   UNL     1       3.430  21.531  26.183  1.00  0.00     0.293 HD
ENDBRANCH   6  20
BRANCH   8  22
ATOM     22  O   UNL     1       4.859  25.089  22.988  1.00  0.00    -0.504 OA
ATOM     23  H   UNL     1       5.227  24.334  22.412  1.00  0.00     0.293 HD
ENDBRANCH   8  22
BRANCH   7  24
ATOM     24  O   UNL     1       4.424  22.558  23.973  1.00  0.00    -0.490 OA
ATOM     25  C   UNL     1       5.487  21.623  24.078  1.00  0.00     0.278 C 
ENDBRANCH   7  24
TORSDOF 5
ENDMDL
MODEL 6
REMARK VINA RESULT:      -6.3      1.278      1.631
REMARK SMILES COc1ccc(-c2cc(=O)c3c(O)c(OC)c(O)cc3o2)cc1
REMARK SMILES IDX 7 1 8 2 9 3 10 4 11 5 12 6 14 7 17 8 19 9 20 10 21 11 6 12
REMARK SMILES IDX 3 13 4 14 23 15 5 16 22 17 2 18 1 19 13 20 18 22 15 24 16 25
REMARK H PARENT 13 21 18 23
ROOT
ATOM      1  C   UNL     1       4.164  26.651  27.905  1.00  0.00     0.138 A 
ATOM      2  C   UNL     1       3.888  26.942  26.586  1.00  0.00     0.100 A 
ATOM      3  C   UNL     1       4.063  25.945  25.620  1.00  0.00     0.197 A 
ATOM      4  O   UNL     1       3.823  26.172  24.401  1.00  0.00    -0.289 OA
ATOM      5  C   UNL     1       4.504  24.690  25.984  1.00  0.00     0.111 A 
ATOM      6  C   UNL     1       4.690  23.674  25.058  1.00  0.00     0.176 A 
ATOM      7  C   UNL     1       5.131  22.418  25.420  1.00  0.00     0.203 A 
ATOM      8  C   UNL     1       5.385  22.206  26.759  1.00  0.00     0.165 A 
ATOM      9  C   UNL     1       5.203  23.208  27.687  1.00  0.00     0.098 A 
ATOM     10  C   UNL     1       4.757  24.481  27.322  1.00  0.00     0.146 A 
ATOM     11  O   UNL     1       4.580  25.433  28.175  1.00  0.00    -0.456 OA
ENDROOT
BRANCH   1  12
ATOM     12  C   UNL     1       4.005  27.644  28.980  1.00  0.00     0.018 A 
ATOM     13  C   UNL     1       3.802  29.501  31.092  1.00  0.00     0.118 A 
ATOM     14  C   UNL     1       2.887  29.480  30.065  1.00  0.00     0.047 A 
ATOM     15  C   UNL     1       4.827  28.582  31.057  1.00  0.00     0.047 A 
ATOM     16  C   UNL     1       2.985  28.558  29.015  1.00  0.00     0.016 A 
ATOM     17  C   UNL     1       4.919  27.666  30.005  1.00  0.00     0.016 A 
BRANCH  13  18
ATOM     18  O   UNL     1       3.689  30.432  32.137  1.00  0.00    -0.497 OA
ATOM     19  C   UNL     1       4.798  30.823  32.900  1.00  0.00     0.278 C 
ENDBRANCH  13  18
ENDBRANCH   1  12
BRANCH   6  20
ATOM     20  O   UNL     1       4.429  23.915  23.725  1.00  0.00    -0.504 OA
ATOM     21  H   UNL     1       3.963  24.738  23.373  1.00  0.00     0.293 HD
ENDBRANCH   6  20
BRANCH   8  22
ATOM     22  O   UNL     1       5.830  20.934  27.118  1.00  0.00    -0.504 OA
ATOM     23  H   UNL     1       5.300  20.322  27.735  1.00  0.00     0.293 HD
ENDBRANCH   8  22
BRANCH   7  24
ATOM     24  O   UNL     1       5.306  21.425  24.463  1.00  0.00    -0.490 OA
ATOM     25  C   UNL     1       4.315  20.417  24.332  1.00  0.00     0.278 C 
ENDBRANCH   7  24
TORSDOF 5
ENDMDL
MODEL 7
REMARK VINA RESULT:      -6.2      2.167      2.663
REMARK SMILES COc1ccc(-c2cc(=O)c3c(O)c(OC)c(O)cc3o2)cc1
REMARK SMILES IDX 7 1 8 2 9 3 10 4 11 5 12 6 14 7 17 8 19 9 20 10 21 11 6 12
REMARK SMILES IDX 3 13 4 14 23 15 5 16 22 17 2 18 1 19 13 20 18 22 15 24 16 25
REMARK H PARENT 13 21 18 23
ROOT
ATOM      1  C   UNL     1       3.758  26.173  28.985  1.00  0.00     0.138 A 
ATOM      2  C   UNL     1       3.724  26.824  27.771  1.00  0.00     0.100 A 
ATOM      3  C   UNL     1       4.178  26.155  26.629  1.00  0.00     0.197 A 
ATOM      4  O   UNL     1       4.164  26.716  25.497  1.00  0.00    -0.289 OA
ATOM      5  C   UNL     1       4.651  24.862  26.719  1.00  0.00     0.111 A 
ATOM      6  C   UNL     1       5.108  24.163  25.613  1.00  0.00     0.176 A 
ATOM      7  C   UNL     1       5.582  22.870  25.701  1.00  0.00     0.203 A 
ATOM      8  C   UNL     1       5.583  22.288  26.952  1.00  0.00     0.165 A 
ATOM      9  C   UNL     1       5.130  22.974  28.058  1.00  0.00     0.098 A 
ATOM     10  C   UNL     1       4.651  24.284  27.970  1.00  0.00     0.146 A 
ATOM     11  O   UNL     1       4.222  24.944  28.993  1.00  0.00    -0.456 OA
ENDROOT
BRANCH   1  12
ATOM     12  C   UNL     1       3.299  26.809  30.231  1.00  0.00     0.018 A 
ATOM     13  C   UNL     1       2.364  27.921  32.648  1.00  0.00     0.118 A 
ATOM     14  C   UNL     1       3.141  28.649  31.777  1.00  0.00     0.047 A 
ATOM     15  C   UNL     1       2.054  26.625  32.302  1.00  0.00     0.047 A 
ATOM     16  C   UNL     1       3.607  28.099  30.576  1.00  0.00     0.016 A 
ATOM     17  C   UNL     1       2.523  26.083  31.102  1.00  0.00     0.016 A 
BRANCH  13  18
ATOM     18  O   UNL     1       1.905  28.488  33.848  1.00  0.00    -0.497 OA
ATOM     19  C   UNL     1       2.786  29.056  34.779  1.00  0.00     0.278 C 
ENDBRANCH  13  18
ENDBRANCH   1  12
BRANCH   6  20
ATOM     20  O   UNL     1       5.096  24.770  24.374  1.00  0.00    -0.504 OA
ATOM     21  H   UNL     1       4.565  24.440  23.581  1.00  0.00     0.293 HD
ENDBRANCH   6  20
BRANCH   8  22
ATOM     22  O   UNL     1       6.063  20.981  27.034  1.00  0.00    -0.504 OA
ATOM     23  H   UNL     1       6.212  20.507  27.923  1.00  0.00     0.293 HD
ENDBRANCH   8  22
BRANCH   7  24
ATOM     24  O   UNL     1       6.033  22.201  24.569  1.00  0.00    -0.490 OA
ATOM     25  C   UNL     1       5.228  21.172  24.014  1.00  0.00     0.278 C 
ENDBRANCH   7  24
TORSDOF 5
ENDMDL
MODEL 8
REMARK VINA RESULT:      -6.2      1.779      3.472
REMARK SMILES COc1ccc(-c2cc(=O)c3c(O)c(OC)c(O)cc3o2)cc1
REMARK SMILES IDX 7 1 8 2 9 3 10 4 11 5 12 6 14 7 17 8 19 9 20 10 21 11 6 12
REMARK SMILES IDX 3 13 4 14 23 15 5 16 22 17 2 18 1 19 13 20 18 22 15 24 16 25
REMARK H PARENT 13 21 18 23
ROOT
ATOM      1  C   UNL     1       4.248  26.760  28.854  1.00  0.00     0.138 A 
ATOM      2  C   UNL     1       3.958  25.518  29.378  1.00  0.00     0.100 A 
ATOM      3  C   UNL     1       3.918  24.412  28.522  1.00  0.00     0.197 A 
ATOM      4  O   UNL     1       3.656  23.258  28.961  1.00  0.00    -0.289 OA
ATOM      5  C   UNL     1       4.167  24.565  27.173  1.00  0.00     0.111 A 
ATOM      6  C   UNL     1       4.138  23.496  26.291  1.00  0.00     0.176 A 
ATOM      7  C   UNL     1       4.386  23.646  24.942  1.00  0.00     0.203 A 
ATOM      8  C   UNL     1       4.669  24.920  24.496  1.00  0.00     0.165 A 
ATOM      9  C   UNL     1       4.700  25.989  25.365  1.00  0.00     0.098 A 
ATOM     10  C   UNL     1       4.449  25.839  26.731  1.00  0.00     0.146 A 
ATOM     11  O   UNL     1       4.473  26.826  27.561  1.00  0.00    -0.456 OA
ENDROOT
BRANCH   1  12
ATOM     12  C   UNL     1       4.309  27.971  29.689  1.00  0.00     0.018 A 
ATOM     13  C   UNL     1       4.325  30.333  31.230  1.00  0.00     0.118 A 
ATOM     14  C   UNL     1       5.275  29.353  31.408  1.00  0.00     0.047 A 
ATOM     15  C   UNL     1       3.360  30.123  30.270  1.00  0.00     0.047 A 
ATOM     16  C   UNL     1       5.269  28.180  30.644  1.00  0.00     0.016 A 
ATOM     17  C   UNL     1       3.361  28.949  29.512  1.00  0.00     0.016 A 
BRANCH  13  18
ATOM     18  O   UNL     1       4.345  31.503  32.005  1.00  0.00    -0.497 OA
ATOM     19  C   UNL     1       5.517  31.955  32.628  1.00  0.00     0.278 C 
ENDBRANCH  13  18
ENDBRANCH   1  12
BRANCH   6  20
ATOM     20  O   UNL     1       3.852  22.232  26.765  1.00  0.00    -0.504 OA
ATOM     21  H   UNL     1       3.815  21.982  27.742  1.00  0.00     0.293 HD
ENDBRANCH   6  20
BRANCH   8  22
ATOM     22  O   UNL     1       4.919  25.065  23.131  1.00  0.00    -0.504 OA
ATOM     23  H   UNL     1       5.136  24.274  22.527  1.00  0.00     0.293 HD
ENDBRANCH   8  22
BRANCH   7  24
ATOM     24  O   UNL     1       4.348  22.550  24.088  1.00  0.00    -0.490 OA
ATOM     25  C   UNL     1       5.424  21.625  24.111  1.00  0.00     0.278 C 
ENDBRANCH   7  24
TORSDOF 5
ENDMDL
MODEL 9
REMARK VINA RESULT:      -6.1      2.260      2.834
REMARK SMILES COc1ccc(-c2cc(=O)c3c(O)c(OC)c(O)cc3o2)cc1
REMARK SMILES IDX 7 1 8 2 9 3 10 4 11 5 12 6 14 7 17 8 19 9 20 10 21 11 6 12
REMARK SMILES IDX 3 13 4 14 23 15 5 16 22 17 2 18 1 19 13 20 18 22 15 24 16 25
REMARK H PARENT 13 21 18 23
ROOT
ATOM      1  C   UNL     1       3.743  26.186  29.236  1.00  0.00     0.138 A 
ATOM      2  C   UNL     1       3.786  26.901  28.058  1.00  0.00     0.100 A 
ATOM      3  C   UNL     1       4.272  26.278  26.903  1.00  0.00     0.197 A 
ATOM      4  O   UNL     1       4.329  26.898  25.804  1.00  0.00    -0.289 OA
ATOM      5  C   UNL     1       4.700  24.968  26.944  1.00  0.00     0.111 A 
ATOM      6  C   UNL     1       5.188  24.313  25.824  1.00  0.00     0.176 A 
ATOM      7  C   UNL     1       5.617  23.002  25.863  1.00  0.00     0.203 A 
ATOM      8  C   UNL     1       5.542  22.356  27.079  1.00  0.00     0.165 A 
ATOM      9  C   UNL     1       5.058  22.997  28.199  1.00  0.00     0.098 A 
ATOM     10  C   UNL     1       4.624  24.324  28.161  1.00  0.00     0.146 A 
ATOM     11  O   UNL     1       4.168  24.943  29.197  1.00  0.00    -0.456 OA
ENDROOT
BRANCH   1  12
ATOM     12  C   UNL     1       3.246  26.770  30.492  1.00  0.00     0.018 A 
ATOM     13  C   UNL     1       2.343  27.995  32.866  1.00  0.00     0.118 A 
ATOM     14  C   UNL     1       2.087  26.670  32.601  1.00  0.00     0.047 A 
ATOM     15  C   UNL     1       3.058  28.710  31.931  1.00  0.00     0.047 A 
ATOM     16  C   UNL     1       2.535  26.059  31.423  1.00  0.00     0.016 A 
ATOM     17  C   UNL     1       3.501  28.093  30.758  1.00  0.00     0.016 A 
BRANCH  13  18
ATOM     18  O   UNL     1       1.886  28.592  34.052  1.00  0.00    -0.497 OA
ATOM     19  C   UNL     1       2.767  29.199  34.959  1.00  0.00     0.278 C 
ENDBRANCH  13  18
ENDBRANCH   1  12
BRANCH   6  20
ATOM     20  O   UNL     1       5.253  24.984  24.620  1.00  0.00    -0.504 OA
ATOM     21  H   UNL     1       4.586  24.877  23.870  1.00  0.00     0.293 HD
ENDBRANCH   6  20
BRANCH   8  22
ATOM     22  O   UNL     1       5.977  21.031  27.112  1.00  0.00    -0.504 OA
ATOM     23  H   UNL     1       6.820  20.719  26.633  1.00  0.00     0.293 HD
ENDBRANCH   8  22
BRANCH   7  24
ATOM     24  O   UNL     1       6.100  22.379  24.718  1.00  0.00    -0.490 OA
ATOM     25  C   UNL     1       5.269  21.448  24.042  1.00  0.00     0.278 C 
ENDBRANCH   7  24
TORSDOF 5
ENDMDL
