MODEL 1
REMARK VINA RESULT:      -6.4      0.000      0.000
REMARK SMILES O=c1cc(-c2ccccc2)oc2cc(O)cc(O)c12
REMARK SMILES IDX 1 1 2 2 3 3 4 4 11 5 12 6 13 7 14 8 16 9 17 10 19 11 5 12
REMARK SMILES IDX 6 13 10 14 7 15 9 16 8 17 18 18 15 20
REMARK H PARENT 18 19 15 21
ROOT
ATOM      1  O   UNL     1       5.327  37.896 -30.792  1.00  0.00    -0.289 OA
ATOM      2  C   UNL     1       5.701  36.813 -31.308  1.00  0.00     0.197 A 
ATOM      3  C   UNL     1       6.260  35.771 -30.554  1.00  0.00     0.100 A 
ATOM      4  C   UNL     1       6.661  34.594 -31.139  1.00  0.00     0.138 A 
ATOM      5  O   UNL     1       6.495  34.496 -32.436  1.00  0.00    -0.456 OA
ATOM      6  C   UNL     1       5.979  35.433 -33.193  1.00  0.00     0.146 A 
ATOM      7  C   UNL     1       5.830  35.267 -34.565  1.00  0.00     0.094 A 
ATOM      8  C   UNL     1       5.293  36.228 -35.387  1.00  0.00     0.123 A 
ATOM      9  C   UNL     1       4.879  37.422 -34.841  1.00  0.00     0.093 A 
ATOM     10  C   UNL     1       5.011  37.625 -33.485  1.00  0.00     0.134 A 
ATOM     11  C   UNL     1       5.560  36.633 -32.663  1.00  0.00     0.107 A 
ENDROOT
BRANCH   4  12
ATOM     12  C   UNL     1       7.246  33.499 -30.360  1.00  0.00     0.017 A 
ATOM     13  C   UNL     1       8.129  33.680 -29.328  1.00  0.00     0.012 A 
ATOM     14  C   UNL     1       6.900  32.195 -30.667  1.00  0.00     0.012 A 
ATOM     15  C   UNL     1       8.661  32.605 -28.612  1.00  0.00     0.001 A 
ATOM     16  C   UNL     1       7.412  31.108 -29.975  1.00  0.00     0.001 A 
ATOM     17  C   UNL     1       8.305  31.312 -28.931  1.00  0.00     0.000 A 
ENDBRANCH   4  12
BRANCH  10  18
ATOM     18  O   UNL     1       4.596  38.817 -32.940  1.00  0.00    -0.507 OA
ATOM     19  H   UNL     1       5.193  39.325 -32.313  1.00  0.00     0.293 HD
ENDBRANCH  10  18
BRANCH   8  20
ATOM     20  O   UNL     1       5.163  36.017 -36.762  1.00  0.00    -0.508 OA
ATOM     21  H   UNL     1       4.306  36.194 -37.266  1.00  0.00     0.293 HD
ENDBRANCH   8  20
TORSDOF 3
ENDMDL
MODEL 2
REMARK VINA RESULT:      -6.3      0.797      1.348
REMARK SMILES O=c1cc(-c2ccccc2)oc2cc(O)cc(O)c12
REMARK SMILES IDX 1 1 2 2 3 3 4 4 11 5 12 6 13 7 14 8 16 9 17 10 19 11 5 12
REMARK SMILES IDX 6 13 10 14 7 15 9 16 8 17 18 18 15 20
REMARK H PARENT 18 19 15 21
ROOT
ATOM      1  O   UNL     1       5.723  37.747 -30.794  1.00  0.00    -0.289 OA
ATOM      2  C   UNL     1       5.915  36.560 -31.160  1.00  0.00     0.197 A 
ATOM      3  C   UNL     1       6.578  35.620 -30.358  1.00  0.00     0.100 A 
ATOM      4  C   UNL     1       6.776  34.327 -30.780  1.00  0.00     0.138 A 
ATOM      5  O   UNL     1       6.317  34.019 -31.969  1.00  0.00    -0.456 OA
ATOM      6  C   UNL     1       5.691  34.852 -32.763  1.00  0.00     0.146 A 
ATOM      7  C   UNL     1       5.227  34.463 -34.014  1.00  0.00     0.094 A 
ATOM      8  C   UNL     1       4.568  35.309 -34.872  1.00  0.00     0.123 A 
ATOM      9  C   UNL     1       4.348  36.613 -34.488  1.00  0.00     0.093 A 
ATOM     10  C   UNL     1       4.793  37.038 -33.255  1.00  0.00     0.134 A 
ATOM     11  C   UNL     1       5.463  36.160 -32.395  1.00  0.00     0.107 A 
ENDROOT
BRANCH   4  12
ATOM     12  C   UNL     1       7.468  33.337 -29.948  1.00  0.00     0.017 A 
ATOM     13  C   UNL     1       7.335  31.982 -30.100  1.00  0.00     0.012 A 
ATOM     14  C   UNL     1       8.311  33.775 -28.943  1.00  0.00     0.012 A 
ATOM     15  C   UNL     1       8.015  31.076 -29.283  1.00  0.00     0.001 A 
ATOM     16  C   UNL     1       8.999  32.900 -28.117  1.00  0.00     0.001 A 
ATOM     17  C   UNL     1       8.852  31.530 -28.286  1.00  0.00     0.000 A 
ENDBRANCH   4  12
BRANCH  10  18
ATOM     18  O   UNL     1       4.572  38.340 -32.873  1.00  0.00    -0.507 OA
ATOM     19  H   UNL     1       5.319  38.893 -32.494  1.00  0.00     0.293 HD
ENDBRANCH  10  18
BRANCH   8  20
ATOM     20  O   UNL     1       4.119  34.874 -36.121  1.00  0.00    -0.508 OA
ATOM     21  H   UNL     1       4.249  33.928 -36.452  1.00  0.00     0.293 HD
ENDBRANCH   8  20
TORSDOF 3
ENDMDL
MODEL 3
REMARK VINA RESULT:      -6.0     10.771     13.145
REMARK SMILES O=c1cc(-c2ccccc2)oc2cc(O)cc(O)c12
REMARK SMILES IDX 1 1 2 2 3 3 4 4 11 5 12 6 13 7 14 8 16 9 17 10 19 11 5 12
REMARK SMILES IDX 6 13 10 14 7 15 9 16 8 17 18 18 15 20
REMARK H PARENT 18 19 15 21
ROOT
ATOM      1  O   UNL     1       2.440  40.911 -44.427  1.00  0.00    -0.289 OA
ATOM      2  C   UNL     1       2.510  41.147 -43.195  1.00  0.00     0.197 A 
ATOM      3  C   UNL     1       3.054  42.334 -42.683  1.00  0.00     0.100 A 
ATOM      4  C   UNL     1       3.120  42.570 -41.330  1.00  0.00     0.138 A 
ATOM      5  O   UNL     1       2.651  41.630 -40.545  1.00  0.00    -0.456 OA
ATOM      6  C   UNL     1       2.132  40.502 -40.963  1.00  0.00     0.146 A 
ATOM      7  C   UNL     1       1.651  39.544 -40.078  1.00  0.00     0.094 A 
ATOM      8  C   UNL     1       1.101  38.352 -40.482  1.00  0.00     0.123 A 
ATOM      9  C   UNL     1       1.016  38.076 -41.828  1.00  0.00     0.093 A 
ATOM     10  C   UNL     1       1.482  39.000 -42.738  1.00  0.00     0.134 A 
ATOM     11  C   UNL     1       2.039  40.210 -42.306  1.00  0.00     0.107 A 
ENDROOT
BRANCH   4  12
ATOM     12  C   UNL     1       3.687  43.807 -40.786  1.00  0.00     0.017 A 
ATOM     13  C   UNL     1       3.325  44.352 -39.582  1.00  0.00     0.012 A 
ATOM     14  C   UNL     1       4.649  44.484 -41.514  1.00  0.00     0.012 A 
ATOM     15  C   UNL     1       3.893  45.534 -39.102  1.00  0.00     0.001 A 
ATOM     16  C   UNL     1       5.231  45.660 -41.065  1.00  0.00     0.001 A 
ATOM     17  C   UNL     1       4.850  46.195 -39.842  1.00  0.00     0.000 A 
ENDBRANCH   4  12
BRANCH  10  18
ATOM     18  O   UNL     1       1.396  38.723 -44.081  1.00  0.00    -0.507 OA
ATOM     19  H   UNL     1       1.180  39.451 -44.738  1.00  0.00     0.293 HD
ENDBRANCH  10  18
BRANCH   8  20
ATOM     20  O   UNL     1       0.630  37.419 -39.556  1.00  0.00    -0.508 OA
ATOM     21  H   UNL     1      -0.150  37.600 -38.941  1.00  0.00     0.293 HD
ENDBRANCH   8  20
TORSDOF 3
ENDMDL
MODEL 4
REMARK VINA RESULT:      -5.8      1.400      3.010
REMARK SMILES O=c1cc(-c2ccccc2)oc2cc(O)cc(O)c12
REMARK SMILES IDX 1 1 2 2 3 3 4 4 11 5 12 6 13 7 14 8 16 9 17 10 19 11 5 12
REMARK SMILES IDX 6 13 10 14 7 15 9 16 8 17 18 18 15 20
REMARK H PARENT 18 19 15 21
ROOT
ATOM      1  O   UNL     1       4.993  32.647 -33.806  1.00  0.00    -0.289 OA
ATOM      2  C   UNL     1       5.456  33.365 -32.885  1.00  0.00     0.197 A 
ATOM      3  C   UNL     1       6.216  32.841 -31.829  1.00  0.00     0.100 A 
ATOM      4  C   UNL     1       6.714  33.646 -30.832  1.00  0.00     0.138 A 
ATOM      5  O   UNL     1       6.440  34.925 -30.917  1.00  0.00    -0.456 OA
ATOM      6  C   UNL     1       5.736  35.473 -31.877  1.00  0.00     0.146 A 
ATOM      7  C   UNL     1       5.481  36.839 -31.911  1.00  0.00     0.094 A 
ATOM      8  C   UNL     1       4.748  37.446 -32.902  1.00  0.00     0.123 A 
ATOM      9  C   UNL     1       4.232  36.675 -33.920  1.00  0.00     0.093 A 
ATOM     10  C   UNL     1       4.463  35.317 -33.922  1.00  0.00     0.134 A 
ATOM     11  C   UNL     1       5.212  34.718 -32.903  1.00  0.00     0.107 A 
ENDROOT
BRANCH   4  12
ATOM     12  C   UNL     1       7.509  33.108 -29.724  1.00  0.00     0.017 A 
ATOM     13  C   UNL     1       7.609  31.774 -29.430  1.00  0.00     0.012 A 
ATOM     14  C   UNL     1       8.211  33.982 -28.914  1.00  0.00     0.012 A 
ATOM     15  C   UNL     1       8.381  31.307 -28.363  1.00  0.00     0.001 A 
ATOM     16  C   UNL     1       8.985  33.549 -27.848  1.00  0.00     0.001 A 
ATOM     17  C   UNL     1       9.074  32.192 -27.566  1.00  0.00     0.000 A 
ENDBRANCH   4  12
BRANCH  10  18
ATOM     18  O   UNL     1       3.947  34.550 -34.940  1.00  0.00    -0.507 OA
ATOM     19  H   UNL     1       4.533  33.902 -35.435  1.00  0.00     0.293 HD
ENDBRANCH  10  18
BRANCH   8  20
ATOM     20  O   UNL     1       4.516  38.823 -32.894  1.00  0.00    -0.508 OA
ATOM     21  H   UNL     1       3.853  39.272 -33.509  1.00  0.00     0.293 HD
ENDBRANCH   8  20
TORSDOF 3
ENDMDL
MODEL 5
REMARK VINA RESULT:      -5.7      1.435      2.897
REMARK SMILES O=c1cc(-c2ccccc2)oc2cc(O)cc(O)c12
REMARK SMILES IDX 1 1 2 2 3 3 4 4 11 5 12 6 13 7 14 8 16 9 17 10 19 11 5 12
REMARK SMILES IDX 6 13 10 14 7 15 9 16 8 17 18 18 15 20
REMARK H PARENT 18 19 15 21
ROOT
ATOM      1  O   UNL     1       5.160  32.469 -33.663  1.00  0.00    -0.289 OA
ATOM      2  C   UNL     1       5.598  33.216 -32.753  1.00  0.00     0.197 A 
ATOM      3  C   UNL     1       6.366  32.733 -31.684  1.00  0.00     0.100 A 
ATOM      4  C   UNL     1       6.835  33.570 -30.698  1.00  0.00     0.138 A 
ATOM      5  O   UNL     1       6.526  34.839 -30.809  1.00  0.00    -0.456 OA
ATOM      6  C   UNL     1       5.813  35.350 -31.782  1.00  0.00     0.146 A 
ATOM      7  C   UNL     1       5.519  36.707 -31.843  1.00  0.00     0.094 A 
ATOM      8  C   UNL     1       4.776  37.274 -32.849  1.00  0.00     0.123 A 
ATOM      9  C   UNL     1       4.288  36.472 -33.855  1.00  0.00     0.093 A 
ATOM     10  C   UNL     1       4.556  35.121 -33.831  1.00  0.00     0.134 A 
ATOM     11  C   UNL     1       5.316  34.561 -32.797  1.00  0.00     0.107 A 
ENDROOT
BRANCH   4  12
ATOM     12  C   UNL     1       7.638  33.074 -29.577  1.00  0.00     0.017 A 
ATOM     13  C   UNL     1       8.386  33.876 -28.757  1.00  0.00     0.012 A 
ATOM     14  C   UNL     1       7.657  31.716 -29.312  1.00  0.00     0.012 A 
ATOM     15  C   UNL     1       9.137  33.359 -27.699  1.00  0.00     0.001 A 
ATOM     16  C   UNL     1       8.392  31.173 -28.269  1.00  0.00     0.001 A 
ATOM     17  C   UNL     1       9.144  32.003 -27.448  1.00  0.00     0.000 A 
ENDBRANCH   4  12
BRANCH  10  18
ATOM     18  O   UNL     1       4.069  34.321 -34.837  1.00  0.00    -0.507 OA
ATOM     19  H   UNL     1       3.282  33.719 -34.672  1.00  0.00     0.293 HD
ENDBRANCH  10  18
BRANCH   8  20
ATOM     20  O   UNL     1       4.506  38.645 -32.867  1.00  0.00    -0.508 OA
ATOM     21  H   UNL     1       4.966  39.304 -32.257  1.00  0.00     0.293 HD
ENDBRANCH   8  20
TORSDOF 3
ENDMDL
MODEL 6
REMARK VINA RESULT:      -5.7      2.991      4.671
REMARK SMILES O=c1cc(-c2ccccc2)oc2cc(O)cc(O)c12
REMARK SMILES IDX 1 1 2 2 3 3 4 4 11 5 12 6 13 7 14 8 16 9 17 10 19 11 5 12
REMARK SMILES IDX 6 13 10 14 7 15 9 16 8 17 18 18 15 20
REMARK H PARENT 18 19 15 21
ROOT
ATOM      1  O   UNL     1       6.693  34.256 -30.942  1.00  0.00    -0.289 OA
ATOM      2  C   UNL     1       6.066  34.257 -32.031  1.00  0.00     0.197 A 
ATOM      3  C   UNL     1       5.948  33.113 -32.835  1.00  0.00     0.100 A 
ATOM      4  C   UNL     1       5.257  33.137 -34.022  1.00  0.00     0.138 A 
ATOM      5  O   UNL     1       4.715  34.281 -34.365  1.00  0.00    -0.456 OA
ATOM      6  C   UNL     1       4.791  35.382 -33.658  1.00  0.00     0.146 A 
ATOM      7  C   UNL     1       4.193  36.565 -34.077  1.00  0.00     0.094 A 
ATOM      8  C   UNL     1       4.253  37.735 -33.360  1.00  0.00     0.123 A 
ATOM      9  C   UNL     1       4.935  37.754 -32.165  1.00  0.00     0.093 A 
ATOM     10  C   UNL     1       5.542  36.602 -31.715  1.00  0.00     0.134 A 
ATOM     11  C   UNL     1       5.470  35.419 -32.460  1.00  0.00     0.107 A 
ENDROOT
BRANCH   4  12
ATOM     12  C   UNL     1       5.128  31.948 -34.869  1.00  0.00     0.017 A 
ATOM     13  C   UNL     1       5.603  30.709 -34.528  1.00  0.00     0.012 A 
ATOM     14  C   UNL     1       4.491  32.059 -36.092  1.00  0.00     0.012 A 
ATOM     15  C   UNL     1       5.456  29.602 -35.368  1.00  0.00     0.001 A 
ATOM     16  C   UNL     1       4.331  30.980 -36.948  1.00  0.00     0.001 A 
ATOM     17  C   UNL     1       4.818  29.732 -36.584  1.00  0.00     0.000 A 
ENDBRANCH   4  12
BRANCH  10  18
ATOM     18  O   UNL     1       6.222  36.623 -30.521  1.00  0.00    -0.507 OA
ATOM     19  H   UNL     1       5.991  37.298 -29.815  1.00  0.00     0.293 HD
ENDBRANCH  10  18
BRANCH   8  20
ATOM     20  O   UNL     1       3.637  38.901 -33.821  1.00  0.00    -0.508 OA
ATOM     21  H   UNL     1       2.671  39.125 -33.631  1.00  0.00     0.293 HD
ENDBRANCH   8  20
TORSDOF 3
ENDMDL
MODEL 7
REMARK VINA RESULT:      -5.6      5.659      8.627
REMARK SMILES O=c1cc(-c2ccccc2)oc2cc(O)cc(O)c12
REMARK SMILES IDX 1 1 2 2 3 3 4 4 11 5 12 6 13 7 14 8 16 9 17 10 19 11 5 12
REMARK SMILES IDX 6 13 10 14 7 15 9 16 8 17 18 18 15 20
REMARK H PARENT 18 19 15 21
ROOT
ATOM      1  O   UNL     1       5.725  42.785 -39.643  1.00  0.00    -0.289 OA
ATOM      2  C   UNL     1       5.072  41.936 -38.985  1.00  0.00     0.197 A 
ATOM      3  C   UNL     1       5.681  41.040 -38.094  1.00  0.00     0.100 A 
ATOM      4  C   UNL     1       4.946  40.120 -37.385  1.00  0.00     0.138 A 
ATOM      5  O   UNL     1       3.650  40.123 -37.584  1.00  0.00    -0.456 OA
ATOM      6  C   UNL     1       3.024  40.934 -38.402  1.00  0.00     0.146 A 
ATOM      7  C   UNL     1       1.646  40.886 -38.569  1.00  0.00     0.094 A 
ATOM      8  C   UNL     1       0.959  41.721 -39.417  1.00  0.00     0.123 A 
ATOM      9  C   UNL     1       1.657  42.657 -40.146  1.00  0.00     0.093 A 
ATOM     10  C   UNL     1       3.026  42.736 -40.009  1.00  0.00     0.134 A 
ATOM     11  C   UNL     1       3.708  41.876 -39.139  1.00  0.00     0.107 A 
ENDROOT
BRANCH   4  12
ATOM     12  C   UNL     1       5.573  39.180 -36.451  1.00  0.00     0.017 A 
ATOM     13  C   UNL     1       6.884  38.790 -36.521  1.00  0.00     0.012 A 
ATOM     14  C   UNL     1       4.813  38.642 -35.428  1.00  0.00     0.012 A 
ATOM     15  C   UNL     1       7.439  37.890 -35.608  1.00  0.00     0.001 A 
ATOM     16  C   UNL     1       5.335  37.747 -34.507  1.00  0.00     0.001 A 
ATOM     17  C   UNL     1       6.667  37.363 -34.594  1.00  0.00     0.000 A 
ENDBRANCH   4  12
BRANCH  10  18
ATOM     18  O   UNL     1       3.721  43.671 -40.737  1.00  0.00    -0.507 OA
ATOM     19  H   UNL     1       3.237  44.419 -41.199  1.00  0.00     0.293 HD
ENDBRANCH  10  18
BRANCH   8  20
ATOM     20  O   UNL     1      -0.429  41.636 -39.553  1.00  0.00    -0.508 OA
ATOM     21  H   UNL     1      -0.895  41.642 -40.449  1.00  0.00     0.293 HD
ENDBRANCH   8  20
TORSDOF 3
ENDMDL
MODEL 8
REMARK VINA RESULT:      -5.6     11.261     14.239
REMARK SMILES O=c1cc(-c2ccccc2)oc2cc(O)cc(O)c12
REMARK SMILES IDX 1 1 2 2 3 3 4 4 11 5 12 6 13 7 14 8 16 9 17 10 19 11 5 12
REMARK SMILES IDX 6 13 10 14 7 15 9 16 8 17 18 18 15 20
REMARK H PARENT 18 19 15 21
ROOT
ATOM      1  O   UNL     1       0.776  38.327 -41.384  1.00  0.00    -0.289 OA
ATOM      2  C   UNL     1       1.311  39.254 -42.043  1.00  0.00     0.197 A 
ATOM      3  C   UNL     1       1.579  39.147 -43.416  1.00  0.00     0.100 A 
ATOM      4  C   UNL     1       2.165  40.173 -44.117  1.00  0.00     0.138 A 
ATOM      5  O   UNL     1       2.463  41.255 -43.437  1.00  0.00    -0.456 OA
ATOM      6  C   UNL     1       2.238  41.414 -42.156  1.00  0.00     0.146 A 
ATOM      7  C   UNL     1       2.576  42.588 -41.493  1.00  0.00     0.094 A 
ATOM      8  C   UNL     1       2.355  42.787 -40.152  1.00  0.00     0.123 A 
ATOM      9  C   UNL     1       1.769  41.784 -39.413  1.00  0.00     0.093 A 
ATOM     10  C   UNL     1       1.418  40.605 -40.034  1.00  0.00     0.134 A 
ATOM     11  C   UNL     1       1.653  40.421 -41.402  1.00  0.00     0.107 A 
ENDROOT
BRANCH   4  12
ATOM     12  C   UNL     1       2.449  40.071 -45.551  1.00  0.00     0.017 A 
ATOM     13  C   UNL     1       3.408  40.806 -46.197  1.00  0.00     0.012 A 
ATOM     14  C   UNL     1       1.716  39.184 -46.320  1.00  0.00     0.012 A 
ATOM     15  C   UNL     1       3.643  40.674 -47.568  1.00  0.00     0.001 A 
ATOM     16  C   UNL     1       1.927  39.031 -47.681  1.00  0.00     0.001 A 
ATOM     17  C   UNL     1       2.904  39.785 -48.318  1.00  0.00     0.000 A 
ENDBRANCH   4  12
BRANCH  10  18
ATOM     18  O   UNL     1       0.833  39.605 -39.295  1.00  0.00    -0.507 OA
ATOM     19  H   UNL     1      -0.076  39.736 -38.890  1.00  0.00     0.293 HD
ENDBRANCH  10  18
BRANCH   8  20
ATOM     20  O   UNL     1       2.712  43.985 -39.527  1.00  0.00    -0.508 OA
ATOM     21  H   UNL     1       3.449  44.046 -38.839  1.00  0.00     0.293 HD
ENDBRANCH   8  20
TORSDOF 3
ENDMDL
MODEL 9
REMARK VINA RESULT:      -5.6      9.620     11.365
REMARK SMILES O=c1cc(-c2ccccc2)oc2cc(O)cc(O)c12
REMARK SMILES IDX 1 1 2 2 3 3 4 4 11 5 12 6 13 7 14 8 16 9 17 10 19 11 5 12
REMARK SMILES IDX 6 13 10 14 7 15 9 16 8 17 18 18 15 20
REMARK H PARENT 18 19 15 21
ROOT
ATOM      1  O   UNL     1       2.537  40.237 -43.917  1.00  0.00    -0.289 OA
ATOM      2  C   UNL     1       2.324  39.568 -42.874  1.00  0.00     0.197 A 
ATOM      3  C   UNL     1       2.576  38.191 -42.796  1.00  0.00     0.100 A 
ATOM      4  C   UNL     1       2.336  37.479 -41.645  1.00  0.00     0.138 A 
ATOM      5  O   UNL     1       1.860  38.153 -40.625  1.00  0.00    -0.456 OA
ATOM      6  C   UNL     1       1.606  39.438 -40.637  1.00  0.00     0.146 A 
ATOM      7  C   UNL     1       1.101  40.096 -39.521  1.00  0.00     0.094 A 
ATOM      8  C   UNL     1       0.824  41.441 -39.499  1.00  0.00     0.123 A 
ATOM      9  C   UNL     1       1.049  42.190 -40.632  1.00  0.00     0.093 A 
ATOM     10  C   UNL     1       1.549  41.575 -41.759  1.00  0.00     0.134 A 
ATOM     11  C   UNL     1       1.826  40.203 -41.762  1.00  0.00     0.107 A 
ENDROOT
BRANCH   4  12
ATOM     12  C   UNL     1       2.596  36.040 -41.554  1.00  0.00     0.017 A 
ATOM     13  C   UNL     1       3.055  35.276 -42.594  1.00  0.00     0.012 A 
ATOM     14  C   UNL     1       2.370  35.391 -40.353  1.00  0.00     0.012 A 
ATOM     15  C   UNL     1       3.289  33.905 -42.460  1.00  0.00     0.001 A 
ATOM     16  C   UNL     1       2.593  34.032 -40.189  1.00  0.00     0.001 A 
ATOM     17  C   UNL     1       3.059  33.275 -41.256  1.00  0.00     0.000 A 
ENDBRANCH   4  12
BRANCH  10  18
ATOM     18  O   UNL     1       1.774  42.325 -42.889  1.00  0.00    -0.507 OA
ATOM     19  H   UNL     1       2.644  42.248 -43.386  1.00  0.00     0.293 HD
ENDBRANCH  10  18
BRANCH   8  20
ATOM     20  O   UNL     1       0.317  42.059 -38.353  1.00  0.00    -0.508 OA
ATOM     21  H   UNL     1       0.463  41.696 -37.422  1.00  0.00     0.293 HD
ENDBRANCH   8  20
TORSDOF 3
ENDMDL
