MODEL 1
REMARK VINA RESULT:      -4.5      0.000      0.000
REMARK SMILES O=C1c2c([O-])ccc(O)c2C(=O)c2c(NCC[NH2+]CCO)ccc(NCCNCCO)c21
REMARK SMILES IDX 1 1 2 2 3 3 4 4 5 5 6 6 7 7 8 8 10 9 11 10 12 11 13 12 14 13
REMARK SMILES IDX 22 14 23 15 24 16 32 17 25 18 26 20 27 21 28 22 29 24 30 25
REMARK SMILES IDX 31 26 9 28 15 30 16 32 17 33 18 34 19 37 20 38 21 39
REMARK H PARENT 25 19 28 23 31 27 9 29 15 31 18 35 18 36 21 40
ROOT
ATOM      1  O   UNL     1     131.636 157.252 207.298  1.00  0.00    -0.288 OA
ATOM      2  C   UNL     1     132.025 156.707 206.237  1.00  0.00     0.196 C 
ATOM      3  C   UNL     1     131.047 156.550 205.134  1.00  0.00     0.030 A 
ATOM      4  C   UNL     1     129.764 157.018 205.343  1.00  0.00    -0.097 A 
ATOM      5  O   UNL     1     129.439 157.610 206.560  1.00  0.00    -0.872 OA
ATOM      6  C   UNL     1     128.837 156.885 204.333  1.00  0.00    -0.004 A 
ATOM      7  C   UNL     1     129.184 156.300 203.147  1.00  0.00     0.046 A 
ATOM      8  C   UNL     1     130.457 155.827 202.918  1.00  0.00     0.127 A 
ATOM      9  C   UNL     1     131.386 155.968 203.948  1.00  0.00     0.075 A 
ATOM     10  C   UNL     1     132.756 155.479 203.751  1.00  0.00     0.200 C 
ATOM     11  O   UNL     1     132.979 154.959 202.632  1.00  0.00    -0.288 OA
ATOM     12  C   UNL     1     133.735 155.621 204.820  1.00  0.00     0.059 A 
ATOM     13  C   UNL     1     134.995 155.145 204.582  1.00  0.00     0.046 A 
ATOM     14  C   UNL     1     135.913 155.298 205.641  1.00  0.00     0.028 A 
ATOM     15  C   UNL     1     135.566 155.881 206.819  1.00  0.00     0.028 A 
ATOM     16  C   UNL     1     134.271 156.369 207.064  1.00  0.00     0.046 A 
ATOM     17  C   UNL     1     133.365 156.229 206.045  1.00  0.00     0.059 A 
ENDROOT
BRANCH  16  18
ATOM     18  N   UNL     1     134.027 156.995 208.322  1.00  0.00    -0.383 N 
ATOM     19  H   UNL     1     133.261 157.639 208.459  1.00  0.00     0.160 HD
BRANCH  18  20
ATOM     20  C   UNL     1     134.869 156.747 209.479  1.00  0.00     0.128 C 
BRANCH  20  21
ATOM     21  C   UNL     1     134.394 155.659 210.373  1.00  0.00     0.102 C 
BRANCH  21  22
ATOM     22  N   UNL     1     135.141 155.630 211.637  1.00  0.00    -0.313 NA
ATOM     23  H   UNL     1     136.157 155.659 211.377  1.00  0.00     0.122 HD
BRANCH  22  24
ATOM     24  C   UNL     1     134.909 154.321 212.230  1.00  0.00     0.109 C 
BRANCH  24  25
ATOM     25  C   UNL     1     134.009 153.478 211.359  1.00  0.00     0.171 C 
BRANCH  25  26
ATOM     26  O   UNL     1     133.025 152.836 212.108  1.00  0.00    -0.395 OA
ATOM     27  H   UNL     1     132.808 153.426 212.882  1.00  0.00     0.210 HD
ENDBRANCH  25  26
ENDBRANCH  24  25
ENDBRANCH  22  24
ENDBRANCH  21  22
ENDBRANCH  20  21
ENDBRANCH  18  20
ENDBRANCH  16  18
BRANCH   8  28
ATOM     28  O   UNL     1     130.809 155.229 201.701  1.00  0.00    -0.507 OA
ATOM     29  H   UNL     1     130.484 154.293 201.452  1.00  0.00     0.293 HD
ENDBRANCH   8  28
BRANCH  13  30
ATOM     30  N   UNL     1     135.443 154.530 203.396  1.00  0.00    -0.379 N 
ATOM     31  H   UNL     1     135.492 154.966 202.487  1.00  0.00     0.160 HD
BRANCH  30  32
ATOM     32  C   UNL     1     135.894 153.123 203.411  1.00  0.00     0.174 C 
BRANCH  32  33
ATOM     33  C   UNL     1     135.272 152.314 202.333  1.00  0.00     0.281 C 
BRANCH  33  34
ATOM     34  N   UNL     1     133.867 152.092 202.482  1.00  0.00    -0.343 N 
ATOM     35  H   UNL     1     133.633 151.259 203.067  1.00  0.00     0.346 HD
ATOM     36  H   UNL     1     133.467 152.919 202.991  1.00  0.00     0.346 HD
BRANCH  34  37
ATOM     37  C   UNL     1     133.156 151.994 201.230  1.00  0.00     0.289 C 
BRANCH  37  38
ATOM     38  C   UNL     1     131.688 151.690 201.429  1.00  0.00     0.217 C 
BRANCH  38  39
ATOM     39  O   UNL     1     131.219 152.439 202.494  1.00  0.00    -0.391 OA
ATOM     40  H   UNL     1     131.983 153.003 202.812  1.00  0.00     0.210 HD
ENDBRANCH  38  39
ENDBRANCH  37  38
ENDBRANCH  34  37
ENDBRANCH  33  34
ENDBRANCH  32  33
ENDBRANCH  30  32
ENDBRANCH  13  30
TORSDOF 15
ENDMDL
MODEL 2
REMARK VINA RESULT:      -4.3      2.358      4.967
REMARK SMILES O=C1c2c([O-])ccc(O)c2C(=O)c2c(NCC[NH2+]CCO)ccc(NCCNCCO)c21
REMARK SMILES IDX 1 1 2 2 3 3 4 4 5 5 6 6 7 7 8 8 10 9 11 10 12 11 13 12 14 13
REMARK SMILES IDX 22 14 23 15 24 16 32 17 25 18 26 20 27 21 28 22 29 24 30 25
REMARK SMILES IDX 31 26 9 28 15 30 16 32 17 33 18 34 19 37 20 38 21 39
REMARK H PARENT 25 19 28 23 31 27 9 29 15 31 18 35 18 36 21 40
ROOT
ATOM      1  O   UNL     1     136.225 154.093 204.364  1.00  0.00    -0.288 OA
ATOM      2  C   UNL     1     135.114 154.671 204.285  1.00  0.00     0.196 C 
ATOM      3  C   UNL     1     134.110 154.128 203.340  1.00  0.00     0.030 A 
ATOM      4  C   UNL     1     134.460 153.012 202.604  1.00  0.00    -0.097 A 
ATOM      5  O   UNL     1     135.720 152.446 202.771  1.00  0.00    -0.872 OA
ATOM      6  C   UNL     1     133.543 152.487 201.720  1.00  0.00    -0.004 A 
ATOM      7  C   UNL     1     132.311 153.063 201.575  1.00  0.00     0.046 A 
ATOM      8  C   UNL     1     131.943 154.175 202.299  1.00  0.00     0.127 A 
ATOM      9  C   UNL     1     132.880 154.697 203.191  1.00  0.00     0.075 A 
ATOM     10  C   UNL     1     132.533 155.881 203.985  1.00  0.00     0.200 C 
ATOM     11  O   UNL     1     131.382 156.338 203.784  1.00  0.00    -0.288 OA
ATOM     12  C   UNL     1     133.502 156.435 204.920  1.00  0.00     0.059 A 
ATOM     13  C   UNL     1     133.127 157.540 205.631  1.00  0.00     0.046 A 
ATOM     14  C   UNL     1     134.093 158.048 206.523  1.00  0.00     0.028 A 
ATOM     15  C   UNL     1     135.316 157.473 206.665  1.00  0.00     0.028 A 
ATOM     16  C   UNL     1     135.703 156.337 205.934  1.00  0.00     0.046 A 
ATOM     17  C   UNL     1     134.776 155.830 205.062  1.00  0.00     0.059 A 
ENDROOT
BRANCH  16  18
ATOM     18  N   UNL     1     136.998 155.796 206.190  1.00  0.00    -0.383 N 
ATOM     19  H   UNL     1     137.794 156.020 205.610  1.00  0.00     0.160 HD
BRANCH  18  20
ATOM     20  C   UNL     1     137.245 154.887 207.294  1.00  0.00     0.128 C 
BRANCH  20  21
ATOM     21  C   UNL     1     136.235 154.940 208.384  1.00  0.00     0.102 C 
BRANCH  21  22
ATOM     22  N   UNL     1     136.538 153.979 209.452  1.00  0.00    -0.313 NA
ATOM     23  H   UNL     1     136.086 153.075 209.169  1.00  0.00     0.122 HD
BRANCH  22  24
ATOM     24  C   UNL     1     135.828 154.435 210.638  1.00  0.00     0.109 C 
BRANCH  24  25
ATOM     25  C   UNL     1     134.351 154.591 210.365  1.00  0.00     0.171 C 
BRANCH  25  26
ATOM     26  O   UNL     1     133.707 155.267 211.398  1.00  0.00    -0.395 OA
ATOM     27  H   UNL     1     132.913 155.725 211.005  1.00  0.00     0.210 HD
ENDBRANCH  25  26
ENDBRANCH  24  25
ENDBRANCH  22  24
ENDBRANCH  21  22
ENDBRANCH  20  21
ENDBRANCH  18  20
ENDBRANCH  16  18
BRANCH   8  28
ATOM     28  O   UNL     1     130.680 154.762 202.149  1.00  0.00    -0.507 OA
ATOM     29  H   UNL     1     129.848 154.200 201.962  1.00  0.00     0.293 HD
ENDBRANCH   8  28
BRANCH  13  30
ATOM     30  N   UNL     1     131.883 158.201 205.550  1.00  0.00    -0.379 N 
ATOM     31  H   UNL     1     131.430 158.503 204.701  1.00  0.00     0.160 HD
BRANCH  30  32
ATOM     32  C   UNL     1     131.124 158.512 206.779  1.00  0.00     0.174 C 
BRANCH  32  33
ATOM     33  C   UNL     1     130.445 157.320 207.346  1.00  0.00     0.281 C 
BRANCH  33  34
ATOM     34  N   UNL     1     129.791 156.486 206.384  1.00  0.00    -0.343 N 
ATOM     35  H   UNL     1     130.033 156.718 205.395  1.00  0.00     0.346 HD
ATOM     36  H   UNL     1     130.125 155.502 206.536  1.00  0.00     0.346 HD
BRANCH  34  37
ATOM     37  C   UNL     1     128.354 156.458 206.516  1.00  0.00     0.289 C 
BRANCH  37  38
ATOM     38  C   UNL     1     127.914 155.984 207.882  1.00  0.00     0.217 C 
BRANCH  38  39
ATOM     39  O   UNL     1     127.585 154.642 207.801  1.00  0.00    -0.391 OA
ATOM     40  H   UNL     1     128.138 154.164 208.486  1.00  0.00     0.210 HD
ENDBRANCH  38  39
ENDBRANCH  37  38
ENDBRANCH  34  37
ENDBRANCH  33  34
ENDBRANCH  32  33
ENDBRANCH  30  32
ENDBRANCH  13  30
TORSDOF 15
ENDMDL
MODEL 3
REMARK VINA RESULT:      -4.3      7.939     11.046
REMARK SMILES O=C1c2c([O-])ccc(O)c2C(=O)c2c(NCC[NH2+]CCO)ccc(NCCNCCO)c21
REMARK SMILES IDX 1 1 2 2 3 3 4 4 5 5 6 6 7 7 8 8 10 9 11 10 12 11 13 12 14 13
REMARK SMILES IDX 22 14 23 15 24 16 32 17 25 18 26 20 27 21 28 22 29 24 30 25
REMARK SMILES IDX 31 26 9 28 15 30 16 32 17 33 18 34 19 37 20 38 21 39
REMARK H PARENT 25 19 28 23 31 27 9 29 15 31 18 35 18 36 21 40
ROOT
ATOM      1  O   UNL     1     127.076 152.186 214.449  1.00  0.00    -0.288 OA
ATOM      2  C   UNL     1     127.234 153.140 213.648  1.00  0.00     0.196 C 
ATOM      3  C   UNL     1     128.567 153.783 213.583  1.00  0.00     0.030 A 
ATOM      4  C   UNL     1     129.558 153.290 214.410  1.00  0.00    -0.097 A 
ATOM      5  O   UNL     1     129.276 152.225 215.260  1.00  0.00    -0.872 OA
ATOM      6  C   UNL     1     130.807 153.870 214.367  1.00  0.00    -0.004 A 
ATOM      7  C   UNL     1     131.057 154.915 213.521  1.00  0.00     0.046 A 
ATOM      8  C   UNL     1     130.083 155.422 212.690  1.00  0.00     0.127 A 
ATOM      9  C   UNL     1     128.823 154.826 212.742  1.00  0.00     0.075 A 
ATOM     10  C   UNL     1     127.753 155.331 211.875  1.00  0.00     0.200 C 
ATOM     11  O   UNL     1     128.077 156.291 211.134  1.00  0.00    -0.288 OA
ATOM     12  C   UNL     1     126.434 154.717 211.920  1.00  0.00     0.059 A 
ATOM     13  C   UNL     1     125.475 155.230 211.092  1.00  0.00     0.046 A 
ATOM     14  C   UNL     1     124.210 154.610 211.167  1.00  0.00     0.028 A 
ATOM     15  C   UNL     1     123.966 153.570 212.008  1.00  0.00     0.028 A 
ATOM     16  C   UNL     1     124.951 153.043 212.859  1.00  0.00     0.046 A 
ATOM     17  C   UNL     1     126.186 153.633 212.800  1.00  0.00     0.059 A 
ENDROOT
BRANCH  16  18
ATOM     18  N   UNL     1     124.593 151.928 213.674  1.00  0.00    -0.383 N 
ATOM     19  H   UNL     1     124.971 151.802 214.602  1.00  0.00     0.160 HD
BRANCH  18  20
ATOM     20  C   UNL     1     123.669 150.907 213.215  1.00  0.00     0.128 C 
BRANCH  20  21
ATOM     21  C   UNL     1     122.976 150.161 214.298  1.00  0.00     0.102 C 
BRANCH  21  22
ATOM     22  N   UNL     1     123.645 148.887 214.592  1.00  0.00    -0.313 NA
ATOM     23  H   UNL     1     123.866 148.452 213.664  1.00  0.00     0.122 HD
BRANCH  22  24
ATOM     24  C   UNL     1     122.650 148.028 215.217  1.00  0.00     0.109 C 
BRANCH  24  25
ATOM     25  C   UNL     1     123.296 147.020 216.136  1.00  0.00     0.171 C 
BRANCH  25  26
ATOM     26  O   UNL     1     124.678 146.980 215.963  1.00  0.00    -0.395 OA
ATOM     27  H   UNL     1     124.875 147.339 215.054  1.00  0.00     0.210 HD
ENDBRANCH  25  26
ENDBRANCH  24  25
ENDBRANCH  22  24
ENDBRANCH  21  22
ENDBRANCH  20  21
ENDBRANCH  18  20
ENDBRANCH  16  18
BRANCH   8  28
ATOM     28  O   UNL     1     130.343 156.493 211.825  1.00  0.00    -0.507 OA
ATOM     29  H   UNL     1     131.290 156.846 211.680  1.00  0.00     0.293 HD
ENDBRANCH   8  28
BRANCH  13  30
ATOM     30  N   UNL     1     125.638 156.301 210.190  1.00  0.00    -0.379 N 
ATOM     31  H   UNL     1     126.107 157.173 210.388  1.00  0.00     0.160 HD
BRANCH  30  32
ATOM     32  C   UNL     1     125.099 156.207 208.818  1.00  0.00     0.174 C 
BRANCH  32  33
ATOM     33  C   UNL     1     126.102 155.706 207.844  1.00  0.00     0.281 C 
BRANCH  33  34
ATOM     34  N   UNL     1     127.453 155.714 208.315  1.00  0.00    -0.343 N 
ATOM     35  H   UNL     1     127.580 156.225 209.217  1.00  0.00     0.346 HD
ATOM     36  H   UNL     1     127.728 154.719 208.511  1.00  0.00     0.346 HD
BRANCH  34  37
ATOM     37  C   UNL     1     128.403 156.222 207.355  1.00  0.00     0.289 C 
BRANCH  37  38
ATOM     38  C   UNL     1     128.926 157.589 207.737  1.00  0.00     0.217 C 
BRANCH  38  39
ATOM     39  O   UNL     1     129.595 157.487 208.944  1.00  0.00    -0.391 OA
ATOM     40  H   UNL     1     129.908 158.407 209.183  1.00  0.00     0.210 HD
ENDBRANCH  38  39
ENDBRANCH  37  38
ENDBRANCH  34  37
ENDBRANCH  33  34
ENDBRANCH  32  33
ENDBRANCH  30  32
ENDBRANCH  13  30
TORSDOF 15
ENDMDL
MODEL 4
REMARK VINA RESULT:      -4.3      2.974      7.364
REMARK SMILES O=C1c2c([O-])ccc(O)c2C(=O)c2c(NCC[NH2+]CCO)ccc(NCCNCCO)c21
REMARK SMILES IDX 1 1 2 2 3 3 4 4 5 5 6 6 7 7 8 8 10 9 11 10 12 11 13 12 14 13
REMARK SMILES IDX 22 14 23 15 24 16 32 17 25 18 26 20 27 21 28 22 29 24 30 25
REMARK SMILES IDX 31 26 9 28 15 30 16 32 17 33 18 34 19 37 20 38 21 39
REMARK H PARENT 25 19 28 23 31 27 9 29 15 31 18 35 18 36 21 40
ROOT
ATOM      1  O   UNL     1     133.326 155.243 205.069  1.00  0.00    -0.288 OA
ATOM      2  C   UNL     1     132.464 155.998 205.581  1.00  0.00     0.196 C 
ATOM      3  C   UNL     1     132.765 156.611 206.896  1.00  0.00     0.030 A 
ATOM      4  C   UNL     1     133.982 156.313 207.478  1.00  0.00    -0.097 A 
ATOM      5  O   UNL     1     134.868 155.464 206.823  1.00  0.00    -0.872 OA
ATOM      6  C   UNL     1     134.286 156.872 208.701  1.00  0.00    -0.004 A 
ATOM      7  C   UNL     1     133.397 157.704 209.323  1.00  0.00     0.046 A 
ATOM      8  C   UNL     1     132.179 158.013 208.759  1.00  0.00     0.127 A 
ATOM      9  C   UNL     1     131.883 157.442 207.522  1.00  0.00     0.075 A 
ATOM     10  C   UNL     1     130.597 157.742 206.882  1.00  0.00     0.200 C 
ATOM     11  O   UNL     1     129.849 158.515 207.527  1.00  0.00    -0.288 OA
ATOM     12  C   UNL     1     130.277 157.152 205.590  1.00  0.00     0.059 A 
ATOM     13  C   UNL     1     129.064 157.464 205.041  1.00  0.00     0.046 A 
ATOM     14  C   UNL     1     128.790 156.872 203.791  1.00  0.00     0.028 A 
ATOM     15  C   UNL     1     129.676 156.046 203.175  1.00  0.00     0.028 A 
ATOM     16  C   UNL     1     130.923 155.724 203.738  1.00  0.00     0.046 A 
ATOM     17  C   UNL     1     131.206 156.291 204.953  1.00  0.00     0.059 A 
ENDROOT
BRANCH  16  18
ATOM     18  N   UNL     1     131.789 154.876 202.987  1.00  0.00    -0.383 N 
ATOM     19  H   UNL     1     131.921 153.903 203.224  1.00  0.00     0.160 HD
BRANCH  18  20
ATOM     20  C   UNL     1     132.534 155.362 201.840  1.00  0.00     0.128 C 
BRANCH  20  21
ATOM     21  C   UNL     1     133.680 154.506 201.434  1.00  0.00     0.102 C 
BRANCH  21  22
ATOM     22  N   UNL     1     134.783 154.580 202.402  1.00  0.00    -0.313 NA
ATOM     23  H   UNL     1     135.610 154.950 201.874  1.00  0.00     0.122 HD
BRANCH  22  24
ATOM     24  C   UNL     1     135.112 153.210 202.765  1.00  0.00     0.109 C 
BRANCH  24  25
ATOM     25  C   UNL     1     133.892 152.322 202.715  1.00  0.00     0.171 C 
BRANCH  25  26
ATOM     26  O   UNL     1     133.184 152.355 203.915  1.00  0.00    -0.395 OA
ATOM     27  H   UNL     1     132.631 153.185 203.911  1.00  0.00     0.210 HD
ENDBRANCH  25  26
ENDBRANCH  24  25
ENDBRANCH  22  24
ENDBRANCH  21  22
ENDBRANCH  20  21
ENDBRANCH  18  20
ENDBRANCH  16  18
BRANCH   8  28
ATOM     28  O   UNL     1     131.271 158.867 209.399  1.00  0.00    -0.507 OA
ATOM     29  H   UNL     1     131.347 159.078 210.396  1.00  0.00     0.293 HD
ENDBRANCH   8  28
BRANCH  13  30
ATOM     30  N   UNL     1     128.087 158.309 205.606  1.00  0.00    -0.379 N 
ATOM     31  H   UNL     1     128.252 159.228 205.989  1.00  0.00     0.160 HD
BRANCH  30  32
ATOM     32  C   UNL     1     126.677 157.873 205.677  1.00  0.00     0.174 C 
BRANCH  32  33
ATOM     33  C   UNL     1     126.225 157.630 207.070  1.00  0.00     0.281 C 
BRANCH  33  34
ATOM     34  N   UNL     1     127.238 157.142 207.954  1.00  0.00    -0.343 N 
ATOM     35  H   UNL     1     128.193 157.510 207.741  1.00  0.00     0.346 HD
ATOM     36  H   UNL     1     127.010 157.486 208.920  1.00  0.00     0.346 HD
BRANCH  34  37
ATOM     37  C   UNL     1     127.302 155.703 208.033  1.00  0.00     0.289 C 
BRANCH  37  38
ATOM     38  C   UNL     1     125.956 155.086 208.338  1.00  0.00     0.217 C 
BRANCH  38  39
ATOM     39  O   UNL     1     125.846 153.895 207.642  1.00  0.00    -0.391 OA
ATOM     40  H   UNL     1     125.020 153.438 207.976  1.00  0.00     0.210 HD
ENDBRANCH  38  39
ENDBRANCH  37  38
ENDBRANCH  34  37
ENDBRANCH  33  34
ENDBRANCH  32  33
ENDBRANCH  30  32
ENDBRANCH  13  30
TORSDOF 15
ENDMDL
MODEL 5
REMARK VINA RESULT:      -4.3     15.510     18.062
REMARK SMILES O=C1c2c([O-])ccc(O)c2C(=O)c2c(NCC[NH2+]CCO)ccc(NCCNCCO)c21
REMARK SMILES IDX 1 1 2 2 3 3 4 4 5 5 6 6 7 7 8 8 10 9 11 10 12 11 13 12 14 13
REMARK SMILES IDX 22 14 23 15 24 16 32 17 25 18 26 20 27 21 28 22 29 24 30 25
REMARK SMILES IDX 31 26 9 28 15 30 16 32 17 33 18 34 19 37 20 38 21 39
REMARK H PARENT 25 19 28 23 31 27 9 29 15 31 18 35 18 36 21 40
ROOT
ATOM      1  O   UNL     1     120.810 143.329 216.719  1.00  0.00    -0.288 OA
ATOM      2  C   UNL     1     120.738 144.139 215.763  1.00  0.00     0.196 C 
ATOM      3  C   UNL     1     119.936 143.750 214.579  1.00  0.00     0.030 A 
ATOM      4  C   UNL     1     119.313 142.517 214.602  1.00  0.00    -0.097 A 
ATOM      5  O   UNL     1     119.457 141.696 215.716  1.00  0.00    -0.872 OA
ATOM      6  C   UNL     1     118.561 142.134 213.514  1.00  0.00    -0.004 A 
ATOM      7  C   UNL     1     118.435 142.960 212.432  1.00  0.00     0.046 A 
ATOM      8  C   UNL     1     119.048 144.193 212.388  1.00  0.00     0.127 A 
ATOM      9  C   UNL     1     119.806 144.570 213.497  1.00  0.00     0.075 A 
ATOM     10  C   UNL     1     120.478 145.875 213.497  1.00  0.00     0.200 C 
ATOM     11  O   UNL     1     120.304 146.562 212.462  1.00  0.00    -0.288 OA
ATOM     12  C   UNL     1     121.272 146.279 214.648  1.00  0.00     0.059 A 
ATOM     13  C   UNL     1     121.877 147.504 214.592  1.00  0.00     0.046 A 
ATOM     14  C   UNL     1     122.640 147.859 215.724  1.00  0.00     0.028 A 
ATOM     15  C   UNL     1     122.761 147.035 216.799  1.00  0.00     0.028 A 
ATOM     16  C   UNL     1     122.140 145.776 216.856  1.00  0.00     0.046 A 
ATOM     17  C   UNL     1     121.395 145.414 215.764  1.00  0.00     0.059 A 
ENDROOT
BRANCH  16  18
ATOM     18  N   UNL     1     122.306 145.010 218.048  1.00  0.00    -0.383 N 
ATOM     19  H   UNL     1     122.836 144.150 218.060  1.00  0.00     0.160 HD
BRANCH  18  20
ATOM     20  C   UNL     1     121.720 145.419 219.311  1.00  0.00     0.128 C 
BRANCH  20  21
ATOM     21  C   UNL     1     122.679 145.506 220.444  1.00  0.00     0.102 C 
BRANCH  21  22
ATOM     22  N   UNL     1     122.474 146.725 221.237  1.00  0.00    -0.313 NA
ATOM     23  H   UNL     1     121.830 146.458 222.021  1.00  0.00     0.122 HD
BRANCH  22  24
ATOM     24  C   UNL     1     121.728 147.650 220.396  1.00  0.00     0.109 C 
BRANCH  24  25
ATOM     25  C   UNL     1     122.346 149.027 220.416  1.00  0.00     0.171 C 
BRANCH  25  26
ATOM     26  O   UNL     1     122.074 149.729 219.244  1.00  0.00    -0.395 OA
ATOM     27  H   UNL     1     121.193 149.407 218.902  1.00  0.00     0.210 HD
ENDBRANCH  25  26
ENDBRANCH  24  25
ENDBRANCH  22  24
ENDBRANCH  21  22
ENDBRANCH  20  21
ENDBRANCH  18  20
ENDBRANCH  16  18
BRANCH   8  28
ATOM     28  O   UNL     1     118.917 145.038 211.278  1.00  0.00    -0.507 OA
ATOM     29  H   UNL     1     119.272 145.996 211.291  1.00  0.00     0.293 HD
ENDBRANCH   8  28
BRANCH  13  30
ATOM     30  N   UNL     1     121.806 148.421 213.524  1.00  0.00    -0.379 N 
ATOM     31  H   UNL     1     122.052 148.230 212.564  1.00  0.00     0.160 HD
BRANCH  30  32
ATOM     32  C   UNL     1     121.340 149.804 213.760  1.00  0.00     0.174 C 
BRANCH  32  33
ATOM     33  C   UNL     1     122.294 150.821 213.251  1.00  0.00     0.281 C 
BRANCH  33  34
ATOM     34  N   UNL     1     123.270 150.323 212.331  1.00  0.00    -0.343 N 
ATOM     35  H   UNL     1     123.404 149.288 212.381  1.00  0.00     0.346 HD
ATOM     36  H   UNL     1     122.920 150.517 211.360  1.00  0.00     0.346 HD
BRANCH  34  37
ATOM     37  C   UNL     1     124.557 150.964 212.441  1.00  0.00     0.289 C 
BRANCH  37  38
ATOM     38  C   UNL     1     125.074 150.969 213.862  1.00  0.00     0.217 C 
BRANCH  38  39
ATOM     39  O   UNL     1     125.283 149.661 214.263  1.00  0.00    -0.391 OA
ATOM     40  H   UNL     1     124.481 149.388 214.796  1.00  0.00     0.210 HD
ENDBRANCH  38  39
ENDBRANCH  37  38
ENDBRANCH  34  37
ENDBRANCH  33  34
ENDBRANCH  32  33
ENDBRANCH  30  32
ENDBRANCH  13  30
TORSDOF 15
ENDMDL
MODEL 6
REMARK VINA RESULT:      -4.3      3.416      6.570
REMARK SMILES O=C1c2c([O-])ccc(O)c2C(=O)c2c(NCC[NH2+]CCO)ccc(NCCNCCO)c21
REMARK SMILES IDX 1 1 2 2 3 3 4 4 5 5 6 6 7 7 8 8 10 9 11 10 12 11 13 12 14 13
REMARK SMILES IDX 22 14 23 15 24 16 32 17 25 18 26 20 27 21 28 22 29 24 30 25
REMARK SMILES IDX 31 26 9 28 15 30 16 32 17 33 18 34 19 37 20 38 21 39
REMARK H PARENT 25 19 28 23 31 27 9 29 15 31 18 35 18 36 21 40
ROOT
ATOM      1  O   UNL     1     129.580 155.750 202.908  1.00  0.00    -0.288 OA
ATOM      2  C   UNL     1     130.651 155.953 203.529  1.00  0.00     0.196 C 
ATOM      3  C   UNL     1     131.927 155.703 202.819  1.00  0.00     0.030 A 
ATOM      4  C   UNL     1     131.859 155.261 201.512  1.00  0.00    -0.097 A 
ATOM      5  O   UNL     1     130.616 155.070 200.916  1.00  0.00    -0.872 OA
ATOM      6  C   UNL     1     133.032 155.023 200.830  1.00  0.00    -0.004 A 
ATOM      7  C   UNL     1     134.240 155.220 201.439  1.00  0.00     0.046 A 
ATOM      8  C   UNL     1     134.331 155.660 202.742  1.00  0.00     0.127 A 
ATOM      9  C   UNL     1     133.136 155.898 203.420  1.00  0.00     0.075 A 
ATOM     10  C   UNL     1     133.182 156.368 204.810  1.00  0.00     0.200 C 
ATOM     11  O   UNL     1     134.334 156.519 205.283  1.00  0.00    -0.288 OA
ATOM     12  C   UNL     1     131.941 156.620 205.530  1.00  0.00     0.059 A 
ATOM     13  C   UNL     1     132.044 157.053 206.822  1.00  0.00     0.046 A 
ATOM     14  C   UNL     1     130.821 157.284 207.486  1.00  0.00     0.028 A 
ATOM     15  C   UNL     1     129.622 157.088 206.877  1.00  0.00     0.028 A 
ATOM     16  C   UNL     1     129.516 156.642 205.549  1.00  0.00     0.046 A 
ATOM     17  C   UNL     1     130.694 156.413 204.888  1.00  0.00     0.059 A 
ENDROOT
BRANCH  16  18
ATOM     18  N   UNL     1     128.207 156.506 205.000  1.00  0.00    -0.383 N 
ATOM     19  H   UNL     1     127.903 155.654 204.550  1.00  0.00     0.160 HD
BRANCH  18  20
ATOM     20  C   UNL     1     127.237 157.584 205.051  1.00  0.00     0.128 C 
BRANCH  20  21
ATOM     21  C   UNL     1     125.915 157.207 205.617  1.00  0.00     0.102 C 
BRANCH  21  22
ATOM     22  N   UNL     1     125.966 155.904 206.294  1.00  0.00    -0.313 NA
ATOM     23  H   UNL     1     125.080 155.406 206.034  1.00  0.00     0.122 HD
BRANCH  22  24
ATOM     24  C   UNL     1     125.880 156.171 207.721  1.00  0.00     0.109 C 
BRANCH  24  25
ATOM     25  C   UNL     1     126.318 154.974 208.530  1.00  0.00     0.171 C 
BRANCH  25  26
ATOM     26  O   UNL     1     127.497 154.423 208.032  1.00  0.00    -0.395 OA
ATOM     27  H   UNL     1     127.397 154.349 207.043  1.00  0.00     0.210 HD
ENDBRANCH  25  26
ENDBRANCH  24  25
ENDBRANCH  22  24
ENDBRANCH  21  22
ENDBRANCH  20  21
ENDBRANCH  18  20
ENDBRANCH  16  18
BRANCH   8  28
ATOM     28  O   UNL     1     135.570 155.861 203.363  1.00  0.00    -0.507 OA
ATOM     29  H   UNL     1     136.123 155.079 203.719  1.00  0.00     0.293 HD
ENDBRANCH   8  28
BRANCH  13  30
ATOM     30  N   UNL     1     133.240 157.284 207.532  1.00  0.00    -0.379 N 
ATOM     31  H   UNL     1     134.034 156.663 207.568  1.00  0.00     0.160 HD
BRANCH  30  32
ATOM     32  C   UNL     1     133.413 158.525 208.315  1.00  0.00     0.174 C 
BRANCH  32  33
ATOM     33  C   UNL     1     134.657 159.254 207.961  1.00  0.00     0.281 C 
BRANCH  33  34
ATOM     34  N   UNL     1     135.147 159.003 206.641  1.00  0.00    -0.343 N 
ATOM     35  H   UNL     1     136.099 158.574 206.621  1.00  0.00     0.346 HD
ATOM     36  H   UNL     1     134.509 158.299 206.193  1.00  0.00     0.346 HD
BRANCH  34  37
ATOM     37  C   UNL     1     135.144 160.165 205.786  1.00  0.00     0.289 C 
BRANCH  37  38
ATOM     38  C   UNL     1     134.694 159.840 204.380  1.00  0.00     0.217 C 
BRANCH  38  39
ATOM     39  O   UNL     1     135.514 158.850 203.868  1.00  0.00    -0.391 OA
ATOM     40  H   UNL     1     136.448 159.209 203.884  1.00  0.00     0.210 HD
ENDBRANCH  38  39
ENDBRANCH  37  38
ENDBRANCH  34  37
ENDBRANCH  33  34
ENDBRANCH  32  33
ENDBRANCH  30  32
ENDBRANCH  13  30
TORSDOF 15
ENDMDL
MODEL 7
REMARK VINA RESULT:      -4.2      3.706      8.213
REMARK SMILES O=C1c2c([O-])ccc(O)c2C(=O)c2c(NCC[NH2+]CCO)ccc(NCCNCCO)c21
REMARK SMILES IDX 1 1 2 2 3 3 4 4 5 5 6 6 7 7 8 8 10 9 11 10 12 11 13 12 14 13
REMARK SMILES IDX 22 14 23 15 24 16 32 17 25 18 26 20 27 21 28 22 29 24 30 25
REMARK SMILES IDX 31 26 9 28 15 30 16 32 17 33 18 34 19 37 20 38 21 39
REMARK H PARENT 25 19 28 23 31 27 9 29 15 31 18 35 18 36 21 40
ROOT
ATOM      1  O   UNL     1     133.292 151.769 201.994  1.00  0.00    -0.288 OA
ATOM      2  C   UNL     1     132.824 152.891 202.308  1.00  0.00     0.196 C 
ATOM      3  C   UNL     1     133.688 153.817 203.076  1.00  0.00     0.030 A 
ATOM      4  C   UNL     1     134.961 153.388 203.400  1.00  0.00    -0.097 A 
ATOM      5  O   UNL     1     135.382 152.124 203.000  1.00  0.00    -0.872 OA
ATOM      6  C   UNL     1     135.784 154.233 204.112  1.00  0.00    -0.004 A 
ATOM      7  C   UNL     1     135.345 155.470 204.492  1.00  0.00     0.046 A 
ATOM      8  C   UNL     1     134.080 155.917 204.181  1.00  0.00     0.127 A 
ATOM      9  C   UNL     1     133.257 155.053 203.458  1.00  0.00     0.075 A 
ATOM     10  C   UNL     1     131.900 155.485 203.103  1.00  0.00     0.200 C 
ATOM     11  O   UNL     1     131.589 156.636 203.494  1.00  0.00    -0.288 OA
ATOM     12  C   UNL     1     131.032 154.592 202.348  1.00  0.00     0.059 A 
ATOM     13  C   UNL     1     129.778 155.045 202.047  1.00  0.00     0.046 A 
ATOM     14  C   UNL     1     128.966 154.152 201.318  1.00  0.00     0.028 A 
ATOM     15  C   UNL     1     129.405 152.922 200.941  1.00  0.00     0.028 A 
ATOM     16  C   UNL     1     130.694 152.456 201.251  1.00  0.00     0.046 A 
ATOM     17  C   UNL     1     131.497 153.311 201.959  1.00  0.00     0.059 A 
ENDROOT
BRANCH  16  18
ATOM     18  N   UNL     1     131.062 151.163 200.774  1.00  0.00    -0.383 N 
ATOM     19  H   UNL     1     131.476 151.028 199.863  1.00  0.00     0.160 HD
BRANCH  18  20
ATOM     20  C   UNL     1     130.858 149.965 201.569  1.00  0.00     0.128 C 
BRANCH  20  21
ATOM     21  C   UNL     1     129.443 149.691 201.931  1.00  0.00     0.102 C 
BRANCH  21  22
ATOM     22  N   UNL     1     128.776 148.856 200.923  1.00  0.00    -0.313 NA
ATOM     23  H   UNL     1     127.809 148.674 201.288  1.00  0.00     0.122 HD
BRANCH  22  24
ATOM     24  C   UNL     1     129.460 147.572 200.926  1.00  0.00     0.109 C 
BRANCH  24  25
ATOM     25  C   UNL     1     128.688 146.542 201.715  1.00  0.00     0.171 C 
BRANCH  25  26
ATOM     26  O   UNL     1     129.503 145.487 202.118  1.00  0.00    -0.395 OA
ATOM     27  H   UNL     1     129.031 144.640 201.883  1.00  0.00     0.210 HD
ENDBRANCH  25  26
ENDBRANCH  24  25
ENDBRANCH  22  24
ENDBRANCH  21  22
ENDBRANCH  20  21
ENDBRANCH  18  20
ENDBRANCH  16  18
BRANCH   8  28
ATOM     28  O   UNL     1     133.634 157.187 204.571  1.00  0.00    -0.507 OA
ATOM     29  H   UNL     1     133.410 157.398 205.545  1.00  0.00     0.293 HD
ENDBRANCH   8  28
BRANCH  13  30
ATOM     30  N   UNL     1     129.239 156.302 202.394  1.00  0.00    -0.379 N 
ATOM     31  H   UNL     1     129.644 157.199 202.173  1.00  0.00     0.160 HD
BRANCH  30  32
ATOM     32  C   UNL     1     127.973 156.385 203.152  1.00  0.00     0.174 C 
BRANCH  32  33
ATOM     33  C   UNL     1     128.177 156.827 204.554  1.00  0.00     0.281 C 
BRANCH  33  34
ATOM     34  N   UNL     1     129.065 156.009 205.320  1.00  0.00    -0.343 N 
ATOM     35  H   UNL     1     128.788 155.001 205.347  1.00  0.00     0.346 HD
ATOM     36  H   UNL     1     130.004 156.034 204.852  1.00  0.00     0.346 HD
BRANCH  34  37
ATOM     37  C   UNL     1     129.265 156.470 206.672  1.00  0.00     0.289 C 
BRANCH  37  38
ATOM     38  C   UNL     1     130.454 157.396 206.791  1.00  0.00     0.217 C 
BRANCH  38  39
ATOM     39  O   UNL     1     131.608 156.670 206.553  1.00  0.00    -0.391 OA
ATOM     40  H   UNL     1     132.336 157.332 206.368  1.00  0.00     0.210 HD
ENDBRANCH  38  39
ENDBRANCH  37  38
ENDBRANCH  34  37
ENDBRANCH  33  34
ENDBRANCH  32  33
ENDBRANCH  30  32
ENDBRANCH  13  30
TORSDOF 15
ENDMDL
MODEL 8
REMARK VINA RESULT:      -4.2      2.375      6.313
REMARK SMILES O=C1c2c([O-])ccc(O)c2C(=O)c2c(NCC[NH2+]CCO)ccc(NCCNCCO)c21
REMARK SMILES IDX 1 1 2 2 3 3 4 4 5 5 6 6 7 7 8 8 10 9 11 10 12 11 13 12 14 13
REMARK SMILES IDX 22 14 23 15 24 16 32 17 25 18 26 20 27 21 28 22 29 24 30 25
REMARK SMILES IDX 31 26 9 28 15 30 16 32 17 33 18 34 19 37 20 38 21 39
REMARK H PARENT 25 19 28 23 31 27 9 29 15 31 18 35 18 36 21 40
ROOT
ATOM      1  O   UNL     1     131.312 155.555 202.730  1.00  0.00    -0.288 OA
ATOM      2  C   UNL     1     132.409 155.507 203.338  1.00  0.00     0.196 C 
ATOM      3  C   UNL     1     133.362 154.432 202.974  1.00  0.00     0.030 A 
ATOM      4  C   UNL     1     132.984 153.548 201.982  1.00  0.00    -0.097 A 
ATOM      5  O   UNL     1     131.743 153.694 201.369  1.00  0.00    -0.872 OA
ATOM      6  C   UNL     1     133.854 152.541 201.624  1.00  0.00    -0.004 A 
ATOM      7  C   UNL     1     135.067 152.422 202.242  1.00  0.00     0.046 A 
ATOM      8  C   UNL     1     135.464 153.292 203.233  1.00  0.00     0.127 A 
ATOM      9  C   UNL     1     134.575 154.307 203.586  1.00  0.00     0.075 A 
ATOM     10  C   UNL     1     134.953 155.259 204.637  1.00  0.00     0.200 C 
ATOM     11  O   UNL     1     136.085 155.069 205.144  1.00  0.00    -0.288 OA
ATOM     12  C   UNL     1     134.034 156.324 205.013  1.00  0.00     0.059 A 
ATOM     13  C   UNL     1     134.437 157.180 206.000  1.00  0.00     0.046 A 
ATOM     14  C   UNL     1     133.519 158.195 206.338  1.00  0.00     0.028 A 
ATOM     15  C   UNL     1     132.313 158.312 205.721  1.00  0.00     0.028 A 
ATOM     16  C   UNL     1     131.898 157.432 204.708  1.00  0.00     0.046 A 
ATOM     17  C   UNL     1     132.778 156.439 204.366  1.00  0.00     0.059 A 
ENDROOT
BRANCH  16  18
ATOM     18  N   UNL     1     130.628 157.670 204.105  1.00  0.00    -0.383 N 
ATOM     19  H   UNL     1     130.534 158.190 203.244  1.00  0.00     0.160 HD
BRANCH  18  20
ATOM     20  C   UNL     1     129.394 157.184 204.696  1.00  0.00     0.128 C 
BRANCH  20  21
ATOM     21  C   UNL     1     129.506 156.770 206.119  1.00  0.00     0.102 C 
BRANCH  21  22
ATOM     22  N   UNL     1     128.655 155.610 206.415  1.00  0.00    -0.313 NA
ATOM     23  H   UNL     1     127.879 155.628 205.709  1.00  0.00     0.122 HD
BRANCH  22  24
ATOM     24  C   UNL     1     128.035 155.865 207.707  1.00  0.00     0.109 C 
BRANCH  24  25
ATOM     25  C   UNL     1     127.247 157.153 207.690  1.00  0.00     0.171 C 
BRANCH  25  26
ATOM     26  O   UNL     1     126.003 156.985 207.086  1.00  0.00    -0.395 OA
ATOM     27  H   UNL     1     125.357 157.574 207.566  1.00  0.00     0.210 HD
ENDBRANCH  25  26
ENDBRANCH  24  25
ENDBRANCH  22  24
ENDBRANCH  21  22
ENDBRANCH  20  21
ENDBRANCH  18  20
ENDBRANCH  16  18
BRANCH   8  28
ATOM     28  O   UNL     1     136.709 153.167 203.864  1.00  0.00    -0.507 OA
ATOM     29  H   UNL     1     137.304 152.351 203.714  1.00  0.00     0.293 HD
ENDBRANCH   8  28
BRANCH  13  30
ATOM     30  N   UNL     1     135.665 157.136 206.692  1.00  0.00    -0.379 N 
ATOM     31  H   UNL     1     136.581 157.162 206.270  1.00  0.00     0.160 HD
BRANCH  30  32
ATOM     32  C   UNL     1     135.686 157.040 208.166  1.00  0.00     0.174 C 
BRANCH  32  33
ATOM     33  C   UNL     1     135.670 155.635 208.646  1.00  0.00     0.281 C 
BRANCH  33  34
ATOM     34  N   UNL     1     134.457 155.232 209.288  1.00  0.00    -0.343 N 
ATOM     35  H   UNL     1     133.633 155.825 209.037  1.00  0.00     0.346 HD
ATOM     36  H   UNL     1     134.224 154.265 208.951  1.00  0.00     0.346 HD
BRANCH  34  37
ATOM     37  C   UNL     1     134.554 155.156 210.725  1.00  0.00     0.289 C 
BRANCH  37  38
ATOM     38  C   UNL     1     134.149 153.799 211.255  1.00  0.00     0.217 C 
BRANCH  38  39
ATOM     39  O   UNL     1     134.754 152.822 210.484  1.00  0.00    -0.391 OA
ATOM     40  H   UNL     1     135.223 152.203 211.114  1.00  0.00     0.210 HD
ENDBRANCH  38  39
ENDBRANCH  37  38
ENDBRANCH  34  37
ENDBRANCH  33  34
ENDBRANCH  32  33
ENDBRANCH  30  32
ENDBRANCH  13  30
TORSDOF 15
ENDMDL
MODEL 9
REMARK VINA RESULT:      -4.2      8.238     11.994
REMARK SMILES O=C1c2c([O-])ccc(O)c2C(=O)c2c(NCC[NH2+]CCO)ccc(NCCNCCO)c21
REMARK SMILES IDX 1 1 2 2 3 3 4 4 5 5 6 6 7 7 8 8 10 9 11 10 12 11 13 12 14 13
REMARK SMILES IDX 22 14 23 15 24 16 32 17 25 18 26 20 27 21 28 22 29 24 30 25
REMARK SMILES IDX 31 26 9 28 15 30 16 32 17 33 18 34 19 37 20 38 21 39
REMARK H PARENT 25 19 28 23 31 27 9 29 15 31 18 35 18 36 21 40
ROOT
ATOM      1  O   UNL     1     131.788 154.691 212.453  1.00  0.00    -0.288 OA
ATOM      2  C   UNL     1     132.479 155.265 213.330  1.00  0.00     0.196 C 
ATOM      3  C   UNL     1     133.916 154.915 213.425  1.00  0.00     0.030 A 
ATOM      4  C   UNL     1     134.408 153.976 212.539  1.00  0.00    -0.097 A 
ATOM      5  O   UNL     1     133.554 153.402 211.603  1.00  0.00    -0.872 OA
ATOM      6  C   UNL     1     135.741 153.636 212.607  1.00  0.00    -0.004 A 
ATOM      7  C   UNL     1     136.558 154.216 213.537  1.00  0.00     0.046 A 
ATOM      8  C   UNL     1     136.088 155.153 214.430  1.00  0.00     0.127 A 
ATOM      9  C   UNL     1     134.737 155.490 214.350  1.00  0.00     0.075 A 
ATOM     10  C   UNL     1     134.189 156.484 215.280  1.00  0.00     0.200 C 
ATOM     11  O   UNL     1     135.015 156.961 216.096  1.00  0.00    -0.288 OA
ATOM     12  C   UNL     1     132.780 156.844 215.207  1.00  0.00     0.059 A 
ATOM     13  C   UNL     1     132.324 157.774 216.100  1.00  0.00     0.046 A 
ATOM     14  C   UNL     1     130.954 158.094 215.999  1.00  0.00     0.028 A 
ATOM     15  C   UNL     1     130.145 157.516 215.073  1.00  0.00     0.028 A 
ATOM     16  C   UNL     1     130.613 156.560 214.155  1.00  0.00     0.046 A 
ATOM     17  C   UNL     1     131.942 156.237 214.239  1.00  0.00     0.059 A 
ENDROOT
BRANCH  16  18
ATOM     18  N   UNL     1     129.683 156.046 213.204  1.00  0.00    -0.383 N 
ATOM     19  H   UNL     1     129.821 156.155 212.209  1.00  0.00     0.160 HD
BRANCH  18  20
ATOM     20  C   UNL     1     128.482 155.338 213.610  1.00  0.00     0.128 C 
BRANCH  20  21
ATOM     21  C   UNL     1     128.708 153.947 214.081  1.00  0.00     0.102 C 
BRANCH  21  22
ATOM     22  N   UNL     1     129.519 153.176 213.130  1.00  0.00    -0.313 NA
ATOM     23  H   UNL     1     128.893 152.969 212.313  1.00  0.00     0.122 HD
BRANCH  22  24
ATOM     24  C   UNL     1     129.800 151.896 213.762  1.00  0.00     0.109 C 
BRANCH  24  25
ATOM     25  C   UNL     1     131.270 151.560 213.688  1.00  0.00     0.171 C 
BRANCH  25  26
ATOM     26  O   UNL     1     131.725 151.532 212.372  1.00  0.00    -0.395 OA
ATOM     27  H   UNL     1     131.794 152.477 212.060  1.00  0.00     0.210 HD
ENDBRANCH  25  26
ENDBRANCH  24  25
ENDBRANCH  22  24
ENDBRANCH  21  22
ENDBRANCH  20  21
ENDBRANCH  18  20
ENDBRANCH  16  18
BRANCH   8  28
ATOM     28  O   UNL     1     136.928 155.747 215.381  1.00  0.00    -0.507 OA
ATOM     29  H   UNL     1     137.722 156.327 215.104  1.00  0.00     0.293 HD
ENDBRANCH   8  28
BRANCH  13  30
ATOM     30  N   UNL     1     133.088 158.424 217.090  1.00  0.00    -0.379 N 
ATOM     31  H   UNL     1     133.866 159.045 216.922  1.00  0.00     0.160 HD
BRANCH  30  32
ATOM     32  C   UNL     1     132.780 158.224 218.521  1.00  0.00     0.174 C 
BRANCH  32  33
ATOM     33  C   UNL     1     132.814 156.793 218.916  1.00  0.00     0.281 C 
BRANCH  33  34
ATOM     34  N   UNL     1     132.798 156.558 220.326  1.00  0.00    -0.343 N 
ATOM     35  H   UNL     1     132.047 157.082 220.830  1.00  0.00     0.346 HD
ATOM     36  H   UNL     1     132.586 155.541 220.477  1.00  0.00     0.346 HD
BRANCH  34  37
ATOM     37  C   UNL     1     134.060 156.817 220.976  1.00  0.00     0.289 C 
BRANCH  37  38
ATOM     38  C   UNL     1     135.003 155.639 220.883  1.00  0.00     0.217 C 
BRANCH  38  39
ATOM     39  O   UNL     1     134.282 154.475 221.082  1.00  0.00    -0.391 OA
ATOM     40  H   UNL     1     133.450 154.550 220.530  1.00  0.00     0.210 HD
ENDBRANCH  38  39
ENDBRANCH  37  38
ENDBRANCH  34  37
ENDBRANCH  33  34
ENDBRANCH  32  33
ENDBRANCH  30  32
ENDBRANCH  13  30
TORSDOF 15
ENDMDL
