MODEL 1
REMARK VINA RESULT:      -5.7      0.000      0.000
REMARK SMILES O=c1cc(-c2ccccc2)oc2cc([O-])c(O)c([O-])c12
REMARK SMILES IDX 1 1 2 2 3 3 4 4 11 5 12 6 13 7 14 8 15 9 16 10 18 11 19 12
REMARK SMILES IDX 20 13 5 14 6 15 10 16 7 17 9 18 8 19 17 20
REMARK H PARENT 17 21
ROOT
ATOM      1  O   UNL     1     158.587 112.833 157.304  1.00  0.00    -0.289 OA
ATOM      2  C   UNL     1     158.498 113.718 158.190  1.00  0.00     0.192 A 
ATOM      3  C   UNL     1     157.458 114.653 158.207  1.00  0.00     0.100 A 
ATOM      4  C   UNL     1     157.345 115.625 159.164  1.00  0.00     0.138 A 
ATOM      5  O   UNL     1     158.284 115.638 160.089  1.00  0.00    -0.456 OA
ATOM      6  C   UNL     1     159.283 114.794 160.131  1.00  0.00     0.137 A 
ATOM      7  C   UNL     1     160.248 114.863 161.143  1.00  0.00     0.043 A 
ATOM      8  C   UNL     1     161.285 113.976 161.174  1.00  0.00    -0.063 A 
ATOM      9  O   UNL     1     162.214 114.095 162.205  1.00  0.00    -0.870 OA
ATOM     10  C   UNL     1     161.438 112.982 160.231  1.00  0.00     0.100 A 
ATOM     11  C   UNL     1     160.506 112.899 159.237  1.00  0.00    -0.051 A 
ATOM     12  O   UNL     1     160.645 111.910 158.285  1.00  0.00    -0.869 OA
ATOM     13  C   UNL     1     159.440 113.799 159.190  1.00  0.00     0.060 A 
ENDROOT
BRANCH   4  14
ATOM     14  C   UNL     1     156.256 116.584 159.160  1.00  0.00     0.017 A 
ATOM     15  C   UNL     1     155.927 117.395 160.210  1.00  0.00     0.012 A 
ATOM     16  C   UNL     1     155.474 116.702 158.007  1.00  0.00     0.012 A 
ATOM     17  C   UNL     1     154.858 118.299 160.132  1.00  0.00     0.001 A 
ATOM     18  C   UNL     1     154.423 117.589 157.923  1.00  0.00     0.001 A 
ATOM     19  C   UNL     1     154.100 118.401 158.988  1.00  0.00     0.000 A 
ENDBRANCH   4  14
BRANCH  10  20
ATOM     20  O   UNL     1     162.520 112.098 160.310  1.00  0.00    -0.509 OA
ATOM     21  H   UNL     1     162.341 111.134 160.597  1.00  0.00     0.293 HD
ENDBRANCH  10  20
TORSDOF 2
ENDMDL
MODEL 2
REMARK VINA RESULT:      -5.7      0.542      1.196
REMARK SMILES O=c1cc(-c2ccccc2)oc2cc([O-])c(O)c([O-])c12
REMARK SMILES IDX 1 1 2 2 3 3 4 4 11 5 12 6 13 7 14 8 15 9 16 10 18 11 19 12
REMARK SMILES IDX 20 13 5 14 6 15 10 16 7 17 9 18 8 19 17 20
REMARK H PARENT 17 21
ROOT
ATOM      1  O   UNL     1     158.561 113.264 157.554  1.00  0.00    -0.289 OA
ATOM      2  C   UNL     1     158.483 114.111 158.477  1.00  0.00     0.192 A 
ATOM      3  C   UNL     1     157.437 115.038 158.552  1.00  0.00     0.100 A 
ATOM      4  C   UNL     1     157.336 115.968 159.550  1.00  0.00     0.138 A 
ATOM      5  O   UNL     1     158.292 115.949 160.459  1.00  0.00    -0.456 OA
ATOM      6  C   UNL     1     159.296 115.111 160.447  1.00  0.00     0.137 A 
ATOM      7  C   UNL     1     160.279 115.145 161.444  1.00  0.00     0.043 A 
ATOM      8  C   UNL     1     161.322 114.264 161.420  1.00  0.00    -0.063 A 
ATOM      9  O   UNL     1     162.268 114.347 162.438  1.00  0.00    -0.870 OA
ATOM     10  C   UNL     1     161.463 113.311 160.433  1.00  0.00     0.100 A 
ATOM     11  C   UNL     1     160.514 113.263 159.453  1.00  0.00    -0.051 A 
ATOM     12  O   UNL     1     160.641 112.315 158.459  1.00  0.00    -0.869 OA
ATOM     13  C   UNL     1     159.442 114.157 159.463  1.00  0.00     0.060 A 
ENDROOT
BRANCH   4  14
ATOM     14  C   UNL     1     156.241 116.919 159.607  1.00  0.00     0.017 A 
ATOM     15  C   UNL     1     155.397 117.199 158.569  1.00  0.00     0.012 A 
ATOM     16  C   UNL     1     156.017 117.609 160.801  1.00  0.00     0.012 A 
ATOM     17  C   UNL     1     154.359 118.133 158.700  1.00  0.00     0.001 A 
ATOM     18  C   UNL     1     154.999 118.528 160.936  1.00  0.00     0.001 A 
ATOM     19  C   UNL     1     154.154 118.803 159.884  1.00  0.00     0.000 A 
ENDBRANCH   4  14
BRANCH  10  20
ATOM     20  O   UNL     1     162.552 112.432 160.456  1.00  0.00    -0.509 OA
ATOM     21  H   UNL     1     162.551 111.639 159.811  1.00  0.00     0.293 HD
ENDBRANCH  10  20
TORSDOF 2
ENDMDL
MODEL 3
REMARK VINA RESULT:      -5.4      1.051      2.767
REMARK SMILES O=c1cc(-c2ccccc2)oc2cc([O-])c(O)c([O-])c12
REMARK SMILES IDX 1 1 2 2 3 3 4 4 11 5 12 6 13 7 14 8 15 9 16 10 18 11 19 12
REMARK SMILES IDX 20 13 5 14 6 15 10 16 7 17 9 18 8 19 17 20
REMARK H PARENT 17 21
ROOT
ATOM      1  O   UNL     1     160.279 115.779 161.827  1.00  0.00    -0.289 OA
ATOM      2  C   UNL     1     159.573 115.368 160.874  1.00  0.00     0.192 A 
ATOM      3  C   UNL     1     158.426 116.047 160.450  1.00  0.00     0.100 A 
ATOM      4  C   UNL     1     157.644 115.614 159.413  1.00  0.00     0.138 A 
ATOM      5  O   UNL     1     158.033 114.501 158.821  1.00  0.00    -0.456 OA
ATOM      6  C   UNL     1     159.094 113.819 159.168  1.00  0.00     0.137 A 
ATOM      7  C   UNL     1     159.450 112.645 158.495  1.00  0.00     0.043 A 
ATOM      8  C   UNL     1     160.560 111.942 158.867  1.00  0.00    -0.063 A 
ATOM      9  O   UNL     1     160.864 110.781 158.161  1.00  0.00    -0.870 OA
ATOM     10  C   UNL     1     161.376 112.342 159.905  1.00  0.00     0.100 A 
ATOM     11  C   UNL     1     161.043 113.485 160.572  1.00  0.00    -0.051 A 
ATOM     12  O   UNL     1     161.849 113.898 161.613  1.00  0.00    -0.869 OA
ATOM     13  C   UNL     1     159.912 114.215 160.204  1.00  0.00     0.060 A 
ENDROOT
BRANCH   4  14
ATOM     14  C   UNL     1     156.458 116.335 158.992  1.00  0.00     0.017 A 
ATOM     15  C   UNL     1     155.801 116.134 157.810  1.00  0.00     0.012 A 
ATOM     16  C   UNL     1     155.933 117.312 159.843  1.00  0.00     0.012 A 
ATOM     17  C   UNL     1     154.658 116.873 157.472  1.00  0.00     0.001 A 
ATOM     18  C   UNL     1     154.809 118.041 159.516  1.00  0.00     0.001 A 
ATOM     19  C   UNL     1     154.156 117.830 158.323  1.00  0.00     0.000 A 
ENDBRANCH   4  14
BRANCH  10  20
ATOM     20  O   UNL     1     162.502 111.584 160.246  1.00  0.00    -0.509 OA
ATOM     21  H   UNL     1     162.415 110.891 160.991  1.00  0.00     0.293 HD
ENDBRANCH  10  20
TORSDOF 2
ENDMDL
MODEL 4
REMARK VINA RESULT:      -5.4      2.607      4.340
REMARK SMILES O=c1cc(-c2ccccc2)oc2cc([O-])c(O)c([O-])c12
REMARK SMILES IDX 1 1 2 2 3 3 4 4 11 5 12 6 13 7 14 8 15 9 16 10 18 11 19 12
REMARK SMILES IDX 20 13 5 14 6 15 10 16 7 17 9 18 8 19 17 20
REMARK H PARENT 17 21
ROOT
ATOM      1  O   UNL     1     161.821 112.346 160.079  1.00  0.00    -0.289 OA
ATOM      2  C   UNL     1     160.857 113.100 159.799  1.00  0.00     0.192 A 
ATOM      3  C   UNL     1     160.636 114.307 160.470  1.00  0.00     0.100 A 
ATOM      4  C   UNL     1     159.592 115.142 160.179  1.00  0.00     0.138 A 
ATOM      5  O   UNL     1     158.785 114.744 159.214  1.00  0.00    -0.456 OA
ATOM      6  C   UNL     1     158.934 113.628 158.548  1.00  0.00     0.137 A 
ATOM      7  C   UNL     1     158.040 113.265 157.534  1.00  0.00     0.043 A 
ATOM      8  C   UNL     1     158.207 112.097 156.847  1.00  0.00    -0.063 A 
ATOM      9  O   UNL     1     157.286 111.789 155.850  1.00  0.00    -0.870 OA
ATOM     10  C   UNL     1     159.246 111.227 157.108  1.00  0.00     0.100 A 
ATOM     11  C   UNL     1     160.127 111.566 158.093  1.00  0.00    -0.051 A 
ATOM     12  O   UNL     1     161.171 110.705 158.366  1.00  0.00    -0.869 OA
ATOM     13  C   UNL     1     159.970 112.756 158.805  1.00  0.00     0.060 A 
ENDROOT
BRANCH   4  14
ATOM     14  C   UNL     1     159.384 116.390 160.889  1.00  0.00     0.017 A 
ATOM     15  C   UNL     1     160.266 117.434 160.907  1.00  0.00     0.012 A 
ATOM     16  C   UNL     1     158.200 116.556 161.613  1.00  0.00     0.012 A 
ATOM     17  C   UNL     1     159.994 118.612 161.618  1.00  0.00     0.001 A 
ATOM     18  C   UNL     1     157.926 117.712 162.314  1.00  0.00     0.001 A 
ATOM     19  C   UNL     1     158.822 118.757 162.325  1.00  0.00     0.000 A 
ENDBRANCH   4  14
BRANCH  10  20
ATOM     20  O   UNL     1     159.371 110.042 156.373  1.00  0.00    -0.509 OA
ATOM     21  H   UNL     1     159.867 109.256 156.798  1.00  0.00     0.293 HD
ENDBRANCH  10  20
TORSDOF 2
ENDMDL
MODEL 5
REMARK VINA RESULT:      -5.4      3.104      6.247
REMARK SMILES O=c1cc(-c2ccccc2)oc2cc([O-])c(O)c([O-])c12
REMARK SMILES IDX 1 1 2 2 3 3 4 4 11 5 12 6 13 7 14 8 15 9 16 10 18 11 19 12
REMARK SMILES IDX 20 13 5 14 6 15 10 16 7 17 9 18 8 19 17 20
REMARK H PARENT 17 21
ROOT
ATOM      1  O   UNL     1     161.569 116.945 159.879  1.00  0.00    -0.289 OA
ATOM      2  C   UNL     1     160.774 115.985 160.032  1.00  0.00     0.192 A 
ATOM      3  C   UNL     1     160.990 114.737 159.440  1.00  0.00     0.100 A 
ATOM      4  C   UNL     1     160.134 113.680 159.595  1.00  0.00     0.138 A 
ATOM      5  O   UNL     1     159.073 113.900 160.347  1.00  0.00    -0.456 OA
ATOM      6  C   UNL     1     158.813 115.042 160.929  1.00  0.00     0.137 A 
ATOM      7  C   UNL     1     157.667 115.208 161.716  1.00  0.00     0.043 A 
ATOM      8  C   UNL     1     157.406 116.406 162.318  1.00  0.00    -0.063 A 
ATOM      9  O   UNL     1     156.251 116.511 163.088  1.00  0.00    -0.870 OA
ATOM     10  C   UNL     1     158.241 117.497 162.187  1.00  0.00     0.100 A 
ATOM     11  C   UNL     1     159.363 117.352 161.424  1.00  0.00    -0.051 A 
ATOM     12  O   UNL     1     160.208 118.434 161.285  1.00  0.00    -0.869 OA
ATOM     13  C   UNL     1     159.643 116.135 160.802  1.00  0.00     0.060 A 
ENDROOT
BRANCH   4  14
ATOM     14  C   UNL     1     160.380 112.394 158.970  1.00  0.00     0.017 A 
ATOM     15  C   UNL     1     161.055 111.358 159.553  1.00  0.00     0.012 A 
ATOM     16  C   UNL     1     159.898 112.178 157.676  1.00  0.00     0.012 A 
ATOM     17  C   UNL     1     161.253 110.142 158.884  1.00  0.00     0.001 A 
ATOM     18  C   UNL     1     160.089 110.984 157.013  1.00  0.00     0.001 A 
ATOM     19  C   UNL     1     160.771 109.948 157.610  1.00  0.00     0.000 A 
ENDBRANCH   4  14
BRANCH  10  20
ATOM     20  O   UNL     1     157.927 118.702 162.826  1.00  0.00    -0.509 OA
ATOM     21  H   UNL     1     156.942 118.945 162.951  1.00  0.00     0.293 HD
ENDBRANCH  10  20
TORSDOF 2
ENDMDL
MODEL 6
REMARK VINA RESULT:      -5.3      2.798      4.137
REMARK SMILES O=c1cc(-c2ccccc2)oc2cc([O-])c(O)c([O-])c12
REMARK SMILES IDX 1 1 2 2 3 3 4 4 11 5 12 6 13 7 14 8 15 9 16 10 18 11 19 12
REMARK SMILES IDX 20 13 5 14 6 15 10 16 7 17 9 18 8 19 17 20
REMARK H PARENT 17 21
ROOT
ATOM      1  O   UNL     1     161.370 112.496 162.439  1.00  0.00    -0.289 OA
ATOM      2  C   UNL     1     160.800 113.284 161.646  1.00  0.00     0.192 A 
ATOM      3  C   UNL     1     160.396 114.566 162.032  1.00  0.00     0.100 A 
ATOM      4  C   UNL     1     159.773 115.440 161.183  1.00  0.00     0.138 A 
ATOM      5  O   UNL     1     159.567 115.005 159.955  1.00  0.00    -0.456 OA
ATOM      6  C   UNL     1     159.919 113.819 159.530  1.00  0.00     0.137 A 
ATOM      7  C   UNL     1     159.671 113.420 158.211  1.00  0.00     0.043 A 
ATOM      8  C   UNL     1     160.043 112.178 157.780  1.00  0.00    -0.063 A 
ATOM      9  O   UNL     1     159.769 111.838 156.458  1.00  0.00    -0.870 OA
ATOM     10  C   UNL     1     160.673 111.268 158.602  1.00  0.00     0.100 A 
ATOM     11  C   UNL     1     160.924 111.641 159.891  1.00  0.00    -0.051 A 
ATOM     12  O   UNL     1     161.553 110.740 160.726  1.00  0.00    -0.869 OA
ATOM     13  C   UNL     1     160.549 112.905 160.347  1.00  0.00     0.060 A 
ENDROOT
BRANCH   4  14
ATOM     14  C   UNL     1     159.363 116.765 161.608  1.00  0.00     0.017 A 
ATOM     15  C   UNL     1     160.124 117.894 161.484  1.00  0.00     0.012 A 
ATOM     16  C   UNL     1     158.101 116.920 162.187  1.00  0.00     0.012 A 
ATOM     17  C   UNL     1     159.659 119.144 161.919  1.00  0.00     0.001 A 
ATOM     18  C   UNL     1     157.637 118.145 162.616  1.00  0.00     0.001 A 
ATOM     19  C   UNL     1     158.412 119.276 162.487  1.00  0.00     0.000 A 
ENDBRANCH   4  14
BRANCH  10  20
ATOM     20  O   UNL     1     161.034 110.009 158.110  1.00  0.00    -0.509 OA
ATOM     21  H   UNL     1     161.122 109.888 157.099  1.00  0.00     0.293 HD
ENDBRANCH  10  20
TORSDOF 2
ENDMDL
MODEL 7
REMARK VINA RESULT:      -5.3      3.074      6.352
REMARK SMILES O=c1cc(-c2ccccc2)oc2cc([O-])c(O)c([O-])c12
REMARK SMILES IDX 1 1 2 2 3 3 4 4 11 5 12 6 13 7 14 8 15 9 16 10 18 11 19 12
REMARK SMILES IDX 20 13 5 14 6 15 10 16 7 17 9 18 8 19 17 20
REMARK H PARENT 17 21
ROOT
ATOM      1  O   UNL     1     161.581 116.927 159.950  1.00  0.00    -0.289 OA
ATOM      2  C   UNL     1     160.773 115.974 160.066  1.00  0.00     0.192 A 
ATOM      3  C   UNL     1     160.990 114.733 159.458  1.00  0.00     0.100 A 
ATOM      4  C   UNL     1     160.120 113.684 159.573  1.00  0.00     0.138 A 
ATOM      5  O   UNL     1     159.042 113.902 160.301  1.00  0.00    -0.456 OA
ATOM      6  C   UNL     1     158.779 115.037 160.897  1.00  0.00     0.137 A 
ATOM      7  C   UNL     1     157.615 115.202 161.657  1.00  0.00     0.043 A 
ATOM      8  C   UNL     1     157.352 116.392 162.273  1.00  0.00    -0.063 A 
ATOM      9  O   UNL     1     156.179 116.497 163.015  1.00  0.00    -0.870 OA
ATOM     10  C   UNL     1     158.201 117.475 162.183  1.00  0.00     0.100 A 
ATOM     11  C   UNL     1     159.341 117.332 161.446  1.00  0.00    -0.051 A 
ATOM     12  O   UNL     1     160.201 118.407 161.347  1.00  0.00    -0.869 OA
ATOM     13  C   UNL     1     159.624 116.122 160.810  1.00  0.00     0.060 A 
ENDROOT
BRANCH   4  14
ATOM     14  C   UNL     1     160.368 112.406 158.931  1.00  0.00     0.017 A 
ATOM     15  C   UNL     1     159.944 112.067 157.677  1.00  0.00     0.012 A 
ATOM     16  C   UNL     1     161.093 111.437 159.631  1.00  0.00     0.012 A 
ATOM     17  C   UNL     1     160.223 110.809 157.123  1.00  0.00     0.001 A 
ATOM     18  C   UNL     1     161.371 110.199 159.093  1.00  0.00     0.001 A 
ATOM     19  C   UNL     1     160.938 109.868 157.828  1.00  0.00     0.000 A 
ENDBRANCH   4  14
BRANCH  10  20
ATOM     20  O   UNL     1     157.884 118.673 162.835  1.00  0.00    -0.509 OA
ATOM     21  H   UNL     1     157.359 118.626 163.710  1.00  0.00     0.293 HD
ENDBRANCH  10  20
TORSDOF 2
ENDMDL
MODEL 8
REMARK VINA RESULT:      -5.3      1.085      2.610
REMARK SMILES O=c1cc(-c2ccccc2)oc2cc([O-])c(O)c([O-])c12
REMARK SMILES IDX 1 1 2 2 3 3 4 4 11 5 12 6 13 7 14 8 15 9 16 10 18 11 19 12
REMARK SMILES IDX 20 13 5 14 6 15 10 16 7 17 9 18 8 19 17 20
REMARK H PARENT 17 21
ROOT
ATOM      1  O   UNL     1     159.796 116.533 161.592  1.00  0.00    -0.289 OA
ATOM      2  C   UNL     1     159.129 115.956 160.699  1.00  0.00     0.192 A 
ATOM      3  C   UNL     1     157.908 116.460 160.237  1.00  0.00     0.100 A 
ATOM      4  C   UNL     1     157.167 115.846 159.265  1.00  0.00     0.138 A 
ATOM      5  O   UNL     1     157.670 114.730 158.772  1.00  0.00    -0.456 OA
ATOM      6  C   UNL     1     158.805 114.205 159.159  1.00  0.00     0.137 A 
ATOM      7  C   UNL     1     159.282 113.017 158.594  1.00  0.00     0.043 A 
ATOM      8  C   UNL     1     160.467 112.479 159.007  1.00  0.00    -0.063 A 
ATOM      9  O   UNL     1     160.890 111.296 158.408  1.00  0.00    -0.870 OA
ATOM     10  C   UNL     1     161.245 113.066 159.983  1.00  0.00     0.100 A 
ATOM     11  C   UNL     1     160.795 114.225 160.545  1.00  0.00    -0.051 A 
ATOM     12  O   UNL     1     161.563 114.824 161.524  1.00  0.00    -0.869 OA
ATOM     13  C   UNL     1     159.585 114.787 160.134  1.00  0.00     0.060 A 
ENDROOT
BRANCH   4  14
ATOM     14  C   UNL     1     155.904 116.388 158.803  1.00  0.00     0.017 A 
ATOM     15  C   UNL     1     155.335 117.543 159.262  1.00  0.00     0.012 A 
ATOM     16  C   UNL     1     155.200 115.694 157.814  1.00  0.00     0.012 A 
ATOM     17  C   UNL     1     154.108 118.005 158.766  1.00  0.00     0.001 A 
ATOM     18  C   UNL     1     153.994 116.143 157.321  1.00  0.00     0.001 A 
ATOM     19  C   UNL     1     153.431 117.308 157.792  1.00  0.00     0.000 A 
ENDBRANCH   4  14
BRANCH  10  20
ATOM     20  O   UNL     1     162.453 112.473 160.369  1.00  0.00    -0.509 OA
ATOM     21  H   UNL     1     163.310 113.024 160.299  1.00  0.00     0.293 HD
ENDBRANCH  10  20
TORSDOF 2
ENDMDL
MODEL 9
REMARK VINA RESULT:      -5.3      1.092      2.606
REMARK SMILES O=c1cc(-c2ccccc2)oc2cc([O-])c(O)c([O-])c12
REMARK SMILES IDX 1 1 2 2 3 3 4 4 11 5 12 6 13 7 14 8 15 9 16 10 18 11 19 12
REMARK SMILES IDX 20 13 5 14 6 15 10 16 7 17 9 18 8 19 17 20
REMARK H PARENT 17 21
ROOT
ATOM      1  O   UNL     1     160.766 115.724 161.657  1.00  0.00    -0.289 OA
ATOM      2  C   UNL     1     159.926 115.288 160.832  1.00  0.00     0.192 A 
ATOM      3  C   UNL     1     158.783 116.012 160.480  1.00  0.00     0.100 A 
ATOM      4  C   UNL     1     157.857 115.553 159.583  1.00  0.00     0.138 A 
ATOM      5  O   UNL     1     158.099 114.369 159.056  1.00  0.00    -0.456 OA
ATOM      6  C   UNL     1     159.148 113.641 159.342  1.00  0.00     0.137 A 
ATOM      7  C   UNL     1     159.345 112.390 158.744  1.00  0.00     0.043 A 
ATOM      8  C   UNL     1     160.444 111.640 159.052  1.00  0.00    -0.063 A 
ATOM      9  O   UNL     1     160.586 110.405 158.426  1.00  0.00    -0.870 OA
ATOM     10  C   UNL     1     161.402 112.064 159.949  1.00  0.00     0.100 A 
ATOM     11  C   UNL     1     161.225 113.282 160.541  1.00  0.00    -0.051 A 
ATOM     12  O   UNL     1     162.175 113.719 161.441  1.00  0.00    -0.869 OA
ATOM     13  C   UNL     1     160.107 114.060 160.238  1.00  0.00     0.060 A 
ENDROOT
BRANCH   4  14
ATOM     14  C   UNL     1     156.678 116.323 159.233  1.00  0.00     0.017 A 
ATOM     15  C   UNL     1     156.071 117.236 160.050  1.00  0.00     0.012 A 
ATOM     16  C   UNL     1     156.106 116.133 157.972  1.00  0.00     0.012 A 
ATOM     17  C   UNL     1     154.932 117.943 159.641  1.00  0.00     0.001 A 
ATOM     18  C   UNL     1     154.986 116.826 157.564  1.00  0.00     0.001 A 
ATOM     19  C   UNL     1     154.383 117.742 158.395  1.00  0.00     0.000 A 
ENDBRANCH   4  14
BRANCH  10  20
ATOM     20  O   UNL     1     162.510 111.256 160.229  1.00  0.00    -0.509 OA
ATOM     21  H   UNL     1     162.417 110.533 160.944  1.00  0.00     0.293 HD
ENDBRANCH  10  20
TORSDOF 2
ENDMDL
