MODEL 1
REMARK VINA RESULT:      -8.4      0.000      0.000
REMARK SMILES CNCC[C@H](Oc1cccc2ccccc12)c1cccs1
REMARK SMILES IDX 4 1 3 2 2 3 1 4 5 6 6 7 7 8 8 9 16 10 9 11 15 12 11 13 10 14
REMARK SMILES IDX 14 15 12 16 13 17 17 18 18 19 21 20 19 21 20 22
REMARK H PARENT 2 5
ROOT
ATOM      1  C   UNL     1     130.515 127.317 127.125  1.00  0.00     0.066 C 
ENDROOT
BRANCH   1   2
ATOM      2  C   UNL     1     129.760 128.083 126.133  1.00  0.00     0.085 C 
BRANCH   2   3
ATOM      3  N   UNL     1     129.997 129.433 125.883  1.00  0.00    -0.320 NA
ATOM      4  C   UNL     1     130.600 129.866 124.688  1.00  0.00     0.101 C 
ATOM      5  H   UNL     1     129.439 130.147 126.354  1.00  0.00     0.122 HD
ENDBRANCH   2   3
ENDBRANCH   1   2
BRANCH   1   6
ATOM      6  C   UNL     1     131.215 126.059 126.780  1.00  0.00     0.215 C 
BRANCH   6   7
ATOM      7  O   UNL     1     131.733 125.929 125.497  1.00  0.00    -0.484 OA
BRANCH   7   8
ATOM      8  C   UNL     1     132.898 125.255 125.221  1.00  0.00     0.128 A 
ATOM      9  C   UNL     1     133.644 124.595 126.146  1.00  0.00     0.047 A 
ATOM     10  C   UNL     1     133.329 125.261 123.880  1.00  0.00     0.024 A 
ATOM     11  C   UNL     1     134.812 123.943 125.748  1.00  0.00     0.004 A 
ATOM     12  C   UNL     1     132.574 125.925 122.927  1.00  0.00     0.012 A 
ATOM     13  C   UNL     1     134.483 124.621 123.467  1.00  0.00    -0.015 A 
ATOM     14  C   UNL     1     135.229 123.951 124.441  1.00  0.00     0.009 A 
ATOM     15  C   UNL     1     132.995 125.924 121.616  1.00  0.00     0.001 A 
ATOM     16  C   UNL     1     134.896 124.626 122.152  1.00  0.00     0.009 A 
ATOM     17  C   UNL     1     134.148 125.284 121.213  1.00  0.00     0.001 A 
ENDBRANCH   7   8
ENDBRANCH   6   7
BRANCH   6  18
ATOM     18  C   UNL     1     130.186 124.961 126.998  1.00  0.00     0.045 A 
ATOM     19  C   UNL     1     129.363 124.342 126.128  1.00  0.00     0.019 A 
ATOM     20  S   UNL     1     129.794 124.177 128.546  1.00  0.00    -0.145 S 
ATOM     21  C   UNL     1     128.531 123.393 126.540  1.00  0.00     0.012 A 
ATOM     22  C   UNL     1     128.551 123.079 127.878  1.00  0.00     0.065 A 
ENDBRANCH   6  18
ENDBRANCH   1   6
TORSDOF 6
ENDMDL
MODEL 2
REMARK VINA RESULT:      -8.2      2.007      6.135
REMARK SMILES CNCC[C@H](Oc1cccc2ccccc12)c1cccs1
REMARK SMILES IDX 4 1 3 2 2 3 1 4 5 6 6 7 7 8 8 9 16 10 9 11 15 12 11 13 10 14
REMARK SMILES IDX 14 15 12 16 13 17 17 18 18 19 21 20 19 21 20 22
REMARK H PARENT 2 5
ROOT
ATOM      1  C   UNL     1     130.065 127.527 126.768  1.00  0.00     0.066 C 
ENDROOT
BRANCH   1   2
ATOM      2  C   UNL     1     129.164 128.504 126.153  1.00  0.00     0.085 C 
BRANCH   2   3
ATOM      3  N   UNL     1     129.620 129.678 125.557  1.00  0.00    -0.320 NA
ATOM      4  C   UNL     1     130.706 129.676 124.663  1.00  0.00     0.101 C 
ATOM      5  H   UNL     1     128.992 130.476 125.453  1.00  0.00     0.122 HD
ENDBRANCH   2   3
ENDBRANCH   1   2
BRANCH   1   6
ATOM      6  C   UNL     1     129.990 126.083 126.453  1.00  0.00     0.215 C 
BRANCH   6   7
ATOM      7  O   UNL     1     129.697 125.201 127.486  1.00  0.00    -0.484 OA
BRANCH   7   8
ATOM      8  C   UNL     1     129.031 124.015 127.296  1.00  0.00     0.128 A 
ATOM      9  C   UNL     1     128.329 123.695 126.176  1.00  0.00     0.047 A 
ATOM     10  C   UNL     1     129.096 123.078 128.346  1.00  0.00     0.024 A 
ATOM     11  C   UNL     1     127.693 122.457 126.095  1.00  0.00     0.004 A 
ATOM     12  C   UNL     1     129.814 123.390 129.490  1.00  0.00     0.012 A 
ATOM     13  C   UNL     1     128.472 121.846 128.284  1.00  0.00    -0.015 A 
ATOM     14  C   UNL     1     127.757 121.547 127.120  1.00  0.00     0.009 A 
ATOM     15  C   UNL     1     129.880 122.470 130.513  1.00  0.00     0.001 A 
ATOM     16  C   UNL     1     128.544 120.932 129.313  1.00  0.00     0.009 A 
ATOM     17  C   UNL     1     129.254 121.244 130.443  1.00  0.00     0.001 A 
ENDBRANCH   7   8
ENDBRANCH   6   7
BRANCH   6  18
ATOM     18  C   UNL     1     131.357 125.729 125.889  1.00  0.00     0.045 A 
ATOM     19  C   UNL     1     132.359 124.993 126.412  1.00  0.00     0.019 A 
ATOM     20  S   UNL     1     132.008 126.227 124.311  1.00  0.00    -0.145 S 
ATOM     21  C   UNL     1     133.486 124.807 125.735  1.00  0.00     0.012 A 
ATOM     22  C   UNL     1     133.579 125.393 124.496  1.00  0.00     0.065 A 
ENDBRANCH   6  18
ENDBRANCH   1   6
TORSDOF 6
ENDMDL
MODEL 3
REMARK VINA RESULT:      -8.1      1.402      2.203
REMARK SMILES CNCC[C@H](Oc1cccc2ccccc12)c1cccs1
REMARK SMILES IDX 4 1 3 2 2 3 1 4 5 6 6 7 7 8 8 9 16 10 9 11 15 12 11 13 10 14
REMARK SMILES IDX 14 15 12 16 13 17 17 18 18 19 21 20 19 21 20 22
REMARK H PARENT 2 5
ROOT
ATOM      1  C   UNL     1     129.792 127.345 127.004  1.00  0.00     0.066 C 
ENDROOT
BRANCH   1   2
ATOM      2  C   UNL     1     129.161 128.105 125.923  1.00  0.00     0.085 C 
BRANCH   2   3
ATOM      3  N   UNL     1     129.500 129.426 125.633  1.00  0.00    -0.320 NA
ATOM      4  C   UNL     1     129.461 129.924 124.319  1.00  0.00     0.101 C 
ATOM      5  H   UNL     1     129.430 130.142 126.357  1.00  0.00     0.122 HD
ENDBRANCH   2   3
ENDBRANCH   1   2
BRANCH   1   6
ATOM      6  C   UNL     1     130.726 126.228 126.736  1.00  0.00     0.215 C 
BRANCH   6   7
ATOM      7  O   UNL     1     131.013 125.916 125.413  1.00  0.00    -0.484 OA
BRANCH   7   8
ATOM      8  C   UNL     1     132.169 126.307 124.782  1.00  0.00     0.128 A 
ATOM      9  C   UNL     1     132.523 127.599 124.552  1.00  0.00     0.047 A 
ATOM     10  C   UNL     1     133.033 125.280 124.354  1.00  0.00     0.024 A 
ATOM     11  C   UNL     1     133.726 127.876 123.902  1.00  0.00     0.004 A 
ATOM     12  C   UNL     1     132.686 123.959 124.588  1.00  0.00     0.012 A 
ATOM     13  C   UNL     1     134.228 125.535 123.709  1.00  0.00    -0.015 A 
ATOM     14  C   UNL     1     134.566 126.874 123.486  1.00  0.00     0.009 A 
ATOM     15  C   UNL     1     133.536 122.958 124.174  1.00  0.00     0.001 A 
ATOM     16  C   UNL     1     135.072 124.526 123.297  1.00  0.00     0.009 A 
ATOM     17  C   UNL     1     134.726 123.221 123.529  1.00  0.00     0.001 A 
ENDBRANCH   7   8
ENDBRANCH   6   7
BRANCH   6  18
ATOM     18  C   UNL     1     130.087 125.013 127.391  1.00  0.00     0.045 A 
ATOM     19  C   UNL     1     130.191 124.537 128.648  1.00  0.00     0.019 A 
ATOM     20  S   UNL     1     128.984 123.855 126.614  1.00  0.00    -0.145 S 
ATOM     21  C   UNL     1     129.535 123.441 129.013  1.00  0.00     0.012 A 
ATOM     22  C   UNL     1     128.758 122.828 128.060  1.00  0.00     0.065 A 
ENDBRANCH   6  18
ENDBRANCH   1   6
TORSDOF 6
ENDMDL
MODEL 4
REMARK VINA RESULT:      -8.1      1.608      2.097
REMARK SMILES CNCC[C@H](Oc1cccc2ccccc12)c1cccs1
REMARK SMILES IDX 4 1 3 2 2 3 1 4 5 6 6 7 7 8 8 9 16 10 9 11 15 12 11 13 10 14
REMARK SMILES IDX 14 15 12 16 13 17 17 18 18 19 21 20 19 21 20 22
REMARK H PARENT 2 5
ROOT
ATOM      1  C   UNL     1     129.477 127.328 125.231  1.00  0.00     0.066 C 
ENDROOT
BRANCH   1   2
ATOM      2  C   UNL     1     129.487 127.987 123.923  1.00  0.00     0.085 C 
BRANCH   2   3
ATOM      3  N   UNL     1     130.541 128.788 123.491  1.00  0.00    -0.320 NA
ATOM      4  C   UNL     1     130.960 129.912 124.225  1.00  0.00     0.101 C 
ATOM      5  H   UNL     1     131.252 128.406 122.866  1.00  0.00     0.122 HD
ENDBRANCH   2   3
ENDBRANCH   1   2
BRANCH   1   6
ATOM      6  C   UNL     1     130.592 126.465 125.683  1.00  0.00     0.215 C 
BRANCH   6   7
ATOM      7  O   UNL     1     131.459 125.958 124.723  1.00  0.00    -0.484 OA
BRANCH   7   8
ATOM      8  C   UNL     1     132.824 126.093 124.796  1.00  0.00     0.128 A 
ATOM      9  C   UNL     1     133.469 127.244 125.122  1.00  0.00     0.047 A 
ATOM     10  C   UNL     1     133.589 124.944 124.512  1.00  0.00     0.024 A 
ATOM     11  C   UNL     1     134.863 127.262 125.166  1.00  0.00     0.004 A 
ATOM     12  C   UNL     1     132.943 123.763 124.185  1.00  0.00     0.012 A 
ATOM     13  C   UNL     1     134.970 124.942 124.551  1.00  0.00    -0.015 A 
ATOM     14  C   UNL     1     135.605 126.141 124.889  1.00  0.00     0.009 A 
ATOM     15  C   UNL     1     133.692 122.640 123.913  1.00  0.00     0.001 A 
ATOM     16  C   UNL     1     135.712 123.813 124.276  1.00  0.00     0.009 A 
ATOM     17  C   UNL     1     135.070 122.647 123.953  1.00  0.00     0.001 A 
ENDBRANCH   7   8
ENDBRANCH   6   7
BRANCH   6  18
ATOM     18  C   UNL     1     129.926 125.299 126.397  1.00  0.00     0.045 A 
ATOM     19  C   UNL     1     129.105 124.337 125.930  1.00  0.00     0.019 A 
ATOM     20  S   UNL     1     130.077 124.895 128.122  1.00  0.00    -0.145 S 
ATOM     21  C   UNL     1     128.632 123.398 126.742  1.00  0.00     0.012 A 
ATOM     22  C   UNL     1     129.015 123.456 128.059  1.00  0.00     0.065 A 
ENDBRANCH   6  18
ENDBRANCH   1   6
TORSDOF 6
ENDMDL
MODEL 5
REMARK VINA RESULT:      -8.1      1.059      1.118
REMARK SMILES CNCC[C@H](Oc1cccc2ccccc12)c1cccs1
REMARK SMILES IDX 4 1 3 2 2 3 1 4 5 6 6 7 7 8 8 9 16 10 9 11 15 12 11 13 10 14
REMARK SMILES IDX 14 15 12 16 13 17 17 18 18 19 21 20 19 21 20 22
REMARK H PARENT 2 5
ROOT
ATOM      1  C   UNL     1     129.728 126.925 125.285  1.00  0.00     0.066 C 
ENDROOT
BRANCH   1   2
ATOM      2  C   UNL     1     130.119 128.206 124.694  1.00  0.00     0.085 C 
BRANCH   2   3
ATOM      3  N   UNL     1     131.266 128.359 123.917  1.00  0.00    -0.320 NA
ATOM      4  C   UNL     1     132.465 128.850 124.464  1.00  0.00     0.101 C 
ATOM      5  H   UNL     1     131.387 127.805 123.069  1.00  0.00     0.122 HD
ENDBRANCH   2   3
ENDBRANCH   1   2
BRANCH   1   6
ATOM      6  C   UNL     1     130.728 125.916 125.703  1.00  0.00     0.215 C 
BRANCH   6   7
ATOM      7  O   UNL     1     131.452 125.262 124.713  1.00  0.00    -0.484 OA
BRANCH   7   8
ATOM      8  C   UNL     1     132.771 124.909 124.856  1.00  0.00     0.128 A 
ATOM      9  C   UNL     1     133.327 124.451 126.008  1.00  0.00     0.047 A 
ATOM     10  C   UNL     1     133.587 125.038 123.714  1.00  0.00     0.024 A 
ATOM     11  C   UNL     1     134.682 124.121 126.034  1.00  0.00     0.004 A 
ATOM     12  C   UNL     1     133.030 125.498 122.531  1.00  0.00     0.012 A 
ATOM     13  C   UNL     1     134.931 124.717 123.720  1.00  0.00    -0.015 A 
ATOM     14  C   UNL     1     135.474 124.248 124.921  1.00  0.00     0.009 A 
ATOM     15  C   UNL     1     133.829 125.618 121.415  1.00  0.00     0.001 A 
ATOM     16  C   UNL     1     135.722 124.840 122.598  1.00  0.00     0.009 A 
ATOM     17  C   UNL     1     135.169 125.296 121.430  1.00  0.00     0.001 A 
ENDBRANCH   7   8
ENDBRANCH   6   7
BRANCH   6  18
ATOM     18  C   UNL     1     129.940 124.880 126.489  1.00  0.00     0.045 A 
ATOM     19  C   UNL     1     128.976 124.025 126.095  1.00  0.00     0.019 A 
ATOM     20  S   UNL     1     130.108 124.522 128.223  1.00  0.00    -0.145 S 
ATOM     21  C   UNL     1     128.415 123.190 126.962  1.00  0.00     0.012 A 
ATOM     22  C   UNL     1     128.859 123.243 128.261  1.00  0.00     0.065 A 
ENDBRANCH   6  18
ENDBRANCH   1   6
TORSDOF 6
ENDMDL
MODEL 6
REMARK VINA RESULT:      -8.0      0.931      1.152
REMARK SMILES CNCC[C@H](Oc1cccc2ccccc12)c1cccs1
REMARK SMILES IDX 4 1 3 2 2 3 1 4 5 6 6 7 7 8 8 9 16 10 9 11 15 12 11 13 10 14
REMARK SMILES IDX 14 15 12 16 13 17 17 18 18 19 21 20 19 21 20 22
REMARK H PARENT 2 5
ROOT
ATOM      1  C   UNL     1     129.787 126.944 125.354  1.00  0.00     0.066 C 
ENDROOT
BRANCH   1   2
ATOM      2  C   UNL     1     129.419 128.130 126.131  1.00  0.00     0.085 C 
BRANCH   2   3
ATOM      3  N   UNL     1     130.026 129.370 125.946  1.00  0.00    -0.320 NA
ATOM      4  C   UNL     1     130.429 129.810 124.673  1.00  0.00     0.101 C 
ATOM      5  H   UNL     1     129.873 130.120 126.621  1.00  0.00     0.122 HD
ENDBRANCH   2   3
ENDBRANCH   1   2
BRANCH   1   6
ATOM      6  C   UNL     1     130.880 126.040 125.773  1.00  0.00     0.215 C 
BRANCH   6   7
ATOM      7  O   UNL     1     131.507 125.273 124.799  1.00  0.00    -0.484 OA
BRANCH   7   8
ATOM      8  C   UNL     1     132.832 124.916 124.860  1.00  0.00     0.128 A 
ATOM      9  C   UNL     1     133.453 124.440 125.972  1.00  0.00     0.047 A 
ATOM     10  C   UNL     1     133.581 125.060 123.675  1.00  0.00     0.024 A 
ATOM     11  C   UNL     1     134.806 124.109 125.915  1.00  0.00     0.004 A 
ATOM     12  C   UNL     1     132.958 125.538 122.533  1.00  0.00     0.012 A 
ATOM     13  C   UNL     1     134.922 124.737 123.599  1.00  0.00    -0.015 A 
ATOM     14  C   UNL     1     135.533 124.250 124.759  1.00  0.00     0.009 A 
ATOM     15  C   UNL     1     133.691 125.672 121.375  1.00  0.00     0.001 A 
ATOM     16  C   UNL     1     135.648 124.875 122.435  1.00  0.00     0.009 A 
ATOM     17  C   UNL     1     135.029 125.349 121.308  1.00  0.00     0.001 A 
ENDBRANCH   7   8
ENDBRANCH   6   7
BRANCH   6  18
ATOM     18  C   UNL     1     130.250 125.103 126.793  1.00  0.00     0.045 A 
ATOM     19  C   UNL     1     130.449 124.989 128.121  1.00  0.00     0.019 A 
ATOM     20  S   UNL     1     129.025 123.857 126.463  1.00  0.00    -0.145 S 
ATOM     21  C   UNL     1     129.779 124.088 128.831  1.00  0.00     0.012 A 
ATOM     22  C   UNL     1     128.888 123.292 128.154  1.00  0.00     0.065 A 
ENDBRANCH   6  18
ENDBRANCH   1   6
TORSDOF 6
ENDMDL
MODEL 7
REMARK VINA RESULT:      -8.0      1.332      2.073
REMARK SMILES CNCC[C@H](Oc1cccc2ccccc12)c1cccs1
REMARK SMILES IDX 4 1 3 2 2 3 1 4 5 6 6 7 7 8 8 9 16 10 9 11 15 12 11 13 10 14
REMARK SMILES IDX 14 15 12 16 13 17 17 18 18 19 21 20 19 21 20 22
REMARK H PARENT 2 5
ROOT
ATOM      1  C   UNL     1     130.987 126.840 127.075  1.00  0.00     0.066 C 
ENDROOT
BRANCH   1   2
ATOM      2  C   UNL     1     129.756 127.573 126.773  1.00  0.00     0.085 C 
BRANCH   2   3
ATOM      3  N   UNL     1     129.270 127.727 125.477  1.00  0.00    -0.320 NA
ATOM      4  C   UNL     1     128.769 128.959 125.021  1.00  0.00     0.101 C 
ATOM      5  H   UNL     1     129.583 127.100 124.735  1.00  0.00     0.122 HD
ENDBRANCH   2   3
ENDBRANCH   1   2
BRANCH   1   6
ATOM      6  C   UNL     1     131.297 125.535 126.449  1.00  0.00     0.215 C 
BRANCH   6   7
ATOM      7  O   UNL     1     131.381 125.477 125.062  1.00  0.00    -0.484 OA
BRANCH   7   8
ATOM      8  C   UNL     1     132.497 125.860 124.359  1.00  0.00     0.128 A 
ATOM      9  C   UNL     1     132.785 127.141 124.007  1.00  0.00     0.047 A 
ATOM     10  C   UNL     1     133.392 124.837 123.991  1.00  0.00     0.024 A 
ATOM     11  C   UNL     1     133.952 127.410 123.293  1.00  0.00     0.004 A 
ATOM     12  C   UNL     1     133.113 123.528 124.349  1.00  0.00     0.012 A 
ATOM     13  C   UNL     1     134.553 125.084 123.283  1.00  0.00    -0.015 A 
ATOM     14  C   UNL     1     134.823 126.412 122.934  1.00  0.00     0.009 A 
ATOM     15  C   UNL     1     133.993 122.531 123.992  1.00  0.00     0.001 A 
ATOM     16  C   UNL     1     135.428 124.079 122.929  1.00  0.00     0.009 A 
ATOM     17  C   UNL     1     135.148 122.786 123.285  1.00  0.00     0.001 A 
ENDBRANCH   7   8
ENDBRANCH   6   7
BRANCH   6  18
ATOM     18  C   UNL     1     130.186 124.603 126.905  1.00  0.00     0.045 A 
ATOM     19  C   UNL     1     129.218 123.980 126.202  1.00  0.00     0.019 A 
ATOM     20  S   UNL     1     129.873 124.073 128.573  1.00  0.00    -0.145 S 
ATOM     21  C   UNL     1     128.337 123.196 126.812  1.00  0.00     0.012 A 
ATOM     22  C   UNL     1     128.460 123.053 128.173  1.00  0.00     0.065 A 
ENDBRANCH   6  18
ENDBRANCH   1   6
TORSDOF 6
ENDMDL
MODEL 8
REMARK VINA RESULT:      -8.0      1.720      2.027
REMARK SMILES CNCC[C@H](Oc1cccc2ccccc12)c1cccs1
REMARK SMILES IDX 4 1 3 2 2 3 1 4 5 6 6 7 7 8 8 9 16 10 9 11 15 12 11 13 10 14
REMARK SMILES IDX 14 15 12 16 13 17 17 18 18 19 21 20 19 21 20 22
REMARK H PARENT 2 5
ROOT
ATOM      1  C   UNL     1     130.270 127.252 126.901  1.00  0.00     0.066 C 
ENDROOT
BRANCH   1   2
ATOM      2  C   UNL     1     130.395 128.198 125.791  1.00  0.00     0.085 C 
BRANCH   2   3
ATOM      3  N   UNL     1     129.641 129.367 125.708  1.00  0.00    -0.320 NA
ATOM      4  C   UNL     1     129.327 129.954 124.469  1.00  0.00     0.101 C 
ATOM      5  H   UNL     1     129.006 129.621 126.466  1.00  0.00     0.122 HD
ENDBRANCH   2   3
ENDBRANCH   1   2
BRANCH   1   6
ATOM      6  C   UNL     1     131.194 126.107 127.064  1.00  0.00     0.215 C 
BRANCH   6   7
ATOM      7  O   UNL     1     131.892 125.664 125.947  1.00  0.00    -0.484 OA
BRANCH   7   8
ATOM      8  C   UNL     1     133.264 125.650 125.875  1.00  0.00     0.128 A 
ATOM      9  C   UNL     1     134.078 126.551 126.486  1.00  0.00     0.047 A 
ATOM     10  C   UNL     1     133.846 124.620 125.110  1.00  0.00     0.024 A 
ATOM     11  C   UNL     1     135.460 126.436 126.342  1.00  0.00     0.004 A 
ATOM     12  C   UNL     1     133.027 123.691 124.487  1.00  0.00     0.012 A 
ATOM     13  C   UNL     1     135.213 124.489 124.956  1.00  0.00    -0.015 A 
ATOM     14  C   UNL     1     136.024 125.432 125.596  1.00  0.00     0.009 A 
ATOM     15  C   UNL     1     133.599 122.682 123.745  1.00  0.00     0.001 A 
ATOM     16  C   UNL     1     135.776 123.476 124.210  1.00  0.00     0.009 A 
ATOM     17  C   UNL     1     134.964 122.560 123.596  1.00  0.00     0.001 A 
ENDBRANCH   7   8
ENDBRANCH   6   7
BRANCH   6  18
ATOM     18  C   UNL     1     130.326 124.967 127.574  1.00  0.00     0.045 A 
ATOM     19  C   UNL     1     130.232 124.417 128.801  1.00  0.00     0.019 A 
ATOM     20  S   UNL     1     129.155 124.026 126.622  1.00  0.00    -0.145 S 
ATOM     21  C   UNL     1     129.393 123.413 129.030  1.00  0.00     0.012 A 
ATOM     22  C   UNL     1     128.639 122.971 127.971  1.00  0.00     0.065 A 
ENDBRANCH   6  18
ENDBRANCH   1   6
TORSDOF 6
ENDMDL
MODEL 9
REMARK VINA RESULT:      -7.9      2.357      6.445
REMARK SMILES CNCC[C@H](Oc1cccc2ccccc12)c1cccs1
REMARK SMILES IDX 4 1 3 2 2 3 1 4 5 6 6 7 7 8 8 9 16 10 9 11 15 12 11 13 10 14
REMARK SMILES IDX 14 15 12 16 13 17 17 18 18 19 21 20 19 21 20 22
REMARK H PARENT 2 5
ROOT
ATOM      1  C   UNL     1     131.905 124.871 126.201  1.00  0.00     0.066 C 
ENDROOT
BRANCH   1   2
ATOM      2  C   UNL     1     133.352 125.038 126.051  1.00  0.00     0.085 C 
BRANCH   2   3
ATOM      3  N   UNL     1     133.934 125.558 124.897  1.00  0.00    -0.320 NA
ATOM      4  C   UNL     1     135.035 124.935 124.283  1.00  0.00     0.101 C 
ATOM      5  H   UNL     1     133.390 126.158 124.275  1.00  0.00     0.122 HD
ENDBRANCH   2   3
ENDBRANCH   1   2
BRANCH   1   6
ATOM      6  C   UNL     1     131.095 125.774 127.050  1.00  0.00     0.215 C 
BRANCH   6   7
ATOM      7  O   UNL     1     130.111 125.210 127.854  1.00  0.00    -0.484 OA
BRANCH   7   8
ATOM      8  C   UNL     1     129.331 124.152 127.458  1.00  0.00     0.128 A 
ATOM      9  C   UNL     1     128.687 124.073 126.263  1.00  0.00     0.047 A 
ATOM     10  C   UNL     1     129.204 123.084 128.369  1.00  0.00     0.024 A 
ATOM     11  C   UNL     1     127.921 122.945 125.969  1.00  0.00     0.004 A 
ATOM     12  C   UNL     1     129.861 123.150 129.587  1.00  0.00     0.012 A 
ATOM     13  C   UNL     1     128.450 121.959 128.095  1.00  0.00    -0.015 A 
ATOM     14  C   UNL     1     127.799 121.907 126.858  1.00  0.00     0.009 A 
ATOM     15  C   UNL     1     129.740 122.103 130.473  1.00  0.00     0.001 A 
ATOM     16  C   UNL     1     128.335 120.915 128.988  1.00  0.00     0.009 A 
ATOM     17  C   UNL     1     128.984 120.984 130.192  1.00  0.00     0.001 A 
ENDBRANCH   7   8
ENDBRANCH   6   7
BRANCH   6  18
ATOM     18  C   UNL     1     130.430 126.739 126.080  1.00  0.00     0.045 A 
ATOM     19  C   UNL     1     130.424 126.764 124.732  1.00  0.00     0.019 A 
ATOM     20  S   UNL     1     129.442 128.152 126.511  1.00  0.00    -0.145 S 
ATOM     21  C   UNL     1     129.766 127.713 124.076  1.00  0.00     0.012 A 
ATOM     22  C   UNL     1     129.104 128.652 124.828  1.00  0.00     0.065 A 
ENDBRANCH   6  18
ENDBRANCH   1   6
TORSDOF 6
ENDMDL
